# vtk DataFile Version 2.0
Vessel Segment
ASCII
DATASET POLYDATA
POINTS 119 float
-0.005696843595809891 -0.007011594177613376 -0.002313097006129763
-0.011608193906571355 -0.012230353896416721 -0.0012917739327510747
-0.017579644766815714 -0.016075559817075924 0.0022805694871189663
-0.0234584836067671 -0.018961292658873627 0.007622247828865816
-0.029097775617942037 -0.021284410794817472 0.013960653107070328
-0.03436685646520109 -0.02340050381309321 0.02055053383600633
-0.03916664275624111 -0.025595729144776903 0.026702371203608268
-0.04345123161202035 -0.028066064799773926 0.031816409350587285
-0.04724863915550771 -0.03091015600695349 0.03541841588694623
-0.05067094284673886 -0.03414440129723686 0.03719345816804903
-0.05389970312328479 -0.03773133505014766 0.037009259296224575
-0.05714452045881249 -0.041615529952845856 0.034929350601405694
-0.06058578542068286 -0.04575292941547316 0.031205966839918244
-0.06432013921794207 -0.05013072584228342 0.026241099008650383
-0.0683261859905156 -0.0547702897193829 0.020518171941651387
-0.0724575831828261 -0.05971480687788111 0.014516555530235021
-0.07646371817822345 -0.06500435436411507 0.00862782377125823
-0.08003116168887865 -0.07064774401976749 0.003093545490907245
-0.08283720862586863 -0.07660538040728981 -0.0020210977779320785
-0.08460282028929729 -0.08278917925734429 -0.006813009423792791
-0.0851384194268436 -0.08908207986808217 -0.01149094399833087
-0.08437216568925761 -0.09537103730948583 -0.016299908128160758
-0.08235535966070741 -0.10158010978094663 -0.02144025013619736
-0.07924689082997226 -0.1076914694351179 -0.02699891925981682
-0.07528458178589799 -0.11374790686498015 -0.032907354823793034
-0.0707522055020898 -0.11983578988938397 -0.03893145081205787
-0.06595468099722186 -0.12605157787284885 -0.044694499404789645
-0.06119690546216956 -0.13245836713491277 -0.04972711607752651
-0.05676815720842786 -0.13904150145226365 -0.05353955905644052
-0.052923862853748824 -0.14567462491115094 -0.05570308853764211
-0.04986658452524717 -0.15210738276407584 -0.055923157630886976
-0.04772875295197376 -0.15798405780930497 -0.054089887732451304
-0.04656255753052501 -0.16289120823816206 -0.05029236129039657
-0.046338500670737075 -0.16643709525019595 -0.04479700562137575
-0.04695613869238147 -0.16833123198994043 -0.037995484367084775
-0.048263017471604885 -0.16844745577987474 -0.03033541676385536
-0.05008141063573544 -0.16686871198863293 -0.022247735063639286
-0.052234712327894915 -0.16387395931474083 -0.014086827755307505
-0.05457051621298608 -0.15988942094281766 -0.006092646868133304
-0.05697388572038519 -0.1554167118591078 0.0016215230417713175
-0.0593697039910297 -0.15094515643505524 0.00905736992811657
-0.06171388220343223 -0.14687459607787248 0.016302308537806138
-0.06397619431341868 -0.14346088157108658 0.023491757856122765
-0.0661225516747062 -0.14080172178461492 0.030771517803236764
-0.06810208631178005 -0.13886809940396783 0.03826515372306216
-0.06984483761603781 -0.13755856237310943 0.046048588194035484
-0.0712683998607098 -0.1367699396589842 0.05413563584893084
-0.07228889303182842 -0.1364532304158916 0.06247435498115223
-0.07283355192218743 -0.13663956499295976 0.07095189143323768
-0.07285476144786177 -0.13743232806264852 0.07941265853155641
-0.07234155176134792 -0.13897624935311384 0.08768063205058453
-0.07133112833754728 -0.14141606431832585 0.09558553205829702
-0.06991034899089832 -0.14485814718461765 0.10298838758495363
-0.06820857807954027 -0.14933666201962667 0.10980315203605213
-0.06637454938224858 -0.15480767759366346 0.1160093388599098
-0.06454771420391121 -0.16113996471577366 0.12165277646697216
-0.06282875720405585 -0.16814459769107726 0.12683175019650544
-0.061257524483913826 -0.1755971384746285 0.13167576265337133
-0.059805240319597476 -0.18327835377168766 0.1363166675156019
-0.05838362372687437 -0.19100031789180438 0.14086663082665468
-0.05686978647312165 -0.19862774131439323 0.1454018300929246
-0.05514245953668926 -0.20609505231664244 0.14996142034334456
-0.053115693290004186 -0.21339588526479356 0.1545501214503118
-0.05076172475784526 -0.22057522265125556 0.1591514469670393
-0.048115065313504436 -0.22770993914936574 0.16373820303831227
-0.04525696404290015 -0.23488186210817832 0.16828134598278313
-0.042287084461376204 -0.24215817650110139 0.1727511952383575
-0.03928810505007776 -0.2495728679059799 0.17712924702304747
-0.03629641321944969 -0.257109124250567 0.18138899057118704
-0.03328298367646253 -0.26469921665997365 0.18551302483125554
-0.030150355658982123 -0.27223063885225546 0.18947830483212236
-0.026746333315491495 -0.2795495754614714 0.19326514672521397
-0.022893952094515196 -0.2864950115184543 0.19686627688793018
-0.0184289217078362 -0.2929108800886883 0.20028755772786852
-0.013238654019370752 -0.29866914463033495 0.20356342539416225
-0.007289467846442922 -0.3036920314633303 0.2067538773792094
-0.0006338497808351069 -0.30794076874464105 0.2099459364591325
0.006602549817743153 -0.3114165579143338 0.21323707857149063
0.014250329785202675 -0.3141421871879617 0.21671478863706203
0.022131491995410663 -0.31614753728037503 0.22044489100881579
0.03009240576119537 -0.3174619469120364 0.22444934110595235
0.03802424648380141 -0.31811333243042106 0.2286999532947514
0.04586930515381809 -0.31813331733166 0.23313075066253208
0.05361350161824019 -0.31756029433890537 0.23765135618921127
0.061271309718974806 -0.3164451307491282 0.2421749005591961
0.06886854208772264 -0.3148528192795225 0.24663927923164797
0.07642880996635566 -0.3128639180562896 0.2510156015982342
0.08396686215695912 -0.31056795751839206 0.2553189386772205
0.09148835650731148 -0.30806604877274074 0.2595830097922138
0.09899365365609648 -0.3054658558367035 0.26385862831765733
0.10648279065175144 -0.3028811678483147 0.2681924368928626
0.11395776817661217 -0.3004220012442528 0.272615757648208
0.12142209386504371 -0.2981925585920156 0.2771386087866592
0.1288751057012474 -0.29628285029560525 0.28175938118161054
0.13630093390537 -0.2947666023329944 0.2864706311992302
0.14366943939175225 -0.2936894705396921 0.29127298006273133
0.15092368631239325 -0.2930728927813522 0.29618049721262196
0.1579899701623568 -0.2929305795802938 0.3012233630177908
0.16479205240227715 -0.2932683006502881 0.3064324416661432
0.17125378195563767 -0.29410494242074725 0.3118352466021771
0.17731923643037942 -0.2954759156843894 0.31743417205376484
0.18294324626577668 -0.29743050524743764 0.3232135507570384
0.1880847005254185 -0.30001740049693293 0.32914145799288186
0.1926921653576089 -0.30326690589014593 0.3351912646656397
0.19669422230035372 -0.30716676029711565 0.3413436919073503
0.20000898163594044 -0.31165658449130496 0.34759896574146726
0.20255827486635614 -0.31660610955809354 0.35396396829009863
0.20428054444552016 -0.3218217148368744 0.36045619858271294
0.2051434659374813 -0.32704739982158665 0.36709119076030056
0.20515733746130335 -0.33199961235598763 0.3738834320779392
0.20437905467007164 -0.33639984161900477 0.38082806775071865
0.20292460905990553 -0.3400412226555992 0.3879022232997547
0.2009763055459735 -0.3428368571077304 0.3950619894616141
0.19879548834587205 -0.34484662174814523 0.402233467733105
0.19671473404544904 -0.34628388301058316 0.4093275034364152
0.1951295170730039 -0.34748181807793854 0.41624080118414375
0.19447124340966462 -0.34885499156018746 0.42286419238791323
0.19518932387244683 -0.35085513747789615 0.4290855771299127
0.1977409620718047 -0.353945930613031 0.43479128764044644
LINES 1 120
119 0 1 2 3 4 5 6 7 8 9 10 11 12 13 14 15 16 17 18 19 20 21 22 23 24 25 26 27 28 29 30 31 32 33 34 35 36 37 38 39 40 41 42 43 44 45 46 47 48 49 50 51 52 53 54 55 56 57 58 59 60 61 62 63 64 65 66 67 68 69 70 71 72 73 74 75 76 77 78 79 80 81 82 83 84 85 86 87 88 89 90 91 92 93 94 95 96 97 98 99 100 101 102 103 104 105 106 107 108 109 110 111 112 113 114 115 116 117 118
POINT_DATA 119
SCALARS isSiphon int
LOOKUP_TABLE default
0
0
0
0
0
0
0
0
0
0
0
0
0
1
1
1
1
1
1
1
0
0
0
0
0
0
0
0
0
0
0
0
0
0
0
0
0
0
0
0
0
0
0
0
0
0
0
0
0
0
0
0
0
0
0
0
0
0
0
0
0
0
0
0
0
0
0
0
0
0
0
0
0
0
0
0
0
0
0
0
0
0
0
0
0
0
0
0
0
0
0
0
0
0
0
0
0
0
0
0
0
0
0
0
0
0
0
0
0
0
0
0
0
0
0
0
0
0
0
