# vtk DataFile Version 2.0
Vessel Segment
ASCII
DATASET POLYDATA
POINTS 119 float
-0.00397759318599267 -0.007797523762791961 0.002105599653628121
-0.0074217478272002235 -0.01540987670730609 0.0041542829277702665
-0.010502417332765333 -0.02277599948993518 0.006062222271787373
-0.013387443256892966 -0.029835093973119228 0.007751517003843214
-0.01623725875201656 -0.036526149740473114 0.009160548103408264
-0.01919368537484771 -0.042791181170290016 0.010255145717641925
-0.022365086940251223 -0.04858172030954618 0.011027287664978385
-0.02580760416108676 -0.05387315292664831 0.01147444561671277
-0.029507278808585894 -0.05868033142439374 0.01156539025248548
-0.03337438525248869 -0.063067816588588 0.011214954814394749
-0.03724899868371403 -0.06714751194769554 0.010285686047599297
-0.04091761894058013 -0.0710619402598271 0.008619080136370603
-0.04413922652685513 -0.07495557931056214 0.006081923608398105
-0.046675860309376184 -0.07894123390590362 0.0026048239312627263
-0.048321003127348626 -0.08307560305196565 -0.0018014445243222888
-0.04892708865153711 -0.08734903282756915 -0.0070490999369271015
-0.04842768322634901 -0.0916940574486708 -0.012986798418623277
-0.046842655985659044 -0.09601079027382345 -0.019422234163371677
-0.04426504661706083 -0.10020390607108333 -0.02615141310144619
-0.04083414873104021 -0.10421494252504104 -0.03298695005009688
-0.03670556430360625 -0.10803947537741447 -0.03978084922220095
-0.03202250115506018 -0.11172573652319995 -0.04643574779593181
-0.026895320785943286 -0.11535763929721 -0.05290269660508497
-0.02139430555929449 -0.11903139742835225 -0.059164616745657754
-0.01555977857602486 -0.12283496890069166 -0.06520845817471398
-0.009426838145411004 -0.12683444620520695 -0.07099400494068386
-0.003056399478612877 -0.13106791398732903 -0.07642412228711584
0.0034394739908399324 -0.1355422653826417 -0.08132555019006488
0.009886856864554639 -0.14022736552200224 -0.08544344832347943
0.01605890936506853 -0.14505183375593717 -0.08846016738859888
0.021700175351495144 -0.14990324335785735 -0.0900377836619529
0.026560066266641022 -0.15464354139014033 -0.08987977984461451
0.030426335473455798 -0.15911657391372305 -0.08779668110511193
0.03315182963996207 -0.16318069202856852 -0.08375687544170186
0.0346680568016335 -0.1667234551770299 -0.07790953385783429
0.03498243707888932 -0.16967859589145856 -0.07056735879796333
0.034164960432251014 -0.17202554560208386 -0.062163890133016105
0.03232828750526681 -0.1737774310803212 -0.05319344075210322
0.029607824326706143 -0.17495865751608772 -0.044150189990581484
0.026148539196823105 -0.17557824771824185 -0.035474219834856636
0.022098061718017398 -0.17560221333926623 -0.027512161859448648
0.01760570670651211 -0.1749373331027532 -0.020491231737521896
0.01282518340408405 -0.17342949534468166 -0.014504941977801014
0.00791799343655402 -0.1708996848473809 -0.009513848727847295
0.0030567089028793893 -0.16719857546283126 -0.005356937723661911
-0.001576026293201582 -0.16226972720737207 -0.0017765771101669772
-0.005793621074926052 -0.15620529180276652 0.0015402201484673971
-0.009416595415012904 -0.14926853447289767 0.0049118768308184235
-0.012284013819812034 -0.14188637797308365 0.00861268435821242
-0.014261785354419175 -0.13460066682759053 0.012834438251304101
-0.015249250560650315 -0.12800812972287562 0.017663993152954936
-0.015183918369994437 -0.12267783212355177 0.023082099861279123
-0.014052454739749184 -0.11907314766738994 0.028977826908133945
-0.011902329043751879 -0.11748931454537317 0.03517516388953032
-0.008851192080828666 -0.11802526837807088 0.041467823075465315
-0.005085918621800498 -0.12058971489052575 0.04765051783768379
-0.0008462761414669745 -0.12493910330713087 0.05354154964063333
0.003606021987083428 -0.13073595099326413 0.05899250795317416
0.008023273476486053 -0.13761366172415526 0.06388474971711647
0.012203418048171304 -0.14522460432371448 0.06812219627068529
0.016009749091950853 -0.1532807011911863 0.07162313747075813
0.019379312645948752 -0.16156740874773595 0.07431839730182113
0.022318147254885397 -0.16994271133419264 0.07615566025514298
0.024890664860753125 -0.17832932249073494 0.0771098355238024
0.02720318315329847 -0.18669015300093758 0.07719782278814878
0.029384243183919505 -0.19501905786859278 0.07649096642609918
0.03156452753275119 -0.20331918463050397 0.07512405803459263
0.03385649620291663 -0.2115948965845244 0.07329476721322058
0.03633932127764444 -0.21984986551509067 0.07125330214082319
0.03905167392135572 -0.22807833679075384 0.0692843801194534
0.04199386330251384 -0.2362674904216703 0.06768094738242562
0.045142888264282276 -0.24439168805898298 0.06671415287665212
0.04847064257127881 -0.25241141674066353 0.06660193391936313
0.05196380317757703 -0.26027155256990836 0.06748118418925136
0.055635808634501606 -0.26790078396579364 0.06939247408461606
0.05953052079088712 -0.27521648367360846 0.07227765773396373
0.06371647205789939 -0.28212705136304284 0.07599154140895768
0.0682759209494395 -0.28853655514167653 0.08032483203644684
0.07329163750463194 -0.2943526140305029 0.08503320252430989
0.07883269368052186 -0.2994832744303341 0.0898676607174419
0.08494187599208466 -0.3038507709472447 0.09460380431126739
0.09162272344912323 -0.30738623394039327 0.0990674562081584
0.09883421281400759 -0.31004174936917617 0.10315118592435653
0.10649158608040615 -0.3117870126219504 0.1068205776232473
0.11447756930718744 -0.3126206604390326 0.1101083781663616
0.12265922576517173 -0.31256339480738243 0.11309804355950266
0.13090882434503212 -0.31166935170434007 0.11590042693002856
0.13912651746520058 -0.3100327460619588 0.11863018595762978
0.1472434353717038 -0.30778310697799655 0.12138758565159975
0.1552313006258209 -0.30508133218034533 0.12424607332807072
0.163094279787263 -0.3021024204938741 0.127248450631863
0.17085195261904448 -0.29900800398702976 0.13040837628033067
0.178536559906426 -0.2959296543718868 0.13371583106180432
0.18617505538184853 -0.2929525950971957 0.13714366063836148
0.1937879254703394 -0.2901171813157614 0.14066158318532385
0.20139305473033253 -0.2874338636781917 0.14423428657139484
0.20900937968027467 -0.2849018912005125 0.14783661077343582
0.2166598257464251 -0.28253016319181623 0.15145545797591947
0.22437612764437773 -0.28035113633273395 0.15509498406704322
0.23219297483611465 -0.27842239511177674 0.1587729841581313
0.2401349065476883 -0.27681525857692557 0.16253216984167004
0.24819889946654722 -0.27561055290703435 0.16642741608082715
0.256343391906186 -0.27488479711628167 0.17052220270780963
0.26446903738198774 -0.2747018281768612 0.1748823762711351
0.27241483352417806 -0.2751213261756175 0.17956069725210955
0.27996124471805756 -0.276190339141047 0.18458503546460875
0.2868498155545953 -0.27794988877421917 0.18994697703958877
0.29280465604656725 -0.2804341843628043 0.19560362827374572
0.2975671733616752 -0.2836635876867737 0.20147298234155372
0.3009397220732158 -0.28764161364895724 0.20744915861288088
0.3028144905975943 -0.2923511788041394 0.2134135306588896
0.30319712060164944 -0.2977481365726952 0.2192527775433323
0.30220283508279056 -0.30375449499376117 0.22488599880580293
0.3000486027143722 -0.31025446952302116 0.23026661556276454
0.2970171819123356 -0.3171033931411891 0.23539034080287188
0.2934371866003438 -0.3241303660658637 0.24028846916346544
0.2896548086278187 -0.33115272526115674 0.24501401843334095
0.28602977690113807 -0.33797961592965103 0.249626779174205
0.28292266490504336 -0.34442222864630984 0.2541936896492528
LINES 1 120
119 0 1 2 3 4 5 6 7 8 9 10 11 12 13 14 15 16 17 18 19 20 21 22 23 24 25 26 27 28 29 30 31 32 33 34 35 36 37 38 39 40 41 42 43 44 45 46 47 48 49 50 51 52 53 54 55 56 57 58 59 60 61 62 63 64 65 66 67 68 69 70 71 72 73 74 75 76 77 78 79 80 81 82 83 84 85 86 87 88 89 90 91 92 93 94 95 96 97 98 99 100 101 102 103 104 105 106 107 108 109 110 111 112 113 114 115 116 117 118
POINT_DATA 119
SCALARS isSiphon int
LOOKUP_TABLE default
0
0
0
0
0
0
0
0
0
0
0
0
0
0
0
0
0
0
0
0
0
0
0
0
0
0
0
0
0
0
0
0
0
0
0
0
0
0
0
1
1
1
1
1
1
1
0
0
0
0
0
0
0
0
0
0
0
0
0
0
0
0
0
0
0
0
0
0
0
0
0
0
0
0
0
0
0
0
0
0
0
0
0
0
0
0
0
0
0
0
0
0
0
0
0
0
0
0
0
0
0
0
0
0
0
0
0
0
0
0
0
0
0
0
0
0
0
0
0
