# vtk DataFile Version 2.0
Vessel Segment
ASCII
DATASET POLYDATA
POINTS 119 float
-0.006806567747154982 -0.005999236249285464 -0.002885557720331541
-0.013628039251648233 -0.012196862408584112 -0.004553803840385373
-0.020384470714853678 -0.018460825520454145 -0.005318461692902742
-0.02699705975178538 -0.024660409864892856 -0.005494603622156981
-0.03339188186352427 -0.030670185042014936 -0.005400002077029978
-0.039504823504918005 -0.03637712980123343 -0.005353388004040261
-0.04529096495114257 -0.04169221946991676 -0.005665509839555724
-0.05073106223755835 -0.046565793731106815 -0.006619168824498183
-0.05583834318083129 -0.05100058900092037 -0.00843835859783765
-0.06065687914006965 -0.05506199028573214 -0.011252709639454444
-0.06525211370594067 -0.05887475702810988 -0.015074815135553034
-0.06969295500427276 -0.06261058292483732 -0.01979630251175395
-0.07403124397917925 -0.06646285462500943 -0.025213225976799914
-0.07827903009632993 -0.07061285060861176 -0.031072887813484853
-0.08239478817264584 -0.07519767436884038 -0.03712435586925149
-0.08627797574155677 -0.08028770020678033 -0.04316067176359476
-0.08977563732728568 -0.08587521051186515 -0.04904365941800051
-0.09269775986948145 -0.09187998296508863 -0.054709019500952645
-0.09483992679014897 -0.0981635826183519 -0.06016065683410077
-0.09600696593240676 -0.10455289246080253 -0.06545634220171319
-0.09603849325196513 -0.11086744970059152 -0.07068843070674458
-0.09483263940710533 -0.11694893549849804 -0.07596076978894306
-0.09236644696397323 -0.12268897410827301 -0.08135834059143428
-0.0887096489074289 -0.1280486189731251 -0.0869186130978439
-0.08402373997653055 -0.1330612311461865 -0.09260150737408504
-0.0785507461131028 -0.13782153933233607 -0.09826991016490333
-0.07258655469161195 -0.14245703525921172 -0.10368257365061667
-0.066449947778193 -0.14709224908903032 -0.10850861097889565
-0.06045149542744968 -0.15181372558260126 -0.11236291782991129
-0.05486558454135216 -0.15663920995766192 -0.11486217619094626
-0.04991396509197656 -0.1615097082535375 -0.11569166152569024
-0.04575419499772896 -0.16628392758531296 -0.11466577430749383
-0.04247822819965092 -0.17076379160711697 -0.11176987227253468
-0.04011721645636299 -0.17472672154587793 -0.10716385572679825
-0.038649120077506864 -0.17796458997688447 -0.10115198336511635
-0.038004865604071854 -0.18032633871427559 -0.0941238259959065
-0.03807164350373991 -0.18174608699607206 -0.08648379709546246
-0.03869699949755466 -0.18226167025748435 -0.07858830089764526
-0.03969983082632203 -0.18201209181579245 -0.07070042792122354
-0.040891631537596444 -0.1812224669312041 -0.06296785807993388
-0.042102392921591465 -0.1801806446741949 -0.05542806584332181
-0.04320369089425614 -0.17919178069382483 -0.04803068451343657
-0.0441179019071037 -0.17854394446982025 -0.04067643023004464
-0.04481826992781057 -0.17846648156881234 -0.03325650596153884
-0.04532157074524284 -0.17911806593119928 -0.02568840481877066
-0.04567802181273186 -0.1805822912953457 -0.01794246273795991
-0.045959560220876626 -0.18288175606591012 -0.010050649146341909
-0.04624578483628729 -0.18598252298107895 -0.00210394932990717
-0.04661195338304855 -0.1898187560005558 0.005760219598848931
-0.04711841476975167 -0.1943070128363254 0.013376033009067523
-0.04780687307066105 -0.19936505339257266 0.02056869646837031
-0.048697217176040114 -0.20492819255396486 0.02717445056712104
-0.049789292253519586 -0.21095676280264633 0.03306283405404558
-0.05106406129095514 -0.21742914901337806 0.03815695849363494
-0.05248155967490089 -0.2243276071543336 0.042451430537015326
-0.053983369764095734 -0.231632149190551 0.046019110222227926
-0.05549335229355026 -0.2392973056371911 0.049001171170828646
-0.0569249759032264 -0.24726104109287766 0.05158612389568914
-0.058186459065577324 -0.25544366518298545 0.05397516690266593
-0.05918955202711912 -0.26375985546860586 0.05634932456591727
-0.059850673950298375 -0.2721277782650961 0.05884387171956551
-0.060091560209429046 -0.28048053587769184 0.061532386923906834
-0.05983981412048369 -0.2887675602223163 0.06442606654027774
-0.059028935239937005 -0.29695668904405487 0.0674794272178472
-0.057601514043618005 -0.3050329906025268 0.07060560879455213
-0.055515050831238366 -0.3129851497784664 0.07369524102987592
-0.0527436264007082 -0.32080137658344055 0.07663516630426202
-0.049282289852404175 -0.32845827193507493 0.07932879535027203
-0.04514524837748947 -0.3359087503728794 0.08171420777117497
-0.04036849049781629 -0.34308487978828767 0.08377963260325791
-0.03501354107979811 -0.34989421930781817 0.08557656284351907
-0.02917263432370023 -0.3562331426141928 0.08722359525958641
-0.02296978403168642 -0.3619970824535724 0.08890003101814184
-0.016555433101595355 -0.36709420036105067 0.09082890674659759
-0.01009100337532739 -0.3714604558823706 0.09324439400552241
-0.003725789245627888 -0.3750699262230725 0.09635519831241507
0.002425632709734716 -0.3779484668952519 0.10030537962303598
0.008301791156986028 -0.38016568226297853 0.10514781698955923
0.013899784750263346 -0.38183645057994176 0.11083589481277374
0.01926978344264482 -0.38310135883561447 0.11723447364133512
0.024499182146005827 -0.38410090772411043 0.12414705731150526
0.029693345333270265 -0.38496008892641104 0.13134848307013172
0.03495888923804584 -0.3857508066766222 0.13861426627131662
0.04039123722454943 -0.38649009000081225 0.14574225073677366
0.04606642624180556 -0.3871290487471559 0.1525690662898652
0.05203660915865293 -0.38757720413998 0.15897511124157618
0.05832493368010736 -0.3877168380432251 0.16488972645354796
0.06492444156604231 -0.3874448868848501 0.17029729577950772
0.07179962176986811 -0.38670676920276453 0.17523195024651442
0.0788918104408603 -0.38551162651984044 0.17977326432885676
0.08613117732781081 -0.3839452394032882 0.18403661258047227
0.09344710701864299 -0.38216160597835563 0.18815519096474087
0.10077732681147067 -0.38035374341214473 0.192265197929488
0.10808440844119085 -0.37872170120129406 0.1964816152341594
0.11534754847554037 -0.3774355900767953 0.2008888268235879
0.12256947759535695 -0.37661961088220824 0.20553604630099034
0.12976134284505894 -0.3763340383768138 0.21042922556908747
0.13692927670960342 -0.3765857394898839 0.21555089836958696
0.1440572205203798 -0.37734581045801535 0.22086589163311668
0.151099465444913 -0.3785739181618815 0.2263371053276903
0.1579687299639106 -0.3802319221667798 0.2319266170032773
0.16453701138859375 -0.3823064972171044 0.23760144558187643
0.17066250117616266 -0.38481785879677693 0.2433166011510475
0.17618745895213775 -0.38781986971866955 0.24901480751704907
0.18098447674286475 -0.3913961683464663 0.25461240934837115
0.18495970536526063 -0.39564223646084135 0.2600069993215592
0.18808012748899175 -0.40064304133833123 0.26507957662674386
0.19036619184664538 -0.40644509363937675 0.26972627226861046
0.19188080497753734 -0.4130453932561138 0.2738716531460719
0.19271768910122544 -0.42038109945303104 0.2774808868864507
0.19297434969799612 -0.42834042249177107 0.28057045193662217
0.19275411343738544 -0.43677865717337366 0.28319648417983545
0.1921413749063506 -0.44553478829867194 0.2854465349384853
0.19122392785535985 -0.45444242404561563 0.28742601663778505
0.19007160011690544 -0.4633491577929015 0.2892568593342908
0.18875961008083258 -0.4721045849646436 0.2910581706996807
0.1873593497187483 -0.4805680216867393 0.2929575294167458
0.1859358337980165 -0.4886034617666503 0.2950759658772596
0.1845650869302914 -0.4960732480090125 0.29753796439314184
LINES 1 120
119 0 1 2 3 4 5 6 7 8 9 10 11 12 13 14 15 16 17 18 19 20 21 22 23 24 25 26 27 28 29 30 31 32 33 34 35 36 37 38 39 40 41 42 43 44 45 46 47 48 49 50 51 52 53 54 55 56 57 58 59 60 61 62 63 64 65 66 67 68 69 70 71 72 73 74 75 76 77 78 79 80 81 82 83 84 85 86 87 88 89 90 91 92 93 94 95 96 97 98 99 100 101 102 103 104 105 106 107 108 109 110 111 112 113 114 115 116 117 118
POINT_DATA 119
SCALARS isSiphon int
LOOKUP_TABLE default
0
0
0
0
0
0
0
0
0
0
0
0
0
0
0
0
0
0
0
0
0
0
0
0
0
0
0
1
1
1
1
1
1
1
0
0
0
0
0
0
0
0
0
0
0
0
0
0
0
0
0
0
0
0
0
0
0
0
0
0
0
0
0
0
0
0
0
0
0
0
0
0
0
0
0
0
0
0
0
0
0
0
0
0
0
0
0
0
0
0
0
0
0
0
0
0
0
0
0
0
0
0
0
0
0
0
0
0
0
0
0
0
0
0
0
0
0
0
0
