# vtk DataFile Version 2.0
Vessel Segment
ASCII
DATASET POLYDATA
POINTS 119 float
-0.004285142540026985 -0.007059227581819222 0.0004674657881096108
-0.009475592698559972 -0.014775093230791075 0.0015649727690671687
-0.015349068680893294 -0.022809902568745953 0.0031194526175962302
-0.02164938611367126 -0.0308524177728739 0.004880294570849065
-0.028155154225314716 -0.038680777106399354 0.006600800837335674
-0.03469749877845899 -0.04617367766724243 0.008055040421960011
-0.04113701334603871 -0.053270134052237135 0.0090226890928367
-0.04734032474379451 -0.059934735678994315 0.009295099761568303
-0.053180078491937066 -0.06614959087218533 0.008707068846056919
-0.05856329651603844 -0.07193682236806516 0.0071688283143032435
-0.06345090028106154 -0.07738415672155093 0.004643234597011055
-0.06782484482078649 -0.0826191907474435 0.0011030451729262432
-0.07164178751251017 -0.08776309649678452 -0.0034557002841899467
-0.07482465343843181 -0.09291438981736952 -0.008956540215156754
-0.07729135916576285 -0.09815273504596439 -0.015231624001603997
-0.07899652404461945 -0.10353367880449295 -0.02205391670968253
-0.07992900650541516 -0.10908915833188439 -0.02922750591605899
-0.08008059175545996 -0.11481136999864476 -0.03659659244073289
-0.07945324077282674 -0.12067176538525576 -0.044042463302804785
-0.07806365643240971 -0.12664331563560968 -0.05147387034067309
-0.07594392354685252 -0.13271494770596737 -0.05882454953685993
-0.07314345073857048 -0.1388793864330058 -0.06602526602766574
-0.06974742263491748 -0.14511943029763508 -0.07296785153448085
-0.06589233424459962 -0.15139356304891013 -0.07948494880164535
-0.061772930356393745 -0.15761596049779197 -0.08535370434001326
-0.05762845019378558 -0.16365023572405982 -0.09034131782068394
-0.05369728476713356 -0.16934659025239468 -0.0942763056652828
-0.05017397345020025 -0.17458790176835345 -0.09707287372626182
-0.047190996640864 -0.17927113945847772 -0.0987138722273917
-0.04481669072411276 -0.18328950594056445 -0.0992640543071001
-0.043028333195890764 -0.1866126707648406 -0.09887772284852137
-0.04172593671922856 -0.1893235100669069 -0.09772071268712972
-0.0408021583200532 -0.1915677198058534 -0.09584391495502681
-0.04019891643688568 -0.19342918848885604 -0.09319605869198638
-0.039894058160897215 -0.194922327552843 -0.08971393424391913
-0.03988609227640663 -0.1960267036853433 -0.08535255196499383
-0.040188693396314236 -0.19670708223646804 -0.08010415330820499
-0.040817296104608373 -0.1969267060580474 -0.07402413053477921
-0.041765675345678946 -0.19667229215565366 -0.06726016093708924
-0.0429856107283996 -0.19598955319216843 -0.060044008636081864
-0.044380720131789196 -0.19500165283784493 -0.05263271165574869
-0.045836458884142554 -0.19388173115742122 -0.045215635794820234
-0.04725204830836554 -0.19280601745523765 -0.03790274877687127
-0.04854664721147614 -0.19193364769088644 -0.03074760225175907
-0.04965957542651077 -0.19140250486081375 -0.023761869119641045
-0.050549000489008476 -0.19133008854460298 -0.016926330923220972
-0.051188735205521266 -0.191822908529133 -0.010205847521312634
-0.051565577531007586 -0.19298510461720772 -0.0035742036245330054
-0.0516828992064004 -0.19490838149775386 0.002953870336132464
-0.05156174035767947 -0.19764524235622766 0.009322692485835997
-0.05123206900659191 -0.20119932625665585 0.015468032092739371
-0.050726592915193616 -0.20554724914704706 0.02134502368881174
-0.050075564921952455 -0.2106584506593987 0.026925210586013257
-0.04930323308309947 -0.2164944908222691 0.03218909495737707
-0.04842492532775055 -0.22300702596598898 0.03713303020875068
-0.04744391516452594 -0.2301383443435603 0.04177494567426795
-0.046350297165758454 -0.23781966465528848 0.04614894969396706
-0.045125210972595975 -0.24596515458798454 0.050294771895575956
-0.04374729763616047 -0.25447192481593506 0.054244316880745505
-0.04219901113666144 -0.26322738150376296 0.058014414347420856
-0.04046735250445355 -0.2721193212236468 0.06161553551657655
-0.0385310883681945 -0.2810486821619948 0.06506606910804003
-0.03635527119879619 -0.28992846103905057 0.06838725812262104
-0.03389848782806364 -0.2986733464954726 0.07160161912170665
-0.031121164026557836 -0.30720168224530775 0.07473655328101066
-0.027994445161344216 -0.3154413937844103 0.07782418846185786
-0.0245031500780135 -0.32333007622064897 0.08089923356344762
-0.02064363648655559 -0.33081499975019635 0.08399755143091725
-0.01642002682385815 -0.337853632534128 0.08715508407599754
-0.01183924628199695 -0.3444159162438399 0.09040670578591128
-0.006907720855593872 -0.35048257351233814 0.09378481502742254
-0.0016300743687643986 -0.3560444410851737 0.09731984506143747
0.0039918806365812605 -0.36110223769979183 0.10104066064914431
0.009957198415651444 -0.3656621886192236 0.10497353082852635
0.016259921451453017 -0.36973214475664 0.10913778396950238
0.02288399522236728 -0.3733244099587735 0.11353985128435837
0.029807084056786188 -0.37645712159729366 0.1181728107309025
0.03700678595442318 -0.37915087722873647 0.12301759717716014
0.044464510404839876 -0.38142608432497227 0.1280437732164568
0.05216879035419402 -0.3833032311500703 0.13321235459968098
0.06011729721373679 -0.3848047500735681 0.1384842501453115
0.06831217247808166 -0.3859523175278462 0.14382957542438057
0.07675116471388271 -0.3867650488476555 0.1492300549870331
0.08541848895231004 -0.3872609671362333 0.15467928998877734
0.09427792848266615 -0.38746226595333605 0.16018091293277542
0.10326839527002804 -0.3874015190849409 0.16574327717383835
0.11230658739936544 -0.3871284509946609 0.17137449653294945
0.12129575572877153 -0.38671171136760785 0.1770752423072726
0.13013707114152595 -0.38623558610210323 0.18283421310905443
0.1387391610973167 -0.38579112777707286 0.18862891620931257
0.14702421002131644 -0.3854691590406614 0.19442720312461984
0.15493153050870745 -0.38534931000453526 0.20019182406637293
0.1624194962907563 -0.3854934529898351 0.2058849082976453
0.16946889164933104 -0.3859422571741011 0.21147136420537227
0.17608495390364312 -0.3867186516468559 0.21692717293307373
0.18229049194917865 -0.38783600265524787 0.22224128904259025
0.18811459279319764 -0.3893069025578273 0.227414037009297
0.19358412870408673 -0.3911472205803387 0.23245371491275943
0.1987174419485727 -0.39337695084061974 0.23737400591927174
0.20352109896003018 -0.3960177361876419 0.24219334251905142
0.20798788580157265 -0.3990880087118621 0.24693328400833203
0.21209540608203356 -0.40259796743853493 0.2516148802073109
0.21580971820759412 -0.40654443795752937 0.25625045412323866
0.21909730506026717 -0.41090921394985935 0.2608392274455411
0.22194199861757372 -0.4156678141105934 0.26537086052552433
0.22434788170227526 -0.42080263433108056 0.26983475534940976
0.226330632230143 -0.42630748886550646 0.27422291799000736
0.22790853879093925 -0.4321828863453656 0.2785270999391927
0.2291000236704286 -0.4384258898475628 0.28273707037032597
0.22992582564958605 -0.44501910649093773 0.28684150411006093
0.23041432516149674 -0.45192417773355625 0.2908290987208485
0.2306045625796923 -0.45908432761871065 0.2946959103313251
0.23054420010644894 -0.46643556224276683 0.29845069660351875
0.2302854734572344 -0.47391554084683063 0.3021180339676425
0.2298837914018603 -0.48146032072626627 0.30573653911668025
0.22940276920389668 -0.4889794017489593 0.3093464411547637
0.2289124481043218 -0.49631499237842136 0.3129614861638744
0.22847968311992417 -0.5032355224920362 0.31653243149251215
0.228152821796738 -0.5095178079465831 0.31995557108905237
LINES 1 120
119 0 1 2 3 4 5 6 7 8 9 10 11 12 13 14 15 16 17 18 19 20 21 22 23 24 25 26 27 28 29 30 31 32 33 34 35 36 37 38 39 40 41 42 43 44 45 46 47 48 49 50 51 52 53 54 55 56 57 58 59 60 61 62 63 64 65 66 67 68 69 70 71 72 73 74 75 76 77 78 79 80 81 82 83 84 85 86 87 88 89 90 91 92 93 94 95 96 97 98 99 100 101 102 103 104 105 106 107 108 109 110 111 112 113 114 115 116 117 118
POINT_DATA 119
SCALARS isSiphon int
LOOKUP_TABLE default
0
0
0
0
0
0
0
0
0
0
0
0
0
0
0
0
0
0
0
0
0
0
0
0
0
0
0
0
1
1
1
1
1
1
1
0
0
0
0
0
0
0
0
0
0
0
0
0
0
0
0
0
0
0
0
0
0
0
0
0
0
0
0
0
0
0
0
0
0
0
0
0
0
0
0
0
0
0
0
0
0
0
0
0
0
0
0
0
0
0
0
0
0
0
0
0
0
0
0
0
0
0
0
0
0
0
0
0
0
0
0
0
0
0
0
0
0
0
0
