# vtk DataFile Version 2.0
Vessel Segment
ASCII
DATASET POLYDATA
POINTS 119 float
-0.0060592410966593515 -0.005296301034551124 7.530356034132877e-06
-0.012128926250546497 -0.010947750770764899 0.00040909167009011837
-0.018167898133893575 -0.016878660413717075 0.0011244984846539336
-0.02413486903488812 -0.023012021287241332 0.002069067107928923
-0.02998873485282598 -0.029266657971899725 0.0031441916047225903
-0.03568808545390833 -0.03555443406209664 0.004222457445978092
-0.041191387859151954 -0.041778207607582836 0.00513268947724914
-0.046457983180874705 -0.04783548563792847 0.005656539281433821
-0.05144879793584654 -0.05362972212153295 0.005546876347143408
-0.0561280360708788 -0.059091002504546755 0.004568726330854968
-0.060461911845741186 -0.06420047601597137 0.002552239842397035
-0.06441668328095008 -0.06901211027456866 -0.0005596340747508026
-0.06795403638742531 -0.07365700293005317 -0.004689529724147936
-0.07102595192107308 -0.07832354627540448 -0.009637844599554057
-0.07357080521874879 -0.08321632788289962 -0.015124905916959261
-0.07550925867396428 -0.08850393731592686 -0.02085423371740441
-0.07674360407468549 -0.09427292859148241 -0.026576813038988744
-0.07716159760473255 -0.10050198017978401 -0.032138338827288046
-0.07664855513840424 -0.10706298017142447 -0.037494080634913614
-0.07510734325143663 -0.11374763645400086 -0.04268880902323827
-0.07248472034747389 -0.12031286016954137 -0.04780834732150569
-0.06879789027166572 -0.12653147951468233 -0.05291613078230301
-0.06415573150229294 -0.13223331233141591 -0.057995119830108105
-0.058767656503123024 -0.1373272193118237 -0.06290969078497853
-0.05293699596079627 -0.14180297748652493 -0.06739686380886523
-0.04703493012700198 -0.1457009566326802 -0.07109431181058284
-0.04145735012667613 -0.1490785561768195 -0.07359758545613268
-0.03657137284242432 -0.15196606273678398 -0.07453884832921305
-0.03266547358158615 -0.15434569139658252 -0.07366005205205288
-0.02991497088103748 -0.15615855646401056 -0.07086132511868039
-0.02836303240333906 -0.15732364833600337 -0.06622084668528776
-0.027927809299545445 -0.15778160590422988 -0.05997288319606025
-0.028429183548421347 -0.15752419454137587 -0.052458405985186855
-0.029625589990324705 -0.15661320705830703 -0.04406454160485009
-0.03125587271863013 -0.15518674097360036 -0.03516819295909863
-0.0330741905033928 -0.1534616098289288 -0.02609435389551865
-0.034870589134673696 -0.1517178664428682 -0.017096793013597254
-0.03647589781325557 -0.15028157352064622 -0.008356259228778853
-0.037758027485094874 -0.14948895855452932 7.703517838784747e-06
-0.03861897047631194 -0.1496481284534754 0.007918875476602643
-0.038995309757333264 -0.15099395608613014 0.01532959909193867
-0.038864067871775584 -0.1536563859726217 0.022212468146689448
-0.038245952393985753 -0.15764601662852848 0.028560112195918287
-0.03720248541317358 -0.16286099126500328 0.03438732199830042
-0.03582552267249995 -0.16911056170131458 0.039733336351170455
-0.034221015655751245 -0.17614775100173888 0.04465581990703058
-0.03249220463031054 -0.1837212266986738 0.04922202481461333
-0.030726005434340644 -0.19159562982777298 0.053495808882169496
-0.028987389244055976 -0.19959203665480976 0.05752580771220739
-0.027321121968191846 -0.20759502619935583 0.06133945619316315
-0.02575658619046781 -0.215552730645958 0.06494338200378312
-0.02431253380746226 -0.22346664420030604 0.06833024735071995
-0.022996731715419553 -0.23137255698142473 0.07149183130458595
-0.021801000687476296 -0.23931797833392782 0.07443122100368801
-0.020692616192451635 -0.24734184293567457 0.07717394155844604
-0.01960679894615164 -0.25545885481110986 0.07976994625003714
-0.01844383275863982 -0.26365032401904265 0.08228761592369362
-0.017073834240540955 -0.27186255219169314 0.08479817465131571
-0.01534846213805591 -0.28001437954963276 0.08735793638264351
-0.013117930972116418 -0.28800008366790547 0.08999370150699171
-0.010249090593782111 -0.2957014643371382 0.09269794912834171
-0.006640769354989704 -0.30299274455815245 0.09543566610902664
-0.002236737614031451 -0.30974979931218993 0.09816157654094418
0.0029676842040358372 -0.3158579500805762 0.10084182292895313
0.008924740550883173 -0.3212167721316391 0.10347113007180728
0.015541072684551254 -0.32575407759280395 0.10608047088361067
0.02269092261456471 -0.32943113654192707 0.10873154033874724
0.03023413790293216 -0.33224901895280207 0.11150102999066754
0.038033128677363144 -0.3342517754587495 0.11446058109543288
0.045967258715012865 -0.3355269263692613 0.11765851904057792
0.05394265511688551 -0.33618604872859775 0.12110860528307353
0.06189614403423875 -0.3363502835440676 0.12478820482656627
0.0697945861461285 -0.3361376812383029 0.12864578248417427
0.07762911160233953 -0.3356436949711004 0.13260960471182723
0.08540747491141837 -0.3349399420338425 0.13661059944247592
0.09314587512274823 -0.3340714745115939 0.14058811955425488
0.10086037109512577 -0.33306739615218 0.14450722736628724
0.10856034822147909 -0.33194484947330233 0.14835855645963567
0.11624543666245898 -0.33071193953074013 0.1521693526061551
0.12390395085086228 -0.32937230546585156 0.1559906062837454
0.13151653901849206 -0.32792556122268735 0.15988835967493217
0.13905536944312916 -0.32637208168476195 0.16393589692962934
0.14649547387556056 -0.3247261154367165 0.16819727669918189
0.15381461048981668 -0.32302416697399716 0.17271736264768847
0.1609998174574569 -0.3213463794887307 0.17751321963966352
0.1680361474370884 -0.3198174804373072 0.18257293179610945
0.1749108792546955 -0.3186054959084546 0.18785900640497769
0.1816009830745342 -0.3179125380742579 0.19331398425432225
0.18806654021026156 -0.31794498734224397 0.19887126421593662
0.19424215568629993 -0.31888102731025114 0.2044666970140783
0.2000480665200151 -0.3208502719629768 0.21003489792237162
0.20539166395144123 -0.32390227669666144 0.21551779445191616
0.21017769764981886 -0.32801944457197746 0.22086191708065417
0.21432655350687463 -0.33311742327022215 0.22601592192443135
0.21778561115219755 -0.3390705453385225 0.23093190635064814
0.22054304899608415 -0.3457322115622215 0.23557278017902708
0.22263120015720073 -0.3529503197177973 0.23991220699949187
0.22412919043054383 -0.36058265601017464 0.24393542841512977
0.22513999036893703 -0.36850214808037657 0.2476465984224056
0.22577863035009763 -0.37661058256823265 0.2510612313964498
0.22614591657417796 -0.3848310914516817 0.25419947710916513
0.22631457846493144 -0.39311532095651514 0.25708236349643276
0.2263294584222755 -0.40143423033453285 0.2597281929275624
0.2262095188650701 -0.4097802107703974 0.2621460206940673
0.22596316674977607 -0.41815526169230743 0.2643357930464421
0.22560243334089672 -0.42656938768509967 0.26629394180776317
0.22514553636958698 -0.4350311597768416 0.26801414446057165
0.22462131703020177 -0.44354804403963766 0.26949602001665734
0.224064105149744 -0.4521221509363616 0.27074756504481157
0.2235061155216095 -0.46075284539730127 0.27178977600996784
0.22297442078130447 -0.46942980544365265 0.2726535887716811
0.22248548337223298 -0.4781441362180407 0.273380333685944
0.22204902137954197 -0.48688308485261567 0.2740125267732977
0.22166167023570196 -0.49563263975974337 0.2745975552585698
0.22131431248942518 -0.5043816399972845 0.2751757968141928
0.2209967322668439 -0.5131175520772969 0.2757910881557273
0.22069228416917333 -0.5218292097255742 0.27648153815634047
0.2203862245127642 -0.5305062459309718 0.27728542728606204
0.2200629528222151 -0.5391366614104545 0.2782417394670223
LINES 1 120
119 0 1 2 3 4 5 6 7 8 9 10 11 12 13 14 15 16 17 18 19 20 21 22 23 24 25 26 27 28 29 30 31 32 33 34 35 36 37 38 39 40 41 42 43 44 45 46 47 48 49 50 51 52 53 54 55 56 57 58 59 60 61 62 63 64 65 66 67 68 69 70 71 72 73 74 75 76 77 78 79 80 81 82 83 84 85 86 87 88 89 90 91 92 93 94 95 96 97 98 99 100 101 102 103 104 105 106 107 108 109 110 111 112 113 114 115 116 117 118
POINT_DATA 119
SCALARS isSiphon int
LOOKUP_TABLE default
0
0
0
0
0
0
0
0
0
0
0
0
0
0
0
0
0
0
0
0
0
0
0
0
1
1
1
1
1
1
1
0
0
0
0
0
0
0
0
0
0
0
0
0
0
0
0
0
0
0
0
0
0
0
0
0
0
0
0
0
0
0
0
0
0
0
0
0
0
0
0
0
0
0
0
0
0
0
0
0
0
0
0
0
0
0
0
0
0
0
0
0
0
0
0
0
0
0
0
0
0
0
0
0
0
0
0
0
0
0
0
0
0
0
0
0
0
0
0
