# vtk DataFile Version 2.0
Vessel Segment
ASCII
DATASET POLYDATA
POINTS 119 float
-0.0032408015326735127 -0.007639113659051991 0.008581801778289254
-0.006062551377740711 -0.014919792061490187 0.014483078860372974
-0.008579873777824838 -0.02184706414673745 0.017912363158455034
-0.010903121872945683 -0.02842835621526326 0.019085011139728283
-0.013129583533366438 -0.03467700191091005 0.018234047537293623
-0.015332256362129336 -0.040617072426258484 0.015620127400364859
-0.017551592401147287 -0.04628385883419872 0.011532495628264399
-0.019797109258850358 -0.051718387116341746 0.006274872592953339
-0.022054254041211925 -0.05695699218078362 0.0001410981184629979
-0.024293238722646587 -0.06202270872164909 -0.006609495656893187
-0.026471222946005644 -0.06692494632663076 -0.013766738481921934
-0.02852974010484576 -0.07166587881542012 -0.021171586165259132
-0.0303901013765283 -0.07624817736188182 -0.028709123858591947
-0.0319520779101737 -0.08067960432133635 -0.036299927111288564
-0.0331009567322153 -0.08497288444411455 -0.04389016151224316
-0.03372076400018795 -0.08914644354976288 -0.05144425244480096
-0.03371175968338654 -0.09322416306224365 -0.05893985332945748
-0.033006571593446374 -0.0972378415898497 -0.06636475952342626
-0.03158248840771804 -0.10123087928221726 -0.07371514721433979
-0.02947140178042504 -0.10526400606913823 -0.08099020233318242
-0.026766741488324405 -0.1094188087793348 -0.08818242010882638
-0.023627569864146658 -0.11380045364315824 -0.0952610727076971
-0.020272958447104035 -0.11852431320972452 -0.10215149335702578
-0.016959981837326943 -0.12369805288479489 -0.10871510720725915
-0.013945868804747612 -0.1293857476295662 -0.11474081396972888
-0.011445939070139119 -0.13557540911369848 -0.11994662428094141
-0.009601216577764108 -0.14215422438382216 -0.12401153425514416
-0.008465509022018184 -0.14890788843388372 -0.12661628041480352
-0.008015902100066797 -0.1555441775369629 -0.12750072018453107
-0.00817899527599334 -0.1617396281052602 -0.12652174851504075
-0.008863630210040928 -0.16717672111150197 -0.12369262298546063
-0.009989251458079359 -0.171582772081005 -0.11919976477979415
-0.011503005915599059 -0.17474543138565918 -0.11337452122139752
-0.01337930907902221 -0.17651210324459135 -0.10663798829244003
-0.015601984817906384 -0.17679514336301846 -0.09941709438980131
-0.018139098025555793 -0.1755774354417138 -0.09207794296943475
-0.020923328066084358 -0.17292991403326216 -0.08486849497290543
-0.023849614499789194 -0.16902525293766058 -0.0778985659253266
-0.026786501949403907 -0.16414140183879966 -0.0711473067990066
-0.029596612137523844 -0.15865214210613465 -0.06449685743423626
-0.03215849307134431 -0.15299934334821752 -0.057781053658949345
-0.03438743051761536 -0.14766111814824795 -0.050840136460786806
-0.036249172635456135 -0.14310514969065058 -0.04357034591697439
-0.03776272049563145 -0.13975322773712961 -0.035961507515672356
-0.03899233429098924 -0.1379313866718137 -0.02811722232835572
-0.040026679913033075 -0.1378408850950032 -0.020252639281595864
-0.0409477230724755 -0.1395457541535875 -0.012670627980231513
-0.041796647442309875 -0.14296940980157372 -0.005720221914363951
-0.042550209502905056 -0.14792323765873402 0.00025585819701507654
-0.0431203713789758 -0.1541370964718833 0.004978907049429717
-0.04338158174553664 -0.16130587893361506 0.008288313897696775
-0.04321271211344368 -0.16912120338512618 0.01018350965636139
-0.04253772360261739 -0.1772983707722502 0.010846333300283575
-0.04135035276170346 -0.18559503191755738 0.010632979069681681
-0.03971672054271228 -0.19382494616215834 0.010024864875515219
-0.03775760559797399 -0.20186014281217665 0.009543744342905657
-0.035619076067564676 -0.20964053757076742 0.009650419194903125
-0.03344164368125381 -0.21717487672795413 0.010651677558508956
-0.03133398758100577 -0.22453423457362667 0.012639715589863662
-0.029359024384447797 -0.2318386106004288 0.015484711828807044
-0.027530252009983134 -0.23923512344364134 0.018879461255295438
-0.025818706281764064 -0.24686793403457902 0.022427160425445163
-0.024164956906844517 -0.25483899370279367 0.025744865634104067
-0.022490870307631767 -0.26318637315958865 0.028556014941699015
-0.02070956263559832 -0.2718529798134485 0.03075070819400118
-0.01873172988693097 -0.2806885377418091 0.03240223048829588
-0.016470765313306285 -0.28945660768776177 0.033739745455390234
-0.013847335630816185 -0.2978667891525692 0.03509309039738012
-0.010797395460086389 -0.3056092198907751 0.036819365681308225
-0.00727893653158539 -0.31241453245283707 0.039228054978592934
-0.003278431645560111 -0.3180952067254774 0.04252225285322145
0.0011898081836171249 -0.32258246790958756 0.046764420294491765
0.006089782100518227 -0.32594465955064494 0.05187202743100122
0.011374974546440028 -0.32836964598804164 0.0576396845832552
0.016999427170319416 -0.33012769043901363 0.06378403250730327
0.022924621973273582 -0.331503874830282 0.06999579323476217
0.029119918152540506 -0.33273623386001844 0.0759932786704046
0.035557779229164733 -0.33396321478364666 0.08156653863796405
0.04220669952365714 -0.33520438862414054 0.08660859366922706
0.04902270621554769 -0.33638474373709715 0.09112826516285297
0.055944201636531056 -0.3373800274617557 0.09524139667469002
0.06289357149730697 -0.33807042821697036 0.09914291997561957
0.06978677851272543 -0.33838542916110387 0.1030629205777669
0.07654995216808513 -0.338322338623641 0.10721441220615595
0.08313569955339227 -0.3379462449627918 0.11174937855808509
0.0895302525781925 -0.33737219256211376 0.11673606908150773
0.09575029779347885 -0.3367504916303704 0.1221633024084504
0.10183189002857303 -0.3362435989590118 0.12796120392721544
0.10781927374745413 -0.3360049399865632 0.13402703030560273
0.11375708416629268 -0.33614984163182415 0.14025286082219088
0.11968645390140639 -0.33674845964678585 0.1465345158632938
0.12564508846746675 -0.33781597111382566 0.15277881382851463
0.1316588767750907 -0.33932822704057775 0.15890685580372146
0.1377322875467447 -0.34124743237924315 0.16485278147052557
0.1438433230655565 -0.34354371245242343 0.17056036088878948
0.1499373038879513 -0.3462195996068103 0.1759863570397233
0.15593683813330572 -0.34932664208696895 0.18108641346925594
0.1617499946806805 -0.35295328015506144 0.18582331949517503
0.16728723559481112 -0.35720722993041365 0.1901667262778789
0.1724694522879311 -0.3621822244253136 0.19411778705817062
0.17724018429440438 -0.3679211683528588 0.19771522590639132
0.18156142941456488 -0.3743976315620403 0.2010502176973645
0.18542101022240082 -0.381515660874833 0.2042527262878475
0.18882196688895464 -0.38911968283345194 0.2074734521762314
0.19177780122659047 -0.39702361103201445 0.21085588199614153
0.1943044008054031 -0.4050399163459093 0.21450088835720996
0.19641089034512751 -0.4130048488437789 0.21843549817825336
0.1980925106205729 -0.4208110892653209 0.22259562243940154
0.19932930990996475 -0.4284109386241541 0.22682117921816847
0.20009243695492943 -0.4358252981133611 0.23087530652716878
0.20035627063598851 -0.44312561001264683 0.2344816031904383
0.2001044771810592 -0.4504215028810029 0.23737218380512037
0.19934302500747333 -0.4578285660371516 0.23933998276307422
0.1980995909114981 -0.46545697013353593 0.2402598549819382
0.19642728599499618 -0.47339497204510783 0.24009681677657838
0.19439152329910608 -0.4817111753703646 0.23889081955189342
0.19207151219281673 -0.4904582523311809 0.23672481409136797
0.1895514386500861 -0.49968375766035117 0.23370845305736174
0.1869140350644455 -0.5094304807812713 0.2299530241375227
LINES 1 120
119 0 1 2 3 4 5 6 7 8 9 10 11 12 13 14 15 16 17 18 19 20 21 22 23 24 25 26 27 28 29 30 31 32 33 34 35 36 37 38 39 40 41 42 43 44 45 46 47 48 49 50 51 52 53 54 55 56 57 58 59 60 61 62 63 64 65 66 67 68 69 70 71 72 73 74 75 76 77 78 79 80 81 82 83 84 85 86 87 88 89 90 91 92 93 94 95 96 97 98 99 100 101 102 103 104 105 106 107 108 109 110 111 112 113 114 115 116 117 118
POINT_DATA 119
SCALARS isSiphon int
LOOKUP_TABLE default
0
0
0
0
0
0
0
0
0
0
0
0
0
0
0
0
0
0
0
0
0
0
0
0
0
0
0
0
0
0
0
0
0
0
1
1
1
1
1
1
1
0
0
0
0
0
0
0
0
0
0
0
0
0
0
0
0
0
0
0
0
0
0
0
0
0
0
0
0
0
0
0
0
0
0
0
0
0
0
0
0
0
0
0
0
0
0
0
0
0
0
0
0
0
0
0
0
0
0
0
0
0
0
0
0
0
0
0
0
0
0
0
0
0
0
0
0
0
0
