# vtk DataFile Version 2.0
Vessel Segment
ASCII
DATASET POLYDATA
POINTS 119 float
-0.0038317636788398816 -0.008087076293413075 0.002828971082091487
-0.00831943774344568 -0.016170622614205148 0.005561565598147388
-0.013283699131176226 -0.024102885785038074 0.007966746842697645
-0.018545797837358456 -0.031738079962493525 0.009816470187605914
-0.023929912355620475 -0.03893906255700405 0.010892609133768683
-0.029268150072431182 -0.04558813716955307 0.010999943870909185
-0.03440964571508655 -0.051604057635472156 0.009986474004995707
-0.039231799122474105 -0.05696307117304084 0.007768818264823486
-0.04365041711390533 -0.061715723841482155 0.004356057964677793
-0.047626458311798014 -0.06599412351467449 -0.00013643364620848515
-0.05116570614971859 -0.06999675021932487 -0.005495934657850515
-0.05431292405663949 -0.07395724859240724 -0.011441677640799772
-0.05713972669172069 -0.07809921620055076 -0.01767380220353498
-0.05972650045946666 -0.08259261134484638 -0.023929061042036626
-0.06214311685091713 -0.08752441094062716 -0.030025158923162636
-0.06442654960588434 -0.09289362072501393 -0.03588389916312538
-0.06655920067401574 -0.09862881517292231 -0.041525570775929325
-0.06845249933224967 -0.10462122077114827 -0.0470415225533441
-0.06994821939644627 -0.11075918887399258 -0.05255509632096904
-0.07083543390523493 -0.11695105253354815 -0.05818356683367444
-0.0708901778528218 -0.12313216296747899 -0.06400727544397347
-0.06992251438238332 -0.12925753531079937 -0.07004932615272412
-0.06782240941457168 -0.1352880631560246 -0.07626196953504132
-0.06459135558735332 -0.14117529788834715 -0.08251675457553714
-0.06035401851247738 -0.1468552247585049 -0.08860026567728577
-0.05534418996381807 -0.15224060383337765 -0.09422006703068274
-0.049873416306993316 -0.15722579094979136 -0.0990237215123542
-0.04428707963418142 -0.16169964370106685 -0.1026355696672523
-0.038914202982497204 -0.16555696075774304 -0.10471177058611704
-0.03402156640316659 -0.16871662547728195 -0.10500079401661956
-0.02978205416533229 -0.1711344631219746 -0.10339504770919423
-0.026261854657268355 -0.17281892472193888 -0.0999527479478395
-0.023430267179783075 -0.17382988923786458 -0.09488856095499557
-0.02119097352724817 -0.17426733673215197 -0.08852761645464766
-0.01942776915762516 -0.1742471374100143 -0.08124025886168276
-0.018051470647036084 -0.17386413205772874 -0.0733796112221273
-0.01702887302613963 -0.1731709938418892 -0.06523647605105078
-0.016388408054769654 -0.1721788355642319 -0.05701483488875897
-0.01619956557101802 -0.17087663533296885 -0.048829906452292335
-0.016537266451317142 -0.16927223634887845 -0.04072561586425656
-0.017445205294743533 -0.16741733249957372 -0.03270083018643239
-0.018904665788048402 -0.16543066108325383 -0.02473880480402887
-0.020816897038588016 -0.1634856593723365 -0.01683395630202649
-0.023001180621034997 -0.16179436376378864 -0.00900832843694701
-0.025211118555025912 -0.1605872605241159 -0.0013180293365650847
-0.027168796038890615 -0.16008754836128486 0.006153286323352828
-0.028612567456247913 -0.16049921431313344 0.013309499960270076
-0.029345965504637594 -0.1619918985649511 0.020061976223931847
-0.029277524696581382 -0.1646750221470209 0.02635098545793304
-0.028440006173946698 -0.16857909876144941 0.03216103142027447
-0.02697993120329479 -0.17364163701935934 0.03752757501584097
-0.025127532003490743 -0.1797158171773145 0.042531781214468586
-0.023147705057443433 -0.186589692664638 0.04728532578362471
-0.021292178059133766 -0.19402065233608343 0.051910289538099355
-0.019759512737379265 -0.20177051982586708 0.05651739289772656
-0.018672236776336063 -0.209639531630589 0.061187074111887334
-0.018068812364151345 -0.21748141582476413 0.06595454603244452
-0.01790762781075741 -0.22521700785860058 0.07080199832219604
-0.01808223778197616 -0.23283225678314337 0.07565896600480648
-0.018445018921536376 -0.2403657413638728 0.08041453504819185
-0.018835189461376634 -0.247887753318229 0.08493638934531385
-0.01910609825806144 -0.2554821559957703 0.08909732786753752
-0.01914681171127558 -0.2632232516862954 0.09280130827380764
-0.018893638843241033 -0.2711598907638293 0.09600176679888377
-0.018327859825329074 -0.27931463334367723 0.09871056723906642
-0.017463234069441357 -0.2876795018745535 0.10099395440320676
-0.016326295029653357 -0.29622133808235396 0.10295778664552253
-0.014935800101275163 -0.3048925816695821 0.10472868444921216
-0.013287826219416038 -0.31363162108429365 0.1064346505838903
-0.01134917961532911 -0.3223721034244075 0.10818902056247316
-0.009060143577803858 -0.3310318602153324 0.11007902659380103
-0.006344313291706371 -0.339518202802901 0.11216085856393615
-0.0031211414946770606 -0.3477128239977043 0.11445941985360021
0.0006827798220263371 -0.3554754391278745 0.11697224411543389
0.0051258374224887465 -0.36263625058934806 0.11967625641658346
0.01024617049799752 -0.369014987841443 0.1225365402410915
0.01605641017347752 -0.37443374677279606 0.12551421782620525
0.022537260439702174 -0.37875107564197735 0.1285741829264325
0.0296312367504095 -0.38188934318536033 0.13169033101553684
0.03724063199806723 -0.3838583887085451 0.1348519617923356
0.045230567756493936 -0.3847622478635569 0.13806582903297984
0.053437940505175516 -0.3847934566381266 0.14136308876942683
0.06168608131557405 -0.3842072727762663 0.14479074603395584
0.06980138211753568 -0.38328803265301686 0.14841177061585362
0.07763048019494491 -0.3823013105637587 0.15228945648605358
0.08505706016876147 -0.3814465991629407 0.15647461908825994
0.09201595337781737 -0.3808134328330375 0.16098965383536343
0.09850303530320571 -0.3803686907723884 0.1658113019208707
0.10457922787251281 -0.37996084149637904 0.17086370868151796
0.11036513939920671 -0.37936818372389003 0.1760277676422275
0.11602693993516902 -0.3783618437806756 0.1811434061937251
0.12175266469511546 -0.37677092509285853 0.18604771993822544
0.1277236742049224 -0.3745255991037955 0.1905986233302611
0.13408442476796997 -0.3716806768824814 0.19470158765263806
0.14091898520423163 -0.3683973217701333 0.19834088048457216
0.14824066912496878 -0.36491173948797107 0.2015774128302781
0.15598831217768017 -0.3615012501992494 0.20454770383561036
0.16403796992374295 -0.35844793295012556 0.20743941934804416
0.17222470180458707 -0.3560131404524789 0.21045772661944662
0.1803633980823952 -0.3544190488801046 0.21379236044699745
0.18826582152617602 -0.3538324799515379 0.21757800946154196
0.1957597258378038 -0.3543589882824382 0.22187647215435136
0.20270597198450405 -0.3560481733666951 0.22666222137607098
0.20899371609009318 -0.3588981403493083 0.23182663367555767
0.21454546053730453 -0.3628689333258325 0.2371982049450373
0.2193087965045139 -0.367884763868463 0.24257535750037135
0.22325146610394292 -0.3738495233615419 0.24775350691412945
0.22634605790780224 -0.38065052762103646 0.25256271555727805
0.2285818904139088 -0.3881578436957181 0.2568889033743817
0.22996582464547877 -0.3962334154762293 0.2606917365964129
0.23054359267483135 -0.40471580029921833 0.2640038410145914
0.23041298635497837 -0.4134189237122925 0.26693181226948437
0.22974302107647962 -0.4221195348345055 0.26964668629745425
0.22876966743528618 -0.4305490182541122 0.27237986411313725
0.2277952299070968 -0.43839306920725213 0.27540203875072516
0.22717109358754914 -0.4453025942539644 0.2790220774237076
0.22727744890034876 -0.45089306770279625 0.2835642104924596
0.22851173469312377 -0.45477105838871656 0.28936541032730556
0.23127585710688522 -0.4565344592499236 0.2967640050304402
LINES 1 120
119 0 1 2 3 4 5 6 7 8 9 10 11 12 13 14 15 16 17 18 19 20 21 22 23 24 25 26 27 28 29 30 31 32 33 34 35 36 37 38 39 40 41 42 43 44 45 46 47 48 49 50 51 52 53 54 55 56 57 58 59 60 61 62 63 64 65 66 67 68 69 70 71 72 73 74 75 76 77 78 79 80 81 82 83 84 85 86 87 88 89 90 91 92 93 94 95 96 97 98 99 100 101 102 103 104 105 106 107 108 109 110 111 112 113 114 115 116 117 118
POINT_DATA 119
SCALARS isSiphon int
LOOKUP_TABLE default
0
0
0
0
0
0
0
0
0
0
0
0
0
0
0
0
0
0
0
0
0
0
0
0
0
0
0
1
1
1
1
1
1
1
0
0
0
0
0
0
0
0
0
0
0
0
0
0
0
0
0
0
0
0
0
0
0
0
0
0
0
0
0
0
0
0
0
0
0
0
0
0
0
0
0
0
0
0
0
0
0
0
0
0
0
0
0
0
0
0
0
0
0
0
0
0
0
0
0
0
0
0
0
0
0
0
0
0
0
0
0
0
0
0
0
0
0
0
0
