# vtk DataFile Version 2.0
Vessel Segment
ASCII
DATASET POLYDATA
POINTS 119 float
-0.004447008613221623 -0.006989201302050969 -0.004079738225428765
-0.00982486067298974 -0.013594428799258304 -0.007400354987698263
-0.015934813183118127 -0.019811510856305906 -0.01001172665506715
-0.022577094887603472 -0.025636090168856516 -0.011968049316858178
-0.029551376560112246 -0.031062776800453995 -0.0133361776244177
-0.03665816814256609 -0.03608346556953312 -0.014209264076585529
-0.04370430280805204 -0.04068436850409357 -0.014720626509068087
-0.050512344443826 -0.04484587849905919 -0.015052488500121875
-0.05693237414843397 -0.048547932513679885 -0.015431607255763593
-0.06285103647158963 -0.051782571313783915 -0.016108671079840473
-0.06819996461473715 -0.054570919393421596 -0.01732629901803693
-0.07296264907115009 -0.05698170377887774 -0.019287555974350484
-0.07717589587536182 -0.05913749448323762 -0.02213288503889605
-0.08092129605036152 -0.061200369048939836 -0.02593252713983545
-0.08430586641228938 -0.06333844728386942 -0.030685332516401147
-0.08743430041221929 -0.06568776323366866 -0.03632948604285993
-0.09038136004052956 -0.06832688004514241 -0.04275134664857101
-0.09317030601041333 -0.0712731856971433 -0.04979120375854202
-0.09576293641005398 -0.07450669969750971 -0.05725242839501368
-0.09806286151314206 -0.07800204100228965 -0.06491476487302729
-0.09992795618125366 -0.0817532167401567 -0.07255416823553237
-0.1011883650985569 -0.08578224127516622 -0.07996863227356285
-0.10167251305025093 -0.09012907289428876 -0.08700644519534077
-0.10123303503802604 -0.09483219475510025 -0.09358721688588476
-0.09977075330545276 -0.09990709976732991 -0.09970911131448107
-0.09724962707196023 -0.10533421663073793 -0.10543496121934473
-0.09370364862367628 -0.1110583398130544 -0.11086115255550805
-0.08923501347368369 -0.11699745482863465 -0.11607519154121913
-0.08400662942884711 -0.12305626915526843 -0.12111154046609639
-0.07823175685333611 -0.12913774156448946 -0.12591954372179207
-0.07216236319616803 -0.13514887996840694 -0.13034708581489976
-0.06607184004916733 -0.14100152282405942 -0.13414847504805372
-0.06023129488198732 -0.14661083706940292 -0.13700968629183286
-0.054883180729056236 -0.1518934370914883 -0.138594543290412
-0.05021219723364463 -0.15676672578198142 -0.13860245599418464
-0.0463216123842389 -0.16115512003095164 -0.1368295153537617
-0.043224926213758647 -0.1649927249072581 -0.1332090299082408
-0.040857011422717956 -0.1682315823870056 -0.12782454408087066
-0.039096217283184714 -0.17085628942856873 -0.12089929374990437
-0.03780192545667085 -0.17288328712503565 -0.11275601869181441
-0.03685127100622644 -0.1743796647226848 -0.10376634110014135
-0.03616887296689629 -0.17545891928491783 -0.09430153552153277
-0.03574105295250743 -0.17628620999470038 -0.08469622599903859
-0.03561426197721222 -0.17705439097744505 -0.07522490994905158
-0.035876752606147255 -0.17796415624122114 -0.06609020457654416
-0.036624952048777346 -0.17919665812651045 -0.05742232745231838
-0.037922383726331645 -0.1808889512665305 -0.04928405166045006
-0.03976409392337235 -0.18311636102870055 -0.04167784271526041
-0.04205832305466475 -0.1858871938255459 -0.03455565520610519
-0.04463308172749225 -0.1891363443437382 -0.027829717310633367
-0.04726786368480887 -0.1927479884113158 -0.021386437913998732
-0.04973996208930867 -0.1965730159623642 -0.015106011154496713
-0.05186856308519295 -0.2004743565262084 -0.008886742658694909
-0.05354407277979867 -0.20435973247191822 -0.0026702873892044403
-0.05473361664753804 -0.20822349575014804 0.0035374626178556108
-0.055466216694945975 -0.2121548557370851 0.009660854963935952
-0.05580830089326716 -0.2163235133906469 0.015571241494817251
-0.05583952306411969 -0.22093831433998143 0.021122846736189495
-0.05563412715385633 -0.22618636412344054 0.026198053600095077
-0.0552486396731893 -0.2321798992937275 0.030745149865624554
-0.05471350215146651 -0.23892891819633372 0.03479638744554729
-0.054031702523786335 -0.2463445776296787 0.038461147235584484
-0.053177996555418924 -0.25426371271923154 0.04189852415121918
-0.052104732922027074 -0.2624869298575804 0.0452801157176768
-0.05074820739098534 -0.2708159305903528 0.04875171367827969
-0.04903676427829822 -0.2790789233469668 0.05240683881681212
-0.046898445660641865 -0.28714717281119195 0.0562766111641316
-0.04426621818263019 -0.2949254043703998 0.06033446939174026
-0.04108340253415662 -0.30234346210551766 0.06451542657710413
-0.037306155025186 -0.30933416056426266 0.06873912898964266
-0.0329064856687566 -0.31582707692461987 0.07293229617438593
-0.027873723634780228 -0.3217386663348645 0.07704264829510533
-0.022217227060527728 -0.3269809049448473 0.08104496578795171
-0.015968444589163914 -0.3314791411714948 0.08494024065969331
-0.00918276773623828 -0.33518098378695427 0.08874877241872203
-0.001936792313049817 -0.3380832405951717 0.09250207968768705
0.005676860864672959 -0.3402246662686787 0.09623589787004198
0.01355914311416659 -0.34169703463734213 0.09998496605639867
0.021613645761052337 -0.3426201792563766 0.10378072037877216
0.029754163611045784 -0.34314059261068064 0.10765129992361112
0.03790862181577876 -0.3434073984502972 0.11162287338933716
0.04601992508349715 -0.3435520571059963 0.1157210968052912
0.054045060133805174 -0.34366944941560507 0.11997022049381591
0.06195309009368075 -0.3438075549384115 0.12439001129333312
0.06972365112969714 -0.34395712879770984 0.1289896954851504
0.07734681781740695 -0.3440544434699011 0.1337604387724482
0.08482425458589551 -0.34399585224891155 0.13866929712809947
0.09217059184157418 -0.3436615765767178 0.14365609493689396
0.09941359084124668 -0.3429358689805678 0.1486369541087381
0.10659243436097858 -0.3417530075541719 0.15351539009747245
0.11375276090266832 -0.3401085905554621 0.1582025746891307
0.12093992893112059 -0.33808574754988413 0.1626291245643366
0.12819202984594977 -0.33584122801582167 0.16677418972684424
0.13553446344391756 -0.33358802092436435 0.17065878208731874
0.14297546539190817 -0.3315524628476518 0.17435462598686172
0.15050564787048748 -0.32993353616844745 0.17796647138820285
0.15809876902583286 -0.3288630654584026 0.18161785180259118
0.16571531890978636 -0.32839422994950535 0.18543052390815934
0.173309579716503 -0.3285096484651632 0.18950405597451153
0.18082744073480977 -0.3291529657678036 0.1938933801426714
0.18821678465763475 -0.3302655678215105 0.19860797946118963
0.19542247511189925 -0.3318244410609521 0.20360770871851233
0.2023810404437901 -0.3338512040736315 0.20881289905243272
0.20901294316680805 -0.33641469846536826 0.21412477450568354
0.2152226953496387 -0.3396073172240483 0.2194431190085678
0.22089510634428286 -0.3435216700368876 0.22468716601750702
0.22589908594777225 -0.3482230146391185 0.22980259631736877
0.23011139631301472 -0.3537448520454846 0.234760122050628
0.23342837849910422 -0.36006984183297425 0.23954864001200776
0.23579677543401922 -0.36713200627413295 0.24417661186243955
0.23722863756769993 -0.37480588907334805 0.2486535549756063
0.23781420620938565 -0.3829065147121941 0.253010308424347
0.23772995239523126 -0.39118194772622733 0.25728504289818416
0.23722928381488972 -0.39931391822346857 0.2615382896640054
0.2366354983662153 -0.40691938722464727 0.26585108483501424
0.23632529007254885 -0.41356571208479076 0.27032531585374436
0.23670830671336063 -0.4187788434818849 0.2750725995767488
0.2382094361171555 -0.42206504418264734 0.2802126684680386
0.24126206321686855 -0.42292507271731705 0.2858725737572996
LINES 1 120
119 0 1 2 3 4 5 6 7 8 9 10 11 12 13 14 15 16 17 18 19 20 21 22 23 24 25 26 27 28 29 30 31 32 33 34 35 36 37 38 39 40 41 42 43 44 45 46 47 48 49 50 51 52 53 54 55 56 57 58 59 60 61 62 63 64 65 66 67 68 69 70 71 72 73 74 75 76 77 78 79 80 81 82 83 84 85 86 87 88 89 90 91 92 93 94 95 96 97 98 99 100 101 102 103 104 105 106 107 108 109 110 111 112 113 114 115 116 117 118
POINT_DATA 119
SCALARS isSiphon int
LOOKUP_TABLE default
0
0
0
0
0
0
0
0
0
1
1
1
1
1
1
1
0
0
0
0
0
0
0
0
0
0
0
0
0
0
0
0
0
0
0
0
0
0
0
0
0
0
0
0
0
0
0
0
0
0
0
0
0
0
0
0
0
0
0
0
0
0
0
0
0
0
0
0
0
0
0
0
0
0
0
0
0
0
0
0
0
0
0
0
0
0
0
0
0
0
0
0
0
0
0
0
0
0
0
0
0
0
0
0
0
0
0
0
0
0
0
0
0
0
0
0
0
0
0
