# vtk DataFile Version 2.0
Vessel Segment
ASCII
DATASET POLYDATA
POINTS 119 float
5.40440917636979e-05 -0.00820419995036273 -0.006110815831082529
-0.001284586815975517 -0.01605227014843375 -0.010869848359350755
-0.003868214056534449 -0.023562494200780645 -0.01437818108242225
-0.007542718452892005 -0.03075703977349119 -0.016742221254187728
-0.012135769492775112 -0.03766768025717519 -0.018084483906181243
-0.017440391951135815 -0.04434536104371121 -0.01855694361675552
-0.023203398327198196 -0.05086594243577678 -0.018353417426206883
-0.02912505784589531 -0.05732883141544354 -0.017714702057204275
-0.03487930270473054 -0.0638430965477894 -0.016923927291152725
-0.04015271840066155 -0.07050279486656476 -0.016292711363444096
-0.044694218258510485 -0.07735931181723361 -0.01614150416491518
-0.048360868932407104 -0.08440129480929529 -0.01677319207167441
-0.05114104522651036 -0.09155100102765387 -0.01843885994712562
-0.05314373895884762 -0.09868016979587484 -0.021299057717381272
-0.05455235649948313 -0.10564073208655922 -0.02539093241537331
-0.05555477745775016 -0.11229582888750067 -0.030614470468889047
-0.056273558497762326 -0.11854129282167195 -0.03674697140798631
-0.05671771619969831 -0.12431076014560197 -0.04348457065843722
-0.056774418070417186 -0.12957489782196854 -0.05049821556193585
-0.05624186189154218 -0.1343331577173179 -0.05749181725226251
-0.054893983401928595 -0.13861894953625495 -0.06424763932908907
-0.052555820495129045 -0.14250749758844977 -0.07065246329500098
-0.04916804613460622 -0.14613453110599323 -0.07670035892584234
-0.04482073781248197 -0.14968544747926488 -0.08247439382741807
-0.039750567843043164 -0.15337262959958853 -0.08810517000435784
-0.03430177052052993 -0.15740117293093217 -0.09371148373630843
-0.028868781986792356 -0.1619221575538893 -0.0993280968179789
-0.023836098165454067 -0.16700652936882474 -0.10484107595786495
-0.019531542934666454 -0.17263458844001114 -0.10995433925270677
-0.016198447718531538 -0.17869115067163505 -0.11421244138722039
-0.013985610911471904 -0.18497527831128205 -0.11708328266141088
-0.012949442774895048 -0.19120630659999974 -0.11808542363739895
-0.01306303693727777 -0.19705160746732966 -0.11691819318061
-0.01422798974515914 -0.20216297098314598 -0.11354857522566647
-0.016285506304752763 -0.20621941725092544 -0.10822737153077684
-0.019029285882449086 -0.20897107844354038 -0.10143306676874714
-0.022219534678460873 -0.21026434623404947 -0.09376564000943555
-0.025604625583904184 -0.2100427281338774 -0.08582749878173732
-0.028951899345970377 -0.20833221131259413 -0.07811927611425235
-0.032079838654165485 -0.2052331637303208 -0.07097153304113639
-0.03487699162764854 -0.20090314282577304 -0.06451410284087881
-0.037295612150269844 -0.1955584462329614 -0.05868302979559623
-0.03932094895835147 -0.18947062037513931 -0.05326077295231808
-0.040931198219892245 -0.18294803917316507 -0.04794461696498535
-0.04206838017316846 -0.17632574183093533 -0.04242973820477937
-0.04263364466383078 -0.16994369651485275 -0.036487204120318355
-0.04251171392759252 -0.16414389495530884 -0.030017753887707
-0.04162152222574335 -0.15926633018703648 -0.02307396955328092
-0.03997173093240248 -0.1556451520766278 -0.015849892228586644
-0.03769855686418288 -0.1535852360531248 -0.008646416544821187
-0.03506069074218144 -0.15332833042746277 -0.0018192852812468528
-0.03239002321937174 -0.15500758939998194 0.004284044823454975
-0.03001653827656893 -0.1586049163855568 0.009393912882137008
-0.02819688139688689 -0.16394226854298236 0.01338454042376491
-0.027070767788538664 -0.17069745504575803 0.01631834435147788
-0.026652262062255946 -0.1784608049137847 0.01844604481709158
-0.026848494580420726 -0.18679789371476832 0.020152224617960297
-0.027493751253146077 -0.19532759912845002 0.021854873283033507
-0.02838792329949246 -0.20376940872541846 0.02388941174308567
-0.02933274949753422 -0.21197266562529227 0.02641946357800673
-0.030160259302737094 -0.21991751293870712 0.029401643767225552
-0.030753163533776638 -0.22768125701955075 0.032614429798832466
-0.031054623228665076 -0.23539742657872417 0.03573701107275194
-0.03106622312014108 -0.24320594825048308 0.03844766466610328
-0.03083528430509325 -0.2512241774146143 0.04051303106522445
-0.03043178896787798 -0.25951798511016183 0.041845700747006984
-0.029920497883806744 -0.2680948917365193 0.04251914603344603
-0.029332282524100497 -0.2769109108795335 0.04274446201466394
-0.028642321306164748 -0.2858643518454748 0.04281940385092826
-0.02776036474042285 -0.29481342894132145 0.04306462364695438
-0.026537633935111257 -0.30358144580750535 0.043761525059152075
-0.024788297974055386 -0.3119707357706862 0.045104606625749104
-0.02232330470656728 -0.31977579971707887 0.0471740043693183
-0.018986756422250364 -0.3268178169184853 0.04993326206620139
-0.01468704736057604 -0.3329551164893667 0.05324959307255259
-0.009414341151758234 -0.33811637129352945 0.05693214940231899
-0.0032413449696824612 -0.34230408374579624 0.06077718017618315
0.0036915737350583 -0.34559554950061877 0.06461160819412012
0.011201421363151474 -0.34813069158452825 0.06832273278576062
0.019093700519758224 -0.35007881029680116 0.07186905870800205
0.02718959428732384 -0.35161155030390234 0.07527119474893583
0.035346942914533025 -0.3528672271022465 0.07858916077670644
0.04347005264146168 -0.35393107831967957 0.08189466565625621
0.05150889445911867 -0.35481628565264395 0.08524726744871727
0.059448667730705666 -0.35547938435558596 0.08868127636616738
0.06729458980435639 -0.3558306343925892 0.0922057380943288
0.07505732954997651 -0.35577390044765433 0.09581232054972638
0.08274141549886362 -0.35523022912911445 0.09948889311461002
0.09034195606855339 -0.35416689838892 0.1032289896886606
0.09784705468684927 -0.3526064603203192 0.10703699276141772
0.10524482788911557 -0.3506244297879691 0.11092545194755725
0.11253184012748231 -0.3483213139102669 0.11490725033965882
0.11971965097460414 -0.3458057747809225 0.11898586433971052
0.12683734528605545 -0.3431680834512376 0.12314613408603656
0.1339325225349898 -0.3404793726957944 0.1273570874109698
0.1410647785618302 -0.33780545464397 0.1315708687529734
0.14829785026752704 -0.33523192352308084 0.13573477214277702
0.15568255227651256 -0.3328957329523138 0.1398119406774095
0.16323339266429013 -0.3309866300338913 0.1437902852751867
0.1709105044582649 -0.3297274256856199 0.14769628014720673
0.1785936076759199 -0.32933871141677806 0.1515953158980776
0.18608192338054116 -0.3299838893269678 0.15558390002464445
0.19311214562263282 -0.3317398444312856 0.15977667993838218
0.19937698954157265 -0.33458000797063625 0.16427828246605458
0.20459255141393182 -0.33838739166964066 0.1691654706582744
0.20853843171594064 -0.34298038151020976 0.17447315609995456
0.2111056283422673 -0.3481415063617002 0.1801919009111215
0.21232903500072267 -0.3536460066303519 0.18627358282752118
0.2123578429569435 -0.35928361011806736 0.1926543687049768
0.21144544792900885 -0.36487659180125054 0.19926299362126287
0.20987081431477617 -0.37029945222910143 0.2060347411377283
0.20791495993713174 -0.3754864914273376 0.2129031876069057
0.20582442323943284 -0.3804497573793434 0.2197944249314043
0.2038257835503298 -0.38527697143432765 0.2266180213412643
0.2021266696362167 -0.3901285425715175 0.23326122244910813
0.20094742840448251 -0.3952143886834171 0.23959101000014715
0.20051125038314108 -0.40077941392267546 0.2454613056594406
0.20105109921681644 -0.4070790971211375 0.25072042163324665
0.20279969082767949 -0.41437258256436116 0.2552143850573538
LINES 1 120
119 0 1 2 3 4 5 6 7 8 9 10 11 12 13 14 15 16 17 18 19 20 21 22 23 24 25 26 27 28 29 30 31 32 33 34 35 36 37 38 39 40 41 42 43 44 45 46 47 48 49 50 51 52 53 54 55 56 57 58 59 60 61 62 63 64 65 66 67 68 69 70 71 72 73 74 75 76 77 78 79 80 81 82 83 84 85 86 87 88 89 90 91 92 93 94 95 96 97 98 99 100 101 102 103 104 105 106 107 108 109 110 111 112 113 114 115 116 117 118
POINT_DATA 119
SCALARS isSiphon int
LOOKUP_TABLE default
0
0
0
0
0
0
0
0
0
0
0
0
0
0
0
0
0
0
0
0
0
0
0
0
0
0
0
0
0
0
0
0
0
0
0
0
1
1
1
1
1
1
1
0
0
0
0
0
0
0
0
0
0
0
0
0
0
0
0
0
0
0
0
0
0
0
0
0
0
0
0
0
0
0
0
0
0
0
0
0
0
0
0
0
0
0
0
0
0
0
0
0
0
0
0
0
0
0
0
0
0
0
0
0
0
0
0
0
0
0
0
0
0
0
0
0
0
0
0
