# vtk DataFile Version 2.0
Vessel Segment
ASCII
DATASET POLYDATA
POINTS 119 float
-0.0002484892948394997 -0.0014443528159698254 0.008096106631596796
-0.002054110039261574 -0.0044373325848030805 0.013579307962362662
-0.004883663212450692 -0.0086337441320869 0.01663483181711303
-0.008220347676404564 -0.013686894951634457 0.017452890700530216
-0.011593583442252788 -0.01925053478305994 0.01623545357785065
-0.014620820840834667 -0.024987767755529543 0.01320336272092449
-0.017049029228997745 -0.03059207757218795 0.008600844918906262
-0.018779998220589907 -0.035811951929907736 0.002693533391283099
-0.01986634149276973 -0.040470935132130875 -0.0042392969644097925
-0.02047703791661155 -0.044476084692872515 -0.011918512851884057
-0.0208323184879934 -0.04781091180967502 -0.02008127220833319
-0.02112558004148905 -0.05051723423799508 -0.02849477229044879
-0.021454333387172626 -0.0526706094358611 -0.03696617733406594
-0.02178112601106711 -0.05435644769322494 -0.04534816852986351
-0.02194072651116687 -0.05565359866723287 -0.05353975846533378
-0.021690545685637 -0.0566341604352307 -0.06148243647725272
-0.02078882698302329 -0.05737551788789814 -0.06915402466638658
-0.019068701928182732 -0.05797992252085095 -0.07656161534782029
-0.01648671569257541 -0.058592409733463816 -0.08373404318320743
-0.01313193144286932 -0.05940547145171514 -0.09071598261259509
-0.009199633762017632 -0.06064660223391848 -0.09756102267025754
-0.0049414481217007825 -0.06254757126353376 -0.10432297390065462
-0.000612743008811977 -0.06529930326566111 -0.11104403778545666
0.003566854966507662 -0.06901289443905854 -0.1177409983919281
0.007432243516909197 -0.07369269828844732 -0.12438801236346823
0.01087439233960731 -0.07923019553529236 -0.1308973793168392
0.013828537245740747 -0.08542221761829479 -0.13710646332552703
0.016261488512150396 -0.09200018324647884 -0.14277565533227438
0.018159994625909504 -0.09866612663554392 -0.14760154287395638
0.019522752720676786 -0.10512630553495748 -0.15125219170431617
0.02034958385134041 -0.11111970112776856 -0.15341710760125568
0.020628886951389175 -0.11644012299835725 -0.15386958644808726
0.020326370225079625 -0.12094491001471493 -0.15251043291103367
0.019386386845236084 -0.12455337239937501 -0.14940344338439487
0.01774953913856156 -0.12723285357527295 -0.1447566218854033
0.01538213053500596 -0.1289854108849359 -0.1388903067879261
0.012303702820973532 -0.12984435653409973 -0.13216872360905427
0.008603145758984257 -0.12988410757840013 -0.12493962799307276
0.00444116638089461 -0.12922867713052305 -0.11748627595901992
3.883865997739347e-05 -0.1280512173494067 -0.10999594488006893
-0.004345889669589084 -0.12655721000161985 -0.10255389976960673
-0.008450620869751315 -0.1249582883948811 -0.09515994993521595
-0.012045133487264133 -0.12344861232612546 -0.08776183773772837
-0.014964045747203964 -0.1221983188055277 -0.0802940321565881
-0.01712851603684168 -0.12136067199557678 -0.07271552286985462
-0.018549007141279102 -0.12109103077674058 -0.06503529249939781
-0.01930875022956951 -0.12155682264641138 -0.05731998568719306
-0.019536735149211414 -0.12293043175213574 -0.04968478386345458
-0.019376662774491314 -0.12536023627932227 -0.042270150323016994
-0.018963129610709593 -0.12893542032390132 -0.03521220334748831
-0.018400339639952842 -0.13365548964126972 -0.02861344351855015
-0.017748644536391085 -0.13942211458431442 -0.022522272881672648
-0.017019254666361602 -0.14605085047228106 -0.01692604795787743
-0.016180952663914273 -0.15330342125696494 -0.01175826230058452
-0.015179043810679124 -0.16093033404978632 -0.006918083822366616
-0.013963050007479043 -0.1687039327902005 -0.0022927840359257823
-0.012514990660158876 -0.1764558015032227 0.0022182205587521057
-0.01086904337888919 -0.1840953453055986 0.006685300233182853
-0.00911337681497343 -0.1916026068021891 0.011138079775053428
-0.007372224821894886 -0.19902517951723303 0.015563599255967174
-0.005773219328862551 -0.20644969586047826 0.019912347947273003
-0.004410868322414833 -0.21397646921696759 0.024111087929908907
-0.003317582997280491 -0.22169293703505488 0.028078337220502514
-0.002450170392958527 -0.22965402190890638 0.03174235701800002
-0.0016938233129971398 -0.23786731323929278 0.035055127236444016
-0.0008792246811933454 -0.24629274926156683 0.03800187955793705
0.00019331998600009484 -0.2548377548855598 0.04060019531821758
0.0017283585358062624 -0.26337738480238393 0.042891200124424066
0.003911498739432286 -0.27176492755865933 0.04492462259319548
0.006889066563317109 -0.2798527569776252 0.046743059993991296
0.010752809097012246 -0.28751033180704605 0.04837146154659734
0.01553170048966443 -0.2946413009178088 0.04981657689280624
0.021192147226499057 -0.30119174367996093 0.05107569600837166
0.027644894568521452 -0.3071512163425528 0.05215413625175051
0.03475636131455067 -0.3125511244870048 0.05308446779301837
0.04236225687185235 -0.3174473372693301 0.05394216221487517
0.05028384889365418 -0.3219107030223668 0.05485143677792743
0.05834604436582113 -0.32599637209024435 0.05597489366945519
0.06639652262151453 -0.3297354207217251 0.05748948847416148
0.07432168627142843 -0.3331087396226061 0.0595516568666496
0.08205782923176849 -0.3360562330526071 0.06225929025052642
0.08959416458546542 -0.33847713391255985 0.06562239131402363
0.09696781006388516 -0.3402518993514364 0.06955218400575343
0.10424866301074344 -0.3412618350426131 0.07387489267529966
0.11151638936980295 -0.3414166487633468 0.07837121080394274
0.11883522157764057 -0.34067998816470785 0.08283039227096967
0.12623113947181475 -0.33908118633439194 0.08710429570409342
0.13367736919955409 -0.33673181126879476 0.0911459888960224
0.14109446361873149 -0.333816356281597 0.09502249529071925
0.1483611818593143 -0.3305653894881501 0.09889953305978298
0.15534091499026056 -0.3272372341298448 0.10299857435129013
0.1619122564993074 -0.32406827802155524 0.10754060408702516
0.16800992586692648 -0.3212576319968991 0.11269012336057185
0.17363419661179547 -0.31894745044288225 0.1185135906522232
0.17886965504856225 -0.31722031117401317 0.124961391266151
0.1838669399093798 -0.31611743317947966 0.13187734762250622
0.18880385088513427 -0.3156551539590914 0.13903318035901877
0.19384003959239524 -0.31584890219325684 0.14617830170057633
0.1990663736774197 -0.3167239990801995 0.1530901450611538
0.2044751118645161 -0.3183280039594956 0.15961734772809943
0.20994921582884402 -0.3207179927559719 0.16569269462715797
0.2152876820233042 -0.323952386799106 0.1713299694532492
0.2202521919788844 -0.32807087726480944 0.1765988086178124
0.22460717802936533 -0.3330741807494483 0.18159399930839532
0.22816745572611882 -0.33891912743629055 0.1863979642540307
0.2308176129553023 -0.34552132026879495 0.19106746330796734
0.23251402722770592 -0.3527576095039467 0.19562147435798463
0.23328677487784477 -0.36049046096981585 0.200047004603285
0.2332292316960636 -0.3685768247333632 0.20431572110262985
0.23249602795257046 -0.37687544405661083 0.20839385377210135
0.23130792042563475 -0.38525666014169335 0.21226186476585265
0.2299470942531037 -0.3935988277992782 0.21592105956270036
0.22875571592867067 -0.401781362924066 0.21940055705461334
0.2281277898838248 -0.40969001175685377 0.22275286022806443
0.22848801057164025 -0.4172116235740762 0.22604862224044506
0.23027898623909504 -0.4242316038573159 0.22936720910698488
0.23394426509212332 -0.43064034701667975 0.23279635649665295
0.23992894553953192 -0.4363299477720347 0.23642347185565857
0.24867587037335329 -0.44119179371859174 0.24033936749716187
LINES 1 120
119 0 1 2 3 4 5 6 7 8 9 10 11 12 13 14 15 16 17 18 19 20 21 22 23 24 25 26 27 28 29 30 31 32 33 34 35 36 37 38 39 40 41 42 43 44 45 46 47 48 49 50 51 52 53 54 55 56 57 58 59 60 61 62 63 64 65 66 67 68 69 70 71 72 73 74 75 76 77 78 79 80 81 82 83 84 85 86 87 88 89 90 91 92 93 94 95 96 97 98 99 100 101 102 103 104 105 106 107 108 109 110 111 112 113 114 115 116 117 118
POINT_DATA 119
SCALARS isSiphon int
LOOKUP_TABLE default
0
0
0
0
0
0
0
0
0
0
0
0
0
0
0
0
0
0
0
0
0
0
0
1
1
1
1
1
1
1
0
0
0
0
0
0
0
0
0
0
0
0
0
0
0
0
0
0
0
0
0
0
0
0
0
0
0
0
0
0
0
0
0
0
0
0
0
0
0
0
0
0
0
0
0
0
0
0
0
0
0
0
0
0
0
0
0
0
0
0
0
0
0
0
0
0
0
0
0
0
0
0
0
0
0
0
0
0
0
0
0
0
0
0
0
0
0
0
0
