# vtk DataFile Version 2.0
Vessel Segment
ASCII
DATASET POLYDATA
POINTS 119 float
-0.003204895668267068 -0.006706649443427173 -0.005228013221280336
-0.00786435703698384 -0.01256148413224775 -0.00985844529715902
-0.013699476268705912 -0.017765363112169735 -0.01382171569011589
-0.02043201720825829 -0.022515430229986918 -0.01705330979507789
-0.027787290448998466 -0.026997717308114802 -0.019504947102869933
-0.035498974545742946 -0.03137325876838023 -0.021164917014968285
-0.04331477773368786 -0.035760990259225474 -0.02208470134262022
-0.05100365983965759 -0.04022348397397575 -0.02240433063387312
-0.05836295538776214 -0.04475919685040886 -0.02236711107769673
-0.06522559641579816 -0.04930859199847342 -0.022310872128962687
-0.07146730096156366 -0.053775150662030334 -0.022631976501210585
-0.07701211665197424 -0.05805780880901088 -0.023724858886380935
-0.08183544611280288 -0.0620831868263039 -0.025909481720065207
-0.08595922741357924 -0.06582991257458928 -0.02937276270375391
-0.08943765117433974 -0.06933183057545703 -0.03413982986465276
-0.0923332053987724 -0.07266383647158181 -0.040080440454996064
-0.09468730861226332 -0.075916344517707 -0.0469460267585389
-0.09649601356938609 -0.07917003248427244 -0.05443083410272486
-0.09770024241687732 -0.08248266549960803 -0.06223288255219415
-0.09819857967481152 -0.08589227478564995 -0.07010094167605796
-0.09788014774246587 -0.08943084523747005 -0.0778601544508828
-0.09666744909991862 -0.09314343770300958 -0.0854131578525389
-0.09455203066857056 -0.0970989661187763 -0.09272370664737856
-0.0916138802988465 -0.10138923567888802 -0.09978448165028783
-0.08801804328020857 -0.10611032617098334 -0.10658122659076744
-0.08399194967307233 -0.11133287366506771 -0.1130561321319742
-0.07979174702892018 -0.11706937343646112 -0.1190803731096878
-0.07566894275604184 -0.12325113423369158 -0.12444455035284531
-0.07184483324421068 -0.12972262439197485 -0.12886922418180724
-0.06849807865769462 -0.13625522986332483 -0.13204046341797226
-0.06576288716327934 -0.1425780577282549 -0.13366264937293654
-0.06373605480208715 -0.14842523253359002 -0.13351993726118233
-0.06248516579891416 -0.15357611027312748 -0.13152896207664708
-0.062051660952935475 -0.1579007643547908 -0.1277668080386976
-0.06244695690092637 -0.1613794776885027 -0.12246285470816497
-0.06364155452007686 -0.1641030171094399 -0.1159572077356251
-0.06555344075505175 -0.16626530566968317 -0.10864135471367047
-0.06803868728445285 -0.16813130783126715 -0.10089616551506032
-0.07089214288066138 -0.16998882243814153 -0.0930416786178956
-0.07385518466613664 -0.17209461825660316 -0.08530433764852648
-0.07663541686719913 -0.17462302681974706 -0.0778100137346661
-0.07893896987919445 -0.1776373745415093 -0.07059630137842098
-0.08050536005081567 -0.18109750220722073 -0.06363758294624863
-0.08113971214606136 -0.18488841607584128 -0.05687850710410053
-0.08073667082966225 -0.18887801720956024 -0.05026234140963221
-0.07929246863040705 -0.19295862723266038 -0.04374940012718584
-0.07690903465544886 -0.1970860966423462 -0.037324513447740154
-0.07378500201012109 -0.2012823568544816 -0.030993477400922908
-0.07019245637307865 -0.2056174025483249 -0.024772538678827765
-0.06643674131702385 -0.21018118457632387 -0.018677296681485184
-0.0628087611578706 -0.21504713223947364 -0.012717275554651818
-0.05953908864760126 -0.22024998280425187 -0.006896887726287702
-0.056764931213879814 -0.2257874661976676 -0.001222800079924384
-0.05451748159594042 -0.2316168353920223 0.00428833088840743
-0.05273416657862042 -0.23768552934703466 0.009605270317423182
-0.051291338920541094 -0.24394051999494282 0.014684616448301071
-0.05004548473024772 -0.25034789666287405 0.01948219176240759
-0.048865655602951176 -0.2568901346267208 0.02397083897919648
-0.047649038755553576 -0.2635599575294471 0.028161103003239103
-0.04631738330918613 -0.27033837360636276 0.03211428355251939
-0.044806463267711524 -0.27718873804159233 0.03594037875515221
-0.043058868130957315 -0.28405357980344637 0.0397786382199088
-0.041024906046840635 -0.2908714419304791 0.04376460086827016
-0.03866875932539083 -0.2975977700144198 0.04799397363539645
-0.03597357771587154 -0.3042151535942901 0.05249795917845732
-0.032941097283594144 -0.3107412937374067 0.057237788244308564
-0.029583891717725113 -0.3172132327739867 0.06211828746576214
-0.02591503615087979 -0.3236745798784943 0.06701347150976873
-0.021937712926143715 -0.3301428570505079 0.071797053304282
-0.0176383566213374 -0.3366045246813081 0.07636702812893388
-0.012987575824888116 -0.34299921675810374 0.08066043223524233
-0.007945749342695714 -0.34922483644624996 0.08465705166137935
-0.002472489608847115 -0.355149846587983 0.0883744466104206
0.0034627961697741385 -0.3606304281755776 0.091858004428183
0.009873651563397881 -0.36552477367305164 0.09516943842393101
0.01675049809516583 -0.3697082040165324 0.09837684917215274
0.02405827035120152 -0.3730931728946245 0.10154627745152413
0.03173595125264232 -0.37563125320537283 0.10473608670797104
0.03969916177749312 -0.37732011726480674 0.10799394543344577
0.04784628214623263 -0.3781895779706083 0.11135417125081847
0.05606840562474061 -0.37829395426038986 0.1148346072686135
0.06426166718177169 -0.3776907449454664 0.11843583703519693
0.07233837438885854 -0.3764379205783274 0.12213933738430952
0.0802379185897589 -0.3745881429029749 0.1259113720028998
0.08793159099724605 -0.37220161645489863 0.1297083252526389
0.09542444254814748 -0.3693461780632271 0.13348737676954828
0.10274981500915477 -0.3661183222658029 0.13721796230433025
0.10995912600195822 -0.36264153129338245 0.1408927460544279
0.11711453503677108 -0.3590691819508251 0.14453595123259178
0.12426136550575761 -0.3555636544476771 0.14820292985394395
0.1314239183972436 -0.35228913129052286 0.1519752714385873
0.13858972330282884 -0.34938146483737803 0.15594583207821436
0.14570430704502882 -0.3469498016800703 0.16020369052136735
0.1526917722386647 -0.34507111286504455 0.16480733220749333
0.1594506766978105 -0.3438133251349585 0.16977319476551075
0.1658876163461007 -0.343246020562967 0.17506644463438098
0.17192552026173372 -0.3434520966212504 0.1805952345690948
0.1775089739367171 -0.3445244029321928 0.18623701239233328
0.1825981286253745 -0.3465441583421435 0.19186082086859124
0.18717782317356735 -0.34955903811105504 0.19735745507982957
0.19125147916225077 -0.3535632123644983 0.20265547807804293
0.19486174065888118 -0.35848621003428394 0.20773077466170467
0.1980785494610375 -0.3641976926051182 0.21259553745933643
0.20100030982577533 -0.3705270174421555 0.21729383173995231
0.20373147724083582 -0.3772916885209897 0.22187161371861255
0.20633736506683714 -0.38432984696685246 0.22637127393853812
0.20883791067264074 -0.39151713605363436 0.23082122086827003
0.21118890535032522 -0.3987878794452945 0.23522398053960575
0.21330638565607202 -0.4061178719799033 0.23956953754219296
0.2150808566676473 -0.4135200522417376 0.2438372293816781
0.21642160453140685 -0.42102289057473935 0.24800121457878554
0.21726604823142434 -0.4286571973636938 0.2520398797190285
0.21759773281990213 -0.43644121154566 0.2559405520045783
0.21744447476188664 -0.44438128063744814 0.2596973196549919
0.21686833205018996 -0.4524724994284671 0.2633145857551692
0.2159563223468457 -0.46069637858510254 0.26680238300480646
0.2148059399639321 -0.4690326005725581 0.2701746813257645
0.213527760182732 -0.47745529220403804 0.2734478103177005
0.2122265105592784 -0.48593780563966515 0.27663866444361407
LINES 1 120
119 0 1 2 3 4 5 6 7 8 9 10 11 12 13 14 15 16 17 18 19 20 21 22 23 24 25 26 27 28 29 30 31 32 33 34 35 36 37 38 39 40 41 42 43 44 45 46 47 48 49 50 51 52 53 54 55 56 57 58 59 60 61 62 63 64 65 66 67 68 69 70 71 72 73 74 75 76 77 78 79 80 81 82 83 84 85 86 87 88 89 90 91 92 93 94 95 96 97 98 99 100 101 102 103 104 105 106 107 108 109 110 111 112 113 114 115 116 117 118
POINT_DATA 119
SCALARS isSiphon int
LOOKUP_TABLE default
0
0
0
0
0
0
0
0
0
0
0
0
0
0
0
0
0
0
0
0
0
0
0
0
0
1
1
1
1
1
1
1
0
0
0
0
0
0
0
0
0
0
0
0
0
0
0
0
0
0
0
0
0
0
0
0
0
0
0
0
0
0
0
0
0
0
0
0
0
0
0
0
0
0
0
0
0
0
0
0
0
0
0
0
0
0
0
0
0
0
0
0
0
0
0
0
0
0
0
0
0
0
0
0
0
0
0
0
0
0
0
0
0
0
0
0
0
0
0
