# vtk DataFile Version 2.0
Vessel Segment
ASCII
DATASET POLYDATA
POINTS 119 float
-0.005896885731288009 -0.0049359310529217245 -0.0017266149168000341
-0.01223002187914824 -0.010581475091990651 -0.00233148446624301
-0.018863573733642763 -0.016737243813190455 -0.0019011174267163217
-0.025661145777013453 -0.02320254368808283 -0.0005291812784582072
-0.03248438244517937 -0.02977443315343926 0.0016690670651789041
-0.03919305675032677 -0.03624718505971542 0.0045334558286566455
-0.04564644908552357 -0.04241664228193669 0.007833054466039706
-0.05170898035288965 -0.048092591463542576 0.011249268142479854
-0.05726000388057346 -0.05311733161563389 0.014378275890265595
-0.06220727152587187 -0.05739204101387284 0.016763981497026282
-0.06650070866208925 -0.06090109999145346 0.01795988717883306
-0.07014312723440227 -0.06372818080404014 0.017607766096442705
-0.07319207526773337 -0.06605320537053401 0.015508360929216772
-0.07574701731703834 -0.06812229780919964 0.011650233748891868
-0.07792957925308266 -0.07020767896037261 0.006213938189688275
-0.0798587768831901 -0.07256435091644428 -0.00046390341725452904
-0.08162446836303024 -0.0753944775289423 -0.007962233424082598
-0.08326816485003624 -0.07882994815416372 -0.015850177485389926
-0.08477362022450935 -0.08292932337747196 -0.023752711613484013
-0.0860698024545573 -0.08768690092373194 -0.03139271562804571
-0.08704613990723543 -0.09304615897132643 -0.03860769089378078
-0.08757633584070108 -0.09891733556581637 -0.04533996174828822
-0.08754142232435735 -0.10519414410475082 -0.05160966524844392
-0.08684840958413259 -0.11176604412037236 -0.05748221432904922
-0.08543891216789375 -0.1185230460357768 -0.06303427507495532
-0.08329296637121018 -0.12535477416420837 -0.06832545069821538
-0.08042880857303539 -0.13214422368023626 -0.07337605834133792
-0.07689991642746266 -0.1387669897534534 -0.07814995090942965
-0.07278859183720245 -0.14509101218149886 -0.08254245396484737
-0.0681964513025265 -0.1509799859151738 -0.08637439012269393
-0.06323382694200796 -0.15631194443775012 -0.08939976468983203
-0.0580115159891698 -0.16099051705690104 -0.09133377983787674
-0.05263811484496287 -0.16495036913176833 -0.0919023681972078
-0.04722287626087906 -0.16816127942073958 -0.09089995071890385
-0.04188475534080332 -0.17063411670321743 -0.08823395343877381
-0.03675894999362724 -0.1724074355268898 -0.08394980487731227
-0.03200047181228207 -0.17355753775735125 -0.0782241240508519
-0.027774784491319343 -0.17417329821279295 -0.07133219083415572
-0.024239552218283944 -0.17433832418190243 -0.0636051584799814
-0.021520378329057083 -0.17412073773888467 -0.05538525629595371
-0.019689367405562697 -0.1735673052405945 -0.04698482859921965
-0.018751962112796033 -0.17272966105135362 -0.03865333819846975
-0.018642331411569322 -0.17168876230896746 -0.03055670936781284
-0.01923300388045032 -0.17057552287477826 -0.0227706335962079
-0.020352317452066903 -0.16956290955938894 -0.015287992928305037
-0.021809134976236037 -0.16883962713689568 -0.008039414174890536
-0.02341970959095534 -0.168568661128877 -0.0009232817121739455
-0.025031372376281807 -0.16885734302571456 0.006160467421525304
-0.026537795433040464 -0.16975687198870074 0.013279579839347633
-0.02788083457575078 -0.17128578973874098 0.020445870915451716
-0.029041482902149196 -0.1734678229900156 0.027603376345300436
-0.030020954120595793 -0.1763513101421177 0.034636894873546396
-0.030822159350972756 -0.18001208271161345 0.04139583404752287
-0.031439828917697844 -0.18451803732799973 0.047728553577032824
-0.031862869373549395 -0.18990559698836845 0.05351426959896726
-0.03208356784177793 -0.19614832932646387 0.05868584527481809
-0.03210589322373516 -0.20315785459583713 0.06323695317457155
-0.031947858798039956 -0.21079239416383275 0.0672176683965
-0.03163703554052019 -0.21888244305320093 0.07072215791687689
-0.031199510731337046 -0.22725933495320608 0.07387354269250102
-0.030647138267628465 -0.23577575209877827 0.07680904049116463
-0.02996783147608214 -0.24431832754918742 0.07966450757608841
-0.02912200963363676 -0.2528137921541445 0.08255849118037609
-0.028046431577296176 -0.2612201286009019 0.0855767940027396
-0.02666403629689605 -0.2695199139087633 0.0887575308545749
-0.02489447261358973 -0.277697790556313 0.09208505588534313
-0.022660876087741026 -0.28572719982233646 0.09549324783504107
-0.019893526600359798 -0.2935542720596086 0.09888065795898206
-0.016530645840838434 -0.30108569430677273 0.10213362288984092
-0.012520970142818534 -0.3081955214589121 0.10515443994879244
-0.007829230513112486 -0.31474233006934743 0.10788623104853562
-0.0024454698389277567 -0.320594234710896 0.1103309565043644
0.0036033319646955222 -0.32566005682028615 0.11255779967947765
0.01024352002869753 -0.3299229202351862 0.11469863983451524
0.017354874872555645 -0.33343689078153954 0.11692892275956773
0.024782895131929706 -0.3363275118097571 0.1194367291194366
0.032361585517843884 -0.33874551771238115 0.12238978494808053
0.03994223524183222 -0.3408310670769411 0.1258956984146881
0.04741754429794634 -0.3426707034133431 0.12998454851953167
0.054732774098425065 -0.3442753817022741 0.13460614920483455
0.06188317780096383 -0.345580682312936 0.13964644756700614
0.06890023191545529 -0.3464781245540164 0.14495543792694604
0.07583251773812172 -0.34684119117884205 0.1503810369101252
0.08272704991870826 -0.34657878552833077 0.15580058573423058
0.08961647232640584 -0.34566460969067947 0.16113705591575184
0.09651389788990207 -0.34415929226383474 0.16636937295605542
0.10341471755670505 -0.3422096149762918 0.17152039281986461
0.11030251941564576 -0.34003697414574724 0.17664757640085307
0.11715545608431391 -0.33790149835390976 0.18181503759488685
0.12394983495023966 -0.33606926876439264 0.18708687864835263
0.1306574180238546 -0.3347714915905667 0.19250805788299927
0.13724868652854985 -0.3341752457813247 0.19810646974351767
0.14368570200874028 -0.33437117333967636 0.2038881141649731
0.14992990668384795 -0.3353750397702386 0.2098329690545498
0.15594637592646532 -0.3371504168614294 0.21590287598847582
0.1617146683149103 -0.339634000758346 0.22202977078774097
0.16723342627502785 -0.3427604184906502 0.2281187113746691
0.17252578702529014 -0.34648565636239637 0.2340591856298663
0.17761960420198872 -0.350786061673667 0.2397353167310854
0.18254635177681008 -0.35565919660147355 0.24505229382504745
0.18731665093622857 -0.36109999703999995 0.2499515141829673
0.1919126140293352 -0.36708822658045737 0.254422628401741
0.19627455979010594 -0.37357771677310736 0.258500074450218
0.20030142225523637 -0.3804978458128241 0.2622510906475899
0.2038585094787244 -0.3877606361321653 0.2657536071097906
0.20679001597787278 -0.3952798397442609 0.26906750893053094
0.20896102634804692 -0.40297741648332763 0.27222021670855673
0.21028287728329592 -0.410801984930922 0.27519230729967065
0.21075006430831345 -0.4187220504228888 0.2779128700376663
0.21045472454827038 -0.4267277524577259 0.2802774974039619
0.2095767410184859 -0.43482731090839744 0.2821621682496418
0.2083534312315945 -0.44303520087417386 0.28345624647978074
0.20705170568844075 -0.45136425467354774 0.2840768386642635
0.20592824787273278 -0.459823059534858 0.283989547356672
0.20521105310244867 -0.4684133154497361 0.2832040130901335
0.2051028111581045 -0.4771307379079298 0.281769445183283
0.20577839998676303 -0.48596452110667626 0.27975831004553264
0.20740569836122286 -0.4949048988211281 0.27725229759924175
0.2101453177724517 -0.5039386230065571 0.274340287016884
LINES 1 120
119 0 1 2 3 4 5 6 7 8 9 10 11 12 13 14 15 16 17 18 19 20 21 22 23 24 25 26 27 28 29 30 31 32 33 34 35 36 37 38 39 40 41 42 43 44 45 46 47 48 49 50 51 52 53 54 55 56 57 58 59 60 61 62 63 64 65 66 67 68 69 70 71 72 73 74 75 76 77 78 79 80 81 82 83 84 85 86 87 88 89 90 91 92 93 94 95 96 97 98 99 100 101 102 103 104 105 106 107 108 109 110 111 112 113 114 115 116 117 118
POINT_DATA 119
SCALARS isSiphon int
LOOKUP_TABLE default
0
0
0
0
0
0
0
0
0
0
0
0
0
0
0
0
0
0
0
0
1
1
1
1
1
1
1
0
0
0
0
0
0
0
0
0
0
0
0
0
0
0
0
0
0
0
0
0
0
0
0
0
0
0
0
0
0
0
0
0
0
0
0
0
0
0
0
0
0
0
0
0
0
0
0
0
0
0
0
0
0
0
0
0
0
0
0
0
0
0
0
0
0
0
0
0
0
0
0
0
0
0
0
0
0
0
0
0
0
0
0
0
0
0
0
0
0
0
0
