# vtk DataFile Version 2.0
Vessel Segment
ASCII
DATASET POLYDATA
POINTS 119 float
-0.006882018014084541 -0.0043338287928093785 0.00279590675466278
-0.013904816779216261 -0.008848003391559138 0.005111001917447477
-0.020939456901031536 -0.013506706580584046 0.006906928083814436
-0.027862377159336957 -0.018271435056286794 0.008143073520417207
-0.03456417397913925 -0.023096382874278447 0.00877366387765838
-0.04096179376235006 -0.02792746010565946 0.008745948238217111
-0.0470077116233452 -0.032706894573147044 0.008003789704187355
-0.05268970816349068 -0.03738745260409824 0.006498062738155864
-0.058022429154618235 -0.04195025341034917 0.0042026576398341885
-0.06302799796209099 -0.046418882407904524 0.0011298537400868099
-0.06771344840531932 -0.0508596800039952 -0.002661787686389013
-0.07205174795814713 -0.05537179032376709 -0.007069068040825665
-0.07597033886804268 -0.06006940083060945 -0.011951573645626226
-0.07936072113307988 -0.06506257461890634 -0.01714536017030529
-0.08210165970252947 -0.07043768851821507 -0.02248030173189162
-0.08408618855618864 -0.07624293723953943 -0.027800398172997887
-0.08524251833788994 -0.08248190064471148 -0.032983884356880176
-0.08554252005685738 -0.08911238144437757 -0.03796259783320775
-0.08499924337539552 -0.09605699941396786 -0.042730501373533195
-0.08365951080583686 -0.10322187696407228 -0.04733742707582188
-0.08159594211448332 -0.11051777396854556 -0.05186857334208133
-0.07890446016661591 -0.11788015421360412 -0.056412379871367095
-0.07570455462992179 -0.12527767112214533 -0.06102539707310092
-0.07214122126229765 -0.1327101955042742 -0.06570072378168997
-0.06838542261877202 -0.14019257446445924 -0.07034594220622178
-0.06462842675531759 -0.14772785271970248 -0.07477852020142668
-0.06107098102409296 -0.1552890147856476 -0.07873396502130672
-0.05790532613212336 -0.16278828022066483 -0.08189219148711813
-0.05529078847746949 -0.17008029087995272 -0.08391771445153239
-0.0533286119567696 -0.17696679836958376 -0.08450776997527999
-0.05204323447429721 -0.18322325333226194 -0.08344299266091486
-0.05137746909796987 -0.1886326871591753 -0.08062863209075181
-0.0512060746182824 -0.19302784587904886 -0.07611716727695719
-0.051368100709405506 -0.19632434514791666 -0.07010362044191158
-0.05170360833368747 -0.1985383644855091 -0.06289471615134022
-0.05208321431753174 -0.1997975463423621 -0.05486116210329553
-0.05241844973112874 -0.20031801401100754 -0.046384255787869845
-0.05265236843781276 -0.20038186917515302 -0.03780782504595033
-0.05273823496151601 -0.2002939897907143 -0.029404282215107536
-0.05261915778735137 -0.2003459014147935 -0.02135820872086994
-0.05221954991010677 -0.20079769050949148 -0.013764004693085346
-0.051460479674298315 -0.20185359874114078 -0.006634671047151937
-0.05029280501668172 -0.20366802867341047 7.938579007251116e-05
-0.04873594578149583 -0.20632543022742586 0.006468536284161119
-0.04690084547977165 -0.20984711421514501 0.012639518583011305
-0.044983440495990075 -0.21418487838964181 0.018692502120492428
-0.04323190862895016 -0.2192418810657431 0.024701760479937922
-0.04189477491268947 -0.22489018262214727 0.030702093055373816
-0.04116728194282355 -0.23099612810492076 0.03668320087158002
-0.04114914507782781 -0.23744958259992788 0.0425909890169248
-0.04182148694577219 -0.24416787756776148 0.048336094604160496
-0.04305235374380527 -0.25111029162676085 0.053808258466072886
-0.044625279056397404 -0.25826996465979657 0.058893711517318474
-0.04627999019569267 -0.265661619859673 0.06349362072409333
-0.04776020841246301 -0.2733074397179782 0.06753994920459559
-0.04885417108622592 -0.2812176851348862 0.07100879442553067
-0.04942322342529115 -0.2893854409955796 0.07392751426788852
-0.04941192980004554 -0.29777126903428447 0.07637504391778814
-0.04884541669997087 -0.3063102019305807 0.07847653683739282
-0.04781477117428732 -0.314917127720012 0.08039341574943244
-0.04645528825573799 -0.3234917492627819 0.08230951842703343
-0.044923868390327935 -0.33193332917113966 0.08441326793322974
-0.04337359347807163 -0.3401555332224126 0.0868781882999149
-0.04192795937588007 -0.3480982469235332 0.08984047207978886
-0.04065654209546683 -0.35573323831598475 0.09337724415657897
-0.03955677973829042 -0.3630686643080876 0.09749135788405452
-0.0385489036395152 -0.3701457638309303 0.10210958406764241
-0.03748348220369815 -0.3770240439171807 0.10709470008646199
-0.036168107493728306 -0.3837679197374743 0.11227216147797377
-0.03440033631577159 -0.3904216749566584 0.1174640962572889
-0.03200410675764148 -0.39699205953347844 0.12252070326478133
-0.0288541940643513 -0.4034453788893354 0.12734035824637294
-0.024888807933353987 -0.40969555940052294 0.1318757824245158
-0.02010882360698286 -0.41562375710187516 0.1361264505226906
-0.014564526182688707 -0.42108904648380385 0.14012141382898122
-0.008339481995098283 -0.425952845803714 0.14390076842425975
-0.0015347279238269284 -0.4301030256086233 0.1475052447613914
0.005745350982547505 -0.43346488410464484 0.15096016959993136
0.013402084844461946 -0.4360229986306952 0.15428418363881075
0.021346223431848943 -0.4378185559904936 0.15749459899014315
0.02949948150160428 -0.4389449621669726 0.16060392476711205
0.03779408266957895 -0.4395286002467109 0.1636358722929474
0.04617258535751734 -0.4397092222839227 0.16661521317665118
0.05458777219315739 -0.4396125101062156 0.16956745733008552
0.06300300546897299 -0.43932679505949074 0.17251555362187226
0.07139125705565379 -0.4388907064250568 0.175470841847439
0.07973439364848178 -0.43828747636764426 0.17843262288854378
0.08802116245187547 -0.43745272405434044 0.18138810549867246
0.09624456588657884 -0.43629178694687876 0.1843233720935222
0.10439942104823151 -0.4347076203657531 0.18722546120819814
0.11248033357932302 -0.43262414936154436 0.19009336021764361
0.12047999943567791 -0.43001783374797853 0.1929476616849059
0.12838871139587787 -0.4269374672977233 0.1958244116706248
0.13619169691783764 -0.4235131835945013 0.19877518359794316
0.14387354559059987 -0.4199542769410201 0.20185761816479864
0.1514180035307519 -0.41652629792720597 0.20512583386876776
0.15881069503301345 -0.41353058856623687 0.20861329660646144
0.16603682382647128 -0.4112531188906926 0.21233247582150278
0.17308579824596262 -0.40992994230267304 0.2162711152724093
0.17994415624927113 -0.4097052425621486 0.22040434588868033
0.1865904828969101 -0.410601921031905 0.22470109132923433
0.19299090045793493 -0.4125245938040841 0.22914750541599854
0.1990914211401825 -0.41528414585706874 0.23374156547176167
0.20482168166674616 -0.418646431567588 0.2385065805736159
0.21009799967944157 -0.42239214252995205 0.2434631546670615
0.21484417883704024 -0.42636793902581005 0.24863308240343907
0.21900385863352412 -0.43051082722868067 0.2540116318001719
0.222557484213433 -0.4348399828149384 0.25956769513294586
0.22553232934636544 -0.4394337399839077 0.2652362203352892
0.2279881385629472 -0.4443871910619637 0.2709286791686325
0.22998919214703079 -0.44978000645263827 0.2765310815015262
0.2315761664379889 -0.4556650392927816 0.2819210144657816
0.23273596984297384 -0.4620622628904431 0.2869655022053552
0.23339796978625935 -0.4689576650046531 0.2915310879173134
0.23344273648204894 -0.4763164908631429 0.2954948122464319
0.23271647510939672 -0.48408839372140533 0.2987348307669981
0.23105277958059958 -0.49221662391413323 0.30114038048822295
0.228278908308522 -0.500635378338677 0.3026036266386542
0.22421953280734896 -0.5092811631496884 0.303017218553246
LINES 1 120
119 0 1 2 3 4 5 6 7 8 9 10 11 12 13 14 15 16 17 18 19 20 21 22 23 24 25 26 27 28 29 30 31 32 33 34 35 36 37 38 39 40 41 42 43 44 45 46 47 48 49 50 51 52 53 54 55 56 57 58 59 60 61 62 63 64 65 66 67 68 69 70 71 72 73 74 75 76 77 78 79 80 81 82 83 84 85 86 87 88 89 90 91 92 93 94 95 96 97 98 99 100 101 102 103 104 105 106 107 108 109 110 111 112 113 114 115 116 117 118
POINT_DATA 119
SCALARS isSiphon int
LOOKUP_TABLE default
0
0
0
0
0
0
0
0
0
0
0
0
0
0
0
0
0
0
0
0
0
0
0
0
0
0
0
0
1
1
1
1
1
1
1
0
0
0
0
0
0
0
0
0
0
0
0
0
0
0
0
0
0
0
0
0
0
0
0
0
0
0
0
0
0
0
0
0
0
0
0
0
0
0
0
0
0
0
0
0
0
0
0
0
0
0
0
0
0
0
0
0
0
0
0
0
0
0
0
0
0
0
0
0
0
0
0
0
0
0
0
0
0
0
0
0
0
0
0
