# vtk DataFile Version 2.0
Vessel Segment
ASCII
DATASET POLYDATA
POINTS 119 float
-0.0021188007277763094 -0.00859422785098885 0.0019588426183260736
-0.004661209702728196 -0.01717542954329342 0.0037503923166384767
-0.007663836452865997 -0.025663280080692904 0.005335685115148363
-0.011160437828731317 -0.033978490270001646 0.006676241550597369
-0.015176144330412521 -0.042045989554711796 0.00773490375036855
-0.01971792064579155 -0.04980004554565643 0.008476468488422567
-0.02476309993745691 -0.05719156882020477 0.008867472849154906
-0.03024959186738816 -0.06419561966023317 0.008874173822687155
-0.036070296063491304 -0.07081877674780278 0.008459627744418208
-0.04207536570484196 -0.07710086088981322 0.007581763924113383
-0.04808324148676098 -0.08311252365766263 0.006194477941641664
-0.053898946658892326 -0.08894240765387275 0.004252459329545095
-0.05933972126534895 -0.09467785554438624 0.001718465775216675
-0.06425888891786714 -0.1003791202133888 -0.0014292590518855109
-0.06856121228912346 -0.10605984229786139 -0.005192326743053585
-0.0722007508906875 -0.11167957289607615 -0.00955150943534087
-0.07516426296750003 -0.117151872119748 -0.014469747782285469
-0.07744640748899491 -0.12236635377674304 -0.019897571146812357
-0.07903446287700039 -0.12721467909549558 -0.025778149052555988
-0.07990839273829915 -0.13161194934158482 -0.03204942653929443
-0.08005629230403599 -0.13551026815837833 -0.038643589322895515
-0.07949049708186517 -0.1389015668967784 -0.04548218670350723
-0.07825089274431271 -0.14181867279384824 -0.05247117007267838
-0.07638996693098092 -0.14433890457543552 -0.059495000372372
-0.07395045622255945 -0.14658683657654248 -0.06641995875345556
-0.07094807493147312 -0.148737778675544 -0.07310255272649992
-0.0673735001921713 -0.1510128924927902 -0.07940820683967091
-0.06321185551402198 -0.1536617933716095 -0.08523082447786169
-0.05846745257515708 -0.15692559723564534 -0.09050466902408202
-0.05318714281090598 -0.16098855346575078 -0.09520445566474303
-0.04746940552740836 -0.16592586458904215 -0.09932791460484869
-0.04146479937578668 -0.1716663885839038 -0.10286641078033049
-0.03536834416845317 -0.17798499984021862 -0.10577268074914364
-0.02940507460237372 -0.18452312064618584 -0.10793921342211057
-0.02381163051069101 -0.1908440562045687 -0.1091949227173092
-0.018813861073385785 -0.19649468130649936 -0.10932750254837031
-0.014603575651027012 -0.20108814109816667 -0.10812567472022966
-0.011317979328619403 -0.204362859888295 -0.10542975367332906
-0.009028083107737613 -0.20623144568862362 -0.101175092899157
-0.007738889726231629 -0.20677725139006267 -0.09541455881504263
-0.007399693759741198 -0.2062397481150117 -0.08831904009234834
-0.007923383087559056 -0.20495655854272568 -0.0801557767522023
-0.009208631407455427 -0.20329569089542854 -0.07125245760271556
-0.011156923353859413 -0.20159136164317756 -0.0619581372132715
-0.013679743590503769 -0.20010689801161013 -0.052609104867736456
-0.016695727652422252 -0.19901941475706153 -0.04349940449095609
-0.02011976349515208 -0.19842556480301346 -0.034860035721710245
-0.023849752373520685 -0.19835478344241586 -0.026845614677077762
-0.027755914986188956 -0.1987961373476424 -0.019526389202478536
-0.0316791944468898 -0.19971803909147398 -0.012889439533792998
-0.03544003231610132 -0.2010904605871516 -0.006842940257676662
-0.03885893980765249 -0.20290283392204644 -0.0012302137828900657
-0.041783563447518886 -0.20516518780382018 0.0041496998694576055
-0.044117695281849834 -0.2078905905531526 0.009512925472252807
-0.04583914018583678 -0.21108684074401665 0.015060155133825292
-0.046996097204449895 -0.21471761812975754 0.020948871583201554
-0.04768490678671695 -0.21871324656034255 0.027270411808128173
-0.04800953134165578 -0.2229757344323191 0.03403998642984565
-0.04804003459857469 -0.22741042604484155 0.041196233604671464
-0.04779054261481101 -0.23195744426234657 0.04861008176301931
-0.047224025586028284 -0.23661135380449957 0.05610039694481413
-0.04628186415171993 -0.24142000012321435 0.06345615094740338
-0.04492325084987821 -0.24647993011374142 0.07046184666287238
-0.04315987883963974 -0.2519107155958827 0.07692333909638434
-0.04107191196661669 -0.2578190740252822 0.08269178585916116
-0.03880010529625779 -0.2642854094243908 0.08767822682189245
-0.03652175388772451 -0.27134384014210916 0.09186008181182305
-0.034414591748552534 -0.27897428083776965 0.09527945785222727
-0.03262081378758576 -0.28711047581221355 0.09803275112760529
-0.03122203639789365 -0.2956498629036907 0.10025696135046343
-0.030226449512379832 -0.30447169995768875 0.10211181657013595
-0.02957195757003203 -0.31344878994687436 0.10376276388209839
-0.02914012002574957 -0.3224669492134566 0.10536504146078227
-0.028776322177246412 -0.33143143421794224 0.10705315965820494
-0.028311634722808517 -0.3402740733217104 0.1089320418178402
-0.027583611097677516 -0.34895339588768903 0.11107384744596253
-0.0264535762955832 -0.35745117542991806 0.11351520587111508
-0.024817076656714076 -0.3657599206440149 0.11625935337153043
-0.022606935614839084 -0.3738797351743051 0.11928042971969266
-0.019790515902622874 -0.3818019501852633 0.122530932345396
-0.016360604767235148 -0.3894965941548232 0.12595269688285643
-0.012326524221188705 -0.3969060123328159 0.12948754459418652
-0.007707333922467586 -0.403939333606537 0.13308658838693183
-0.002527967243348026 -0.41047786411687326 0.13671701587077087
0.0031817977873612067 -0.41638664875487036 0.14036319361785313
0.00938719478143512 -0.4215319849004936 0.14402542565926763
0.016047578874803674 -0.4257997511759233 0.1477155780724108
0.023113976252719787 -0.4291272513509513 0.15145115077785493
0.030526944287623686 -0.4315176299523113 0.15525016692536528
0.03821393234305587 -0.4330523524839573 0.1591286651261491
0.04609029652279312 -0.43388978605503226 0.1631002738598264
0.05406252833308931 -0.43423707108543547 0.16717493830816146
0.062034821195266834 -0.43432855062037623 0.17137358671001757
0.06991679755568281 -0.43438785669415253 0.17571312364398478
0.07763153607779653 -0.43459108499446614 0.18022294014471493
0.08512199748909892 -0.43504807327255 0.1849337838719215
0.09235367431905465 -0.43579190291677267 0.1898823600603263
0.09931325297477235 -0.4367821727053974 0.19510085437000857
0.10600034929089025 -0.4379258214686618 0.2006194086299072
0.1124163389026828 -0.43910715518307764 0.20646158796449804
0.11854994125505906 -0.44021630515229 0.21264778794549058
0.12436951853125058 -0.4411826772473191 0.21918934919954033
0.12982266281402988 -0.44198358589210424 0.2260849752533099
0.13484764450181433 -0.4426428674788701 0.23331024131100858
0.13939432881898092 -0.4432434148642434 0.24080636309606177
0.14344870690942363 -0.44391643639411327 0.24846016978998856
0.14705269992917636 -0.4448369898765037 0.25610883585314426
0.15030807619603637 -0.4462173066361485 0.2635405977980476
0.1533605617802985 -0.4482740881189758 0.27053003807858683
0.15636412144873016 -0.45119031247070285 0.27687689006610916
0.1594314943853356 -0.4550668529897372 0.2824613709232629
0.16259731505490854 -0.45989767217037314 0.28727678759956854
0.16578593974311942 -0.46554246026586776 0.29144750967965705
0.16880122789481922 -0.4717408893539101 0.2952356124173326
0.1713492578451241 -0.47812953308259987 0.29900772131421494
0.17306350902108278 -0.4842781818001255 0.30320463449547636
0.17353830948821153 -0.4897223501073929 0.30830992030281074
0.17234972918795446 -0.49398172269150964 0.31481660068002976
0.1690713546108666 -0.49657514208280223 0.3232269951737613
LINES 1 120
119 0 1 2 3 4 5 6 7 8 9 10 11 12 13 14 15 16 17 18 19 20 21 22 23 24 25 26 27 28 29 30 31 32 33 34 35 36 37 38 39 40 41 42 43 44 45 46 47 48 49 50 51 52 53 54 55 56 57 58 59 60 61 62 63 64 65 66 67 68 69 70 71 72 73 74 75 76 77 78 79 80 81 82 83 84 85 86 87 88 89 90 91 92 93 94 95 96 97 98 99 100 101 102 103 104 105 106 107 108 109 110 111 112 113 114 115 116 117 118
POINT_DATA 119
SCALARS isSiphon int
LOOKUP_TABLE default
0
0
0
0
0
0
0
0
0
0
0
0
0
0
0
0
0
0
0
0
0
0
0
0
0
0
0
0
0
0
0
0
0
1
1
1
1
1
1
1
0
0
0
0
0
0
0
0
0
0
0
0
0
0
0
0
0
0
0
0
0
0
0
0
0
0
0
0
0
0
0
0
0
0
0
0
0
0
0
0
0
0
0
0
0
0
0
0
0
0
0
0
0
0
0
0
0
0
0
0
0
0
0
0
0
0
0
0
0
0
0
0
0
0
0
0
0
0
0
