# vtk DataFile Version 2.0
Vessel Segment
ASCII
DATASET POLYDATA
POINTS 119 float
-0.0021845989773239655 -0.008951136059491433 0.0016049711034038425
-0.005037842779814611 -0.017231844290234895 0.0004835986954170124
-0.008453822046110481 -0.0249690487177148 -0.0025274232129592045
-0.012323620997013911 -0.032289214976933794 -0.006592396063796502
-0.016531028285463455 -0.039313519574253705 -0.010890880778760197
-0.020949085178270443 -0.046146224570685346 -0.014663563625216196
-0.025442260079002597 -0.05285282065465108 -0.0173004378295003
-0.029877650900772205 -0.059436888498274096 -0.018460053925040045
-0.03414407801334685 -0.06582807897009768 -0.01817509421997561
-0.03817287834615696 -0.07189731712453612 -0.01688742348364442
-0.04195032414030417 -0.07750127602401237 -0.015363324776796517
-0.04551517174016838 -0.08254543909418656 -0.014494431327072451
-0.0489450859995136 -0.08703665185861176 -0.015043463895421291
-0.05233891839264004 -0.09109861726453382 -0.01743885236800934
-0.055800962593483695 -0.09494084759221244 -0.021691684631428003
-0.05942074400792192 -0.09879486116599843 -0.02745041283459164
-0.06324575669419656 -0.10285410858702285 -0.03415731480056304
-0.06724855586257265 -0.10724510148736749 -0.041223801410962484
-0.07130439941918211 -0.11202986091052204 -0.04817006193170866
-0.07519448001576513 -0.11721498107873983 -0.05471040049908765
-0.07864308997811056 -0.12274926121685767 -0.060776051089781784
-0.08138276661745296 -0.12851203413555812 -0.06649116936616226
-0.08321930878209767 -0.13430692346399695 -0.0721076497069791
-0.08406597879235798 -0.13989036049950934 -0.07792189214078493
-0.08393045911818847 -0.14502801349805391 -0.08418505155136576
-0.08286650032408871 -0.14957621544007146 -0.09102542145997297
-0.0809242665029558 -0.15354802478896226 -0.09838848069044621
-0.0781244348339 -0.1571392732248714 -0.10601521861767958
-0.07446238487586239 -0.160674852506882 -0.1134626956670393
-0.06994014715483118 -0.16450455367922348 -0.12016600348280079
-0.06461798455805247 -0.1688778169197519 -0.1255345275231276
-0.05867203746398983 -0.17385149925053778 -0.12904843184207784
-0.052438545278740756 -0.1792659580739779 -0.13036267055119313
-0.0464124013695762 -0.18477966439768606 -0.12935705199389308
-0.041184775816240554 -0.18994032021474577 -0.12615625741207218
-0.03732405336275973 -0.19428179765292655 -0.12109210665761051
-0.03523465363275503 -0.19740610445239679 -0.11462176868839041
-0.03504199421481885 -0.1990747305925868 -0.10723731861429706
-0.03654589032794149 -0.19924993090137846 -0.09937134389602163
-0.039260533513940224 -0.19810609481793706 -0.09134043967049607
-0.04252700958682016 -0.19596528340274094 -0.0833313840009482
-0.045659237321557904 -0.1931918505164232 -0.07542991311549838
-0.048082334957044864 -0.1900712542345101 -0.06766887770601944
-0.04942742595964803 -0.1867463862985711 -0.0600670894926656
-0.04957416159377457 -0.18321993026372882 -0.0526402094868439
-0.0486442694421614 -0.1794277903014522 -0.045385384056030986
-0.046952004722264434 -0.1753434986084586 -0.0382581303668222
-0.044916457806204194 -0.17106039047742522 -0.031161417249154503
-0.04295329984260032 -0.16683304052026637 -0.023961661416699295
-0.04137793391506855 -0.16305216690925825 -0.0165269230761703
-0.040354209944748996 -0.1601657873469103 -0.008773992934463674
-0.03989680100948148 -0.1585846829156664 -0.0007036860492989325
-0.039913565463692416 -0.15859060317137905 0.007587783241479427
-0.04026069433786126 -0.16028660773966485 0.01591688835322892
-0.04079338753748661 -0.16360116206667025 0.024032333374911462
-0.041401545011652094 -0.16833279729630307 0.031636676073966925
-0.042030549415992845 -0.17421834646659815 0.03841343511629959
-0.042690606724366614 -0.18099367156340532 0.04406354931253744
-0.043453748036266365 -0.1884207695640697 0.04835818934309342
-0.044431712034546884 -0.1962929590238157 0.05118962501678488
-0.045733646687793394 -0.20442970485195444 0.05260106217612757
-0.04741468983326657 -0.2126870291784621 0.05277691193704416
-0.049439788561339355 -0.2209708871486714 0.05199612886913873
-0.05168359774322528 -0.2292442350355281 0.05056510493271051
-0.05397027228084321 -0.2375340492661651 0.04875228681227078
-0.05613587222659928 -0.2459060925120665 0.04674638684550015
-0.05807826580904307 -0.254436496511246 0.04464599418854736
-0.059766172612799776 -0.26317456739040707 0.04248606844209002
-0.061196267056277384 -0.2721063012009226 0.040285050184123046
-0.06231977794358024 -0.2811336566544678 0.03809938520810376
-0.06298022154164415 -0.2900701059473725 0.036059173276564584
-0.06290164640001593 -0.2986555059154704 0.034371614451847804
-0.061748218903496514 -0.30660141017617726 0.0332884925393301
-0.05923411993179513 -0.3136558251975218 0.03304674077493198
-0.05524001567334536 -0.3196770776354593 0.033810765491929136
-0.0498798966008027 -0.32468150814984925 0.0356335281675544
-0.043489075797416094 -0.32885896020004074 0.03845381051979246
-0.036534807183298226 -0.33251845628213506 0.042121860342582564
-0.02948569214064064 -0.33598525212729363 0.04644031667406834
-0.022685196010959544 -0.33949096196028755 0.051202444878799505
-0.016273411607321576 -0.3430937870711262 0.056220049427888476
-0.010181734264816408 -0.3466669723528134 0.06133451798163918
-0.00419993639601214 -0.34995736773571146 0.06642387168333559
0.0019127575875069382 -0.3526853161781189 0.07140600927958522
0.008317135489844831 -0.3546306831580095 0.07624907055114608
0.015025065117964035 -0.3556665722406817 0.08098206374862744
0.02189375596796501 -0.355760267205569 0.08569486603723135
0.028681141043189695 -0.3549418762725538 0.09052053349605856
0.03513926867790506 -0.3533039251302949 0.09559781819790612
0.041106680258384105 -0.3510184640507882 0.10102970380777007
0.04656557773319956 -0.3483400748389782 0.10685336208911202
0.051644349956837254 -0.3455784577830962 0.11303048394047083
0.05657138760613005 -0.3430320918676787 0.11945608261691845
0.06160749540136239 -0.34089825959556413 0.12597513614402772
0.06698573246672287 -0.3392292725064568 0.13240129046704008
0.07287112448499378 -0.3379424174281898 0.13854375202916702
0.07933576638971605 -0.33688702305807355 0.14424742378305203
0.08633971362308385 -0.33593348821717817 0.14942874309159895
0.09371859252783296 -0.33503484462891575 0.15412931692264292
0.10118757849337832 -0.33423199693465483 0.15852336409092274
0.108379321434533 -0.33360987455313285 0.16289988497455554
0.11492043974919715 -0.33325016331903784 0.16758291878871734
0.12053214835070018 -0.33320352245157037 0.17283995618413706
0.12511490990338334 -0.33349861210734233 0.1787953634466118
0.12878086900774421 -0.3341871319862283 0.18539063633602285
0.13180308124194398 -0.33536514621020913 0.19240990043022674
0.13449007278236472 -0.3371788972387696 0.19955119483663505
0.13704897608363595 -0.3397849149597303 0.20651533861931173
0.13949119392344883 -0.3433032040736229 0.21306589765126593
0.14165319468797397 -0.34779188807840494 0.21905561186183187
0.14329379766431335 -0.3532408993746772 0.2244152144449011
0.14424456885216114 -0.35956653230478847 0.22914871163419243
0.14451836106850513 -0.3666100579524682 0.23333607988913674
0.14434612920999407 -0.37412199477314556 0.23715874905131878
0.14414798354808067 -0.38176711093651167 0.24089791318666792
0.14446710438188845 -0.38913535613482714 0.24492141010257318
0.14590555264108138 -0.39577215425243445 0.24964590582432106
0.14908507675766652 -0.40120480165631367 0.2555130178541726
0.1546282585928929 -0.4049517612684509 0.26296781770217176
LINES 1 120
119 0 1 2 3 4 5 6 7 8 9 10 11 12 13 14 15 16 17 18 19 20 21 22 23 24 25 26 27 28 29 30 31 32 33 34 35 36 37 38 39 40 41 42 43 44 45 46 47 48 49 50 51 52 53 54 55 56 57 58 59 60 61 62 63 64 65 66 67 68 69 70 71 72 73 74 75 76 77 78 79 80 81 82 83 84 85 86 87 88 89 90 91 92 93 94 95 96 97 98 99 100 101 102 103 104 105 106 107 108 109 110 111 112 113 114 115 116 117 118
POINT_DATA 119
SCALARS isSiphon int
LOOKUP_TABLE default
0
0
0
0
0
0
0
0
0
0
0
0
0
0
0
0
0
0
0
0
0
0
0
0
0
0
0
0
0
0
1
1
1
1
1
1
1
0
0
0
0
0
0
0
0
0
0
0
0
0
0
0
0
0
0
0
0
0
0
0
0
0
0
0
0
0
0
0
0
0
0
0
0
0
0
0
0
0
0
0
0
0
0
0
0
0
0
0
0
0
0
0
0
0
0
0
0
0
0
0
0
0
0
0
0
0
0
0
0
0
0
0
0
0
0
0
0
0
0
