# vtk DataFile Version 2.0
Vessel Segment
ASCII
DATASET POLYDATA
POINTS 119 float
-0.007441697646317722 -0.0058835610989786645 -0.0014202305967519712
-0.014090063841536797 -0.012187592771519798 -0.0008414890637467233
-0.02008776103405778 -0.018754712143172293 0.0012504648722974126
-0.02557815306442846 -0.02542790880098961 0.004366878710903438
-0.030707075089859343 -0.03205310818212363 0.00801257990844303
-0.03561956467050321 -0.038483397901017194 0.011686271900176922
-0.04045430221242729 -0.044590138511794546 0.014891670328184942
-0.04532613847959403 -0.0502765043209517 0.017165635962362435
-0.05030273132345958 -0.05549527989515855 0.01812163745136349
-0.05537915477574423 -0.060263222330504684 0.017499363055655113
-0.060466365680253126 -0.06466408231754511 0.01519889826891882
-0.06539379791347595 -0.06883757499658436 0.0112922202208803
-0.06993128605908028 -0.07295736883680144 0.006008987661701766
-0.07382495643296809 -0.077198240265805 -0.0003066435435355969
-0.07684079106790058 -0.0817067125742357 -0.007253128290512828
-0.07879715669081735 -0.08657763226519315 -0.014430810905047635
-0.07958813915514812 -0.09184369333640452 -0.021494860260759703
-0.07918956352899496 -0.09747523558624183 -0.028195081157146244
-0.07765150734331384 -0.10338823574501836 -0.034399670829165827
-0.0750787429572278 -0.109459133984483 -0.040099679688376105
-0.07160613196135321 -0.11554515225752546 -0.04539210795965966
-0.06737430793014307 -0.12150546942830652 -0.05044575051513686
-0.0625127432044321 -0.1272250364009399 -0.055452161353258866
-0.0571315896111806 -0.13263238724290538 -0.06056962496779244
-0.05132899320079752 -0.13771086983781108 -0.06587195913245308
-0.045204289838054725 -0.14249526444078348 -0.07130930934125662
-0.03887520907370948 -0.14705707090547124 -0.07669446114272639
-0.03249233124127808 -0.15147017387917586 -0.08171672685909318
-0.026244040744809828 -0.1557820882649988 -0.08598491006852989
-0.020354539120575017 -0.159991119568744 -0.08909228485177591
-0.015066893514806477 -0.1640441764638623 -0.09069098190956942
-0.010619135815482563 -0.16784837681939854 -0.09055841381466573
-0.007209639591741698 -0.17130002120336868 -0.08863614477697661
-0.0049626099902366095 -0.17432007360786908 -0.0850339090213877
-0.003902465995225995 -0.1768764848815402 -0.08000006827094834
-0.003950048927944124 -0.17899076618161736 -0.07386317162842242
-0.0049466139507567996 -0.1807317947611623 -0.0669651338559306
-0.006691942188144983 -0.1821829064990536 -0.05960328948273366
-0.008983451134219956 -0.18341512863398624 -0.0519917349371289
-0.011639948568672627 -0.1844628658868049 -0.04424809737569511
-0.014508111606493101 -0.18531942505814858 -0.03640560699587726
-0.017461885322670435 -0.1859602308632867 -0.028446812103857633
-0.020401764519855266 -0.18637119922781356 -0.020346794072219006
-0.023256516863293216 -0.18658622876868786 -0.012112202312877327
-0.02598330338298016 -0.18671263745222932 -0.0038081800588916407
-0.028565835024087174 -0.1869322689037249 0.0044372753168160015
-0.031013961911267013 -0.1874844564454878 0.012448582337092074
-0.033357231611684135 -0.18862542792297182 0.0200363448731182
-0.03563348180578904 -0.1905778219971272 0.027041481558992317
-0.03787100950391892 -0.19347936325985518 0.033379834470566264
-0.040069867779871614 -0.19735202178409775 0.03907343903202314
-0.04218787567747552 -0.20208886944720017 0.044256068824566
-0.044139234809407075 -0.20748648651787205 0.04914862214442822
-0.045807842890273676 -0.21329192474253503 0.05400939781331611
-0.047073089031628004 -0.21926791552499925 0.05907347216016949
-0.047836991790534376 -0.2252364229192562 0.06450151066811526
-0.04804756074595618 -0.2311129245145863 0.07035411136157829
-0.047708909164656456 -0.2368877310001363 0.07659148661804764
-0.04687724697934895 -0.24261254942686536 0.08309798422648128
-0.04564371979369644 -0.24836068389787624 0.08971501450397007
-0.044108171532931846 -0.2541939229832093 0.09627219632365352
-0.042350957947557985 -0.2601558610401266 0.10260933721120244
-0.040412109563581385 -0.26626055996699255 0.1085905096403604
-0.038278019449038886 -0.2725031651313963 0.11411279359866124
-0.035885509426248366 -0.2788570749534268 0.11911396699055982
-0.03314031713171241 -0.28528142298965714 0.12358333483730519
-0.02994264623085106 -0.2917206804336801 0.12757117180480693
-0.02621396280917503 -0.29809689959438684 0.13118879618301552
-0.021913516757803723 -0.30431438034877417 0.13459471985607305
-0.01704284294490796 -0.31027130383969476 0.13796624100646643
-0.011636906677947296 -0.3158631662426458 0.1414612562993767
-0.005752410756132047 -0.3210039101363848 0.14519190365245171
0.0005476827541926839 -0.32562771421792525 0.14919998750812585
0.007203960885325253 -0.329692844128111 0.1534662544486625
0.014165128525077621 -0.33317341176797377 0.15792313849255904
0.021385847030754055 -0.336057083095029 0.1624839541471686
0.028820938867064053 -0.3383440834644856 0.16706850620497163
0.03641920214890436 -0.3400384510303718 0.17162044982350871
0.044120630359403216 -0.3411485430871372 0.17612030315273897
0.05185749523678844 -0.34169130463251185 0.18058204849150375
0.059559903340883236 -0.3416928772202142 0.18504041859630144
0.06716201644532871 -0.3411980470178851 0.18954922672319297
0.07460974409060366 -0.34027890001709166 0.19415864740862787
0.08186590545180329 -0.3390331857391026 0.198911052697344
0.0889147559706338 -0.3375826618498614 0.20383509959147356
0.09576491980400677 -0.33605060416258176 0.20893784343758365
0.10244915029480037 -0.3345443655077348 0.2141948475422635
0.10902227653701534 -0.3331249614435961 0.21955690804926165
0.11555668836384764 -0.33180231315738257 0.22494882391533655
0.12213280773130256 -0.33053586242740934 0.23028291835513912
0.1288268072686556 -0.3292618273905965 0.23547633386809882
0.1357053425307255 -0.3279311131272555 0.2404677224445977
0.1428081254258198 -0.3265354141184804 0.24524215135155145
0.1501448401067577 -0.3251296397304636 0.24982743193056753
0.15769428991757414 -0.32382858380766827 0.25429588617199156
0.165404472055665 -0.3227917623593842 0.25874449505027286
0.17318862225036558 -0.3222043938872194 0.26327322552774307
0.18093606905264187 -0.32224638711978726 0.26795715863763153
0.1885071188812834 -0.32307123712929237 0.27282240490690335
0.19573742661693985 -0.32479009453003227 0.277829553265272
0.20244484784242955 -0.3274664255713174 0.282888191183651
0.2084305953617303 -0.33111701722587183 0.287861317624774
0.21349726159552776 -0.33572008284876914 0.2926066282706547
0.21747884393552613 -0.3412121297922506 0.29700688299059785
0.2202801402612952 -0.34748428860962216 0.3010076014578957
0.22189692212636813 -0.3543788611569627 0.30463163620377487
0.2224370592525553 -0.3616871474012453 0.3079844287616918
0.22210228834608947 -0.36916873573432635 0.3112376836148333
0.22115367149195622 -0.3765827962222805 0.314593197861583
0.21985635038512782 -0.3837147135843103 0.3182381371570142
0.2184279157301314 -0.39043167073992174 0.322299435586195
0.21699998304452195 -0.39669493721779975 0.3268149687070119
0.21559862368773042 -0.40257848022621767 0.3317176280967569
0.214163358950003 -0.4082482245283405 0.33684844717884177
0.21256269081076487 -0.4139447578608019 0.34197724568419624
0.21062359053713645 -0.41994463433942036 0.3468346661193018
0.20815659893970614 -0.42654290832747777 0.3511352419952227
0.2049646798753817 -0.43404137889494326 0.35458309472070276
0.2008495849553968 -0.44274208562017114 0.3568864183814913
LINES 1 120
119 0 1 2 3 4 5 6 7 8 9 10 11 12 13 14 15 16 17 18 19 20 21 22 23 24 25 26 27 28 29 30 31 32 33 34 35 36 37 38 39 40 41 42 43 44 45 46 47 48 49 50 51 52 53 54 55 56 57 58 59 60 61 62 63 64 65 66 67 68 69 70 71 72 73 74 75 76 77 78 79 80 81 82 83 84 85 86 87 88 89 90 91 92 93 94 95 96 97 98 99 100 101 102 103 104 105 106 107 108 109 110 111 112 113 114 115 116 117 118
POINT_DATA 119
SCALARS isSiphon int
LOOKUP_TABLE default
0
0
0
0
0
0
0
0
0
0
0
0
0
0
0
0
0
0
0
0
0
0
0
0
1
1
1
1
1
1
1
0
0
0
0
0
0
0
0
0
0
0
0
0
0
0
0
0
0
0
0
0
0
0
0
0
0
0
0
0
0
0
0
0
0
0
0
0
0
0
0
0
0
0
0
0
0
0
0
0
0
0
0
0
0
0
0
0
0
0
0
0
0
0
0
0
0
0
0
0
0
0
0
0
0
0
0
0
0
0
0
0
0
0
0
0
0
0
0
