# vtk DataFile Version 2.0
Vessel Segment
ASCII
DATASET POLYDATA
POINTS 119 float
-0.006491343607654746 -0.006142795268564234 -0.001984200595180554
-0.012867916928358718 -0.012046260898831927 -0.0013849551495251973
-0.019133695230411772 -0.017738381676597047 0.0010727721327991
-0.025292646549706484 -0.023246259227325504 0.004666335872852193
-0.03134822849706535 -0.02859286860041505 0.008684194551613005
-0.037300769825553325 -0.03379368603868926 0.012448326543969086
-0.04314338006560744 -0.03885208183690086 0.015352237313997782
-0.0488534627533269 -0.0437600673113793 0.016911646711568442
-0.05438212870595033 -0.048504825870234754 0.016813363929742673
-0.059643888211182494 -0.0530807470940545 0.014944279309942405
-0.0645110802908907 -0.05750316626136636 0.011397929730032579
-0.06881615874105186 -0.061814362344998264 0.006442976776246228
-0.07236448393450202 -0.06607752930474525 0.0004593257790573994
-0.0749535822562064 -0.07035713340307614 -0.006141413174204417
-0.0763993990882371 -0.0746944101001269 -0.012993344334392448
-0.07656127105087003 -0.07908900270803612 -0.01983111439122323
-0.07536644310403214 -0.08350049983855401 -0.02651350013262258
-0.07282823742596825 -0.08787025316567663 -0.033014881411877285
-0.06905823538868767 -0.09215854171373843 -0.039387342118118285
-0.0642713943288993 -0.09637698375037772 -0.045706364581597804
-0.058781996525467436 -0.10060255978069034 -0.05201739517403198
-0.05298788795649596 -0.10496410288356381 -0.058293200612769554
-0.04734278029563465 -0.10960515494014869 -0.06441153733044337
-0.04231490565942006 -0.11463360724388581 -0.07015607762165217
-0.03833727834842139 -0.12007589443059201 -0.07523798705746773
-0.03575260061308779 -0.12584617504263743 -0.07933702419022076
-0.03476260683400254 -0.13173894420441826 -0.08215440891076786
-0.035391975743202145 -0.13744770345641982 -0.0834661297142773
-0.03748268624888561 -0.14261507162412307 -0.08316097579820579
-0.04072327295079845 -0.1468836773791813 -0.08125458642966785
-0.04470409262581517 -0.1499650890778736 -0.0778818368492455
-0.04899733851536322 -0.15168948040199212 -0.07326828837637354
-0.053235006781702336 -0.15203267707680176 -0.0676915560004753
-0.05716040777462743 -0.1511174197467572 -0.06143913056799891
-0.06064128691100294 -0.14918017959886343 -0.05476726843807516
-0.06364631565643117 -0.14652333048494098 -0.04786945549745167
-0.06619880508576573 -0.14344855674684948 -0.04086035547225493
-0.06833254605161831 -0.14020597775549554 -0.03377848535296316
-0.07005956092142182 -0.13697541994713702 -0.02660576342406606
-0.07135384963016925 -0.13387015732828875 -0.01929888376417748
-0.07215126569039983 -0.13096881782316322 -0.011822081717494323
-0.07236138531021805 -0.12836036818980967 -0.004178022619592867
-0.07188968077841536 -0.1261549168234432 0.0035704960062875497
-0.0706632285964466 -0.12450944930396607 0.011295365433710527
-0.06865721866706084 -0.12361582922784495 0.01881455167399815
-0.06591287394507933 -0.12368821132759601 0.02591960582073085
-0.06254490188727053 -0.1249250548424984 0.03241178636726353
-0.05873466608414169 -0.1274744897655582 0.038138355677266284
-0.05471248248571409 -0.13139746192749305 0.043016495909001896
-0.05072674152401974 -0.13665050701330067 0.04704391347720445
-0.04700872153548744 -0.14309597578979988 0.05029433703714706
-0.04373667959007273 -0.15052101879354168 0.05289964652583249
-0.04101052865061897 -0.15867715482882755 0.05502563424142815
-0.038843391939523415 -0.16731460175029883 0.05684560976785018
-0.03717027456140536 -0.17621350616272488 0.0585149123161624
-0.03586966860669604 -0.18520378058486986 0.060150440379629425
-0.03478885815893522 -0.19417424350689663 0.06181769149649506
-0.03376678547304097 -0.20306707198340612 0.06352603320914534
-0.03264827226774835 -0.21186624814632557 0.06523463396005023
-0.03129098275597626 -0.2205722218198897 0.06686627820897836
-0.029568162029254958 -0.22918944536052654 0.06832928654011416
-0.027368209186318947 -0.2376987258649336 0.06954367507731665
-0.024598062592405157 -0.24605101909241234 0.07046852144729368
-0.021189603292659842 -0.25416053512937425 0.07112474865189414
-0.017108833460533327 -0.2619059950418705 0.07160839632291692
-0.012363264505400555 -0.26914120883236997 0.07208868219313318
-0.007003894661445513 -0.2757092599434046 0.07278679159810547
-0.0011163595015696098 -0.2814544903461796 0.07393790625771804
0.005194274255053894 -0.28624086303467605 0.07574297863544842
0.011822407934366397 -0.289962956878933 0.07832287679881847
0.01867706687919154 -0.2925598162903726 0.08168896661414456
0.02568917106405438 -0.2940230651470661 0.08574168267172036
0.03281021344061897 -0.29439306231508566 0.09029699703713027
0.04000492369652543 -0.29375993468014044 0.09513197632938913
0.047240815711436894 -0.29225816641761343 0.10003537872126475
0.054481175483944703 -0.29004879116592325 0.10484777915763521
0.06168145036858314 -0.28731838190357495 0.10948250002190699
0.06879126191147934 -0.28424803597036624 0.11392777877604128
0.0757584860129112 -0.28100023849586697 0.11823126457406027
0.08253501050463133 -0.2776930680059958 0.1224770135135275
0.0890825933506565 -0.2743855406077708 0.12675645694692192
0.09538148999092257 -0.2710732307122687 0.13114796600818876
0.1014406632510359 -0.2677075859816902 0.13569823045112378
0.10730952950421078 -0.26422756341837356 0.14041759112556454
0.11308406429159311 -0.26061064067630524 0.14527374029995963
0.1189010475237254 -0.2568994580991813 0.15020763929495926
0.1249164667971405 -0.2532267199087853 0.15514405073894535
0.13126931504368322 -0.24979569460760184 0.16000753769889642
0.13803526753073375 -0.24685020680740077 0.16474384838266062
0.14519199027366786 -0.24463971228156353 0.16933512606940102
0.1525924805833801 -0.24338339495121694 0.17380929755913177
0.15997305210595072 -0.24324526896344528 0.1782312041734696
0.16697483392642085 -0.24431991905647238 0.18269082431227607
0.17320688943636287 -0.24662982146954882 0.18727066219226648
0.17830453739991467 -0.2501299392596049 0.19202120619941096
0.18199503216754778 -0.2547177408659066 0.19693689747650445
0.18414408144240402 -0.2602469028678049 0.20196090381031756
0.1847727880274069 -0.2665494275426269 0.20699237621974204
0.18404869489189296 -0.27345290324931126 0.21191420593577198
0.18225559863940025 -0.2807981929467231 0.2166225270653616
0.17974172224471344 -0.2884490250468995 0.2210439009547969
0.17686731309753673 -0.2962996150393191 0.22514517685505403
0.17395737018387633 -0.30427623762938627 0.22892758410321598
0.17126910538472048 -0.31233535504471077 0.2324119759815684
0.16897442189927522 -0.32046262226733374 0.23562296037271308
0.1671594023566497 -0.32865726660421274 0.23857364495906325
0.16583963755618122 -0.3369341877389762 0.24126569248197602
0.16497343033384484 -0.3453067828097558 0.2436944869856761
0.16448465122456252 -0.35378722014806985 0.2458535666144809
0.1642751717232618 -0.36237773213030233 0.24775496876974687
0.16424334783706201 -0.3710660414148818 0.24943263179798567
0.16428447538224175 -0.3798307780215615 0.2509483696497261
0.16430554652086546 -0.3886424218455722 0.25238555052173767
0.16422198063437382 -0.3974639309467348 0.2538434212020624
0.16396348816532313 -0.4062546495752279 0.25543352531710933
0.16346500852484588 -0.41497638914823554 0.25726702095750725
0.1626728777238668 -0.4235879556071446 0.2594550817395683
0.1615308192727925 -0.4320510675943513 0.26210899571747204
0.15998980192970327 -0.44032598858391253 0.2653400437698581
LINES 1 120
119 0 1 2 3 4 5 6 7 8 9 10 11 12 13 14 15 16 17 18 19 20 21 22 23 24 25 26 27 28 29 30 31 32 33 34 35 36 37 38 39 40 41 42 43 44 45 46 47 48 49 50 51 52 53 54 55 56 57 58 59 60 61 62 63 64 65 66 67 68 69 70 71 72 73 74 75 76 77 78 79 80 81 82 83 84 85 86 87 88 89 90 91 92 93 94 95 96 97 98 99 100 101 102 103 104 105 106 107 108 109 110 111 112 113 114 115 116 117 118
POINT_DATA 119
SCALARS isSiphon int
LOOKUP_TABLE default
0
0
0
0
0
0
0
0
0
0
0
0
0
0
0
1
1
1
1
1
1
1
1
1
1
1
1
1
1
1
1
1
1
1
1
1
0
0
0
0
0
0
0
0
0
0
0
0
0
0
0
0
0
0
0
0
0
0
0
0
0
0
0
0
0
0
0
0
0
0
0
0
0
0
0
0
0
0
0
0
0
0
0
0
0
0
0
0
0
0
0
0
0
0
0
0
0
0
0
0
0
0
0
0
0
0
0
0
0
0
0
0
0
0
0
0
0
0
0
