# vtk DataFile Version 2.0
Vessel Segment
ASCII
DATASET POLYDATA
POINTS 119 float
-0.007356779409909053 -0.004952210213076974 0.005624791072725876
-0.013538852259606887 -0.010536263468145164 0.010054761842271633
-0.018763456510949968 -0.016574310521282463 0.01316458813682783
-0.023244826622849962 -0.02289041783194613 0.014838057583461111
-0.027185838064569194 -0.029316171999531394 0.01498585751804009
-0.030762551970725662 -0.035699099588376054 0.013571459816361042
-0.03410663591187193 -0.04191133839855668 0.010635436192170172
-0.03728988504207001 -0.04785625136253358 0.0063091427836049025
-0.04031865164390624 -0.05347013415023533 0.0008111627247304905
-0.04313883579173979 -0.05871898619939582 -0.005578258815054841
-0.045648047054544685 -0.06359341296854425 -0.012555505137322922
-0.04771292029434742 -0.06810370656185721 -0.019835080848099537
-0.04919113585370471 -0.07227555845654131 -0.02718664955060934
-0.04995781465962641 -0.07614697839995871 -0.03445829786369604
-0.04992855067761122 -0.07976672555397583 -0.04158747842324895
-0.049076343634467355 -0.08319580533928359 -0.04859145632447864
-0.04743832070275316 -0.08651347890876163 -0.05554081986641513
-0.0451150938251658 -0.08982871722951428 -0.06251178427168398
-0.04226025031755625 -0.0932890684624224 -0.06953166765445672
-0.03906269932923351 -0.09707161417285426 -0.0765299575296656
-0.03572862887173201 -0.10135305949245493 -0.08330889841525191
-0.03246788952596043 -0.10626422503945408 -0.08954665548108066
-0.0294858384439686 -0.11184390766283411 -0.09483128393132671
-0.026975471865982956 -0.11800966735750379 -0.09872258772075043
-0.025102453278558156 -0.12454993421239993 -0.10082992644168677
-0.023985499779987474 -0.13114054896046357 -0.10088929973719714
-0.023679855629294845 -0.13738853983120627 -0.09881971705900872
-0.024169097206762663 -0.14288205476176105 -0.09474747947768372
-0.025369749799447 -0.14725040935170883 -0.08898361449993458
-0.027145827493243423 -0.15020468603117293 -0.08196741522363901
-0.029324923310662693 -0.15156656585782372 -0.07418988919318191
-0.03171594456191957 -0.15128007530654833 -0.06611534461533629
-0.0341247023239481 -0.14941634947319266 -0.058115595335239884
-0.03636511946849577 -0.14614734382992525 -0.050431941960938746
-0.038270444484189585 -0.1417339929760877 -0.043162960702193325
-0.03970627469474116 -0.13649497890126328 -0.036281080313653125
-0.040584594216334105 -0.13078811417140535 -0.029668289849171928
-0.04087437051308826 -0.12498936801758269 -0.023162819826024375
-0.040608425755382475 -0.1194744089090678 -0.01660885705107381
-0.03988409119046408 -0.11458710042263369 -0.009897807085743641
-0.03885750328083579 -0.11061303542648346 -0.0029922503251538775
-0.037731282896102614 -0.10776482999178785 0.004071141886592729
-0.03673441702050498 -0.10616763282200463 0.011198074191141
-0.03609546333264173 -0.10586454035508162 0.018261494439597646
-0.036008230813620805 -0.10683353799818476 0.025125349808868692
-0.03659290319836664 -0.10900649948819192 0.031659391414466956
-0.037866683536044374 -0.11228731981086512 0.037743525097342065
-0.039738122146412536 -0.11656115994355093 0.04326416112883443
-0.04203173610680797 -0.12169335821123498 0.048104728827143575
-0.044537256392849306 -0.12752507424050544 0.052138011607534444
-0.04706606329815441 -0.1338892277547173 0.05523031250308608
-0.04949044036407286 -0.1406269531738436 0.05726321281963433
-0.05175515519808804 -0.14760756327951718 0.05817445103019969
-0.05386042468131966 -0.1547471184438345 0.05800010133150549
-0.055829225983910914 -0.16201042207141508 0.056896403934779655
-0.057676900717746976 -0.1694085779550097 0.055121076474051595
-0.059391738243544295 -0.17697955261598447 0.05298656590963875
-0.06093188359419097 -0.18477052558991627 0.050790841515648666
-0.06223346064899258 -0.19282324912305243 0.04876189622173158
-0.06322636862283447 -0.20116198536250593 0.04702994971514559
-0.063849648540249 -0.2097877521436801 0.04563418461523249
-0.06406213733898335 -0.21868200842148067 0.04455399096307706
-0.06384419348955987 -0.22779919427049625 0.04374744973275186
-0.06318890167331939 -0.2370602516136144 0.043185908548494904
-0.06208442472470709 -0.24634891649026583 0.042869975497813975
-0.0604966196012036 -0.25550266872426275 0.04283282963000173
-0.058358378943987314 -0.26431730797445807 0.04312795136824994
-0.05557106554139847 -0.27255612267197205 0.04381454265119119
-0.052021586640142566 -0.2799828876097135 0.04494429990778642
-0.047611790263728894 -0.28639647471126733 0.04655182250470696
-0.04229297314455588 -0.2916680951265194 0.048651621159124886
-0.03609470477468696 -0.2957729950370277 0.051238723271166436
-0.029135991999978187 -0.2987946068374627 0.05429478235441657
-0.021616477880498218 -0.3009042654608983 0.05779386703558178
-0.013788046024524974 -0.30232289252085426 0.06171004409361246
-0.005914459955256265 -0.3032676793544878 0.06601958708068074
0.0017689031948726894 -0.3039049966148183 0.07069899523958985
0.009089387593087682 -0.30431800070829157 0.07571755901906496
0.01595948623441303 -0.30449578362882707 0.08102674675012371
0.0223835378575508 -0.30435481823519805 0.08655226447852678
0.028446141094497543 -0.3037654993532302 0.0921947517005731
0.03428646113242816 -0.3026081527602339 0.09784211582058741
0.04006489555983163 -0.3008073589266576 0.10338942050297044
0.04593471948572392 -0.29836787183465013 0.10875864762199584
0.0520210987959008 -0.2953848833085864 0.11391048867195318
0.05840764582615495 -0.29204205767942937 0.11884371204508677
0.06512555013565519 -0.2885813075428648 0.12359691500882551
0.07214459775697736 -0.28528111384922883 0.1282412717314498
0.0793698569931359 -0.28242022041982145 0.13286867511593625
0.08664835318169974 -0.2802556608468182 0.13758397493999416
0.09378615040037738 -0.27900574571321857 0.14248862894186048
0.10057570563819647 -0.27883774877483014 0.14765614459907506
0.10683085690559824 -0.27985072635721897 0.15311879772081352
0.11241806022323417 -0.2820736432147379 0.1588518857199764
0.11727064592001743 -0.2854695444184748 0.16476813493285267
0.12140436579687314 -0.28994075132531033 0.17073436564138095
0.12490343446026957 -0.29535245958430817 0.1765919633839946
0.12789282007808533 -0.3015481184621777 0.1821888037402485
0.13050737212277672 -0.308361757334936 0.18741299819934032
0.1328510748036134 -0.31563680253133825 0.19221367763517602
0.13498169277415267 -0.3232327202468888 0.19660207646050856
0.1369066506132134 -0.3310398765837508 0.20064516437277044
0.13858925603807457 -0.338979548108996 0.204431101989005
0.13997052652481135 -0.3470043605053023 0.20804799690938328
0.14099934686095003 -0.35509722194203613 0.21155466272593665
0.14163750418047213 -0.36325923705976687 0.21496658223453086
0.14188034999915453 -0.37150191128840454 0.21824875479477385
0.14173752946790072 -0.37983626990764136 0.22132505256370505
0.14122279878066973 -0.3882592720115484 0.22409422024604897
0.14034283636034373 -0.3967546148558476 0.22645065331757241
0.1390799083794186 -0.40528889858238026 0.22830438041351062
0.1373972965630666 -0.4138124637744753 0.22959196062786627
0.13524191077124315 -0.42227104806758137 0.23028576895632127
0.13256438732549877 -0.4306109926986163 0.2303973410035311
0.12932495697166044 -0.4387847171841869 0.22996763544881244
0.125500503301692 -0.4467486231352171 0.2290664771049553
0.12107621422236733 -0.4544712245305338 0.22777750863099855
0.11604841701939332 -0.46191698268907444 0.2261915432462656
0.11041415683419738 -0.4690577265041324 0.22440450658589098
LINES 1 120
119 0 1 2 3 4 5 6 7 8 9 10 11 12 13 14 15 16 17 18 19 20 21 22 23 24 25 26 27 28 29 30 31 32 33 34 35 36 37 38 39 40 41 42 43 44 45 46 47 48 49 50 51 52 53 54 55 56 57 58 59 60 61 62 63 64 65 66 67 68 69 70 71 72 73 74 75 76 77 78 79 80 81 82 83 84 85 86 87 88 89 90 91 92 93 94 95 96 97 98 99 100 101 102 103 104 105 106 107 108 109 110 111 112 113 114 115 116 117 118
POINT_DATA 119
SCALARS isSiphon int
LOOKUP_TABLE default
0
0
0
0
0
0
0
0
0
0
0
0
0
0
0
0
0
0
0
0
0
0
0
0
0
1
1
1
1
1
1
1
1
1
1
1
1
1
1
1
1
1
1
1
1
1
0
0
0
0
0
0
0
0
0
0
0
0
0
0
0
0
0
0
0
0
0
0
0
0
0
0
0
0
0
0
0
0
0
0
0
0
0
0
0
0
0
0
0
0
0
0
0
0
0
0
0
0
0
0
0
0
0
0
0
0
0
0
0
0
0
0
0
0
0
0
0
0
0
