# vtk DataFile Version 2.0
Vessel Segment
ASCII
DATASET POLYDATA
POINTS 119 float
-0.004947028721316523 -0.006461932925671387 0.002729455079924171
-0.009750076306574913 -0.013464546271875958 0.006281994889039204
-0.014387489467172516 -0.02079830036026652 0.010275058116845464
-0.018837388907321388 -0.028255528145646108 0.014326954720105546
-0.023076844935632484 -0.0356366036994251 0.01806108071189776
-0.027080848888229165 -0.04276210303942227 0.02111550275267855
-0.03082209395144637 -0.049491803732637014 0.023162508468025686
-0.0342726726582824 -0.055747314671400865 0.023938942997868452
-0.03741187713298717 -0.061530604079493276 0.023281426956005585
-0.04023437918615282 -0.06693063543263586 0.021159302630690182
-0.04275425652073469 -0.07211252512853701 0.01768958941632495
-0.044996719460095494 -0.0772865134515033 0.013119604845146458
-0.046980403025312055 -0.08266522301201133 0.0077865602436068765
-0.04869654308189904 -0.08841834376633806 0.0020576934487336047
-0.05009663364543083 -0.09463375973274347 -0.003738183519800796
-0.05109275253271569 -0.10129727431523942 -0.009362998549204382
-0.05157174864211482 -0.10829173329304673 -0.014698414478895262
-0.051414867901360684 -0.1154165743338533 -0.019749561477156053
-0.05051781229288894 -0.12242488286343738 -0.024624152986460465
-0.04880808967557624 -0.12907432348130896 -0.029491805064108745
-0.04625824530821082 -0.13517866678052412 -0.034530111888645056
-0.0428958442114663 -0.14065626692973876 -0.039866822527401126
-0.03881065127886664 -0.14555934399994977 -0.0455300672665914
-0.03415686432685136 -0.15006723877761477 -0.05141787842711827
-0.02915192193977601 -0.15445076102043673 -0.05729191925670793
-0.024067316765925762 -0.15900089493791209 -0.06280122080953227
-0.019213630912466667 -0.1639422025373243 -0.06752857168080838
-0.01491699229490817 -0.16936315984483355 -0.07105275160749754
-0.011490514487431438 -0.1751674235225282 -0.07301250243371249
-0.009197849349079799 -0.18108357576900846 -0.0731635320152411
-0.008213878944060839 -0.18670530607585611 -0.07141839682904123
-0.008588367061649336 -0.1915724552903812 -0.0678617196780579
-0.01022078100378743 -0.1952429828395685 -0.0627375089212009
-0.012860090529123668 -0.19736185962041267 -0.056406070036709555
-0.01613295550196323 -0.19770939164462487 -0.049281592870772904
-0.019595652598977067 -0.19622715752488443 -0.041766181328143775
-0.022801701867708208 -0.1930307899075857 -0.03419182553797158
-0.025369884972327773 -0.18840241516735853 -0.02678504079401761
-0.02703843265229098 -0.18277078830078514 -0.019657869658377278
-0.027699081107079245 -0.17668214013465636 -0.012823878639152061
-0.02739967397396988 -0.17074834543578662 -0.0062315036981892636
-0.02631571591434929 -0.1655970159246157 0.00019439571322109605
-0.0246996961513033 -0.1617972600186317 0.006514360222823927
-0.022821163545958832 -0.159795445316475 0.012746213600686892
-0.020908853306950803 -0.1598535784874951 0.01885582380528352
-0.01911279588612697 -0.16202233458992446 0.024766938208438456
-0.01749014321882632 -0.16614335679688508 0.030384202120210996
-0.016015551142912005 -0.1718917184623577 0.03561746499532507
-0.014612681901423254 -0.17884597103511374 0.04040087009083473
-0.013193102053550402 -0.18656737678792537 0.044699616677842106
-0.011689194981483894 -0.19467692749303822 0.04850724533813948
-0.01007456472656883 -0.20289860043532681 0.05183880203503785
-0.008362753041510422 -0.21107569657740194 0.054724091734713896
-0.006590449291117731 -0.21915203166316952 0.05720425509167607
-0.004793243319940754 -0.22714380627834468 0.05933276912742642
-0.0029862069397264108 -0.23509227898063115 0.061177499202336796
-0.0011561697441021086 -0.24303570799663818 0.06282126897297345
0.0007360080816358494 -0.2509887785478847 0.06436132801425
0.002750244247890845 -0.2589302972102215 0.06590471508050026
0.004963336640726414 -0.2668083687575912 0.0675605292633467
0.007466583893640728 -0.27454870748209304 0.06942572088055514
0.010361364794933284 -0.28206879935888457 0.07156814957149678
0.013750177599939172 -0.28928734731639316 0.07400839021593607
0.017723527537688966 -0.29613584294097944 0.07671329141082145
0.02234726589846146 -0.3025592254134806 0.07960546603328843
0.02765287205577446 -0.30850534209425035 0.08258860460168936
0.033632304353728854 -0.31392294819578187 0.08557819923588283
0.04023845291693682 -0.3187539568790666 0.0885256759086603
0.04738971029979356 -0.32293374116706874 0.09142734899074854
0.05497874328559539 -0.3263978435778602 0.09431984489898729
0.06288169438539642 -0.329090290328504 0.09726450104061275
0.0709694476991323 -0.33097267789290563 0.10032848681981298
0.07911927221535756 -0.3320255260017931 0.10356853376388689
0.08722431213452203 -0.33225151791894625 0.10701795815860123
0.09520160188593649 -0.331681985148935 0.11068154334318064
0.10299763236624626 -0.33037557621886465 0.11453682893241786
0.1105892647536001 -0.32841908349845905 0.11853949942906296
0.11798288815734335 -0.32591902927453165 0.12263334392648792
0.12521282685987276 -0.32300166185321216 0.12676093120557816
0.13233096472817063 -0.3197919977583703 0.1308691577374537
0.1394026462081016 -0.3164097965910949 0.1349166362521551
0.14649843703202117 -0.31295416056221753 0.13887796326022028
0.15367936497634843 -0.309501533645047 0.14274547209765942
0.16099443062328445 -0.3061116584257672 0.14653647475289922
0.168465577349135 -0.3028405435531428 0.15028409063242293
0.17608561081293764 -0.29975870959900086 0.15404405880924685
0.1838106850556453 -0.29697183031400864 0.15788375497738882
0.19156045426953272 -0.2946294076334071 0.16187848679078948
0.1992152676005394 -0.292927418851031 0.16608948887764768
0.20662341469919596 -0.29207944162603144 0.17055104382565944
0.21360300502933782 -0.2922886005946475 0.17525159839571985
0.21995657207306832 -0.29371004208357054 0.18012314243113134
0.22548348471846796 -0.29641587802049746 0.1850392513395988
0.22999314041507377 -0.30039024993030433 0.1898326970300227
0.2333317024505496 -0.30554043199043335 0.19431879651526124
0.23540567780967744 -0.31171311125409235 0.19833467942598493
0.23620282107371715 -0.3187231217191072 0.20176634370298357
0.2358061958214865 -0.3263759073201861 0.20457497476201006
0.23438993247177015 -0.3344848366514128 0.20680032354511327
0.23218781289016155 -0.3428833087229259 0.2085490711165984
0.22945412006327534 -0.3514322936985128 0.20996995192109993
0.22642155663780558 -0.3600194638541079 0.21121659454786457
0.22326901372854813 -0.3685590492505832 0.21241480025852175
0.22010949422378964 -0.37699041062413124 0.21363019334442615
0.21699326828685406 -0.3852700309099298 0.2148580144949642
0.21392672558455902 -0.39337613590898285 0.21601886792441768
0.21089625709207052 -0.4013017886850935 0.21698920385122752
0.2078897669459197 -0.409057544499785 0.2176369805069212
0.20491414093803087 -0.4166661671059862 0.21787473831471238
0.20199668061899423 -0.4241570806055498 0.21771012222269692
0.19918779571557108 -0.43156478194048914 0.21726698004547493
0.19654308016293384 -0.43891714874382187 0.21679033019491134
0.19412252423727488 -0.4462403771819728 0.21660833273214652
0.19197431645863186 -0.45355423250373617 0.2170879281902444
0.19013733946649952 -0.4608728087815706 0.21859453586275635
0.18863616238414926 -0.4682099908609755 0.22146844026874485
0.18748383202125055 -0.4755745783339866 0.22602747287272698
0.186693814969956 -0.4829802531741393 0.23256996903347998
0.18627367874016584 -0.4904335717082975 0.24138913745239018
LINES 1 120
119 0 1 2 3 4 5 6 7 8 9 10 11 12 13 14 15 16 17 18 19 20 21 22 23 24 25 26 27 28 29 30 31 32 33 34 35 36 37 38 39 40 41 42 43 44 45 46 47 48 49 50 51 52 53 54 55 56 57 58 59 60 61 62 63 64 65 66 67 68 69 70 71 72 73 74 75 76 77 78 79 80 81 82 83 84 85 86 87 88 89 90 91 92 93 94 95 96 97 98 99 100 101 102 103 104 105 106 107 108 109 110 111 112 113 114 115 116 117 118
POINT_DATA 119
SCALARS isSiphon int
LOOKUP_TABLE default
0
0
0
0
0
0
0
0
0
0
0
0
0
0
0
0
0
0
0
0
0
0
0
0
0
1
1
1
1
1
1
1
1
1
1
1
1
1
1
1
1
1
0
0
0
0
0
0
0
0
0
0
0
0
0
0
0
0
0
0
0
0
0
0
0
0
0
0
0
0
0
0
0
0
0
0
0
0
0
0
0
0
0
0
0
0
0
0
0
0
0
0
0
0
0
0
0
0
0
0
0
0
0
0
0
0
0
0
0
0
0
0
0
0
0
0
0
0
0
