# vtk DataFile Version 2.0
Vessel Segment
ASCII
DATASET POLYDATA
POINTS 119 float
-0.006151204534070403 -0.008646015304036293 -0.00116368483380166
-0.011415538240397302 -0.016444751741859838 -1.1407634152662e-05
-0.015896211538813262 -0.023473898322355684 0.00279117777018673
-0.019697272916701876 -0.029814890660613106 0.006575675779805159
-0.0229252931687313 -0.03555797377515833 0.010673056451556107
-0.02568740348859204 -0.0408088639784714 0.014431560197933029
-0.028085358949599258 -0.04569068448266826 0.01726278415926018
-0.03020320006147134 -0.05034264401401164 0.018709674932771238
-0.03209320868028109 -0.05491596574106719 0.018514659000200797
-0.03376410603325658 -0.05956768259333385 0.01665934280036068
-0.03517711844188151 -0.06444793686154865 0.01334349787271003
-0.03624809049986191 -0.06967857809558915 0.008921661311438062
-0.03686017890765556 -0.07532792025768811 0.003811848950412064
-0.036891258867917276 -0.08139660878303108 -0.0015996327350232733
-0.03624488601465964 -0.08781789661988681 -0.0070244105147292705
-0.03487457215662433 -0.09447202418786743 -0.012299967007254145
-0.03278922741597462 -0.1012090003974019 -0.017386236383093237
-0.030040446741756217 -0.10787521323445257 -0.02234110376431313
-0.026698975106050894 -0.11433851485687661 -0.02727998131477695
-0.02283132250941688 -0.12051126736165478 -0.032328959824324516
-0.01848564275127882 -0.12636375048068318 -0.03757888568504205
-0.013688995402530565 -0.1319323887941077 -0.04304716236414703
-0.008461759436094585 -0.1373094155273666 -0.04865381644011691
-0.0028436715594859245 -0.14262162901989092 -0.054215770338514324
0.003072927611770106 -0.14800586458863063 -0.05945861788804104
0.009115970507803798 -0.1535677637609746 -0.06404501939595306
0.01502410866314764 -0.1593559989719396 -0.06761445195048348
0.02046183760475529 -0.1653298232419703 -0.06983102214854378
0.02505641196955008 -0.1713564395899955 -0.07043432281764811
0.028450719742018547 -0.1772124938462269 -0.06928897739660674
0.030354970473362178 -0.18261343901434351 -0.06641877663186699
0.030588663107137943 -0.18725720630799275 -0.06201897706857894
0.029105729360668877 -0.19086625566644538 -0.05643674423408555
0.026003999885741494 -0.19322229022370618 -0.05011607622691309
0.021525616584455273 -0.19418002081400962 -0.04352529251450236
0.016040732408908447 -0.19366408772049945 -0.0370839296111255
0.01001385281308683 -0.19165501469513904 -0.031108081148661475
0.003952281205764679 -0.18816955353671858 -0.025785557930031233
-0.0016569751400393668 -0.18326000630321113 -0.021179828409107836
-0.00640920662858017 -0.17701874655152713 -0.017252501024041512
-0.010028628799931182 -0.16960672786570177 -0.01388760015026726
-0.012391230372688954 -0.16127892097194732 -0.010911343471229323
-0.013520600204770562 -0.15240165837021 -0.00810944862993264
-0.013565681829981302 -0.1434626993894698 -0.005247340996000386
-0.012763259760263997 -0.13504205752076273 -0.0020984617888083344
-0.01139100635230638 -0.12776716437297225 0.0015190918808790602
-0.00971581481131924 -0.12223484442485578 0.005703442157310922
-0.007947602791670992 -0.11892611495111174 0.010437768842750453
-0.0062084616519460616 -0.1181252681968788 0.015582029075995147
-0.004526981815182104 -0.11987329641413293 0.020891538619065488
-0.002856911181570515 -0.12395380622767 0.026057105200170617
-0.0011171190258183646 -0.1299405439080357 0.0307511157210906
0.0007603283993512305 -0.13727932162160741 0.03466428510084688
0.0027886740724400016 -0.14538720051110174 0.03752951164258903
0.004903006390796879 -0.15375472626805803 0.03914059245375975
0.006961889474272309 -0.16200976743497078 0.039377099959769374
0.008771383133406899 -0.16995580318448622 0.038238935082343224
0.01012311358767413 -0.1775653166141021 0.03587740815736439
0.0108364026672663 -0.18493666619842955 0.032602328745986446
0.010795501296819 -0.19223742802341304 0.028855404926448995
0.009976278413668611 -0.19963934968279895 0.025152661045538937
0.00845950564675887 -0.20726221186316357 0.022006896481742852
0.006431051806832938 -0.21514023107872385 0.01985345469049938
0.004168499146541594 -0.22320599061811805 0.018995847540873797
0.002013134468620142 -0.2313026118977143 0.01958190346226575
0.0003281131117225103 -0.23921030298053816 0.021611428511647154
-0.0005512072829097829 -0.24668574036661473 0.024964926737352604
-0.0003657889397939608 -0.2535068181850099 0.029440890165589394
0.001031971435502608 -0.2595109568148479 0.0347933971717031
0.0036660775196342577 -0.2646134830110503 0.040764670878965834
0.007446974329008181 -0.26881505823919327 0.04711398185711363
0.012199658774073911 -0.2721797463632274 0.053641352180714516
0.017702558068180087 -0.2748120999809949 0.06020110795218763
0.02372696066070236 -0.2768267528531112 0.0667025437391484
0.03006919549802863 -0.2783301135782774 0.07309975464719867
0.036570160370145245 -0.27940729787276547 0.0793729142086391
0.04312384383671991 -0.28011539432533694 0.08551049070357879
0.04967906676181514 -0.28047638887269594 0.09149195998797355
0.056234953344597154 -0.2804844252839417 0.0972796951726033
0.06282999829139206 -0.2801236383279216 0.10282219909786094
0.06952621979698519 -0.27938427473218447 0.10806937143844729
0.07638890298057055 -0.2782913558809645 0.11299158824731091
0.08346723958452278 -0.27692989206813123 0.11760392318564862
0.09077749752082649 -0.275441864088994 0.12196971657527435
0.09829279821065347 -0.27402211084467376 0.1261975912755962
0.10594219580579206 -0.2728839932450425 0.13042376436105205
0.11361364316312722 -0.27223033934690516 0.13478372532019217
0.12116080778207605 -0.2722304671549073 0.13939499120564747
0.12842255954555715 -0.27300613566363696 0.1443341293574791
0.13523065099029266 -0.2746290051335577 0.14963160582355645
0.14142898926025366 -0.2771212735265593 0.1552766080120247
0.14688574135752266 -0.280460306680783 0.16121592742903224
0.15150118436747695 -0.28459049751763393 0.16736729700001174
0.1552219113581998 -0.2894318590234191 0.1736269072141982
0.15803158225156608 -0.29489141620673787 0.179877793181398
0.159946538310196 -0.30087342600598965 0.18599848565567628
0.1609996762405837 -0.30728193845817686 0.19188246710513757
0.16123330513103565 -0.3140324225010222 0.19744205272407875
0.16069705964693423 -0.32105042082510477 0.20261726374530498
0.15946075402929955 -0.3282762047906867 0.20737960507229458
0.15762199644963923 -0.33566772318898236 0.2117256552535363
0.15530883945135968 -0.3431959407050564 0.2156702284585064
0.1526625822635793 -0.3508413129215547 0.21922937143854895
0.1498238886033593 -0.3585869031414482 0.22240651794128857
0.14690743676367576 -0.36641173248051323 0.22518314209620874
0.1439899126979673 -0.37429070264934106 0.2275033532718286
0.14111403507775955 -0.38219684362990114 0.22927904768778462
0.13829809789549422 -0.39010444286509155 0.23039562070903236
0.13554361762585507 -0.39799487744585305 0.23074048814000336
0.1328381254521991 -0.40584703935696737 0.23022181760753394
0.1301600700822624 -0.41364222185892285 0.22880006989373042
0.12748130658337978 -0.4213597193201925 0.2264967475380722
0.1247846694127453 -0.4289842577065292 0.2233998855787598
0.12207434566913998 -0.43651285140145224 0.2196496162570516
0.11938898536654632 -0.44396130261767375 0.21543243868289946
0.11679529110415719 -0.45136126308856805 0.21095941515321143
0.11438227560632663 -0.45875710482904386 0.20645656101727117
0.11225108622598648 -0.4661987369808289 0.20215667382733146
0.1105061588029024 -0.4737386256875115 0.19829301151455633
LINES 1 120
119 0 1 2 3 4 5 6 7 8 9 10 11 12 13 14 15 16 17 18 19 20 21 22 23 24 25 26 27 28 29 30 31 32 33 34 35 36 37 38 39 40 41 42 43 44 45 46 47 48 49 50 51 52 53 54 55 56 57 58 59 60 61 62 63 64 65 66 67 68 69 70 71 72 73 74 75 76 77 78 79 80 81 82 83 84 85 86 87 88 89 90 91 92 93 94 95 96 97 98 99 100 101 102 103 104 105 106 107 108 109 110 111 112 113 114 115 116 117 118
POINT_DATA 119
SCALARS isSiphon int
LOOKUP_TABLE default
0
0
0
0
0
0
0
0
0
0
0
0
0
0
0
0
0
0
0
0
0
0
0
0
0
0
0
0
1
1
1
1
1
1
1
1
1
1
1
1
1
1
1
1
1
1
1
1
1
1
0
0
0
0
0
0
0
0
0
0
0
0
0
0
0
0
0
0
0
0
0
0
0
0
0
0
0
0
0
0
0
0
0
0
0
0
0
0
0
0
0
0
0
0
0
0
0
0
0
0
0
0
0
0
0
0
0
0
0
0
0
0
0
0
0
0
0
0
0
