# vtk DataFile Version 2.0
Vessel Segment
ASCII
DATASET POLYDATA
POINTS 119 float
-0.0014743940226744027 -0.009758821277106935 -0.006086766054693218
-0.003911849956342881 -0.01871126764527881 -0.00911893144340127
-0.007100381771364918 -0.026875216630128134 -0.009828516731364064
-0.010827018608300772 -0.03427233037162884 -0.00894828711445872
-0.0148767417706714 -0.040934642363967974 -0.007207962174182139
-0.019034559909783654 -0.04691412580962362 -0.005317355878429484
-0.02309094430577981 -0.05229306944893716 -0.003927495827745847
-0.02685213525334153 -0.057189727256995164 -0.0035724605057396185
-0.030151900306072944 -0.06175751375012744 -0.004606436285731089
-0.03285804828277921 -0.06617336343868516 -0.007165544468441153
-0.03487275714916511 -0.07061409610531892 -0.011167661986025437
-0.03612740713097827 -0.07522535386699414 -0.016353599693351362
-0.03657496661064148 -0.08009392623970443 -0.022359833145490806
-0.03618303475362463 -0.08523481855295761 -0.02880068039586815
-0.034932559876406526 -0.09059724073436584 -0.035342780670369424
-0.03282123024194003 -0.09608511374659416 -0.04175153167325885
-0.02986757835793485 -0.10158899605071908 -0.0479088228875218
-0.026115394255178666 -0.10701853131067803 -0.05379887469129078
-0.021637114449705837 -0.11232679619113138 -0.05947099491336505
-0.016537807863529562 -0.11752216571759855 -0.0649897515202633
-0.010955713721586732 -0.12264926190211278 -0.07038567744997942
-0.005059771836916008 -0.12776328829161335 -0.07561468155680613
0.000955450562760884 -0.1328843111138077 -0.08053535156141085
0.006877593180822838 -0.13797639515743582 -0.08490825173272702
0.012484584561072484 -0.14293357839048265 -0.08841708863115955
0.017555579569391633 -0.14760504403184732 -0.090714406887927
0.021887234526592806 -0.1518304904550241 -0.09148408339709753
0.025313484864236558 -0.15547662495664036 -0.09051145122899301
0.02772327247573676 -0.15847271029268667 -0.08774140043088728
0.02906705152775345 -0.16081936490658283 -0.08330152428242872
0.029349175320191614 -0.16257626603120126 -0.07749151105299205
0.028605970637426936 -0.16383532059838787 -0.07073024938159833
0.026880636807461368 -0.1646856576384553 -0.06348801705958333
0.024207435353381216 -0.16518428817850012 -0.05621734069829373
0.020614452466756444 -0.16534486434894333 -0.04929488682670004
0.0161437957120593 -0.16512214730291552 -0.04298017266488775
0.010877441552737782 -0.16441704759290662 -0.03739866962038587
0.004952864338979559 -0.1630846168513115 -0.032538531668782886
-0.001438524309167048 -0.16096601572700087 -0.028267320037298295
-0.008068728904128119 -0.15793158166411522 -0.024364048062254704
-0.014693321641203147 -0.15392692333202365 -0.020558594133399794
-0.021066732318434454 -0.14900255290625544 -0.01657587665478108
-0.026945830808248198 -0.14333424431677783 -0.012179781381968149
-0.03208620497116505 -0.1372126389537959 -0.007211399624102331
-0.03623893330760337 -0.13101976490693434 -0.0016167237129287573
-0.03915777870972402 -0.12518899333219038 0.004542147490840742
-0.040625046418110024 -0.12016291751880831 0.011092643063863896
-0.04049179818358563 -0.11634697548774381 0.017774933895574687
-0.03872326249812616 -0.11406730461506588 0.02428009939481937
-0.03543613317200953 -0.11353385804685993 0.030296462345386167
-0.030907686743645267 -0.11482360118778244 0.03555803942036277
-0.025558006239027705 -0.11788055489640178 0.03988594912162464
-0.019903698966970473 -0.12253429817402588 0.043218478668373264
-0.014490022289195027 -0.1285405004382395 0.04562222540227482
-0.009808229768481383 -0.1356200857426349 0.0472788756121553
-0.006217603822632403 -0.1434862533153478 0.048456236122457294
-0.003888660748738285 -0.1518687656227759 0.049462562076970806
-0.0027760286294768043 -0.1605199389300895 0.05059574718196513
-0.002630485229970103 -0.16922386530575026 0.05209598337995677
-0.0030425903911244336 -0.1777888501636707 0.05411260124238499
-0.003512924562024727 -0.18604920082610404 0.05669431569059561
-0.0035315157198071226 -0.19385728894545529 0.059803497735262744
-0.0026554726855772893 -0.20108659571842505 0.06334758067195542
-0.0005725997462343497 -0.20762979897573197 0.06721793189081375
0.0028612541499811045 -0.21340218779175163 0.07132077609923837
0.007618721079021926 -0.21835039927072086 0.07559466043969956
0.013528391535078363 -0.2224477104689588 0.0800105145449483
0.020324924761479363 -0.22569119600526044 0.08455847605732193
0.027706819936084037 -0.22809682037549142 0.08923005643142176
0.03538606688461456 -0.2296836858758338 0.09400391816827028
0.043125780897758086 -0.23046772767877596 0.09884003735621573
0.05075701436188772 -0.2304503356028492 0.1036862515207381
0.05818176961930282 -0.2296379795554481 0.10848946227550062
0.06536481845499091 -0.22805491192807154 0.11320804484923785
0.07232189508032134 -0.2257744320395111 0.11782242715511734
0.07910864473405993 -0.2229380099286072 0.12233310453439532
0.08580852646245302 -0.21975980987687416 0.12675185102229844
0.09252088404390449 -0.2165147178806021 0.1310916554307272
0.09934599636318037 -0.21350330806218112 0.13535508725500134
0.10637002132805126 -0.2110159485561415 0.1395310353846186
0.1136530639491829 -0.20929332578762458 0.14359680902812952
0.12121415184831165 -0.20850052542492575 0.14752923316281957
0.12903221936752704 -0.2087187521594455 0.1513167020861256
0.13703718467235623 -0.20994954408721386 0.1549752529337091
0.14511053925453823 -0.21213102216013113 0.15855722199823158
0.1530902610510681 -0.215156392178551 0.16214495830304534
0.16076707433205487 -0.21889915641945273 0.16584442133887028
0.16790105069266442 -0.22323136644058997 0.16976568821668805
0.17423233901682025 -0.2280448427696551 0.1739993657189835
0.17950541436871892 -0.23325597519230767 0.17858814664592473
0.18350097406140872 -0.23880807164942106 0.1835180667569152
0.186064210662558 -0.24466391816612107 0.18870514971199803
0.1871300006619859 -0.25079441659340374 0.19400791331305764
0.1867238131672648 -0.2571644157563298 0.19925051226147433
0.184960952080957 -0.2637349279727836 0.2042522625135195
0.18202135465005378 -0.27045452526163716 0.20885727839086493
0.17811759283542672 -0.27727018017911426 0.21296672892236537
0.17347325889532322 -0.28412819449153603 0.21654415827731915
0.1682957486325517 -0.29098501363165563 0.21962408948652945
0.16276311692361664 -0.29781128621803815 0.22229758944366562
0.15702480519367384 -0.3045913037001563 0.22469196540717346
0.15120368426273795 -0.3113267741342008 0.2269393638163435
0.14541225324253287 -0.3180338889563569 0.2291407092663367
0.13976300861759658 -0.32474600787049385 0.23133200617409663
0.13437948119991316 -0.3315098882102829 0.23346807727362137
0.1293952907017539 -0.3383773210816177 0.23541600736197626
0.12494914467808356 -0.3454035203851965 0.2369804070512482
0.1211702211508728 -0.3526338789068024 0.23794088017816886
0.11815848916137807 -0.3600967131211015 0.23810160562348617
0.11596660004585566 -0.36779410405616303 0.2373335361184197
0.11458990281822312 -0.37570637837210547 0.23559752013312243
0.11396642679348849 -0.3837895008900681 0.23294587724944277
0.11398186428448204 -0.3919846398547729 0.22951229226362174
0.11447578112079862 -0.40022841333846876 0.22548631012263906
0.11525887578326353 -0.40845167260117554 0.2210908591736493
0.11612277569517813 -0.4165889050738063 0.21656266311058395
0.11685022130346823 -0.4245735444526665 0.21214435436681295
0.11721874997636564 -0.43234316635843767 0.20808040914615952
0.11700516423841273 -0.43983294621886215 0.20461393925731236
LINES 1 120
119 0 1 2 3 4 5 6 7 8 9 10 11 12 13 14 15 16 17 18 19 20 21 22 23 24 25 26 27 28 29 30 31 32 33 34 35 36 37 38 39 40 41 42 43 44 45 46 47 48 49 50 51 52 53 54 55 56 57 58 59 60 61 62 63 64 65 66 67 68 69 70 71 72 73 74 75 76 77 78 79 80 81 82 83 84 85 86 87 88 89 90 91 92 93 94 95 96 97 98 99 100 101 102 103 104 105 106 107 108 109 110 111 112 113 114 115 116 117 118
POINT_DATA 119
SCALARS isSiphon int
LOOKUP_TABLE default
0
0
0
0
0
0
0
0
0
0
0
0
0
0
0
0
0
0
0
0
0
0
0
0
0
0
1
1
1
1
1
1
1
1
1
1
1
1
1
1
1
1
1
1
1
1
1
0
0
0
0
0
0
0
0
0
0
0
0
0
0
0
0
0
0
0
0
0
0
0
0
0
0
0
0
0
0
0
0
0
0
0
0
0
0
0
0
0
0
0
0
0
0
0
0
0
0
0
0
0
0
0
0
0
0
0
0
0
0
0
0
0
0
0
0
0
0
0
0
