# vtk DataFile Version 2.0
Vessel Segment
ASCII
DATASET POLYDATA
POINTS 119 float
-0.0037528910588286004 -0.0037022405908053134 0.00727156002714167
-0.008471449960148144 -0.00818320999904862 0.01339979030135913
-0.013885983086352006 -0.013297282652997008 0.018377768272775888
-0.019728401699216677 -0.01889919217233502 0.022198759091321203
-0.02573675847630891 -0.02484592287561677 0.024855852645851006
-0.03166580599119034 -0.031000746268076723 0.026341505333525708
-0.037302849670957434 -0.037240122955856464 0.026649392846497928
-0.04248697990833862 -0.043461564733352026 0.025781054070553894
-0.047127090615286533 -0.049590218026782984 0.02375670471561726
-0.051209613548803795 -0.05558360918822525 0.020626280325163823
-0.054796316022845515 -0.06142979281533474 0.016477244762321337
-0.05800103144831321 -0.06713841034482741 0.011435691004121383
-0.06095540797403802 -0.07272316887828749 0.005657899244329247
-0.06376732496351482 -0.07818071106746483 -0.0006832838924302215
-0.0664858465087926 -0.08347226657564746 -0.007415105820128445
-0.06907749352228301 -0.0885184022456634 -0.014378086673669103
-0.07141756738927799 -0.09321208276048255 -0.021434380230779447
-0.07330185049703344 -0.09744747864894884 -0.028469633164859832
-0.07447761629291091 -0.10115866005413074 -0.03539302946556749
-0.0746913308593991 -0.10435745305722877 -0.042134926099304505
-0.07374304922444043 -0.10715555137859743 -0.048645414207815374
-0.07153527943818604 -0.10976077802288237 -0.05489185754401094
-0.06810614466253616 -0.1124420698659007 -0.06085692207564377
-0.06364048434453748 -0.11547653341301742 -0.06653130026539586
-0.058452433140401154 -0.11908997962162023 -0.07189850884404718
-0.05294542197240502 -0.12340922897323313 -0.07691147415780243
-0.04755756898743072 -0.12844558663447833 -0.0814677398433376
-0.042702722014118455 -0.13409424653289276 -0.08539532527567834
-0.038719089053377044 -0.1401601382515202 -0.08845987103521924
-0.03583807729071183 -0.14638087533917388 -0.09039811808228307
-0.03417825970993388 -0.1524745432678813 -0.09097264109848738
-0.03376445536066004 -0.15816448345845954 -0.09003399344221683
-0.03455769519593081 -0.16321551960723937 -0.08756820402828866
-0.036482885584131486 -0.1674442050129455 -0.0837062481322305
-0.03943950920106882 -0.17072233376416196 -0.07870004400668468
-0.043296953671578556 -0.17296894980108163 -0.07286576410211724
-0.047885894420134335 -0.17413670618306126 -0.06651960971492808
-0.052996985403085194 -0.1742075174993684 -0.059924215196540294
-0.058392441196739836 -0.1731945575854037 -0.053259397581036635
-0.06382636037419656 -0.17115849443660194 -0.04661228463431632
-0.06906453661912437 -0.1682202970466121 -0.03998617245815908
-0.07389524606117422 -0.16456975392092335 -0.033323006204416854
-0.07813255224173056 -0.1604701709202877 -0.026533483335216306
-0.0816125044686058 -0.15623283935378568 -0.019529817777147105
-0.08419194975655447 -0.15219780842478373 -0.012258690896230712
-0.08575359206376071 -0.148698217792807 -0.00472552999248299
-0.08622038616678417 -0.14603466991475134 0.0029934433013940943
-0.08557312180762866 -0.14445809684008912 0.010755879716031543
-0.08386629503233167 -0.1441606702570776 0.018370997204352285
-0.08123191165618406 -0.14526545139781497 0.025625245991026863
-0.07786860481791617 -0.1478192957504219 0.03230954647938927
-0.07401748004259263 -0.15178720822495087 0.03823788402711259
-0.06992838302894404 -0.15705201341657443 0.0432570734183989
-0.06582729071431653 -0.1634260213485898 0.04724981478032585
-0.06189131539570362 -0.1706818588233582 0.050135877438997604
-0.058235470069701464 -0.17857731601210272 0.051874423853228026
-0.0549082666578043 -0.18688317999006573 0.052474412778459996
-0.05189706030941166 -0.1954048941857216 0.052007322303257636
-0.04913630080096364 -0.20398396226141235 0.05061939129570612
-0.04651798409451679 -0.21249624311531418 0.04853711362382348
-0.043901287226363106 -0.2208371693981312 0.04605929888795346
-0.04112400945786265 -0.22890931572178158 0.043533033341177925
-0.03801522342483635 -0.23660801770842949 0.04131685725380277
-0.03441181446293991 -0.24382021157835898 0.0397353500103364
-0.030177877869423518 -0.2504265379955777 0.039034221130970666
-0.025225643275477633 -0.25631606789313693 0.039348078402075784
-0.019529779080581643 -0.2614052595636227 0.04069390431667364
-0.013135927544556695 -0.26565039420087966 0.04298772473525636
-0.006157379168569817 -0.2690611771026774 0.04608194806786736
0.001240810247594221 -0.2716984395007024 0.04980972802885985
0.008867872748551974 -0.27366241670848285 0.054019568563722684
0.01653898789993106 -0.27507350016547444 0.05859214649095825
0.024107013766923823 -0.2760483064989067 0.06343691965947532
0.031486630724261104 -0.27667568409161747 0.06847660327061698
0.03866519245375549 -0.2770105700793216 0.07362865114433201
0.04569586791053448 -0.27706132640898673 0.07879468363527524
0.05267748355683378 -0.2768029912043254 0.08386334647048913
0.05972362704802771 -0.27618346018670387 0.08872467215837034
0.06693386939199952 -0.2751502994322077 0.0932897316742088
0.07436831332385152 -0.27366940744272994 0.09750679788318115
0.08203494278389149 -0.27175262827289537 0.10137048264540127
0.08989278564519622 -0.2694690762568029 0.10492182975310539
0.0978554914150521 -0.2669624281122329 0.10824204875857443
0.10580499771341048 -0.2644379527858286 0.11144299618486218
0.1136051016428814 -0.26214818539119905 0.11464962362062382
0.121121361594851 -0.260361737551517 0.11799151611171556
0.12823392825271945 -0.2593294552509028 0.12158480728725006
0.13484266101883835 -0.2592389919775083 0.1255167688586658
0.14088019258111156 -0.2601981645175702 0.12984264577189608
0.1463010062270745 -0.2622258858395696 0.1345672841304618
0.15107562832689503 -0.2652742552308863 0.13964259007155397
0.1551786859344908 -0.2692579191363804 0.14497122611164873
0.1585820537353251 -0.274084358666302 0.15041345812101203
0.1612536225830913 -0.27966731493354957 0.15580439553685202
0.16316748943464965 -0.28592324067993236 0.16097246966146142
0.16430075279795195 -0.2927571714562986 0.16576670513378064
0.16465113478355928 -0.3000638154381729 0.17006568592735652
0.1642179348336794 -0.3077232661474549 0.1737961798778528
0.16303059571962453 -0.31561807150878485 0.176934873528733
0.1611341669997653 -0.3236412001333904 0.17951021928435115
0.1586199735272464 -0.3317085607040361 0.1816000911253518
0.1556036940051922 -0.3397676708010279 0.18331881947958345
0.1522384741986946 -0.3477948658416145 0.18480876991155057
0.14868903124286548 -0.3557907340964602 0.18621769274950536
0.14511021756343329 -0.3637715730369603 0.187678686129228
0.14162842296326353 -0.3717561223813875 0.1892921903742339
0.1383355280774909 -0.3797615527719043 0.19110844169955757
0.1352820054935563 -0.387798836804861 0.19311299015057765
0.13248608327758682 -0.3958762032064255 0.19523292154376837
0.12995296148879706 -0.4039993910355583 0.19733761733949814
0.12766813544316086 -0.412173889327078 0.19926137776590985
0.12562629721986882 -0.4204069093183214 0.20082205138234469
0.12381070213600817 -0.4287071543267529 0.2018547922862902
0.12221278053523553 -0.43708167028943445 0.20222706944285948
0.12081431354907132 -0.4455378234338523 0.20184677206134857
0.11959803188402751 -0.4540772979452104 0.20066238991967125
0.11854213964917615 -0.46270304706045956 0.19864423581056007
0.11762341273227007 -0.4714159723506691 0.19577894204957913
0.11681721683838778 -0.48021618699878466 0.19205700328143652
LINES 1 120
119 0 1 2 3 4 5 6 7 8 9 10 11 12 13 14 15 16 17 18 19 20 21 22 23 24 25 26 27 28 29 30 31 32 33 34 35 36 37 38 39 40 41 42 43 44 45 46 47 48 49 50 51 52 53 54 55 56 57 58 59 60 61 62 63 64 65 66 67 68 69 70 71 72 73 74 75 76 77 78 79 80 81 82 83 84 85 86 87 88 89 90 91 92 93 94 95 96 97 98 99 100 101 102 103 104 105 106 107 108 109 110 111 112 113 114 115 116 117 118
POINT_DATA 119
SCALARS isSiphon int
LOOKUP_TABLE default
0
0
0
0
0
0
0
0
0
0
0
0
0
0
0
0
0
0
0
0
0
0
0
1
1
1
1
1
1
1
1
1
1
1
1
1
1
1
1
1
1
1
1
1
1
1
0
0
0
0
0
0
0
0
0
0
0
0
0
0
0
0
0
0
0
0
0
0
0
0
0
0
0
0
0
0
0
0
0
0
0
0
0
0
0
0
0
0
0
0
0
0
0
0
0
0
0
0
0
0
0
0
0
0
0
0
0
0
0
0
0
0
0
0
0
0
0
0
0
