# vtk DataFile Version 2.0
Vessel Segment
ASCII
DATASET POLYDATA
POINTS 119 float
0.00011764990136467268 -0.009214669836168981 0.0018742605929194577
-0.0016142588389088859 -0.017928848592800542 0.0036032662110692002
-0.004889538014050017 -0.026109305975617978 0.005018436669657567
-0.009397788449858056 -0.03372479861881732 0.0059530272924138245
-0.014817541113820666 -0.040749171952584096 0.0062461436003977905
-0.020810574939600087 -0.04716713793045456 0.005750028812994931
-0.027020805910728703 -0.05297915489259908 0.004340653718197119
-0.03308404073708245 -0.05820749878410766 0.0019317058120358601
-0.03864608340686541 -0.06290250733301266 -0.0015082378994813335
-0.043386352932393756 -0.06714772024699066 -0.005938793301937155
-0.047040419607725814 -0.07106141230839583 -0.011237101883238258
-0.049419245672223465 -0.07478544016448758 -0.017200818102887212
-0.05042062418654243 -0.07846035687046131 -0.02357020099175281
-0.05003397977001168 -0.08219120556584807 -0.03006620318515559
-0.04833759925194562 -0.08602119290604171 -0.03643591596513071
-0.045490151388753765 -0.08992487556473219 -0.0424941928544467
-0.041715183435649734 -0.09382550944043853 -0.04815102232330758
-0.0372781415809921 -0.09762665117380896 -0.05342166053209363
-0.03245585676632666 -0.10124236087135897 -0.058417132017936885
-0.0275031044312883 -0.10461664129952164 -0.06331707292459707
-0.022619594763603815 -0.10772788782840696 -0.06833053760150036
-0.01792432392826713 -0.11058748293293348 -0.07364912383656491
-0.013442426483781095 -0.11324372756770032 -0.07939743501312395
-0.0091113921853754 -0.1157945707465904 -0.08559343744549901
-0.004810455838091579 -0.11838130170014453 -0.09212808780172219
-0.00040383992008953345 -0.1211828007732439 -0.09876921735833794
0.004208990454296547 -0.12438924996306674 -0.10518682866446927
0.009053115311447528 -0.128158914516748 -0.11099222173014231
0.014061554410105712 -0.13257563150415244 -0.11578727425890492
0.019086138897072703 -0.13761399750033101 -0.1192097510382777
0.023932338418109798 -0.1431223526383777 -0.12097589392647293
0.028403521789969632 -0.14882986058479486 -0.1209139161770244
0.03234099972000895 -0.15439424305655727 -0.11898657277983862
0.03565152087233396 -0.1594559537733712 -0.11530016224916359
0.0383153837101376 -0.16370467029109026 -0.11008587348610198
0.04037948429029343 -0.16692376778471327 -0.10366616714084763
0.04193560603339341 -0.16901117837097412 -0.09640717284386605
0.043092018037456506 -0.1699704926068539 -0.08866167100436358
0.04394448495091433 -0.1698811775355042 -0.08072598549940908
0.0445497299841769 -0.16886823421622116 -0.0728125509435855
0.04490757504770434 -0.16707725793899014 -0.0650425866483811
0.0449571228036867 -0.1646678351329136 -0.05746004918584725
0.044588014900831675 -0.1618054331133309 -0.05005460431521029
0.04366118071810335 -0.1586603956653222 -0.04278939075690937
0.042036807772946404 -0.15541199185817836 -0.03562600248706004
0.03960328746417404 -0.15225167464386882 -0.02854247404740148
0.03630092747758859 -0.1493975387480091 -0.021541639027842827
0.03213828254499589 -0.14708889893960242 -0.014654331189429687
0.027196949650551125 -0.1455737126541014 -0.007938914305451579
0.021625089839465813 -0.1450864982198804 -0.0014769707154881912
0.015625593659107265 -0.1458126248223549 0.0046336190338291
0.009442664090517437 -0.14786298026082015 0.010289552990431702
0.003347504195474915 -0.15125965629744664 0.015396151014044606
-0.002374303232439041 -0.15593906730124327 0.019882626378475803
-0.007437778769598614 -0.16176306976497282 0.023718409574693462
-0.01157753959461084 -0.16854481782272362 0.02692557302838556
-0.014572049973730797 -0.17606192613906127 0.029586400959988348
-0.0162705612656293 -0.1840745860796397 0.03184383182300079
-0.016612773268027712 -0.19233256300322119 0.03389207208981472
-0.0156355604028355 -0.20057950461513674 0.03595812942157242
-0.013461638921600622 -0.20856023678608665 0.038275506107127405
-0.010274555925554174 -0.216029803989964 0.04105400745124799
-0.006285194575783876 -0.2227671038317485 0.044451252815548604
-0.0016992989382636037 -0.22859311882132438 0.0485535908763087
0.003308081743153342 -0.23338454207833462 0.05336822665932161
0.00860850860243166 -0.23708614926592125 0.0588260758693521
0.014125472249435616 -0.2397187204304574 0.06479323072000855
0.01983025133390839 -0.24137381585532483 0.07108882724401304
0.025732085343563457 -0.24219132690902911 0.07750760780265245
0.03186365806946681 -0.24233657247898252 0.08384482126717997
0.03826445857222075 -0.24196740469292355 0.08992207410502931
0.04496414114745777 -0.2412166414051825 0.09560809037810729
0.05197103764355446 -0.24018205151809033 0.1008329385598322
0.05926555862635854 -0.23892996842468778 0.10559163450152477
0.06680029482975777 -0.23750338321816508 0.10994014641718147
0.07450493304441635 -0.2359401401066871 0.11398088431572737
0.0822974108280289 -0.23428757943762396 0.11784098213264067
0.09009686381215258 -0.23261820258426597 0.12164548825976959
0.0978379186443716 -0.23103281754092406 0.1254982244396227
0.10548222180626544 -0.22966405878751042 0.12945619522412188
0.11302192069840866 -0.22866353546425106 0.13353075635655628
0.12047810412013421 -0.2281889136854345 0.13769242734154777
0.12788978955820784 -0.22838590930137972 0.1418924852980816
0.1352914162512836 -0.22936510167387672 0.14608593848018986
0.1426972490486685 -0.23118907219505108 0.1502540634642294
0.15007718309854046 -0.2338665130430276 0.15441427172033997
0.15733815569991388 -0.23735217828956712 0.15861109966638265
0.1643200933863103 -0.24156183816407434 0.16290561656731056
0.17079138488924114 -0.24638394252583548 0.16734238582593483
0.17646666106963677 -0.25169360459368456 0.17193411477035378
0.18103490688659657 -0.2573673574232736 0.1766446964273688
0.18419300731090302 -0.26328204503343944 0.18139618538990318
0.1856999557524867 -0.26932997897824196 0.18608249311799027
0.18542015783140978 -0.27541152418863946 0.19058690869370348
0.1833599259685194 -0.2814490504625758 0.19480897271756265
0.1796835992018467 -0.2873971444403026 0.19867758166803073
0.1746969470086782 -0.29324837599300174 0.20215985867134154
0.16881032658287337 -0.29904548403015696 0.2052604363908571
0.16248669361549237 -0.3048768858807254 0.20801095727529684
0.1561732519021903 -0.3108576518368598 0.21045716544915793
0.1502465212579497 -0.3171123585653711 0.21264352043576795
0.14496195350224117 -0.3237400170867312 0.21459825196828308
0.14042282228951547 -0.3307959923443168 0.21632677035202172
0.13658452960376943 -0.3382692841734094 0.2178067206968172
0.13326971227892448 -0.3460891788322484 0.21899056400635078
0.13022309460397385 -0.35413652656533856 0.21980441542907253
0.12716109053050026 -0.36226497952989645 0.2201676371065561
0.1238309457791146 -0.37033117723134795 0.22000154402194672
0.12006458522127134 -0.3782115217737039 0.21924663743777312
0.1158109926321269 -0.3858257788792933 0.21787709048978535
0.11115345991577208 -0.3931386823762043 0.21590116651677826
0.10631152106831554 -0.40016364862082626 0.2133695034651132
0.101629428877411 -0.406956277582905 0.21036332608383165
0.09754363991841851 -0.4136054671449176 0.20698953443335708
0.09455785231872602 -0.4202175413963567 0.2033703971930032
0.09321077038679715 -0.4269134753761005 0.19963794856692427
0.09405428674303327 -0.4338185374207732 0.19592835563284022
0.09764160311764375 -0.4410578311109131 0.19237885270181085
0.10452530741001306 -0.4487586136279007 0.18912595226512252
LINES 1 120
119 0 1 2 3 4 5 6 7 8 9 10 11 12 13 14 15 16 17 18 19 20 21 22 23 24 25 26 27 28 29 30 31 32 33 34 35 36 37 38 39 40 41 42 43 44 45 46 47 48 49 50 51 52 53 54 55 56 57 58 59 60 61 62 63 64 65 66 67 68 69 70 71 72 73 74 75 76 77 78 79 80 81 82 83 84 85 86 87 88 89 90 91 92 93 94 95 96 97 98 99 100 101 102 103 104 105 106 107 108 109 110 111 112 113 114 115 116 117 118
POINT_DATA 119
SCALARS isSiphon int
LOOKUP_TABLE default
0
0
0
0
0
0
0
0
0
0
0
0
0
0
0
0
0
0
0
0
0
0
0
0
0
0
0
1
1
1
1
1
1
1
1
1
1
1
1
1
1
1
1
1
1
1
1
1
1
1
0
0
0
0
0
0
0
0
0
0
0
0
0
0
0
0
0
0
0
0
0
0
0
0
0
0
0
0
0
0
0
0
0
0
0
0
0
0
0
0
0
0
0
0
0
0
0
0
0
0
0
0
0
0
0
0
0
0
0
0
0
0
0
0
0
0
0
0
0
