# vtk DataFile Version 2.0
Vessel Segment
ASCII
DATASET POLYDATA
POINTS 119 float
-0.007142186530161759 -0.005692046892563753 -0.003747656580301659
-0.013922211392829377 -0.011618914414549356 -0.0052197363568355715
-0.020406700893919803 -0.01767567961275786 -0.004804194089978331
-0.026662729138758254 -0.023757433851566406 -0.0028958158402281916
-0.03275769565450813 -0.029760423093667023 9.215528626347628e-05
-0.038756853580137855 -0.0355839013214935 0.003714947549367738
-0.04471884217114123 -0.041134975527489834 0.007490797325403837
-0.05068589241599109 -0.046335181000841656 0.010913786184591734
-0.05667160848461834 -0.05112964914316192 0.013489557455996367
-0.06264952928809964 -0.05549529575610338 0.014787867281389666
-0.06854566062006479 -0.05944683061511724 0.014500322817952369
-0.07423962942599877 -0.0630342786048796 0.012483035633185565
-0.07957516712148946 -0.06633541362138391 0.008770750891630713
-0.08437620708086707 -0.06944116300583367 0.003556377117898738
-0.08846650151919197 -0.07244194503853137 -0.002856557039806544
-0.09169149227325901 -0.07541724979242138 -0.01011430041992182
-0.09394248935499112 -0.07842850753009378 -0.017868372780468152
-0.0951783080791523 -0.08151725716325567 -0.025816991047328115
-0.09543423157566991 -0.0847046912905114 -0.03372880756077068
-0.09481194221120302 -0.08799393629365578 -0.04145286657158491
-0.09344978269812891 -0.0913731050484293 -0.04891757448907039
-0.09148199256014733 -0.09481970861966091 -0.05612116627024264
-0.08900309538210115 -0.098304375868942 -0.06311551263883118
-0.08604976035129608 -0.10179533425493531 -0.0699835375576151
-0.08260949991267626 -0.1052666499035597 -0.07681371202933189
-0.07865658929249125 -0.10871338276157974 -0.08367110797636916
-0.07420134942863281 -0.11216945574357787 -0.09056465939006922
-0.0693332628089666 -0.11571522916249853 -0.09742125180707571
-0.06424326804534417 -0.11947025827454036 -0.10406512588492459
-0.05921204673504232 -0.12356304041392067 -0.1102167501672582
-0.05456887377515758 -0.12808830787968759 -0.11550989109062833
-0.0506334757032209 -0.13305910041215832 -0.11953463662984336
-0.047656060365491415 -0.13837641469260117 -0.12190096022904481
-0.0457729309153226 -0.14382413300177863 -0.12231214904967017
-0.044987237092376196 -0.14909461764975146 -0.12063376096553016
-0.045178865616771334 -0.15383008764786316 -0.11692957824221652
-0.046136474564977305 -0.15768775484109862 -0.1114596324331531
-0.047600163977259725 -0.16038720890161473 -0.10463634030023224
-0.04930907176811626 -0.16176356280442536 -0.09695117186304639
-0.051044073178201026 -0.1617969874430305 -0.08888912311079891
-0.052658954895957885 -0.16061406135959866 -0.08085320929303492
-0.05409420836525407 -0.15847073719854743 -0.07311875951066926
-0.05537578469616575 -0.15569628115478057 -0.06581770738079792
-0.056598965849465666 -0.15261452282768695 -0.058951688645647406
-0.05789983641125641 -0.1494764040422308 -0.05242755164952892
-0.059417181905623395 -0.14642147142287829 -0.04609969032286912
-0.06125015200217086 -0.1434775492506507 -0.03980710014141049
-0.06342486965792667 -0.14059301833547425 -0.033400628827153396
-0.06587910275005882 -0.13768223351412917 -0.026762734898066402
-0.06846615703632408 -0.13468105807331163 -0.019815536146775174
-0.0709827791523724 -0.13158355741593541 -0.012523795163516253
-0.07320411325185382 -0.12847112646912545 -0.004887659943547652
-0.07492155346850013 -0.125522189131272 0.0030643296522758017
-0.0759755349358581 -0.12299881971798393 0.011279986637332862
-0.07627956679475877 -0.12120845095577579 0.0196814367755177
-0.0758296938311729 -0.12045424479417856 0.028157397701349757
-0.07469800726695945 -0.1209819971922816 0.03655217798084062
-0.07301395649964777 -0.12293945782312062 0.04465854226647674
-0.07093927033025002 -0.12635506793325185 0.05221917113881892
-0.06864654084838585 -0.13113909369699198 0.05893859630471583
-0.06630343013157775 -0.13710394723307195 0.06451111515463417
-0.0640618236175141 -0.14399514703474464 0.06865577360894314
-0.062051968355785615 -0.15152744414299124 0.07116128673944558
-0.06037761545023047 -0.15942853539842766 0.0719228497988552
-0.05911356948071596 -0.16746153847087486 0.07096931857811918
-0.058302322252435736 -0.17545402417221198 0.06847194500302498
-0.057950233635868625 -0.18331239861095913 0.06473442753176056
-0.05802915424451719 -0.19101746121392904 0.06016071539169689
-0.05848269103861871 -0.1986060877633867 0.05521364479717069
-0.059239041447754145 -0.20615634575859393 0.05036570528178843
-0.06022351946505988 -0.2137539380199945 0.046047873091676864
-0.06136760960780727 -0.22147744700945834 0.04261175688774935
-0.06260804739506155 -0.2293826286221174 0.04029696595130307
-0.06387894001250026 -0.23749720560127502 0.03921686031692914
-0.06509881374848236 -0.24582419087551904 0.039357221462932905
-0.0661566607641843 -0.2543386954204473 0.04059227818300993
-0.06690586642086023 -0.2629940990179645 0.04271552613903007
-0.06716700984488548 -0.27171553453146846 0.045477946802755596
-0.06674584776848382 -0.28039927894108535 0.0486289194451796
-0.06546107585395385 -0.2889075391296183 0.05194891941738079
-0.06317808561460075 -0.29706207938068674 0.05527223135542971
-0.059836845256348886 -0.304653019182136 0.05850103257043173
-0.055468647169998164 -0.3114428257265517 0.061609518709559774
-0.05019422998045614 -0.31719303207202953 0.06464148704618154
-0.04420802484833421 -0.32169344426683505 0.0676989174341837
-0.03774685261150144 -0.3248079650605606 0.07092067751365748
-0.031054285292228728 -0.32650906320566847 0.07445647570504896
-0.024342872916830613 -0.3269054424565683 0.0784346872055514
-0.017764428497344848 -0.3262438959663531 0.08293687827693097
-0.011395769366961014 -0.324873643508384 0.08798377290125399
-0.005239717470412358 -0.32319280559899394 0.09353256894388633
0.0007588904750882617 -0.3215735276507659 0.0994901542733231
0.006689293596518206 -0.32030015672305817 0.1057297858411082
0.012651377204606025 -0.31952812832321803 0.11211051597388079
0.018734358749874176 -0.3192700587943213 0.11849397038222448
0.025004743983076144 -0.31942041937062826 0.12475654742556
0.03149997341041782 -0.31978836009168005 0.130798259056221
0.03822947151740435 -0.3201388141867434 0.13654066836337175
0.04518120678664494 -0.320236083223855 0.14193709895938503
0.052331255142122994 -0.3198718679783241 0.14695815360462855
0.059652182285270104 -0.3188944240170024 0.1516003157672802
0.06711776808476783 -0.3172225997518437 0.1558784925489345
0.07470253921552751 -0.31484665888859625 0.15983744386029003
0.08237483549589468 -0.3118414858356638 0.16355157510496435
0.09008879164960622 -0.3083537470678739 0.16712696211113398
0.09777702297408584 -0.3046078210961778 0.17069533896027833
0.10534790901970319 -0.3008854855908349 0.17439828098473253
0.11268889767719165 -0.2975195733193135 0.1783629937271709
0.11967048602921819 -0.29486435693932456 0.1826859229226036
0.12616531693100924 -0.2932575063565671 0.18740999809006298
0.13205022517936793 -0.2929814746037901 0.19252559216175724
0.13721838590871524 -0.2942191529032716 0.19797693408485229
0.14158770389524508 -0.2970290926740407 0.20368037453091725
0.1451009853568506 -0.3013349965905879 0.2095411430051262
0.14772375923528405 -0.30693966578878223 0.21547472886330407
0.14944333527706022 -0.31355492074595254 0.221410556877071
0.1502564525131031 -0.32083921855210346 0.22729287306449503
0.15016964716249825 -0.32841757120837156 0.23307788076965677
0.1491881575046272 -0.3359111512740731 0.2387217378861443
LINES 1 120
119 0 1 2 3 4 5 6 7 8 9 10 11 12 13 14 15 16 17 18 19 20 21 22 23 24 25 26 27 28 29 30 31 32 33 34 35 36 37 38 39 40 41 42 43 44 45 46 47 48 49 50 51 52 53 54 55 56 57 58 59 60 61 62 63 64 65 66 67 68 69 70 71 72 73 74 75 76 77 78 79 80 81 82 83 84 85 86 87 88 89 90 91 92 93 94 95 96 97 98 99 100 101 102 103 104 105 106 107 108 109 110 111 112 113 114 115 116 117 118
POINT_DATA 119
SCALARS isSiphon int
LOOKUP_TABLE default
0
0
0
0
0
0
0
0
0
0
0
0
0
0
0
0
1
1
1
1
1
1
1
1
1
1
1
1
1
1
1
1
1
1
1
1
1
1
1
1
0
0
0
0
0
0
0
0
0
0
0
0
0
0
0
0
0
0
0
0
0
0
0
0
0
0
0
0
0
0
0
0
0
0
0
0
0
0
0
0
0
0
0
0
0
0
0
0
0
0
0
0
0
0
0
0
0
0
0
0
0
0
0
0
0
0
0
0
0
0
0
0
0
0
0
0
0
0
0
