# vtk DataFile Version 2.0
Vessel Segment
ASCII
DATASET POLYDATA
POINTS 119 float
-0.005693537184456376 -0.0035755166403457044 0.0021910562249658865
-0.01169510506934826 -0.008155173163465508 0.003921663284307622
-0.017821994693008936 -0.01361237412948728 0.005383890978870096
-0.023896692773007856 -0.019820060428976896 0.006763091287735852
-0.0297557479010869 -0.02664675082769609 0.008226603670861296
-0.03526233175629168 -0.033949427751299256 0.00990678138412279
-0.04031947183016603 -0.04156266423027304 0.011881035910846868
-0.044880385572843594 -0.049290989157989705 0.014153354344209794
-0.04895266259354523 -0.05690924779496488 0.016639795829029705
-0.052592859519463686 -0.06417667882057441 0.019161968070428553
-0.05589337975948932 -0.07086609992929645 0.021453771384201684
-0.05896489248613871 -0.07680357073429582 0.023182755699364874
-0.06191544045509047 -0.08190647834689085 0.02399418142677174
-0.06483207909003398 -0.08620919976493449 0.023574632648682408
-0.06776460387577606 -0.08986712849659224 0.02172471366201904
-0.0707197781096249 -0.0931311693016708 0.01841005766262605
-0.07366201129003137 -0.09630017459109788 0.0137786126714292
-0.0765210284159904 -0.0996652130476932 0.008129519277520586
-0.07920330263613845 -0.10345879438926044 0.0018448847395832876
-0.08160406363636256 -0.10782074641906596 -0.004688337129913727
-0.08362311907411782 -0.11278905769931043 -0.01114970263096779
-0.08518016626023339 -0.11831311727998622 -0.017330804060143264
-0.08622522827028468 -0.12428301750690036 -0.023147748589775818
-0.08673745337280434 -0.13056320241303632 -0.028622393983365954
-0.08671520843573545 -0.13704187384838037 -0.03384278203400462
-0.08616450277183428 -0.1436411122372698 -0.03891625881093106
-0.08509745179379362 -0.15034268747955834 -0.043925327757751625
-0.08354172300852594 -0.15718283822371495 -0.048895248944051714
-0.0815579471860803 -0.1642246018108548 -0.05377350272803869
-0.07925449158252076 -0.17155216551186048 -0.05842095006353823
-0.07679213612286673 -0.17922144006944232 -0.06261949898736952
-0.07437315915527178 -0.18723511657085412 -0.06609365734081869
-0.07221560983074497 -0.19550285472134096 -0.06854808818819297
-0.07051877538261442 -0.20382199206258225 -0.06971434969621587
-0.06943189583403497 -0.21186334716296443 -0.06939811494212883
-0.06903757728032828 -0.21920676640448092 -0.06751764569331332
-0.0693495218681753 -0.22538653427841207 -0.06412553148055916
-0.07032361341006223 -0.22996294846329843 -0.05941019021090638
-0.0718741189672751 -0.2325940609965669 -0.05367232883518679
-0.0738871272038405 -0.2331009662860662 -0.047278391525911075
-0.07622538765087601 -0.23150257764762885 -0.0405990550822891
-0.0787269358784042 -0.22800194095245793 -0.033945567845053655
-0.08120337602167735 -0.22297944864295918 -0.027521453408137116
-0.08344648865333501 -0.21691653489797877 -0.021397835708662726
-0.08524730282249492 -0.21035004174645233 -0.015519796994199508
-0.08642848737526947 -0.20379531319097421 -0.00973976068666676
-0.0868819629428016 -0.19771119363810624 -0.0038646800653424104
-0.08659638696884883 -0.19247113683142258 0.0022927524319385066
-0.0856625823046425 -0.18835185670891455 0.008868821232457393
-0.08425501405358046 -0.1855372038443602 0.0159142288800706
-0.08259168586659463 -0.184134279875766 0.023376731537481158
-0.08088912500870195 -0.18417887687137555 0.031104363117935227
-0.0793233699016959 -0.1856554959551284 0.03886771429367879
-0.07800447341359755 -0.1885083564271281 0.04639618648765764
-0.07696772301836644 -0.19264577324920026 0.05342418250835172
-0.0761811928711116 -0.19795037311550026 0.05973491573585645
-0.07556876279435593 -0.20427142373031815 0.06519311575038096
-0.0750403888256122 -0.21143419279517325 0.06976053521821464
-0.0745211719892831 -0.21925729148340323 0.0734907908299113
-0.07396865159863333 -0.22755278546933513 0.07650731468375833
-0.0733744089807882 -0.23615486709309802 0.07897167033959934
-0.07275005883702584 -0.24492428975365277 0.08105109373548056
-0.07210735069974447 -0.25375368368893625 0.08289119677076737
-0.07143955466731605 -0.26256278622944423 0.08460134797420597
-0.07071344723373334 -0.27130813316709584 0.08625235372087227
-0.06987035189499989 -0.27996214698259525 0.08788284355005456
-0.06883675145517466 -0.28851734528181777 0.08950995082521797
-0.06754019585852844 -0.29697909561628616 0.09114018501099236
-0.06592506457420105 -0.30536928638273786 0.0927790650305857
-0.06396489766062434 -0.3137117055639538 0.09443744010845
-0.06166475850774481 -0.32203542598261464 0.09613644920140932
-0.0590538418873654 -0.3303572767013048 0.09790914446314358
-0.056168162257445954 -0.3386854678499255 0.09979956383989784
-0.053032076045502176 -0.3469902249939365 0.1018579653678391
-0.04964027422137352 -0.3551939425208442 0.10413312357800482
-0.045950680184968326 -0.363183925631109 0.10666132473982433
-0.04188724082821993 -0.37079031289329684 0.10945576020630372
-0.03735300719042457 -0.3778228101844763 0.11249778498340418
-0.032251810366353245 -0.38407226202364975 0.11573636861791214
-0.026511395825706833 -0.3893441485946177 0.11909459569955533
-0.020103128913076727 -0.39348567878401836 0.1224850245500901
-0.013054963616483744 -0.3964137593386816 0.1258259115418065
-0.0054527262009578074 -0.39812389959334354 0.12906023548173773
0.002569482731714881 -0.398701033416258 0.13216511071826959
0.010848547699443031 -0.3983152709092227 0.13515695703489433
0.019215630902962688 -0.39720069398695834 0.13809154229960144
0.027518981141429106 -0.3956373713878581 0.14104940199095614
0.03564019187144354 -0.3939060875707428 0.1441302964061722
0.043505531725059596 -0.39226238347120074 0.14742843843284192
0.05108977601187016 -0.39088552744606 0.1510279177610153
0.058410821825796364 -0.3898568809979647 0.15497651499475282
0.06552217769138319 -0.3891539085823373 0.15929121929587936
0.0724947049943263 -0.3886740411304305 0.163951182453868
0.07940150105258373 -0.38827979039993027 0.16891120138597662
0.08629627313472546 -0.3878587262230602 0.174114836488076
0.09320442984845838 -0.387376636089751 0.17950391670601681
0.10011263500207554 -0.3868988067616295 0.18502587707952423
0.1069797689217348 -0.3865972731691396 0.19063118305509802
0.11373295043420144 -0.3867170144649755 0.19627392516468503
0.12028902786421175 -0.38752858520582145 0.20190035577006998
0.1265509064811164 -0.3892795133599004 0.20744801875185648
0.13241308097924376 -0.39213897851853674 0.21285248585450406
0.1377591103323663 -0.3961791031528317 0.21806400471365273
0.14246216953413282 -0.40135015166319965 0.22305274735182867
0.1463848912539348 -0.40749834592003265 0.22782624647499283
0.14939396276151487 -0.4143853363226997 0.232428475371
0.15137788325083218 -0.4217171670358758 0.23693678598958728
0.15225496445665357 -0.4291887496218856 0.24143943805342405
0.1519945861891752 -0.4365209959165176 0.24602185037436566
0.1506213658853037 -0.443493805189515 0.2507383213964379
0.14821152062572382 -0.4499760377597247 0.25559347093251333
0.1448858152722291 -0.45593880275511256 0.2605316846961058
0.14079439218330966 -0.46145752396481887 0.2654323037661905
0.1361024959721397 -0.4666998883572967 0.27012069787483806
0.13098572574487036 -0.4718933030158594 0.2743916945612103
0.12562220233589771 -0.4773056348511964 0.2780198744982184
0.1201904797293899 -0.4832196229098348 0.280779673004565
0.11486851415182611 -0.48992671610561495 0.28244360080849346
0.10983583362557796 -0.49771640028480163 0.28278531811982394
LINES 1 120
119 0 1 2 3 4 5 6 7 8 9 10 11 12 13 14 15 16 17 18 19 20 21 22 23 24 25 26 27 28 29 30 31 32 33 34 35 36 37 38 39 40 41 42 43 44 45 46 47 48 49 50 51 52 53 54 55 56 57 58 59 60 61 62 63 64 65 66 67 68 69 70 71 72 73 74 75 76 77 78 79 80 81 82 83 84 85 86 87 88 89 90 91 92 93 94 95 96 97 98 99 100 101 102 103 104 105 106 107 108 109 110 111 112 113 114 115 116 117 118
POINT_DATA 119
SCALARS isSiphon int
LOOKUP_TABLE default
0
0
0
0
0
0
0
0
0
0
0
0
0
0
0
0
0
0
0
0
0
0
0
0
0
0
0
0
0
0
0
1
1
1
1
1
1
1
1
1
1
1
1
1
1
1
1
1
1
1
0
0
0
0
0
0
0
0
0
0
0
0
0
0
0
0
0
0
0
0
0
0
0
0
0
0
0
0
0
0
0
0
0
0
0
0
0
0
0
0
0
0
0
0
0
0
0
0
0
0
0
0
0
0
0
0
0
0
0
0
0
0
0
0
0
0
0
0
0
