# vtk DataFile Version 2.0
Vessel Segment
ASCII
DATASET POLYDATA
POINTS 119 float
-0.003858438042714682 -0.007714515106387536 -0.0010863670240364345
-0.008588417246495004 -0.014982439160953688 -0.0011924958018055465
-0.013928836124741146 -0.02188801395573591 -0.00037439865379762223
-0.019620464846947717 -0.028513370580681104 0.0013038477390333906
-0.025411531758851337 -0.03493241006211471 0.0037538259541287076
-0.03107010707801583 -0.041198982256934455 0.006835890331905485
-0.036403370369743844 -0.04733096760090977 0.01032865470790589
-0.041276459922896636 -0.05329639522695291 0.013910522498219472
-0.04562269907495026 -0.05901326141425308 0.017166224964320714
-0.049441276726215524 -0.0643656135350346 0.019626682835791123
-0.05278167647382488 -0.06923860336648965 0.02083899793368143
-0.055726126653749125 -0.07355993603878513 0.020449084048150587
-0.058376436805190925 -0.07733359372661999 0.018270525688270003
-0.060844745887836955 -0.08065171898203827 0.014314357906673094
-0.06324632857134917 -0.08368340566996754 0.008778399524422527
-0.0656871385648951 -0.08664801548512076 0.002005007123496934
-0.06824455452939958 -0.08977315451279645 -0.0055880489213276175
-0.07094009782801286 -0.09325001302448671 -0.013580878922195692
-0.07371352445384677 -0.09719592412263892 -0.021609917168310407
-0.07641088703783658 -0.1016339594314359 -0.02940447098914257
-0.07879609414343179 -0.10649305099538453 -0.03679901829081688
-0.08058592183693496 -0.11163211596135039 -0.04372450712336015
-0.08150092330896616 -0.11687703558379929 -0.05018901959710619
-0.08132070297414234 -0.12206453494605851 -0.05625667843234789
-0.07992999305426572 -0.12708019046767272 -0.06202711553803762
-0.07734149180930038 -0.13187904624674635 -0.0676207094135943
-0.07369264875376992 -0.13649458910232098 -0.07316262125657061
-0.06920933165975712 -0.1410182343768083 -0.07876272637298369
-0.0641493373041302 -0.14556866341136462 -0.08448553578302961
-0.05874286114705027 -0.15025877460462822 -0.09031627595673421
-0.05314853348542947 -0.15515828838038345 -0.09613217959800713
-0.04744353919697955 -0.16027691596733626 -0.10169403050249291
-0.04164502325848949 -0.16555619232220742 -0.10666211785867515
-0.03575510399049483 -0.17087184796932323 -0.11063850720026108
-0.0298073938084531 -0.1760557863391386 -0.11322869317186479
-0.023898574129344475 -0.18091844211012426 -0.114109717854767
-0.01819206394419709 -0.1852684437560865 -0.11309158386603643
-0.012893874377135397 -0.18893631650266787 -0.11015621726746554
-0.008208591760059758 -0.1917850898111868 -0.10546631361151573
-0.004294099609303738 -0.19371774583412982 -0.09933899246903877
-0.0012283452522288876 -0.1946917497987088 -0.09218774322854507
0.001000184580257288 -0.19473205153859002 -0.08444848598920167
0.002480772199176286 -0.19394933437120812 -0.07650401291114547
0.0033563447079669856 -0.19254958946993028 -0.06862780640740695
0.003794010110998744 -0.19082387096916706 -0.06096163078381815
0.0039572902757518385 -0.18911542109264937 -0.05352411816125685
0.003981566486599968 -0.1877542908606848 -0.0462428671645385
0.003956639877830727 -0.18698951926608584 -0.03900078266249005
0.003918191626990915 -0.18694873212584945 -0.03168499043035313
0.0038471519351095224 -0.18762868678735264 -0.024221297670222585
0.0036779777520687543 -0.18893063768833418 -0.016596346932047756
0.003315259909541036 -0.19072194011289523 -0.008864802647179397
0.0026556027920462944 -0.19290059382344568 -0.001146962736293336
0.001610191262225448 -0.19544305583220342 0.006381831071555176
0.0001257051781525963 -0.19841861566021066 0.013512916058469602
-0.0017981106777845426 -0.20195822673878952 0.02003619073597898
-0.004096415946648679 -0.20620657716236704 0.025781972036994845
-0.006638610067935992 -0.2112744208214741 0.03066132122225438
-0.009241262632398144 -0.21719732685773538 0.034695827332031005
-0.01169417674563032 -0.223922105321731 0.03802440374039979
-0.013792809927411004 -0.23131672267085227 0.040884429145292354
-0.015367626526906568 -0.23919437527925505 0.04357005469309447
-0.016304897981363656 -0.24734703977549902 0.04637410105638624
-0.016553015534359075 -0.2555797385130433 0.049523830269562995
-0.016113915219576298 -0.26373344273964616 0.05313080998385309
-0.015020836455324812 -0.27170261753234665 0.05716539795785764
-0.013310943942387044 -0.2794273134795732 0.06146787387937627
-0.011002512487357412 -0.28688463257308805 0.06578967692202084
-0.008085684687637377 -0.29406355587482025 0.06985800298938274
-0.004528536157366265 -0.3009463506742828 0.07344679526056583
-0.0002937085867659271 -0.3074926385745397 0.07643666231950345
0.004641360547118892 -0.31364390900597805 0.07884580484721414
0.010269529023951054 -0.3193226506544907 0.0808217245783695
0.01654830706691375 -0.32445951013866836 0.08259826318615564
0.02340208516008682 -0.3290101877019965 0.08443404695269673
0.030729253817246612 -0.3329678739450735 0.08655152366167009
0.038412141312677936 -0.33636656226038353 0.08909695395135438
0.046325739545015225 -0.3392618173053922 0.09212801758508452
0.054344540657277896 -0.34171669638215785 0.09563028106600185
0.06234920861237388 -0.34376979943798774 0.09954862713653011
0.07023035895853837 -0.3454344952880103 0.10382140691992214
0.07789512098588357 -0.34669013580102154 0.10840507767261263
0.0852739545110905 -0.34750902590530763 0.1132832062540243
0.09233021180149889 -0.3478716115116712 0.11845882402804929
0.09906761689968824 -0.34779955318513434 0.1239357281364435
0.10553279288592846 -0.34736912582537466 0.12969832518734659
0.11180947238563285 -0.3467054977301439 0.135701224172636
0.11800542017723198 -0.3459711900997861 0.14186760760987166
0.12423124323299133 -0.3453271218618111 0.14810504790994344
0.13058408455241088 -0.34491607050210804 0.154320863623399
0.13712102059281903 -0.3448278127133502 0.1604366095453302
0.14385251114361666 -0.34509895320532913 0.16641096080680443
0.15073332945037016 -0.3457254261938133 0.1722423932475956
0.15766361030704268 -0.34667928618272814 0.1779679478732687
0.16450579905596596 -0.34794627630522484 0.18365146737606738
0.1711099818167541 -0.34953335171337246 0.18937136738772653
0.1773407290306101 -0.351476415734042 0.19519321763624514
0.18311331169881273 -0.3538225455268066 0.20116057112801514
0.18841509137858217 -0.35660250813135064 0.20727649305165058
0.19331176648221385 -0.35981001811051894 0.21350627384918486
0.19794056078098898 -0.36339693555394786 0.21978093579348418
0.20246847104820984 -0.3672826079509431 0.22600709951866077
0.20705077446947212 -0.3713867218917442 0.23207915241665322
0.21177704875320782 -0.3756573369439194 0.23790338006628536
0.21664194161649242 -0.3801050313749914 0.24339928765523972
0.22153955665418576 -0.3847950082667691 0.2485144656471621
0.22629157009126358 -0.3898397748324087 0.2532194648366546
0.230700011332622 -0.3953671653100498 0.2574941694694933
0.2346054186447736 -0.40148268491008815 0.2613235795792522
0.23792478596299516 -0.4082475736192553 0.2646919689136448
0.24067321246257312 -0.415658646447319 0.267579559499867
0.2429473995192323 -0.42365197826762385 0.269975332785575
0.24490446559108212 -0.4321194890335938 0.27188542171308056
0.2467296371537024 -0.44091829367054813 0.2733385699600805
0.24861716453793534 -0.4498892355626045 0.2743836983522506
0.2507590591019526 -0.45886433533894555 0.27509242934764133
0.25333479313112517 -0.46767587477235695 0.2755443768832858
0.25652663619794247 -0.4761571053381329 0.27582671121236185
0.2605097076329796 -0.48413885449261507 0.2760270247043921
LINES 1 120
119 0 1 2 3 4 5 6 7 8 9 10 11 12 13 14 15 16 17 18 19 20 21 22 23 24 25 26 27 28 29 30 31 32 33 34 35 36 37 38 39 40 41 42 43 44 45 46 47 48 49 50 51 52 53 54 55 56 57 58 59 60 61 62 63 64 65 66 67 68 69 70 71 72 73 74 75 76 77 78 79 80 81 82 83 84 85 86 87 88 89 90 91 92 93 94 95 96 97 98 99 100 101 102 103 104 105 106 107 108 109 110 111 112 113 114 115 116 117 118
POINT_DATA 119
SCALARS isSiphon int
LOOKUP_TABLE default
0
0
0
0
0
0
0
0
0
0
0
0
0
0
0
0
0
0
0
0
0
0
0
0
0
0
0
0
0
1
1
1
1
1
1
1
1
1
1
1
1
1
1
1
1
1
1
1
1
1
1
1
1
0
0
0
0
0
0
0
0
0
0
0
0
0
0
0
0
0
0
0
0
0
0
0
0
0
0
0
0
0
0
0
0
0
0
0
0
0
0
0
0
0
0
0
0
0
0
0
0
0
0
0
0
0
0
0
0
0
0
0
0
0
0
0
0
0
0
