# vtk DataFile Version 2.0
Vessel Segment
ASCII
DATASET POLYDATA
POINTS 119 float
-0.000289469488259626 -0.005441100353149343 -0.0057121087217467635
-0.0021473859558610218 -0.011573178207976 -0.009967966062018696
-0.005196366226581789 -0.01824471680864972 -0.013078522343078491
-0.009067173845294789 -0.02530446478664646 -0.015355655157184405
-0.013411742561123142 -0.03260191928012014 -0.017112422839097734
-0.017919374473134225 -0.039988603560581704 -0.018662821325110213
-0.02232949335970297 -0.047321241022380285 -0.020315181661184786
-0.026437808817845 -0.05446738584411256 -0.022358292498738188
-0.030094477660342078 -0.06131541604720534 -0.025035900542553922
-0.03319499935608689 -0.06778351281692148 -0.028517441619281533
-0.03566695915034242 -0.07382685212022104 -0.03287742349183779
-0.03745831938880917 -0.07943818157203647 -0.038087349181797424
-0.03852833797017869 -0.08464471246791777 -0.04402796537478688
-0.03884135598078949 -0.0895004762354258 -0.05052122739847307
-0.038366801910312796 -0.09407778809224304 -0.05736787178535188
-0.037082791604370315 -0.09846081557169169 -0.06438239624169761
-0.034984457664858803 -0.10274283148019245 -0.07141437608373155
-0.03209738969576194 -0.10702543525214196 -0.07835440271109548
-0.028495204943307432 -0.11141578216732513 -0.08512676166650453
-0.02431780685647181 -0.11601740184428284 -0.09167208491833108
-0.01978154472949955 -0.12091780141490904 -0.09792485832832275
-0.015173280461567035 -0.12617171120306656 -0.10378510522248037
-0.010826832643901548 -0.13179112998176076 -0.1090958847706889
-0.007085162714782352 -0.13773469690043386 -0.11363231165510346
-0.0042572459555933 -0.14390300660621133 -0.1171165917324644
-0.002581099718449784 -0.15014983716785865 -0.11925990719340722
-0.0021989215947337596 -0.1562849510084734 -0.11982086443985482
-0.0031495495431436518 -0.1620937108268333 -0.11866935363497126
-0.005376908673897979 -0.16735431414516538 -0.11582931455243944
-0.008744243085312787 -0.17185921124394335 -0.111477982960011
-0.013053501799296454 -0.17543004288098776 -0.105922599167228
-0.01806275843946494 -0.17792545146824645 -0.09953762020644552
-0.023498369700821222 -0.17924199938780294 -0.0926980593531973
-0.029063784950673435 -0.17931515638228018 -0.08571886754132875
-0.03444932052202223 -0.17813082532456387 -0.07881219273149352
-0.03934549702130706 -0.17573860986403075 -0.07207115105156044
-0.04346058489190546 -0.1722705847228793 -0.06548008196214251
-0.04654304044280212 -0.1679516127936705 -0.05894409510028736
-0.04840775502481532 -0.16310369412150158 -0.05233478465484301
-0.04895765939982781 -0.15812637158358486 -0.04554060020973671
-0.048196092144069266 -0.15347267069035644 -0.03851255067867902
-0.046223563959152794 -0.14960895262526575 -0.031295358486641556
-0.043221900372490143 -0.14696199305991064 -0.02403892544318682
-0.03942723860425284 -0.1458788870838358 -0.016989639466589195
-0.035100045138869544 -0.14657708847958922 -0.010462933848970547
-0.03049288561000526 -0.1491268378510936 -0.004802184428247605
-0.02582604856126193 -0.15343945354770952 -0.00032901837168988345
-0.021275743261389684 -0.15928839731177458 0.0027096017014120407
-0.016973359639364905 -0.166344000602932 0.004185735186577315
-0.013014116639999516 -0.17421746251981018 0.004117108187588825
-0.009464551601640782 -0.18251154553310825 0.0026747434044720724
-0.006366078457156858 -0.19086197019296802 0.00017067367701316486
-0.003730639281117807 -0.1989743288574683 -0.002972471618274615
-0.0015327966642812174 -0.20664361962612848 -0.006265418533688614
0.00029839944404710147 -0.2137712184746921 -0.009207928341419001
0.0018812748663689838 -0.22036096960094498 -0.011352686119074742
0.003373445472647506 -0.22651040370136064 -0.012370175280139709
0.004953841760199 -0.23238027863307614 -0.012102482476938164
0.006798573663990845 -0.238166697417745 -0.010582504422622105
0.009057312146681326 -0.24405021467523585 -0.008008624939319092
0.011835964962350095 -0.2501612446142719 -0.004690493882241571
0.015189481794768195 -0.25654846265856507 -0.0009682000299069515
0.019125643408420535 -0.2631615558213526 0.0028668957455984965
0.02361644160086885 -0.26986444600695614 0.006624558584357884
0.028614087383979817 -0.27644865954336584 0.01023073903211389
0.03406594430739459 -0.28267492966615165 0.013707435630487819
0.03992679517441294 -0.28830313191972406 0.017130377841923474
0.046162884447820844 -0.29312991621632906 0.02058298299552386
0.05275023259442302 -0.2970182267590872 0.02412322453685044
0.059667797993132425 -0.29990648245464196 0.02777050926484987
0.0668872184547316 -0.3018181553792351 0.0315130340853849
0.07436410288502492 -0.30284949039998726 0.03532725568049629
0.08203394143598042 -0.30315652489291595 0.039197657340302186
0.0898161764188152 -0.302931983092103 0.04312692205410212
0.0976235397611712 -0.30237180190717006 0.047135553230586096
0.10537707293877133 -0.3016544322964016 0.05125127860918183
0.1130198497761755 -0.30091482820061666 0.05549529484116264
0.12052597480775855 -0.3002351646001222 0.05987259619827722
0.12790369611325544 -0.29964290074064953 0.06436966532099409
0.13519241256620987 -0.2991223258523241 0.06895836179407679
0.1424525539058407 -0.2986237611978194 0.07360401725531869
0.14976093436751806 -0.2980858228072638 0.07827118561674153
0.15719255210935898 -0.29744759733324666 0.0829274294081058
0.16481008960237395 -0.29667556457690347 0.08754365307121305
0.17264596047295505 -0.29578244723759883 0.09209436944805204
0.18068167545808034 -0.29484374356658044 0.09655789149275285
0.1888399375910851 -0.29400440575015363 0.10091764574116684
0.19696340010891455 -0.29347550401829225 0.1051640792237255
0.20482597088991167 -0.29350641764877977 0.1092970031464434
0.21214417974065955 -0.29435932546689797 0.11332457033832324
0.21861118602569868 -0.29626167734198056 0.11726083526284506
0.22394429057127316 -0.2993707740864794 0.1211176039666552
0.2279339332111418 -0.30373895930812905 0.12490452876120542
0.23046949012507184 -0.30930987425718764 0.12861962420621906
0.23156686787491396 -0.31592588064368765 0.13225867789488702
0.23135211358034063 -0.3233502214399319 0.13581145908757858
0.2300396459304142 -0.33131905845941884 0.1392762603685339
0.2278959059263831 -0.3395749466953607 0.1426599526931725
0.22519641153175277 -0.3479064029136236 0.14598097858164508
0.2222042108281217 -0.35616552246909633 0.14926286768017658
0.2191388264894262 -0.36427146888128886 0.1525336116937029
0.21617366643483624 -0.37221039710341564 0.1558096866642833
0.21342662386857122 -0.38001780221145265 0.15909935423367924
0.21097105866053859 -0.3877543332319965 0.16238913554552048
0.20883670125073905 -0.3954945525823976 0.16565066098325937
0.20702399314671058 -0.40330502487182596 0.16884148659833986
0.2055135965836421 -0.41123617498164694 0.17190844695870458
0.2042712137252962 -0.41932006026620694 0.1747986874896618
0.20325988222085145 -0.42756564015288345 0.1774640980892952
0.2024424403846942 -0.43596494916081746 0.17987450060803115
0.2017826908269994 -0.4445008630166885 0.1820185222351039
0.20124730732799567 -0.4531431219445829 0.18391129176320337
0.2008021393352111 -0.46186005619501486 0.18558500624567983
0.20041704221061446 -0.4706160994818995 0.18709328591451052
0.20006304074940662 -0.4793809657742127 0.18849759982130615
0.19971095463945457 -0.48812331750921795 0.18986581715265907
0.1993336340347341 -0.4968119861895702 0.19127021492993657
0.19890480196888188 -0.5054200812860622 0.19278002019389498
0.19839782820458587 -0.5139185173747935 0.19446921411976556
LINES 1 120
119 0 1 2 3 4 5 6 7 8 9 10 11 12 13 14 15 16 17 18 19 20 21 22 23 24 25 26 27 28 29 30 31 32 33 34 35 36 37 38 39 40 41 42 43 44 45 46 47 48 49 50 51 52 53 54 55 56 57 58 59 60 61 62 63 64 65 66 67 68 69 70 71 72 73 74 75 76 77 78 79 80 81 82 83 84 85 86 87 88 89 90 91 92 93 94 95 96 97 98 99 100 101 102 103 104 105 106 107 108 109 110 111 112 113 114 115 116 117 118
POINT_DATA 119
SCALARS isSiphon int
LOOKUP_TABLE default
0
0
0
0
0
0
0
0
0
0
0
0
0
0
0
0
0
0
0
0
0
0
1
1
1
1
1
1
1
1
1
1
1
1
1
1
1
1
1
1
1
1
0
0
0
0
0
0
0
0
0
0
0
0
0
0
0
0
0
0
0
0
0
0
0
0
0
0
0
0
0
0
0
0
0
0
0
0
0
0
0
0
0
0
0
0
0
0
0
0
0
0
0
0
0
0
0
0
0
0
0
0
0
0
0
0
0
0
0
0
0
0
0
0
0
0
0
0
0
