# vtk DataFile Version 2.0
Vessel Segment
ASCII
DATASET POLYDATA
POINTS 119 float
-0.003625579067343431 -0.010075349792050634 -0.0007007537883899882
-0.0073640188667732625 -0.01940739907258517 0.00024308008607687288
-0.011073425905739797 -0.027897285563891473 0.0023468572966094587
-0.0146178707242215 -0.03545559047980181 0.005120451550986264
-0.017879454270018046 -0.0420219384142867 0.008062599663236192
-0.020777495644064208 -0.047595709565350294 0.01066362308623739
-0.023285953515620787 -0.05226877495987998 0.012431161700615121
-0.025439505775535335 -0.05624286719304242 0.012948530293411729
-0.027317090958463217 -0.0598182408857947 0.011953837442134753
-0.029004830155879156 -0.06335162800322598 0.009409676158980236
-0.03055441075383406 -0.06719706769694303 0.005523290665561957
-0.03194929482952825 -0.07164194952442254 0.0006897057586637024
-0.03308595270766734 -0.076845592730136 -0.004624270686712071
-0.033774314959279746 -0.08279930002793626 -0.010011623260223982
-0.03376201453027544 -0.08932424852183954 -0.015222808062570184
-0.03277942342352555 -0.0961165741700061 -0.020196732581371103
-0.03059708582942983 -0.10282687384186974 -0.025020885518205953
-0.027081257270849222 -0.1091484552699859 -0.02983979073083837
-0.02223435963333774 -0.11488620400879732 -0.03474716594271436
-0.016213359720663432 -0.11998530879036769 -0.03969580058094849
-0.009325617533206492 -0.12451246838919289 -0.04445147342380476
-0.0020030590383892616 -0.12859976358707473 -0.04860554115714054
0.0052426979713792645 -0.13237159187622735 -0.05164410442708132
0.01188184662558234 -0.1358762846641572 -0.05305965161739009
0.01743916924539557 -0.13905532480507618 -0.0524733581329775
0.02156611181425449 -0.14175228797676612 -0.049734836241924076
0.024095759868630155 -0.14375891757820092 -0.044964174158149184
0.025062058479421095 -0.14489663604033964 -0.03852456802614831
0.024677869212179595 -0.14507557542431537 -0.03093478707506743
0.02327795823640315 -0.14432656095969498 -0.022751964281278972
0.021245736430640594 -0.1427913911332622 -0.014460749072734971
0.01894611721895955 -0.14067365004398866 -0.006395123595974331
0.016678919594220437 -0.13820394069320135 0.0012935770852224452
0.014658220929728434 -0.13561096418903565 0.008625147692941502
0.013012175028297117 -0.1331393199277138 0.015744351896120026
0.011794643723803209 -0.13105932622872385 0.022848226854550263
0.011001412006490286 -0.12966197736191543 0.030103916927415063
0.010595801520962246 -0.12922454735688413 0.037579330838153104
0.010543495017681622 -0.1299608411374553 0.04520842900346938
0.010844814673788963 -0.13199052302162512 0.052797368939792325
0.011546314729425989 -0.13531838390534495 0.060069285661661656
0.012718765089590313 -0.13985854008669257 0.0667308830691061
0.014408576931469748 -0.1454541512689272 0.07254424553279004
0.01658679241105711 -0.15191128240713164 0.07738276822604935
0.019123190320190976 -0.15903146321164593 0.08125578461119524
0.021799317091503543 -0.16663270474838154 0.08429514211022308
0.024357437960184063 -0.17457037414885182 0.0867096525488046
0.026563228106839535 -0.18274503899804467 0.08872699202338846
0.028258499212977895 -0.1911000133212864 0.09054266135522732
0.029387995660643748 -0.199612069723949 0.09229053756217032
0.02999991309183066 -0.20826960651167636 0.09403931238178986
0.030227179480056144 -0.21705675859296858 0.0958075947658973
0.030265307360751607 -0.22592930095560385 0.09758724847765325
0.030353781021168338 -0.2348025363077453 0.09936310701926457
0.030759552897292753 -0.243549421179072 0.10112392507589275
0.03175755117851746 -0.25201017644558255 0.10286519483005313
0.03360178557424783 -0.26002302182215126 0.10458486006482018
0.03648722801369259 -0.26745653628462374 0.10628029577734598
0.040512941988398735 -0.2742416708707884 0.10794638404140447
0.04566065492715478 -0.28039923275502476 0.10957977312346065
0.05179738350108757 -0.28602325634272235 0.11118532626193152
0.05870844958839714 -0.29124927708014764 0.11278280197627139
0.06614565287344389 -0.29619197127625607 0.1144095254790604
0.07387834997216328 -0.3008860935006415 0.1161185667061674
0.08172834988157335 -0.3052453082527414 0.11797109332870385
0.08958084162343272 -0.3090603847480083 0.12002332358083836
0.09737297818534019 -0.3120444954739844 0.122323239568644
0.1050711126365157 -0.3139035071415473 0.124892671600393
0.11264836220340056 -0.31441152564287705 0.12773394136543123
0.12007470298220056 -0.3134768142689765 0.13083469661582894
0.12731767489756615 -0.31116526740268285 0.13416367164598877
0.13435642879938423 -0.30768466616359075 0.13768983215625882
0.14119584016906808 -0.3033505030005683 0.14137759605408018
0.1478726541182528 -0.2985291272780211 0.14518624645249673
0.15445517089723051 -0.2935692698342497 0.1490727787065317
0.1610300876186159 -0.28875881015349375 0.15298673114158376
0.16767732484429596 -0.2842772893262473 0.1568757921596942
0.17445097305174448 -0.2801784957076828 0.16069289935558867
0.18135643862718828 -0.27639378162497535 0.16440680144514244
0.18834685234838908 -0.2727542481238268 0.1680077475370946
0.19533564340168347 -0.2690338453319477 0.17150916645091246
0.20222465090870786 -0.26501900317485705 0.17494442694580756
0.2089465186381272 -0.26057149647419375 0.17834203949021168
0.21548909421682627 -0.25568308246229277 0.18171503685896143
0.2219178971971869 -0.25050769974230225 0.1850444864690665
0.2283632974574528 -0.24535294860056925 0.18828215576599786
0.23497773696732716 -0.2406345602736077 0.19136567264793894
0.2418888032399808 -0.23680316081738229 0.1942390338479169
0.24915101447035964 -0.23425971675218463 0.19688133478453906
0.25670992203828946 -0.23329019031772935 0.1993177870675489
0.26441801541214915 -0.23402596310429688 0.20162115663862343
0.27204664610165147 -0.23644071981985484 0.20389227140390956
0.2793425537701284 -0.24038200874498897 0.20623711452654112
0.28606224660934443 -0.24561500246559395 0.20873202086310824
0.2920094285085672 -0.25187272335383626 0.2114178495555273
0.2970427082582548 -0.2588947819883618 0.21428844515256337
0.30107718890981683 -0.26645402328542434 0.2173184958766692
0.3040665764546119 -0.27436089278059733 0.22047024855174585
0.3059927953987672 -0.2824621203241499 0.2237136769322347
0.30685328200181566 -0.2906281604520648 0.22703723071069834
0.30665988163371255 -0.29873936828281067 0.23043392154714679
0.30543853355363426 -0.3066762533232388 0.23390431427090771
0.30322950423585204 -0.31432181995788583 0.23744475160676817
0.30009290071041206 -0.3215689114000692 0.2410517599725929
0.2961194484324397 -0.32834005875836936 0.24471506459329745
0.29144365477265977 -0.3346104164255793 0.24842861212395154
0.2862610388957949 -0.3404357510775317 0.2521801217657122
0.2808218002891976 -0.3459510103564361 0.25595190949681756
0.2754169466826467 -0.35136531349534555 0.2597164412228451
0.27033047908103525 -0.35692045178987486 0.2634371889390547
0.2657963810241515 -0.36283589681096867 0.26707585102389214
0.26195959703720145 -0.36925931457852684 0.2706114415331739
0.25886086823645343 -0.376237065771394 0.27406294350281923
0.2564469643041132 -0.38371055101735535 0.27749677720188276
0.25459306462429876 -0.3915319807137688 0.28102405792468405
0.25312804734752636 -0.39949563486821477 0.28479163388860096
0.251859531984533 -0.4073620425613891 0.28896415198404507
0.25058600877075876 -0.4148801661793839 0.2937129471601613
0.24910438206868118 -0.42179481030094507 0.29921405685542335
LINES 1 120
119 0 1 2 3 4 5 6 7 8 9 10 11 12 13 14 15 16 17 18 19 20 21 22 23 24 25 26 27 28 29 30 31 32 33 34 35 36 37 38 39 40 41 42 43 44 45 46 47 48 49 50 51 52 53 54 55 56 57 58 59 60 61 62 63 64 65 66 67 68 69 70 71 72 73 74 75 76 77 78 79 80 81 82 83 84 85 86 87 88 89 90 91 92 93 94 95 96 97 98 99 100 101 102 103 104 105 106 107 108 109 110 111 112 113 114 115 116 117 118
POINT_DATA 119
SCALARS isSiphon int
LOOKUP_TABLE default
0
0
0
0
0
0
0
1
1
1
1
1
1
1
1
1
1
1
1
1
1
1
1
1
1
1
1
0
0
0
0
0
0
0
0
0
0
0
0
0
0
0
0
0
0
0
0
0
0
0
0
0
0
0
0
0
0
0
0
0
0
0
0
0
0
0
0
0
0
0
0
0
0
0
0
0
0
0
0
0
0
0
0
0
0
0
0
0
0
0
0
0
0
0
0
0
0
0
0
0
0
0
0
0
0
0
0
0
0
0
0
0
0
0
0
0
0
0
0
