# vtk DataFile Version 2.0
Vessel Segment
ASCII
DATASET POLYDATA
POINTS 119 float
-0.0035360434516411745 -0.009298991534737346 -7.215143777599199e-05
-0.007934848261794705 -0.017409798398397597 0.0002302383402754324
-0.013120667654739772 -0.02443056385005086 0.0009920881142252824
-0.01901559680842505 -0.030462662479058853 0.002292474553951399
-0.025535915039293127 -0.03561313254159732 0.004191895050845125
-0.0325876016155066 -0.03999898003664903 0.006710249122350497
-0.040064392192161506 -0.043744499598000794 0.009797729127240456
-0.04784757578718498 -0.04697588731453925 0.01330620939330168
-0.05580631467615888 -0.04981227054689591 0.016975144524335312
-0.06379788114338188 -0.05236058449047021 0.02044305587542802
-0.07166330758837422 -0.05471638886860713 0.02328527151686356
-0.07922775349865299 -0.05696960261369158 0.02507421821400867
-0.08630341045484434 -0.05920737142413868 0.025451694598278226
-0.09270224149746643 -0.06151053373261184 0.024190075088782043
-0.09825121374727269 -0.06394224542323189 0.021230464276672585
-0.10281272909698469 -0.06652585649206558 0.01668446184284364
-0.1063024937166428 -0.06922440171041166 0.01080583410441192
-0.10870659822170774 -0.07193143607005067 0.0039413896898373045
-0.11008849027008626 -0.07448753502413157 -0.0035298927990751864
-0.11057983199385892 -0.07672367297652972 -0.011251172929884458
-0.11035716580103899 -0.07852224843272475 -0.018927971723802672
-0.1096065329570071 -0.07987143257036512 -0.026353368198986295
-0.10848471251615245 -0.08089047598275599 -0.03341873204925621
-0.10709058375722749 -0.08181095151118091 -0.04010791193510254
-0.10545071269847017 -0.08291510469182241 -0.04647693503796694
-0.10351750730309216 -0.08446159875358518 -0.0526294244016718
-0.1011859901702647 -0.0866253804310754 -0.058684758547183274
-0.09831764810939503 -0.0894637677489766 -0.06475421528576714
-0.09477437790394784 -0.09292643961380448 -0.07092253486586272
-0.09045824295167376 -0.09688847641976309 -0.07723657196214471
-0.08534754328813635 -0.1011928075368957 -0.08369683244476606
-0.07952207414960669 -0.10568366248012381 -0.09024686691485265
-0.07317054074114117 -0.11022886173531629 -0.09675767942949398
-0.06657725519343316 -0.11472223476596434 -0.10301433878192802
-0.06008863214911774 -0.11907332152968507 -0.10871149462054297
-0.05406741727360805 -0.1231925494865766 -0.11346882746068512
-0.048839768782674625 -0.12698136312456948 -0.11686968905092611
-0.04464895130624733 -0.13033533031275235 -0.11852395797354028
-0.04162427294128968 -0.13316381387179643 -0.11814433763287935
-0.03977431124091355 -0.13541679315915836 -0.11561323995756755
-0.0390124041377727 -0.13710506479082665 -0.11100541963288461
-0.03919085141116703 -0.13829836263859088 -0.10458725878485473
-0.04013892816338664 -0.13912581222941087 -0.09677939337677922
-0.04169529225182484 -0.1397256174816686 -0.08807758597011377
-0.043718983895320015 -0.14021618654381227 -0.07897245059105383
-0.04608589632444736 -0.14064835798185418 -0.06988263860793013
-0.04867774844405031 -0.14099468758361733 -0.06111466673566153
-0.05137485630096859 -0.1411472848813405 -0.0528479358391657
-0.05405199049820431 -0.14094816874064334 -0.04514490140392531
-0.05657405960121763 -0.1402312819388212 -0.0379751809407525
-0.058790782769841884 -0.13888234751956455 -0.031242763793733908
-0.060534283364904545 -0.13688364293557953 -0.024813740014043607
-0.061633103720767746 -0.13433199352787603 -0.018538835269852606
-0.06194064195513579 -0.13143745356843306 -0.012271317424371238
-0.061376502240917195 -0.12849524206224722 -0.00588246655134596
-0.05995870658146047 -0.1258543022331046 0.0007240410362420213
-0.05781311858031905 -0.12387651506743821 0.0075964564946655105
-0.055152927558836155 -0.12289519624586562 0.014718268188904282
-0.05223478366533124 -0.12317508794605168 0.021996513539849275
-0.04930951255953464 -0.12487950088695525 0.02926052451295355
-0.046583727009168484 -0.12805435479249486 0.036276209099773464
-0.044197131075648315 -0.13263051587064226 0.04277029479343738
-0.04221574726550392 -0.13844352788876643 0.04846165397291472
-0.040641756273006376 -0.14526419221202796 0.05309418083257411
-0.039434572097689136 -0.15283928881930045 0.056469078783400774
-0.03852740678084305 -0.16092132695488479 0.058486062792253886
-0.037840438607829104 -0.16928879061282381 0.05917721472052683
-0.037289709235993194 -0.1777693161980533 0.05872642358697547
-0.0367927591691565 -0.1862391447121292 0.05746192077445085
-0.036274360234427094 -0.19462717429659207 0.055818053113390755
-0.035673268047812984 -0.20290978952295677 0.05426966848705822
-0.03494939312219023 -0.21109817390079974 0.05325235457586758
-0.0340876957199604 -0.2192339165894666 0.05308931684667516
-0.03309453855942902 -0.22737612737219576 0.053945844148151505
-0.031987061051390944 -0.2355849119870985 0.055817962476649954
-0.03077660781150222 -0.24391365012981664 0.05855290366468485
-0.029449776161977283 -0.25238857166532713 0.06189859976966571
-0.02795431944347884 -0.26099615663679243 0.06556193122920369
-0.026195417348467896 -0.26966606017490363 0.06926482200970778
-0.02404136838816571 -0.27826543282919125 0.07278990771103919
-0.021344148202048635 -0.286599416230233 0.0760094619131403
-0.01796563338896667 -0.29442505354960313 0.0788966548086332
-0.013807030445905815 -0.3014735506340355 0.08151843708470514
-0.008829360355260298 -0.3074899910354826 0.08401382185859603
-0.003062308148270362 -0.3122727206727829 0.08656163915639484
0.003400886243414763 -0.3157098187092143 0.08934197866267413
0.01042052588067649 -0.3178068839677879 0.09250262002425773
0.017832410667767338 -0.31868769737817443 0.09613599300976544
0.02547022097456555 -0.31857883412561244 0.10027008015708211
0.03318669278868081 -0.31776262150158374 0.1048731233346499
0.040867170197058565 -0.31653335528224974 0.10986804980380736
0.048438874495628864 -0.31514146999887493 0.11514893517076644
0.05587203597570937 -0.31377079945428066 0.12059616398379666
0.0631766154804879 -0.31252549340934394 0.12608993014388534
0.0703926612568962 -0.31143703902968534 0.13152074441562037
0.07757690839097942 -0.31049002191627895 0.13680016348532886
0.08478748552817236 -0.3096395168156553 0.14187061672885462
0.09206872473296226 -0.30883424044727703 0.1467159248137109
0.09943974033298225 -0.3080285468181247 0.15136646716841695
0.10689352011973591 -0.30718772815087575 0.15588989137781917
0.11440373607383439 -0.3062841788927738 0.1603803393123028
0.12193961662707357 -0.30530422800317447 0.16493188934190772
0.12947766009783337 -0.3042431815692145 0.16961837327766818
0.1370118262676227 -0.30310654223272077 0.17447301474826846
0.14454827266110346 -0.30191601625848985 0.17949292471027264
0.15209933854791396 -0.3007214442125248 0.18463978629780833
0.1596577698760965 -0.2996020300784897 0.18985963216743307
0.16718883112651878 -0.2986818400533591 0.19509933895282133
0.17461211930585743 -0.2981272743170266 0.20031924178257032
0.18180352390755655 -0.2981426116663613 0.205498150372839
0.1886054829011822 -0.29895139917544844 0.21062984872262816
0.1948450289689375 -0.3007604397937781 0.2157056145361766
0.20034793784860305 -0.3037386244456545 0.22072098595617978
0.20496553307900164 -0.30799768397509936 0.22564571365717456
0.20857085278493218 -0.3135905856327802 0.23044406182674693
0.21106903294955712 -0.3205164485973001 0.23506306989845352
0.21237718983847165 -0.328747032324623 0.2394491890983063
0.21243223076408355 -0.3382344945981618 0.24354204690350686
0.2111665698240114 -0.3489259268535005 0.2472836363698433
LINES 1 120
119 0 1 2 3 4 5 6 7 8 9 10 11 12 13 14 15 16 17 18 19 20 21 22 23 24 25 26 27 28 29 30 31 32 33 34 35 36 37 38 39 40 41 42 43 44 45 46 47 48 49 50 51 52 53 54 55 56 57 58 59 60 61 62 63 64 65 66 67 68 69 70 71 72 73 74 75 76 77 78 79 80 81 82 83 84 85 86 87 88 89 90 91 92 93 94 95 96 97 98 99 100 101 102 103 104 105 106 107 108 109 110 111 112 113 114 115 116 117 118
POINT_DATA 119
SCALARS isSiphon int
LOOKUP_TABLE default
0
0
0
0
0
0
0
0
0
0
0
0
0
0
0
0
0
0
0
0
0
0
0
0
0
0
0
0
0
0
0
0
0
1
1
1
1
1
1
1
1
1
1
1
1
1
1
1
1
1
1
1
1
1
1
1
1
0
0
0
0
0
0
0
0
0
0
0
0
0
0
0
0
0
0
0
0
0
0
0
0
0
0
0
0
0
0
0
0
0
0
0
0
0
0
0
0
0
0
0
0
0
0
0
0
0
0
0
0
0
0
0
0
0
0
0
0
0
0
