# vtk DataFile Version 2.0
Vessel Segment
ASCII
DATASET POLYDATA
POINTS 119 float
-0.004118769435817982 -0.0069197467187432785 -0.004892852940438711
-0.009356525763226054 -0.013585706706181745 -0.0072244383618647
-0.015430993082201992 -0.019972350943785317 -0.007426208548569359
-0.02206444531241416 -0.026050930146436724 -0.0059352872954893665
-0.028992248813754392 -0.031786655186854626 -0.0032045005792612127
-0.03597333691787619 -0.03713598306352501 0.00028454955440358434
-0.04280274479528359 -0.04205011269377397 0.004014050656361173
-0.04931638339202729 -0.0464854654162189 0.007439720331486613
-0.05539428576677713 -0.050423359295757544 0.010025308356700374
-0.06096028573742071 -0.05388995522572565 0.011302226753321563
-0.06598154876295513 -0.056971736556452296 0.01093925642023181
-0.07047215003184058 -0.05981900320681113 0.008807048848248894
-0.07448901898454179 -0.0626337035529324 0.005000963045488152
-0.07811959168599654 -0.06564758655023199 -0.00017595091259184665
-0.0814586698451985 -0.06909445453412912 -0.006266657163374874
-0.08457881170341945 -0.07317891120816823 -0.012750738179723956
-0.08750728052794328 -0.0780481589543866 -0.01913970220628168
-0.09021867928724311 -0.0837705790516269 -0.025055102364138514
-0.09264282800524663 -0.09032445155257329 -0.030274855071523093
-0.09468366659146309 -0.09760325953588185 -0.034743063081814594
-0.09623944007516326 -0.10543617316592285 -0.038547055785883265
-0.09721798966323254 -0.11361909731912877 -0.041872935665216
-0.09754887566125008 -0.12195097949572883 -0.044952490033295565
-0.09719060863862652 -0.13026355786796961 -0.048014678068150546
-0.09613753355236783 -0.13844066744273417 -0.05124931522388734
-0.09442076449835933 -0.14642626804371373 -0.05478586703226862
-0.09210512941076443 -0.15421650326715647 -0.058685533928457066
-0.08928100898978107 -0.16183552496551848 -0.06294102380054864
-0.08604790741018864 -0.16931692301563153 -0.06747792638540216
-0.08249651717096257 -0.17667965641096628 -0.07215347932005269
-0.07869273911469161 -0.18390358867555398 -0.07675599939644005
-0.07466855573792316 -0.1909277981924327 -0.08100758086701035
-0.07042791966562406 -0.19764645598435704 -0.08458009612337819
-0.06596581359623445 -0.20393456903054968 -0.08712542479835943
-0.06129517523005944 -0.2096547610015013 -0.08832121735270064
-0.05647304325972189 -0.21469054302067342 -0.08792187393448063
-0.051612950499462816 -0.21895412800460684 -0.0857980730128103
-0.04687606499803028 -0.22239654859900868 -0.08196094221556705
-0.04244980216651242 -0.22500706320220645 -0.07656423621644518
-0.038519387460586786 -0.22680242320499086 -0.06987746755937202
-0.03524563724744062 -0.22783356837965166 -0.06224181610357145
-0.032755912713428696 -0.22817856938535952 -0.05401724785938401
-0.031139252397926573 -0.22794094495583667 -0.045530631984116936
-0.03044183020099861 -0.22724142124399727 -0.03703577727877793
-0.030659983481419673 -0.2262077385980961 -0.028692308582794996
-0.031733117534604526 -0.22495350643077955 -0.020564450488770963
-0.033547215392806626 -0.22358320728349523 -0.012638826285103237
-0.035953771459297734 -0.22219739094854232 -0.004854097011815275
-0.038802393214077364 -0.22090953847243366 0.002860461442354769
-0.04197284216710863 -0.21986954802045253 0.010548503578581447
-0.0453912875966594 -0.21926154940082784 0.018200467877104325
-0.04902244415973941 -0.2192998147826106 0.025743591620364322
-0.05283522438749472 -0.22019007552192155 0.03305050544227921
-0.05676109650876844 -0.22210620963620464 0.03996078792944236
-0.06066003269522867 -0.22515865418274966 0.04631164733177506
-0.06431386265437157 -0.22937675311139502 0.051966678650253326
-0.0674533931842824 -0.23470520105519987 0.056841385287599196
-0.06981300346229471 -0.24101788508173969 0.060917931948827456
-0.07119420807148232 -0.24813550176811283 0.06425120782563815
-0.07151913815115242 -0.2558520745805958 0.06696321873751142
-0.07085786462700479 -0.26396769141808246 0.06922907045769791
-0.06942088995595525 -0.2723039114366427 0.07125274125334281
-0.06751617815564381 -0.28072714366638835 0.07323756600717458
-0.06548300900695218 -0.28915618505970725 0.0753566375957411
-0.06362338722390916 -0.2975623989613712 0.07772755514701914
-0.06214690227471924 -0.3059640493120732 0.08039917700171884
-0.06113758337177633 -0.3144072543547151 0.08334875876815348
-0.0605468767348168 -0.3229487915616023 0.08649157014740809
-0.06021232501433371 -0.33163665910365253 0.08970176388150018
-0.059895539769827116 -0.3404744781593611 0.09283885031499028
-0.05933212610488224 -0.34941269079853493 0.09577825627530112
-0.05828456813674565 -0.3583295374979091 0.09844093484503821
-0.05659123779836739 -0.36703085692214277 0.10081722735070722
-0.05420150997552339 -0.3752597062263733 0.1029813840310978
-0.05118925256590681 -0.3827314278787549 0.1050914813565782
-0.04773674523072313 -0.3891715103774753 0.10737015755698315
-0.04408733710743579 -0.39436509488959803 0.1100659868834544
-0.04048033282029223 -0.398210033596928 0.11340431024649417
-0.037080999386128785 -0.4007442121941311 0.11753448413845885
-0.033931296080605106 -0.4021515862880696 0.12249127597116616
-0.030935057246684414 -0.4027347005501725 0.128181452478588
-0.027878893184720924 -0.402843871154806 0.13439866654881974
-0.02448708400836282 -0.40280276450359204 0.14086327131477044
-0.020492116516861173 -0.4028389110342227 0.14727669271233002
-0.015700546693819716 -0.40304938806309965 0.15338561989807534
-0.0100331024534678 -0.4034112274266867 0.15901707344926258
-0.0035335159555299487 -0.4038273581290794 0.16410780319146037
0.00365173420909222 -0.4041773304006097 0.16869006527802258
0.011312650949974835 -0.40438224591023253 0.1728723356857496
0.01922339617761624 -0.40442546430541443 0.17680841496477523
0.02718477149493217 -0.40436069844836053 0.18065182771724508
0.03505696758864378 -0.40427896516577905 0.1845289244623539
0.042773273919885946 -0.40426918024272457 0.18851034468703004
0.05033722239408186 -0.4043792553511684 0.19261480235357628
0.05780730400628293 -0.4046032300303027 0.19680289952303864
0.0652706324233949 -0.4048834255146015 0.2010049295878805
0.0728147440654464 -0.4051371198988852 0.20514139248906058
0.08050215264867214 -0.40527805620482915 0.20914509773836668
0.08835286847747585 -0.405235885304175 0.21298589886921493
0.09634197580564079 -0.40495072078844463 0.21667349545738807
0.10440417430540948 -0.4043760088281494 0.2202583410621474
0.1124514610666693 -0.4034690383666142 0.22382092146228663
0.12039413328908827 -0.4022004398240123 0.22744698354161197
0.12816390096521815 -0.4005679412938622 0.23121018903397214
0.13572731441071445 -0.3986202982280466 0.2351490252087416
0.14309553224037452 -0.396470937114123 0.23925773949168647
0.15031327076706635 -0.3943051537799169 0.24349663286519882
0.15743269294332665 -0.39236119863629143 0.24780022101649968
0.1644993218298418 -0.3909023000205154 0.25210724706905535
0.17152612660187114 -0.3901765233892908 0.2563775773757408
0.17849163631038728 -0.39037646206912563 0.26060579984905013
0.18535028558445923 -0.3916130439798086 0.26482178416727137
0.19205222207957792 -0.39389347213947834 0.2690783253145812
0.19856130702323327 -0.39713081939500855 0.27343950859733995
0.20486714580096813 -0.40114324170674387 0.2779727553978081
0.21098015780942558 -0.40569151668275755 0.2827405223857383
0.21693051759009707 -0.4104956646317613 0.28780192792463855
0.22275431352303093 -0.4152609320249869 0.29321365495691165
0.22849207720666048 -0.41968770561528856 0.2990283176712534
LINES 1 120
119 0 1 2 3 4 5 6 7 8 9 10 11 12 13 14 15 16 17 18 19 20 21 22 23 24 25 26 27 28 29 30 31 32 33 34 35 36 37 38 39 40 41 42 43 44 45 46 47 48 49 50 51 52 53 54 55 56 57 58 59 60 61 62 63 64 65 66 67 68 69 70 71 72 73 74 75 76 77 78 79 80 81 82 83 84 85 86 87 88 89 90 91 92 93 94 95 96 97 98 99 100 101 102 103 104 105 106 107 108 109 110 111 112 113 114 115 116 117 118
POINT_DATA 119
SCALARS isSiphon int
LOOKUP_TABLE default
0
0
0
0
0
0
0
0
0
0
0
0
0
0
0
0
0
0
0
0
0
0
0
0
0
0
0
0
0
1
1
1
1
1
1
1
1
1
1
1
1
1
1
1
1
1
1
1
1
1
1
0
0
0
0
0
0
0
0
0
0
0
0
0
0
0
0
0
0
0
0
0
0
0
0
0
0
0
0
0
0
0
0
0
0
0
0
0
0
0
0
0
0
0
0
0
0
0
0
0
0
0
0
0
0
0
0
0
0
0
0
0
0
0
0
0
0
0
0
