# vtk DataFile Version 2.0
Vessel Segment
ASCII
DATASET POLYDATA
POINTS 119 float
-0.006607153265622127 -0.006183618741521145 0.0025369691381966347
-0.012560054302885893 -0.012458158695505905 0.005888222402429654
-0.01795835159510989 -0.01868656446549113 0.009675189131740662
-0.022899137765168793 -0.024738601374106866 0.013519389938326961
-0.02747315280481822 -0.03050209582477028 0.01704530310031044
-0.031757477231140877 -0.03590060429141053 0.01988823822344452
-0.035806917320430065 -0.040909135982248115 0.021712601919936705
-0.03964588991239384 -0.045561226058931134 0.022240905389654647
-0.04326076192787982 -0.04994467664613333 0.021292837811691293
-0.04659914199161289 -0.0541839369686935 0.018812623404649856
-0.04957333479426997 -0.058420585321840614 0.014884524943561728
-0.05207298910113692 -0.06279576204660033 0.009720122327772873
-0.053986510824270154 -0.06743376537494165 0.0036253698538438166
-0.0552254101332225 -0.07242761101838162 -0.0030418199701538013
-0.05574085450953828 -0.07782461654861522 -0.009922346880017675
-0.05552592657008444 -0.08361755508895351 -0.016703085515878895
-0.05460383596275655 -0.08974280611587253 -0.023151933987496397
-0.05300832374386777 -0.09608793743553941 -0.029137669030336235
-0.050766475587363816 -0.1025064982499274 -0.0346347683124876
-0.04789054381830476 -0.10883818119053104 -0.039715829770860654
-0.04438228434536702 -0.1149333313185909 -0.044531654934263136
-0.04024507792336157 -0.12067320105936023 -0.049282101094278316
-0.03549786210039877 -0.12598379609605703 -0.054177520635748225
-0.0301844946025252 -0.13084411538754148 -0.05939501926984267
-0.024379345735028538 -0.13527507293886637 -0.06503175574528017
-0.01819024539209621 -0.13933289559119588 -0.07106286972143414
-0.011761218697546481 -0.1430821916591748 -0.07731182016111195
-0.0052765924116038605 -0.14658123880022464 -0.08344384855597793
0.0010364711546366656 -0.14986306647689904 -0.08899073365964655
0.006910730876572303 -0.15292074336267517 -0.09341072914793186
0.01205269377690775 -0.15570650191878116 -0.09617580048505883
0.016171040044575917 -0.15813907805109548 -0.09687107218510488
0.01901707034064146 -0.16012197463023967 -0.09528275461894561
0.020422234456270557 -0.16157269403467459 -0.09144610455282182
0.020323650104599588 -0.16243437129189847 -0.08564506599431447
0.01876814439066478 -0.162674447131862 -0.07837035428427226
0.015896387433647477 -0.16227531184053384 -0.07024081375966845
0.011915036353427505 -0.16121107528983122 -0.06190403357359185
0.00707444993733506 -0.1594363073268238 -0.053939423244576935
0.0016549666006895785 -0.1568778456103216 -0.046778457907460484
-0.004038035517382909 -0.15345850790862606 -0.040650677202014644
-0.009679067129656726 -0.14913717484319639 -0.0355645149041335
-0.014935206223110432 -0.14395548748151699 -0.031322453145448716
-0.019488929966888214 -0.1380830209912319 -0.027571838746001928
-0.02306751308439721 -0.1318335262019369 -0.02388408514800678
-0.025473319491238974 -0.12564139530353474 -0.019849951372510215
-0.026607297102977476 -0.1200044018883002 -0.015174554226098707
-0.02648078288308297 -0.11541539145913075 -0.009752522551367646
-0.025210682027911994 -0.11227802420854088 -0.0037052231316257126
-0.022998767314381472 -0.11085932628955629 0.0026325129851712784
-0.020100983016145744 -0.11126535121453093 0.0087763732753782
-0.016795653561403966 -0.11345677060596462 0.014195056888707312
-0.013353890056570148 -0.11727726407706562 0.01842809602466801
-0.010016983991994492 -0.12250084165746583 0.02118512914460114
-0.006979263193424668 -0.12886941672984686 0.022399824883335414
-0.0043773772827747325 -0.13612770675503186 0.022223756110587224
-0.002285422342616825 -0.14404188470694343 0.02097088629449631
-0.0007175197929384267 -0.15241838643537772 0.01903778071165844
0.00036315486871104665 -0.1611029638920199 0.016833271920690344
0.0010310104296352256 -0.16998161680067148 0.01473320414231603
0.0013833111164084388 -0.17897092319818894 0.0130605740148432
0.001528071586348587 -0.18800301528410526 0.012080309145962316
0.001577300028374508 -0.19700534836288788 0.011995924497446199
0.0016467275398955627 -0.20588864346073205 0.012943841517440073
0.0018612679608178849 -0.21453086213612324 0.014983677523232859
0.0023622993392402388 -0.22277373183269678 0.018090167548144426
0.0033111170965021866 -0.23043183292613176 0.022154144571596573
0.004882707513584105 -0.2373081934901076 0.02699325054703319
0.007247738782875794 -0.24322077665548708 0.03237476164502195
0.010545701157279357 -0.24803383380815716 0.038045200987776404
0.01485698097449783 -0.25168436080472134 0.04376099190906189
0.020183355812799023 -0.2542019690178481 0.049317485674866116
0.026444203400916005 -0.25570635486174687 0.05456826511425124
0.03348863181581459 -0.25637920612534554 0.059436545722556695
0.04111988568489462 -0.2564298829939983 0.06391509052857357
0.04912524786627807 -0.25606043449383376 0.06805551885751325
0.05730535714151006 -0.2554286771450805 0.07195025154763615
0.06549669479241904 -0.254639140035218 0.07571158801394905
0.07358543423326905 -0.25373833351070857 0.07945058435455513
0.08151153528129838 -0.2527250983340099 0.08325967603690482
0.08926517200079129 -0.2515617235256269 0.08720188864925221
0.09687658564062382 -0.25020579719729125 0.09130620298480686
0.1044015097628507 -0.2486389577317809 0.09556963993024253
0.11190673741765013 -0.24690018881391457 0.09996492968614859
0.11944323298498169 -0.2451023217474229 0.1044536836314712
0.12703224833349186 -0.24343377614729783 0.10899759818558272
0.134643812776306 -0.24213714148908894 0.11357329378985395
0.14218105216350463 -0.24147419068076523 0.1181785670921317
0.1494847442297618 -0.24168400576462648 0.12283634659287823
0.15634260730476748 -0.2429424701453857 0.12758689594150852
0.16251939805855015 -0.24534057287589645 0.13247140136101376
0.1677908486834488 -0.2488816680132425 0.137515957821607
0.17198724478616031 -0.2534919378664016 0.14271015227521403
0.1750186848459987 -0.25904339095648543 0.148003029604855
0.17688556586995116 -0.2653771428268071 0.15329924368114767
0.17767430285374725 -0.27232636099390467 0.1584796989458936
0.17753007300212645 -0.2797320724516549 0.16341509643564114
0.17662779439736395 -0.28745327892940187 0.16799105512589946
0.1751493337100236 -0.29538065231115507 0.17211703719255458
0.17325976974454543 -0.3034361109187032 0.1757367614487156
0.17109915578033258 -0.31157073107287203 0.178832620404571
0.16877875612349147 -0.31976254569678686 0.18142780442756684
0.1663831440632105 -0.32800576223918937 0.18358445682924993
0.16397757717791772 -0.33630408595013245 0.18539038797020835
0.16161164952237578 -0.3446643248346242 0.18695169211556276
0.15932726399291441 -0.35309421971439614 0.18837048884808147
0.1571536620416342 -0.36159884238002554 0.18973148636644643
0.1551105856830434 -0.37017715830460485 0.19108911237961845
0.1532002128166007 -0.3788184437509664 0.1924608075983331
0.151397729145959 -0.38750340196922756 0.19382003007986107
0.14965196651540064 -0.396199038665965 0.19509822991530718
0.1478789909581727 -0.40485913538701346 0.1961891388358056
0.14596922863995698 -0.413426670413031 0.19695903411652013
0.14379379941442325 -0.42183632286804795 0.19725147698369916
0.1412121004133483 -0.43002078636258834 0.19690247331370825
0.13808415189163048 -0.43791029763131734 0.19575064973518935
0.13427034629765405 -0.4454375210367779 0.19363376867731966
0.12963240735515896 -0.4525350898053526 0.19039868163428825
0.12403664537015749 -0.4591394867281235 0.1858918826816236
LINES 1 120
119 0 1 2 3 4 5 6 7 8 9 10 11 12 13 14 15 16 17 18 19 20 21 22 23 24 25 26 27 28 29 30 31 32 33 34 35 36 37 38 39 40 41 42 43 44 45 46 47 48 49 50 51 52 53 54 55 56 57 58 59 60 61 62 63 64 65 66 67 68 69 70 71 72 73 74 75 76 77 78 79 80 81 82 83 84 85 86 87 88 89 90 91 92 93 94 95 96 97 98 99 100 101 102 103 104 105 106 107 108 109 110 111 112 113 114 115 116 117 118
POINT_DATA 119
SCALARS isSiphon int
LOOKUP_TABLE default
0
0
0
0
0
0
0
0
0
0
0
0
0
0
0
0
0
0
0
0
0
0
0
0
0
0
0
1
1
1
1
1
1
1
1
1
1
1
1
1
1
1
1
1
1
1
0
0
0
0
0
0
0
0
0
0
0
0
0
0
0
0
0
0
0
0
0
0
0
0
0
0
0
0
0
0
0
0
0
0
0
0
0
0
0
0
0
0
0
0
0
0
0
0
0
0
0
0
0
0
0
0
0
0
0
0
0
0
0
0
0
0
0
0
0
0
0
0
0
