# vtk DataFile Version 2.0
Vessel Segment
ASCII
DATASET POLYDATA
POINTS 119 float
-0.001394224185238446 -0.009118485616233695 0.00404158320048114
-0.003866863515403815 -0.017739436772248388 0.006030883836063393
-0.007357505708010671 -0.025705397362518916 0.006486342490651917
-0.011802102877200793 -0.032867976350254985 0.005924005816937047
-0.017127150658928374 -0.03910604154217322 0.004844783356312093
-0.02324299416160526 -0.04435236821134831 0.00370064189725265
-0.030039872195930767 -0.04862226269929318 0.0028362440934157278
-0.03738756388091577 -0.05203157727845489 0.002420450546860987
-0.045135740519860586 -0.054796368339234465 0.002400112536486378
-0.05311386105758215 -0.05721097834912761 0.002507872221338234
-0.06112278445841024 -0.059607331364979345 0.0023392807376627985
-0.06892379163936445 -0.062301101426244385 0.0014761973675842756
-0.07623000163421002 -0.06553558911009098 -0.0003958065961516691
-0.08271178934412383 -0.06943230788250342 -0.003421695730908519
-0.0880216077503764 -0.07396425497082472 -0.007576582178317305
-0.09184207472601205 -0.07896249849973454 -0.012709260741243547
-0.09394516469027477 -0.08416230204949804 -0.018596645500488743
-0.09424548629227528 -0.089281095406794 -0.024988112054878747
-0.09282426421559485 -0.09410464260731904 -0.03163076407221155
-0.0899117515013033 -0.0985553147633391 -0.03828244612853306
-0.08582983829694785 -0.10271848719641369 -0.04471313652500731
-0.08091688336908336 -0.10681801311253804 -0.050706723579007976
-0.075458823518568 -0.11114893344627262 -0.056062839253663094
-0.06965505138471294 -0.11599110342376671 -0.0606029522960049
-0.06362731011101488 -0.12152497932907752 -0.06417726620452292
-0.05746444034195519 -0.12777058173175326 -0.06666702656480333
-0.05128110664190554 -0.13455841076120093 -0.06798034988025763
-0.045262776741883046 -0.14153986113517913 -0.06804286473665103
-0.039675280417437744 -0.14822582430516146 -0.06679294450609399
-0.034829338334612284 -0.1540731562287633 -0.06418843408651884
-0.031004429001239446 -0.15859827241440458 -0.06022807810565374
-0.028359495167420267 -0.16149590006243827 -0.054980735038547175
-0.02686275354546518 -0.16275412913157847 -0.0486094662577324
-0.02628316058371851 -0.16268784796254934 -0.041373470109483224
-0.026257453903827548 -0.1619036726281561 -0.03360383435548031
-0.026411518315926506 -0.1611592720659783 -0.02565787163630214
-0.026485397239239063 -0.16118970155422882 -0.017860006718566943
-0.02640313915741785 -0.16253279221991496 -0.010445999545915642
-0.02626355137771438 -0.16542591546565888 -0.0035229374430689312
-0.026258873576139662 -0.16978500079034786 0.002933320679207365
-0.02655630044787727 -0.17528798204044177 0.009035813270537952
-0.02718088752559796 -0.18149843799527235 0.0149076301255008
-0.02794892007039028 -0.1880076191144021 0.020600082636569112
-0.028480834912383592 -0.1945332812114576 0.026050869726045613
-0.02829682598975912 -0.20093890021822047 0.03110475503813139
-0.026966593842595896 -0.20719730318941024 0.03559302161765072
-0.02425528570975993 -0.2133304960501517 0.039433227916041626
-0.020216070605341117 -0.21935321322584353 0.04270239684956015
-0.01519845507097738 -0.22525595842871862 0.045649451384321645
-0.0097723426741422 -0.23101861643185634 0.048636836129782764
-0.0045873166700212175 -0.2366409367011607 0.05202944634350169
-0.00020657433699655808 -0.24216975243265307 0.056069320021908176
0.003044301064004564 -0.24770984137042296 0.06078088722878391
0.005169815093326672 -0.2533991841476223 0.06594411552251452
0.006506727528231693 -0.25934954608037275 0.07115565737177444
0.007630842288419495 -0.26558150440133593 0.07595637634049872
0.009196171198181505 -0.27196036676947083 0.07998560888139408
0.011762055566205593 -0.27819438280312075 0.08310184300918569
0.015665029074228953 -0.28388595990426235 0.08542374657972955
0.020971697062785184 -0.2886376411014336 0.08727990176931702
0.027508665693522005 -0.29217728205804266 0.08909421206725451
0.03495127176586608 -0.29444263395290543 0.09124866787587117
0.04293233554760526 -0.2956064421190479 0.09397459686025152
0.05113887346055684 -0.29602674789495603 0.09729874494993007
0.059369352180284066 -0.296121252562594 0.101052719973776
0.06754566359588766 -0.29623893861461015 0.10493243501220537
0.07568414021710058 -0.2965462754737525 0.10858690409913489
0.08384266747036807 -0.2969806468581199 0.11171310041269315
0.09206535460946838 -0.29729395245656187 0.11413607130411989
0.100339360554913 -0.29714514064444125 0.11586142506116931
0.10857835989365275 -0.29623937266955214 0.11708721229857108
0.11663508402702953 -0.29444636859659923 0.11817209813917884
0.12434043784131352 -0.29186563595565823 0.11955933778085798
0.13154873891422092 -0.28881179360350306 0.1216722838751295
0.13819867642351974 -0.2857411358029778 0.12480457318658157
0.14433235056929927 -0.28312375631477465 0.12903999133184924
0.15010927522786274 -0.2813297035271922 0.1342280826944567
0.15577303390866576 -0.2805506749932787 0.14003591912143443
0.16159281104686066 -0.2807865812005587 0.14604464005880002
0.1677871524745846 -0.2818911706955312 0.15187169741131046
0.17446044534537122 -0.28365336935841773 0.15726855913390356
0.18156644963058374 -0.28588517329604674 0.16216575986854992
0.18891350398771803 -0.288485251733382 0.16665212918222863
0.19619315927360262 -0.2914640586594109 0.17090937718084306
0.20304876060632365 -0.29492785809557165 0.17512730361277898
0.20913151936180466 -0.2990306918122575 0.1794325904994058
0.21416774239633454 -0.30391006299145873 0.18385015478299763
0.2179924163817149 -0.309641196114774 0.18830429090684628
0.2205622296744198 -0.3162066431756942 0.19265118651446717
0.22195088201233681 -0.3235030775779148 0.19672442261857934
0.22231225311969902 -0.3313673801504923 0.20038618006381873
0.22185044038772736 -0.33961266240286075 0.20355378293578216
0.22077928706007058 -0.34806529893949606 0.20621758383791974
0.21929570361174675 -0.3565909330793207 0.2084379897978105
0.21756021394259395 -0.3650974260553158 0.21032390762297434
0.21568873554526066 -0.37353684968017303 0.2120135648107879
0.21374517704365678 -0.38189094452328864 0.21365263035661033
0.21174977711574308 -0.3901539388933334 0.2153750187950891
0.20968780548722982 -0.3983202169105651 0.21729112813924162
0.20752019719159376 -0.40638046669184147 0.2194809941047088
0.20520345350179325 -0.4143260606246152 0.22198529499407815
0.20270417034927382 -0.4221488005655619 0.22480110951714807
0.20001413650139718 -0.42985782991705435 0.2278764528510707
0.19716082869938778 -0.43748448434324133 0.23111144166162034
0.19420997909820184 -0.4450825217455983 0.23436351688124263
0.19125596714392806 -0.45271723641182976 0.23746541167156668
0.18840636694838217 -0.460457642943598 0.24024604383191384
0.18576669937159326 -0.4683627139522131 0.24255578179486245
0.18342096010378858 -0.4764611000601449 0.24429307871160463
0.18141770044521865 -0.48475699210679757 0.24540883835637778
0.17977201587954691 -0.4932264249995848 0.24591602040151705
0.17846106113349167 -0.5018266139320071 0.24586933633766894
0.1774442685922088 -0.5105104167768575 0.24535578029189264
0.17666626631095525 -0.5192282036352925 0.2444737633702155
0.1760655535643891 -0.5279394465867256 0.24332427778602558
0.17558584700962215 -0.536608351331442 0.2419973516101176
0.17517043319474646 -0.5452058826079407 0.24058395334254196
0.17476633945121112 -0.5537050492940798 0.23916258814848176
0.17431803050784858 -0.5620818678976243 0.23781673109887289
LINES 1 120
119 0 1 2 3 4 5 6 7 8 9 10 11 12 13 14 15 16 17 18 19 20 21 22 23 24 25 26 27 28 29 30 31 32 33 34 35 36 37 38 39 40 41 42 43 44 45 46 47 48 49 50 51 52 53 54 55 56 57 58 59 60 61 62 63 64 65 66 67 68 69 70 71 72 73 74 75 76 77 78 79 80 81 82 83 84 85 86 87 88 89 90 91 92 93 94 95 96 97 98 99 100 101 102 103 104 105 106 107 108 109 110 111 112 113 114 115 116 117 118
POINT_DATA 119
SCALARS isSiphon int
LOOKUP_TABLE default
0
0
0
0
0
0
0
0
0
0
0
0
0
0
0
0
0
0
0
0
0
0
0
0
0
0
0
0
0
1
1
1
1
1
1
1
0
0
0
0
0
0
0
0
0
0
0
0
0
0
0
0
0
0
0
0
0
0
0
0
0
0
0
0
0
0
0
0
0
0
0
0
0
0
0
0
0
0
0
0
0
0
0
0
0
0
0
0
0
0
0
0
0
0
0
0
0
0
0
0
0
0
0
0
0
0
0
0
0
0
0
0
0
0
0
0
0
0
0
