# vtk DataFile Version 2.0
Vessel Segment
ASCII
DATASET POLYDATA
POINTS 119 float
-0.006416682019111893 -0.006154816103843085 -0.001013585319353844
-0.012710664366180534 -0.012714844710152245 -0.0001273991208136937
-0.018879617061030127 -0.01943208114049822 0.002076334275092441
-0.024920237915907938 -0.026061889372712563 0.005015656071073468
-0.03082775887162837 -0.0323716303398358 0.008113155354987269
-0.0365920715353539 -0.03815808795753377 0.010810851887737527
-0.04219488606202385 -0.043273930142706626 0.012600621014644946
-0.0476042349659886 -0.04765810615260958 0.01306982003973773
-0.05277113910268363 -0.0513583238222682 0.01195155302301035
-0.05762630597682705 -0.05453376684581685 0.009159798556923756
-0.062079992607129694 -0.05742816833163032 0.004790850981084652
-0.06602454965883117 -0.060317071855783964 -0.0009117515702564812
-0.06934655495305239 -0.06345167966863907 -0.0076160456077487195
-0.07194916337997113 -0.06701967800526952 -0.014960626185064302
-0.07378025338316574 -0.07113425339983137 -0.02259799455502623
-0.07485457190778766 -0.0758481573498776 -0.030218141996855213
-0.07525766862833211 -0.0811761910475146 -0.03756014934265321
-0.0751287249905088 -0.08711154084478957 -0.044417718467159945
-0.07462648411080662 -0.09362975213331527 -0.050647452546568966
-0.07388696890434236 -0.10067639460819765 -0.05618096576334039
-0.07298830652832554 -0.1081494379481627 -0.061037166440802273
-0.07192876694222759 -0.11588402182853844 -0.06532949707323178
-0.07062572063625937 -0.12365297137460819 -0.06925919513052567
-0.06893584012393078 -0.13118992190569015 -0.07308579992935405
-0.0666906049030437 -0.13823370924582257 -0.07707870922626478
-0.06374022621331445 -0.1445869963779936 -0.08145170136375214
-0.059994774775753226 -0.1501726076343357 -0.08629711873790918
-0.055453538563937546 -0.1550671003569856 -0.09153667288652777
-0.0502164352000846 -0.1594915878156223 -0.09690697278643254
-0.044471972932923355 -0.16375864398773154 -0.1019879806704522
-0.03847023392120165 -0.1681738769861436 -0.10627151710020777
-0.032484725023362936 -0.172932171582798 -0.10925609845473973
-0.026774851235009365 -0.17803129132871756 -0.11054402166871023
-0.021558085434722495 -0.18324424336523593 -0.10991651141054577
-0.016998356604950002 -0.18815951641616274 -0.10736829558761311
-0.013209344668817747 -0.19227697856472686 -0.10309574575962369
-0.010265635597785207 -0.19514032274249885 -0.09744577602199686
-0.008209875823067836 -0.19644784568068685 -0.09084330390059786
-0.0070505533014963 -0.19612007224077319 -0.08371168644316879
-0.006749587364027163 -0.19430026725933233 -0.07640815370063091
-0.007210075266167768 -0.1913026307545735 -0.06918057620155535
-0.008276906599913514 -0.18753121315069882 -0.062150262829835524
-0.00975514608230617 -0.18341338440778265 -0.05531638990830359
-0.01144121786627139 -0.17935450146286963 -0.0485761422543324
-0.013154039133332997 -0.17569717510316205 -0.04176449610344198
-0.014755840735174892 -0.17269304348089878 -0.03470626852884535
-0.016160525699495956 -0.1704526737537525 -0.02727238608654875
-0.017334034028055095 -0.16894712160596653 -0.019423771383804272
-0.018289165847037096 -0.16801381113564523 -0.011232832040170145
-0.01907445651496542 -0.16743385315543663 -0.002875812203257217
-0.019757556460051173 -0.16701559290985743 0.005395930853449195
-0.020409147387705766 -0.16669208742915936 0.013301526423709758
-0.02109232156882936 -0.1665751489872606 0.02058238048980223
-0.021857993357855963 -0.16695414836284728 0.027051602417386383
-0.022742629293172906 -0.16820687891883257 0.03263425444330804
-0.023766842695226536 -0.17067812290351478 0.03738587762339383
-0.024933818455738572 -0.17455872446740134 0.04148383660382308
-0.026232854447984497 -0.17982650443681505 0.04518832986440923
-0.027644621916434905 -0.18626094661240247 0.0487807763550919
-0.029150135704133318 -0.19352122011377343 0.05249263361302622
-0.03073643927219387 -0.20124677664787696 0.05644822332704003
-0.03239725691327341 -0.2091452020563741 0.06064206094839256
-0.034128308073836176 -0.21703819911001612 0.06495738012267072
-0.03591703569944062 -0.22486447551875385 0.06921827763772763
-0.03772939800464355 -0.2326452228687239 0.07325773083166721
-0.03949927471660039 -0.2404421546021217 0.07697429447338189
-0.041122228317643755 -0.24830362621257315 0.08035875635539433
-0.042458574186712436 -0.25624994590904093 0.08348779288808786
-0.043344629374515685 -0.2642539852788778 0.08649039273838739
-0.04361406496866965 -0.2722607984628512 0.08950532909820297
-0.043124215383937584 -0.28018703633253667 0.09264773771389664
-0.041781087215268034 -0.2879480729269676 0.09599331530766651
-0.03955657146025347 -0.29546191966297847 0.09958109428085618
-0.036490622528564165 -0.3026484194986514 0.10342472139673728
-0.03267578758143896 -0.30943593263069674 0.10752007586711314
-0.028227322080151877 -0.31575804029613097 0.11184272837159429
-0.023250391013799748 -0.3215526273732178 0.1163380380800528
-0.0178150493733481 -0.3267670469257719 0.12091546998524741
-0.011950890385338362 -0.33136203639540096 0.1254574376598907
-0.005660782677238471 -0.3353102520077238 0.12984648656712441
0.001053262918815349 -0.33860905175276496 0.13400107196252667
0.008165512122995934 -0.34128248535929284 0.13790407432743565
0.015614408054689695 -0.34338653556295484 0.14161079921650763
0.023307268094731763 -0.34500733793200405 0.1452300494649577
0.031137655803351955 -0.34625632042501503 0.14888678450708676
0.03900828858772386 -0.34725294837158716 0.15268550171574605
0.046849682231461916 -0.3480966860609825 0.15667669169372983
0.05462814816205927 -0.3488469338209005 0.160851349394763
0.06234134152887955 -0.3494957191662996 0.1651525697739185
0.07000670006169216 -0.3499717806616604 0.16950706557176873
0.07764694015481621 -0.35016761342090863 0.1738457500266829
0.08527952656503446 -0.34997344073577835 0.1781243040941511
0.09291471057775072 -0.3493408836642577 0.18233003735266126
0.10055719918626009 -0.3483200011191752 0.18646112158749378
0.10821269572050182 -0.34707528201752874 0.1905203025823531
0.11589085373951818 -0.3458705707464119 0.19449664397338023
0.12360443800197617 -0.34501739832402173 0.19836077762725332
0.13136219411564268 -0.344806155314862 0.20208149570921988
0.13915784037880627 -0.3454525373128184 0.20563275672256373
0.14695974873339943 -0.3470452397144418 0.20902697689109748
0.15470118833382523 -0.34954842156203836 0.2123304071411728
0.1622742813578983 -0.35281683087334137 0.21566847295524194
0.16954002247812794 -0.35663815145642336 0.21921348107323238
0.17633317762909903 -0.3607929092711774 0.22316047809375397
0.18248776230080965 -0.36509168145274595 0.22767578582074935
0.18786236141361415 -0.36942183489325453 0.23286504068327885
0.1923577965331334 -0.37375312460104076 0.23873510092270994
0.19592988059005115 -0.3781374149533811 0.24518571998645278
0.19858837371376803 -0.3826861452617688 0.2520294397507085
0.2003773358369099 -0.3875349490446108 0.2590328321453007
0.20136428469802733 -0.3928004353551437 0.26595194082219686
0.2016219250967685 -0.39856165342115574 0.27258342725383017
0.201220974659665 -0.4048382714158028 0.2787819500704682
0.2002328119335291 -0.411592602281042 0.2844724306732722
0.19872523209779136 -0.41874209976140186 0.28963842508853266
0.19676834016016545 -0.42616987915184934 0.29430715495515425
0.19443140363189199 -0.4337440602443692 0.2985324854039019
0.1917840175877965 -0.4413267931761862 0.30237632594706604
0.1888974149578697 -0.44877602916846027 0.305907095657071
LINES 1 120
119 0 1 2 3 4 5 6 7 8 9 10 11 12 13 14 15 16 17 18 19 20 21 22 23 24 25 26 27 28 29 30 31 32 33 34 35 36 37 38 39 40 41 42 43 44 45 46 47 48 49 50 51 52 53 54 55 56 57 58 59 60 61 62 63 64 65 66 67 68 69 70 71 72 73 74 75 76 77 78 79 80 81 82 83 84 85 86 87 88 89 90 91 92 93 94 95 96 97 98 99 100 101 102 103 104 105 106 107 108 109 110 111 112 113 114 115 116 117 118
POINT_DATA 119
SCALARS isSiphon int
LOOKUP_TABLE default
0
0
0
0
0
0
0
0
0
0
0
0
0
0
0
0
0
0
0
0
0
0
0
0
0
0
0
0
0
1
1
1
1
1
1
1
1
1
1
1
1
1
1
1
1
1
1
1
1
1
1
1
1
1
0
0
0
0
0
0
0
0
0
0
0
0
0
0
0
0
0
0
0
0
0
0
0
0
0
0
0
0
0
0
0
0
0
0
0
0
0
0
0
0
0
0
0
0
0
0
0
0
0
0
0
0
0
0
0
0
0
0
0
0
0
0
0
0
0
