# vtk DataFile Version 2.0
Vessel Segment
ASCII
DATASET POLYDATA
POINTS 119 float
-0.0005434762237374995 -0.00826150540023432 0.004136794392441608
-0.002646761290439509 -0.015301798398030465 0.008771666165347688
-0.0059685198506623455 -0.021390179116417943 0.0134884446765654
-0.010165759675359156 -0.02679484400365416 0.017881155022951015
-0.014895153643661747 -0.03177916979264789 0.021572372904724222
-0.01982538182668139 -0.036594393093236206 0.024240595749189246
-0.024663349422081055 -0.041466057064454345 0.025652556004384704
-0.029188200987669624 -0.046576971503413875 0.025691107190502285
-0.03328192981038336 -0.05204729786880012 0.024372217978970205
-0.03693488516001331 -0.05791904456317554 0.02183780283116888
-0.040225130177948765 -0.06414600034180341 0.018322538413044438
-0.043268625799898326 -0.07059448648652103 0.014097369337732929
-0.046155614482766484 -0.07705796861839037 0.009403994688002133
-0.04889760441481097 -0.08328373459905011 0.004405466427306912
-0.05140367498564629 -0.08901067465756811 -0.0008351107095619781
-0.05349447801873407 -0.09401260106251624 -0.006342206778355555
-0.05494875159949118 -0.09813997541145855 -0.012191079308428835
-0.055560943970569175 -0.10135020698431282 -0.018464913680105038
-0.05519209028442406 -0.10372002901088541 -0.02522032544009872
-0.05379590242935903 -0.10543486506722786 -0.03246893774154807
-0.051421790406357935 -0.10676209346442217 -0.04017242046522398
-0.048197945990365434 -0.1080131605741954 -0.048244650076757226
-0.044307164887984016 -0.10950252042514577 -0.0565543443913197
-0.039961719869288335 -0.11150997855641272 -0.06492405628770608
-0.035385129537546654 -0.11425147442604695 -0.07312507258235648
-0.03079983212062813 -0.11785531884322079 -0.08087169959691891
-0.026419456258164678 -0.1223513751042438 -0.08782334691373994
-0.022443234933097654 -0.12767535088618118 -0.09359974923174307
-0.019048595524475798 -0.13366724251486778 -0.09781622253611005
-0.01638264370049407 -0.14009564559413426 -0.10013691651104663
-0.014554912317876754 -0.14667188892838723 -0.10033933593287442
-0.013634581816631039 -0.1530801495383922 -0.09837114133118743
-0.013652285082067069 -0.15900115185488622 -0.09438434592417812
-0.014607709095888988 -0.16413054746309907 -0.08873123671521077
-0.01647507736365449 -0.168194449564213 -0.08192103072858982
-0.019205215508045586 -0.17095557462959501 -0.0745403809016573
-0.02271874585403309 -0.1722250250057651 -0.0671578734912984
-0.026897241149876405 -0.17188403580501968 -0.06023653200567166
-0.031577812577984025 -0.1699081775795318 -0.05406825187059811
-0.03655953977360318 -0.1663952708588382 -0.048742312904174794
-0.04161968826778695 -0.16157194711050044 -0.04415156780034659
-0.04653556665567802 -0.1557933164814292 -0.04003370424094508
-0.05110471218077199 -0.149505654937922 -0.036038843728318844
-0.05515413677631423 -0.1432041536490736 -0.031804972768422354
-0.058541018457007446 -0.13737040732994882 -0.027034388995228056
-0.06114488493292449 -0.13241702893099333 -0.021547644233653174
-0.06286236805379451 -0.12864946077028067 -0.015309252371253686
-0.06361108105730262 -0.1262377100737808 -0.008419955711966205
-0.06334721008536681 -0.12522559375686323 -0.001079678058910166
-0.06208789027121817 -0.12555273282138707 0.006465747959800256
-0.05992796279419588 -0.12709047159205206 0.013979172078483622
-0.05704128806656602 -0.12967765929239036 0.02127335019144287
-0.053662162912576715 -0.1331537916503971 0.028230874802768355
-0.05005240588941134 -0.13738033720607346 0.034800090279607045
-0.046463198930535535 -0.14224830841217354 0.04097094672699411
-0.04310276186495656 -0.14768461201737437 0.04674145165499653
-0.04011574649100546 -0.15364230018502542 0.05208633543877138
-0.03757201979154079 -0.16009271957584464 0.05693937045728358
-0.03546731325917398 -0.16700591118981223 0.061194323590324964
-0.03373377299870737 -0.17433835880131984 0.06471845539712634
-0.03225591371610274 -0.18202477864350827 0.06737512500981374
-0.030893297663812342 -0.18998491080483165 0.06905011774320996
-0.02950030517702375 -0.1981304979846647 0.06967984496371654
-0.02794324769521142 -0.20637849925780613 0.06927645157298935
-0.02610903273888942 -0.21465067543223196 0.06794465219610689
-0.02390612673925297 -0.22288162920903745 0.06588017596387585
-0.021259213163052695 -0.231001702397266 0.06335212747868808
-0.01810206903923082 -0.23893121204844722 0.06066953443607192
-0.014373715655400255 -0.24657220151259857 0.05814399274235968
-0.010019471190073482 -0.25380806881897683 0.056057598428940744
-0.004999638038835707 -0.2605119037383564 0.054638749543184824
0.0006971968561773752 -0.26655798307915607 0.05404998578203967
0.007041922623231251 -0.27184247256263616 0.05438410443882787
0.013957940348939619 -0.2762965749391689 0.05566770123248333
0.021324621025985407 -0.27988412347858665 0.05787092681398885
0.02898933166820689 -0.28260854949113556 0.060918813309048817
0.0367847217615734 -0.28449279811886685 0.06470368092403667
0.04454661836089563 -0.2855789405497004 0.06909678287628586
0.05212903804527928 -0.28591256640673246 0.07395965814856655
0.05941672503875548 -0.28553315134413376 0.07915452180557818
0.0663351675464399 -0.28447405647842605 0.08455086822734026
0.07285835683693812 -0.28276363480933175 0.09003102570838072
0.07901486119259693 -0.2804316333747609 0.09549175019329104
0.08488797475582482 -0.2775174120656684 0.10084588386207137
0.09060919017961745 -0.2740916844779115 0.10602579821412893
0.09633990379487173 -0.2702574198651184 0.11098775538387624
0.10224287876990648 -0.2661527341910975 0.11571834602596553
0.10844967214416908 -0.2619497297693248 0.12024093758481767
0.11502973123195095 -0.25784547049355777 0.12461406330338222
0.12196895212455368 -0.2540550778981351 0.12893018096892211
0.12916202062700452 -0.2508021839169991 0.13330018723757334
0.13641268257774944 -0.2483074531349281 0.13784007644577315
0.14345350488035408 -0.24677122687094652 0.14265375746205133
0.14997231922914478 -0.24635175664681308 0.14781451420810793
0.15565695574351687 -0.24715333233484185 0.15334382074680972
0.16023941297701352 -0.2492146040373583 0.15920273104106422
0.16354199373371334 -0.2525084647824026 0.16528983156214216
0.16550392309734693 -0.2569484900986665 0.17144599062580704
0.16618311544945902 -0.26239953670737026 0.17748459322127205
0.1657387165359417 -0.26869421710552754 0.18321694191057594
0.1643892605474889 -0.2756516196940459 0.18848614423711524
0.1623776297715176 -0.2830955264888827 0.19319182907858895
0.15993887282021654 -0.2908665310238673 0.19729928935521876
0.15727795962924823 -0.2988378938338022 0.20084312925091943
0.1545607500139234 -0.30691590804060453 0.20391453973517465
0.15191975170303723 -0.3150364646726346 0.206639723560151
0.1494506140049516 -0.3231691368172152 0.20915936138094648
0.1472240962942702 -0.33129962208543534 0.21160602537571468
0.1452887734885144 -0.33942881416075144 0.21408958932402303
0.14367811013596646 -0.3475623792366865 0.21668816924263332
0.1424131503978542 -0.35570566434655515 0.21944817119206814
0.14150396946084073 -0.3638621730618191 0.22238347137524986
0.14095027736336857 -0.37203025133672774 0.2254885183838449
0.1407436932022825 -0.3802058144168383 0.228739187247351
0.1408600759733659 -0.38838373528533526 0.23209915567641512
0.14126758359530794 -0.3965536568109924 0.23552575177335947
0.1419275680248114 -0.40471028492503425 0.2389760129985053
0.14279801109784462 -0.41284402120076236 0.2424021542466655
0.14383550198708628 -0.42094572979921185 0.24575845809534308
LINES 1 120
119 0 1 2 3 4 5 6 7 8 9 10 11 12 13 14 15 16 17 18 19 20 21 22 23 24 25 26 27 28 29 30 31 32 33 34 35 36 37 38 39 40 41 42 43 44 45 46 47 48 49 50 51 52 53 54 55 56 57 58 59 60 61 62 63 64 65 66 67 68 69 70 71 72 73 74 75 76 77 78 79 80 81 82 83 84 85 86 87 88 89 90 91 92 93 94 95 96 97 98 99 100 101 102 103 104 105 106 107 108 109 110 111 112 113 114 115 116 117 118
POINT_DATA 119
SCALARS isSiphon int
LOOKUP_TABLE default
0
0
0
0
0
0
0
0
0
0
0
0
0
0
0
0
0
0
0
0
0
0
0
0
0
1
1
1
1
1
1
1
1
1
1
1
1
1
1
1
1
1
1
1
1
0
0
0
0
0
0
0
0
0
0
0
0
0
0
0
0
0
0
0
0
0
0
0
0
0
0
0
0
0
0
0
0
0
0
0
0
0
0
0
0
0
0
0
0
0
0
0
0
0
0
0
0
0
0
0
0
0
0
0
0
0
0
0
0
0
0
0
0
0
0
0
0
0
0
