# vtk DataFile Version 2.0
Vessel Segment
ASCII
DATASET POLYDATA
POINTS 119 float
-0.003915173432293025 -0.0073811684159856405 0.0015967374674639159
-0.008420057462392163 -0.015119447468405671 0.003193830641132955
-0.01345480428104603 -0.022918849780027516 0.004709207381080568
-0.018953829240548378 -0.030489753562892505 0.006056546157990905
-0.02483404849973849 -0.03756215597706054 0.007137074267527377
-0.030977796773154598 -0.04391187413016643 0.00782790193038874
-0.037217665489771824 -0.049393305589277244 0.007972851920277522
-0.043333612144714255 -0.053970674261461064 0.007384747062003538
-0.049073013156856124 -0.057732594587541104 0.00586806235255211
-0.054194171977721056 -0.06087462570536971 0.003262976549054545
-0.05852316749022972 -0.06365756273100877 -0.0004995720912770469
-0.06200114441486671 -0.06635265304723652 -0.005355237934824966
-0.06469822934018224 -0.06919346721107636 -0.011099796768440843
-0.06678531934522929 -0.07234284804776947 -0.017428379542716855
-0.068465567281473 -0.07586777039372822 -0.02401179310268489
-0.06989293897401835 -0.07972337313696512 -0.030582279768626885
-0.07110510073940929 -0.0837551297150995 -0.036998536466257406
-0.07199843812148028 -0.0877370883124459 -0.043257652517368975
-0.07234931408104123 -0.09144854870784186 -0.04945298575849011
-0.07187522987444157 -0.09476792196400048 -0.05569317118178663
-0.07031382516786382 -0.09774281832161234 -0.06201819190583312
-0.067494670483164 -0.10060289565460336 -0.0683477498424228
-0.0633891677723938 -0.10370326271794791 -0.07447374052142582
-0.058126311338373815 -0.1074127342086783 -0.08009850391709099
-0.05198236046773778 -0.11198452855820784 -0.08489442637748992
-0.045350066159775174 -0.11745167508809307 -0.08856659656661675
-0.038695968564206776 -0.12357944004594872 -0.09089960253760873
-0.03251249929342408 -0.1298851109517112 -0.09178234970926459
-0.027266632741995814 -0.1357311233548919 -0.09120992291153497
-0.02334755202318057 -0.14046705618808852 -0.08926649964010173
-0.021017708205788146 -0.1435889245857239 -0.08609878746522497
-0.020373296665994304 -0.1448707688977766 -0.08188380392454775
-0.021327246301045585 -0.14442705754388133 -0.076797890198271
-0.02362369476415574 -0.1426766999831998 -0.07099359479319799
-0.026882856470611182 -0.14022157634106808 -0.06458981307550352
-0.030666492951598356 -0.13767946704948383 -0.05767721046705015
-0.0345461303471863 -0.1355296531268772 -0.05033486561802242
-0.038158096367586804 -0.13402574609807832 -0.0426466448923255
-0.04123784237374818 -0.13319643370880688 -0.03471220372700541
-0.04363086817607039 -0.1329193940459446 -0.02664738753960595
-0.04528705565375541 -0.13302483810238325 -0.018573654113446025
-0.04623977749626739 -0.1333843597254869 -0.010599648881715844
-0.046573067574410466 -0.13395122718106553 -0.0027990036499796057
-0.046384603311049426 -0.13474636478100654 0.004806927591963528
-0.04575468427626988 -0.13580473861480796 0.01225274605180732
-0.04473538463355306 -0.1371203528819332 0.019616122806992337
-0.04335647534144714 -0.13862570908314378 0.02699059630391764
-0.04164107173740206 -0.1402223218467975 0.034450890556239275
-0.03961599219241808 -0.14184420351918367 0.0420176202797921
-0.03731282860361966 -0.14351917605128744 0.04963406541223946
-0.03476552223646489 -0.14539449281632272 0.057161427957649724
-0.032016773134085824 -0.1477113828083167 0.0643990594775976
-0.029141416945407023 -0.1507387038669524 0.07112760220995469
-0.026279536954988525 -0.15469573715149418 0.07716060302570345
-0.023652943266445233 -0.15969036003913575 0.08238897465526276
-0.021547028640273806 -0.16569377777718328 0.08680294042609213
-0.02025294585496068 -0.1725595929889904 0.09048546577118184
-0.01999168762924559 -0.18006115353151766 0.09358608902460416
-0.020847586882179442 -0.18795769423899084 0.0962856304112978
-0.022738187261807347 -0.19604285514421246 0.09876579813950749
-0.025429266297094556 -0.20417703909571572 0.10119023984322298
-0.02859072434962263 -0.21229907761534017 0.10369765397505289
-0.031868847827551935 -0.2204035421766789 0.10640187755028638
-0.03495117808213369 -0.2285165868151513 0.10939589174107611
-0.03760377658014069 -0.23666005436541163 0.11275022978889822
-0.03967209947967543 -0.24482253354313394 0.116507182691379
-0.04105389961825981 -0.2529441919040089 0.12067069505847751
-0.04165950005188556 -0.2609164768575145 0.12519601893065654
-0.04138136473527981 -0.2685856714520664 0.12998629700920494
-0.04008791602998604 -0.27578039468522153 0.134900912870363
-0.03764510401463016 -0.28233125723842395 0.13977566128998745
-0.03395658015635532 -0.2880980872276754 0.1444528444742735
-0.029002992487581678 -0.29299826673214696 0.1488135428322732
-0.022864207826148026 -0.2970129456226359 0.1528030758168111
-0.015715418129669596 -0.300198283235968 0.15643456929037777
-0.00779928488489262 -0.3026612917625624 0.1597915621256307
0.000613839729079901 -0.3045427242663896 0.16300004105693283
0.009265112939458696 -0.30598178147126975 0.16620396829119183
0.017936379445836644 -0.3070957577140587 0.16954350640670215
0.02646481488664572 -0.3079566227567578 0.17313390299976128
0.034745441723206774 -0.3085841257797705 0.17705206908864607
0.042725108199338675 -0.30895127404387795 0.18133389880249928
0.05039536781401536 -0.3089967405876226 0.185963890372151
0.057786187894946585 -0.3086460688482247 0.19087948810923658
0.0649621856822128 -0.30783276448155594 0.1959685369380494
0.07201711282283739 -0.3065201530428951 0.2010843769964994
0.07906542808695453 -0.3047057844434435 0.2060666700639121
0.0862252383121149 -0.30243226961890274 0.21076995945578056
0.09359733057475335 -0.29978249833508874 0.21510010248168973
0.10124257150876123 -0.29687351604104156 0.21904308456190966
0.10916372869092936 -0.2938584009925946 0.2226718190028971
0.11729749914897376 -0.2909111665257083 0.2261343935244118
0.12551922703849042 -0.288241780049263 0.22962316348700784
0.1336598468311698 -0.28607797898304294 0.23332455540673713
0.141533495106101 -0.2846636213856907 0.2373755910328948
0.14896975170801527 -0.2842300595390488 0.24183157412131553
0.15584569638754694 -0.28497364906316813 0.24664781164728766
0.16210942065830106 -0.28701701652477357 0.2517044137383874
0.1677849247502266 -0.29037679934051147 0.25684445423232444
0.1729639723431618 -0.29495078524803564 0.2619213516746534
0.17777211416328406 -0.3005174843387684 0.26685847877138785
0.18232900673767727 -0.3067748486178429 0.27166097518492993
0.18669516449753953 -0.31338194549802656 0.27642181788232123
0.19083978625849027 -0.3200291963479687 0.2812736629660682
0.19462604926263863 -0.326494235611803 0.2863378301119137
0.19782880375072057 -0.332674827350961 0.2916730767081861
0.2001848750515657 -0.33859295365827996 0.2972424575086437
0.20145308081180002 -0.3443738102190533 0.3029136553038127
0.20148466623840922 -0.35019555071454217 0.3084928328363106
0.20025972575286025 -0.3562408892460777 0.31377689003907233
0.19790107806703963 -0.36265346023703005 0.3185976605831593
0.1946490602899909 -0.36951731412421196 0.3228581856907782
0.19082270821601374 -0.3768529800189453 0.326543760125819
0.1867750932875223 -0.38461896458670725 0.3297114062041852
0.1828579272947776 -0.39273418454847875 0.3324772530471538
0.17940600665436943 -0.40109333972623307 0.33499046135659255
0.17673861828995713 -0.40957203162147227 0.33741814340868853
0.17516128170279702 -0.41804840900422696 0.3399353144013344
0.17497858811758094 -0.426392282754022 0.3427170145883787
LINES 1 120
119 0 1 2 3 4 5 6 7 8 9 10 11 12 13 14 15 16 17 18 19 20 21 22 23 24 25 26 27 28 29 30 31 32 33 34 35 36 37 38 39 40 41 42 43 44 45 46 47 48 49 50 51 52 53 54 55 56 57 58 59 60 61 62 63 64 65 66 67 68 69 70 71 72 73 74 75 76 77 78 79 80 81 82 83 84 85 86 87 88 89 90 91 92 93 94 95 96 97 98 99 100 101 102 103 104 105 106 107 108 109 110 111 112 113 114 115 116 117 118
POINT_DATA 119
SCALARS isSiphon int
LOOKUP_TABLE default
0
0
0
0
0
0
0
0
0
0
0
0
0
1
1
1
1
1
1
1
1
1
1
1
1
1
1
1
1
1
1
1
1
1
1
1
1
0
0
0
0
0
0
0
0
0
0
0
0
0
0
0
0
0
0
0
0
0
0
0
0
0
0
0
0
0
0
0
0
0
0
0
0
0
0
0
0
0
0
0
0
0
0
0
0
0
0
0
0
0
0
0
0
0
0
0
0
0
0
0
0
0
0
0
0
0
0
0
0
0
0
0
0
0
0
0
0
0
0
