# vtk DataFile Version 2.0
Vessel Segment
ASCII
DATASET POLYDATA
POINTS 119 float
-0.0027253113426763524 -0.007896855997981027 0.004326671153048303
-0.006334149295096937 -0.015046283122180143 0.007867180963212837
-0.010750352682793434 -0.02159399365377888 0.01076990707081946
-0.01589626735536664 -0.02768562573891717 0.013183892488663303
-0.021690126070914993 -0.0334644860872146 0.015259358921594642
-0.028040599506537377 -0.03906779070106731 0.01714691070364191
-0.034841002069307514 -0.04461569460886885 0.018993923356355635
-0.041963283037770076 -0.050195287317014406 0.020934323626989586
-0.049254786416286604 -0.055842203614134805 0.0230713311377692
-0.05653786760210124 -0.061523248965161315 0.025452703087357215
-0.06361501616342408 -0.06713008577363767 0.028043153840773775
-0.07027939733027128 -0.0724886197084324 0.030701699000471042
-0.07633155580235938 -0.07738719394316476 0.033176092438289194
-0.08160136875009566 -0.08162208765643361 0.035123791117092545
-0.08597189866706126 -0.08505162726195703 0.03616129966965032
-0.0894009862476904 -0.087644372978164 0.03593292019974302
-0.09193514927662194 -0.08950915660448555 0.034185555201492926
-0.09369882390929107 -0.09088173788650036 0.030810265599595963
-0.09486765908830673 -0.09207880465506557 0.025860700612860856
-0.09563120372836882 -0.09343837284362651 0.019549344205505557
-0.09614532300035468 -0.09524651785707286 0.012198030225885887
-0.0964958263692323 -0.09768827770604954 0.004179108103197599
-0.09668411057391563 -0.10083112838767956 -0.004139161392223108
-0.0966332805861857 -0.10464072948713435 -0.012435024004435174
-0.09621443584396869 -0.10901621859655386 -0.020457775502270115
-0.09528240484876847 -0.11383162544086672 -0.028036357130093184
-0.09371475131985027 -0.1189709780241143 -0.03507552607914196
-0.09144501619070765 -0.12434934843742036 -0.04154531112867246
-0.0884848848114243 -0.12991890993913036 -0.04746451230257994
-0.08492972400546879 -0.1356640000281149 -0.05288166479518079
-0.08094975800455427 -0.141590376342087 -0.057851646448057785
-0.07676932392669666 -0.14771264072751655 -0.062411287771739064
-0.07263793519461023 -0.1540527789275198 -0.06655442210144931
-0.06879943470516577 -0.1606311999527981 -0.07021575224237057
-0.06545925437424832 -0.16746751899641388 -0.07326924347174948
-0.0627587053169789 -0.17457215330647322 -0.07554630967036674
-0.060757523616712585 -0.18193485046484645 -0.07687035882633864
-0.05942955277132005 -0.18951068641046032 -0.07709898191632757
-0.0586745594777822 -0.1972101621674533 -0.07615240306863368
-0.05834322795750121 -0.20489729935075837 -0.07402426137019524
-0.0582699006660555 -0.21239635797323222 -0.07077241707833536
-0.05831080165794661 -0.21952250635758777 -0.06649778728044095
-0.05837604473372435 -0.22611298855594586 -0.06132494805755009
-0.05844776647302197 -0.23205467582141398 -0.055392575842050776
-0.05857684933361662 -0.2373240561391667 -0.04885213738254955
-0.058856176553273035 -0.2419902402052774 -0.04187164120941067
-0.05937613001613329 -0.24621416328848342 -0.03463493328125331
-0.060176590054947784 -0.25021510714095857 -0.027337373099716587
-0.061212953378132755 -0.2542396309450806 -0.020174903529955875
-0.06235111433218305 -0.2585223501062075 -0.013331764606737677
-0.06339272166281712 -0.2632592556894215 -0.0069691195779544605
-0.0641257468044817 -0.26858952134103947 -0.0012152525476781663
-0.06437763997835223 -0.2745808078079694 0.0038409555743509623
-0.06405568482872176 -0.28124184912589095 0.00815644620838122
-0.06315668370841006 -0.28851549131512744 0.0117398652716221
-0.06174968622378937 -0.2962976612690475 0.014656178464346326
-0.059938382459807794 -0.30444385467271246 0.017026801318813792
-0.05782257884236908 -0.3127949125530332 0.019022248824198642
-0.05547131993794913 -0.3211796236316139 0.02084475038981669
-0.052915928414100304 -0.3294478855687256 0.022703258028663242
-0.05016026227324336 -0.3374863490328894 0.02478339357826956
-0.04720413239472367 -0.34523376463255245 0.027220785115391118
-0.04406667397578281 -0.3526912673173553 0.03008170910751581
-0.040801855931915335 -0.3599125877995905 0.033358142846008944
-0.037497883695811945 -0.3669941557328983 0.03697660708029459
-0.03426062092256937 -0.37405289762172284 0.040819180221273545
-0.031184576760697958 -0.38118714320721897 0.04475097582695321
-0.02832146028728209 -0.3884639373251873 0.04864756920031346
-0.025655083793339573 -0.39588424626099195 0.052416755077491585
-0.023091217809506175 -0.40339195028747227 0.05601074567210311
-0.020467843099230665 -0.41087367193152863 0.05942755977225623
-0.0175824403564036 -0.4181845560433918 0.06270295699928027
-0.01423174574528695 -0.4251687922318972 0.06589559606721791
-0.010251672715069946 -0.43169767608551424 0.0690690002386298
-0.005544630272953887 -0.4376866413014327 0.07227558025040333
-8.986633323077537e-05 -0.4431057762591556 0.07554352002103075
0.006064127163142062 -0.4479714073532168 0.07887051557385444
0.012820778280480283 -0.45233909097682945 0.08222464208104661
0.02005913056131903 -0.4562799050622962 0.08555394278122778
0.02765351170044639 -0.45986206757948117 0.0888024662610263
0.035483421148480555 -0.46314278981670964 0.09193210900968397
0.04343637231885825 -0.4661555912329392 0.09494304497565424
0.05140390190132852 -0.4689120930387723 0.09789101992469926
0.0592774123243161 -0.4713982581646166 0.10089015564975928
0.0669469521527447 -0.47358474122694866 0.10410062497639487
0.0743087252117879 -0.47544335791368614 0.10769943605384658
0.08127614762871811 -0.4769411653785609 0.1118423550485435
0.08779525380833615 -0.47806865920455544 0.11662861050227029
0.09385612204960495 -0.4788228143548254 0.12207826843726706
0.09949603948703802 -0.47922255217430676 0.12813074877348174
0.10479638745984768 -0.4793011499274078 0.1346608675939629
0.10986812647858857 -0.47911422832817885 0.1415080980958125
0.1148328678745283 -0.4787327778015227 0.14850640892173594
0.1197992729118141 -0.47826269565029456 0.15552167703030673
0.12484413046659866 -0.4778291607766312 0.16246017969350462
0.1299987519137543 -0.47757332391665647 0.16927460646726372
0.13524998192988463 -0.4776419496067792 0.17595611038890827
0.14055178012023956 -0.47817082799300437 0.18251168262698958
0.1458469036236439 -0.4792785738422488 0.18893604549064413
0.15108455215418334 -0.481065963894843 0.1951938457958838
0.15623886612363377 -0.4836053177543453 0.20122463973413043
0.16130750060910565 -0.4869365720035353 0.20694546383837437
0.1663052480292465 -0.49104685743561494 0.21229101892102567
0.1712470337273503 -0.49586940314320754 0.21723463095735987
0.17613396841687362 -0.5012844309357178 0.22181716373587548
0.18094549589756403 -0.507119710874827 0.22615256708568962
0.18562910711320363 -0.5131839692811258 0.23041752198582868
0.1901191408965395 -0.51927550841265 0.23481958910879888
0.1943354561567091 -0.5252247894235189 0.2395579381410554
0.19820302375488869 -0.5309061148120612 0.24478260059003032
0.20165532623082028 -0.5362632237532633 0.25056303431172644
0.2046338234808857 -0.5413173718185023 0.25687070993386973
0.20708966725584185 -0.5461726664242181 0.26357561559206016
0.20896955125227826 -0.5510021114069535 0.270461272068368
0.21022293981551785 -0.556031849495582 0.27724503719279053
0.2107889623953437 -0.5615252106353836 0.2836028444014147
0.21060659136554957 -0.5677598677033135 0.28918970715362274
0.209613773751835 -0.5750217631746248 0.29364938342157726
0.20774871484840865 -0.5836011907267753 0.2966293715494743
LINES 1 120
119 0 1 2 3 4 5 6 7 8 9 10 11 12 13 14 15 16 17 18 19 20 21 22 23 24 25 26 27 28 29 30 31 32 33 34 35 36 37 38 39 40 41 42 43 44 45 46 47 48 49 50 51 52 53 54 55 56 57 58 59 60 61 62 63 64 65 66 67 68 69 70 71 72 73 74 75 76 77 78 79 80 81 82 83 84 85 86 87 88 89 90 91 92 93 94 95 96 97 98 99 100 101 102 103 104 105 106 107 108 109 110 111 112 113 114 115 116 117 118
POINT_DATA 119
SCALARS isSiphon int
LOOKUP_TABLE default
0
0
0
0
0
0
0
0
0
0
0
1
1
1
1
1
1
1
1
1
1
1
1
1
1
1
1
1
1
1
1
1
1
1
0
0
0
0
0
0
0
0
0
0
0
0
0
0
0
0
0
0
0
0
0
0
0
0
0
0
0
0
0
0
0
0
0
0
0
0
0
0
0
0
0
0
0
0
0
0
0
0
0
0
0
0
0
0
0
0
0
0
0
0
0
0
0
0
0
0
0
0
0
0
0
0
0
0
0
0
0
0
0
0
0
0
0
0
0
