# vtk DataFile Version 2.0
Vessel Segment
ASCII
DATASET POLYDATA
POINTS 119 float
-0.0017373481565176032 -0.006386124817515391 0.006790860927540024
-0.00430216621052937 -0.012578200365305544 0.012681694922975583
-0.007637472420282393 -0.018590728904873115 0.017773344023742792
-0.01168766223114424 -0.024438323751170794 0.022167278479411353
-0.01640118371705712 -0.030135574968620005 0.025966898975213218
-0.021733259835036798 -0.035697535626997935 0.029278345790208906
-0.027645968161194436 -0.041138565331183125 0.032213232426321244
-0.03410060273585326 -0.04647191019882305 0.03488856214054712
-0.041043794772466245 -0.05170719185441734 0.037423539443463084
-0.04838844754125457 -0.05684590335594208 0.039929698173694725
-0.055997352288863204 -0.061874468343787944 0.0424909806357937
-0.06367434114322268 -0.06675557526082865 0.04513559133489178
-0.07117030443375906 -0.0714227922721225 0.047809332605264925
-0.07820411558283666 -0.07577987157162694 0.050359585133259555
-0.08449891483381662 -0.07971153878776387 0.05253820606969977
-0.08982753664533535 -0.08310251194947475 0.05402897476447186
-0.09405834892943306 -0.08586258569528922 0.05449632416600639
-0.09718928894978672 -0.08795149995942697 0.053643284232174716
-0.0993567324535141 -0.08939372984833847 0.05126696780640305
-0.1008093270678511 -0.09027727448554576 0.04729497309532094
-0.10184707275471928 -0.09073689671627684 0.04179640646400376
-0.1027477259386214 -0.09092917990896435 0.034963367369776226
-0.10370245349477578 -0.09101284253353335 0.02707582778269456
-0.1047757173155564 -0.0911405624243778 0.018464461047919548
-0.10590349168654518 -0.09146062396048117 0.009472401809921177
-0.10691953991266007 -0.09211915068796322 0.0004252148447815432
-0.10759894274572547 -0.09325838389696564 -0.008392755587590025
-0.10770500604755406 -0.09500489222316544 -0.01675380771629559
-0.10703330807626713 -0.0974519299808394 -0.02449615002654982
-0.10544465129307236 -0.10064361167042853 -0.031526225047509286
-0.10288027863437157 -0.10456550956288925 -0.03781439212093944
-0.09936334405207164 -0.10914769642713767 -0.043383521365985424
-0.09498721367670457 -0.11428194521232075 -0.04828886127272736
-0.08989958882065988 -0.11984748400499691 -0.052592246022927225
-0.0842840037075063 -0.12573823938028927 -0.05633481778934799
-0.07834206400318665 -0.13188152802966502 -0.0595166371110185
-0.07227795352151187 -0.13824138530362565 -0.06208878162270451
-0.06628543449413511 -0.14480586439431417 -0.06395982598700503
-0.06053891190977262 -0.15156471567980226 -0.0650150119160265
-0.055189113551874926 -0.15848101215417626 -0.06514080778798145
-0.05036278312149456 -0.16547456508153083 -0.06424788235181605
-0.046164455209710915 -0.1724243487584834 -0.0622870307851689
-0.04267781190640983 -0.1791709153168567 -0.05925650035540206
-0.03996531919946847 -0.18555247540447048 -0.05520418632183632
-0.038062787105449615 -0.19143202862546943 -0.05022472674425358
-0.036973780807644144 -0.19673286360993883 -0.044451531152633714
-0.03666341412082773 -0.2014606482195069 -0.03804589194435531
-0.03705836072152477 -0.20569380329294645 -0.031180887108326578
-0.038051075517808675 -0.20956978765689196 -0.024022893020103936
-0.03951030011385349 -0.21325715636827708 -0.01671324008630811
-0.04129699743274149 -0.21691802302182986 -0.009356835487331272
-0.04327968911081035 -0.22067999017837345 -0.0020197091173841026
-0.045351020003210216 -0.22463399498646847 0.005263030639074989
-0.04743873060786174 -0.2288229626071256 0.012473076247743528
-0.04950728494841191 -0.23326036363506783 0.019592331365902653
-0.051545657793183056 -0.23794546440589032 0.026589731421066166
-0.05354518830869692 -0.2428786508354336 0.033413231258605146
-0.055475352567779405 -0.2480724775881877 0.03998937506906916
-0.057264885239466684 -0.25356502252266616 0.046229697271009874
-0.05880079134642038 -0.2594017746311286 0.05204068293765858
-0.059943674343731844 -0.26563361966458926 0.057335850379803675
-0.060556715965733074 -0.2722877569561163 0.06204602502864826
-0.0605338885831193 -0.27936739101928015 0.06612529650217999
-0.05982097724735751 -0.28683774988475236 0.06955251803614532
-0.05842165404386113 -0.2946399723496759 0.07233143870897037
-0.05639305682287187 -0.3026946929007087 0.07448963683998927
-0.05383366685467891 -0.31092304229615675 0.07608012475145048
-0.05086751289076728 -0.3192510736728281 0.07718390039500922
-0.047627927953678 -0.32762162723192256 0.07791096198665784
-0.0442437454196119 -0.3359910715808317 0.07840073192502212
-0.040827586418455915 -0.3443323931515248 0.0788181500240215
-0.037468097607889474 -0.352619363781657 0.0793455734056493
-0.0342252393137068 -0.3608268851611498 0.0801711213607281
-0.031127817448374364 -0.36891661579159074 0.08147174847616721
-0.028170956432517765 -0.37683746679652996 0.08339338467234285
-0.025317147492868407 -0.3845232477704288 0.08603227831802518
-0.022496679261748902 -0.3918947963099925 0.0894212141152395
-0.019612347053740986 -0.3988695835236761 0.09352379524867581
-0.016546440232188084 -0.4053681914833124 0.09823974414842437
-0.013173494782558245 -0.411330837708046 0.10341997559567814
-0.009374934976418168 -0.4167230948403864 0.10888569844812754
-0.005055478091649643 -0.4215571778636659 0.11444990485894016
-0.00015689197215394855 -0.425887351106224 0.11993840805759959
0.005334867202564688 -0.42980742405973626 0.12520990050087352
0.011389919447315426 -0.433435163880969 0.1301688105485404
0.017941887902652894 -0.43688993840418056 0.13477338260414803
0.02490118357350155 -0.44027036575899936 0.1390326024365595
0.032168385473528655 -0.4436312108727086 0.1429966752242894
0.039645815770725186 -0.44698202146632443 0.14674202743032091
0.04724241256677565 -0.450277271823047 0.15036370592476161
0.054873259457552864 -0.45342877009360905 0.15396114294074098
0.06245516967941753 -0.45632550664034655 0.15763161911068121
0.06990205515785831 -0.4588537053261943 0.16147321184592228
0.07712374435650378 -0.46092870887141824 0.16557501211721593
0.08402960182025063 -0.4625096253993128 0.1700173969814605
0.0905394227875327 -0.46361644351242576 0.17487174722517385
0.09659837127194726 -0.4643292660632209 0.18018825128703803
0.10219170534253688 -0.4647688619425202 0.1859928601012717
0.10735355923277617 -0.465075260632015 0.19227891292795923
0.11216719547798827 -0.46537682231544036 0.19900318492671062
0.11675227036778388 -0.4657687876309613 0.20607949610727316
0.12124248118998143 -0.46631131001397114 0.21338954801058088
0.1257550945628457 -0.4670485242808206 0.2207853243909621
0.13035688950093058 -0.46803225842419055 0.22810604473130353
0.13503634264473877 -0.4693494433060762 0.23520209065009956
0.13969153131292344 -0.4711217911789648 0.24194769110612951
0.14414036257329757 -0.47349808896449186 0.24827071371243384
0.1481623595170299 -0.47661269450965454 0.25415705520941334
0.1515454603447315 -0.48055503424712975 0.2596512405659551
0.15414322099511468 -0.48533363520440886 0.26485214827039305
0.15592874018528416 -0.49086149322701933 0.26989091888510963
0.15700068229549788 -0.496963928253259 0.2749066526042219
0.1575935920571659 -0.5034030483762801 0.28002915143094176
0.15805132985188206 -0.5099087352251646 0.2853559476636237
0.15879203658459448 -0.5162016706835362 0.2909449442891697
0.1602847266065709 -0.522009597110336 0.29682444612133435
0.16301878882967494 -0.5270718047068012 0.30299318987222296
0.1674919608012156 -0.5311348743749994 0.3094458661249835
0.17419997019890077 -0.5339488175084683 0.3161686880506457
LINES 1 120
119 0 1 2 3 4 5 6 7 8 9 10 11 12 13 14 15 16 17 18 19 20 21 22 23 24 25 26 27 28 29 30 31 32 33 34 35 36 37 38 39 40 41 42 43 44 45 46 47 48 49 50 51 52 53 54 55 56 57 58 59 60 61 62 63 64 65 66 67 68 69 70 71 72 73 74 75 76 77 78 79 80 81 82 83 84 85 86 87 88 89 90 91 92 93 94 95 96 97 98 99 100 101 102 103 104 105 106 107 108 109 110 111 112 113 114 115 116 117 118
POINT_DATA 119
SCALARS isSiphon int
LOOKUP_TABLE default
0
0
0
0
1
1
1
1
1
1
1
1
1
1
1
1
1
1
1
1
1
1
1
1
1
1
1
1
0
0
0
0
0
0
0
0
0
0
0
0
0
0
0
0
0
0
0
0
0
0
0
0
0
0
0
0
0
0
0
0
0
0
0
0
0
0
0
0
0
0
0
0
0
0
0
0
0
0
0
0
0
0
0
0
0
0
0
0
0
0
0
0
0
0
0
0
0
0
0
0
0
0
0
0
0
0
0
0
0
0
0
0
0
0
0
0
0
0
0
