# vtk DataFile Version 2.0
Vessel Segment
ASCII
DATASET POLYDATA
POINTS 119 float
-0.0035979812186161643 -0.007245671047733918 -0.0035789239820901253
-0.008707352161442925 -0.013225207716109638 -0.006328008421820717
-0.014887058147298501 -0.018204741882145804 -0.008592998460424876
-0.02170079229152313 -0.022447526017332547 -0.010715971286781133
-0.028729160242802736 -0.026206153811407295 -0.013025504163535552
-0.035588882592884785 -0.02970944830908769 -0.01581623532279286
-0.041957287339159065 -0.03314623691517618 -0.01932008934931571
-0.047590417987462226 -0.03665209250263598 -0.02367666169967243
-0.05232842945828996 -0.040300221930228836 -0.02891513372706176
-0.05608471946523171 -0.0440946085055889 -0.03495883749282187
-0.05882115282237779 -0.047964972488160805 -0.041652881338422224
-0.06052224428769652 -0.05177054297275837 -0.048805305905921026
-0.061175472782707824 -0.055324833483030994 -0.056226314369465104
-0.060765232861107306 -0.05844071117611481 -0.06375477500859553
-0.05928194923523054 -0.060988212231859844 -0.07127076666694784
-0.0567394935868408 -0.0629414297099934 -0.07869690815702482
-0.053196141804254 -0.06440169182945811 -0.08599376673888769
-0.04876937559343124 -0.06558911028608147 -0.0931474274046805
-0.04364094266168907 -0.06681052259796026 -0.10014854224539042
-0.03804838180084468 -0.06841151239574625 -0.10696321984784318
-0.032264659618346125 -0.07072179422547419 -0.11350111212635924
-0.026573054078952874 -0.07399962046641004 -0.11959044396419827
-0.021239592198345383 -0.07838324955586419 -0.12497187801328274
-0.016489749517920996 -0.08385843243736932 -0.12931598139081005
-0.012491117213825863 -0.09024851836185825 -0.1322672564885881
-0.009340909681115494 -0.09723210125249483 -0.13350560452557195
-0.007060306367762678 -0.10438623509086523 -0.1328131055515136
-0.005594928241922697 -0.11124870289920488 -0.13012699847254808
-0.004822993262365775 -0.11738887572675216 -0.12556320844735822
-0.004572647709749916 -0.12247304145635902 -0.11940131749728346
-0.004646927054081948 -0.12631728756315894 -0.11203627844406532
-0.0048522643256643065 -0.12891900530114234 -0.10391409423000605
-0.005025092852066154 -0.13046634995907216 -0.09546534418268392
-0.005051444118245429 -0.13131664171934562 -0.08705274208486635
-0.004876636128495568 -0.13194195555843033 -0.07893660444475649
-0.004503649111937921 -0.13284147319321643 -0.07126101393931096
-0.003980869218925844 -0.13443968985417737 -0.06405727840095385
-0.0033803645081427543 -0.1370023585876069 -0.0572641246776417
-0.002770906276977482 -0.14059836431256473 -0.050761056233098616
-0.002193502421227783 -0.14511980466233557 -0.044409202144207204
-0.0016481679657101927 -0.15034295238077644 -0.03808970433457442
-0.0010972705112640374 -0.15601122532201178 -0.031730929462009734
-0.0004842284937942267 -0.16190602499137516 -0.025317891785454065
0.0002400549743634376 -0.1678818271300006 -0.018884510552063142
0.0010936447644733906 -0.1738828252641797 -0.012496397281763775
0.0020528317281583615 -0.17992760190640747 -0.0062320061559595855
0.00305931035837432 -0.18608345569986728 -0.00017097072471152324
0.00404328514531669 -0.19243523769137738 0.005609254076357239
0.0049552601363406345 -0.19906020923843137 0.011029837031236679
0.005795714937310931 -0.20601395145840823 0.01600647364381616
0.006632391500416118 -0.21331052265406572 0.020452182349682997
0.007598257602503021 -0.22091809935459406 0.024290858293255533
0.008869307334310857 -0.2287578350627218 0.02748275348062089
0.010627814311294692 -0.2367009517416134 0.030053675463188673
0.013021420951355611 -0.24457990546751704 0.032119690579327356
0.01613039518241367 -0.25220282436010616 0.033892544560035376
0.019952857112413635 -0.25937544075531377 0.035658804208105334
0.024412166564481454 -0.26593379304354453 0.03773117006650662
0.02938502327897228 -0.27176178721406025 0.04038122141105132
0.034738834270748094 -0.27682382444052184 0.04377268357720913
0.04036865483728797 -0.2811660443249826 0.04791401288696437
0.04622198843586621 -0.2849070843908501 0.05264897842780738
0.05230294233644518 -0.2882087596048531 0.057688697628190705
0.0586562879981257 -0.2912299865609297 0.06268067171179295
0.06533810279848289 -0.2940805460066286 0.06729197487515083
0.0723838186859843 -0.2967885855393934 0.07128725940140432
0.07978310592552537 -0.29928118144113736 0.07457924764472117
0.08747146011712294 -0.3014008768693776 0.07723934551753306
0.09533921662412653 -0.30294965171569127 0.07946989802716359
0.10325375341701605 -0.30374560310457205 0.08154570994021589
0.11109017906822054 -0.3036783987435899 0.0837453508959263
0.11876116055576917 -0.30275760335988466 0.08628861359342427
0.12623535577279452 -0.3011255330543559 0.08929568854608869
0.13353955862276015 -0.29904436713335375 0.09277917663919971
0.14074265423405716 -0.29684044225841594 0.09666295829059804
0.14792615520559158 -0.29485117416625867 0.10082238599883095
0.1551534669097791 -0.2933599083889334 0.10512837875494482
0.16243829425539436 -0.29256215295173094 0.10948390417130241
0.1697436575181022 -0.2925570839866588 0.11384181950762855
0.17698477835260892 -0.29336461474017417 0.11820578607666284
0.18404406860410863 -0.2949516059102388 0.12261775024501279
0.19080014289988037 -0.2972526094215719 0.12713954225531499
0.19714959087033798 -0.3001905710810067 0.13183713459758561
0.20302756913042608 -0.3036804153024778 0.13676615398144956
0.20840697768394081 -0.30762816470592397 0.14195715084668412
0.21329997048703261 -0.31195253106284804 0.14740241715329566
0.21774204558280041 -0.3165961771701094 0.15303826492172296
0.22177393801488776 -0.32154796948338915 0.15873817985872962
0.2254169044816798 -0.3268465585414582 0.1643221335944429
0.22866913878328432 -0.3325661878226811 0.16958549490224933
0.2314865200387311 -0.33878542219103147 0.17433567297386438
0.23379499848894994 -0.34555057085254876 0.1784389597796263
0.23550144797489406 -0.3528532672411591 0.18184111627492489
0.23650649078884012 -0.36061947221465324 0.18457353476100236
0.23673394262171632 -0.3687290269021206 0.18673467619843148
0.23613770544085536 -0.37703510734573387 0.1884538566366936
0.23472103806073621 -0.3853942097173348 0.1898610575749927
0.232542050146663 -0.39369127672097065 0.19105611052228055
0.2297102677167664 -0.4018586855577998 0.1921020945237479
0.22637015345314124 -0.4098703451861629 0.19303820712978437
0.22269399049839786 -0.41773828759638415 0.1938990197985866
0.21885264980667762 -0.42549807736008466 0.19473582866869582
0.21500324328365764 -0.43318778759227555 0.19563645839523663
0.2112730866749809 -0.44084017231629813 0.19672065123383575
0.20775791059995763 -0.44847349670000863 0.1981192687498141
0.2045163306958802 -0.45609975831134686 0.19994367089679035
0.2015734869769181 -0.4637241910028732 0.2022397892134801
0.19893186691359047 -0.4713571936459995 0.20496258168625156
0.19657188806953987 -0.47901755987937794 0.2079620808594225
0.1944633896251419 -0.48673571888450073 0.2110000380450467
0.19256688215827866 -0.4945393156158665 0.21377776703668785
0.19084528320705427 -0.5024490172638549 0.21599615611713935
0.18926192515319773 -0.5104688658949601 0.21739237681006812
0.18778420233092027 -0.5185860388164348 0.21777179556350454
0.18638436858367252 -0.5267639105461672 0.2170197332779594
0.1850392380426015 -0.534954370529698 0.21508173094457264
0.18372588664849346 -0.5431015324211926 0.21194765406942656
0.18242449982529044 -0.5511443938581589 0.20762989774388638
0.1811141122644659 -0.5590214651008866 0.20214351281359547
LINES 1 120
119 0 1 2 3 4 5 6 7 8 9 10 11 12 13 14 15 16 17 18 19 20 21 22 23 24 25 26 27 28 29 30 31 32 33 34 35 36 37 38 39 40 41 42 43 44 45 46 47 48 49 50 51 52 53 54 55 56 57 58 59 60 61 62 63 64 65 66 67 68 69 70 71 72 73 74 75 76 77 78 79 80 81 82 83 84 85 86 87 88 89 90 91 92 93 94 95 96 97 98 99 100 101 102 103 104 105 106 107 108 109 110 111 112 113 114 115 116 117 118
POINT_DATA 119
SCALARS isSiphon int
LOOKUP_TABLE default
0
0
0
0
0
0
0
0
0
0
0
1
1
1
1
1
1
1
1
1
1
1
1
1
1
1
1
1
1
1
1
1
1
0
0
0
0
0
0
0
0
0
0
0
0
0
0
0
0
0
0
0
0
0
0
0
0
0
0
0
0
0
0
0
0
0
0
0
0
0
0
0
0
0
0
0
0
0
0
0
0
0
0
0
0
0
0
0
0
0
0
0
0
0
0
0
0
0
0
0
0
0
0
0
0
0
0
0
0
0
0
0
0
0
0
0
0
0
0
