# vtk DataFile Version 2.0
Vessel Segment
ASCII
DATASET POLYDATA
POINTS 119 float
-0.0036593737264135067 -0.008717064353743273 0.00012701200403962846
-0.007948255891905405 -0.016959777446090805 0.001690077402773516
-0.012820547364762038 -0.024626228592093482 0.004226381554185108
-0.01822820336884752 -0.03161856412137635 0.007273732330862569
-0.024116530948738644 -0.03785178800860743 0.01037444533841478
-0.03041938100944236 -0.043268552933595675 0.013087179340638319
-0.03705411716264571 -0.047858331407519654 0.015010961145446672
-0.04391931838253433 -0.051676274539063045 0.015821301913211964
-0.05089780337166963 -0.05485520516769042 0.015312454499485399
-0.05786341637418204 -0.057606698839799395 0.013434964828103779
-0.06468854286350681 -0.06020488591234093 0.010310227846169353
-0.07124890508989873 -0.06295518577382023 0.006214517160247819
-0.07742307285389398 -0.06615133726835982 0.0015297929629699836
-0.08308545587479482 -0.07002985127761158 -0.0033334830230891135
-0.08809705589434753 -0.07473104415880669 -0.008021410998661207
-0.09229784058107242 -0.08027699599140081 -0.012308500477535475
-0.09550932857300969 -0.08657358210924652 -0.016135098473297613
-0.09755015837866265 -0.09343377995996044 -0.01960326787178838
-0.09826424644622718 -0.10061782415071166 -0.022932012666512572
-0.09755656858077263 -0.10787805604860336 -0.026383445098478092
-0.09542328025878835 -0.11499644321220552 -0.03018184428696902
-0.09196957470892127 -0.12180550293136182 -0.03444237334256946
-0.08740918113536901 -0.12819180592409082 -0.03912304168792463
-0.08204443447427856 -0.1340802089939505 -0.04401251390960249
-0.07623336548216716 -0.13940994115829164 -0.04875295054504536
-0.07035350867325389 -0.14411514172478285 -0.052893087493457766
-0.06476585148111334 -0.14811159102706942 -0.0559628609640305
-0.05978305649536093 -0.15130137545135122 -0.057555211780148205
-0.0556426468681313 -0.15359085566845634 -0.0573942013848973
-0.052486378634605 -0.15491627823157672 -0.05536821467809595
-0.050342176709252937 -0.1552678966452338 -0.05153963258282083
-0.04912900222789939 -0.1547061576916171 -0.046112900416105766
-0.04868830698960056 -0.1533517143236758 -0.039382309848557104
-0.04883067968930979 -0.15137570551228113 -0.031683619753720096
-0.04938546351104156 -0.1489751546657383 -0.023350207700248926
-0.050231414036753796 -0.14635242180410826 -0.014681872100859262
-0.05129809594248062 -0.14370263339156839 -0.005928993703094779
-0.052544776777002616 -0.14122785754071238 0.00271085529439831
-0.05393390299075897 -0.13913592705608005 0.011088418109156525
-0.05541106507702145 -0.13765772039672744 0.019092818232508527
-0.056902253411176044 -0.13702936077999778 0.026640805336046187
-0.05832525734693802 -0.13746844873551098 0.033669387238852336
-0.05960747078211806 -0.1391483558034243 0.040133026632824684
-0.06069910298120934 -0.14215918747689094 0.04600725311063741
-0.06157704739222173 -0.14650272733572714 0.05129305938331697
-0.062242772151784406 -0.1520858671080548 0.056020435230186995
-0.0627177662374081 -0.15874042103335834 0.06024609491892656
-0.06304094145269795 -0.16624344237799737 0.06404804899677871
-0.06326032456839062 -0.17435180561163724 0.06751430902829265
-0.06342330331106583 -0.1828332513074927 0.07073225460845961
-0.06356400766387964 -0.19149137666402014 0.07378071151553761
-0.06369155433687249 -0.2001835852452636 0.0767262292434984
-0.0637818113602877 -0.20881837177448262 0.07962251491984927
-0.06377416240526286 -0.2173474854578156 0.08251207856974568
-0.06357423385679546 -0.22575747576829083 0.08542634498063854
-0.06306332607789832 -0.23404855541568476 0.08838576746637482
-0.06211234804615761 -0.24222366574206766 0.09139749222320123
-0.06059707221181617 -0.2502729263979148 0.09445391197165284
-0.05841287925352563 -0.25816654170753456 0.09753303238822339
-0.055483367098351014 -0.26584804663362394 0.10060088259120321
-0.051766632786460605 -0.27323563206790863 0.1036179883608198
-0.047255838031935365 -0.28022455149296677 0.10654671903770026
-0.04197938078381134 -0.2866952205028149 0.10936013697982347
-0.03599534166245596 -0.29252076340302885 0.1120491840315483
-0.02938570471496079 -0.29758543843758517 0.11462750119176744
-0.022247697290867962 -0.3017933215166669 0.11713325541224076
-0.014688377075885042 -0.305091482111075 0.11962446662265538
-0.006818627592606602 -0.3074804936334018 0.12217752596024944
0.0012498740723175432 -0.30901373080351885 0.1248795485353028
0.009410492304986558 -0.3097967831144273 0.12780970238694403
0.017568106474225895 -0.3099633390053227 0.13103647897370999
0.02564581345382227 -0.3096510303553422 0.13460182286951977
0.03358967928616958 -0.30897798548714017 0.13851094606712042
0.04137008530759598 -0.3080268305781627 0.14273370413409223
0.048977989721565175 -0.3068331340708305 0.14721323917058274
0.05641883789750142 -0.3053968012228891 0.1518733285526675
0.06370504187072659 -0.30369006357758543 0.15663916674970838
0.07085023012098794 -0.30168553598595277 0.16145394206010716
0.07786610610356855 -0.2993842511145307 0.16628208065635713
0.08476197825718225 -0.29683338357838684 0.1711220800799763
0.09154483462541184 -0.29414709909857456 0.17599995446764125
0.09821782860713428 -0.2915006927943743 0.18095831187482675
0.10477524254620503 -0.28911109825310116 0.18605521645035691
0.11119512416732551 -0.28720502814593035 0.19134530499539348
0.11743192611082354 -0.28597959029864417 0.1968787757614116
0.12341489514818661 -0.28556571989013696 0.20268376321709627
0.12905765938998276 -0.28601619222120445 0.20876140038242444
0.13427029583886393 -0.2873032753070409 0.21507485259617742
0.13897637118799616 -0.28934142056269885 0.2215502668258939
0.14312736811279123 -0.29202569358804775 0.22807636216840915
0.14670914556251785 -0.29526950761141774 0.2345188092941697
0.14974389334250587 -0.29903176073984 0.24073396955550258
0.1522889693378028 -0.30332623085596827 0.24659297814755538
0.15443456939702682 -0.30820888974334903 0.25199678984103435
0.1562954497021034 -0.31374089212646084 0.2569007634257267
0.15799365455124023 -0.31995530446416476 0.2613200566216157
0.1596347645524638 -0.32683432304496834 0.26532453803628003
0.16127776033074492 -0.33430098945669157 0.26901692552120937
0.1629231705440096 -0.3422279221984823 0.2724940548062057
0.16451554196383925 -0.3504635048690146 0.2758090557763048
0.1659453231845519 -0.3588455741074198 0.27893604346818374
0.16707841693396644 -0.36723325032023224 0.28176314743401276
0.1677723249919867 -0.37551426925420595 0.284105708818512
0.16790177579279783 -0.38361835298781904 0.2857474099322731
0.16738439805528438 -0.3915172962364674 0.28649507551845405
0.16618956747045346 -0.39922300686738704 0.28622936508790375
0.16435109529397673 -0.40677458648349624 0.2849401508595112
0.16195900169391286 -0.41423559682551553 0.2827311015066701
0.1591511241041036 -0.42167514214214824 0.2798007244286981
0.15608702601159724 -0.4291615606021462 0.2763980944174237
0.1529336493551792 -0.4367504213128084 0.2727733484254818
0.14984483854409228 -0.4444797460353092 0.269144878667669
0.14695523742256156 -0.45237032404744265 0.26567595485625
0.1443670323770307 -0.4604246918123506 0.26246584978413806
0.14215798680576386 -0.46863000957978745 0.2595646826896401
0.14038494835107565 -0.47696682011364244 0.25698275183198016
0.1390873042441995 -0.4854079755651492 0.25471094428089885
0.13829995373097606 -0.49392527340253733 0.252726993857124
0.1380543363554877 -0.5024898966954531 0.2510085222021524
LINES 1 120
119 0 1 2 3 4 5 6 7 8 9 10 11 12 13 14 15 16 17 18 19 20 21 22 23 24 25 26 27 28 29 30 31 32 33 34 35 36 37 38 39 40 41 42 43 44 45 46 47 48 49 50 51 52 53 54 55 56 57 58 59 60 61 62 63 64 65 66 67 68 69 70 71 72 73 74 75 76 77 78 79 80 81 82 83 84 85 86 87 88 89 90 91 92 93 94 95 96 97 98 99 100 101 102 103 104 105 106 107 108 109 110 111 112 113 114 115 116 117 118
POINT_DATA 119
SCALARS isSiphon int
LOOKUP_TABLE default
0
0
0
0
0
0
0
0
0
0
0
0
0
1
1
1
1
1
1
1
1
1
1
1
1
1
1
1
1
1
1
1
1
1
1
1
0
0
0
0
0
0
0
0
0
0
0
0
0
0
0
0
0
0
0
0
0
0
0
0
0
0
0
0
0
0
0
0
0
0
0
0
0
0
0
0
0
0
0
0
0
0
0
0
0
0
0
0
0
0
0
0
0
0
0
0
0
0
0
0
0
0
0
0
0
0
0
0
0
0
0
0
0
0
0
0
0
0
0
