# vtk DataFile Version 2.0
Vessel Segment
ASCII
DATASET POLYDATA
POINTS 119 float
-0.0024556394851703825 -0.008706277993977525 -0.00206176635542807
-0.005904275876958701 -0.01692927263132162 -0.0034469000908474387
-0.010174935616632342 -0.024679020743412862 -0.004169970321876466
-0.015097489946730974 -0.03196551218225512 -0.0042501623898661455
-0.020505861646819154 -0.038798915524540165 -0.0037206031056680263
-0.026244960520564672 -0.04518917061355201 -0.0026442437179215435
-0.0321811783235605 -0.05114551216562236 -0.0011334287900937664
-0.03821133241341312 -0.056678348308424005 0.0006328613452334894
-0.04426554536815315 -0.06180433874561558 0.002402455517835595
-0.05029919973273978 -0.06655298835418036 0.0038619162506354507
-0.05627415594588549 -0.07097283952521279 0.004670796146768031
-0.06213149790658705 -0.07513198433699682 0.004512987400261922
-0.06776987435128762 -0.07911177368447875 0.0031465918502032366
-0.07303397246027508 -0.08299175740448442 0.0004402628896883475
-0.0777232742667911 -0.08683241544337053 -0.0036130857777598594
-0.08161868564240282 -0.09066318614461637 -0.008906223962448492
-0.08452161318805446 -0.09447955320897036 -0.015240223692782686
-0.08629087305013089 -0.09825015526318381 -0.022354725921334518
-0.08686952479464945 -0.1019282375603136 -0.0299624177128715
-0.08629546214986428 -0.10546495047175646 -0.03778467719102575
-0.08469256011064794 -0.10882281136844886 -0.04558313089049108
-0.08224613844517005 -0.11198881304713 -0.053182379153390094
-0.07916790536649998 -0.11498558476044182 -0.06048022633540085
-0.07565645603461552 -0.11787597676717908 -0.06744378279497326
-0.07186217077491575 -0.12075986531949444 -0.07409571096980258
-0.0678687117522254 -0.12376584423661954 -0.08049213271398026
-0.0636984515184756 -0.12703502979411163 -0.0866999772331235
-0.059341399917545994 -0.13070367494792995 -0.09277324861309734
-0.05479461755905946 -0.1348930031144844 -0.0987319334841672
-0.050095299211589825 -0.13968255144858083 -0.10453993422028997
-0.04533559425716426 -0.14510570600927233 -0.11008735006699054
-0.0406560504143203 -0.15112887734510286 -0.11517935121493329
-0.03622213299349544 -0.15764111790331597 -0.11953975367384674
-0.032191688649279994 -0.16444697694935115 -0.12283636398422029
-0.0286861996124851 -0.1712753925727293 -0.12472470229658988
-0.025772022754006568 -0.17780295909952076 -0.12491433307615502
-0.023457989653213118 -0.18368706663812334 -0.12322698809297145
-0.021707045961193265 -0.18861347540184087 -0.11964794166831827
-0.020459376096063707 -0.19234843456249573 -0.1143404780280666
-0.019657565701226853 -0.19477027174805342 -0.10762284689895887
-0.01926628740769464 -0.1958939904015571 -0.0999138299526056
-0.019280662034143605 -0.19587009503365052 -0.09166220589843933
-0.019720883825088818 -0.1949535558632178 -0.08327660674137655
-0.02061867803585166 -0.193472261463688 -0.0750692828625274
-0.02200074242039513 -0.19178115364015022 -0.06722535787084703
-0.023874557215540302 -0.19022617372144804 -0.05979769775161084
-0.026220481272399482 -0.1891116709566697 -0.05272651896649144
-0.028989466720597806 -0.18867148135388642 -0.04587893756660936
-0.03210890061337688 -0.18904847145187467 -0.039097806986027495
-0.035495464367511144 -0.19028407762572383 -0.032252304253200005
-0.03907246361378204 -0.19234455661747585 -0.025277962596306096
-0.04278390684025321 -0.1951442761059955 -0.018197083919590126
-0.046602818631496665 -0.19858237641914514 -0.011118090408989567
-0.05052693658205927 -0.20257475690056265 -0.004212432868674254
-0.054566101186209845 -0.20706505970729047 0.002322272289295494
-0.05872494337902335 -0.2120217547435289 0.008306566081177389
-0.06298805344368985 -0.21743081121358762 0.013620690473562772
-0.06731133956751993 -0.22326678327927119 0.01823471751234905
-0.0716196867934461 -0.22949035252318578 0.022220517589624515
-0.07581117044176017 -0.23603575525492282 0.025742652293266836
-0.07976595802124438 -0.24281766451832476 0.029030137620379308
-0.08335673849200091 -0.2497465422054972 0.03233213181618908
-0.0864609506831633 -0.2567460592695546 0.0358679384363623
-0.08897006956563669 -0.26376530040830437 0.03978197172718443
-0.0907940669700038 -0.27078356086812444 0.04411464164768239
-0.0918604384178309 -0.2778028700616159 0.048800678870784
-0.09210804070451056 -0.2848303261181956 0.05369252445056948
-0.0914814104773346 -0.2918536262521721 0.0586022949025138
-0.0899291905557385 -0.2988289757276145 0.06334702404414305
-0.08741034401590929 -0.30566477960955696 0.06778537060817041
-0.08390598873757275 -0.3122414227238071 0.07183763657694284
-0.0794324871738864 -0.3184190811846677 0.07548881245737434
-0.07404802205631172 -0.32406318623718694 0.07877608238884039
-0.06784952525785189 -0.329064300324232 0.08176856093423335
-0.06096042412270019 -0.3333550861730691 0.08454401446504513
-0.05351501820756961 -0.336920733699385 0.08716777334649377
-0.045643462712731 -0.3398082843729319 0.08967985445799996
-0.0374610005917537 -0.34211782387836476 0.0920894916070972
-0.029062419374159716 -0.3439910320031384 0.0943792756846546
-0.020521006005222032 -0.3455860356221038 0.09651671089421957
-0.01189113584614576 -0.3470424826253253 0.0984695489776985
-0.0032147734657783393 -0.34845724061594496 0.10022394723151638
0.005471702502194726 -0.3498575156370814 0.10179838701501717
0.014130867248011733 -0.3511968622815018 0.10325209557626093
0.022720289300657823 -0.35235399184333044 0.1046818713419588
0.031193492769085156 -0.3531641696047261 0.10620924879071421
0.039503255628463387 -0.3534410374085515 0.10795866694395012
0.0476094021823139 -0.35302521679928134 0.11003392445675866
0.055486259164989137 -0.3518134749271011 0.1124973947175351
0.06312808364363225 -0.3497845071132119 0.11536079929822608
0.07055136630019468 -0.34700492626931384 0.11858777505339037
0.07779305294845358 -0.3436246389031595 0.12210779968521113
0.08490531332439946 -0.3398523364841268 0.12583597536433389
0.09194900207393829 -0.33593732160528633 0.12969426331652564
0.09898494385262495 -0.3321372801412152 0.1336265839373419
0.10606499266811717 -0.3286987255646388 0.13760885196570666
0.11322151872502961 -0.32582977509082806 0.14164571665441092
0.12045766392257437 -0.32368564473586076 0.14576425900015164
0.12773841909100928 -0.32235770931493946 0.1500007174687145
0.1349857161212281 -0.32188152034478457 0.154383586168052
0.1420823732590385 -0.32225822125773884 0.15892123053614843
0.14887945283334364 -0.3234799352644728 0.1635954776510514
0.15521026609311556 -0.3255537701737891 0.16835531516177693
0.1609145778591231 -0.3285091715511137 0.1731324706119129
0.16585736795748157 -0.3323829729369701 0.17784830135151675
0.16995241245893097 -0.33719207274435126 0.18243354607186343
0.1731666049858751 -0.34291106775484237 0.18684188830826695
0.17553318772346538 -0.3494613468997736 0.19105292877498686
0.17714205438361036 -0.3567120339044033 0.19507545143579175
0.17812907515486107 -0.3644974330518106 0.19894125365443618
0.1786647664567573 -0.37264174816597406 0.20270075602193796
0.17893206160065706 -0.3809623107072594 0.20642015327100188
0.17911056732513908 -0.38929330717844746 0.21018018135853778
0.17936851281269428 -0.39747657821593935 0.2140736834788857
0.1798534474947817 -0.4053681681130509 0.21821053954589978
0.18069747363900296 -0.41283084739454046 0.22270946660536003
0.18202181646921706 -0.4197337501758223 0.2276945400638531
0.18394223664164788 -0.42594518498702144 0.23329713902819174
0.18657167548367193 -0.4313365453459562 0.2396468905119826
LINES 1 120
119 0 1 2 3 4 5 6 7 8 9 10 11 12 13 14 15 16 17 18 19 20 21 22 23 24 25 26 27 28 29 30 31 32 33 34 35 36 37 38 39 40 41 42 43 44 45 46 47 48 49 50 51 52 53 54 55 56 57 58 59 60 61 62 63 64 65 66 67 68 69 70 71 72 73 74 75 76 77 78 79 80 81 82 83 84 85 86 87 88 89 90 91 92 93 94 95 96 97 98 99 100 101 102 103 104 105 106 107 108 109 110 111 112 113 114 115 116 117 118
POINT_DATA 119
SCALARS isSiphon int
LOOKUP_TABLE default
0
0
0
0
0
0
0
0
0
0
0
0
0
0
0
0
0
0
0
0
0
0
0
0
0
0
0
0
0
0
1
1
1
1
1
1
1
1
1
1
1
1
1
1
1
1
1
1
1
1
1
1
1
1
0
0
0
0
0
0
0
0
0
0
0
0
0
0
0
0
0
0
0
0
0
0
0
0
0
0
0
0
0
0
0
0
0
0
0
0
0
0
0
0
0
0
0
0
0
0
0
0
0
0
0
0
0
0
0
0
0
0
0
0
0
0
0
0
0
