# vtk DataFile Version 2.0
Vessel Segment
ASCII
DATASET POLYDATA
POINTS 119 float
-0.004621881819790028 -0.006446566567463448 -0.004775786701586746
-0.0088597981658193 -0.013425070975377635 -0.008150620538008031
-0.0129274251147025 -0.02071284060287359 -0.010345287665073487
-0.017034003972223558 -0.0280886667988399 -0.011585465250053927
-0.021374111773282526 -0.03533698542235201 -0.012110320798622775
-0.026110661030486704 -0.04225536019869601 -0.012182857468945915
-0.031352991597415086 -0.04866594359038348 -0.012095279197706634
-0.03713922079626012 -0.054426930169542385 -0.012160967422015825
-0.04342982919221824 -0.059443206953054196 -0.012691856991116707
-0.05011209550574714 -0.06367425722017772 -0.013964514276733349
-0.05701793518230705 -0.06713992888736421 -0.016189142440436646
-0.06394646136017294 -0.06992080102701878 -0.01948640086592669
-0.07069156663368141 -0.0721523380736436 -0.023878591314355168
-0.0770662121350855 -0.07401124260519547 -0.029292612886316058
-0.08291979160632723 -0.07569473366725099 -0.03557566892744337
-0.08814326611322895 -0.07739883793730847 -0.042520719617421175
-0.0926649579942284 -0.07929646050036307 -0.04989827190520437
-0.09643944822732678 -0.08152067924949231 -0.05748836944202159
-0.09943678075996214 -0.08415273436494913 -0.06510678961786223
-0.10163501677513301 -0.08721791970800698 -0.07262157675364993
-0.10301741729569376 -0.09068734347696294 -0.07995835155459596
-0.10356947122314479 -0.09448954508311704 -0.08709393878186059
-0.10328009751044194 -0.0985302892583182 -0.09404105504558186
-0.10213995113516043 -0.10271862138525732 -0.10082741755465921
-0.1001434849280851 -0.10698985340658806 -0.10747532380611328
-0.09729275126010728 -0.11131677271320715 -0.11398594486312943
-0.09360210562841348 -0.11570667529479911 -0.12033069271607359
-0.08910436505327878 -0.12018604497027723 -0.12644749202501973
-0.08385980998884064 -0.12477875596691805 -0.13223518988299768
-0.0779631199788943 -0.12949580545272057 -0.1375485893807184
-0.07155191441194378 -0.1343183668930445 -0.1421944650685255
-0.0648118780496069 -0.13918979723228864 -0.14594357873804856
-0.057975082466474606 -0.14401865809061548 -0.14854554752195534
-0.05130774174767003 -0.14867252606116232 -0.14976420823661468
-0.04508933283196963 -0.15298691684634436 -0.14941931865594404
-0.03958141311394636 -0.15678713751623813 -0.1474175986456041
-0.03499577068304992 -0.1599134406559373 -0.1437841585731732
-0.03146625291064422 -0.16225439246243623 -0.13865558477172277
-0.029039395961442515 -0.16377338958861903 -0.13227100904067884
-0.027677832769663725 -0.1645266044901124 -0.1249307200772149
-0.02728235167276739 -0.16464887844037007 -0.11696157594369906
-0.027718587136918636 -0.16433437607910384 -0.10866952170876465
-0.028842490117165605 -0.16380205070228468 -0.10031469307831825
-0.030520226631943384 -0.16327533818910123 -0.0920933630679883
-0.032643252922486946 -0.16296608221382733 -0.08413741032389709
-0.03514067874041274 -0.16306616267510177 -0.07652400799364666
-0.037984576126370184 -0.16372972752187862 -0.06929198850735672
-0.041184483611015774 -0.16506859222424547 -0.06245845922578166
-0.04476555038311172 -0.1671348041224975 -0.056028328612128704
-0.04873672267804575 -0.16992566717225477 -0.04999680771269495
-0.053060393445861664 -0.17339678351906632 -0.04434378926543114
-0.05763734421873533 -0.17747973037516176 -0.03902817229729452
-0.06231398431203622 -0.18209684797257072 -0.033984599324802044
-0.06690875225395847 -0.18716967184703875 -0.02912900063400503
-0.0712467369329682 -0.19262947095073016 -0.024367443653797626
-0.07518943748906495 -0.1984137415228169 -0.01961041910314735
-0.07864789670487152 -0.20447207223872013 -0.014784550669360576
-0.08157558475052112 -0.21075869117306442 -0.009840504727078828
-0.08394790232998874 -0.21723732438507468 -0.004758101247871852
-0.08573622417772458 -0.2238736382511092 0.00045275617397544897
-0.08689368548747713 -0.23063655212422834 0.005751739655641322
-0.0873499851520765 -0.23748842723034674 0.01107297430708983
-0.08702022397332738 -0.24437433578551823 0.016334182613240197
-0.08581961819518927 -0.2512154646676633 0.021449530518846623
-0.08367997210803609 -0.2579060490869551 0.026339869775662
-0.08056289104471856 -0.2643176948723265 0.030940183354569828
-0.07646653688806185 -0.2703147724154854 0.035200867008158415
-0.07142797823128483 -0.27577662324622115 0.03908875975186112
-0.06551912636075749 -0.28061465338214003 0.042586984560030634
-0.05884146227417763 -0.28478572315266104 0.0456983343617344
-0.05151683071228143 -0.2882985170523788 0.04844737867267964
-0.043678475982532584 -0.29120233933893247 0.050880344172194794
-0.03546010594343702 -0.29357061011181773 0.05305950680427709
-0.02698673217795259 -0.2954768687319369 0.05505025350977873
-0.018365743966958413 -0.296967744304044 0.05690802771555217
-0.009682800697510784 -0.29804804319492784 0.058664913300324265
-0.001001815817192824 -0.2986773479047807 0.06032482041707933
0.0076318202428622885 -0.2987839317070243 0.06186706704550612
0.01618523887388336 -0.2982870668003229 0.06326026336901994
0.024631596783001513 -0.29712875895570606 0.06448343000855696
0.032943786302351334 -0.2953083775300039 0.06554986693579665
0.04109103695003514 -0.29289784226410004 0.06652597128996296
0.04903776689735056 -0.29005195838337544 0.06753750747022022
0.056745657012154366 -0.2869847790380679 0.06875730886224027
0.06417893761464578 -0.2839321507508365 0.07037606247642071
0.07131187049753053 -0.2811104308290807 0.07256341736312953
0.07813905819693297 -0.2786677138367699 0.07543229475455397
0.08468223690694064 -0.27665590755646685 0.07901723896154986
0.0909969695446709 -0.2750262874193861 0.08327043649610254
0.09717022153781708 -0.2736503950110419 0.08807409591719947
0.10331055778808672 -0.2723721121938226 0.09326267840676628
0.10952958427940947 -0.27106203731812484 0.0986487258606287
0.11592347337392267 -0.26967437688863866 0.10404628584818575
0.12255452098259817 -0.2682758057617108 0.10929088215876122
0.12944072350476676 -0.2670394413464701 0.11425365712998477
0.13654705833630637 -0.2662174379783995 0.11884775237118383
0.143794542408721 -0.26609209728665534 0.12303418697702109
0.15106143280478534 -0.26692402954623407 0.12681531484196218
0.15820472820840653 -0.26890361588271655 0.13022861711320913
0.16506399345912612 -0.2721261257978457 0.13333592752954884
0.17148368159779645 -0.276586702501094 0.13620976262460716
0.1773185944806873 -0.2821862460758168 0.13892334014452384
0.18243777263278707 -0.2887591367127227 0.14153500792121673
0.18673088764752177 -0.2960968413926082 0.1440880084905125
0.19010298773733747 -0.3039704898772323 0.1466009304633067
0.19247209285308847 -0.31215985527128665 0.14907645643718487
0.19376284976564043 -0.32046989651078417 0.15150100626038693
0.19392263665472106 -0.3287455372526777 0.15385197775418133
0.19293630681968732 -0.33687677623552775 0.15611227787722573
0.19085276879736113 -0.34480736258977174 0.15827357243429693
0.18781076753856984 -0.3525192159245854 0.16035117918889483
0.18405208622923122 -0.3600311247776253 0.16238280719234668
0.17991987582707886 -0.36738149194289865 0.16443579212428566
0.17584564397618765 -0.37462547301651433 0.1666047910126195
0.17232478086535524 -0.38181882695044495 0.16900473503379707
0.1698974491505633 -0.3890213800769325 0.17176562244101592
0.1691235880737774 -0.3962915457274031 0.1750240855408772
0.1705713377812889 -0.40368462675248323 0.17892332022894797
0.17480902441569457 -0.41125760692755037 0.18360538470612184
LINES 1 120
119 0 1 2 3 4 5 6 7 8 9 10 11 12 13 14 15 16 17 18 19 20 21 22 23 24 25 26 27 28 29 30 31 32 33 34 35 36 37 38 39 40 41 42 43 44 45 46 47 48 49 50 51 52 53 54 55 56 57 58 59 60 61 62 63 64 65 66 67 68 69 70 71 72 73 74 75 76 77 78 79 80 81 82 83 84 85 86 87 88 89 90 91 92 93 94 95 96 97 98 99 100 101 102 103 104 105 106 107 108 109 110 111 112 113 114 115 116 117 118
POINT_DATA 119
SCALARS isSiphon int
LOOKUP_TABLE default
0
0
0
0
0
0
0
0
0
0
0
0
0
0
0
0
0
0
0
0
0
0
0
0
0
0
0
0
0
0
0
0
0
1
1
1
1
1
1
1
0
0
0
0
0
0
0
0
0
0
0
0
0
0
0
0
0
0
0
0
0
0
0
0
0
0
0
0
0
0
0
0
0
0
0
0
0
0
0
0
0
0
0
0
0
0
0
0
0
0
0
0
0
0
0
0
0
0
0
0
0
0
0
0
0
0
0
0
0
0
0
0
0
0
0
0
0
0
0
