# vtk DataFile Version 2.0
Vessel Segment
ASCII
DATASET POLYDATA
POINTS 119 float
-0.005702679265282242 -0.007044886079158475 -0.002896784822635067
-0.011130390391775354 -0.013930891538270459 -0.0036774146144136176
-0.016389637453783013 -0.020640700702774423 -0.0026696717436988115
-0.02158551459267537 -0.027157243229619158 -0.00020488671643558752
-0.02681823268201672 -0.03346441261039995 0.003376932844554111
-0.032176255979925614 -0.0395473770036198 0.007721915581303975
-0.03772427608297078 -0.045395218509753726 0.012460766844402194
-0.043490140659881174 -0.0510032691535473 0.01721215344801379
-0.04945237928647517 -0.05637830164423216 0.02159393639208459
-0.05553348730099916 -0.06154355439541561 0.025239182757316587
-0.06160316058832574 -0.06654289923690786 0.02781982952961719
-0.06749497125763686 -0.07144019582468056 0.029073725425914503
-0.07303324403703053 -0.07631137114350475 0.028831046450619527
-0.07806296825017683 -0.08123052925546162 0.02703349370082241
-0.0824741909783497 -0.08624969009765791 0.023741251998708697
-0.08620998887163517 -0.09137875677855671 0.019117561620808455
-0.08925904859318519 -0.09656995960060683 0.013398895154333696
-0.09163246689404547 -0.10171787283137523 0.006853563669753442
-0.09333535759123852 -0.10667869606862519 -0.0002569569417966989
-0.09434616691964279 -0.1113098165587347 -0.007704398102404466
-0.0946097489277895 -0.11551343301573055 -0.01530543554262813
-0.0940495568549214 -0.1192752268138606 -0.022921355752613767
-0.09259276460127809 -0.12268187066229369 -0.03045131317648891
-0.09020097202654077 -0.12591407124813833 -0.037822333540735956
-0.08689770959284376 -0.12921451260653605 -0.04497660395232775
-0.08278331613821249 -0.13283728077596849 -0.05185566440271626
-0.07803371559459905 -0.13699385737353456 -0.05837878811796466
-0.07288437407543664 -0.14180933600566162 -0.06442052386982804
-0.06760441858921157 -0.14729191459610794 -0.06979140924417931
-0.062466758050670014 -0.15332937775749939 -0.07423340191306056
-0.05772306683076568 -0.15969915721597838 -0.0774383814077632
-0.05358500893478245 -0.16609809793632963 -0.0790918539353736
-0.05021483708189888 -0.1721823387220083 -0.07893790140812475
-0.047723246459383604 -0.17761436933834873 -0.07684603354909858
-0.046173654894815105 -0.18209749791921584 -0.07285614003953891
-0.045585801190260705 -0.1854079808943849 -0.06719156804941746
-0.045936279205762216 -0.18740941062870287 -0.060237806068472746
-0.04715579646980944 -0.18805579020039778 -0.052483361672014214
-0.04912576218020091 -0.18738061719181873 -0.0444417667614364
-0.05167748627154996 -0.18548013884256778 -0.03657649816736567
-0.05459938258434456 -0.18250890241678594 -0.029239020023958017
-0.057652657176350125 -0.17866939092086778 -0.022628373632947365
-0.06058931109377905 -0.17421645984272996 -0.016779835199347004
-0.06316755547467086 -0.1694630960108082 -0.011573452172010692
-0.06516797445853252 -0.1647710333140716 -0.0067669487373371055
-0.06641313752047406 -0.16052563526752675 -0.002050291289690093
-0.06679272273118395 -0.15709703561613433 0.002889476600059861
-0.06627942683711333 -0.1547845827980841 0.00830269968528905
-0.06492787303658847 -0.15377854501976337 0.014329367417399999
-0.06285491661277741 -0.15413920893086513 0.020977074366312676
-0.060206837760240536 -0.15579743125278728 0.028128150707705427
-0.05713052394721962 -0.15858792316683265 0.035568863443760604
-0.05375966020935646 -0.162290586730127 0.043032131893608314
-0.05021768993674604 -0.16668815341374785 0.05024267671668872
-0.046629042986473315 -0.1716032832283734 0.05695823316294037
-0.043128839650018944 -0.17692789026866665 0.06300374296807716
-0.039862640540590744 -0.18262415330043008 0.06829622090604465
-0.036971951717566 -0.18870189906160648 0.07285697405868788
-0.03457143778693196 -0.19517649458296826 0.0768084476778114
-0.03272670658535904 -0.202039237442082 0.08035261969919061
-0.031437639587698844 -0.2092385652208835 0.08373478853793753
-0.03063519326485173 -0.2166786525062894 0.08719911280712503
-0.030192476729859623 -0.22424115823223262 0.09094507253656955
-0.029945265571417926 -0.23180827677240562 0.09509776499274263
-0.029721235954729225 -0.23928480349778727 0.09969510236082561
-0.029370185571488804 -0.24662072078490385 0.1046943147842505
-0.028789095667369372 -0.25381392499440814 0.10999024453496843
-0.02793747214032441 -0.26090656868936063 0.11544136534648236
-0.026840324016154837 -0.2679741219709382 0.12089855538726697
-0.025575025073617776 -0.27510657566685115 0.1262310154169638
-0.02424533772638217 -0.28237880579056224 0.13134573883289988
-0.022946976842046534 -0.2898304443015774 0.13619675774705098
-0.021732742567371673 -0.29745469951106746 0.1407829212967278
-0.02058519943927455 -0.3051902167149046 0.1451359932194649
-0.01940490312414525 -0.3129272690807845 0.1493055971245121
-0.018016512486254667 -0.32052803394943796 0.1533445296476183
-0.01619800524221216 -0.3278393458212588 0.15729558066794694
-0.013723491430725265 -0.3347239589817405 0.16119045305811092
-0.010410864450383354 -0.3410799168000002 0.16504940424191583
-0.006157202713268061 -0.3468530200254968 0.16888517262424044
-0.0009549890089158676 -0.35204257541390954 0.17270632596534052
0.005112849993012075 -0.35669112394209046 0.17652214443349912
0.011896128422540383 -0.36086953570288793 0.1803479478204906
0.019209134728067317 -0.3646576270453503 0.18420004937069434
0.02686235056347931 -0.3681126804498336 0.18809793455083237
0.03468625369042231 -0.37126142941613166 0.19205819664482884
0.04254649242062944 -0.37408059426952384 0.19610128572316354
0.05034776930441851 -0.37650123255053114 0.2002426525873302
0.05802974871526853 -0.3784228758220186 0.2044961486681683
0.06555874541224219 -0.37973677915557097 0.20887072602636936
0.07291763524150308 -0.38035885617657356 0.21336962768364667
0.08010002355178654 -0.38026201217079886 0.21798963644418573
0.08710831191513019 -0.3794825503471879 0.22271322844091143
0.09395760319561954 -0.37813676715286415 0.22751036069810554
0.10068033411791175 -0.3763897108636229 0.23232857624936368
0.1073288054896886 -0.37442888257866774 0.23710039900786578
0.11397004935181534 -0.372431377382756 0.24175265321717954
0.12067274440791419 -0.37051866635291864 0.2462322281017535
0.12748934497845352 -0.3687444727493988 0.25051451314060436
0.1344435445040719 -0.36708888413556473 0.25463011860578283
0.14152759120532818 -0.36548216614339024 0.25865266349486604
0.14871014657494994 -0.36384759153717483 0.2626887004403163
0.15595163773360401 -0.36214605936133293 0.26684683506172463
0.16321417737806096 -0.3604143041101113 0.2712108780320099
0.17045920374548143 -0.35878628356919245 0.27581944587417084
0.17764126345519096 -0.3574777693127441 0.28066611200470537
0.18467973207098176 -0.3567559942574933 0.2856958758490709
0.19145136709664773 -0.3568923812500977 0.29083420080673433
0.19777716658321579 -0.3581179216291373 0.2959911794674873
0.20343919088525625 -0.3605830808867759 0.3010833886837131
0.2082140245274483 -0.3643420225727819 0.3060456418741003
0.2119074192129617 -0.36933673722570226 0.3108325315518827
0.21438870942028265 -0.3754034706986145 0.3154355803866418
0.21560389214180697 -0.3822842596644981 0.31989031890710273
0.21558748164303188 -0.38964625696821553 0.32427403246421876
0.21444166402386164 -0.39710485255321565 0.32870958838648306
0.21231904731436668 -0.4042427523426347 0.33334991788261703
0.20939182512993387 -0.41062603123733304 0.33836400030320984
0.205844640216866 -0.41581771751528546 0.3439248182373763
LINES 1 120
119 0 1 2 3 4 5 6 7 8 9 10 11 12 13 14 15 16 17 18 19 20 21 22 23 24 25 26 27 28 29 30 31 32 33 34 35 36 37 38 39 40 41 42 43 44 45 46 47 48 49 50 51 52 53 54 55 56 57 58 59 60 61 62 63 64 65 66 67 68 69 70 71 72 73 74 75 76 77 78 79 80 81 82 83 84 85 86 87 88 89 90 91 92 93 94 95 96 97 98 99 100 101 102 103 104 105 106 107 108 109 110 111 112 113 114 115 116 117 118
POINT_DATA 119
SCALARS isSiphon int
LOOKUP_TABLE default
0
0
0
0
0
0
0
0
0
0
0
0
0
0
0
0
0
0
0
0
0
0
0
0
0
0
0
0
0
0
0
1
1
1
1
1
1
1
0
0
0
0
0
0
0
0
0
0
0
0
0
0
0
0
0
0
0
0
0
0
0
0
0
0
0
0
0
0
0
0
0
0
0
0
0
0
0
0
0
0
0
0
0
0
0
0
0
0
0
0
0
0
0
0
0
0
0
0
0
0
0
0
0
0
0
0
0
0
0
0
0
0
0
0
0
0
0
0
0
