# vtk DataFile Version 2.0
Vessel Segment
ASCII
DATASET POLYDATA
POINTS 119 float
-0.008647885499726981 -0.008203874427871821 0.005659982731033294
-0.015746907644625552 -0.015484435636507154 0.010929906424213107
-0.02150145318160263 -0.02188012887287575 0.015541882655486233
-0.026119089301884318 -0.027433664959911806 0.019235371398165984
-0.029817761580144275 -0.032202367279916426 0.021772813482886823
-0.032830828489131034 -0.03626999899139914 0.0229668060683491
-0.03540815534801843 -0.03976060177087519 0.02271450427744128
-0.03780354997761972 -0.042841468593080266 0.021027732034071808
-0.04025562146385115 -0.04570750192379273 0.018032344376372123
-0.04296140543973833 -0.04854785270462257 0.01394866555762998
-0.04605574635293205 -0.05150007851724466 0.009047499626920077
-0.04960750584005423 -0.05461565361025813 0.003591208311176166
-0.05362680414243197 -0.05784807852814957 -0.0022133853573813207
-0.0580773668327565 -0.06107556309636191 -0.00823709218474815
-0.06288890858513649 -0.06415185151721801 -0.014422864926694229
-0.0679580681332606 -0.06696722773595006 -0.02076345823557116
-0.07314273912206785 -0.06949424361223948 -0.027274394805588267
-0.07825258966334354 -0.07180314578756768 -0.033970523462238986
-0.08304949642098332 -0.07404061826956888 -0.040848026507013385
-0.08725988872175071 -0.07638016804940213 -0.047875740403597086
-0.09060023381842396 -0.07896231612744536 -0.054996161953090233
-0.09280966188074093 -0.08185034791880227 -0.0621343310926214
-0.09368305276205671 -0.08501426668166329 -0.06921197086843464
-0.09309894783257795 -0.08834943370957991 -0.07616188370400949
-0.09103862809308066 -0.09172129811857607 -0.0829408798034671
-0.08759428553959069 -0.09501789620286925 -0.08953454952780479
-0.08296274808831135 -0.09819542137785577 -0.09595781371632058
-0.07742421513694253 -0.10130038064808178 -0.10224452487394135
-0.07130853615501662 -0.10446531168874784 -0.10843083453509567
-0.06495920240664828 -0.10788547780894732 -0.11453309550359192
-0.05869652406270563 -0.11177778768551899 -0.12052279344830535
-0.05279028719774258 -0.11633404433235178 -0.1263056692061424
-0.04744346832548868 -0.12167556416079381 -0.1317103433487887
-0.04278873545355627 -0.1278178397864995 -0.13649060607089936
-0.03889952500750229 -0.13465398284602156 -0.14034541861586466
-0.03581033770290741 -0.14196158767660993 -0.142956963076151
-0.033540967187801626 -0.1494313290050592 -0.14403951724320005
-0.03211342079906647 -0.1567116721247676 -0.14339212710930127
-0.03155572406244767 -0.16346739984754619 -0.1409426667470366
-0.03189037314176744 -0.16941907995740782 -0.13676472789717997
-0.033111152223437704 -0.17440265723778214 -0.13106933403007814
-0.03515776492232564 -0.17837727983369137 -0.12417114476437889
-0.03789772658043341 -0.181440462467398 -0.11643748077437044
-0.04112394578327608 -0.18380201228376566 -0.1082348669963391
-0.04456938410935637 -0.18574402229049927 -0.0998827622853849
-0.04793628438185278 -0.18756672498569962 -0.0916233254315088
-0.05093725572020107 -0.18953535240600128 -0.08360743572074442
-0.053339970598621285 -0.19184391122874375 -0.07590159316490559
-0.055006659450685114 -0.19459404607779482 -0.06850725988903625
-0.05591718738353677 -0.1978043292875315 -0.06138658479035066
-0.056166474469148915 -0.20143633595094862 -0.05448894109872008
-0.05593387683974647 -0.20542484544813888 -0.04777157201755867
-0.055432100025547576 -0.209698094619223 -0.041212208541321446
-0.05485435123717282 -0.21420969243968377 -0.03481282038986349
-0.054335920982731066 -0.2189325143702859 -0.028595716298750094
-0.05394242797581361 -0.22387675599611048 -0.022591327448057686
-0.05368854101856206 -0.2290696394722341 -0.016823116820274996
-0.0535678748475808 -0.2345476748882418 -0.01128939319694828
-0.05358312410022467 -0.240333976526497 -0.005949385596024637
-0.053758497852665316 -0.2464116457604704 -0.0007219991590346683
-0.05413479086686474 -0.25272361182740766 0.004499054979246931
-0.05474852765463694 -0.25918684475856746 0.009816168354242392
-0.055604686114965024 -0.2657090224331711 0.015295555791624461
-0.05665551371073654 -0.2722231880849877 0.020945021775589705
-0.05779283511576771 -0.2787024048616442 0.026709426080240295
-0.05886032391874691 -0.28516289078877793 0.032484022400294126
-0.05967994987486758 -0.2916633667841408 0.038141138987155404
-0.06009216932660084 -0.29828527373549046 0.043559492602423894
-0.05999365802393959 -0.3051128412626898 0.04865291035024546
-0.05936195054786104 -0.3122089831215806 0.05338643890402435
-0.05825579710086007 -0.31959926147791173 0.057779644697943285
-0.05678682125433182 -0.3272537525088379 0.061896502058488914
-0.055072728913117173 -0.3350915197835134 0.06582501322029964
-0.0531859648931545 -0.3429818316374967 0.06965281304014471
-0.05111764624463823 -0.3507588798927427 0.07344816610511759
-0.0487667014033038 -0.3582444493668141 0.07724630262025398
-0.045962867903405695 -0.36526904917635544 0.08104861517661865
-0.04251177386297353 -0.3717033010875067 0.08482903829037154
-0.038247797267631875 -0.37747309015700636 0.08854584067027257
-0.033078088351077735 -0.3825658524710974 0.09215496520839568
-0.02700218267287681 -0.3870362896148009 0.09562038959208874
-0.020107152358016273 -0.3909788809779545 0.09891966346819685
-0.012544770907270046 -0.3945089018436435 0.1020454632762447
-0.004497199587270786 -0.3977422736115423 0.10500417432524567
0.0038554328653766625 -0.400765351813442 0.10781169696260094
0.012360609060734684 -0.4036295014000148 0.11048931468527509
0.020909424774574494 -0.40633870257746396 0.11305941124290707
0.029441577773782635 -0.40885554386903145 0.115541447273077
0.03793984402865801 -0.41110286650180156 0.11795215371102544
0.04641850157142091 -0.4129854468422971 0.12030710305798886
0.05490705328308742 -0.4144144751443513 0.1226251659975577
0.06343424173745354 -0.4153214511103227 0.12493457084075373
0.07201400597897946 -0.41567742085011006 0.1272789992076014
0.08063562717917973 -0.4155005711657903 0.12971974305975892
0.08926136928025755 -0.4148595056130448 0.13233579895903033
0.09782920338739683 -0.41386250592829155 0.13521666090151366
0.10626053450511327 -0.4126509407757019 0.13845067051378537
0.11447299768637095 -0.4113887041181997 0.14211058549408365
0.1223936303078794 -0.4102443746810074 0.14623881434399888
0.12997123699929294 -0.40938044712529154 0.15083876510500488
0.13718500161804717 -0.40892955805879405 0.15586898344702535
0.14405041956593512 -0.40898260606018094 0.16125285234973322
0.150617470591588 -0.40956573779574623 0.16688869522477648
0.15696514119289165 -0.41064809263479835 0.1726601145138975
0.1631842158621161 -0.41214470604729525 0.1784569464630159
0.16936887222932484 -0.41394720173731564 0.1841770391462303
0.17558354119603237 -0.41596881257012935 0.1897438611466943
0.18185506250065386 -0.4181739609000682 0.19509766165153528
0.18814775070559397 -0.4206066190269658 0.2001992001679841
0.19436636554189315 -0.42337770706821337 0.20503448673023356
0.2003569316437318 -0.42661875636214075 0.20961175141100996
0.20591601397059361 -0.43041556748404686 0.21397907457329082
0.21081187637010387 -0.4347491162792973 0.2182183948969774
0.2147948663582707 -0.4394465469022881 0.22245950030669462
0.21760025976378464 -0.44418217769775475 0.22687092861921931
0.21895501867839842 -0.44850357848392686 0.2316511462348013
0.21858347130176714 -0.4518737854307354 0.23701653408699738
0.21620523351588666 -0.4537204670264572 0.243196052810582
0.21154023851554296 -0.45345773041280096 0.2504176679519114
LINES 1 120
119 0 1 2 3 4 5 6 7 8 9 10 11 12 13 14 15 16 17 18 19 20 21 22 23 24 25 26 27 28 29 30 31 32 33 34 35 36 37 38 39 40 41 42 43 44 45 46 47 48 49 50 51 52 53 54 55 56 57 58 59 60 61 62 63 64 65 66 67 68 69 70 71 72 73 74 75 76 77 78 79 80 81 82 83 84 85 86 87 88 89 90 91 92 93 94 95 96 97 98 99 100 101 102 103 104 105 106 107 108 109 110 111 112 113 114 115 116 117 118
POINT_DATA 119
SCALARS isSiphon int
LOOKUP_TABLE default
1
1
1
1
1
1
1
1
1
1
1
1
1
1
1
1
1
1
1
1
1
0
0
0
0
0
0
0
0
0
0
0
0
0
0
0
0
0
0
0
0
0
0
0
0
0
0
0
0
0
0
0
0
0
0
0
0
0
0
0
0
0
0
0
0
0
0
0
0
0
0
0
0
0
0
0
0
0
0
0
0
0
0
0
0
0
0
0
0
0
0
0
0
0
0
0
0
0
0
0
0
0
0
0
0
0
0
0
0
0
0
0
0
0
0
0
0
0
0
