# vtk DataFile Version 2.0
Vessel Segment
ASCII
DATASET POLYDATA
POINTS 119 float
0.0012387470125188556 -0.007696000958590894 -0.0019476796938754017
0.001884746585363367 -0.015486203489498262 -0.0019453591949613403
0.0019105877267866327 -0.02328495520924012 -0.0002864218371878194
0.0012972899179532135 -0.03100950181045707 0.002725357908512683
4.688157032866097e-05 -0.038583230904526165 0.006759795533295247
-0.0018066892979996642 -0.04593834115702228 0.011444980041585765
-0.004194033125495649 -0.05301743084561014 0.016359701071896857
-0.007016088681774711 -0.05977338063041026 0.02104514568329073
-0.010154961177504317 -0.06617499171457743 0.025036369357070556
-0.013482358141446504 -0.07221698051937066 0.02790836133263098
-0.01686379395666404 -0.0779335584699093 0.02933170748961583
-0.02015750307733917 -0.08340706523649803 0.029124115977339927
-0.023216203172243707 -0.08876283381812164 0.02727344436784688
-0.02589690988290775 -0.09415328436247246 0.023943016182460086
-0.028079956148710984 -0.09973317566249379 0.019445415658228077
-0.029688041479465892 -0.105632677881426 0.014177912208333449
-0.030695312118258072 -0.11193779695645047 0.008549837014553372
-0.031120639309695348 -0.11868239888369983 0.0029151811069897757
-0.031009166612721212 -0.12585226621259873 -0.0024713502777462463
-0.030407185156183687 -0.13339873371900798 -0.007469650468099883
-0.029339673161198503 -0.14125121941326035 -0.01204455367132635
-0.027794977354730434 -0.14932340988656612 -0.016241861869752763
-0.025722855454014707 -0.15751265677429915 -0.02016173260402182
-0.02304746859327956 -0.16568064261866247 -0.0239380042970894
-0.019698176221265625 -0.17364300268136457 -0.027720269433194184
-0.015649742040926107 -0.181153021393502 -0.03166062536016208
-0.01096153022010628 -0.18789999967178858 -0.035892499281725714
-0.005802888901694608 -0.19353295284574196 -0.04050246303018445
-0.00045419538270384275 -0.19770364638638155 -0.045494388524307504
0.004716504821355184 -0.20011940042907625 -0.05075671117973801
0.00929694970173658 -0.20061176086321117 -0.056045930293737
0.012885022242691285 -0.19917170399606635 -0.061002712306029876
0.015143776420782807 -0.19597240709396885 -0.06519845091915222
0.015849965685189083 -0.19134497011421914 -0.06820929966937021
0.014926909153417519 -0.1857197085147072 -0.0696950720133295
0.01245673655377189 -0.17955378851102158 -0.06946341536908597
0.008664230958668669 -0.17326378659183286 -0.06749247148435095
0.0038818952870699323 -0.16716680592914396 -0.06392485873673708
-0.0015030547958389874 -0.1614675674849131 -0.05902694760988096
-0.00710566098208292 -0.15626730810408568 -0.05313002530910446
-0.012592446116379235 -0.15159530547907668 -0.04657466187793821
-0.017709994859402563 -0.14746009608115895 -0.03966554987622078
-0.022291424487983713 -0.14387941367092477 -0.03264184057642634
-0.026238366429131077 -0.14090358687113883 -0.025666525928458032
-0.029486719152287545 -0.1386016614174734 -0.018829953749548278
-0.03197156142755515 -0.13703982959453198 -0.01216506862088861
-0.03360435887107671 -0.1362513182602602 -0.0056722856558090624
-0.034276700544474854 -0.1362275983198989 0.0006533024701409967
-0.033892165031792265 -0.13693318439159663 0.006793837390435003
-0.03241084424724872 -0.13833780021607459 0.012690943369254408
-0.029886772862353937 -0.14044159407881596 0.018247560609226634
-0.02648699333433636 -0.1432866695458379 0.02335085050739783
-0.02247791228171181 -0.1469394619836988 0.02791132468562124
-0.018187952363514597 -0.15145462817975053 0.03190161996725683
-0.013959086222903917 -0.15684123244925843 0.03537581447708015
-0.010095710550434879 -0.163050606901994 0.03845842641133542
-0.00682063481950204 -0.16997357967267457 0.04130890163698213
-0.004245160509801841 -0.17746842427202308 0.04407387100291022
-0.0023564508794754425 -0.18537820567170624 0.046850285344716254
-0.0010261242769515574 -0.1935571935064918 0.049668620617283235
-3.765305269041603e-05 -0.20188433634321917 0.05250126795902693
0.000868142828487207 -0.21026722272696724 0.05528169192688871
0.0019423794728845919 -0.21864182023319553 0.057928082837148356
0.0033824454154659472 -0.22697311647694512 0.060366041869764825
0.0053063793005280946 -0.2352359954892926 0.06254415940664544
0.007751370741551052 -0.24341483204058542 0.06444734971859423
0.010695776235679282 -0.2514808559761492 0.06610561832629833
0.014090329550134412 -0.2593887728224329 0.06759883893025227
0.017888781406376397 -0.26707139906247823 0.069055541124784
0.022064849787771457 -0.2744412530781717 0.07064076420956716
0.026613642679926268 -0.2814010342001426 0.07253242659270451
0.03154073173111743 -0.28785599951333285 0.07488834721806563
0.03684705455088146 -0.2937261676923489 0.0778159084851705
0.04251913679193286 -0.2989451691435896 0.08135331206019372
0.04852711813615527 -0.3034555672315007 0.085468728193176
0.05483124847628095 -0.30720918188707547 0.09007375847012576
0.06138801910261894 -0.3101624933168895 0.09504515213397806
0.06815650437510466 -0.31229220360661986 0.10024990675971479
0.07509907155108433 -0.3135993965428566 0.10556486764962089
0.08218015419507496 -0.31412619477260395 0.11089227234840081
0.08936599862435908 -0.313950235929662 0.11616547115671252
0.09662460381916155 -0.31318188157567345 0.12135102748737676
0.10392939446992143 -0.31194904417295083 0.12644115859026483
0.11126360347900786 -0.31039561880175104 0.13143780432548596
0.11862307655009419 -0.3086627148479557 0.1363482055787262
0.12601503082406754 -0.3068912039838991 0.14117232225892734
0.1334509890469759 -0.3051975161544609 0.14591018803408762
0.14093957651988623 -0.303667320056434 0.15056392052473022
0.1484768989919815 -0.3023486747138325 0.15515105258078393
0.15604093872737232 -0.30124364083216565 0.1597117941637026
0.1635948877033601 -0.3003196089872265 0.16430999232421206
0.17109389823655094 -0.299518241417171 0.16902437887774557
0.17849380259308018 -0.29877371839043615 0.17393125940391121
0.18576784638592964 -0.2980409804189709 0.17908015201249491
0.19290575531529813 -0.29731667289033503 0.18447294794489186
0.19991920958345893 -0.296657338613485 0.19005486925965645
0.20682049238031947 -0.2961944228958299 0.1957089766085045
0.21360974598540894 -0.29612405925194296 0.20128678400701305
0.22024340440467569 -0.2966806832526767 0.2066290255821324
0.226636151902219 -0.29809807905899166 0.21160871390787625
0.23266366301848485 -0.3005643775840779 0.21615056816952327
0.23819116920448813 -0.3041797432830337 0.22024413406965554
0.2431037414174526 -0.30893915363241964 0.22395037631144596
0.24734050899585344 -0.31473261979098693 0.22737898460600087
0.25090322136175536 -0.32136818545715823 0.23067424935878753
0.25385323433892804 -0.32861449046915797 0.23397596136132373
0.25628067281465067 -0.336241153780872 0.23739838643775618
0.2582694024451136 -0.34405478307944953 0.24100006247692396
0.2598673185510721 -0.35193055994287115 0.24478220112361918
0.26107741822980174 -0.359804810788452 0.24869097995688372
0.2618639858578793 -0.367665252895208 0.25263794304936427
0.26216825623507484 -0.37553029532174975 0.2565232774973112
0.2619273372171799 -0.3834320031657718 0.2602538114766712
0.26108797123736094 -0.3914000031364547 0.2637521286713934
0.25961531691093914 -0.3994606989303912 0.266961044779312
0.25749355820218844 -0.40763126798616944 0.2698431504661888
0.2547192860797093 -0.4159254157250539 0.27237062859489686
0.25129584604057004 -0.42435439179717366 0.27452386454898753
0.24723126799650963 -0.43292734786695614 0.2762833909514548
LINES 1 120
119 0 1 2 3 4 5 6 7 8 9 10 11 12 13 14 15 16 17 18 19 20 21 22 23 24 25 26 27 28 29 30 31 32 33 34 35 36 37 38 39 40 41 42 43 44 45 46 47 48 49 50 51 52 53 54 55 56 57 58 59 60 61 62 63 64 65 66 67 68 69 70 71 72 73 74 75 76 77 78 79 80 81 82 83 84 85 86 87 88 89 90 91 92 93 94 95 96 97 98 99 100 101 102 103 104 105 106 107 108 109 110 111 112 113 114 115 116 117 118
POINT_DATA 119
SCALARS isSiphon int
LOOKUP_TABLE default
0
0
0
0
0
0
0
0
0
0
0
0
0
0
0
0
0
0
0
0
0
0
0
0
0
0
1
1
1
1
1
1
1
1
1
1
1
1
1
1
1
1
1
1
1
1
1
0
0
0
0
0
0
0
0
0
0
0
0
0
0
0
0
0
0
0
0
0
0
0
0
0
0
0
0
0
0
0
0
0
0
0
0
0
0
0
0
0
0
0
0
0
0
0
0
0
0
0
0
0
0
0
0
0
0
0
0
0
0
0
0
0
0
0
0
0
0
0
0
