# vtk DataFile Version 2.0
Vessel Segment
ASCII
DATASET POLYDATA
POINTS 119 float
-0.0001204933996774544 -0.007595788031172523 -0.006240364345623834
-0.00228029412296772 -0.014387377731417817 -0.010288698826446155
-0.006119524533197165 -0.020535794643279193 -0.012592655603755469
-0.01128146527555954 -0.026198533700034658 -0.013602572169310233
-0.017420022294517924 -0.03152212962184726 -0.013774252943388566
-0.02421032242828783 -0.03662847398243393 -0.013567703677401883
-0.03135878092910676 -0.0416035145855557 -0.013435412466280532
-0.03860558962589624 -0.04648751387285357 -0.01379630493360254
-0.04572112304515779 -0.05127629000135359 -0.015001457513248571
-0.05249485975612961 -0.05593080046550258 -0.01730064704533152
-0.0587251348935442 -0.060393980540929385 -0.020818361485641493
-0.06421353743626936 -0.0646081041319015 -0.02554760669528461
-0.06876741874605102 -0.06852770321956912 -0.031360606935777066
-0.07221263014771392 -0.07212579813377919 -0.03803477697667099
-0.07441034597306558 -0.07539777129877036 -0.04529016001920565
-0.0752732201391098 -0.07836838444155468 -0.05282943568764272
-0.07477854481810135 -0.08110117673157054 -0.06037666198462599
-0.07297613398673465 -0.08370574290427464 -0.06770905254129343
-0.06999054250303213 -0.08633364181590655 -0.07467816932924505
-0.06601498092668782 -0.08915763466756865 -0.08121319759608779
-0.06129666452420888 -0.0923373401331657 -0.08730561949379523
-0.05611368914367581 -0.09598414033188593 -0.09297765197855629
-0.05074970583765548 -0.10013795151750683 -0.09823678839286357
-0.04547050044508972 -0.10476252143479609 -0.10302973650832353
-0.040507130693145224 -0.10976053645118689 -0.10721244412892482
-0.036046977936263415 -0.11499497780187723 -0.11054716277686963
-0.0322320398193523 -0.12030804172975808 -0.11273524440642586
-0.02916345502936543 -0.12552823703471175 -0.1134824072955588
-0.026904881793182078 -0.13047119967503282 -0.1125699980015043
-0.02548736509988433 -0.13494416947688603 -0.10990594359966395
-0.02490370839363007 -0.13876345577812182 -0.1055585419598062
-0.025104242540491328 -0.14178678696244615 -0.09974179151195939
-0.02599383418344509 -0.14394510252704124 -0.09276883409447251
-0.02743751085514807 -0.14526174833698002 -0.08499415553360992
-0.02927267105776747 -0.14586423518003763 -0.07675870487994814
-0.03132865684064957 -0.14595506012652543 -0.06834748435490079
-0.03345045289201096 -0.14579210103219073 -0.059968919225444915
-0.035523814496877956 -0.14564241039023013 -0.05175237855409973
-0.037492083251764945 -0.1457611615335307 -0.04375913851465471
-0.03935647182278666 -0.14634950393736537 -0.036002725610732846
-0.04115627685118987 -0.1475380186379881 -0.02846448064210035
-0.04293701627505438 -0.14936630641667192 -0.021107605194574063
-0.04471630132203583 -0.15179795919817524 -0.013882090128643275
-0.04646180792875584 -0.1547315741202422 -0.0067292073570893686
-0.04808922414143657 -0.15804780655136855 0.0004147940762930459
-0.04948327177559232 -0.16163597697430587 0.007610059392550032
-0.05053184409847853 -0.16541909395805154 0.014900497691993152
-0.05115693801977772 -0.16936682299874395 0.022299678472799372
-0.05132963298920122 -0.1734939762751473 0.02977980289210269
-0.05106511474527113 -0.17785584436368612 0.03726719725214735
-0.05040380080838338 -0.18252743626939086 0.044645834846154225
-0.04939061172048477 -0.1875904696367783 0.051771825099428063
-0.04806231890754502 -0.19311153394385985 0.0584913283585338
-0.0464433933709556 -0.1991307497700966 0.0646629622860654
-0.044549741693570566 -0.20565107968383237 0.07017771786815057
-0.042391985314715504 -0.2126396835236759 0.07497462802028913
-0.039975085970471266 -0.22002170554228484 0.07905074918378854
-0.03729359213935502 -0.22769028369556252 0.08246393888113887
-0.03432521995016431 -0.23551194536633685 0.08532733513766466
-0.031028992440754632 -0.24334312733977034 0.08779543365880473
-0.02734989419887025 -0.2510414816251428 0.0900427354308904
-0.02323128168018807 -0.2584810563152336 0.09223920580455873
-0.018629473727494877 -0.2655706442673956 0.09452653993468987
-0.01352657050135918 -0.27225312767720855 0.09700012295734128
-0.007934260251999177 -0.2785051250373918 0.09970097620760907
-0.0018888752442091955 -0.2843153154480627 0.10261796580048692
0.004560717712438833 -0.28967541192019597 0.10569776353904248
0.011365875839011205 -0.29456322294156373 0.10886144163139741
0.018486984473148293 -0.29893832330549297 0.11202171546062252
0.02589567468053023 -0.3027486773706068 0.11509985964131522
0.033570594598278616 -0.3059493695000884 0.11803922641066722
0.04148941890291609 -0.30851504467999635 0.12081280676675668
0.04962246646154681 -0.31045860568392614 0.12342596709724929
0.05792922775863988 -0.311829536177237 0.12591255155727438
0.0663611949724938 -0.3127072906520748 0.12832704876799053
0.0748687288635048 -0.3131891374285917 0.13073328497617617
0.08340841733093064 -0.31336702458402965 0.13319279941442844
0.09195084495062315 -0.3133233889436295 0.13575413539177222
0.10048438182631667 -0.3131137739686078 0.13844561945292058
0.10901383514140976 -0.31276691432429327 0.1412717387078845
0.11755492843359112 -0.31227819868143497 0.14421291775254905
0.1261236429766879 -0.31161977158516196 0.14723554628260627
0.13472311090377054 -0.3107420185736856 0.15029897852556762
0.14333046023683552 -0.30958976597623256 0.15336757438824708
0.15188726835491945 -0.30811439087360765 0.15642662686536032
0.16029469512912636 -0.3062897078391924 0.15949005912542963
0.16841922430371314 -0.3041292958690923 0.16261509822824613
0.17611470557068232 -0.3016976918435001 0.1658954826457206
0.18324317755639155 -0.2991117468840229 0.16945394809812106
0.1897127945086242 -0.29654259006589045 0.1734183080913022
0.19551365925927802 -0.294197629091245 0.17789079831633922
0.20073859397414806 -0.2923026431700917 0.1829093422988059
0.20557679952442207 -0.29107293126337436 0.18843601987036124
0.21028071579485527 -0.290690084910079 0.19434995404666344
0.2151078623428962 -0.2912685474485627 0.200475000835396
0.22024305305409858 -0.29285520555959754 0.20660876787828222
0.22573821054242152 -0.2954256747937666 0.21256956029156185
0.2314806909139146 -0.2989047751651337 0.2182076844925205
0.23719148868943724 -0.303188142435893 0.2234301530795749
0.24248042281620774 -0.30817041739664114 0.2281882137296832
0.24691323940653265 -0.3137603176888693 0.23247350953604987
0.250101662333178 -0.319884342548303 0.23631267960071276
0.2517851623402808 -0.3264858756876812 0.23976404552393435
0.2518936925049266 -0.3335074109822298 0.24291103036307174
0.25056528703378633 -0.34088499876559114 0.24586094043179813
0.24813323975373616 -0.34854091197096265 0.2487307944850695
0.24507161784886386 -0.35638592100486205 0.25164081820601253
0.24192392057607368 -0.3643216211481962 0.25469696101133593
0.23922350141225546 -0.3722471013135327 0.2579755603342786
0.23742189970127622 -0.3800685983363449 0.26152582588598333
0.2368312533215943 -0.38769715987830833 0.2653597411874147
0.2375985509302443 -0.3950602647915462 0.2694754967310301
0.23968854420264402 -0.40209181966073826 0.27386342107928735
0.24290270101478134 -0.40874109652338414 0.2785219733746241
0.24690414778430647 -0.41496053769203284 0.28347058394821134
0.25126108576728917 -0.4207086146390072 0.28874663612656926
0.25548039340718665 -0.42594297021280547 0.29440405560038163
0.25904127172522196 -0.43062441988913963 0.300507988466926
0.26141591834781164 -0.4347114595148574 0.30712212854677157
LINES 1 120
119 0 1 2 3 4 5 6 7 8 9 10 11 12 13 14 15 16 17 18 19 20 21 22 23 24 25 26 27 28 29 30 31 32 33 34 35 36 37 38 39 40 41 42 43 44 45 46 47 48 49 50 51 52 53 54 55 56 57 58 59 60 61 62 63 64 65 66 67 68 69 70 71 72 73 74 75 76 77 78 79 80 81 82 83 84 85 86 87 88 89 90 91 92 93 94 95 96 97 98 99 100 101 102 103 104 105 106 107 108 109 110 111 112 113 114 115 116 117 118
POINT_DATA 119
SCALARS isSiphon int
LOOKUP_TABLE default
0
0
0
0
0
0
0
0
0
0
0
0
0
0
1
1
1
1
1
1
1
1
1
1
1
1
1
1
1
1
1
1
1
1
1
0
0
0
0
0
0
0
0
0
0
0
0
0
0
0
0
0
0
0
0
0
0
0
0
0
0
0
0
0
0
0
0
0
0
0
0
0
0
0
0
0
0
0
0
0
0
0
0
0
0
0
0
0
0
0
0
0
0
0
0
0
0
0
0
0
0
0
0
0
0
0
0
0
0
0
0
0
0
0
0
0
0
0
0
