# vtk DataFile Version 2.0
Vessel Segment
ASCII
DATASET POLYDATA
POINTS 119 float
-0.008777046616006982 -0.003933457807467293 -0.00300559341513469
-0.01614401311455917 -0.009045399750821801 -0.0036266882448463293
-0.022361837103786766 -0.01504225705009296 -0.0023668193126731036
-0.027691801366488508 -0.021631281271380975 0.00026820197247915035
-0.0323935538055931 -0.02852412478861646 0.0037685868475437452
-0.03671897099991594 -0.03544571139206809 0.007623115100796416
-0.04090058883174806 -0.04215160184301676 0.01133120250010845
-0.04513443792233496 -0.04844905715839622 0.014427389428405615
-0.049559731893521676 -0.05422304200624623 0.016519170819643176
-0.05424136236835965 -0.05945241112303132 0.01732937887122236
-0.059157366205368954 -0.06421684088711464 0.01673653349107245
-0.06419320054620498 -0.06868408808283667 0.014798006372886075
-0.06914965432021626 -0.07307721125115026 0.011735812608715805
-0.07375984976495725 -0.07762731970697924 0.00788876456221408
-0.07771658137575789 -0.08252529985671729 0.003637094592082999
-0.0807103800709825 -0.08788553095195306 -0.0006805795456142879
-0.08247145059618453 -0.09373246491012857 -0.004832537762162284
-0.08281441789873141 -0.10001206531801855 -0.008729051442100738
-0.08167378119729055 -0.10662329319951494 -0.012417712191960771
-0.0791257294897544 -0.1134558483719874 -0.016048085046529287
-0.07538910574899027 -0.12041927915160318 -0.01981720895608146
-0.07080155276191179 -0.12745386835284472 -0.023905422866613932
-0.0657773024597985 -0.1345225925470064 -0.02841634753190496
-0.06075641369094476 -0.14158802479948762 -0.03332950155265265
-0.05615051533019156 -0.14858190304187416 -0.038474726216505994
-0.052294614388301866 -0.1553803462632951 -0.043531189280113326
-0.04940882606266653 -0.16178551475337394 -0.048060044928243915
-0.047576465034951256 -0.16754093755587046 -0.05156617483136069
-0.046737752693410455 -0.17234794223293862 -0.05358069039741986
-0.046705470594762204 -0.17591685222706036 -0.05375198072676297
-0.04720155577542595 -0.1780147005868754 -0.051914173433946637
-0.04790603712651721 -0.1785011110755848 -0.04810794353557749
-0.0485099102528121 -0.1773597848715563 -0.04257619495821219
-0.04876043304145443 -0.1747182558380825 -0.03571264483001596
-0.048494165892806106 -0.17082068987104787 -0.027976692434059456
-0.04765205850226964 -0.16600725966951696 -0.019809168001422843
-0.04627522494568358 -0.16067395571107346 -0.011566927875096228
-0.04448580153777689 -0.15524185396389606 -0.003488272964219918
-0.04246129888921137 -0.1501140340890561 0.004311457774882722
-0.04040892748479683 -0.14565092042974767 0.011816909147827279
-0.038540289365906685 -0.1421397039023999 0.01907473840310648
-0.037049217072867686 -0.13978261653945975 0.026153161626279255
-0.036086568727411776 -0.13869203530466445 0.03310515636335169
-0.035733662937087005 -0.13890497307849647 0.039944886924285695
-0.0359728350595925 -0.14040250539386775 0.04663413773850225
-0.036676537653072085 -0.1431309461853358 0.05308666697167455
-0.03762200158737931 -0.14701557971326967 0.05918531764963093
-0.038531539114340624 -0.15196343540229418 0.06480716945733564
-0.03913048191464801 -0.15785700339925196 0.06985157365362997
-0.039203024548478786 -0.16455163139458348 0.07426519997405519
-0.03863366399418831 -0.17188562473993213 0.07805566708614589
-0.03742277026238373 -0.17969012279280847 0.08129442889173301
-0.03567580484015654 -0.1878014257406743 0.08410332371009227
-0.033574029381155265 -0.19607938160895386 0.08663350969245466
-0.0313316115390538 -0.20441836053173787 0.0890351208209958
-0.02915362908800121 -0.21275302568400745 0.09143130707905701
-0.027202639250091323 -0.22105285393772783 0.09389762673930212
-0.025582649680408465 -0.22932782865104226 0.096455012290643
-0.02433653393144822 -0.23761045364845954 0.09907588331898434
-0.023455662480904717 -0.2459495705322271 0.10170004097954835
-0.02289399778990454 -0.25438778624392006 0.1042587939021576
-0.022581483396713863 -0.26295754191022735 0.10670051755069415
-0.02243205104785286 -0.271658792818716 0.10901323632142283
-0.022346952020697034 -0.28044778131072995 0.11123618605047426
-0.022213250959291362 -0.2892381993830277 0.11346284404263814
-0.021903156787915126 -0.2978951957259457 0.11583023607227308
-0.02127394273643829 -0.30624939272046076 0.11849492458494373
-0.020175769284370412 -0.3141185946754339 0.12160470946823038
-0.01846340821802293 -0.32131919628084066 0.1252658349897545
-0.01601395782253339 -0.3277053703345924 0.12951846602164277
-0.012744253227240395 -0.33317654644690986 0.13432391625203632
-0.008623941762058473 -0.3376924862041605 0.13957214856155828
-0.0036808005636086065 -0.34127188152338905 0.14510827428303166
0.00199955161062876 -0.34397952740335397 0.1507659998339546
0.00828180978794462 -0.3459152839236533 0.15640767712043147
0.014994572179549616 -0.347201716116624 0.16195398761133142
0.021949957593543085 -0.3479684230382532 0.16738810315551847
0.028967706799942518 -0.34834024819542103 0.17275047454871417
0.03590248817062964 -0.34843010426565585 0.17810686039012014
0.04266450697273055 -0.3483211781608026 0.18352485839137408
0.04922979981728065 -0.3480725099745854 0.18904158308635965
0.055634240755899775 -0.3477116213477338 0.19465598667274897
0.061955555028127524 -0.34724474167219266 0.2003264798749938
0.06828479926489416 -0.34666504636623513 0.20600050799361724
0.0747021265281799 -0.3459592926848474 0.21162190741060233
0.0812585015134407 -0.3451128733744941 0.217148147093959
0.08797193472162361 -0.34411231996691993 0.22255511210155857
0.09483125059478294 -0.3429445556487128 0.2278356450485457
0.10180545349737355 -0.3415999389822559 0.2329922258218541
0.1088526922619629 -0.3400575732401862 0.23803394068248984
0.11592643828807188 -0.33829622755346805 0.24297460460674022
0.1229811205826788 -0.3362947710139303 0.24783604392836822
0.1299763281138138 -0.33403162381983226 0.2526503955194892
0.13688541476628718 -0.33149698558967305 0.2574470100857621
0.1437011840766525 -0.3286997680304651 0.262251967379899
0.15044099316220022 -0.3256824662283181 0.2670802020632886
0.15714630839133129 -0.3225172000504477 0.27192959850888143
0.1638733687413047 -0.3193131623115711 0.276783501648564
0.17068134402968213 -0.3162138700300478 0.28161779649690827
0.17760956154127946 -0.31338166339682416 0.2864170476588664
0.18466511455606238 -0.3109894506030359 0.29117419243746534
0.19180647438426895 -0.309202656086301 0.2959025236073314
0.19894821866021672 -0.3081711889038163 0.30063372915168696
0.20596116621825744 -0.3080174719422984 0.3054084388830921
0.21270176530259394 -0.30883665093182733 0.3102622539506525
0.2190332855955316 -0.31069146501235445 0.3152098258277281
0.22485091467862475 -0.31360614104276574 0.32023943022936013
0.23009756239268386 -0.3175667866643332 0.325312602684216
0.2347514367051821 -0.322504404913802 0.3303753721894402
0.23882292642031688 -0.3282929128421677 0.33538694413837017
0.24231722419698992 -0.3347521035431166 0.34033413640989263
0.24521487109487405 -0.3416472518960603 0.3452458949514909
0.2474530462923876 -0.34871309690928637 0.3501937141522383
0.2489210212015088 -0.3556587203715008 0.3552874623029678
0.24946744206515348 -0.3621840693352371 0.3606567101481507
0.24891103483507124 -0.36799232342575433 0.3664460646616992
0.2470595506143332 -0.37278737882321134 0.3728017759674541
0.2437110242976284 -0.3762761276447036 0.37987129825846216
0.2386672633030025 -0.37816975423099053 0.38780370059296326
LINES 1 120
119 0 1 2 3 4 5 6 7 8 9 10 11 12 13 14 15 16 17 18 19 20 21 22 23 24 25 26 27 28 29 30 31 32 33 34 35 36 37 38 39 40 41 42 43 44 45 46 47 48 49 50 51 52 53 54 55 56 57 58 59 60 61 62 63 64 65 66 67 68 69 70 71 72 73 74 75 76 77 78 79 80 81 82 83 84 85 86 87 88 89 90 91 92 93 94 95 96 97 98 99 100 101 102 103 104 105 106 107 108 109 110 111 112 113 114 115 116 117 118
POINT_DATA 119
SCALARS isSiphon int
LOOKUP_TABLE default
0
0
0
0
0
0
0
0
0
0
0
0
0
0
0
0
0
0
0
0
0
0
0
0
0
1
1
1
1
1
1
1
1
1
1
1
1
1
1
1
1
1
1
1
1
1
1
0
0
0
0
0
0
0
0
0
0
0
0
0
0
0
0
0
0
0
0
0
0
0
0
0
0
0
0
0
0
0
0
0
0
0
0
0
0
0
0
0
0
0
0
0
0
0
0
0
0
0
0
0
0
0
0
0
0
0
0
0
0
0
0
0
0
0
0
0
0
0
0
