# vtk DataFile Version 2.0
Vessel Segment
ASCII
DATASET POLYDATA
POINTS 119 float
-0.005534216517902155 -0.0004920810972926493 -0.008285619679959543
-0.00994006864310755 -0.003916726247247032 -0.013893611484126878
-0.013512132834916648 -0.009623177120255866 -0.017206845771423243
-0.016539423401473387 -0.01696726068270833 -0.018610516746590016
-0.01929400669121911 -0.025326883667074678 -0.01849554578184081
-0.022011824866743617 -0.03412751167711493 -0.017265102070494774
-0.024870660770428033 -0.04287178026245133 -0.015341784313620944
-0.02797096380595586 -0.051169375196089634 -0.013172271199864593
-0.031326286687743794 -0.05875678546698895 -0.0112204148973625
-0.03486359373102351 -0.06550622171818477 -0.009941901290351331
-0.03843747577143267 -0.0714181944268018 -0.009739146898552804
-0.041855038060781155 -0.07659819321051405 -0.010905157087947098
-0.044903285731702935 -0.0812174742710919 -0.013579784355138076
-0.047375047166375334 -0.08547085725192692 -0.017737467588244828
-0.04908866677722045 -0.08953731224810964 -0.023205364387566492
-0.04990363642832209 -0.09355860648877265 -0.029709053195033776
-0.049733929178637 -0.0976403639722618 -0.036932710379692105
-0.048557371534736604 -0.10186758658403852 -0.04456922122674722
-0.046416567688464166 -0.10632535167629924 -0.05235196351827391
-0.043410789637235665 -0.11110711874143563 -0.060062766797558544
-0.039681783049706834 -0.116308121400926 -0.06752231315009458
-0.035398324787098846 -0.12200148553891066 -0.07456516676447879
-0.03074433133150727 -0.1282064423861247 -0.08101086866063624
-0.025913513541614617 -0.13486000758483188 -0.0866407605647888
-0.021105757794190032 -0.14179028692770207 -0.0911898413416916
-0.016522481648067522 -0.14872118339070803 -0.09436602400477682
-0.012354809915173171 -0.1552769710640076 -0.09589334287678476
-0.008763742710255753 -0.1610200984946904 -0.09557297918035904
-0.005857010849507284 -0.16550595640526555 -0.09334495946307272
-0.003672911388028859 -0.168352858029548 -0.08932605251093467
-0.002177362583506647 -0.16931263415371683 -0.08380917483754756
-0.0012732529949638 -0.16833068713943256 -0.07722349261458966
-0.0008197298105774856 -0.1655821356580184 -0.07005877232568268
-0.0006563943035927385 -0.16146192388153827 -0.06277940891156675
-0.0006308841158807451 -0.15653094357351166 -0.05575000908189983
-0.0006250188255837742 -0.15141935632832643 -0.04919038949040936
-0.0005723875818700033 -0.1467094041448544 -0.043165785597791995
-0.00046182962696823414 -0.14281375374475536 -0.03760590049378349
-0.0003244324696591244 -0.13990168065759873 -0.03234382238988969
-0.00020875489265387021 -0.1378815565130097 -0.027160243085163408
-0.00015512682974162527 -0.13646101458171828 -0.021822206737419893
-0.0001801696266874054 -0.135261261734447 -0.016119506465899904
-0.00027765808207804344 -0.13396228759379797 -0.009897843629712449
-0.000431265500822056 -0.13240881682695121 -0.003088263819246083
-0.0006277845584886295 -0.1306688688370435 0.004270967854690731
-0.0008621029242659711 -0.12901783975796074 0.012024573194353514
-0.0011314968715396261 -0.12786984773395368 0.01991398929911282
-0.001422820781792731 -0.1276797397999706 0.027611616708265518
-0.0017003685215909103 -0.12884825131371336 0.03477113322049869
-0.0019029865246855012 -0.13164254706017087 0.041087033730610165
-0.0019533641611652526 -0.13614952184137336 0.04634957904125184
-0.0017759723346898791 -0.14225951001332937 0.05048058967716151
-0.0013177326376400328 -0.1496993445314227 0.053545908810617965
-0.0005642838836421714 -0.15809197808721712 0.05573942263496022
0.00045344210554721845 -0.16703457584192194 0.05735025828603056
0.0016664239958487407 -0.17615480904255132 0.058715303792250685
0.002989436580339891 -0.18516068679737638 0.06016483708426501
0.004351860765740878 -0.1938681861249782 0.06196947704948147
0.005726079952607296 -0.2021902415396803 0.06429734223537889
0.0071391639059208275 -0.2101313557115602 0.06719432682430661
0.008662960139972854 -0.21775638859452018 0.0705902605303398
0.010386292618151815 -0.22516237858644417 0.07432810305789153
0.012382503478237859 -0.23245655770291604 0.07820939305832413
0.014688082886678645 -0.23973433260564503 0.08204068160572593
0.01729743725188957 -0.2470608644872469 0.085674678102873
0.02017378465594136 -0.2544657268111619 0.08903666719588674
0.023267258004891312 -0.2619448923689889 0.09213450500084193
0.026532584424876018 -0.26946036350074765 0.09505196390098603
0.029946503725753453 -0.27694606665541055 0.09792492623383438
0.03352011600465494 -0.28431072512551153 0.10090341213648127
0.03730697862220681 -0.2914427825525457 0.10411157786217536
0.04139900484125289 -0.29820757471066034 0.1076182635794826
0.045908564371916705 -0.3044534374372164 0.11142891965437862
0.05094196240124623 -0.31003141714959925 0.11549639859895228
0.056573051464690965 -0.3148088127863965 0.1197436123944881
0.06282732340981187 -0.3186887708985368 0.12408613984039833
0.06967790352763685 -0.3216358223600864 0.12845037756132416
0.07705299654439131 -0.32368830214085803 0.13278123489644963
0.0848510496395496 -0.3249569439732945 0.13704560016410108
0.09295706716968669 -0.32560583339393395 0.14123102734614051
0.101257381324676 -0.32583270933474784 0.14534112867449542
0.10964943503287143 -0.3258270440618583 0.14939833493222443
0.11804539427606725 -0.3257406431588471 0.15343328372371826
0.1263718678487749 -0.3256648470856055 0.15749077356781202
0.1345670245591934 -0.325615265499748 0.1616216786323412
0.14258349661524347 -0.32554549728738297 0.1658742008204798
0.15038254308167565 -0.32535639944283545 0.1702838633258055
0.15794908049497075 -0.3249280335736627 0.17486475831780277
0.1652873253499986 -0.3241574719130145 0.1795976486352897
0.17243072433930082 -0.32298141626467414 0.18444126572406644
0.17942493197887724 -0.32140701650218867 0.18933538972836603
0.18632974368800048 -0.3195136694429766 0.19423102443684326
0.19319367432473608 -0.31743587426489817 0.19910308919231823
0.20005059341034617 -0.31533739686131473 0.2039590522555665
0.20691313287261648 -0.3133739267870444 0.20884536252614463
0.2137686028325514 -0.31166677114679425 0.21382460303291884
0.22059488116719397 -0.3102961344920222 0.21896717695136758
0.22736558159330833 -0.30931188187861974 0.22433082668305737
0.2340612052837985 -0.30875007126481285 0.22994708047103998
0.2406629686240711 -0.3086424856475894 0.23581184726570306
0.24714803989235867 -0.3090331958154397 0.24189191954145745
0.2534814093457632 -0.30997173220126273 0.24812469161384895
0.2595954088383643 -0.3115163765190571 0.25442804732807284
0.26539285330380435 -0.3137370306327969 0.26070953871548486
0.2707377257441638 -0.31670487844196965 0.2668759007416757
0.27546842187852266 -0.3204804070487179 0.27285044016630033
0.2794154591229738 -0.3251047805184716 0.2785771152812801
0.28243758888227094 -0.3305829232121254 0.28402747333231587
0.28445999061754385 -0.3368792554285014 0.2891984226981142
0.2855026629192297 -0.3439066781748538 0.29411481425341895
0.28569531184894686 -0.3515147102043615 0.2988336916789016
0.28527880507777875 -0.3594855420951094 0.3034449174144167
0.2845835482437576 -0.3675330520537761 0.308071889394013
0.28400577895096335 -0.3753064061904692 0.3128669473322824
0.28398675335055673 -0.3824014224338001 0.31799784685489224
0.2849848139257669 -0.38837905065937284 0.3236433469369945
0.2874676599851987 -0.3927744795985496 0.3299822069676622
0.2919056999635843 -0.3951127325486554 0.33719950756882056
0.2987697634158559 -0.3949181365008483 0.3454743622793134
LINES 1 120
119 0 1 2 3 4 5 6 7 8 9 10 11 12 13 14 15 16 17 18 19 20 21 22 23 24 25 26 27 28 29 30 31 32 33 34 35 36 37 38 39 40 41 42 43 44 45 46 47 48 49 50 51 52 53 54 55 56 57 58 59 60 61 62 63 64 65 66 67 68 69 70 71 72 73 74 75 76 77 78 79 80 81 82 83 84 85 86 87 88 89 90 91 92 93 94 95 96 97 98 99 100 101 102 103 104 105 106 107 108 109 110 111 112 113 114 115 116 117 118
POINT_DATA 119
SCALARS isSiphon int
LOOKUP_TABLE default
0
0
0
0
0
0
0
0
0
0
0
0
0
0
0
1
1
1
1
1
1
1
1
1
1
1
1
1
1
1
1
1
1
1
1
1
0
0
0
0
0
0
0
0
0
0
0
0
0
0
0
0
0
0
0
0
0
0
0
0
0
0
0
0
0
0
0
0
0
0
0
0
0
0
0
0
0
0
0
0
0
0
0
0
0
0
0
0
0
0
0
0
0
0
0
0
0
0
0
0
0
0
0
0
0
0
0
0
0
0
0
0
0
0
0
0
0
0
0
