# vtk DataFile Version 2.0
Vessel Segment
ASCII
DATASET POLYDATA
POINTS 119 float
-0.004489364337678064 -0.00921563424142678 0.0020790079522567677
-0.010046599353898776 -0.01656242341272153 0.004619181496036475
-0.01633647482532157 -0.0224150844676125 0.007263562014998368
-0.0230262614700415 -0.027148076403200317 0.009659461756068004
-0.029793493725562 -0.031132325539128043 0.0114690516824605
-0.03634139034826288 -0.03472501672358874 0.012390118622063845
-0.04242413505346936 -0.03824946827430887 0.012187764001641614
-0.04787222733367695 -0.041971487223058115 0.010730436709453634
-0.05260777867143696 -0.046082069335288106 0.008020100467512474
-0.05663633937495163 -0.05069678575682863 0.004201435868082759
-0.06001724432813218 -0.055870190092375205 -0.0004519004086243349
-0.06281704094431077 -0.061618274896360355 -0.005580256957387227
-0.06506480114524081 -0.06793558650311193 -0.010804834890641308
-0.06672244052767651 -0.07479827337464692 -0.015801337586223565
-0.06768319131383436 -0.08215147626492456 -0.020362822281421757
-0.06779496181988452 -0.08989206113484156 -0.024433495656565052
-0.06690273512646393 -0.09785434224033997 -0.028104372217968986
-0.06489335096262557 -0.10580833621564155 -0.03157311478531905
-0.06173441654999393 -0.11347164645493313 -0.0350724036443919
-0.057496494282399016 -0.12053580527308375 -0.03879179337739094
-0.05235852872193558 -0.12670403291327811 -0.04280024100518584
-0.04659849936012498 -0.13173886832638446 -0.04699729398123725
-0.040569482284927086 -0.13550030661188212 -0.05109875398199762
-0.0346645549359621 -0.1379791179975157 -0.054668976410456135
-0.029271425969862343 -0.1392970981804557 -0.057196034120174696
-0.024726271804087988 -0.13969160567667493 -0.05819499343385618
-0.02127216348539903 -0.13945889574307563 -0.05731398931274933
-0.019031594283363623 -0.1388972027813938 -0.05441189490716168
-0.01799636295333945 -0.1382326617352407 -0.04958419316686662
-0.018032769748780052 -0.13756967200645057 -0.043138337673696105
-0.018909698678348186 -0.13687396946889038 -0.035521285352695234
-0.020343973764847388 -0.1359880330225476 -0.02722881163290033
-0.022056759707931615 -0.13469575064614345 -0.01872438231738118
-0.023824726619780696 -0.13280312141443576 -0.01037682025651627
-0.02551445649482068 -0.13020902312853697 -0.0024278806466621807
-0.02708639247299141 -0.12697890965652628 0.005019729684711953
-0.02857145924898149 -0.12335352997777292 0.01198776855328719
-0.030035185850389664 -0.11972781432956216 0.01859223171921893
-0.03154218507283217 -0.11658632462575841 0.02500043555211234
-0.03313253451306705 -0.11440892001351323 0.031382649370216426
-0.03481253883516707 -0.11359634789690848 0.03786870965430787
-0.036556202751653145 -0.11440563809627555 0.04451624326443375
-0.03831161882471326 -0.11692914451923087 0.051290888438008164
-0.04001272864005342 -0.12110331632300901 0.05806064018099453
-0.04159282069619474 -0.12673899369692776 0.06460405440693225
-0.0429961339456 -0.13356858032873978 0.07063098744239497
-0.044184649324534 -0.14128654894485007 0.07581508920023615
-0.04514061586939155 -0.14959332295605915 0.07983698144905814
-0.04586464485970676 -0.1582193958837415 0.0824286598105926
-0.04637201354759058 -0.1669438154346534 0.08341798875949204
-0.04668746097400733 -0.17559880778194614 0.08276261310404759
-0.04683774498291964 -0.18406803902892 0.08057124056151216
-0.046843915362949635 -0.1922897759549779 0.07710703066922324
-0.04671348577168128 -0.20023972266521375 0.07277299127683969
-0.04643383811634595 -0.2079340698768183 0.06807751216237215
-0.04596800733661045 -0.21541330655165103 0.06358534754350968
-0.04525325640213869 -0.2227280362505233 0.05985098892576519
-0.044204479885440615 -0.2299188156715887 0.05734770345424983
-0.04272093021915647 -0.2370023408559794 0.056398391144040105
-0.0406979696882652 -0.2439503230500365 0.057134488760884485
-0.038040738360001984 -0.25068915592205004 0.059495992248422516
-0.034679976561273536 -0.25708984974972926 0.06325794395996283
-0.030584958055855274 -0.2629861711742328 0.06808959728391806
-0.02577062875587391 -0.26819086283150767 0.07362455023458646
-0.020297352172443512 -0.27252532199019064 0.07951809434842261
-0.01425814483108602 -0.27584611636121104 0.08548472238852624
-0.007761139688635885 -0.278075936927433 0.09131254802934927
-0.0009088275970022749 -0.2792185984620853 0.0968601111479706
0.006217375725320659 -0.2793657324826351 0.10204436783018515
0.013564640215896451 -0.2786861984089914 0.10682982752607395
0.021106662819143317 -0.27740356380412795 0.1112172519016573
0.028834532562012863 -0.2757501079200851 0.11523786008518189
0.036743795973973835 -0.2739333329992278 0.11894873658285807
0.0448222364179038 -0.2721017794309631 0.12242107083354906
0.05304118546767435 -0.2703266708513355 0.12574098210730278
0.06135118321081968 -0.26860925258232576 0.12899590311819367
0.06968095078719105 -0.26689457160130964 0.1322670951203479
0.07794034302927197 -0.26510504104167776 0.13563698886296263
0.08602605722713619 -0.2631793020874273 0.1391836809671887
0.09383011882756166 -0.2611057305394158 0.1429893591695077
0.10125144624207837 -0.25894041186505784 0.14713608281577467
0.10820884276482916 -0.2568160419433936 0.15170431352134056
0.1146525777450629 -0.2549152514883816 0.15675577799890658
0.12057253780926944 -0.2534457039333837 0.162322487887038
0.12599346042034995 -0.2525978391312044 0.16838790424082697
0.13096632020766097 -0.2525098570283183 0.17488617799440537
0.1355446517338231 -0.2532574400133215 0.18170274916228993
0.13976461603584497 -0.25485993573604787 0.1886839771679135
0.1436319513229087 -0.2573121527063322 0.19565207657378045
0.1471120259080194 -0.2606023353858416 0.20242745792658656
0.15014383632185083 -0.2647347211073206 0.20885297125264643
0.1526513613362688 -0.2697194613167111 0.214809906405314
0.15456623775155096 -0.2755484715639912 0.2202412604898274
0.15584416900390632 -0.28217026893090646 0.2251534237665123
0.156464853225605 -0.289473650779646 0.22961123865372712
0.15641864074042489 -0.29728963416805676 0.23372230123619805
0.15570054205046202 -0.3054082655457288 0.23760966460904068
0.15429437779499816 -0.31360085624297607 0.24138026405313232
0.15217657618398128 -0.3216554893844409 0.24510073728877346
0.14932187340879627 -0.3294047879193185 0.2487749321953331
0.1457267646626469 -0.3367500386795895 0.25233663754568425
0.14142895412683884 -0.34367469897888375 0.25566414411845134
0.13652718383169107 -0.35024169839613517 0.2585949925418265
0.13118380142936834 -0.3565825038386552 0.26095966330682674
0.12562375928826222 -0.36286804625791197 0.2626180437574361
0.12010743658124814 -0.3692773697082445 0.26348970241638625
0.11490496512265432 -0.3759646073652472 0.2635643342333872
0.11026653735737266 -0.3830339169866768 0.26290875683741655
0.10639928071972242 -0.3905383205552461 0.2616487351985006
0.10344431803128533 -0.3984751544096285 0.2599416395352324
0.1014668193756428 -0.4068009405737973 0.2579555259371364
0.10045023214884466 -0.41544288510545696 0.2558384559397733
0.10030150577224617 -0.4243123210119951 0.2537140342437773
0.10086338303938294 -0.43331470462781996 0.2516721443854861
0.10193323658667615 -0.4423560864074603 0.24977198565301714
0.10328108028745259 -0.45134441913629003 0.24805441893989488
0.10466285352439846 -0.4601911420721265 0.2465477781381153
0.10582997602414299 -0.4688110271769466 0.24527269996417
0.10653201587474173 -0.4771162999650328 0.24424870931161097
LINES 1 120
119 0 1 2 3 4 5 6 7 8 9 10 11 12 13 14 15 16 17 18 19 20 21 22 23 24 25 26 27 28 29 30 31 32 33 34 35 36 37 38 39 40 41 42 43 44 45 46 47 48 49 50 51 52 53 54 55 56 57 58 59 60 61 62 63 64 65 66 67 68 69 70 71 72 73 74 75 76 77 78 79 80 81 82 83 84 85 86 87 88 89 90 91 92 93 94 95 96 97 98 99 100 101 102 103 104 105 106 107 108 109 110 111 112 113 114 115 116 117 118
POINT_DATA 119
SCALARS isSiphon int
LOOKUP_TABLE default
0
0
0
0
0
0
0
0
1
1
1
1
1
1
1
1
1
1
1
1
1
1
1
1
1
1
1
1
1
1
1
1
1
0
0
0
0
0
0
0
0
0
0
0
0
0
0
0
0
0
0
0
0
0
0
0
0
0
0
0
0
0
0
0
0
0
0
0
0
0
0
0
0
0
0
0
0
0
0
0
0
0
0
0
0
0
0
0
0
0
0
0
0
0
0
0
0
0
0
0
0
0
0
0
0
0
0
0
0
0
0
0
0
0
0
0
0
0
0
