# vtk DataFile Version 2.0
Vessel Segment
ASCII
DATASET POLYDATA
POINTS 119 float
-0.003149859821695581 -0.007110253158085434 0.0017234343373689481
-0.007391650838461867 -0.014150972277553561 0.0036554475611761516
-0.012461176568291453 -0.02113794002759471 0.005711346554927225
-0.018092521611137693 -0.028086502985542387 0.007805196644399033
-0.02401628107440453 -0.03501204812466498 0.009847444020783632
-0.029957935918743146 -0.04192806126893464 0.011741315443379818
-0.03564181163296768 -0.04884571955085689 0.013379354894868295
-0.04080079761182439 -0.05577273029575849 0.01464292559224903
-0.04519521740174379 -0.06271293454619091 0.015406441411598217
-0.04863646859876448 -0.0696670863449462 0.015547566044221294
-0.051012982989752674 -0.0766355807519639 0.014960845503904278
-0.05230763088785588 -0.0836205390876497 0.013571481155771503
-0.05260195651412026 -0.09062935798604746 0.011343323860773339
-0.05206364668953105 -0.09767252261476582 0.008280673642836014
-0.05091775629162303 -0.10475956679339013 0.004423417383247689
-0.049413942856987206 -0.11189329306735303 -0.00015515577593339333
-0.04779142816507076 -0.11906603048927371 -0.005343860266270272
-0.0462498860325499 -0.12626020814371258 -0.010981616156365104
-0.044933301036433254 -0.13345010814300726 -0.016842315651626635
-0.04392941002705786 -0.1406021935560574 -0.022625953037082598
-0.043281794957626095 -0.1476718556151807 -0.02796459888838434
-0.04301131619650282 -0.15459926765058749 -0.032450868899835554
-0.043138074948157926 -0.16129444603191898 -0.035687030525014436
-0.04369606492391563 -0.16763263488745714 -0.0373472823454012
-0.04473967091877163 -0.17345387589356817 -0.037234706473718814
-0.046337336730864626 -0.1785764086490293 -0.03531604070249621
-0.04855494035440586 -0.18282263856604167 -0.03172169403784928
-0.0514336787709798 -0.18605477490236408 -0.02671490096745631
-0.054967690692806465 -0.18821451512633125 -0.020632104160940898
-0.059085172206244124 -0.1893302798697098 -0.013819365450449246
-0.06363967137898699 -0.18952395515047746 -0.006577812377426527
-0.06841398299991908 -0.18897510533206885 0.0008687097254468582
-0.0731333826886327 -0.187903996544087 0.008379149196243966
-0.077486312665936 -0.18653568633442785 0.015875241455523728
-0.08114966142560047 -0.18509606833338782 0.023308205814843705
-0.08381282728776028 -0.18380829891644757 0.0306254792342282
-0.08520977370119011 -0.1828945663156107 0.037749773193980915
-0.08515202587264897 -0.1825671130345745 0.04457282594183318
-0.08355914889108004 -0.1830118651332353 0.050970363406007246
-0.08047584761293056 -0.1843610903515458 0.056827321237141404
-0.07607007512713605 -0.18668144947778975 0.06206776513996058
-0.07060833318580649 -0.18995785828888764 0.06667621861455371
-0.06441605045366748 -0.19410421773784428 0.07070586114951709
-0.057832046120541054 -0.19898530155653035 0.07426965047665898
-0.051165494440429095 -0.2044399409233632 0.07751916001625947
-0.04466300368884134 -0.2103049373783603 0.08061676343619462
-0.03849307697635587 -0.2164416445879857 0.08370822852982565
-0.03274615176348649 -0.2227447173639716 0.08690283243514117
-0.02744933165244921 -0.22914740296684608 0.09026083963574295
-0.022589551487673446 -0.23563113862122426 0.09379177471332698
-0.018139235270825997 -0.24221243723542374 0.09746026706120023
-0.014077006583164626 -0.2489375796416909 0.10119879422894035
-0.010398618607024757 -0.2558741381638521 0.10492407266627558
-0.007116996260140002 -0.26308296428888645 0.1085551290910652
-0.0042508912022071995 -0.27061240033329176 0.11203027502381961
-0.0018056338425407228 -0.27846861088911623 0.11532167683638674
0.00024911277083401295 -0.2866054581501973 0.11844235808590262
0.001998229704325107 -0.2949143574029586 0.12144718653592902
0.003588578744617664 -0.30322025441591643 0.12442350215450047
0.005224789276389891 -0.31130343903662405 0.1274753951969997
0.007148663830339084 -0.31891780520655405 0.1307014519283559
0.009609148928825317 -0.3258286404241194 0.13417300968835483
0.01282695415512224 -0.33184954172178494 0.13791785221120928
0.016960981602897243 -0.3368722825269708 0.14191280545839446
0.022085509489440713 -0.3408787612228592 0.14608984393661004
0.02818228426695601 -0.34394205456655874 0.15035484643690408
0.03514744717800545 -0.3462006821116179 0.15460806528296522
0.042810994907644784 -0.34782392792699596 0.1587702663763648
0.05096318549079665 -0.3489693807870743 0.16279641416624047
0.05938235637037219 -0.34975103427299115 0.16667478479683806
0.06786008887489628 -0.35021810968302614 0.17042074144753608
0.07622111880153029 -0.35034274245631886 0.1740743906392784
0.084335882757504 -0.35004682079052685 0.17767580347054784
0.09212781558707457 -0.3492240881703017 0.18125893137226787
0.09957548765537402 -0.3477837796812919 0.18485143606339458
0.10670903025418213 -0.3456848543819232 0.1884649612656539
0.11360245008748293 -0.3429674938909888 0.19210525641029702
0.12035955578563054 -0.33975695801324207 0.1957798280126749
0.12709317555517893 -0.336248265604188 0.19949538390108779
0.13390386938144694 -0.3326688385735395 0.20327012634177635
0.14085576279079087 -0.32923102404382953 0.20713360836439895
0.1479627503377171 -0.326087242384792 0.21112415709572666
0.1551801836866539 -0.323307528422315 0.21528715367556944
0.16241593976942167 -0.32086880223400494 0.219667821078911
0.16954687393004444 -0.31867183425005174 0.22431011297178113
0.1764446434266392 -0.316576199878685 0.22923662784692364
0.1830078335677907 -0.3144363024022605 0.23445156096497533
0.18918799029493086 -0.31214242509904633 0.23993153186805427
0.19500620340188168 -0.30965077447326794 0.24562465811521916
0.2005599792780114 -0.30700128593941756 0.2514608925278879
0.20601188294044634 -0.3043068645357264 0.25735234644416854
0.2115574794924293 -0.30173393731388254 0.26321737750518914
0.2173891585851606 -0.2994725465538072 0.2689906087468198
0.22365682704560616 -0.29769645490654345 0.27462914911489533
0.2304288129365583 -0.29654809530457005 0.28012897400296355
0.2376627668891115 -0.29612248837502864 0.285515294281604
0.24519975504945993 -0.29646914157982013 0.2908344074791236
0.2527595055378833 -0.29759950918744293 0.29613785692390526
0.2599682625897588 -0.29949294099904217 0.30146343619825977
0.2663982101466624 -0.3021079284733245 0.3068221721399604
0.27161158901600996 -0.30536934081941003 0.31219490626449065
0.27522105859602586 -0.3091756917328426 0.3175317125325225
0.27694985935717936 -0.31339529619209605 0.3227711583252043
0.2766694039712629 -0.3178826363545646 0.32785010220830463
0.2744293497521786 -0.3225007872537681 0.33271910036428004
0.2704568273084035 -0.32715437461382113 0.33735976286574737
0.2651266792084044 -0.3318068807235091 0.341787538483
0.25890664535941466 -0.3364798053615883 0.3460459583528367
0.25230194900735814 -0.3412478511618251 0.3502058527050322
0.24577753475070588 -0.3461930068281141 0.354350917885909
0.23971839780010118 -0.3513713837619536 0.35857423164532476
0.2343858328407556 -0.35677338429579136 0.3629695785871217
0.22990878485657396 -0.3623034715819273 0.36763501805585946
0.22629906052918328 -0.3677664190438045 0.3726811211867225
0.22346890405514294 -0.3728843657416744 0.3782230749122758
0.22126921652762677 -0.37731166708068575 0.3843905896712463
0.21950956423925908 -0.3806676844726113 0.39131598246392624
0.21798509143831912 -0.38255629341524344 0.39913738362355466
0.216487213732442 -0.3825751091077446 0.4079900253856686
LINES 1 120
119 0 1 2 3 4 5 6 7 8 9 10 11 12 13 14 15 16 17 18 19 20 21 22 23 24 25 26 27 28 29 30 31 32 33 34 35 36 37 38 39 40 41 42 43 44 45 46 47 48 49 50 51 52 53 54 55 56 57 58 59 60 61 62 63 64 65 66 67 68 69 70 71 72 73 74 75 76 77 78 79 80 81 82 83 84 85 86 87 88 89 90 91 92 93 94 95 96 97 98 99 100 101 102 103 104 105 106 107 108 109 110 111 112 113 114 115 116 117 118
POINT_DATA 119
SCALARS isSiphon int
LOOKUP_TABLE default
0
0
0
0
0
0
0
0
0
0
0
0
0
0
0
0
0
0
0
0
0
1
1
1
1
1
1
1
0
0
0
0
0
0
0
0
0
0
0
0
0
0
0
0
0
0
0
0
0
0
0
0
0
0
0
0
0
0
0
0
0
0
0
0
0
0
0
0
0
0
0
0
0
0
0
0
0
0
0
0
0
0
0
0
0
0
0
0
0
0
0
0
0
0
0
0
0
0
0
0
0
0
0
0
0
0
0
0
0
0
0
0
0
0
0
0
0
0
0
