# vtk DataFile Version 2.0
Vessel Segment
ASCII
DATASET POLYDATA
POINTS 119 float
-0.005472552266170766 -0.0064596530415819715 0.0023312640921132576
-0.01117301925942832 -0.012934372178303344 0.004744416428638826
-0.017096234739294697 -0.019374056282903836 0.007155858210773336
-0.0232364635536754 -0.025728027692473173 0.009482764952594806
-0.029587214694243736 -0.03194338658244635 0.011645019160276663
-0.0361393165007005 -0.03796537156403246 0.01356861486288602
-0.042877187035453034 -0.04373770902604303 0.015190015223578882
-0.04977087475702284 -0.049212357319766434 0.01646076377527047
-0.05676325992396021 -0.05436553764064544 0.01734809649410163
-0.0637551366380168 -0.059221304208399814 0.017833649924227573
-0.07059436641899475 -0.06387228153439273 0.017908298392808428
-0.07707930044621304 -0.06848389668261999 0.01756760294595336
-0.08297958003026668 -0.07327592291175507 0.01680771345140274
-0.08807269525722698 -0.0784788242638401 0.015625582018169045
-0.09218458044016006 -0.08428025641813522 0.01401879997186409
-0.09521475319571267 -0.09078014292948562 0.011984512382012457
-0.09714303836248298 -0.09796639077529083 0.009516206213339089
-0.0980131720198908 -0.10571705656729195 0.006599517516702338
-0.0979037608544527 -0.11382995695006429 0.0032116181169524723
-0.096901404756295 -0.12206322628223927 -0.0006728665790219868
-0.09508508283680499 -0.1301793161960293 -0.005068229019722526
-0.09252726118347676 -0.1379806813033666 -0.009957532571714875
-0.08930946618001727 -0.14533263660662102 -0.015268969765742055
-0.08554444073225356 -0.15217029492459128 -0.02085343045191229
-0.08139582866398541 -0.1584877990045557 -0.026467291964824113
-0.07708255819073659 -0.1643166509449624 -0.031770169248966515
-0.07286189910246434 -0.1696924205837197 -0.03634160368261656
-0.06899080936330389 -0.17461717874468646 -0.039721623278519816
-0.06567889565899955 -0.1790302810893529 -0.04147465847024906
-0.06304936633565492 -0.18280411580040515 -0.04127062336409213
-0.061120576985530944 -0.18576419449378578 -0.03895717862553798
-0.05981718367931604 -0.18772061461070674 -0.03459494562547323
-0.0589950825941637 -0.18851710675908956 -0.028457785673729596
-0.05847830357751637 -0.18807464945427202 -0.020983222644284403
-0.05809730729735644 -0.18641353082747864 -0.012689805389785092
-0.057719002882687366 -0.18365619045683212 -0.004084190115401353
-0.057265186924671994 -0.18001127401454667 0.00441868610138085
-0.05671729074898426 -0.17575017377811164 0.01254758828348348
-0.056107732446022164 -0.1711684987210194 0.020193678538035373
-0.055498424918400464 -0.1665626575404155 0.027394421063510702
-0.054949680228280194 -0.1622032019197936 0.034290513306425074
-0.05448745462356178 -0.15832420041371392 0.04106761131369486
-0.05408718509938437 -0.15513129601772874 0.04789594643958618
-0.053678863956965576 -0.15280418062744486 0.054877742463805015
-0.05317199220849706 -0.15151392470094516 0.062013528066620284
-0.05248936755049779 -0.15141142961549053 0.06919251506706046
-0.0515929641582969 -0.152619372000008 0.07620643151898487
-0.050494709075912005 -0.15519991133868455 0.08279380814338196
-0.049254364939383975 -0.1591514864835972 0.08870228104456392
-0.04796651766099243 -0.16438456436847199 0.0937572154062963
-0.046746104998696275 -0.17073380566927965 0.0979151288818868
-0.045714819727763555 -0.1779667556633468 0.10128275177882877
-0.04498808233093177 -0.18581497696080518 0.1040954046301637
-0.044663392011429257 -0.19401082097333186 0.10665728806939213
-0.04480894337916388 -0.20232510540306703 0.10926253840790888
-0.0454550294272551 -0.21059403876226696 0.11212486570217821
-0.0465887983112098 -0.21873585543897156 0.11533396089094149
-0.04815281641459715 -0.22674538155977794 0.11885064688105089
-0.05004534589151076 -0.23467041888226498 0.12253589241131652
-0.05212300205769667 -0.24259339900640695 0.12620108283165596
-0.05420520279438396 -0.2505958342526116 0.129664418637878
-0.05608159286582626 -0.2587379253769027 0.13279582834155315
-0.057525672267503734 -0.26704161542630056 0.135542292870369
-0.05831390265290088 -0.27549045938871525 0.13792988172997764
-0.058248824938574084 -0.28402270513935235 0.14004753905407843
-0.05718264761892021 -0.29254824647232736 0.14202156631947183
-0.05503392696095816 -0.3009478505164496 0.1439854663984833
-0.0517940050783769 -0.3090807002334435 0.14605951863580183
-0.04752159796792381 -0.3167979880921581 0.14833574524835116
-0.0423303043830128 -0.32393535081436103 0.1508762450894199
-0.036370335069591274 -0.3303291662525161 0.15371132633979942
-0.029810535717346983 -0.3358242004225243 0.1568550891329508
-0.022822002064289408 -0.34028927317582186 0.16031173453152167
-0.015566485386090283 -0.34364058642655276 0.16408620493395898
-0.008188904238029782 -0.3458678737354291 0.16818215445374393
-0.000811641397984231 -0.34704414552734203 0.1726015824184788
0.006471543098019748 -0.34734144290754165 0.17733448528411397
0.013601608643540104 -0.34700222856640756 0.18235849048929584
0.020560165283427634 -0.3463127021296775 0.18762570293198905
0.02736936366626365 -0.34554869176960645 0.19306551388209073
0.034086899159792565 -0.3449341093541764 0.19858958985186395
0.040793361827811084 -0.34459803574559617 0.20410681954685983
0.04757508066573365 -0.34456396224802505 0.20953429753887812
0.05450861281901407 -0.344752169759927 0.2148095430091071
0.06164602029408634 -0.34502288194155073 0.2199085985536844
0.06900709705207697 -0.34520912725525504 0.2248369881016406
0.0765769216884872 -0.34516705090480676 0.2296373989354402
0.08430937345266495 -0.3447888522707603 0.23436962783708426
0.09213362286525165 -0.3440303225252016 0.23910108963806043
0.09996119208562629 -0.34290527435382145 0.24389177360239706
0.10769251174424384 -0.3414897784904987 0.2487932550387741
0.11522957553028801 -0.33991540148931904 0.25382996079614606
0.12247431743286259 -0.3383648650273482 0.25900999690700716
0.12934112400462314 -0.3370645524541219 0.26432274794506255
0.13576794505669212 -0.3362695501121005 0.26974614636050415
0.14171366068318283 -0.33624042821558914 0.2752504615182875
0.147163899844535 -0.3372014759006475 0.28081052812088336
0.15211254936224194 -0.3393075080814697 0.28641559896128577
0.15655545779829397 -0.3426093612616191 0.29207321132282205
0.1604741153000972 -0.3470436487362239 0.29780531212275924
0.16382724430848278 -0.352453318634912 0.30364332375447306
0.1665527154033089 -0.3586154421991699 0.30961543735847064
0.16857494411154925 -0.3652805998649483 0.31572521573162765
0.1698207168418709 -0.3722079872324262 0.3219507000010554
0.17023656974589807 -0.3791841782836298 0.3282407776450451
0.16980446409982153 -0.386023611120295 0.334524724205492
0.1685574022957712 -0.39257019063409854 0.34072952962601766
0.16658928837743125 -0.3986841263669861 0.3467977102302558
0.16404513394387205 -0.404240023060947 0.35270424427749053
0.16110838264619276 -0.4091247594051351 0.3584631624807505
0.1579741276570957 -0.4132660629294203 0.3641141442107127
0.1548090080700035 -0.41666028845848824 0.3697030388245027
0.15172298154587477 -0.4194135761010818 0.37524771337063667
0.14875455472943533 -0.4217556597226819 0.38071539234271773
0.14586178616326043 -0.4240394073772861 0.3860145317728277
0.1429476769834233 -0.42671514900491775 0.39100440154761545
0.13987968309911064 -0.43028354391062795 0.39551299896798836
0.1365017688742803 -0.43527524955037483 0.3993514847278671
0.13266156034758986 -0.44222441789444755 0.4023298308059313
LINES 1 120
119 0 1 2 3 4 5 6 7 8 9 10 11 12 13 14 15 16 17 18 19 20 21 22 23 24 25 26 27 28 29 30 31 32 33 34 35 36 37 38 39 40 41 42 43 44 45 46 47 48 49 50 51 52 53 54 55 56 57 58 59 60 61 62 63 64 65 66 67 68 69 70 71 72 73 74 75 76 77 78 79 80 81 82 83 84 85 86 87 88 89 90 91 92 93 94 95 96 97 98 99 100 101 102 103 104 105 106 107 108 109 110 111 112 113 114 115 116 117 118
POINT_DATA 119
SCALARS isSiphon int
LOOKUP_TABLE default
0
0
0
0
0
0
0
0
0
0
0
0
0
0
0
0
0
0
0
0
0
0
1
1
1
1
1
1
1
1
1
1
1
1
1
1
1
1
1
1
1
1
1
1
1
1
1
0
0
0
0
0
0
0
0
0
0
0
0
0
0
0
0
0
0
0
0
0
0
0
0
0
0
0
0
0
0
0
0
0
0
0
0
0
0
0
0
0
0
0
0
0
0
0
0
0
0
0
0
0
0
0
0
0
0
0
0
0
0
0
0
0
0
0
0
0
0
0
0
