# vtk DataFile Version 2.0
Vessel Segment
ASCII
DATASET POLYDATA
POINTS 119 float
-0.005465248965161526 -0.007412242466613605 -0.002511072868151278
-0.011198992524128495 -0.014223944786697395 -0.003479876837032031
-0.017040893741969373 -0.020455205035115553 -0.0034083347705990996
-0.022828248462358383 -0.026132440544559397 -0.0027954101645866086
-0.02839908084245027 -0.03129710029979184 -0.0021263182042003444
-0.033598083206386874 -0.03601768068939327 -0.00184758925640136
-0.03828925632846031 -0.040398593005041894 -0.0023316274669766
-0.042366126520265404 -0.04458122750075227 -0.003840338923802309
-0.045750876221246156 -0.04872941159886115 -0.006503339749658239
-0.04838099358442858 -0.052997888158670924 -0.010319427641962843
-0.05019361547872255 -0.05749174178579142 -0.015173502479408206
-0.05111676059541821 -0.062235607440887096 -0.02086575472790448
-0.05107550263807752 -0.06717152473311286 -0.02714757307944572
-0.05000604086341791 -0.0721861217846053 -0.03375511612767195
-0.04787100127615812 -0.07715471119309618 -0.04043624380337411
-0.044670457465934836 -0.08198578733547637 -0.04697389404662941
-0.04045119409595477 -0.0866481927127851 -0.053206280938699654
-0.035311858564485855 -0.0911746533003205 -0.05904028426574891
-0.029405995489991246 -0.09564459059836175 -0.06445242216849068
-0.022939868337289067 -0.10015507278592874 -0.06947060427845592
-0.01615920132157627 -0.10479152113524554 -0.07413523475012937
-0.00933181995217408 -0.1096032381471376 -0.07844965936840116
-0.002722969813397003 -0.11458955292214965 -0.08233668895157534
0.0034257642271072835 -0.119696606449764 -0.08561632964646324
0.00891316097257154 -0.12481838767032725 -0.08801873271239208
0.013584437369790458 -0.1298110396879321 -0.08923513631111846
0.017327013131189433 -0.1345051009568884 -0.0889934512708653
0.02005826982750307 -0.1387301496755318 -0.08713418587337529
0.021712513853388373 -0.14234671570822455 -0.08365800440926327
0.02223604944695928 -0.1452727558570539 -0.07873395966659891
0.021592232894082422 -0.14750214613481333 -0.07266358425092671
0.01977014112451676 -0.1490945850471373 -0.06582531326927958
0.016797924112726896 -0.15012836973187832 -0.05861445176153902
0.012749677482619001 -0.15065324981079595 -0.05139272253216681
0.007752023207633175 -0.1506520525967547 -0.04444931577426194
0.0019848695296782715 -0.15003143696029328 -0.03797581739053254
-0.0043246094316863526 -0.14864678344740107 -0.032055691245390025
-0.010917255855524046 -0.14634199676698606 -0.026669081045032964
-0.017522789777659174 -0.1429947146862027 -0.021709172880686165
-0.023881947340602314 -0.1385577676993045 -0.01700837270430044
-0.029766677174128724 -0.13308823725027458 -0.012369147071273763
-0.03499321807308187 -0.126764046243132 -0.007595945190444927
-0.039427698857071515 -0.11989119307349974 -0.0025263982866404674
-0.042986671399623935 -0.11288431491531055 0.0029418027966967605
-0.04562954191081395 -0.10623698115534458 0.00883372162164345
-0.047346808952123176 -0.1004660527888248 0.0150940615251502
-0.04814600277970355 -0.09604916682269551 0.02160126410575417
-0.04804045503982458 -0.09335096707530728 0.028199099996222055
-0.04704301129114212 -0.09256319372730791 0.034737803781352855
-0.04516716056890749 -0.09366925772971162 0.04111255109377272
-0.04243351556414958 -0.09644684591284723 0.04728720957678877
-0.03888466784249061 -0.10050721313744994 0.05329172887046706
-0.034603043906621174 -0.10536882185847679 0.05918828339989806
-0.029726934816123547 -0.11054267313490367 0.06501154454793154
-0.024448712540469236 -0.11561321023848214 0.07070127429621048
-0.018998314360940422 -0.12029691856675301 0.0760532338448565
-0.01361799409713959 -0.12446689594458864 0.08071418356139914
-0.008535502649402131 -0.12814417142708484 0.08423169223055392
-0.003939282817593915 -0.13146813583161884 0.08614693223248772
4.086920660097746e-05 -0.1346433641559178 0.08610505864653656
0.0033431847368334605 -0.13789088003119243 0.08394080389449883
0.005970979900268393 -0.14140616382716814 0.07971935818275096
0.007979234271169965 -0.14534350865940687 0.07373066660935096
0.009451101339557667 -0.1498100574266771 0.06643252213558934
0.010474478226763475 -0.1548634814411936 0.0583723156923772
0.011126071681792913 -0.16052335320892272 0.05011727616951083
0.011463977771582185 -0.16678139820638316 0.042204260337481966
0.011528680077513268 -0.1736038097371258 0.03510896243433651
0.011349868543809311 -0.1809340365994059 0.029228736609867575
0.010958572254690114 -0.18868410464445762 0.024869061908813272
0.010401127655767072 -0.19672743294528353 0.022229445603932134
0.009751888828762972 -0.20489193671816436 0.021395567030752276
0.00912065674373382 -0.21297308127796963 0.02233832384708224
0.008651603436333363 -0.22075663839922857 0.024924856430737902
0.008512080737681211 -0.22805544524782181 0.02893912140713922
0.008872813504381186 -0.23474639302258812 0.03410457666983505
0.009884168464572522 -0.24079967970961888 0.04010969667376023
0.011653479537694812 -0.24627646442325254 0.046635540809260086
0.014229177690108287 -0.251311815768498 0.053386215735923254
0.01759682119752514 -0.25606628103277246 0.060116985611098114
0.02168906566673853 -0.26067631574105193 0.066651500652933
0.026409803116757606 -0.26521333056669466 0.07288329449119321
0.03166404777730456 -0.26965743515619933 0.0787636440649848
0.037382129352884444 -0.2738991840526889 0.08428364614190481
0.04352707367395509 -0.27776662225195814 0.08945666572863786
0.05008573216243467 -0.2810638322853489 0.09430945203909875
0.05704604001984884 -0.2836200219950246 0.09888075712595218
0.06437490940163806 -0.28532120648495163 0.10322254021132365
0.07200536280677008 -0.2861391715246332 0.1074004182366293
0.07984022496283577 -0.2861243981107314 0.11148849478140212
0.08776633882290447 -0.2853998460484708 0.11556268107142462
0.09567543155945814 -0.28412996570871857 0.11968991297020899
0.10348513225609784 -0.2824909347690676 0.12392363667909342
0.1111513077461844 -0.2806392266869209 0.1282935872687152
0.11867353814447734 -0.27868792289579464 0.13281030269918762
0.12608908335253838 -0.27670520587705916 0.13746605351283445
0.13346030776883963 -0.27472310334670796 0.1422348852738323
0.14085684656284378 -0.2727760086222753 0.14708028639466955
0.14833892186843656 -0.270939008413039 0.15195093929700482
0.15593698177611792 -0.2693559983459481 0.15678871455365176
0.16363162281539484 -0.26824488975055855 0.16152660963316642
0.17134649748994818 -0.26786796691193815 0.16610148065224933
0.17894143724202827 -0.2684895216327529 0.17045655581528216
0.18623089297969406 -0.2703238878258915 0.1745592799851059
0.19300523435813743 -0.27348802689400675 0.17840275632445504
0.19906596425068052 -0.2779800953780182 0.18202312588996336
0.20425342100227986 -0.2836755917981608 0.18549526723525703
0.2084728869996344 -0.29034468843427885 0.1889329608583826
0.2117046396323818 -0.29769539430461245 0.19247074521947655
0.2139953485310391 -0.30542148544302156 0.19623790687966655
0.21544350085711061 -0.3132490388506577 0.20033067132909974
0.2161685706462407 -0.3209656446678183 0.20478985978468758
0.2162761921227877 -0.3284363350101498 0.20959071449875236
0.21582573940337513 -0.33559553811976306 0.21464688256907635
0.2148143138344021 -0.34243175582517277 0.21982735415727855
0.21317920748491356 -0.3489624736922589 0.2249716570252826
0.21081763030305928 -0.3552223499274273 0.22990796602599428
0.20760435517198267 -0.3612549350232056 0.2344577415575406
0.20340868251156796 -0.36710316889706557 0.23844356644040807
LINES 1 120
119 0 1 2 3 4 5 6 7 8 9 10 11 12 13 14 15 16 17 18 19 20 21 22 23 24 25 26 27 28 29 30 31 32 33 34 35 36 37 38 39 40 41 42 43 44 45 46 47 48 49 50 51 52 53 54 55 56 57 58 59 60 61 62 63 64 65 66 67 68 69 70 71 72 73 74 75 76 77 78 79 80 81 82 83 84 85 86 87 88 89 90 91 92 93 94 95 96 97 98 99 100 101 102 103 104 105 106 107 108 109 110 111 112 113 114 115 116 117 118
POINT_DATA 119
SCALARS isSiphon int
LOOKUP_TABLE default
0
0
0
0
0
0
0
0
0
0
0
0
0
0
0
0
0
0
0
0
0
0
0
0
1
1
1
1
1
1
1
1
1
1
1
1
1
1
1
1
1
1
1
1
1
0
0
0
0
0
0
0
0
0
0
0
0
0
0
0
0
0
0
0
0
0
0
0
0
0
0
0
0
0
0
0
0
0
0
0
0
0
0
0
0
0
0
0
0
0
0
0
0
0
0
0
0
0
0
0
0
0
0
0
0
0
0
0
0
0
0
0
0
0
0
0
0
0
0
