# vtk DataFile Version 2.0
Vessel Segment
ASCII
DATASET POLYDATA
POINTS 119 float
-0.002831580658464668 -0.004472173319770438 0.0033556730887489925
-0.006156346609388918 -0.00856738301703807 0.008409188591093015
-0.009971740897891438 -0.012404739866493346 0.014573008568165511
-0.014275948162468249 -0.01609901716221663 0.02126284330910961
-0.019064579433885297 -0.019755221723272723 0.02790730074425426
-0.024316477641136095 -0.023466565531091443 0.03396866252774922
-0.0299693331057411 -0.02731841780205368 0.0389758644317434
-0.03589073098760318 -0.03139321451036391 0.04256315949723714
-0.041860123227866274 -0.03577187680891066 0.044504658277307416
-0.04757285496384256 -0.04052491932371274 0.04473007778546301
-0.052669053423379 -0.045691781176639294 0.043319261152144656
-0.05678310962622592 -0.05125612395776431 0.04046592377125137
-0.05959819084566675 -0.057128188647413 0.03642346405308652
-0.06089474824697089 -0.0631438253245298 0.03144752891665082
-0.06058255414050946 -0.06908908703124728 0.02575260614857708
-0.058713955802929936 -0.07474639538300165 0.019495069425359415
-0.05548101234721157 -0.07994679611839185 0.012786993456452633
-0.05119512359008669 -0.08461297709502692 0.005733619032257484
-0.04624968725908528 -0.08877681052543974 -0.0015176148153797043
-0.04107287431555944 -0.09256596666099515 -0.00873470849547495
-0.03607568371191584 -0.09616354932657378 -0.015581396067882907
-0.031605821919565395 -0.09975310783907425 -0.021631418697380507
-0.027917838702164594 -0.10346843234897214 -0.026417098786873795
-0.025162401402254075 -0.10736274966758845 -0.029504980924589502
-0.023399182166355066 -0.11140682152060706 -0.030580960544990942
-0.022623862060443395 -0.11549974996837467 -0.029522055767074118
-0.022800168724490963 -0.1194958311049015 -0.026432612711061353
-0.02388189146342687 -0.12321609851873531 -0.021627036717960933
-0.025816884976407335 -0.1264555003782041 -0.015565725604463641
-0.02853322926320447 -0.12897924907012195 -0.008771589743279505
-0.03191931257938721 -0.1305413904300292 -0.0017380955632517047
-0.03581036756931565 -0.1309243681125995 0.005148228770635473
-0.039988947872695815 -0.1299959303063911 0.011655453823589861
-0.04419934019703873 -0.12775192388724077 0.017721643345773305
-0.048175692866748374 -0.12434443655823325 0.02343341976316316
-0.051676840377754704 -0.12006683785101896 0.02897855688506445
-0.05452014027255049 -0.11531323164302237 0.0345845795968585
-0.056603742699710816 -0.11052573774477681 0.04045678574383811
-0.05791145840803013 -0.1061473031859307 0.046730340703764923
-0.0584978996385625 -0.10258483801213948 0.05344676877926861
-0.05846599325901007 -0.10018944707990105 0.06054725685589523
-0.05794181023113059 -0.0992391089975416 0.06788440038580339
-0.05705503541987886 -0.09991756826505613 0.07524898397832473
-0.055929388525028836 -0.10229656474462687 0.0824028715308317
-0.05467968452790964 -0.1063312958037672 0.08910882345431896
-0.05340691847601448 -0.1118704725171729 0.0951537722050452
-0.05218844749486654 -0.1186813202077575 0.10036402839257247
-0.051066247504160264 -0.1264863447310601 0.10461233677360503
-0.05003991071246552 -0.13499656341708016 0.10782118678279531
-0.04906641264529967 -0.14394389916043238 0.10996272010271303
-0.04806415260006385 -0.15310169746251406 0.11105263409824084
-0.046920685123955516 -0.1622891926303177 0.11115442181462513
-0.04550578181408381 -0.1713739829189696 0.11036945577745938
-0.043686939027354675 -0.18026231978774246 0.10884050975487874
-0.04135012268877202 -0.1888886046676838 0.10675387366317088
-0.0384188232277894 -0.1972056580335977 0.1043446281232484
-0.03486960101928803 -0.20517190490679796 0.10189446311478517
-0.030738774851927442 -0.21274470367458442 0.09972267187786048
-0.026116733723564167 -0.21987771301336057 0.09816064653499275
-0.021132525913925046 -0.22651658375475398 0.09751476429542481
-0.015929608666398323 -0.23260427860972033 0.09802054539606547
-0.010637310870844607 -0.2380759164469901 0.09980390609160204
-0.0053418843547873044 -0.24286621093636507 0.10285845294100124
-6.319188308736036e-05 -0.24690208280437037 0.10704291910927737
0.005252131761783781 -0.2501141244716418 0.11210182391902236
0.01071443917315464 -0.2524424414405957 0.11770679404514352
0.016460614710535185 -0.25386107136591457 0.12350191029044293
0.02261871944507573 -0.25439473722733846 0.12915375756667055
0.02927769062182499 -0.2541258891539248 0.1343931933433684
0.03646874553377178 -0.25319571857922324 0.13904571140907748
0.04416038695757957 -0.2517792987262837 0.14304216137781522
0.05226504311346324 -0.2500537881832258 0.14642032636741542
0.06065420533084152 -0.24816759016490902 0.14929993709791967
0.0691809675256054 -0.2462140271503597 0.1518571793169094
0.07770295238371122 -0.2442243986292722 0.1542925556751211
0.08610486486835958 -0.24218560287452337 0.15679862941625766
0.0943152739345781 -0.24005868777545844 0.15952709486048022
0.10231488556218787 -0.23781180800990356 0.16257623188061682
0.11013365941045497 -0.23544421865724915 0.16597977156493665
0.1178336179027398 -0.23299609959322776 0.1697158966966802
0.12548623702488326 -0.23055124919832853 0.17372125641986202
0.13314219298795374 -0.2282277602200425 0.1779191838199183
0.14080623041639864 -0.2261667720735982 0.18224823278261593
0.14842030365176012 -0.22452847058530204 0.1866760843765006
0.15586895651822916 -0.22348232653691638 0.19121883704705994
0.16299199352470123 -0.22319166116976136 0.19592268648188876
0.16961610054226048 -0.22379634920950472 0.20085139083575784
0.17559131619092366 -0.22538394953291102 0.20604626458205738
0.1808116208755453 -0.22798281524272077 0.2115066387777526
0.18522670783017806 -0.23155229560662532 0.21717656927892334
0.18883446085737157 -0.23600672303695142 0.2229467810901843
0.1916540206038664 -0.2412325944802653 0.22866823043885764
0.19370827261727996 -0.24712068719865768 0.2341865861846768
0.1950100742754164 -0.2535765429843342 0.23936115033890865
0.19557364774692662 -0.2605154993711739 0.24410344481280474
0.19542457394685492 -0.26786189095517926 0.24838184850848777
0.19461379882861046 -0.275529515753357 0.2522379516615281
0.19321800170446785 -0.28342806813121046 0.2557692395775666
0.19133490302918588 -0.29146446208924576 0.2591115555840009
0.18907416061413912 -0.29955350453314855 0.2624065379726927
0.18654792119124644 -0.3076284103781251 0.2657785225745295
0.18386476103128715 -0.31565168531332866 0.2692978120267537
0.1811225998635762 -0.323617339049701 0.2729679460219318
0.17840418006033695 -0.33154697272645134 0.2767185086075091
0.17577354079118027 -0.33947667503862305 0.28040861021136826
0.17326960362603364 -0.3474520870369317 0.2838501513094751
0.1709065998593733 -0.35551205079614234 0.2868280492958898
0.16866992365555664 -0.3636765038082321 0.28913368052861627
0.16652713872811528 -0.37195102950667236 0.29059619254256347
0.16442651749896706 -0.38031725881453343 0.29110785233315506
0.1623056959078123 -0.38874093869013593 0.290639545612369
0.1600893129278149 -0.39717152083593804 0.28924180367472524
0.15769872178322067 -0.4055461808221127 0.2870348232825235
0.1550493701481799 -0.4137960502032814 0.28418369696794016
0.15205357759429117 -0.4218467013685382 0.28088639933184034
0.14862255964972382 -0.4296237114803155 0.2773499532466365
0.14467240910323376 -0.43705319144704524 0.2737893056355608
0.14011681814519228 -0.44406278416901757 0.2704186920085819
0.13487316160840573 -0.4505816122858997 0.2674517055219932
LINES 1 120
119 0 1 2 3 4 5 6 7 8 9 10 11 12 13 14 15 16 17 18 19 20 21 22 23 24 25 26 27 28 29 30 31 32 33 34 35 36 37 38 39 40 41 42 43 44 45 46 47 48 49 50 51 52 53 54 55 56 57 58 59 60 61 62 63 64 65 66 67 68 69 70 71 72 73 74 75 76 77 78 79 80 81 82 83 84 85 86 87 88 89 90 91 92 93 94 95 96 97 98 99 100 101 102 103 104 105 106 107 108 109 110 111 112 113 114 115 116 117 118
POINT_DATA 119
SCALARS isSiphon int
LOOKUP_TABLE default
0
0
0
0
0
0
0
0
0
0
0
0
0
0
1
1
1
1
1
1
1
1
1
1
1
1
1
1
1
1
1
1
1
1
1
0
0
0
0
0
0
0
0
0
0
0
0
0
0
0
0
0
0
0
0
0
0
0
0
0
0
0
0
0
0
0
0
0
0
0
0
0
0
0
0
0
0
0
0
0
0
0
0
0
0
0
0
0
0
0
0
0
0
0
0
0
0
0
0
0
0
0
0
0
0
0
0
0
0
0
0
0
0
0
0
0
0
0
0
