# vtk DataFile Version 2.0
Vessel Segment
ASCII
DATASET POLYDATA
POINTS 119 float
0.0038202189910763722 -0.011464988374931024 -0.0011749032208486104
0.005367838031382561 -0.02149959114879468 -0.0014355043908510679
0.004907159051679304 -0.030203078960528054 -0.0008106039289912715
0.00270859617802378 -0.037679715110231146 0.0006632530348666203
-0.0009416042788989094 -0.04404614395938196 0.00292551713923284
-0.005730528653198253 -0.049442564122448525 0.005864914919009094
-0.011315785790051273 -0.054038060296227375 0.009290253812589347
-0.017334092959385344 -0.05802937987924269 0.012908198842485348
-0.02342154069027391 -0.061629868089436254 0.016328201160544148
-0.029235244431394525 -0.06505468422034316 0.01910754686745254
-0.03447390738473681 -0.06850617938979695 0.020828795269870845
-0.03889120830459614 -0.07216417287173352 0.021191031968801205
-0.042305190393107386 -0.07618176196621751 0.020081212372033953
-0.04460034184099177 -0.0806843660019446 0.017594957271427673
-0.04573150524898092 -0.08576420916026867 0.014007693313419094
-0.04572993044556248 -0.09146769731922871 0.009700744150651003
-0.04470806854260212 -0.097779691864305 0.0050618337015842126
-0.042854672074868816 -0.10461076425223134 0.0003906553976385677
-0.040413901133874185 -0.11179242129086511 -0.004162125332204649
-0.037647041720364205 -0.11909027353999449 -0.0086119788496033
-0.034784661457823746 -0.1262284204560079 -0.013116058802990212
-0.031984714141381286 -0.13292718648062643 -0.01791470754294996
-0.029307557103000252 -0.13894363877249738 -0.023256768568337742
-0.02671619115423024 -0.14411008848452136 -0.029324004418349987
-0.024105890261160414 -0.148365653281267 -0.03617179958268866
-0.021353376296583595 -0.1517704375648812 -0.043691443195057224
-0.018371554137937497 -0.15450066448449387 -0.051598239621406125
-0.01515221847600447 -0.15682179247875147 -0.05944832291818845
-0.011782627222478201 -0.15904701493057707 -0.06667979840477645
-0.008433352264804878 -0.16146361424863856 -0.07267810269742389
-0.005323068326425803 -0.16426209316439883 -0.07686158571748959
-0.0026751034003457954 -0.16748705810691805 -0.07877681974113536
-0.0006813470728349015 -0.1710115723214776 -0.07818522320407677
0.0005173469419762277 -0.17456961441124733 -0.07511237452652052
0.0008378866781629759 -0.17781029265260886 -0.06985630256661962
0.00025379411342886217 -0.18036140860309927 -0.06293970644412696
-0.0012055066148686689 -0.18189139620808376 -0.055020997793798036
-0.0034544239771906646 -0.1821502041291559 -0.04678104824420661
-0.006353013668250647 -0.18099380749531788 -0.03881170092573331
-0.009715588005118025 -0.1783889836048489 -0.03153046746345932
-0.013331837891207798 -0.1744221286378738 -0.025135309991874934
-0.016996832690095706 -0.16928560226635675 -0.019601907637440394
-0.020539956682437712 -0.16326594652330725 -0.014720059351019398
-0.023839483888007818 -0.1567107299759293 -0.010163130203735382
-0.026816654566707822 -0.1499909626900733 -0.005569910050940024
-0.029416581738437666 -0.1434604962955152 -0.0006253507425565113
-0.03158439476928401 -0.1374267847874148 0.004875566998243359
-0.03325500709780168 -0.1321360566565105 0.010991879682181894
-0.03435893020301958 -0.1277829138337062 0.017636277642591187
-0.034846890453592266 -0.12453436490520965 0.024607167085695714
-0.03472141523122387 -0.12255066508052263 0.0316418929765494
-0.0340616586793429 -0.1219880312332284 0.0384777034035479
-0.03303032110941609 -0.12297330859195353 0.04490428842496817
-0.03185679117547195 -0.12555939615471476 0.05079928220161261
-0.030797938963523005 -0.1296883131818318 0.05613986251266294
-0.030085879816712385 -0.13517948381530012 0.060994787343995306
-0.029878454836130476 -0.14174714578514486 0.06550142585588549
-0.030223382169168443 -0.1490509529288945 0.06983125185812872
-0.03105004891807717 -0.1567504388977749 0.0741536856065878
-0.0321854859177919 -0.1645526898155672 0.07860212609447628
-0.03339644602370541 -0.1722552463716423 0.08325164232689562
-0.03443938924113881 -0.179759335326042 0.08811099424651153
-0.03510832310422974 -0.1870566596139483 0.09313144992134927
-0.0352687150203089 -0.19420204747515454 0.09823042127595784
-0.0348707686510117 -0.20128321574998712 0.10331993502607678
-0.03393939423364402 -0.2083754769778661 0.10833246660479773
-0.03254528432905577 -0.21552628398170534 0.11323603373747322
-0.0307709628514511 -0.22273414705355274 0.11803852481793747
-0.028681529589512283 -0.2299577593670777 0.1227788879409761
-0.026309072645277706 -0.23712701130514488 0.12751134303066622
-0.023650848148633646 -0.24416148497812923 0.13228775151760783
-0.020678887369017643 -0.2509953530277151 0.13714187686246873
-0.017354063517238994 -0.2575815839641071 0.14208073096924478
-0.013638804415679934 -0.2639029748297358 0.1470896845865433
-0.009507461867637719 -0.26996288289190234 0.15213575636123575
-0.004952637068128052 -0.2757739663919541 0.15718267069373426
1.2187840979661605e-05 -0.28134308199374086 0.16220601149377747
0.005354002466368278 -0.2866526115096967 0.16719991315306948
0.011025326992293501 -0.29165673925813373 0.17218328006267444
0.01697215646062614 -0.2962756470923773 0.1771884829689322
0.023142928927960698 -0.30039549095123186 0.1822560092723656
0.029494777780848063 -0.30389024628912775 0.18741431621240195
0.03599718462580711 -0.3066383691220891 0.19267852814706024
0.04263107440673243 -0.30854311079689817 0.19803660422686697
0.04938579481986086 -0.3095530104181656 0.2034546159338119
0.05625503871621266 -0.30967732214983484 0.2088827546360331
0.0632345095887483 -0.30897912151111095 0.21425630202952242
0.070318834105135 -0.3075715825269708 0.2195085335381005
0.0775001330555535 -0.30559632155418104 0.2245800859462933
0.0847656772875152 -0.3032012225077948 0.22942620696073765
0.09209697300175626 -0.3005251341060657 0.23402304713130753
0.09946780172605287 -0.2976794048679353 0.23837741991298228
0.10684583207769943 -0.29474750471304956 0.24252976361598386
0.11419471082613555 -0.29178098974167765 0.24655124814588145
0.12148042431705482 -0.2888153619816977 0.25054073822438744
0.12867730922831638 -0.2858699723730291 0.25460721211878895
0.13577436669906703 -0.28296211515860653 0.2588560319934133
0.14277890128307244 -0.28011503547234495 0.26337019087622704
0.14971257737739466 -0.27736403102522555 0.2681986191267678
0.15659717715542723 -0.27476778034283644 0.2733548818516002
0.16344602430985164 -0.2724152946889953 0.27882350198541106
0.17024359277602044 -0.27042780804451555 0.28456685980119195
0.17693988427197013 -0.26896244559925664 0.2905313362200995
0.18344909512234672 -0.26820210201748157 0.29665542729636907
0.18966208242527507 -0.2683341719418247 0.3028603141199703
0.19544918046367643 -0.2695320524685013 0.30906041107979143
0.20068101863775462 -0.2719191745117636 0.3151682521387499
0.2052368370105694 -0.2755471881871213 0.3211067808677584
0.2090122006727794 -0.2803832882804043 0.32682526927855954
0.21192785530322775 -0.2863015783630158 0.332305869984522
0.21392830745873814 -0.29309815830998465 0.3375635683092593
0.21498377837926846 -0.3005070810387226 0.34264854819007784
0.21507698204775128 -0.3082229793427452 0.34762675500986806
0.21419736594862943 -0.3159159926903978 0.3525787071409936
0.21233051088200977 -0.3232507897365913 0.3575877658636402
0.2094560275333013 -0.32989248699188045 0.36273290382397466
0.2055454584170795 -0.3355039332168131 0.36809348899187877
0.20057091679403505 -0.339757804982329 0.37374957372937617
0.19450174195362718 -0.3423215249938324 0.37977633339608635
LINES 1 120
119 0 1 2 3 4 5 6 7 8 9 10 11 12 13 14 15 16 17 18 19 20 21 22 23 24 25 26 27 28 29 30 31 32 33 34 35 36 37 38 39 40 41 42 43 44 45 46 47 48 49 50 51 52 53 54 55 56 57 58 59 60 61 62 63 64 65 66 67 68 69 70 71 72 73 74 75 76 77 78 79 80 81 82 83 84 85 86 87 88 89 90 91 92 93 94 95 96 97 98 99 100 101 102 103 104 105 106 107 108 109 110 111 112 113 114 115 116 117 118
POINT_DATA 119
SCALARS isSiphon int
LOOKUP_TABLE default
0
0
0
0
0
0
0
0
0
0
0
0
0
0
0
0
0
0
0
0
0
0
0
0
0
0
1
1
1
1
1
1
1
1
1
1
1
1
1
1
1
1
1
1
1
1
1
1
0
0
0
0
0
0
0
0
0
0
0
0
0
0
0
0
0
0
0
0
0
0
0
0
0
0
0
0
0
0
0
0
0
0
0
0
0
0
0
0
0
0
0
0
0
0
0
0
0
0
0
0
0
0
0
0
0
0
0
0
0
0
0
0
0
0
0
0
0
0
0
