# vtk DataFile Version 2.0
Vessel Segment
ASCII
DATASET POLYDATA
POINTS 119 float
-0.001331626846888092 -0.0097664746850101 -0.00543348372718793
-0.003808649174228643 -0.01891221401693438 -0.00828591752024941
-0.007109725686348414 -0.02742238209521785 -0.00924332667462955
-0.010912354808418545 -0.03528562329849783 -0.008990631882128777
-0.014892949348549232 -0.042500564385916595 -0.008203440544194735
-0.01873119620957166 -0.04908636695689748 -0.007523173723473013
-0.022123500566383267 -0.05509553359822873 -0.007507815470359979
-0.0248027091037913 -0.06062371568020699 -0.008567250412673389
-0.026560210794421685 -0.06581252726085433 -0.010906892052451555
-0.0272620762953467 -0.07083443893674765 -0.014506498150384907
-0.026853757560382916 -0.07586008742973734 -0.01915117337636274
-0.02535898386801992 -0.08101138714252674 -0.02450615263169948
-0.02287172071799948 -0.08632149158629004 -0.030216098459989685
-0.01954446705928433 -0.09172101627840401 -0.03599373515041507
-0.015571642687587008 -0.09705858968474342 -0.04167242639924706
-0.011168055555759844 -0.10214994419244246 -0.047214246871567465
-0.0065412158041929765 -0.10684205071077855 -0.05268162327210063
-0.0018639075451457917 -0.1110647622546024 -0.05819334480784794
0.0027476684087418316 -0.11485629058439828 -0.06387907263378759
0.007244111863392621 -0.11835429309646413 -0.06984259182124293
0.011636290303586302 -0.12176409387954568 -0.07613779890829221
0.015970811354031774 -0.12531792436436764 -0.08275482542346115
0.02029393500236758 -0.12924180239889918 -0.08961050840265959
0.024614046191901717 -0.13372121955826824 -0.09654657916393523
0.028875626170461584 -0.13887748849597092 -0.10333318384698259
0.03295505140821815 -0.14472754412873862 -0.10967912065154907
0.03667953843347758 -0.15116803797805167 -0.11524576663349681
0.03986642285979089 -0.1579679406260529 -0.11966626032706955
0.042366194989352714 -0.16479358772276986 -0.12257510932124198
0.044093644020638006 -0.17125705562632113 -0.12365394415189417
0.04503862082748298 -0.1769812955056999 -0.12268448579759547
0.04525243541042325 -0.1816634894325888 -0.11960868080740354
0.04481647270613564 -0.18512036980832125 -0.11455464749836858
0.04380361690022058 -0.1873059546397251 -0.10783521156749698
0.04224795699173775 -0.18828449912177372 -0.09990899890481911
0.04013141604985128 -0.1882025735503016 -0.09131451868742892
0.03739600506890417 -0.18721938456293838 -0.0825941168666151
0.03398020941069647 -0.18545595933035114 -0.07422081903895132
0.029869845879270458 -0.18296636303844288 -0.06654151452991232
0.025143343350278326 -0.17973348885911958 -0.05974364421164722
0.019994662892291088 -0.17569485689969114 -0.053843476388079896
0.014720593002595048 -0.17080211008008794 -0.04870045268182884
0.00967606093388729 -0.16506794782092626 -0.044052663326062336
0.00521238711394033 -0.15862473779746977 -0.03956824586985811
0.0016144214644061132 -0.1517466244113852 -0.03490748957229984
-0.0009473029839516364 -0.14484397018470532 -0.02978803389103245
-0.0024415113465447325 -0.13842609281125923 -0.024042466740488194
-0.0029715734223097414 -0.1330346018652242 -0.01765440233869267
-0.0027453237364982955 -0.12917054054285224 -0.010762119510863605
-0.0020266376434297647 -0.12722358587346919 -0.0036285122582324844
-0.0010803236127423603 -0.12741626981444645 0.003417690301286032
-0.00012075963037212532 -0.12978499211970682 0.010053909262337447
0.0007233204039428007 -0.13418024185755997 0.016032130073264657
0.0014185173010975362 -0.14029482171493599 0.021226019025134206
0.002005548975252164 -0.1477127565651345 0.02564033128673645
0.002554650157942534 -0.15597092858831754 0.029381628752634267
0.0031127014857541377 -0.16462945066999735 0.03259921015975639
0.003662939923867756 -0.1733296742603758 0.03541835016191214
0.004117116132118494 -0.18183168516344358 0.03789031554913258
0.0043448455804911195 -0.1900332258323893 0.039977784594974114
0.0042291242809148295 -0.19794489837015788 0.041579688620186926
0.00372622078409674 -0.20566089957410516 0.04258773303954866
0.002908007636403464 -0.2133114533901384 0.04295465419004292
0.0019723479301121363 -0.22101235140466746 0.04274354698220463
0.0012192218289134304 -0.22883394319225867 0.04213897954903542
0.0009988283224732577 -0.23678727132790467 0.041418268979767275
0.001642149784151151 -0.2448255918221689 0.04089838131130885
0.003390639269520129 -0.25286274445153584 0.040874937878944494
0.00634530656963849 -0.26078516912260824 0.04157513040975421
0.01044906724859959 -0.2684736164258975 0.04313208765517372
0.015503005927792007 -0.2758005572690336 0.045583574478732146
0.021210364449409637 -0.28263460677787355 0.048890910619011366
0.02723201818811253 -0.2888487980026254 0.052963443197818656
0.0332387035928614 -0.294321757488182 0.05768278994991052
0.03895574095288278 -0.2989575528771972 0.0629208216115836
0.04419731496320135 -0.3027018563173445 0.06854848782892448
0.048893364491070915 -0.305547884821085 0.0744357006384215
0.05310898116900292 -0.30753364623068924 0.08044444577902796
0.05704786329505588 -0.30873379567589193 0.08642189809800972
0.06102792720610885 -0.3092406468771272 0.09220326243183892
0.06541643255570871 -0.3091526970161652 0.09762842230100895
0.07054257450419973 -0.3085767369139349 0.10257228230459353
0.07660924899218081 -0.3076159107992129 0.10697825713448082
0.08363381450686591 -0.30636371887427755 0.11088420076689041
0.09143767650352379 -0.30488470744640217 0.11442842952722451
0.0996848049361721 -0.3032014713327964 0.11782851294003767
0.10795556052170387 -0.301295254449205 0.12133899421446079
0.11583830395362422 -0.2991119802049813 0.12519577756920175
0.12302063799009685 -0.29658462811006076 0.12955869642226855
0.12935783804661152 -0.29366109580178634 0.1344775286871384
0.13490408090998404 -0.2903344277936119 0.1398818266305633
0.1398946768070625 -0.28665593416228763 0.1456056335879661
0.14468789697661075 -0.28274277495068445 0.15143438738200998
0.14967082251167388 -0.2787596537562174 0.15717308304276262
0.15516379341258188 -0.2749036074018119 0.16268538735789526
0.16134657411290307 -0.27137134367742005 0.16793275706212757
0.16821251486601774 -0.26834555761368095 0.17296383067489052
0.17557847963931064 -0.2659700790071625 0.17789822819248466
0.18311891616931802 -0.2643463697676934 0.1828815981643203
0.1904210898026678 -0.26353373925569906 0.1880401596629674
0.19705033176092535 -0.26355497775219083 0.19345423578528964
0.20261358604877258 -0.2644119353087192 0.19912899953161617
0.20681270808656863 -0.26610696603505524 0.20500465206761795
0.20948718031434477 -0.26865465010100836 0.21097080646365526
0.21063002791998442 -0.27207375173889475 0.21690020971263546
0.21038950932592226 -0.2763647085318783 0.22267817521033909
0.20902453671227889 -0.2814853069230254 0.22823063701243074
0.20684521869051004 -0.2873422473105064 0.23353494118935839
0.2041540795818069 -0.2937888547615333 0.23860812400178155
0.20118609792714534 -0.30064949562856863 0.24350047087661827
0.19810703323722037 -0.3077423157737356 0.24827872227893458
0.19502362992015462 -0.3149059050441342 0.25302916410795634
0.19202954719592893 -0.32200461434921307 0.257844525389313
0.1892289681913099 -0.328933305570213 0.2628384725159927
0.18674855713865754 -0.33561008574373374 0.268139206063613
0.18474004197761523 -0.341958111387442 0.27389316306628536
0.18336769042262951 -0.3479090877358854 0.2802576081948087
0.18280038509215552 -0.3533912143473271 0.28739496386625113
0.18320798267601612 -0.3583343257481879 0.29546716890174907
LINES 1 120
119 0 1 2 3 4 5 6 7 8 9 10 11 12 13 14 15 16 17 18 19 20 21 22 23 24 25 26 27 28 29 30 31 32 33 34 35 36 37 38 39 40 41 42 43 44 45 46 47 48 49 50 51 52 53 54 55 56 57 58 59 60 61 62 63 64 65 66 67 68 69 70 71 72 73 74 75 76 77 78 79 80 81 82 83 84 85 86 87 88 89 90 91 92 93 94 95 96 97 98 99 100 101 102 103 104 105 106 107 108 109 110 111 112 113 114 115 116 117 118
POINT_DATA 119
SCALARS isSiphon int
LOOKUP_TABLE default
0
0
0
0
0
0
0
0
0
0
0
0
0
0
0
0
0
0
0
0
0
0
0
0
0
1
1
1
1
1
1
1
1
1
1
1
1
1
1
1
1
1
1
1
1
1
0
0
0
0
0
0
0
0
0
0
0
0
0
0
0
0
0
0
0
0
0
0
0
0
0
0
0
0
0
0
0
0
0
0
0
0
0
0
0
0
0
0
0
0
0
0
0
0
0
0
0
0
0
0
0
0
0
0
0
0
0
0
0
0
0
0
0
0
0
0
0
0
0
