# vtk DataFile Version 2.0
Vessel Segment
ASCII
DATASET POLYDATA
POINTS 119 float
-0.005060471310843691 -0.004956196972699379 0.005213343387003239
-0.010051867776249784 -0.010860596331663221 0.010055777202282148
-0.01494301852780585 -0.017464109573636463 0.014476706683535932
-0.019702980464335523 -0.024516600221355305 0.018426291473525484
-0.02430027128906827 -0.0317657510548827 0.021857236018905497
-0.028701386820812712 -0.03895796201865079 0.024727077935533314
-0.03286874753232675 -0.04584499658075378 0.027003762063809965
-0.03675963950245736 -0.05219617214412252 0.028667171635608238
-0.040329062274380385 -0.05781902708003031 0.029703180040740726
-0.043538841760707256 -0.06258222990426059 0.03008378230637114
-0.04637303345138856 -0.06644105149300183 0.029738703552478086
-0.048852469530220044 -0.0694542477845803 0.02854084271054158
-0.05104334888437422 -0.07178235783806537 0.026327053345237116
-0.05305437227653991 -0.07367528204018574 0.022957421079715136
-0.0550204610604659 -0.07544517005180289 0.018383650629552127
-0.057073075287392035 -0.07742740335777751 0.012705540185054246
-0.05930817495005312 -0.07993832162727903 0.00618253707814161
-0.061758463224554826 -0.08322755322444975 -0.0008054933812306393
-0.06437760800343165 -0.08743691346759677 -0.007831849023341742
-0.06703579297005688 -0.09257029997946302 -0.014508920223475757
-0.06952599242888881 -0.09848607857934256 -0.020567748880415244
-0.07158830304285144 -0.10491780666827491 -0.025909105448110124
-0.07294776222885464 -0.11152147353985863 -0.030616065978952684
-0.07336552505774079 -0.11793977526470892 -0.034926080315000725
-0.07269024883269387 -0.12387256433658517 -0.03917078522123001
-0.07089078536638556 -0.12913480243256395 -0.04369923742455191
-0.06805639902332851 -0.13368375388451767 -0.04880592125702934
-0.0643687071440048 -0.1376214705765481 -0.05467200466243519
-0.06004735838898066 -0.1411591096033643 -0.06132989874350028
-0.05529195037478102 -0.14455799359176855 -0.06865416837708611
-0.05024372861676714 -0.14807058236540174 -0.07637084644749605
-0.044976863990428134 -0.1518797986387847 -0.08408196685846882
-0.039521393331660604 -0.15607345288701144 -0.09130255681203027
-0.03390661876638257 -0.16062707194652684 -0.09750971676242291
-0.028204372391355974 -0.1654241274927494 -0.10219897350217122
-0.0225591519263346 -0.17026573005194215 -0.10494839726614154
-0.01719447594220454 -0.1749110382029207 -0.10548192469879203
-0.012394214313402518 -0.17910713127803377 -0.10371977992553437
-0.00846591072914597 -0.18262009019559847 -0.09979064318653397
-0.005693701995209978 -0.18526713382122653 -0.09401555936443193
-0.0042890152095382975 -0.18694647936870024 -0.08685306307689625
-0.004348798872635641 -0.18765187856260954 -0.07881612433975109
-0.0058290335210548095 -0.18748706790532918 -0.07038640481100573
-0.008542699039633018 -0.18664833866914043 -0.061946360362277464
-0.012187343023621787 -0.1854057763742146 -0.053741570208875274
-0.01639356471361956 -0.18406597588888632 -0.04587492974890061
-0.02078684283176858 -0.1829334477138185 -0.03832773660903601
-0.025045903945331027 -0.18227430386622043 -0.031001413615231014
-0.02894121706017334 -0.1822933890290922 -0.023764687361714797
-0.03235051850587068 -0.18311444669367377 -0.01649958969525064
-0.03525720696670079 -0.1847689511461202 -0.009135221479767296
-0.03772798551298093 -0.1872151535042021 -0.0016690114363512624
-0.0398823791604119 -0.1903677555062848 0.005828572940096263
-0.04185508650707222 -0.19414096141407877 0.013221433300601299
-0.04375857510929105 -0.1984926485103026 0.020326048343257554
-0.04565100921314866 -0.2034360823131929 0.026940051425345012
-0.04752029324197612 -0.20903302652482694 0.032877089011461226
-0.04928469404185492 -0.2153613731367196 0.03800303720940728
-0.05080837883851462 -0.222460221064394 0.042265781523521596
-0.05192652614082402 -0.2302991193831604 0.04571075243244989
-0.05247358730408635 -0.23875346203900702 0.048481350092617205
-0.052311770709650075 -0.24760625240065695 0.050804367102041
-0.051358558177967424 -0.25657205042439696 0.052966417546113295
-0.04960417924534438 -0.26532433171112974 0.05527997994108408
-0.047117808277816184 -0.27354225718159847 0.05804418036491601
-0.04403767747772027 -0.2809519046957936 0.06150390165900279
-0.04054887499002883 -0.2873687226728467 0.06581442578335697
-0.036847521431200424 -0.2927238628847991 0.07102053835422277
-0.03310203422104483 -0.2970777835073437 0.07705468599315567
-0.02941631599984379 -0.30060283878594296 0.08375282169902312
-0.025807356415016545 -0.30355808290798764 0.0908857662985461
-0.02220276403171976 -0.3062378568523379 0.09819829172308017
-0.018462957779840864 -0.3089184871778565 0.10545028896533197
-0.014419203175396966 -0.31179221160213716 0.11245026434940603
-0.009917555779612357 -0.31493564131333407 0.11907855917781034
-0.0048537813156908916 -0.3182991592175402 0.1252950934077
0.0008050568342438311 -0.3217215157229603 0.13113081152541706
0.007018182357913858 -0.32497539640209117 0.13667149311694557
0.01368046601564838 -0.3278172762891682 0.14203770241203062
0.02064497651831467 -0.330028195499997 0.1473623944827032
0.02775075292396028 -0.33144814217300855 0.15277283235356054
0.03485170948779844 -0.3319965825499282 0.15836836104299992
0.041838943851484116 -0.33167791890564424 0.16420833893663137
0.04865240337639737 -0.3305630875656834 0.17030262039998365
0.05527827829599866 -0.3287807336584613 0.176616272360115
0.061732460362406934 -0.32648500459726004 0.18307712265283238
0.06803801783537451 -0.32384547292255006 0.18959480320445726
0.07420175333056322 -0.3210282365825006 0.1960792445424732
0.0801979263809688 -0.31819934397148053 0.2024627067841023
0.08596860444273467 -0.31551289602162663 0.20871123750584702
0.09143782461213405 -0.3130977781632246 0.2148210811094669
0.09654389186935888 -0.3110476668292007 0.2208093876137587
0.10127768357823697 -0.30940283957573006 0.22670446882787137
0.10571589048382368 -0.3081487673096426 0.23251578471254897
0.11003252890856544 -0.3072212189462804 0.23823494075690343
0.1144766794906221 -0.3065231364257615 0.24382894498555546
0.11932099775699555 -0.3059511585755913 0.24925145957623518
0.12480169566493204 -0.3054159727858156 0.25445457795454973
0.13106189584651826 -0.30487378783572217 0.2594115451058884
0.13813012527393162 -0.30433024641749984 0.26411752960019125
0.14592516236303635 -0.3038483241601793 0.26860079612766
0.15426940176872544 -0.30354172968026205 0.27291358391595083
0.16292269601144344 -0.3035535223487154 0.27713260713578725
0.17161387164213374 -0.3040264690162386 0.2813532201945802
0.18006305959872074 -0.3050805741614744 0.28568188431644476
0.18801010926993986 -0.3067832199006603 0.29022632869023773
0.19522978937965815 -0.3091415704721163 0.2950862732928263
0.20155586179002807 -0.31209648243439775 0.30034569969178787
0.20689008803946757 -0.3155417973302356 0.3060585755224877
0.21121106689593594 -0.31933469873660714 0.312241781237551
0.21457844057918693 -0.3233221380042043 0.3188754115879259
0.21711551493905945 -0.3273718494559832 0.3259049274290863
0.2189940960321128 -0.33139308291997177 0.33324268556088654
0.22041489529945293 -0.33535972948545073 0.34076568149540476
0.22159170395761485 -0.33932285177423255 0.34832238624248957
0.22273993941661546 -0.34340109784513384 0.3557389095710235
0.22407254016215353 -0.3477560418332877 0.3628202994760561
0.22580130810417753 -0.3525725252558197 0.36936786917527875
0.2281372233291785 -0.3580424675307413 0.37518152652504244
LINES 1 120
119 0 1 2 3 4 5 6 7 8 9 10 11 12 13 14 15 16 17 18 19 20 21 22 23 24 25 26 27 28 29 30 31 32 33 34 35 36 37 38 39 40 41 42 43 44 45 46 47 48 49 50 51 52 53 54 55 56 57 58 59 60 61 62 63 64 65 66 67 68 69 70 71 72 73 74 75 76 77 78 79 80 81 82 83 84 85 86 87 88 89 90 91 92 93 94 95 96 97 98 99 100 101 102 103 104 105 106 107 108 109 110 111 112 113 114 115 116 117 118
POINT_DATA 119
SCALARS isSiphon int
LOOKUP_TABLE default
0
0
0
0
0
0
0
0
0
0
0
0
0
0
0
1
1
1
1
1
1
1
1
1
1
1
1
1
1
1
1
1
1
1
1
1
1
1
1
1
1
0
0
0
0
0
0
0
0
0
0
0
0
0
0
0
0
0
0
0
0
0
0
0
0
0
0
0
0
0
0
0
0
0
0
0
0
0
0
0
0
0
0
0
0
0
0
0
0
0
0
0
0
0
0
0
0
0
0
0
0
0
0
0
0
0
0
0
0
0
0
0
0
0
0
0
0
0
0
