# vtk DataFile Version 2.0
Vessel Segment
ASCII
DATASET POLYDATA
POINTS 119 float
-0.0019281528789315285 -0.0070590149197944105 0.0001874681661857751
-0.004992910138148285 -0.014158488445888118 0.0010530662784506836
-0.008888012063900334 -0.02123442645436608 0.0022985559289680755
-0.013308976019189872 -0.028222191660884386 0.003621591114007959
-0.017957333143928566 -0.03505511865905691 0.0047118354798022215
-0.022548112852440044 -0.04166678508024773 0.005255944316514949
-0.02682063280339731 -0.0479972412173768 0.0049596077929556885
-0.03055088635319936 -0.05400504441328049 0.003584429887340071
-0.03356883747573662 -0.05968157819379286 0.0009913388397735708
-0.03577545790174289 -0.06506530190947281 -0.0028247609735666877
-0.037154491023334436 -0.0702459226437031 -0.007730512100451345
-0.03777890944369033 -0.0753545128857296 -0.013477746605066055
-0.03780364299889877 -0.08054070370655064 -0.01975395076652842
-0.037438035076136376 -0.08593761108475513 -0.02624936530234266
-0.036902461088091594 -0.09162922329735007 -0.03271869792571154
-0.03637923276938013 -0.09762779141536496 -0.03902395033471324
-0.03597187168772739 -0.10386766134185059 -0.045145694231212424
-0.035682272264894344 -0.11021930118635173 -0.05116332875443554
-0.03540763262631824 -0.11651979572590282 -0.05721046317572622
-0.03495838970636871 -0.12261165227894377 -0.06341772705184127
-0.03408749341916413 -0.1283790109246839 -0.06985860830917158
-0.032531071548735184 -0.13377294189448796 -0.07650906252024044
-0.0300571418106029 -0.1388190775356426 -0.08323157074706916
-0.026515647936268583 -0.1436064292675521 -0.0897801374882213
-0.021884733542887405 -0.1482600289688678 -0.09582581926080679
-0.01629848089727485 -0.15289979224998024 -0.10099716749447755
-0.010047491344729126 -0.15759769086732925 -0.10492644523888045
-0.0035523175582808323 -0.1623369885157281 -0.10730046123840592
0.0026911772166895056 -0.16698429269119988 -0.10790623804632013
0.008179200261579775 -0.17129897726208665 -0.1066665263680351
0.012467213777439564 -0.17496356202355495 -0.10365608827807067
0.01522715627744573 -0.17764210898316232 -0.09909245732996592
0.016285499124170096 -0.1790622663859146 -0.09329913901517209
0.0156373242054179 -0.17908262695851954 -0.08664815445306254
0.013432695522966415 -0.17773721763689376 -0.07949918238009338
0.009943539240064777 -0.1752394292197408 -0.0721481827608458
0.005516645226435391 -0.17195403411753896 -0.06479793504334365
0.0005221204372688203 -0.16831965174516156 -0.057550750844425305
-0.004693143490119666 -0.16478704728055021 -0.050425204756456156
-0.009838926967817217 -0.1617455567661208 -0.043384753453897994
-0.014699843935548212 -0.15947772029224255 -0.03637002604244229
-0.01913778392102279 -0.158138783020793 -0.029327260544039325
-0.02308286824467915 -0.1577705906039538 -0.022225050011570012
-0.02651642745572047 -0.15832886707211424 -0.01506135837490298
-0.029452498076079605 -0.15971959562336052 -0.007861413342632191
-0.031921821656403185 -0.16183854052630312 -0.0006721909889036151
-0.03396249476778791 -0.16459509019745003 0.006441632017070758
-0.035619041253203525 -0.16793736850517085 0.013400216646677234
-0.036943005022438635 -0.17185482182519732 0.02011377840758334
-0.037991451473517436 -0.17637444321145038 0.026496364918950983
-0.038819630594890485 -0.1815258129337438 0.0324862278040817
-0.0394719734813238 -0.1873195693416926 0.038065514934144694
-0.03997413240272322 -0.1937214876681412 0.04326778585119498
-0.04032931022793932 -0.20064975386487016 0.04817163365796634
-0.040519905617434404 -0.20799093215990602 0.05287924606957703
-0.040510724752631816 -0.21561372420079736 0.05748904773983921
-0.04025300746497987 -0.22339768169701846 0.062072342105657916
-0.03968635322744448 -0.23123879622127877 0.06665978937433996
-0.03873991758366368 -0.23905334755006252 0.07124232852894087
-0.0373358098314361 -0.24677674419359807 0.07578359587554175
-0.03539827001224785 -0.25434660538108933 0.0802420241615136
-0.032867513805269845 -0.26169359349060684 0.08459283701478515
-0.02971534090331523 -0.268733679471044 0.08884754865384933
-0.025958987264030495 -0.27537429863652435 0.09306293461269798
-0.021664219209076324 -0.2815178492148256 0.09733725753344416
-0.016938944145688226 -0.2870783589938703 0.10179397913357709
-0.011916264999238398 -0.29200213481011844 0.10655561942352769
-0.006734419805884865 -0.2962853795904333 0.11171680891646062
-0.0015181837636219309 -0.29998571879519265 0.11732307141670727
0.003634273972327538 -0.3032120671286143 0.12336135650206803
0.008658968288172758 -0.3061112987990417 0.12976700599172256
0.013528955693795435 -0.3088304540452669 0.13644027508703066
0.018254090717881827 -0.31147669839258135 0.143269496216408
0.02287657089160521 -0.3140889497655185 0.15015209166592183
0.027462309518134605 -0.31662716075851555 0.15700894358814063
0.032085407424823964 -0.31898086979655094 0.16379515597808206
0.036813315927975244 -0.32100370394757827 0.1704978057664972
0.04169911662876773 -0.3225524041183681 0.17712392250749057
0.0467829215170817 -0.3235318390826971 0.18368318683302695
0.052100297910973446 -0.3239233661930285 0.19017110811041613
0.05768878337560634 -0.323790443393531 0.19655298409232624
0.06358787624075077 -0.3232608960786576 0.20277349319979063
0.06982960897289583 -0.3224886085000726 0.2087608786544368
0.07642563525773319 -0.3216109814968901 0.2144550824147982
0.08335583111556136 -0.32070866164809986 0.21982073720613882
0.09056312253815092 -0.3197835567196679 0.22486117338508435
0.09796003053191688 -0.3187644345493686 0.22961924629110914
0.10544287909235867 -0.3175311439776516 0.23415753303993347
0.11291243754411978 -0.31595059639459216 0.23854717845964107
0.12029505250783251 -0.31392093004005717 0.24284089485462354
0.12755558504924808 -0.31140172748859285 0.247062679639411
0.1347035030937485 -0.3084377317214191 0.25120857760271087
0.14178709869555065 -0.3051483565500056 0.25525206226262437
0.14888078808965666 -0.3017157298726784 0.25915774712034423
0.15606667564251397 -0.2983459413065607 0.2629037376416122
0.1634201530738663 -0.29523782823453854 0.26648922794939456
0.17098693462855694 -0.2925506019032773 0.269945459030655
0.17877718206051393 -0.2903727981430542 0.27333717677318103
0.18675235632605122 -0.28872952911261807 0.27674988803955997
0.19483317381656837 -0.2875816157804011 0.28027733764506496
0.20290116377671788 -0.2868745940054494 0.28400017734493826
0.21082072869671847 -0.2865639725582168 0.28796867860917963
0.2184511352087719 -0.2866657984415269 0.2921905926397048
0.22567126949045765 -0.2872600126088135 0.29662502255793777
0.23238943644249366 -0.2884885090484829 0.30119990935146507
0.23855306097104692 -0.2905051212126075 0.30583333795574175
0.2441505650102722 -0.2934366846428442 0.3104595365273256
0.2492010680659355 -0.2973320671142977 0.3150533189250154
0.2537390366191223 -0.30214071390910097 0.3196395291056585
0.2577951998084151 -0.30771839785490435 0.3242789680006493
0.26138192488268186 -0.31385429163237616 0.3290621133018943
0.26447706241630947 -0.32030215274523793 0.334070660617083
0.2670279803469533 -0.3268170559102274 0.3393674960754431
0.2689560780850423 -0.3331625775103603 0.3449836002018091
0.27016927388686734 -0.33910873429776806 0.3509204258585742
0.2705790673253919 -0.3444255160673787 0.35716098713033206
0.27009738537366595 -0.3488713710001453 0.3636786507101876
0.2686463753584763 -0.352201076749231 0.370448293966023
0.2661453774013833 -0.35415835709135546 0.377439723428321
LINES 1 120
119 0 1 2 3 4 5 6 7 8 9 10 11 12 13 14 15 16 17 18 19 20 21 22 23 24 25 26 27 28 29 30 31 32 33 34 35 36 37 38 39 40 41 42 43 44 45 46 47 48 49 50 51 52 53 54 55 56 57 58 59 60 61 62 63 64 65 66 67 68 69 70 71 72 73 74 75 76 77 78 79 80 81 82 83 84 85 86 87 88 89 90 91 92 93 94 95 96 97 98 99 100 101 102 103 104 105 106 107 108 109 110 111 112 113 114 115 116 117 118
POINT_DATA 119
SCALARS isSiphon int
LOOKUP_TABLE default
0
0
0
0
0
0
0
0
0
0
0
0
0
0
0
0
0
0
0
0
0
0
0
1
1
1
1
1
1
1
1
1
1
1
1
1
1
1
1
1
1
1
1
1
1
1
1
0
0
0
0
0
0
0
0
0
0
0
0
0
0
0
0
0
0
0
0
0
0
0
0
0
0
0
0
0
0
0
0
0
0
0
0
0
0
0
0
0
0
0
0
0
0
0
0
0
0
0
0
0
0
0
0
0
0
0
0
0
0
0
0
0
0
0
0
0
0
0
0
