# vtk DataFile Version 2.0
Vessel Segment
ASCII
DATASET POLYDATA
POINTS 119 float
-0.0022847123475270054 -0.008779816679730055 -0.004317696244486264
-0.005489939929787973 -0.016773016109847695 -0.0057108286918408965
-0.009448273252101914 -0.0241219127185 -0.004688722978067192
-0.013989205831216133 -0.030968573155791827 -0.0017657587090566188
-0.01893379363118964 -0.03745319477809548 0.0025317155136266845
-0.02408672879680397 -0.043708576782117335 0.007659699973349331
-0.029229161120300644 -0.04985133456310594 0.013059788869428003
-0.034117327390006516 -0.05596833117140436 0.01817624834236086
-0.038489210656383416 -0.062105949094957424 0.022486598991717188
-0.04208363835484168 -0.06826600591932437 0.025542097628796306
-0.044668072229100485 -0.0744115851795641 0.02701053344275461
-0.046071668837363376 -0.08048520836702107 0.02671432483816423
-0.046211499812886324 -0.08643494817055833 0.024645559948964453
-0.04510586465684094 -0.09224193017729901 0.020964965471151814
-0.04287373187030399 -0.09794195465556976 0.015976056077562754
-0.03971634402067556 -0.10362804941614101 0.01008076016655588
-0.03589466301085583 -0.10943346417138652 0.0037298135541125902
-0.0317061939244216 -0.11549517969236915 -0.002624442751809914
-0.02746315513552981 -0.12191124503668235 -0.008563337589550529
-0.023476340786744997 -0.1287034430063248 -0.013722897824301897
-0.020041169162558995 -0.135796956759752 -0.017803712295777912
-0.017423269873093224 -0.1430245799017217 -0.020574364874617578
-0.015843032875242722 -0.15014691597059093 -0.021878919866302658
-0.015457369617772767 -0.15689181861768758 -0.021649741234164546
-0.016344113852660085 -0.16298389961210985 -0.019918774353089433
-0.018488040848158274 -0.1681938517325079 -0.01682147526812971
-0.021774084557376096 -0.17235221602943854 -0.012580375431281257
-0.025988370182896802 -0.17536965532681448 -0.007471252598738719
-0.030832239487068556 -0.17722973341938353 -0.001780805278200468
-0.03595113298436339 -0.17798353897068878 0.004231881678155449
-0.04098011247512329 -0.1777193444917358 0.010361248191545115
-0.045596173417177824 -0.17653402740833454 0.016467957493827092
-0.04956826343454393 -0.17451247341776688 0.022479536678622528
-0.05278566808302232 -0.17171868016166084 0.028380689103354912
-0.05525938868100391 -0.16821424727095483 0.034204111548325394
-0.057093229794374076 -0.16409766339633353 0.040018092847875074
-0.058434956981543475 -0.15953576208418987 0.04591330070176254
-0.059427221441573426 -0.154780629421101 0.0519846740484729
-0.06017421139840222 -0.15017108436088739 0.058307612060916204
-0.06072689014376003 -0.14609083872285594 0.06491486815451156
-0.06108170104655498 -0.1429144049275359 0.07177797774086227
-0.06118451045996257 -0.14095563935611372 0.07880191445828016
-0.06094006419116628 -0.14042244979020596 0.08583436614434088
-0.06022566185154255 -0.14140688600249998 0.09269027779612399
-0.058915770433634974 -0.1438728398352044 0.09918299905427096
-0.0569184928394515 -0.14768405064479953 0.1051618859246859
-0.05421013088134042 -0.1526303294491919 0.11054102939668047
-0.05085715190436395 -0.15847040862586892 0.11531321101050612
-0.047014083188248554 -0.16495844335110715 0.11954491464031292
-0.04289585720420786 -0.17188110546409907 0.12335295972801323
-0.03873443123578731 -0.17906744476904532 0.12687185173063353
-0.034734754990878386 -0.18640702982868879 0.1302217439554446
-0.031041847176764323 -0.19383952673551907 0.13348682478945328
-0.027727429199514802 -0.20135359825447402 0.13670710463455846
-0.02479658105847779 -0.2089722507733627 0.13988327903109027
-0.022209781368372383 -0.2167427743365916 0.14299535380969752
-0.019906710933913958 -0.224717240362205 0.1460225814085947
-0.017826154343761953 -0.2329395229788706 0.1489552339326253
-0.015915561082976995 -0.241421918011643 0.15180822664625224
-0.014126339379589833 -0.2501330603253818 0.15461344026126184
-0.01240064028142128 -0.2589791077360101 0.15741538847934164
-0.010653778884758087 -0.2677974456482491 0.16025908978445044
-0.00876103310483593 -0.2763640116158588 0.16317078137888819
-0.006555839907673896 -0.28440274190810794 0.16615961460683584
-0.003842177618728658 -0.2916266133889371 0.1692135890107968
-0.0004229455576619321 -0.29777689601290847 0.17230440942230252
0.0038628162420186207 -0.3026683388604776 0.17540198923632286
0.009102131708012438 -0.30624043338006673 0.1784864103600328
0.015285029029004782 -0.3085690572290834 0.181560768317777
0.02230221964799607 -0.3098542405127056 0.18465787650265789
0.02996300183220469 -0.3103909050098207 0.18783546842529958
0.03803281677348276 -0.3105053583352596 0.19116616705548378
0.046275004545080024 -0.31049014714455697 0.1947255233560018
0.054490835787546335 -0.3105575878274302 0.19857374109864512
0.06254452101030009 -0.31081527834805833 0.20273738817493508
0.07037441994401743 -0.3112592769562522 0.2072051122081639
0.07798847879391345 -0.31180062751393894 0.21192179539627112
0.085445251054796 -0.3122997146160795 0.2167998709329094
0.09282849053374366 -0.31260293148141555 0.22172544716384873
0.10022110283378394 -0.31256572100195634 0.22658635406265215
0.1076812493806119 -0.312072138219242 0.2312816569630935
0.11522713134309037 -0.31103815630123327 0.23574504031094648
0.12283103416514554 -0.3094071944994934 0.2399568682423379
0.13042475234908715 -0.3071619917859576 0.24394373130901334
0.1379130061298606 -0.30431911655193944 0.24778615407188034
0.14519305584289813 -0.3009334054188289 0.25159309637723964
0.15218055709745545 -0.297099657378756 0.25549527860434545
0.15882742988676765 -0.29294949287218 0.25960636488134464
0.16514611168109739 -0.28863759191305327 0.26401130634606457
0.1712052115742116 -0.28433677096899407 0.2687374977754976
0.17714014647391355 -0.28021499632668806 0.273753800106864
0.18312135544835517 -0.27643135777786737 0.27896892745274193
0.18933303178743388 -0.27311858693236 0.28425411948630275
0.1959360229417603 -0.27038500094021617 0.2894711010185875
0.20302733036261875 -0.26831111206198727 0.2944985468030305
0.21061381928275866 -0.2669571864727197 0.29925852394336017
0.21858679522906516 -0.2663759333035022 0.3037365032231755
0.2267307354807444 -0.2666152449661609 0.30797614678906043
0.2347313293592984 -0.2677184045107189 0.3120692083806261
0.24221417382637883 -0.26971593355362383 0.31613028557991807
0.24878923853499946 -0.27261123657349456 0.32027105828428254
0.2541043408636097 -0.27636894465394607 0.32457866532979124
0.25788770936148886 -0.2809117383176799 0.32910029383028466
0.2599946571704314 -0.28612089744456887 0.3338486230725882
0.26041807277362145 -0.29184065538130755 0.33880673072541206
0.2592901763080764 -0.29789354938457213 0.343946218348504
0.25685024397455936 -0.3040875073035757 0.34925071788973444
0.25340407977015766 -0.3102271849733231 0.3547190186351399
0.24926992180868646 -0.3161315329080807 0.3603658692149252
0.24474390571846208 -0.32166288714785113 0.3662079140052931
0.24007275994401234 -0.3267473394126337 0.37223884626739645
0.23545064535167923 -0.3313965108023618 0.37841384564099567
0.23103372040390402 -0.3357194588902425 0.38463455550920456
0.22696012376868363 -0.3399223107535695 0.3907498932540586
0.22337211741411794 -0.3442893619061658 0.39656282113437935
0.22041774745958384 -0.34916272044786 0.4018503751356062
0.21825984633557885 -0.35491451161114945 0.4063712118640544
0.2170615461263991 -0.36193504858708025 0.4098783249113416
0.21699057730922416 -0.37061221061964933 0.4121231553185808
LINES 1 120
119 0 1 2 3 4 5 6 7 8 9 10 11 12 13 14 15 16 17 18 19 20 21 22 23 24 25 26 27 28 29 30 31 32 33 34 35 36 37 38 39 40 41 42 43 44 45 46 47 48 49 50 51 52 53 54 55 56 57 58 59 60 61 62 63 64 65 66 67 68 69 70 71 72 73 74 75 76 77 78 79 80 81 82 83 84 85 86 87 88 89 90 91 92 93 94 95 96 97 98 99 100 101 102 103 104 105 106 107 108 109 110 111 112 113 114 115 116 117 118
POINT_DATA 119
SCALARS isSiphon int
LOOKUP_TABLE default
0
0
0
0
0
0
0
0
0
0
0
0
0
0
0
0
0
0
0
0
0
0
0
0
0
0
1
1
1
1
1
1
1
0
0
0
0
0
0
0
0
0
0
0
0
0
0
0
0
0
0
0
0
0
0
0
0
0
0
0
0
0
0
0
0
0
0
0
0
0
0
0
0
0
0
0
0
0
0
0
0
0
0
0
0
0
0
0
0
0
0
0
0
0
0
0
0
0
0
0
0
0
0
0
0
0
0
0
0
0
0
0
0
0
0
0
0
0
0
