# vtk DataFile Version 2.0
Vessel Segment
ASCII
DATASET POLYDATA
POINTS 119 float
-0.007914574540817279 -0.004553023420019979 0.003291009302793941
-0.014839203481409807 -0.009797190255952245 0.00562783030340841
-0.020854128760687263 -0.015667846003494915 0.00708646358628922
-0.026041254397979417 -0.02209957069946156 0.007743843340018127
-0.030486151473569027 -0.02902515386489635 0.007678462994922285
-0.03427947747838019 -0.0363750235286072 0.006969773763605616
-0.037517246849746465 -0.04407745411069119 0.00569521155288953
-0.04029797198114808 -0.05205859682041543 0.003925457855882149
-0.04271827582170781 -0.060241196318403585 0.0017197965226241358
-0.04486509027427365 -0.06854100465977998 -0.0008770634081675241
-0.046807567446617335 -0.0768611178210755 -0.003836060869246103
-0.04858367239896913 -0.08508749332004009 -0.0071436848437489
-0.050187956486905244 -0.09308595657781381 -0.010800733948489353
-0.05156136127170454 -0.10070638008107809 -0.014818116979963093
-0.052591605302775374 -0.10779425290121475 -0.0192090807304187
-0.053123245848100915 -0.11420880722564715 -0.02397938377300069
-0.05298225070680611 -0.11984552742321927 -0.029115590884497083
-0.05200907776402466 -0.1246554943687493 -0.03457886910612758
-0.05009265363279967 -0.1286586383088136 -0.04030681454634701
-0.047198108715892195 -0.13194526859594866 -0.04622332467482184
-0.043381892302439676 -0.13467344863067482 -0.052251939199247095
-0.03879417843405057 -0.13706232795174025 -0.0583275819272305
-0.033662931229710515 -0.13938122639470407 -0.06439741959903567
-0.028267237562264312 -0.14193095594163446 -0.07041152360295348
-0.022902495750354458 -0.14501188497491077 -0.0763059431932126
-0.017843466926382834 -0.14887772678877875 -0.08198135020573909
-0.013315250508220028 -0.1536929259771763 -0.08728825807783233
-0.009476383099727363 -0.15949629462154935 -0.09202109915760143
-0.006415597066747587 -0.1661832465721031 -0.09592556100201402
-0.00416391488162369 -0.17351142049726878 -0.09872513414010632
-0.002709485869817817 -0.18112350280790823 -0.10016146049660493
-0.0020152019560004614 -0.1885914367617031 -0.10004261457473147
-0.002030421121627732 -0.19546301872176214 -0.0982810456966049
-0.0026988705580331084 -0.20131934653051722 -0.09491298703745207
-0.003963468004577379 -0.20581749986073317 -0.09009668874312247
-0.005766153982946254 -0.2087481843150681 -0.08408495020094539
-0.008047129425767434 -0.21004741707819838 -0.07718442459826144
-0.010740164855307734 -0.2098049888232095 -0.06970976582240707
-0.013767867397799406 -0.20824042063978976 -0.0619448934393023
-0.01703517526069669 -0.20565353717937257 -0.05411401111466414
-0.020423353092213027 -0.20238532215342372 -0.04636662996394641
-0.02378567514623583 -0.1987645039331241 -0.03877628090102369
-0.02694835128906601 -0.1950853180018899 -0.03134710469438511
-0.029721358211696133 -0.19159406369493456 -0.024032927795260638
-0.03191789648935826 -0.18849520957600827 -0.016760971080385254
-0.033378428716080454 -0.18595103365523288 -0.009457057165904581
-0.033995479504834614 -0.1840878429509199 -0.002068445218160264
-0.03372933626543594 -0.18299029989606413 0.005421147056967128
-0.03261609604933763 -0.18271111322533778 0.012983544074149719
-0.030757707049964108 -0.1832753195818179 0.020547514874190886
-0.0283008324931213 -0.1846932840025732 0.028006240618335797
-0.0254127868011581 -0.18696793496145567 0.035228043664607085
-0.02225666645516547 -0.19010499857396326 0.04207624038851211
-0.018979366980078263 -0.19410160812097801 0.04843028263116953
-0.01570481257640308 -0.19893819677448907 0.05420886937734218
-0.012532584889652532 -0.20456515206335166 0.059384074266986005
-0.009536061791126073 -0.21089866613105904 0.06398619022408474
-0.00675972646040659 -0.2178253782463971 0.06809731397155457
-0.004217245311950054 -0.22520430071737912 0.07183447486563055
-0.0018932815845919709 -0.23289448929036188 0.07532614988254294
0.00025471584258808343 -0.24075779759038782 0.07868837304704396
0.0022912564348008526 -0.24868488997357546 0.08200455440775001
0.004295072407108763 -0.2565925533376669 0.08531441260425249
0.006350210133998511 -0.2644358586637393 0.08861263599967875
0.00853478298539693 -0.27219790531120147 0.09185853476974545
0.010909417922311882 -0.2798933229573124 0.09499306452931372
0.01350667530674247 -0.2875489041927828 0.09795959773057615
0.01632408636268813 -0.2952030944207765 0.10072398340270029
0.019324250863691973 -0.3028870823185292 0.10328710952335246
0.02244203978694775 -0.310628918781658 0.10568851566447957
0.02559917097862317 -0.31843549841957836 0.10800102811242056
0.02872226618927928 -0.3262982495350065 0.11031751610711821
0.031763082019753405 -0.33418074632716177 0.11273186667233163
0.0347156853328831 -0.34203001295200697 0.11532088491088124
0.03762600247590805 -0.34977133540992245 0.11812807665613076
0.04059381715256654 -0.3573192577363662 0.1211559725146528
0.04375929242493806 -0.3645871657277377 0.12436686960612989
0.04728260643696825 -0.37149653725578125 0.12769408100474575
0.051312945675351135 -0.3779863194885965 0.13106157773211982
0.055956889070562815 -0.3840235557372949 0.13440559897179727
0.061252543393969884 -0.3896086978565578 0.13769619604703515
0.06715738525326949 -0.39476298683440425 0.1409486488343837
0.07355512683193392 -0.39952053850254915 0.14422583128350497
0.08027565239942938 -0.4039087253067964 0.1476295525671748
0.08712807296275892 -0.4079335879544911 0.15127898802847062
0.09393547712716299 -0.4115679770156333 0.15528817767052136
0.10056608240410111 -0.4147607919785728 0.1597349354604548
0.10695409729810297 -0.41744128048878704 0.16464411886676195
0.11310676460571399 -0.4195504913368463 0.169970293798593
0.11909916540532058 -0.4210545121605759 0.17560208261437907
0.12505455361481924 -0.4219651558931812 0.1813768043311498
0.1311173892911129 -0.4223427368846792 0.187109802140598
0.13742298072098807 -0.4222816073448565 0.19262546403824468
0.1440714836385862 -0.4218978057081236 0.197785482287147
0.15111166516895155 -0.4212990792792234 0.20251736533907808
0.15853664376669435 -0.42056844643768043 0.20681739470432156
0.1662846500783004 -0.4197512198492287 0.2107445182227732
0.1742598246015486 -0.4188633011362766 0.2143985667327012
0.18234549677730227 -0.41790179618048434 0.2179014098358534
0.19042729232660677 -0.41688087598113854 0.22135738736967314
0.19840750263367812 -0.4158487242569319 0.22483681825684762
0.20622190571183788 -0.4149076128180984 0.2283580443221676
0.21384027552999182 -0.41421585915440445 0.23188838859634087
0.2212686098312261 -0.41397025402952625 0.2353577943440317
0.22853575283190528 -0.4143677230197897 0.23868279118200017
0.23568432323522845 -0.4155669309834668 0.24180055501641437
0.24274918696226083 -0.4176522465102126 0.24469101557092743
0.24974860491742942 -0.4206188077175582 0.24739420270862622
0.2566703146914022 -0.4243771818759407 0.25000646238709767
0.26346261882212346 -0.42877610234797603 0.2526734362662426
0.27004016229897826 -0.43363876289520353 0.25556227118846514
0.27627917611245095 -0.438792406117824 0.2588344008049459
0.2820309540477747 -0.4440962514206774 0.2626221942393008
0.2871218088739748 -0.449447109712784 0.26701994369492243
0.29136768765882964 -0.45478525165857475 0.27207853769456275
0.2945717044875839 -0.4600832559867774 0.27781546814853275
0.29653575992187176 -0.4653340337477682 0.28422743066741574
0.29705847291475646 -0.4705363298079056 0.29130111616094373
0.29593877620656334 -0.4756982454898875 0.29901762014102207
LINES 1 120
119 0 1 2 3 4 5 6 7 8 9 10 11 12 13 14 15 16 17 18 19 20 21 22 23 24 25 26 27 28 29 30 31 32 33 34 35 36 37 38 39 40 41 42 43 44 45 46 47 48 49 50 51 52 53 54 55 56 57 58 59 60 61 62 63 64 65 66 67 68 69 70 71 72 73 74 75 76 77 78 79 80 81 82 83 84 85 86 87 88 89 90 91 92 93 94 95 96 97 98 99 100 101 102 103 104 105 106 107 108 109 110 111 112 113 114 115 116 117 118
POINT_DATA 119
SCALARS isSiphon int
LOOKUP_TABLE default
0
0
0
0
0
0
0
0
0
0
0
0
0
0
0
0
1
1
1
1
1
1
1
1
1
1
1
1
1
1
1
1
1
1
1
1
1
1
1
0
0
0
0
0
0
0
0
0
0
0
0
0
0
0
0
0
0
0
0
0
0
0
0
0
0
0
0
0
0
0
0
0
0
0
0
0
0
0
0
0
0
0
0
0
0
0
0
0
0
0
0
0
0
0
0
0
0
0
0
0
0
0
0
0
0
0
0
0
0
0
0
0
0
0
0
0
0
0
0
