# vtk DataFile Version 2.0
Vessel Segment
ASCII
DATASET POLYDATA
POINTS 119 float
-0.00037118453884995694 -0.007532813073988366 -0.004740147504837012
-0.0020934364460649143 -0.015452608294401702 -0.007668283627008077
-0.0048809816623435155 -0.023592860809897157 -0.009408076123012579
-0.008447858859666852 -0.031788554046548026 -0.010573492935784912
-0.01250955357457066 -0.03987896644469327 -0.011745017877097029
-0.01678780945801304 -0.04771354351682646 -0.013430120179072268
-0.02101918284346203 -0.055159304616381556 -0.016013685471147194
-0.024965084796412188 -0.06210753661334687 -0.019716722381875357
-0.02842107874687492 -0.06848021738160147 -0.02457379549603763
-0.031217700947698834 -0.07423659043587132 -0.03044588531464989
-0.033212027560457366 -0.07937937739250304 -0.03706284264611113
-0.03427735026000404 -0.08395954681359179 -0.04409203590249985
-0.03430260693313284 -0.0880771134171868 -0.051213741702640876
-0.03320982477046076 -0.09187677939020654 -0.058185498201528456
-0.030980628775506926 -0.09553303743593634 -0.06487913977102347
-0.027675505129094256 -0.099223698310636 -0.07128711804945462
-0.02343103613212916 -0.1030997243409866 -0.07749280645230507
-0.01843651285340503 -0.10726290393615348 -0.08360750588061144
-0.012900723814905582 -0.11176940997758746 -0.08968756707794544
-0.007027028398858947 -0.11663274054587189 -0.09565886349837435
-0.0010065807700758193 -0.12183675699156829 -0.10127693759213269
0.004968513730307168 -0.12733463224812988 -0.10614362876549033
0.010683232555866225 -0.13303447929758414 -0.1097792187893139
0.015882359313473027 -0.13879061915807267 -0.11172928881610242
0.020272215876009407 -0.14440732272585005 -0.11168264356937037
0.02354844128595194 -0.1496572854225829 -0.10955693440480971
0.02544483514694177 -0.1543181142626493 -0.1055206630666894
0.025789033875002643 -0.15820684722730338 -0.09994441285110302
0.02454403614013073 -0.16121832643036477 -0.09330654180271705
0.0218250635877813 -0.16334506228742598 -0.08607493111775347
0.017884359287630498 -0.1646960126127515 -0.07862099192662131
0.013067996658561563 -0.1654838211731871 -0.0711796922366265
0.0077530076216506035 -0.165983042868026 -0.0638609178621771
0.0022813995768640885 -0.16645781597859882 -0.05669847108748396
-0.00309563613955785 -0.16706758651509596 -0.0497112101807129
-0.008250621391834967 -0.16779397040868782 -0.042959106566059446
-0.013188163625258315 -0.16841352805323578 -0.03657688913960091
-0.018020749825882344 -0.1685253117608593 -0.030772127143674236
-0.02291094214217792 -0.16766114638901314 -0.025779236941145103
-0.02799957913764188 -0.1654231619985351 -0.021785350185212823
-0.033341469255661636 -0.16162426778930816 -0.01885104166385212
-0.038868254153690086 -0.15636661455842782 -0.016859790564962063
-0.044380925806510506 -0.1500448619854671 -0.015512143395339075
-0.04957394599349136 -0.14326480610438125 -0.014367787683542542
-0.05408623331327939 -0.13671681160453217 -0.012927121470863421
-0.057570373284156436 -0.1310331027082371 -0.010731369773218612
-0.05976313225170201 -0.12667031646229449 -0.00745906709982375
-0.06053363972166075 -0.12385886783746826 -0.002989257654242717
-0.05989211594833609 -0.12261397647012977 0.0025845764814014143
-0.057962096248815424 -0.12281566752370356 0.008983577116800813
-0.05492800025219716 -0.12427598773564898 0.015815134985342424
-0.05097957130879693 -0.12680777663587642 0.02267071933306528
-0.046279107188473424 -0.1302278150579564 0.02921374820887576
-0.040955387081958214 -0.13434520900391536 0.03523905539351163
-0.03511534606312245 -0.13894940432844616 0.040684438205318814
-0.028864568403911887 -0.14380867683777177 0.04559203596430626
-0.022322890213103116 -0.14869928028548113 0.050027608450526596
-0.015630354985600652 -0.1534308523538157 0.05399029144557279
-0.008942672561777786 -0.15788222471061963 0.05734566221547437
-0.0024223329580619225 -0.16201926485313328 0.05981873567727387
0.0037685773414434455 -0.16590506271761402 0.06105774173238772
0.009471233672320818 -0.16968116062973415 0.060752264538453116
0.01452867921674659 -0.17354361133540896 0.058752144944470404
0.018783493692568917 -0.17770949290659976 0.05513784950914074
0.022081177111156425 -0.18237737755356676 0.050228751708236666
0.024284004066239793 -0.18769692035366653 0.04452110576913975
0.025296662664988985 -0.19373372039203438 0.03859404401408622
0.025095821357580803 -0.20047286462256142 0.03301902842121117
0.02375319262988283 -0.20782494945112 0.02828931199639418
0.021443790575812076 -0.2156543708676079 0.024774386353851766
0.018438638407091906 -0.22380930303226534 0.022695003398773148
0.015080831515506645 -0.23213063352910326 0.022121130372120757
0.011745560100628112 -0.24046163170726653 0.022992646183249876
0.008789678712684225 -0.24864049559303655 0.02516039214101067
0.00650016277474828 -0.25649518129183063 0.02843446828481241
0.005055901785950176 -0.26384840862223163 0.03262268889347374
0.004519643331195654 -0.2705356603472971 0.03754787340875596
0.004866075188363941 -0.2764306599060139 0.043046451283186085
0.006035937401682895 -0.28147364644145445 0.04895861133635527
0.00798832345139447 -0.28568421163117547 0.05512197467236392
0.010719738684628957 -0.28915542261217914 0.06137928434266964
0.014238016835840282 -0.2920071595014757 0.06760122632915942
0.018514221207603862 -0.2943431863403962 0.07371047687614238
0.02344814644486188 -0.29620983281861324 0.07968854586752565
0.02887424435586706 -0.29758446752405077 0.08555912397183703
0.03461122844232529 -0.2984086957966737 0.09134899066119413
0.04052648218361219 -0.2986242577221514 0.09704745661396355
0.04658223987443449 -0.29822599480136136 0.10258575224644131
0.05283930456015003 -0.29728670739611784 0.1078452668975105
0.05941437467072595 -0.2959549197840812 0.11270332899079345
0.06641635776695584 -0.29442635288473074 0.11708042240997374
0.07389082470157382 -0.2928992052280075 0.12098515204154353
0.0817925476365101 -0.2915307543138558 0.12452105766630284
0.08999349700593785 -0.29042272486812415 0.12787041334882654
0.09831795230755405 -0.2896220661421343 0.1312416234006957
0.10659217222702379 -0.2891467293492778 0.13481992908656543
0.1146902126155671 -0.2890080632277014 0.1387170605522093
0.12256552092593498 -0.28922022762371086 0.1429496104671804
0.13025807752529664 -0.28979904262665557 0.14744368257314958
0.13787212986748942 -0.290752644413412 0.15206743985150456
0.1455442979009136 -0.29208121270988135 0.15667595981076698
0.1533917679173241 -0.29378221027661316 0.16114822182053437
0.16146177030233091 -0.2958640125911288 0.16541462172171165
0.16969091826050356 -0.2983630490052356 0.16946328394952012
0.17788382677277395 -0.30135036223685413 0.17332946021039725
0.18571539660896758 -0.30491546225513755 0.17707147512901783
0.192760176502269 -0.3091380201426661 0.1807453708419051
0.19855444957472623 -0.3140534750030196 0.18439351771856394
0.20266836983401418 -0.3196312939686128 0.18802599438555856
0.2047825705766302 -0.3257718997607258 0.19162997030794257
0.20475162124317153 -0.3323352831211504 0.19517535613769102
0.2026438140094128 -0.33917026211513684 0.19863101770867395
0.19873189806741662 -0.3461428957679575 0.2019724735291718
0.1934587848272655 -0.35315667665158207 0.20519123697463162
0.18737243734799414 -0.3601509902375562 0.20828933508859968
0.18107739067954123 -0.3670944038183522 0.2112822740228512
0.17519373316052772 -0.3739737708274191 0.21419309692258834
0.17034370033973165 -0.380782683598171 0.21704461811089432
0.16714866918813132 -0.3875193407838955 0.2198641654340284
LINES 1 120
119 0 1 2 3 4 5 6 7 8 9 10 11 12 13 14 15 16 17 18 19 20 21 22 23 24 25 26 27 28 29 30 31 32 33 34 35 36 37 38 39 40 41 42 43 44 45 46 47 48 49 50 51 52 53 54 55 56 57 58 59 60 61 62 63 64 65 66 67 68 69 70 71 72 73 74 75 76 77 78 79 80 81 82 83 84 85 86 87 88 89 90 91 92 93 94 95 96 97 98 99 100 101 102 103 104 105 106 107 108 109 110 111 112 113 114 115 116 117 118
POINT_DATA 119
SCALARS isSiphon int
LOOKUP_TABLE default
0
0
0
0
0
0
0
0
0
0
0
0
0
0
0
0
0
0
0
0
0
0
0
0
0
0
0
0
0
0
0
0
0
0
0
0
0
0
0
0
0
0
0
1
1
1
1
1
1
1
1
1
1
1
1
1
1
1
1
1
1
1
1
0
0
0
0
0
0
0
0
0
0
0
0
0
0
0
0
0
0
0
0
0
0
0
0
0
0
0
0
0
0
0
0
0
0
0
0
0
0
0
0
0
0
0
0
0
0
0
0
0
0
0
0
0
0
0
0
