# vtk DataFile Version 2.0
Vessel Segment
ASCII
DATASET POLYDATA
POINTS 119 float
-0.004761871073166137 -0.007040123354926924 0.0021948934556745197
-0.010014269415327542 -0.014061149167020006 0.005101727267755702
-0.015534938507439524 -0.021035606557199025 0.008451409194798885
-0.02110329049528073 -0.02793696805237835 0.011972447170631345
-0.02650635679443536 -0.034741880485432475 0.015387049324609754
-0.031548844734599554 -0.04143367790109431 0.018408857381716392
-0.036071631444539086 -0.04800661809951297 0.02074738437915815
-0.03997217129401646 -0.05446985667564467 0.022128213904441293
-0.043222898128653514 -0.06084758613419007 0.022329590425838302
-0.04587995709479609 -0.06717832906143692 0.021226659161508125
-0.048072025345046655 -0.07351137371572963 0.018822483136405804
-0.04996815013087441 -0.07990081574222455 0.015258438180260224
-0.051731458674765925 -0.08639907450478035 0.01079666772321243
-0.053470825734937215 -0.09304763540452879 0.005776553836334202
-0.055204206337897924 -0.09986573487494878 0.0005575479026570901
-0.056848117144081806 -0.10683716763742886 -0.004542865863008884
-0.05823448744851633 -0.11389979354212051 -0.009307532883887354
-0.05914695163461663 -0.12094448075807018 -0.013661692563346574
-0.05936613123046858 -0.12782796237713387 -0.017686949305303117
-0.058715726099362604 -0.13439831464803823 -0.021597070593549032
-0.057100200267475955 -0.1405325893594408 -0.025676559796473417
-0.054530909923198326 -0.14617670782924536 -0.030189821274044924
-0.05113334582339658 -0.15136578228946854 -0.035284813630388975
-0.047134001914894565 -0.1562168886172366 -0.040921167607166194
-0.04283170302752723 -0.16089825037254826 -0.04684060765066435
-0.03855970017070481 -0.16556586043034646 -0.05258864942440892
-0.03464328595297172 -0.1703120847576916 -0.057584099415101536
-0.03136138842955113 -0.17512629174800443 -0.06122309652136201
-0.028917376491126155 -0.17987446934553677 -0.06299264221977365
-0.027426415989713834 -0.18432571082026902 -0.06256609679424899
-0.026919541033939016 -0.18819288010350313 -0.059861950960283544
-0.027361640167173965 -0.1911930338422962 -0.055061310829836625
-0.028680957689844674 -0.19308682807887795 -0.04857242233611534
-0.030798862148994854 -0.1937122581593006 -0.04096090360322324
-0.03364865664629516 -0.19297854302530176 -0.03286500451101229
-0.037176288714453526 -0.19085836911834106 -0.024901072230276274
-0.04132172959504885 -0.18738103188393462 -0.017575214490502603
-0.04598688492758557 -0.18263137870850643 -0.011217789983783056
-0.05100209045158291 -0.17675768106353384 -0.005949520062814816
-0.05610657489970988 -0.16998889367295678 -0.0016859713970790514
-0.060955019037135634 -0.1626285672480753 0.0018233178855248818
-0.06515212032665253 -0.15506354017710092 0.004930018867988641
-0.06831016688570413 -0.14773872491537268 0.008010664447947385
-0.07011753866050296 -0.14113152221676825 0.011391745570988569
-0.07040465947221224 -0.13570576380644683 0.015288331799976296
-0.06918779547798148 -0.13186063291925246 0.019767875875828286
-0.06667998076482438 -0.12988059372658745 0.02474727311057637
-0.06325986758617758 -0.12991106409490824 0.030024639411523616
-0.05940529549042695 -0.13195149493925268 0.03533507311965437
-0.05560401684510007 -0.13586072089859583 0.04041516245879328
-0.05226365334178036 -0.1413897925773162 0.04505624869470371
-0.04964111991163061 -0.14821154473711098 0.04913182924838464
-0.047811830370867094 -0.15595924487330026 0.05259090503057477
-0.04668109034567956 -0.1642764226480251 0.055425628853971995
-0.046032406406762 -0.1728518350579984 0.05763101239760959
-0.04559257281544031 -0.1814499118838786 0.05917806467247952
-0.04509523581610751 -0.18993266966896036 0.060014621590281286
-0.0443296720772054 -0.19824673789883496 0.06009542916939419
-0.043166378478088484 -0.2064168060906035 0.0594240876464541
-0.04155826611896897 -0.21450978307455357 0.0580886676250093
-0.03952513683744589 -0.2226102921266632 0.056273010601366
-0.037126715876153106 -0.23079093483750776 0.05424009899989688
-0.034433418115813706 -0.23908792604771067 0.05229510746321085
-0.03150149746497931 -0.24748687417725032 0.05073833936671227
-0.028356750833825238 -0.25592241676441824 0.04982428374090271
-0.024990106575475696 -0.26428084052309575 0.049731275500806194
-0.021362896791015298 -0.2724184382660866 0.050547644771707374
-0.017418633882481892 -0.2801796600434371 0.05226935368972104
-0.013098297667341689 -0.28742140837298097 0.05481000872031491
-0.008353287184887885 -0.29402366579313843 0.05802045694235671
-0.003156699890387612 -0.29990689332695797 0.06171817754297229
0.002488053027940848 -0.30503362374261866 0.06572256599064161
0.008537057790475304 -0.3094107354536345 0.0698909085371521
0.014896049169850779 -0.3130780691648418 0.07414663249836408
0.021415740039491902 -0.31610329396667414 0.07849453582747772
0.0279005924451694 -0.3185631549692499 0.08301261264305862
0.03413888172994523 -0.32052051210172267 0.08782077492583999
0.03995018869711404 -0.3220126544644401 0.09302941582895266
0.04523695607388509 -0.32304405381595225 0.09868871683759456
0.05002156334415768 -0.32359097775366646 0.10475527383376723
0.05445692555560169 -0.323625814373238 0.11108722002926259
0.05880090353669487 -0.32313571856765066 0.11747011276250939
0.06336076698829977 -0.32214205726385936 0.12366355863287704
0.06842308593606623 -0.3207072567533716 0.12945462579826397
0.07418873987310398 -0.3189299602662641 0.1347054546213223
0.08073361789842273 -0.3169280917278058 0.1393811377716885
0.08800344799262556 -0.3148264964351125 0.14355177129821314
0.09583668045287719 -0.31273722222382555 0.14737853088935424
0.10400775248946106 -0.31075632220802496 0.15107268646227986
0.11227755323151725 -0.30895575390099966 0.15485344095303286
0.1204403207013287 -0.30738999301354786 0.15890667293486102
0.12835912618392722 -0.30609782390221424 0.16334205840180047
0.13598284701134328 -0.30510788980271747 0.16818235067572385
0.14334236318995233 -0.30444624530191583 0.17336420754237283
0.15053115877333714 -0.30413837394493637 0.1787575834310917
0.15767545932254115 -0.30421593386772033 0.1841962771553067
0.16489156786512213 -0.30471555765510006 0.18952542958684673
0.1722523501553871 -0.3056846765862929 0.19462736793089946
0.17975661990530523 -0.30717970315158605 0.1994519548241247
0.18732300941930358 -0.3092662473513875 0.20401275854139733
0.19479645642485569 -0.3120148363124699 0.20837688361517234
0.20196258118933358 -0.3154923800136018 0.21263848330800333
0.20857958225749115 -0.3197480880604216 0.21689315498712058
0.21441003762052668 -0.324801982993831 0.22121110378281741
0.21924277777338405 -0.330627721609357 0.22562643608560368
0.22291575949508088 -0.33715376580891987 0.23013386987225787
0.22532583039050727 -0.3442557656130071 0.23468946790609332
0.22642566644943 -0.3517744780826441 0.23922864408861746
0.22623043932268522 -0.3595361061036569 0.24367860125312737
0.22481964639588312 -0.3673727780341786 0.24797362149383945
0.22234481234807527 -0.37515139303583817 0.25206503645862727
0.21904483133310274 -0.3827843557039139 0.25593176529997863
0.21525236298672443 -0.39024164280702894 0.259575879079666
0.21138899652228557 -0.39754635039380953 0.2630258504451385
0.2079548202885302 -0.40476589890263787 0.266327357702867
0.20549835831934102 -0.4119959552164691 0.2695374478347543
0.2045946312770122 -0.4193525878974556 0.27271895816638153
0.20583090812838273 -0.42695474036223036 0.27593800261267293
0.20979686718268328 -0.43492661894742185 0.2792612557577161
LINES 1 120
119 0 1 2 3 4 5 6 7 8 9 10 11 12 13 14 15 16 17 18 19 20 21 22 23 24 25 26 27 28 29 30 31 32 33 34 35 36 37 38 39 40 41 42 43 44 45 46 47 48 49 50 51 52 53 54 55 56 57 58 59 60 61 62 63 64 65 66 67 68 69 70 71 72 73 74 75 76 77 78 79 80 81 82 83 84 85 86 87 88 89 90 91 92 93 94 95 96 97 98 99 100 101 102 103 104 105 106 107 108 109 110 111 112 113 114 115 116 117 118
POINT_DATA 119
SCALARS isSiphon int
LOOKUP_TABLE default
0
0
0
0
0
0
0
0
0
0
0
0
0
0
0
0
0
0
0
0
0
0
0
0
0
0
1
1
1
1
1
1
1
1
1
1
1
1
1
1
1
1
1
1
1
0
0
0
0
0
0
0
0
0
0
0
0
0
0
0
0
0
0
0
0
0
0
0
0
0
0
0
0
0
0
0
0
0
0
0
0
0
0
0
0
0
0
0
0
0
0
0
0
0
0
0
0
0
0
0
0
0
0
0
0
0
0
0
0
0
0
0
0
0
0
0
0
0
0
