# vtk DataFile Version 2.0
Vessel Segment
ASCII
DATASET POLYDATA
POINTS 119 float
-0.004351050910457633 -0.004834771517550814 -0.005992158269128614
-0.008794649687723135 -0.010916951097629447 -0.011075251434383837
-0.013259574402652841 -0.017952515967830797 -0.015265560755734809
-0.01767464882889903 -0.02564493845065041 -0.018585165573791095
-0.021969314272260055 -0.033689301382891834 -0.021072490991171387
-0.02607399314690201 -0.041769359334195365 -0.022800548411417817
-0.029920352233772714 -0.049559424884276164 -0.023895344755746433
-0.03344324304166001 -0.05673924858898827 -0.024553682164615037
-0.03658263755057648 -0.06302709102397737 -0.0250496799644799
-0.039292690573316046 -0.06822440414633152 -0.025718029828487993
-0.04155909758251165 -0.0722604536239609 -0.026912562701284753
-0.04342070787240248 -0.07522572893524068 -0.02894922971191858
-0.04498527503775116 -0.07737014716869481 -0.032046776239205585
-0.046420769847367184 -0.07905796231581172 -0.03629522450125414
-0.047926674325065824 -0.08069562224380657 -0.04164398665117231
-0.049685914327866953 -0.08265215654843265 -0.04792437015068275
-0.05180986206835254 -0.08518814223919698 -0.054897754513438576
-0.05429140686736963 -0.08841716899346783 -0.06230436356823534
-0.05698692087884376 -0.09230569545810605 -0.0699084390126744
-0.059631503054031046 -0.09670501207725107 -0.0775256706893763
-0.06188589006863605 -0.10139668542381888 -0.08503256453147408
-0.06340229519532804 -0.10613930574766924 -0.09236406667867456
-0.06389557841491736 -0.11071135313465034 -0.0995032852058534
-0.06319767144757789 -0.11494247855696399 -0.10646893217508631
-0.06128396345801346 -0.118734515227955 -0.11330486629068817
-0.05827110110141988 -0.12207524612615842 -0.12006860297937058
-0.054381276018847124 -0.12504067615725933 -0.1268185656984868
-0.04988980582333218 -0.12778563241537194 -0.13359745575834767
-0.0450693449377287 -0.13052000846567335 -0.1404142729211565
-0.040142545466198554 -0.13347230104879654 -0.14722804545334284
-0.0352561264417836 -0.13684386660483508 -0.15393203747649667
-0.030481742074847263 -0.14076912600045796 -0.16035337949176648
-0.025844643014199833 -0.14529370607106615 -0.16625170032631142
-0.02136339790138478 -0.15036723206030436 -0.17133245920900037
-0.017092243599384768 -0.15585857621287993 -0.17527273060071932
-0.013147432299057212 -0.16157088851571352 -0.17777116685787717
-0.009704574635140755 -0.1672624839394513 -0.1785894259979067
-0.006974473884962839 -0.17266976768019665 -0.1776048974533396
-0.005161322378963737 -0.17752735095788263 -0.17482877264579297
-0.0044191942144275395 -0.1815964565586191 -0.17041754312198806
-0.004819071682124933 -0.18468965092071166 -0.1646373204885412
-0.006335566802530251 -0.186690446049422 -0.1578352661918515
-0.008851220312876705 -0.18754169378323843 -0.15038136678257683
-0.01217767251999918 -0.18725203905495394 -0.14263314001485508
-0.01608591960884732 -0.18588265707995186 -0.1348911035772011
-0.020335439525944295 -0.1835513233375649 -0.12737637737640284
-0.024696796192710153 -0.18043696747823426 -0.12021589235254199
-0.028969703113112016 -0.17677613297638192 -0.11344275953739696
-0.03299567115085481 -0.172836282245443 -0.10700865047170526
-0.03666841137016998 -0.16889715792931323 -0.10080571218061041
-0.03994053255524078 -0.165210382216689 -0.09469231652974898
-0.04282410093313974 -0.1619768697004069 -0.08851800028505707
-0.04537890928952321 -0.15933024981143562 -0.08214516059662282
-0.04768986871073626 -0.15733773189205214 -0.07546607449430665
-0.0498402689024939 -0.15602276381764704 -0.06841648365945699
-0.05189149040544385 -0.1553936487791453 -0.06098788211771165
-0.053870299867527595 -0.15547539554937378 -0.053236089641651684
-0.05576342865570633 -0.15633130153475774 -0.045280940988778384
-0.057512956551899946 -0.1580460241055522 -0.03729712375961087
-0.05901763779629891 -0.16070853333059204 -0.029493917429745907
-0.06014211063249894 -0.16437535845647103 -0.02208734869137065
-0.06073801994866726 -0.16905207986181583 -0.015271584581923204
-0.060672304138845265 -0.1746825811840091 -0.009192888233985728
-0.05985755061682933 -0.1811545959787579 -0.003929780640174325
-0.05827468740179811 -0.1883129667585383 0.0005163242865131154
-0.05597915156950243 -0.19598296812246424 0.004219063773750402
-0.053088552592763884 -0.20398309529284714 0.007314740596504436
-0.049758011645357064 -0.21214417260387816 0.009983446553767119
-0.04614819936776989 -0.22031878003844774 0.012426395835463632
-0.042397008565689905 -0.2283883473788979 0.014842807904259252
-0.038602543587902036 -0.23627029003645766 0.017408679944770425
-0.03481887198126349 -0.24391710195325553 0.020258311960334504
-0.031064218055530023 -0.25132520822180876 0.023468726561769484
-0.027335749911052375 -0.2585314543542665 0.027050338145941304
-0.02362517404187839 -0.26561086716779164 0.03094773123362903
-0.019928025515832393 -0.2726629135961381 0.03504748127131163
-0.016244655445162064 -0.2797937870371908 0.039197470012703316
-0.012572654738938776 -0.2870882345962911 0.04323152130266659
-0.008895464294113095 -0.2945823328611617 0.04699458025393279
-0.005169288904892902 -0.30224916962606935 0.050365483621691964
-0.0013147611746136135 -0.30997813677223957 0.05327060446362586
0.002782769522567526 -0.31759059856178523 0.055686968723774724
0.00726291364678351 -0.3248589369591523 0.05763500255977187
0.01227038013735539 -0.3315411937021155 0.059164420588241784
0.017928885024037958 -0.3374325243610449 0.06033854011669955
0.024315973745572678 -0.34239572281648323 0.06122183872046531
0.03144616987019926 -0.3463972912435064 0.06187265388277511
0.03926778539081477 -0.3495055473996307 0.062341087812454246
0.047672537352020185 -0.3518729635654179 0.06267349873067755
0.05651677560407875 -0.35369880330967257 0.06291931322419995
0.06564416688667961 -0.35519175932549835 0.06313911517102579
0.0749068656708831 -0.35652413978378705 0.06341301198750648
0.08417873164668721 -0.35780772383970477 0.06384219576397754
0.09336070630679032 -0.35908130486067164 0.06454587765358721
0.10238064213987397 -0.3603110007904807 0.0656503161716405
0.1111882240720823 -0.36140627194896596 0.06727164009215826
0.1197496777434633 -0.36224345532620145 0.06949754441075492
0.128041528746777 -0.3626940413287068 0.0723709859334121
0.13604847216675625 -0.3626473937481724 0.07588179417544197
0.14376356223254894 -0.3620371939590511 0.07996824871067353
0.1511904293781375 -0.3608562277571103 0.08452768419728215
0.15835125774537953 -0.35916796989860306 0.08943149082352321
0.16528569654965924 -0.35711219982910936 0.09454159373346971
0.17205746717567452 -0.3548993702461027 0.09972739796509456
0.17874445924501547 -0.35278234345440707 0.10488079160163699
0.18542185375974576 -0.35103192491524 0.10993098098890143
0.1921442374578106 -0.34988199225867417 0.11485662046463437
0.19892437276593003 -0.34949353701138824 0.11969018936761848
0.2057289507486835 -0.34993079627305446 0.12451342020109961
0.21248104072948618 -0.3511566797241143 0.12944204696491096
0.21907717771946122 -0.3530442741151687 0.13460390253281065
0.22541160801801488 -0.35541391577189274 0.1401136004770894
0.23139547331073027 -0.3580604732868577 0.14605320990887238
0.23697346209875958 -0.36078501580961636 0.15246388620244705
0.24212387703999153 -0.3634129489401704 0.1593390020289421
0.2468522558991563 -0.36580015353427264 0.16664094899748627
0.2511873380800863 -0.3678250537021213 0.17431039662613304
0.25516078931093766 -0.36937713299451125 0.18227565896651723
0.2588110342596306 -0.3703527122371374 0.19046269482891384
LINES 1 120
119 0 1 2 3 4 5 6 7 8 9 10 11 12 13 14 15 16 17 18 19 20 21 22 23 24 25 26 27 28 29 30 31 32 33 34 35 36 37 38 39 40 41 42 43 44 45 46 47 48 49 50 51 52 53 54 55 56 57 58 59 60 61 62 63 64 65 66 67 68 69 70 71 72 73 74 75 76 77 78 79 80 81 82 83 84 85 86 87 88 89 90 91 92 93 94 95 96 97 98 99 100 101 102 103 104 105 106 107 108 109 110 111 112 113 114 115 116 117 118
POINT_DATA 119
SCALARS isSiphon int
LOOKUP_TABLE default
0
0
0
0
0
0
0
0
0
0
0
0
0
0
0
0
0
0
0
0
0
0
0
0
0
0
0
0
0
0
0
1
1
1
1
1
1
1
1
1
1
1
1
1
1
1
1
1
1
1
1
1
1
1
1
1
1
1
0
0
0
0
0
0
0
0
0
0
0
0
0
0
0
0
0
0
0
0
0
0
0
0
0
0
0
0
0
0
0
0
0
0
0
0
0
0
0
0
0
0
0
0
0
0
0
0
0
0
0
0
0
0
0
0
0
0
0
0
0
