# vtk DataFile Version 2.0
Vessel Segment
ASCII
DATASET POLYDATA
POINTS 119 float
-0.0073285480026586535 -7.499298620575503e-05 0.0029004043130098174
-0.014932586621680602 -0.0017376424892317248 0.006635916104230483
-0.02268371496525689 -0.004730403441518328 0.01079800059511155
-0.03045266137419071 -0.008788644171047775 0.014978411214255798
-0.038110373925442434 -0.013628292159033576 0.01877154915439497
-0.0455288244733945 -0.01893195290441412 0.021784643311732174
-0.05258625339530845 -0.024342995132865537 0.023656640176698676
-0.05917755077623212 -0.029482575636351763 0.024089983140604208
-0.06522735137661295 -0.03399399221655195 0.022887702837066187
-0.0707063540311084 -0.03761163361038523 0.019989240121081397
-0.07564546894901865 -0.040233504351503496 0.015494159891754625
-0.08014191906486601 -0.04196951362578401 0.009661791395831525
-0.08435287569402272 -0.04313986676448013 0.0028850427048940173
-0.08846957173792622 -0.04421130968852627 -0.00436363410464574
-0.09267307869012865 -0.04569059413429083 -0.011600776445598787
-0.09707850002843632 -0.048009762098427035 -0.018402435529732395
-0.10168479366275586 -0.051443715922898016 -0.024460721455783034
-0.10634594574878449 -0.05607963229256473 -0.029616147336248202
-0.1107783636923427 -0.0618364012594357 -0.033862224687794436
-0.11461111155135045 -0.06851472778972305 -0.03732600080925238
-0.11746801538178563 -0.07585593380386184 -0.04023486502252066
-0.11905991409852837 -0.08359235530340597 -0.04287787481475136
-0.11925845309435715 -0.09148121403439502 -0.045567600997804866
-0.11812444256171874 -0.09932126790008906 -0.04860467759568335
-0.11588249679840204 -0.10695518459180203 -0.05223846572253189
-0.11285335451337834 -0.11426398682445643 -0.05662282855860311
-0.1093681669245264 -0.12115841951605297 -0.06176759113613398
-0.1056970804771289 -0.127572618468795 -0.06749522133048444
-0.1020120169513921 -0.13346255736607368 -0.07342245896875581
-0.09839033187948562 -0.13879965903237246 -0.07898263132823297
-0.09484928865245319 -0.14356237225965907 -0.08350133909673448
-0.09139049130213962 -0.14771654868256875 -0.08631657635201818
-0.08803273628556213 -0.15119870921627332 -0.08691342791370933
-0.08482059489121735 -0.15391769555761758 -0.08503089294984795
-0.0818136648297616 -0.1557814517446596 -0.0807118436044733
-0.07906852961926208 -0.15674011297554796 -0.07428211985084468
-0.07663170860806544 -0.1568223967314311 -0.06627326918306554
-0.07454657815305224 -0.15614389594665098 -0.05732045868758804
-0.07286649495622184 -0.15487578492046944 -0.04806363276222037
-0.07166359386034121 -0.15317510819709199 -0.039072511115834534
-0.07102667208487737 -0.1511222328789361 -0.030798335618562777
-0.07104907854689528 -0.14868415023638168 -0.02354506358273707
-0.07180754399515762 -0.1457260585611594 -0.01744834825037074
-0.07333148676482287 -0.1420960048613498 -0.012461325086763944
-0.07556979335973375 -0.13771983120804904 -0.00835766096396389
-0.07837212467844938 -0.13269373873735504 -0.004763926168316092
-0.08149519769914329 -0.12730235192343503 -0.001224977841373167
-0.08464466214556053 -0.12198280327994408 0.0027052122535009284
-0.08753766660479347 -0.11722912186355304 0.0073701544246102734
-0.08996918608497531 -0.11348876413655871 0.012944784224798334
-0.09185259381930315 -0.1110767077773471 0.019414158477808384
-0.09322142143813329 -0.1101304997794295 0.02659685333825321
-0.09418949159677166 -0.11061276070557845 0.03420101081721609
-0.09488854719615587 -0.11235617244116664 0.041886452684326496
-0.09542034736499456 -0.1151355241279057 0.04931883573532905
-0.09584283579336808 -0.11874432039105197 0.056205469387687126
-0.09619194224572784 -0.12305090967676578 0.06231884895731133
-0.09651098861029359 -0.12801247606167898 0.06751755939968493
-0.09685843185973843 -0.1336441229050466 0.07177190376819491
-0.09728688303280661 -0.13995881878010136 0.07518447890040182
-0.09780941798705528 -0.14692619545275987 0.07798445900088194
-0.09837698390499001 -0.1544378279383882 0.08049105045109922
-0.09888378181568862 -0.1623333264533357 0.08304270892084478
-0.09919548124788692 -0.17042855960848236 0.08591638740934643
-0.099190567127473 -0.17856321839555775 0.08925893097994055
-0.09879657236459181 -0.18663669602311997 0.09305358956771204
-0.09800887444230642 -0.19461956284838092 0.09712902782722511
-0.09688829434675979 -0.20255133244209123 0.10120573270949512
-0.09553952112632344 -0.21050927723247273 0.10496725349290793
-0.09407949469595375 -0.2185863911616511 0.10813336983936579
-0.09260316241285758 -0.2268544218056255 0.11052119115235903
-0.09115900651766232 -0.23535137631874417 0.11207879141376338
-0.08973639364635422 -0.2440662474436948 0.1128900999634563
-0.0882670436006431 -0.2529445427169903 0.11315272617195085
-0.08663920594259052 -0.26189412146850255 0.11313923311779574
-0.08471830118948834 -0.2707965649527868 0.11315025161269072
-0.08237065068565184 -0.27951680272148893 0.11346953642882042
-0.07948498715535188 -0.28791501873870096 0.11432772208431365
-0.07598849078886731 -0.2958574425714204 0.11587951738100477
-0.07185370589205714 -0.3032268832747953 0.11819448030992633
-0.06709852920189055 -0.30993066925773005 0.12126334090830448
-0.06177831403881967 -0.31590589000403363 0.12501389432591106
-0.05597335334746933 -0.3211234945106006 0.1293344799979053
-0.04977563961344654 -0.3255826573929231 0.13409695782936717
-0.043276801748348706 -0.32931159643966285 0.13917948975548358
-0.0365589141602308 -0.3323542992457444 0.14447456639950124
-0.029689934718344916 -0.33475881367108634 0.14990208646039554
-0.022720341209786284 -0.33657291278182616 0.15539858768091494
-0.015684429907817213 -0.3378255703972383 0.16091484632064462
-0.008600427508544355 -0.3385272244696554 0.16640056589342597
-0.0014722821956669374 -0.33866125903717204 0.17180216751509755
0.005707312131999499 -0.3381928177709285 0.17704919672551783
0.012953835303235395 -0.3370743667199744 0.18206356430773143
0.02028472993546012 -0.3352701283593985 0.18676607319634897
0.027710419700087023 -0.33276787202290165 0.19109950890944283
0.03522327933949546 -0.3296113035126815 0.19504752905405756
0.04278537159422278 -0.325906452585895 0.1986521831303438
0.05031876697162032 -0.3218366295667194 0.20203384475280511
0.057702773806395755 -0.31763993780488603 0.20538306211957472
0.064780849140748 -0.313582627432119 0.20893779833567666
0.071382693230841 -0.30990794390956944 0.21294824907371318
0.07735738825897655 -0.30678708059362686 0.21762134203660055
0.0826151193436086 -0.3042721065403471 0.22307699876038733
0.08716472588741914 -0.3022822958686579 0.22930593950265205
0.09113558416238358 -0.30062875570667413 0.23617170094015627
0.09477077047987165 -0.29906738337791555 0.24342945630453072
0.09839126412363013 -0.29737573488333074 0.25077998230679605
0.10233685784923366 -0.2954249544521432 0.257925732764192
0.10689476373385788 -0.29320259546379196 0.26462690490295737
0.11225092396123021 -0.29081617671890364 0.27073821556540734
0.1184590953856389 -0.28846124746702584 0.27621531144298866
0.12543998023557154 -0.2863844512222619 0.28111534954868866
0.13300021208595658 -0.2848576695446156 0.2855707569701905
0.14087162136488204 -0.28415444148451985 0.2897648590255184
0.14873856927686777 -0.28453440801076485 0.29390327298944374
0.15626428728189587 -0.2862396800459908 0.29819770071652735
0.16310985371891826 -0.2894930648827064 0.3028614484635332
0.16893527162061428 -0.29450814213029547 0.30809991517803675
0.17339864945121528 -0.301492976694739 0.31412216380992036
LINES 1 120
119 0 1 2 3 4 5 6 7 8 9 10 11 12 13 14 15 16 17 18 19 20 21 22 23 24 25 26 27 28 29 30 31 32 33 34 35 36 37 38 39 40 41 42 43 44 45 46 47 48 49 50 51 52 53 54 55 56 57 58 59 60 61 62 63 64 65 66 67 68 69 70 71 72 73 74 75 76 77 78 79 80 81 82 83 84 85 86 87 88 89 90 91 92 93 94 95 96 97 98 99 100 101 102 103 104 105 106 107 108 109 110 111 112 113 114 115 116 117 118
POINT_DATA 119
SCALARS isSiphon int
LOOKUP_TABLE default
0
0
0
0
0
0
0
0
0
0
0
0
0
0
0
0
0
0
0
0
0
0
0
0
0
0
0
1
1
1
1
1
1
1
1
1
1
1
1
1
1
1
1
1
1
1
1
1
0
0
0
0
0
0
0
0
0
0
0
0
0
0
0
0
0
0
0
0
0
0
0
0
0
0
0
0
0
0
0
0
0
0
0
0
0
0
0
0
0
0
0
0
0
0
0
0
0
0
0
0
0
0
0
0
0
0
0
0
0
0
0
0
0
0
0
0
0
0
0
