# vtk DataFile Version 2.0
Vessel Segment
ASCII
DATASET POLYDATA
POINTS 119 float
-0.0013823681870276784 -0.006890436113091078 0.0040569185944005545
-0.0034657950825018507 -0.01359758081676916 0.008655125794754092
-0.006205783385864554 -0.020107109294009783 0.013746210050755176
-0.009555155746007698 -0.026405412150000567 0.019277386922932103
-0.013459175420468372 -0.032480912607108135 0.02518084950582922
-0.017847690785756383 -0.03832648887447189 0.0313571482962236
-0.022627450300337366 -0.043942262311857896 0.0376518468318688
-0.02767524496959908 -0.049340117712484095 0.04383638547707043
-0.03283501500291347 -0.05454619557073124 0.049599732316339726
-0.037919080638259016 -0.059601805910236595 0.054565518296169756
-0.042713482027872125 -0.0645625675538355 0.05833477853418673
-0.04699318588720105 -0.06949336840208882 0.06055053206649644
-0.050544509846977496 -0.07446043510044846 0.060965238103648504
-0.053192512786694415 -0.07952126968447615 0.059495557562713
-0.05482159072149662 -0.08471281135980818 0.0562426544700569
-0.05538146731242943 -0.09003962348278638 0.05147041832310111
-0.05487427189081485 -0.09546777624360892 0.04555132965247691
-0.053331559705490986 -0.10092554638870256 0.038894669160622355
-0.05079224479066533 -0.1063136977479858 0.03188010369942883
-0.047294322589670576 -0.11152291554031415 0.024811373479291833
-0.04288478336412176 -0.11645489632360871 0.01790046323639693
-0.037641461984206245 -0.12104260104204034 0.011281199474989734
-0.03169537531236398 -0.12526538881613025 0.005044613993148353
-0.025244841955933232 -0.12915782623638009 -0.0007130739946373205
-0.01855562456151565 -0.13280459574418632 -0.005847142234699138
-0.011945210483338582 -0.13632544401875976 -0.010139167812200032
-0.005752651230327218 -0.13984786750751418 -0.01330230557886167
-0.00030067541805072243 -0.14347453030891502 -0.015020482916274204
0.004137536454085469 -0.14725399879947249 -0.015016927694885395
0.007358926198504108 -0.15114962516467648 -0.013134401161862727
0.009234642947643926 -0.15504236596524684 -0.009400875141366326
0.009699105547884564 -0.15873493511404752 -0.004053538192872724
0.008734979235529511 -0.1619785501735234 0.002486423078816275
0.006364355384256061 -0.16451483569451475 0.009678708524740854
0.002648063324440761 -0.1661179898923664 0.01695317960913238
-0.002310146295520892 -0.166632219808036 0.023801298406833985
-0.008361976954513297 -0.16599730841468566 0.029848861086690718
-0.015318925273510857 -0.16426675743236607 0.03490043901316213
-0.022960679334030967 -0.16160945209071295 0.03895293976416892
-0.031046140133227533 -0.1582899819390366 0.042172353016040894
-0.03931956945981561 -0.15463191438722995 0.04485045538853181
-0.047515067058756966 -0.15096520680537434 0.04734716648474714
-0.055359110268250626 -0.14758138853456768 0.05002946711092714
-0.06257725955323579 -0.14468050760784415 0.05321566941208649
-0.06890646283067275 -0.14235800213676303 0.05713171693500516
-0.0741128750894896 -0.14060147019758512 0.061886682739463385
-0.078012794582987 -0.1393268816995229 0.06746708494452128
-0.0804875348859786 -0.13843285233142114 0.07374713771474362
-0.08148451089010551 -0.13785082369766852 0.08051861285386146
-0.08100812397972955 -0.1375864895528894 0.08752932857504885
-0.07910517586052923 -0.1377174593609697 0.09452741626143066
-0.07585799239776524 -0.13836698120124485 0.1013050081885947
-0.07138985136571387 -0.13966024454593878 0.10773282996136303
-0.06588050935485765 -0.1416766846163307 0.11377502552204799
-0.059580943577790375 -0.14444069228463088 0.11947996158252316
-0.052819192306952575 -0.1479128387646666 0.1249453261958338
-0.04598587502555752 -0.1520082553028314 0.13026319037674525
-0.03950346819877025 -0.15662182502827807 0.13546527293343
-0.03378157825594882 -0.1616426509831875 0.14047662093665164
-0.029165744421337136 -0.1669792141017049 0.1451062421047582
-0.025886800779402325 -0.17257026051426763 0.1490650058500342
-0.024021168132000316 -0.17839188910629888 0.1520300031090008
-0.023471985937979563 -0.18445327088688723 0.1537144731783935
-0.023976645058433395 -0.19079771090796976 0.15395036220672
-0.025149575565630813 -0.19747855544685355 0.15273980413905766
-0.0265502473884473 -0.20454976165304942 0.15026833775074655
-0.027763383512001975 -0.2120383596422204 0.14688982490565333
-0.028468628360178973 -0.21993585682261027 0.1430690133805862
-0.028483558736970744 -0.22818021138506708 0.1393214695044419
-0.02776780137981539 -0.23665373305070145 0.1361562553732799
-0.026392710283781626 -0.24519116636681548 0.13401603815994972
-0.02449318219094701 -0.2535917732156942 0.13324129055213982
-0.02221493292579462 -0.26163890213963215 0.1340336377408598
-0.01967160625277868 -0.26913064473465104 0.13645250688595445
-0.016919555029845827 -0.27590253195989306 0.1404160657679726
-0.013953806128326883 -0.28185221751546174 0.14572587868161835
-0.01072015794448851 -0.2869467254312463 0.15209833592717348
-0.007140205401356246 -0.29122021714608726 0.15920462628056253
-0.0031391917422161435 -0.29474554555213006 0.16671261166258136
0.0013274314891702122 -0.297605459808714 0.17432452091276196
0.006254948802104286 -0.29985097782191866 0.18181162271433643
0.011582039472667557 -0.30148474890160126 0.1890237351328501
0.017196591519179568 -0.30245247599599806 0.19589825728716795
0.022955814428516904 -0.30266428464296297 0.20244066516235337
0.028715412261236552 -0.3020293759273454 0.20870516533249608
0.03436205136629629 -0.30050139682416405 0.21476576751286694
0.039838911451966295 -0.2981123872144827 0.22068746261201366
0.04515907908592294 -0.2949894861216881 0.22650982163000502
0.0504045514761397 -0.29133797482702906 0.2322299945516159
0.055707536415591424 -0.28740773940760456 0.23780784289932508
0.06121779997272359 -0.283439709926371 0.2431768584767752
0.06706550851251904 -0.27962654967578515 0.24827093213953838
0.07332692403928226 -0.2760800154467777 0.2530509285328784
0.08000518635210423 -0.2728273790542046 0.25752518825938164
0.08703114795378708 -0.2698303156050964 0.2617606731871503
0.09428527668549662 -0.26702384520476224 0.2658651201608054
0.10163102136258668 -0.2643610450571978 0.26997240471517153
0.10894936502083163 -0.2618455097614995 0.2742099691846675
0.11616343453294613 -0.2595506283773642 0.2786798602523979
0.12324636632031154 -0.2576149031684488 0.2834404363527629
0.13021161281108357 -0.25620929818102817 0.28850481503057945
0.13708808613488427 -0.2555085621468411 0.2938476100848453
0.143890980098796 -0.25565286541637106 0.29940875743369133
0.150591390149071 -0.2567318827763197 0.3051028084983047
0.157092225283638 -0.25878406996745396 0.3108323252445219
0.16321528864917645 -0.2618066467258118 0.3164911235025545
0.16871099426223285 -0.2657734352803842 0.3219686777049195
0.1732888666520199 -0.2706409428890613 0.32716871974264333
0.17665726078420696 -0.27633604704783443 0.33200890460378224
0.178574882249335 -0.2827550670136652 0.33644598650626556
0.17890020466104053 -0.2897435340208694 0.34047876104588953
0.17761857504594714 -0.29709695835030625 0.3441603928293002
0.17485899930106202 -0.3045644428394389 0.34759913220967165
0.17088654892716088 -0.3118569739795932 0.3509620792687431
0.16608681442025686 -0.31866052043712856 0.3544637598398762
0.16093063344647782 -0.32463650308220354 0.35835984610097643
0.15594327542116143 -0.3294321927016265 0.3629331060165266
0.1516745615442706 -0.3326866951872503 0.36847740281233576
0.14868665593590855 -0.33403762345470983 0.37529575100120516
LINES 1 120
119 0 1 2 3 4 5 6 7 8 9 10 11 12 13 14 15 16 17 18 19 20 21 22 23 24 25 26 27 28 29 30 31 32 33 34 35 36 37 38 39 40 41 42 43 44 45 46 47 48 49 50 51 52 53 54 55 56 57 58 59 60 61 62 63 64 65 66 67 68 69 70 71 72 73 74 75 76 77 78 79 80 81 82 83 84 85 86 87 88 89 90 91 92 93 94 95 96 97 98 99 100 101 102 103 104 105 106 107 108 109 110 111 112 113 114 115 116 117 118
POINT_DATA 119
SCALARS isSiphon int
LOOKUP_TABLE default
0
0
0
0
0
0
0
0
0
0
0
0
0
0
1
1
1
1
1
1
1
1
1
1
1
1
1
1
1
1
1
1
1
1
0
0
0
0
0
0
0
0
0
0
0
0
0
0
0
0
0
0
0
0
0
0
0
0
0
0
0
0
0
0
0
0
0
0
0
0
0
0
0
0
0
0
0
0
0
0
0
0
0
0
0
0
0
0
0
0
0
0
0
0
0
0
0
0
0
0
0
0
0
0
0
0
0
0
0
0
0
0
0
0
0
0
0
0
0
