# vtk DataFile Version 2.0
Vessel Segment
ASCII
DATASET POLYDATA
POINTS 119 float
-0.005995913099793958 -0.0026109444514411367 0.0056352302364513
-0.011873775226337287 -0.006565375981771741 0.009410832422232743
-0.01771057549266433 -0.011611680559472344 0.011713021178070037
-0.023580425046488412 -0.017495953929442507 0.012926319669858405
-0.029546211443619023 -0.023959210570700235 0.01342720145464577
-0.035644988073690174 -0.030733080770375454 0.013568192070877838
-0.04186856253795378 -0.03754209079541461 0.013649957480750352
-0.04814326736039254 -0.044109599969929345 0.013884959000231326
-0.05432123888713611 -0.05017361425423723 0.014363760843083842
-0.06019251383343136 -0.05551041867273956 0.015038409227431025
-0.06551972968162172 -0.05996249463573304 0.015731922477832533
-0.07008942686266001 -0.06347004335687738 0.01617165258406384
-0.07376371856344417 -0.06609226301445058 0.016042385598781704
-0.07651811053308358 -0.0680141350624964 0.015047928035771877
-0.07844700709753065 -0.06952536773784211 0.01296481432781022
-0.07972967119690519 -0.07097029469768548 0.00968232864325009
-0.08057027233782092 -0.0726814604187273 0.005219243103855005
-0.08113426234379202 -0.07492119045682195 -0.00028665815904985534
-0.08150024764890117 -0.07784398875812339 -0.006603356020045106
-0.0816482212300968 -0.08149253251200295 -0.013437512128814348
-0.08148424039386176 -0.08582598483627445 -0.020478132458424232
-0.0808830328090172 -0.09075698898313846 -0.02743808575900315
-0.07973255420002143 -0.09618611785367052 -0.03408920117739524
-0.07796462442526417 -0.10202331392153265 -0.040287234334038094
-0.07556616036604777 -0.10819578429857939 -0.04598193953453047
-0.072570718706616 -0.11464906626502243 -0.05120683777093999
-0.0690402929940689 -0.12134360921122002 -0.05605237058421742
-0.06504674316565418 -0.12825007093919558 -0.060629007949261876
-0.060659034321556754 -0.13534090664096143 -0.06502649893831805
-0.05594216040119916 -0.14257958866627848 -0.06928130380680822
-0.05096567951222804 -0.14990866463594738 -0.07335284086293094
-0.04581794905998725 -0.15723822703066576 -0.07711989268234219
-0.040618776193933885 -0.16443533993618706 -0.0803871827313536
-0.035522469057414255 -0.17132491562098273 -0.08291009547757239
-0.030707343363961866 -0.1777015766427422 -0.0844273250123941
-0.026354241906478983 -0.18335069408824822 -0.08469885812702715
-0.022619213220104805 -0.18808328042680755 -0.08354236766634761
-0.0196127147198075 -0.19177653456774754 -0.0808610803687874
-0.017389472375838384 -0.19441355868479127 -0.07666092028402872
-0.01595730712402196 -0.1960935812609452 -0.07104940456903383
-0.015297433684455625 -0.19701990630204455 -0.0642214968489012
-0.015383309479151185 -0.19747417319831986 -0.05644193298235023
-0.016184906277617313 -0.19776029556054764 -0.04801774055715436
-0.017653325021299907 -0.1981741107731168 -0.03926647484965344
-0.01968969609679739 -0.19896657836795442 -0.030488056278793405
-0.022118591695852816 -0.2003348532186266 -0.021939204882521563
-0.024681711058065416 -0.20241007495738475 -0.013816497117496438
-0.027058508532399515 -0.2052588936853856 -0.0062450852583694205
-0.028913121471309554 -0.20888882429136435 0.0007252942448777144
-0.02995472142665388 -0.21323905123713505 0.007117160443615401
-0.029995531436127716 -0.21820265369969663 0.013016613507967657
-0.028988352670514236 -0.22363016281119236 0.018556071187232827
-0.02703227534140015 -0.2293643577038229 0.023886710699265647
-0.024354999220884493 -0.23526876667350974 0.029144009586356
-0.021268722016255168 -0.24126398132077986 0.03441450085864
-0.01811316290620304 -0.24733070380959826 0.03971725930085882
-0.015195610780475011 -0.25351447487955214 0.04500560562993036
-0.012739979998791307 -0.25989247533270154 0.050193545280242495
-0.010852486843984172 -0.2665383732073001 0.05519301676257208
-0.0095062393808747 -0.273484483843373 0.05995183839462211
-0.0085548391231483 -0.2807049735052008 0.06447551483977047
-0.007763080486391256 -0.28810904923653174 0.06882909836836715
-0.0068538767197557585 -0.29556959991216625 0.07311802223060451
-0.005557538289186325 -0.3029362020402692 0.07745704492235607
-0.0036553341294246885 -0.31008048697298995 0.08193611841335423
-0.0010049602158102467 -0.3169060574303531 0.08659503420708183
0.002454022469553543 -0.3233654519968041 0.09141352256927106
0.006710749166932551 -0.32944188897385784 0.09631787332228457
0.011703336472804303 -0.3351396698293655 0.10120304904077322
0.017341897970905948 -0.3404621592860872 0.10596193648745927
0.023524875632272933 -0.34539652804801296 0.11051653477181861
0.030149680196615545 -0.34990629703559323 0.11483826748064886
0.03711756401385897 -0.353933620277192 0.11895514739325914
0.0443382856187858 -0.357412427133755 0.1229422832611388
0.05173513532943032 -0.36028408393448025 0.12689849863485997
0.05924963578387576 -0.3625135543864387 0.1309170073924081
0.06684407435940952 -0.36410785052157874 0.13506074286513922
0.07450103672756356 -0.3651189969147892 0.13934952233289494
0.08221861934658321 -0.36564680062305643 0.14376034430198498
0.0900025967140762 -0.36581864945383075 0.1482392591920547
0.09785828654886916 -0.36577376881178947 0.1527194584853603
0.1057823737855381 -0.3656289858149839 0.15714001634538213
0.11375918649785577 -0.365462680833207 0.16145686752255753
0.12175951019545035 -0.3652905563439395 0.1656602451448163
0.1297443771904531 -0.3650669696989104 0.16976413346663585
0.1376719026050839 -0.36470406120093574 0.17380401555560246
0.14550550600327772 -0.3641000126129424 0.1778294397512523
0.15322199234612416 -0.3631831309357843 0.18189488489290664
0.1608142614278551 -0.36193450802053057 0.18604401704972956
0.16829623540684746 -0.36041155619232235 0.1903160779743044
0.17568426619820823 -0.3587366536407293 0.19473788830074817
0.1830004252848902 -0.35706713369581766 0.199337950766979
0.19025706577190754 -0.35556271848176246 0.20414506196835314
0.19745121595793705 -0.35434248498266346 0.2091790454027535
0.20457562316235153 -0.3534789851502401 0.2144568578039486
0.21162064077891535 -0.3529794469830222 0.21996069434148258
0.2185866430409082 -0.35281311810015 0.22564646187705764
0.22549369631771848 -0.352931274159479 0.231422504377598
0.23237590395535093 -0.35330481683503745 0.23715549333234603
0.2392773850622056 -0.35393675672425895 0.2427039132569659
0.2462227807473131 -0.3548775982984568 0.24793088995161508
0.25320503687926554 -0.3562116654910187 0.2527587514679121
0.26016163139149157 -0.3580381940613272 0.2571782256151324
0.2669735921835351 -0.3604372534151818 0.261271883176575
0.27346572095822114 -0.36344898876313975 0.2651951315181679
0.27943547985469136 -0.3670756762201907 0.26914766669633283
0.2846724609252257 -0.3712841317514013 0.2733255318336759
0.28900272183512543 -0.3760332436921542 0.2778668623566577
0.2923035786183173 -0.38128542217545314 0.2828216974616036
0.29451880716177675 -0.3870126582619794 0.28814246199844473
0.29565636154644676 -0.3931987803684761 0.293695934593189
0.2957756745123704 -0.3998283866309836 0.2992877909219237
0.29497244510692333 -0.40687898232440756 0.3046999978512312
0.29336847373223585 -0.4143111863408281 0.30970697920757534
0.29109666494350867 -0.42207368412908625 0.31409364933143874
0.2882899062618912 -0.43010246280217507 0.3176522959419259
0.2850875444247817 -0.43832560986521557 0.32018474984785084
0.2816216588397283 -0.44666987295158544 0.3214970698903258
0.2780284959564559 -0.45505984826217327 0.32139749332483714
LINES 1 120
119 0 1 2 3 4 5 6 7 8 9 10 11 12 13 14 15 16 17 18 19 20 21 22 23 24 25 26 27 28 29 30 31 32 33 34 35 36 37 38 39 40 41 42 43 44 45 46 47 48 49 50 51 52 53 54 55 56 57 58 59 60 61 62 63 64 65 66 67 68 69 70 71 72 73 74 75 76 77 78 79 80 81 82 83 84 85 86 87 88 89 90 91 92 93 94 95 96 97 98 99 100 101 102 103 104 105 106 107 108 109 110 111 112 113 114 115 116 117 118
POINT_DATA 119
SCALARS isSiphon int
LOOKUP_TABLE default
0
0
0
0
0
0
0
0
0
0
0
1
1
1
1
1
1
1
1
1
1
1
1
1
1
1
1
1
1
1
1
1
1
1
1
1
1
1
1
0
0
0
0
0
0
0
0
0
0
0
0
0
0
0
0
0
0
0
0
0
0
0
0
0
0
0
0
0
0
0
0
0
0
0
0
0
0
0
0
0
0
0
0
0
0
0
0
0
0
0
0
0
0
0
0
0
0
0
0
0
0
0
0
0
0
0
0
0
0
0
0
0
0
0
0
0
0
0
0
