# vtk DataFile Version 2.0
Vessel Segment
ASCII
DATASET POLYDATA
POINTS 119 float
-0.006053978355787598 -0.007555964221441114 -0.0011766625832591233
-0.012187712353147629 -0.014829689226475404 -0.002355875265457825
-0.01832590717250369 -0.021721986300981395 -0.0037222289619957163
-0.02439304157871292 -0.0281381171373937 -0.005457330318033039
-0.030313541987743692 -0.03399560416342874 -0.007733219563403019
-0.03601112877847446 -0.03923919209588593 -0.010700118843142929
-0.041408974435822324 -0.04386020139283075 -0.014469151660466058
-0.04643051851504405 -0.04791245468746381 -0.019094925974750494
-0.051000309910260326 -0.05151817383470663 -0.02456353959820388
-0.05504634736869061 -0.05485815987405922 -0.030791115478778944
-0.058500667927068324 -0.05814296082222639 -0.03763616151867995
-0.061302039665125714 -0.06157543335015195 -0.04492288956474948
-0.06339569785849525 -0.06531337562273308 -0.052467954808210183
-0.06473439265578099 -0.069444268525863 -0.06010461375848112
-0.06527535953386189 -0.07397679766798002 -0.06769958434152978
-0.06497914004048537 -0.0788457601536332 -0.07516189714265965
-0.06380997863543408 -0.08393369472408804 -0.08243779655222797
-0.06174177543620926 -0.08910000656097847 -0.08950174566766977
-0.05877057246517652 -0.09421388600803116 -0.09633645681123139
-0.054931371447696 -0.09918426823190128 -0.10291364098998763
-0.05031449222002579 -0.1039806520360115 -0.10917476521951949
-0.04507975701606695 -0.1086407789098919 -0.11501817899618416
-0.03945867251062191 -0.1132602666363474 -0.12029342522407425
-0.03373910803911362 -0.1179631443805659 -0.12481034183261001
-0.028233471831204223 -0.12285745005384696 -0.1283552251532368
-0.023234130462414692 -0.12798736566461136 -0.13071853364517616
-0.01896613703978338 -0.13329589935518701 -0.13172650675064262
-0.01555725741724233 -0.1386127787158219 -0.131268493390637
-0.013030681840488136 -0.1436801806233791 -0.1293148001752762
-0.011322386836673389 -0.14820073782791923 -0.1259245581369209
-0.010320672628126505 -0.15190249654307106 -0.12123859745012824
-0.00991610215723836 -0.15461594767577813 -0.11546308102963104
-0.010041426749149818 -0.156293759606321 -0.10884429254300092
-0.010695300840247182 -0.15701347327318804 -0.10164289985625341
-0.011940648838681046 -0.1569337824979202 -0.09410801629402642
-0.013877243196862512 -0.15624000348439543 -0.0864530141678468
-0.016597709365179587 -0.15508220652107294 -0.07883934190145263
-0.02013988837463054 -0.1535566269811701 -0.07136851743218764
-0.02444924254911275 -0.15170537734076917 -0.06408722267915384
-0.029360465090271792 -0.1495409816458887 -0.05699805834624816
-0.034604318039078485 -0.1470765658754427 -0.05007910595976161
-0.03984012440147475 -0.1443515665946646 -0.04330484926035137
-0.044702135937191405 -0.14146825246626463 -0.036663241480614873
-0.048855229594405365 -0.1385977225782567 -0.03016410251841774
-0.05204359365934122 -0.13597721316927378 -0.023835036579500833
-0.054127809228011727 -0.13389664438771 -0.01770805716764102
-0.0551026510299103 -0.13265748938967345 -0.011798345192260204
-0.055086961704396815 -0.13252633512749754 -0.00608870361820344
-0.05429610326001063 -0.13368193038915813 -0.0005253956416038089
-0.052999726478832845 -0.1361838235471114 0.004966897261591783
-0.05146964312631563 -0.1399707662290271 0.010453620741226397
-0.04993531923788025 -0.14488045490807078 0.01595312448189989
-0.04854995415802001 -0.15070259106903044 0.021409839472482605
-0.047377711865630084 -0.15722623809477695 0.02669024746348826
-0.046398262845406046 -0.1642766850589676 0.03160632110090102
-0.0455303406680766 -0.17172513804344797 0.035965441775007614
-0.04466364036665133 -0.17947836320105764 0.03962692939450523
-0.04368883200356487 -0.1874589966969348 0.04255306901231932
-0.04252029691154487 -0.19558899643350328 0.044832629222699365
-0.04110743705699536 -0.20377459812047638 0.046673645862226575
-0.039436468059207544 -0.21191323015207025 0.04836914924291675
-0.03752355900105904 -0.21990077126381505 0.05023998238477512
-0.03540317733313925 -0.22765386217763964 0.052572609194561346
-0.033116170027457016 -0.23512657826678776 0.055563379666595004
-0.030698822456461477 -0.24231904031600557 0.05928293720274976
-0.02817338403478311 -0.24928576614893697 0.0636710469939996
-0.02554283091952374 -0.2561148467043401 0.06855499487081718
-0.022787205717176125 -0.2629122886540877 0.07368838050244744
-0.01986595012636593 -0.2697716767685371 0.07880364876332754
-0.01672140414840285 -0.2767461089393436 0.08365940549580088
-0.013284164245524036 -0.2838240540309837 0.08808322362182677
-0.009479777385583626 -0.2909253067946284 0.09199098458025742
-0.005234750603131327 -0.29789727815889794 0.09539119509694287
-0.0004841022545200846 -0.3045422330834623 0.09837267894705429
0.004819312880344851 -0.3106393382110532 0.10108174634167914
0.010694057870408627 -0.3159884265067964 0.10369373247445685
0.017119829826756593 -0.3204424240594683 0.10638625059528525
0.02403264068035583 -0.32393023989500375 0.10931733613732204
0.03132912593592009 -0.32646520447220256 0.11261075320992875
0.038879277290169496 -0.3281300840556726 0.11634380188721079
0.04654677098469756 -0.3290551287331354 0.12054332475705627
0.05421025435084075 -0.3293834734296846 0.12518566290312028
0.06178144312612796 -0.32924984467071333 0.13020115822008305
0.06921527395761738 -0.32876039732263335 0.1354829990636796
0.07651050983266869 -0.32798560776805874 0.14090307329684926
0.08370193418602996 -0.3269687197480752 0.1463277302399593
0.09084799260210676 -0.3257408689380816 0.15163847312257223
0.09801412299309807 -0.3243384770129549 0.15674349350240424
0.10525787155310311 -0.3228204521147579 0.16159306787626285
0.11261572397055572 -0.32128354383097213 0.16618532575258413
0.12009445914672387 -0.3198669167234766 0.17056550295789424
0.12766967448844407 -0.31874066346017904 0.17481573618051816
0.1352863146406034 -0.31808816834983283 0.1790369556937662
0.14286485933004991 -0.3180794819745462 0.18333499981859103
0.15030248993140996 -0.3188560201579808 0.18779719179069854
0.1574868923418151 -0.32050429990986967 0.19248652870435184
0.16429446607270826 -0.323055755336146 0.19742472176320894
0.170597479615843 -0.32648750972010815 0.20260366264606514
0.17626577703844434 -0.3307344000457892 0.20797939657172881
0.18117558006036777 -0.3357054642119947 0.2134901813749428
0.18522088376400858 -0.34129804391935753 0.2190582504031766
0.188323170916625 -0.34741316590476623 0.2246070123097945
0.1904446200040804 -0.3539588821823809 0.23005852993298348
0.19160788044771732 -0.36086775632590795 0.23534170525029266
0.19190455719500812 -0.36809046844790105 0.24038957887129805
0.19149250609761181 -0.37559911836064813 0.2451379482302456
0.19059666074144743 -0.383382687702782 0.24952606255297347
0.18948802375022344 -0.3914332393887198 0.2534982617518132
0.18846068197724833 -0.3997292864158187 0.25700950466908057
0.18779625339124148 -0.40821498053784583 0.2600434836936415
0.18773572877825465 -0.4167808892392424 0.26262403246786753
0.1884460202825093 -0.4252403995539754 0.2648411316201286
0.1900093616105958 -0.4333222097016908 0.266859395336956
0.19241488406304735 -0.4406654709542116 0.2689212196275063
0.19557678902155626 -0.4468307927434604 0.27134314324925013
0.19935359742322373 -0.4513253640151576 0.27449075613795665
0.20357001873347913 -0.45361739163240516 0.2787628629448932
0.20803540534092732 -0.4531634004545292 0.28457269132025365
0.21255725312905988 -0.4494116339589703 0.2923335932139681
LINES 1 120
119 0 1 2 3 4 5 6 7 8 9 10 11 12 13 14 15 16 17 18 19 20 21 22 23 24 25 26 27 28 29 30 31 32 33 34 35 36 37 38 39 40 41 42 43 44 45 46 47 48 49 50 51 52 53 54 55 56 57 58 59 60 61 62 63 64 65 66 67 68 69 70 71 72 73 74 75 76 77 78 79 80 81 82 83 84 85 86 87 88 89 90 91 92 93 94 95 96 97 98 99 100 101 102 103 104 105 106 107 108 109 110 111 112 113 114 115 116 117 118
POINT_DATA 119
SCALARS isSiphon int
LOOKUP_TABLE default
0
0
0
0
0
0
0
0
0
0
0
0
0
0
0
0
0
0
0
0
0
0
1
1
1
1
1
1
1
1
1
1
1
1
1
1
1
1
1
1
1
1
1
1
1
1
0
0
0
0
0
0
0
0
0
0
0
0
0
0
0
0
0
0
0
0
0
0
0
0
0
0
0
0
0
0
0
0
0
0
0
0
0
0
0
0
0
0
0
0
0
0
0
0
0
0
0
0
0
0
0
0
0
0
0
0
0
0
0
0
0
0
0
0
0
0
0
0
0
