# vtk DataFile Version 2.0
Vessel Segment
ASCII
DATASET POLYDATA
POINTS 119 float
0.0004919022878442598 0.007969662717967316 0.008746432715350442
0.0003261984066472993 0.011552282993676588 0.016077483815495956
-0.0005133212993961389 0.011504403208811288 0.022074807186012166
-0.0020419863999390745 0.008578129749741889 0.026823354693960043
-0.004273190034180172 0.0035086632037340595 0.030417392449068624
-0.007215438233562271 -0.0030126100925398054 0.03297020335715095
-0.010865627481293024 -0.01037349365435984 0.034624844917536084
-0.01519977839227789 -0.018074483000882813 0.035559930377289176
-0.02015985445532878 -0.02575116730655521 0.03598637547391102
-0.02564325288109175 -0.033182758565410746 0.036128458613431995
-0.031494590147664606 -0.04028391265056459 0.03619185761312715
-0.03750531969796171 -0.047080040393713066 0.03632310156375477
-0.04342256214852432 -0.05367345763113149 0.036575626024780206
-0.04896538566359207 -0.060205090580551616 0.0368948912120479
-0.05384972081833734 -0.06681743815903993 0.03712805100426449
-0.05781657059248363 -0.07362665935195138 0.03706015379329251
-0.06065769106809594 -0.08070574465912672 0.0364622986981557
-0.06223523565801255 -0.08807950451835388 0.03514339355724162
-0.06249183449020084 -0.0957318119881136 0.03299467224662613
-0.06145136041939599 -0.1036160603570734 0.03001811931184122
-0.05921319153016598 -0.11166774489447516 0.02633784256218129
-0.05594216264959827 -0.11980792526338602 0.022195262721535196
-0.05185689130439051 -0.12794028738702568 0.017928122202127226
-0.047216473724661034 -0.13594029258706913 0.01393801627951747
-0.042304030817949645 -0.14364528321602044 0.010649478353338303
-0.03741038551305841 -0.150851733605832 0.008462939335271254
-0.03281600562444962 -0.157326611463109 0.007706886426774275
-0.028771401388689635 -0.1628332978713809 0.00859394339217533
-0.025478139815337312 -0.16717205884732345 0.01119268871477719
-0.023072532989395718 -0.1702292192113587 0.015424703233577182
-0.02160814893668665 -0.17202679047011463 0.021078550251617034
-0.021044718492633906 -0.17274220552515834 0.02784701795746513
-0.02124751221344996 -0.1727114320119443 0.035370746893306146
-0.02199792011597481 -0.17238426897111309 0.0432793863688864
-0.023013324710438616 -0.17225520373253392 0.0512208876115828
-0.02397976072976272 -0.1727845238464294 0.05888250777936401
-0.024592093664305217 -0.17432324299737567 0.06600546613424461
-0.02459823398171918 -0.17707328773508316 0.07240037418674809
-0.023838855705380694 -0.1810784666306855 0.07796140478830184
-0.02228013673409034 -0.1862447986034852 0.08267964578510816
-0.020026882822508585 -0.19238348435057717 0.0866460883164309
-0.01730955495814533 -0.19925100713262198 0.09003869330835429
-0.014448043245322627 -0.2065954019064596 0.0930945655249215
-0.011795671185476416 -0.2141938123250485 0.09606809512291037
-0.009670847637689363 -0.22187533809866145 0.09918249430048562
-0.008302274595739392 -0.22953315002346245 0.10259152724405095
-0.007795469548345635 -0.23712393484622826 0.10635893675859373
-0.008126704376052223 -0.24465618955991564 0.11045843500761243
-0.00916252003303133 -0.2521687943799362 0.1147944130855562
-0.010693291211475641 -0.2597183861796148 0.11923353554368082
-0.012470539764990863 -0.2673522373753634 0.12363970309977174
-0.014242762870424818 -0.2751019260825062 0.12790421003353578
-0.015781676696571368 -0.2829726272099603 0.13196458016445034
-0.01690091150762399 -0.29094967158631246 0.13581027683727345
-0.01746521923965476 -0.29899604379799327 0.13947478208232897
-0.017393394211687625 -0.30707279053045394 0.14301959004187015
-0.016656334026495214 -0.3151388282089124 0.146514123055894
-0.015269219580206668 -0.3231618968261063 0.15001868180408925
-0.013279383032018697 -0.33112133514992953 0.15357236197235227
-0.010749316264086607 -0.3389926501636701 0.15718731377344236
-0.007738976082323752 -0.34675020992157746 0.1608549820985514
-0.004291045235256976 -0.3543510858267741 0.16454324858756303
-0.0004224051864491801 -0.3617336472880125 0.16821819404006969
0.0038783969711762936 -0.36880564899764695 0.17184396563009552
0.008643618713471492 -0.37546106037479704 0.17539016173388347
0.01391529067024496 -0.3815803228145808 0.178840459978277
0.01972839713830765 -0.3870543261292726 0.1821913903352566
0.026095714071695832 -0.3917951145084697 0.18544834487709053
0.032998510953658716 -0.3957483182240632 0.18863144778409402
0.04038397648605204 -0.39890415419576913 0.191764811616805
0.04817095208574574 -0.401289248843888 0.19487932237339037
0.05626240715484794 -0.40296013610963416 0.19800539877508083
0.06455721428643768 -0.40400127371412076 0.20117301930463782
0.07296266604124514 -0.40450761026715365 0.2044075157352009
0.08140064731028801 -0.4045774137728034 0.2077295992182419
0.08981175250635785 -0.40430028865893336 0.21115052013579486
0.09815493947544353 -0.40374848048482803 0.21467674794329927
0.10640477882401687 -0.4029619271854914 0.2183051016905618
0.1145487355680049 -0.401951984267539 0.2220242220558596
0.12258421746225097 -0.40070433233630365 0.22581208624132906
0.13051573303474717 -0.39919200993217974 0.2296398799670691
0.13835406434422315 -0.39739595149719836 0.23347667516550802
0.1461144008381632 -0.39532268798835435 0.23729181205938757
0.1538147666923536 -0.39301607969075897 0.2410594568805736
0.16147510139942364 -0.3905693891682171 0.24477033177645893
0.1691097982017201 -0.38810615580450153 0.24843686448885532
0.1767227876747102 -0.3857656291560051 0.25209056937799174
0.18430871735552432 -0.3836680620459101 0.2557884161573896
0.1918410525579899 -0.38189871650869406 0.25961003859266824
0.1992824016057197 -0.3804856493689767 0.2636377049350091
0.2065840553705818 -0.37940128223298764 0.26795503772229773
0.2136993509253875 -0.37859505181784214 0.27262270005271483
0.22059372180157427 -0.37801795645203556 0.2776668047349979
0.22724355067311894 -0.37766977362625914 0.2830695192188229
0.2336347034204421 -0.3776111275629167 0.28876913626454337
0.2397554368941908 -0.3779750395583945 0.29466718858092594
0.24557157892697987 -0.37894674827851166 0.30065362255289513
0.25102325292109534 -0.38072843289099106 0.3066169834621178
0.256014663602703 -0.3834994594983067 0.3124704806083622
0.2604286101627471 -0.38737596415963876 0.3181540968979613
0.2641340972522157 -0.3923823139439475 0.32364014342018343
0.26700321358300655 -0.3984382698843028 0.3289177542075452
0.268927899160266 -0.4053667772358144 0.333995590509742
0.2698309132420786 -0.41291177686230585 0.33888504326214325
0.26968984951293135 -0.4207712909365059 0.3435935764187687
0.2685574262262632 -0.4286183068956714 0.3481282592069092
0.2665735495410627 -0.4361405181259067 0.35249512875248484
0.2639857666378815 -0.4430610728974907 0.3567155746328662
0.26112261268885595 -0.4491619325029216 0.3608200817304854
0.25835919649710987 -0.4543071575805522 0.36486585088141527
0.2560534952847904 -0.4584641549396369 0.36892867221478404
0.2544710855141381 -0.4617132006435998 0.37310042525682663
0.253741669337356 -0.46425538104262076 0.37747970070012665
0.2538271361015972 -0.46639891191284333 0.3821696813270295
0.2545312693765296 -0.46854143828115613 0.38726717784117337
0.2555467984408689 -0.4711366196502161 0.3928612729154722
0.256503233051328 -0.47466520048221583 0.39903946779721966
0.25699906593606037 -0.4796202989671646 0.4058828885330264
0.25662531668651356 -0.48649681354339425 0.41347163074151044
LINES 1 120
119 0 1 2 3 4 5 6 7 8 9 10 11 12 13 14 15 16 17 18 19 20 21 22 23 24 25 26 27 28 29 30 31 32 33 34 35 36 37 38 39 40 41 42 43 44 45 46 47 48 49 50 51 52 53 54 55 56 57 58 59 60 61 62 63 64 65 66 67 68 69 70 71 72 73 74 75 76 77 78 79 80 81 82 83 84 85 86 87 88 89 90 91 92 93 94 95 96 97 98 99 100 101 102 103 104 105 106 107 108 109 110 111 112 113 114 115 116 117 118
POINT_DATA 119
SCALARS isSiphon int
LOOKUP_TABLE default
0
0
0
0
0
0
0
0
0
0
0
0
0
0
0
0
0
0
0
0
0
0
0
0
0
1
1
1
1
1
1
1
0
0
0
0
0
0
0
0
0
0
0
0
0
0
0
0
0
0
0
0
0
0
0
0
0
0
0
0
0
0
0
0
0
0
0
0
0
0
0
0
0
0
0
0
0
0
0
0
0
0
0
0
0
0
0
0
0
0
0
0
0
0
0
0
0
0
0
0
0
0
0
0
0
0
0
0
0
0
0
0
0
0
0
0
0
0
0
