# vtk DataFile Version 2.0
Vessel Segment
ASCII
DATASET POLYDATA
POINTS 119 float
-0.0061994455365310805 -0.005264718997790161 -7.280501741281386e-05
-0.012851646617179182 -0.010775347889787408 0.0006385300522876579
-0.019895095380136917 -0.016407403340280083 0.0019134899662187309
-0.0272665795467257 -0.02203678175314608 0.0035299806558928243
-0.03489659417852657 -0.02754242849774293 0.005261947568318073
-0.04270396938804971 -0.03280942174078271 0.006877398376422322
-0.05058973658474538 -0.03773766982470158 0.008139351193111136
-0.05843369668262993 -0.04225191618722101 0.008813203060634751
-0.0660972429164703 -0.046313292655453676 0.008682207267926666
-0.07343422745139759 -0.04993137275882901 0.007570836338650562
-0.08030622815394692 -0.053172226594202676 0.005373307518495493
-0.08660034787687451 -0.056161326879105654 0.0020795790695025945
-0.0922424159463656 -0.05907495290179054 -0.0022132760025577554
-0.0971971236103552 -0.06212112268324775 -0.007315183379138049
-0.10146167425013461 -0.06551086990410855 -0.012977710947258074
-0.10505177951870424 -0.06942367668666784 -0.018946309109918544
-0.10798807278098868 -0.07397576015671989 -0.025019032912788185
-0.1102892320212621 -0.07919967553253174 -0.03108639566759993
-0.11197129652500395 -0.08504271560381611 -0.03714053871843103
-0.113053913911429 -0.09138297779462783 -0.04324958357503252
-0.11356760974825161 -0.09806094443643851 -0.049501907422428854
-0.11356132816415447 -0.10491394387514064 -0.055938363568030766
-0.11310521520374454 -0.11180293819587382 -0.06249355620896644
-0.11228984260945218 -0.11862251027228275 -0.06896114941771644
-0.11121772983545924 -0.1252943351202911 -0.0749988428533398
-0.10999102873284114 -0.13174974095439612 -0.0801714360644509
-0.10869720842955082 -0.13791356673088306 -0.0840186368943875
-0.10739695417799672 -0.1436962743350833 -0.08614059627269893
-0.10611691156926692 -0.14899996316357222 -0.08627526637100055
-0.10484986511037875 -0.1537305368301506 -0.08435382143120661
-0.10355997705939332 -0.1578057305996961 -0.08051649791734149
-0.10219426108988064 -0.16115118815841034 -0.07508109575689749
-0.10069802636539897 -0.16369605187896166 -0.06847952659194927
-0.09903410528136365 -0.16536308737280575 -0.061168565006993365
-0.09720041578931635 -0.16607988857117872 -0.053546443357091855
-0.09524267550959667 -0.16580051190320913 -0.045893831696023187
-0.09325435186660976 -0.16453737287409967 -0.03835472264724439
-0.0913644048506268 -0.16237766690261318 -0.03095501642725954
-0.08971877973335228 -0.15948197550446433 -0.023639082459775657
-0.08845950887860696 -0.15605321684115978 -0.016314683391714463
-0.08770790466642388 -0.1522973262390626 -0.008895899873606597
-0.08755292914011491 -0.14839284081060147 -0.0013301527134386285
-0.08804415222865737 -0.14446825399260196 0.006391248789386685
-0.08918630036195413 -0.14060822950276294 0.014237606975719493
-0.09093626839543295 -0.13688222079815182 0.022152613730315796
-0.09320395545148281 -0.13337477633574024 0.03007058274490541
-0.09586077655775654 -0.13022114055472797 0.03792929106148964
-0.09875511999683723 -0.12761823651752605 0.04567365236014739
-0.10173195144652233 -0.1258113532246583 0.05325226397067706
-0.10465097131383064 -0.12505889707627915 0.060610570112309546
-0.10739531832795188 -0.12558470988498147 0.06768937979298897
-0.10986974414339637 -0.12753515403784824 0.07443006897148521
-0.11199608900420448 -0.1309487177476382 0.08078767230846476
-0.11371103160224415 -0.1357483176010745 0.08674284398655197
-0.11497123686787128 -0.14175621025677115 0.09230561177343434
-0.11576301451772872 -0.1487253940365022 0.09751095381299003
-0.11610808293809181 -0.1563825457555646 0.1024052696206209
-0.11606063705695643 -0.16446335513117896 0.10702966686539325
-0.11569655122011063 -0.1727510911030746 0.1114038675048319
-0.11509762166556273 -0.18109272569668092 0.11551886712875403
-0.11433890072304832 -0.1894045581059364 0.11933841974792953
-0.11347966856913037 -0.19766493519175332 0.12281190082302537
-0.11256166347236847 -0.2058985423070903 0.1258908828959324
-0.11160923740653941 -0.21415533514317533 0.1285463684050191
-0.11063024260780338 -0.22249641633728112 0.1307784672487036
-0.10961622328375814 -0.23097804721717732 0.13261834120423588
-0.10854197213817758 -0.23964572634387823 0.13412284200220914
-0.1073664995737956 -0.24852271478760138 0.1353679742128998
-0.1060375043209413 -0.2576038248140345 0.13644285699044187
-0.10450062709125427 -0.2668503225455997 0.1374466596568281
-0.10271238120539876 -0.27617577556325806 0.1384871532856455
-0.1006578798140984 -0.2854494487336138 0.1396819237435772
-0.09836472312630587 -0.2944904549421747 0.14115425054551373
-0.09591030374263296 -0.30308703993816616 0.14302974877420901
-0.09341699669055366 -0.3110137991717673 0.14542254264739274
-0.09102927455262642 -0.3180623075230926 0.1484202061859007
-0.08887470911842671 -0.3240741129334864 0.15207271409188358
-0.0870154392646152 -0.3289748263460869 0.1563715323527596
-0.0854049355576809 -0.3327948401550262 0.16124958388032362
-0.08386770184174243 -0.33566715446607387 0.16657911215605342
-0.08211876014722153 -0.3378051589048206 0.17218299822193575
-0.07982087468596141 -0.3394485762685998 0.1778580747682121
-0.07665435645042037 -0.34081516687408164 0.18340489890252298
-0.07238751024561116 -0.3420499845242743 0.1886480405986542
-0.06692528657753184 -0.3432019852180968 0.1934663675775308
-0.0603198618186826 -0.3442217060150731 0.19780305575950433
-0.052747767220934494 -0.3449902586583175 0.20166223173192455
-0.04446622772679117 -0.34535396109123706 0.20510064364764088
-0.03576111481589506 -0.34515853706746974 0.2082087113451199
-0.02690013872381612 -0.34428658582176147 0.2110892389664238
-0.018097311902529806 -0.3426791583119727 0.21383826448926913
-0.009495355004343 -0.3403562391913023 0.21654416354128883
-0.0011664325682582668 -0.3374152799420186 0.21927638969663915
0.006877989810488481 -0.3340224665579907 0.2220943764782568
0.014667800496890588 -0.3303889513659091 0.22505329831321122
0.022254832030278345 -0.326750609697052 0.22820641861273874
0.029696087031428935 -0.3233362448281298 0.23161042729875525
0.037042344826136366 -0.320339188633101 0.23532337827061992
0.044333681740808255 -0.31789554602601955 0.23939673390740232
0.051596829441247855 -0.31606531932036347 0.24385895206882596
0.05884163185608639 -0.3148292652022279 0.24871062154600615
0.06606202884297903 -0.31408601078166554 0.2539126324587225
0.07322561085290956 -0.31367699503724333 0.2593933504863612
0.08026024493730897 -0.3134254652949588 0.2650621901107568
0.08705305444685117 -0.31317938808299584 0.2708305836662783
0.09344686424061002 -0.31284080450611124 0.2766383660426042
0.09925416390484643 -0.312397732554483 0.2824691687842041
0.10429280836118496 -0.31192128477900743 0.2883502005917263
0.10842647160349723 -0.31154313803244865 0.2943398241198873
0.11162322751449436 -0.31143723092618714 0.3004926759382377
0.1139734546641341 -0.31178498894643986 0.3068293167659497
0.11570561098607154 -0.31275672045225056 0.3133112790215946
0.11715524482217776 -0.3145026404623629 0.3198309472136283
0.11873124929503603 -0.3171513096584304 0.3262131298867447
0.12087508586123955 -0.32080707324419033 0.33223446410776836
0.12403186352534362 -0.3255617300977999 0.3376480925077933
0.12864273525855743 -0.3314846126445909 0.34219610036880216
0.13513873922431688 -0.3386429732584413 0.34561656523665646
0.14395082543141516 -0.34709883757056276 0.34765016918567987
LINES 1 120
119 0 1 2 3 4 5 6 7 8 9 10 11 12 13 14 15 16 17 18 19 20 21 22 23 24 25 26 27 28 29 30 31 32 33 34 35 36 37 38 39 40 41 42 43 44 45 46 47 48 49 50 51 52 53 54 55 56 57 58 59 60 61 62 63 64 65 66 67 68 69 70 71 72 73 74 75 76 77 78 79 80 81 82 83 84 85 86 87 88 89 90 91 92 93 94 95 96 97 98 99 100 101 102 103 104 105 106 107 108 109 110 111 112 113 114 115 116 117 118
POINT_DATA 119
SCALARS isSiphon int
LOOKUP_TABLE default
0
0
0
0
0
0
0
0
0
0
0
0
1
1
1
1
1
1
1
1
1
1
1
1
1
1
1
1
1
1
1
1
1
1
1
1
1
0
0
0
0
0
0
0
0
0
0
0
0
0
0
0
0
0
0
0
0
0
0
0
0
0
0
0
0
0
0
0
0
0
0
0
0
0
0
0
0
0
0
0
0
0
0
0
0
0
0
0
0
0
0
0
0
0
0
0
0
0
0
0
0
0
0
0
0
0
0
0
0
0
0
0
0
0
0
0
0
0
0
