# vtk DataFile Version 2.0
Vessel Segment
ASCII
DATASET POLYDATA
POINTS 119 float
-0.0038193967780828534 -0.00822030162889229 0.00492435416543215
-0.007884151064708099 -0.015955120950516054 0.008615599399282331
-0.01224182665526659 -0.02323468430511685 0.011136078555629519
-0.016937883820192793 -0.03009097786289654 0.012552576206397121
-0.02200948733603752 -0.03656184365910563 0.012943424588954425
-0.02747701807103428 -0.04269545011121585 0.01240749825509278
-0.03333236751989381 -0.048554218438003366 0.011066996176567112
-0.03952696837941825 -0.05421291463908232 0.00905915290915844
-0.0459636737355762 -0.05975251878107424 0.0065158580749237255
-0.05249299517232388 -0.06524853773751312 0.003538266470278611
-0.05891677234996339 -0.07075807598516834 0.00017797723348900662
-0.06500065486706286 -0.07630986466033408 -0.0035674575531306984
-0.07049256423110298 -0.0818977771062899 -0.0077435959073051275
-0.07514768441127966 -0.0874818106794868 -0.012416961514903195
-0.07875271944735301 -0.09299711468079136 -0.01764814606612721
-0.08114530231022707 -0.0983703790799752 -0.023466287409253855
-0.08222528722704432 -0.10354386540290514 -0.02984913270736353
-0.08195910422653552 -0.1085003205148808 -0.03670822879133544
-0.08037863615005428 -0.11328147456274469 -0.043883563393316255
-0.07758234024628766 -0.11799538779922827 -0.05114614195577013
-0.07373930622516384 -0.122802961844478 -0.05821025168522391
-0.06909447734437908 -0.1278888554637986 -0.06475292729880572
-0.06396732231080146 -0.1334151718251666 -0.07043927085069454
-0.058738454261448164 -0.13947417707230314 -0.07495309238532036
-0.05382267981690376 -0.1460444330040962 -0.07802959997273
-0.04962893274268727 -0.152962785866074 -0.07948630064951562
-0.04651186673564415 -0.15992701218190492 -0.07924587109893712
-0.04472482807535352 -0.16652674620251898 -0.07734435153156166
-0.044384545492228214 -0.17230831819454592 -0.07392058966840821
-0.04545333248008533 -0.17685575837462542 -0.06919124882657075
-0.04774886337704799 -0.17987238102571101 -0.06341441801238769
-0.05097462425716868 -0.18123828628250982 -0.05685419653442371
-0.05477016912902915 -0.18103470728354662 -0.04975122266677091
-0.058768491821014915 -0.1795130516337644 -0.04230419289517211
-0.06264674356049499 -0.17702753709254015 -0.03466420228483672
-0.06616244349034048 -0.17394785703497703 -0.02693904285114564
-0.06916885627130283 -0.1705800214858089 -0.019200174486228804
-0.07161241335725835 -0.16711685789089736 -0.011490388022147335
-0.07351561048136884 -0.16362624216692523 -0.003829159465227656
-0.07495381758416743 -0.16007855467955148 0.0037844856602197927
-0.07603090002617058 -0.1564056948700511 0.0113655221671108
-0.07685958836359696 -0.15255744222329828 0.01893148826964725
-0.07754721197645237 -0.1485494705192394 0.026484424902152526
-0.07818243935473743 -0.14448963573870693 0.03398924697397617
-0.07882404415365106 -0.1405849003337197 0.041357351893017265
-0.07949292497903018 -0.13712350369666712 0.04844501858227471
-0.0801672311411002 -0.13444823565501504 0.05507008065413886
-0.08077987555181548 -0.1329120587216679 0.06104910439601642
-0.08122451234273834 -0.13282152611483014 0.06624402414786362
-0.08137304644200845 -0.13438180189205454 0.07060747853929723
-0.08110429960980334 -0.13764300667915033 0.07420508008327328
-0.0803313116472691 -0.14249691412264925 0.07720330920960196
-0.07901768298851583 -0.1486944877071515 0.07983149468327773
-0.07717985488309614 -0.15589575427623395 0.08232433367114544
-0.07487697885633522 -0.16374043194174592 0.08486540201022771
-0.07220068842367454 -0.17191412711676268 0.08755238805277589
-0.06926612299831349 -0.18018487032650074 0.0903918919863614
-0.06620589576809323 -0.18841710026662498 0.09332160748791245
-0.06316090521226841 -0.19656676195852832 0.09624389915989236
-0.06026424109134103 -0.2046502695909969 0.09905848156782181
-0.057621774429812506 -0.21271436187327877 0.10168940447023224
-0.055291693518314984 -0.22080248399815922 0.10410193838207785
-0.053272121997005734 -0.22893155829845022 0.10631221913545634
-0.05149744030141947 -0.23708166428317248 0.10839035531575153
-0.04984710487940668 -0.24519141332708144 0.11045374252928145
-0.0481616019282386 -0.25317362806068044 0.1126508911233447
-0.046263278130145795 -0.2609269954998295 0.11513261030997039
-0.04397767863624733 -0.26835915384691317 0.11801569141228586
-0.04115148826157884 -0.2753973018828304 0.12134868411840417
-0.03766564108120423 -0.2819954570143778 0.12509330594468895
-0.03344283227294023 -0.2881214532143954 0.12913043620897438
-0.028448964274784546 -0.2937511369386734 0.13328797306761694
-0.022693196775863636 -0.2988507769582498 0.13738439796960017
-0.01622555054065792 -0.3033737194153989 0.14126984849503477
-0.009133888992480042 -0.30726672693706575 0.14485220110097552
-0.0015393287067087986 -0.31047346059938197 0.14812239775158514
0.006411618396906511 -0.31294844389587595 0.15114125239063383
0.014560939174141958 -0.31466213989876296 0.15402560002543866
0.022755721307447133 -0.3156021604437069 0.15692506699376746
0.030866152301597664 -0.3157828373562433 0.15998962523956958
0.03879906878708263 -0.31524163103148173 0.16333427351552962
0.04650410617888185 -0.3140514331174651 0.16703328974181234
0.05397052986260962 -0.3123134359972256 0.17110332740832318
0.06121499320395626 -0.3101519838680516 0.1755232557385272
0.06826616797291996 -0.30770415184348326 0.18024651663465335
0.07515560249318119 -0.305103248441307 0.18522009854367752
0.08190623561606186 -0.3024722470849988 0.19039765949591986
0.08854422473365528 -0.29991110354890693 0.19573718582855867
0.0951043667764498 -0.2974968955228096 0.20119816010325647
0.10163142284206336 -0.29528498768674655 0.20674129730854227
0.10819225836138888 -0.2933098179379541 0.2123173740026523
0.11486325792932431 -0.2915898910161329 0.21787308291583776
0.1217221737554849 -0.2901332074739509 0.22335727070777084
0.1288277487623375 -0.2889445689820156 0.2287275075846927
0.13620426535975402 -0.28804163015269274 0.2339537786407316
0.14382037258598948 -0.28745923715548866 0.23903069196941817
0.15157969568413546 -0.28726180389835015 0.24396598682224835
0.1593191349415728 -0.28754372879885537 0.24878985447708798
0.16681290270848467 -0.2884325444894892 0.25354028916748383
0.1737992865532186 -0.290070829418787 0.2582638494438417
0.1800146059897854 -0.2925817065819728 0.26300508138881384
0.18522616249484525 -0.29603925409801196 0.2678061175599724
0.18927393258015834 -0.3004349932835331 0.2726965283006733
0.19209291588909183 -0.30566913032389076 0.2776949893956319
0.19372432362414718 -0.31155816449655793 0.28280608433799104
0.19430745476689315 -0.31786120875583596 0.28802295324152033
0.19405322809740994 -0.32432369379940473 0.29333353162955067
0.19321168562563362 -0.33070346590176136 0.2987276730678842
0.19202917862140748 -0.33680566437101495 0.3042049862987604
0.19071270329392595 -0.3425010575315249 0.3097718104878981
0.18940582037613646 -0.3477386559301944 0.31542727186598873
0.1882023958851702 -0.3525503848137198 0.32116005165890443
0.18716893498409132 -0.35703472801255864 0.3269397697772717
0.18639253892333987 -0.36134123049864114 0.3327180783045766
0.18601123422101312 -0.3656432995853684 0.33843764897950857
0.18622069386679754 -0.3701257136204663 0.34403943043328766
0.18726485458349085 -0.3749732095755479 0.34946210942081074
0.18940670574487883 -0.3803712793896102 0.3546472235239347
0.19291929537935096 -0.386502464391978 0.3595351628092602
LINES 1 120
119 0 1 2 3 4 5 6 7 8 9 10 11 12 13 14 15 16 17 18 19 20 21 22 23 24 25 26 27 28 29 30 31 32 33 34 35 36 37 38 39 40 41 42 43 44 45 46 47 48 49 50 51 52 53 54 55 56 57 58 59 60 61 62 63 64 65 66 67 68 69 70 71 72 73 74 75 76 77 78 79 80 81 82 83 84 85 86 87 88 89 90 91 92 93 94 95 96 97 98 99 100 101 102 103 104 105 106 107 108 109 110 111 112 113 114 115 116 117 118
POINT_DATA 119
SCALARS isSiphon int
LOOKUP_TABLE default
0
0
0
0
0
0
0
0
0
1
1
1
1
1
1
1
1
1
1
1
1
1
1
1
1
1
1
1
1
1
1
1
1
1
0
0
0
0
0
0
0
0
0
0
0
0
0
0
0
0
0
0
0
0
0
0
0
0
0
0
0
0
0
0
0
0
0
0
0
0
0
0
0
0
0
0
0
0
0
0
0
0
0
0
0
0
0
0
0
0
0
0
0
0
0
0
0
0
0
0
0
0
0
0
0
0
0
0
0
0
0
0
0
0
0
0
0
0
0
