# vtk DataFile Version 2.0
Vessel Segment
ASCII
DATASET POLYDATA
POINTS 119 float
-0.0018758529419916473 -0.005814371452680767 0.0043121526818773554
-0.00468486261529876 -0.011862219522066805 0.008287396032820969
-0.008347846621641198 -0.018113821109134353 0.011983714651814574
-0.012784094851555622 -0.024534410298594544 0.01545836321467237
-0.017906948923734983 -0.03107604082904694 0.018765290658261168
-0.023613490119163107 -0.037665355556144 0.021947908762976788
-0.02976797325457726 -0.044192735019229816 0.025025646595284137
-0.03618768391766114 -0.05050510934365865 0.027975575918704275
-0.04263566645179747 -0.056408529555224414 0.030713627268067593
-0.048827383003627024 -0.06168544705009233 0.03308701426526146
-0.05444812836975433 -0.06613459323777386 0.03488830379394079
-0.059179408674310874 -0.0696282118940865 0.03589303324049496
-0.06273273703941337 -0.07217369525930845 0.0359148992182909
-0.0648914640988517 -0.07395664199989611 0.034862655980453974
-0.0655464137000351 -0.07533335167541762 0.03276696281597024
-0.06472769337123367 -0.0767775440520941 0.02977952927016917
-0.06262790296315632 -0.07879457489502774 0.026144296268777217
-0.05958961992690532 -0.08181827043898325 0.022142111944580354
-0.056058083979633425 -0.08612682264081192 0.01803026811366225
-0.052506228209650764 -0.09179931168699816 0.013995273060925923
-0.049348960543637806 -0.09871557718979312 0.010127671581264545
-0.046862813268749415 -0.10658985826123085 0.006419423720790055
-0.04513478923993136 -0.11502492249222766 0.0027817879899687493
-0.044047939377394346 -0.12357823473298962 -0.00092200663173852
-0.04330868228559639 -0.13182685042483808 -0.004835855209019455
-0.04250994882935372 -0.13942510269289746 -0.009066749423040662
-0.0412149427145138 -0.1461506750913838 -0.013645031022144458
-0.03904592377253063 -0.1519192378674466 -0.01849536877177142
-0.03575807480951204 -0.1567855172780935 -0.02342615789971246
-0.03128275616403315 -0.16090638437066698 -0.028141850313628033
-0.02573994923899335 -0.16448145149094612 -0.03227476517180405
-0.0194156605493512 -0.1677062821667413 -0.03543420202497993
-0.012710701788332177 -0.1707197620843462 -0.03726437560021999
-0.006074297100908178 -0.17358753226614484 -0.03750012123152637
6.208786663350906e-05 -0.17629858766842652 -0.036006890244216036
0.005342598730056347 -0.17877499111762116 -0.03279690292304448
0.009526199939866793 -0.18090629760927215 -0.028014592357121375
0.012501391265802327 -0.1825667952848623 -0.02189886529501373
0.014275755889632452 -0.1836587313877487 -0.014735478643572872
0.014949180431788703 -0.1841407004544033 -0.006811326599246133
0.014681534174962388 -0.18404370489862443 0.0016178025537508076
0.013666308346833278 -0.183473015300421 0.010348041591590536
0.012108010846976028 -0.1825844249770653 0.01923090208440965
0.010201604225991638 -0.1815680093534638 0.028164359490958055
0.00811221129242775 -0.18063299617376763 0.03707638158300454
0.005959201479621311 -0.1799840218968833 0.04590554508712505
0.0038105681737367805 -0.17982768041449815 0.054586687693954535
0.001690393245596025 -0.18035745329087266 0.06304258733071379
-0.0004023805369632526 -0.18174190616954752 0.07118550483428485
-0.002470330800930369 -0.18411648734960617 0.07892653711346857
-0.004498758243917938 -0.18756100840253961 0.08619031576592848
-0.006448859153612537 -0.19208800595990103 0.0929320171234168
-0.008263681342027695 -0.19763347532966183 0.09915125795824488
-0.009880667850113283 -0.204059681298716 0.10489817520928844
-0.01124373747350962 -0.21116470901003714 0.11026973572079188
-0.012310411592719282 -0.218719026923368 0.11539619124757935
-0.013052111917593924 -0.22648571566598438 0.12042093452210542
-0.013449294463450135 -0.23425389594128287 0.12547838883043477
-0.013483784751132604 -0.2418572382813903 0.1306735269783147
-0.013132203915707807 -0.24919661293215642 0.1360650752063893
-0.012363016894578593 -0.2562330082240038 0.1416547796619051
-0.01113768191122455 -0.2629879459777113 0.14738649384977598
-0.009414108598582807 -0.26952234732966296 0.15315038370514497
-0.007149352056782353 -0.27590621489999945 0.158807888543017
-0.004299695066865618 -0.2821904655325123 0.16420879119694679
-0.0008193238385005298 -0.28837463865259483 0.16922966701554618
0.0033388030333687526 -0.2943959732484395 0.17378803898613043
0.008216737587531366 -0.30013742799928533 0.17785718707872494
0.013839910087456997 -0.30545290954305576 0.18146445007924195
0.020203421234507215 -0.3102069025975725 0.18467856772976213
0.02726301631298025 -0.31429741386731586 0.1875931336307665
0.03493393688334842 -0.3176749121786196 0.190313361518797
0.0431003937784248 -0.3203438326286424 0.19293962153939948
0.051629809287810635 -0.32234114428780286 0.1955525596334155
0.06038968065227093 -0.32371657474286875 0.19821235299741466
0.06925931567468184 -0.3245174576049209 0.20095335532810032
0.07813862604234698 -0.3247708000092413 0.2037934878790604
0.08694945165309573 -0.3244733154006703 0.20673319530117454
0.09563410610057921 -0.32360241578723803 0.20976605935560233
0.10415198114749442 -0.3221231931632437 0.21288792257247158
0.11247567839547837 -0.32001441468804886 0.21609674573140053
0.12058807566446228 -0.31729734700988255 0.2193996173385392
0.12848102416240978 -0.3140630531550461 0.22281202275763096
0.1361533790617611 -0.3104766421178428 0.22635468921038907
0.14361155155764851 -0.30678586188456825 0.23005416330151027
0.1508691140886642 -0.30328570915801234 0.23393879511188265
0.157945642661399 -0.3002850854801802 0.2380355163705027
0.16487084169366129 -0.298057138215371 0.24236028487450273
0.1716729627279719 -0.2967866446267803 0.24692450255842754
0.17837940477835917 -0.2965349048010767 0.25172781889665385
0.18500155103082608 -0.2972314092246091 0.25676359209377747
0.1915177959512704 -0.2986876672713362 0.2620229949938393
0.19786310555794467 -0.3006480269849487 0.26749636212510247
0.2039160901891478 -0.30285104462825835 0.27318761311508427
0.20951174208505377 -0.30507812486092806 0.2791020919973773
0.21445697662399413 -0.30719776007995603 0.2852491800880865
0.2185766635341129 -0.3091755790083231 0.2916303943573568
0.22173703143557572 -0.311069340144728 0.29822949405009685
0.22388514017883818 -0.3130255494611579 0.30499783855082074
0.22505430675892826 -0.3152544819063637 0.3118599373027202
0.22535792662141493 -0.3179972717232925 0.3187073717163254
0.22495705718701098 -0.3214760679051166 0.3254184811476056
0.22403895760790374 -0.3258582504054249 0.33186606069650254
0.22277965339140798 -0.33121622932129885 0.33793845265023653
0.22133083423920827 -0.33752147417911577 0.34355099255611904
0.2198086050759624 -0.3446628335287344 0.34866004709382725
0.21829615130069707 -0.3524544650306579 0.3532758950855681
0.21684558881052085 -0.3606815191243998 0.3574649769712194
0.21549133634331555 -0.3691142529158658 0.36135229063927293
0.21424716564108803 -0.3775366759402094 0.36510142581963206
0.21311362499046324 -0.38577154093939947 0.3688969363460482
0.21206944414960746 -0.39369116339146787 0.3729054935030503
0.21107381675780784 -0.4012291704871703 0.3772583851566334
0.21006095655289966 -0.4083847361830961 0.3820270691513891
0.20894395849337555 -0.41521050555290573 0.38722449865440106
0.2076182009305732 -0.421799472509305 0.3928154616220881
0.20597171402028655 -0.4282688079833027 0.3987323951621717
0.20388813525744137 -0.4347505532468333 0.4048924842681459
0.20125031853278216 -0.4413739230766087 0.411210406112877
LINES 1 120
119 0 1 2 3 4 5 6 7 8 9 10 11 12 13 14 15 16 17 18 19 20 21 22 23 24 25 26 27 28 29 30 31 32 33 34 35 36 37 38 39 40 41 42 43 44 45 46 47 48 49 50 51 52 53 54 55 56 57 58 59 60 61 62 63 64 65 66 67 68 69 70 71 72 73 74 75 76 77 78 79 80 81 82 83 84 85 86 87 88 89 90 91 92 93 94 95 96 97 98 99 100 101 102 103 104 105 106 107 108 109 110 111 112 113 114 115 116 117 118
POINT_DATA 119
SCALARS isSiphon int
LOOKUP_TABLE default
0
0
0
0
0
0
0
0
0
0
1
1
1
1
1
1
1
1
1
1
1
1
1
1
1
1
1
1
1
1
1
0
0
0
0
0
0
0
0
0
0
0
0
0
0
0
0
0
0
0
0
0
0
0
0
0
0
0
0
0
0
0
0
0
0
0
0
0
0
0
0
0
0
0
0
0
0
0
0
0
0
0
0
0
0
0
0
0
0
0
0
0
0
0
0
0
0
0
0
0
0
0
0
0
0
0
0
0
0
0
0
0
0
0
0
0
0
0
0
