# vtk DataFile Version 2.0
Vessel Segment
ASCII
DATASET POLYDATA
POINTS 119 float
-0.0040417502956404845 -0.006222303102430383 -0.000216583288984232
-0.008286708046099297 -0.01267798767661967 -0.00026834748130395643
-0.012798185138169748 -0.019320340687957342 -0.00013147962400003499
-0.017636503666941354 -0.026100814770352886 0.0002101883630017821
-0.02285095541603887 -0.03296586944081117 0.0007514889133034946
-0.028463890619171164 -0.03985614036458595 0.0014492320900943447
-0.03444406039375172 -0.046710178782083896 0.0022114175634179506
-0.0406771060800567 -0.05347274375721448 0.002899552547604917
-0.046946701853641755 -0.060105505402292946 0.00334279166868846
-0.05293634089395586 -0.06659245479450115 0.003358667422444232
-0.05826100148638328 -0.0729394749450236 0.0027753918067504016
-0.0625248096860509 -0.07916726032979864 0.0014520719760052828
-0.06539202712533704 -0.08530435180786088 -0.0007046055331090523
-0.06665017832773829 -0.09138175083462755 -0.0037300165845840587
-0.06624812287551142 -0.0974299948377365 -0.0075994785015346695
-0.06429832459363971 -0.1034747841698695 -0.012235112215838896
-0.061046505927556546 -0.10952774946381508 -0.017519175851478698
-0.05682171397364926 -0.11557325048317205 -0.0233066657249468
-0.05197977259191101 -0.12156097916764187 -0.029431971054420938
-0.04685968741112837 -0.12741048982918635 -0.03570300200103297
-0.041757197631537984 -0.13302773213439797 -0.04188825491389241
-0.036916233978097644 -0.1383369757253952 -0.04770495794337721
-0.03253181764363576 -0.14330257451601514 -0.052818884474014796
-0.028757137555029132 -0.1479560609982785 -0.056868795101775525
-0.02571165337660237 -0.15239088629921332 -0.05951503624927073
-0.023483715524430838 -0.15673423391561225 -0.06050477481353672
-0.022131151570319876 -0.16110955055385487 -0.059725984361000364
-0.021681504767722112 -0.1655763683279765 -0.057224916265279244
-0.02213130323466993 -0.17009537484556067 -0.05319616708452491
-0.023449321584176334 -0.17450064846079266 -0.04793594523264626
-0.025582118281493097 -0.17851965585934873 -0.041786818846001696
-0.028461494194520202 -0.18182109438671443 -0.035089705152173474
-0.03201172463685463 -0.18406455472011715 -0.028153046560122588
-0.03614754433567314 -0.18496069594430523 -0.02123509259989186
-0.04075766235827149 -0.18431220121061778 -0.014531355048315464
-0.04567529435411258 -0.1820405110927135 -0.008166007326658573
-0.05065247559068884 -0.1782055026950449 -0.0021877564845094433
-0.05535378013153519 -0.17300854845935826 0.0034258164432615953
-0.059381031615983196 -0.16678501746334343 0.008751612684187069
-0.06232555285243472 -0.15998397146384064 0.01389705224234435
-0.06383644567864544 -0.15312741701266955 0.018974230158650122
-0.06369047193005815 -0.14677688863859792 0.024077824867758432
-0.06184566501263454 -0.14146317398064298 0.02927074882887262
-0.05846640292634378 -0.13764552147755377 0.03457775786212903
-0.05390754630994046 -0.135650193215951 0.039985685535203284
-0.04865771916927058 -0.13564796289496525 0.045445361422577026
-0.04325513781674294 -0.1376341569783981 0.05087171333589322
-0.038194762619204535 -0.14144302747930618 0.056140817352421
-0.03385083068231226 -0.1467797500850669 0.06108861347772352
-0.030435706562581558 -0.15327109653629048 0.065514100043307
-0.02800074204200762 -0.16052498375775864 0.06919168684262597
-0.026472558548877995 -0.16818578762062114 0.07189682015762937
-0.02570737004716016 -0.1759780134265213 0.07344228515591252
-0.025537821624938364 -0.18372742641411885 0.07371745465475682
-0.025797601250091864 -0.1913606889545151 0.07271874835532013
-0.026324228183896386 -0.19888177765823384 0.07055775282048501
-0.02695449039570697 -0.20634637834612055 0.06744941101260214
-0.027525094421139065 -0.2138353421346118 0.06368231580430057
-0.027888248951327455 -0.22142804435249183 0.059585988636156134
-0.02793865681035472 -0.229183469135178 0.05550446546883796
-0.027638277664013507 -0.23713501618580923 0.051776824196645484
-0.027023690979078308 -0.24527547690395876 0.0487210685579166
-0.02618914863981577 -0.2535667402525145 0.046615977810929916
-0.025250042901290008 -0.26193212768388313 0.045679233686228636
-0.0243006834796645 -0.27026669350199045 0.04604751293835355
-0.023379636822192983 -0.27844670671700783 0.04776485662615569
-0.022455206733552415 -0.28633735222645473 0.05078193758611755
-0.021431793720236816 -0.2937987304993777 0.05496898974829342
-0.020176776561715043 -0.3007062173021286 0.060137390528114495
-0.01855425507415188 -0.3069407151930297 0.06606478990807536
-0.016454361594401782 -0.3123959154186548 0.07251825197945432
-0.013808848967981891 -0.31696899937721745 0.0792746825407556
-0.010586785900818862 -0.3205536148453253 0.08613185051010339
-0.0067799233123969575 -0.3230525577979143 0.09291304620629048
-0.0023872659479757348 -0.3243880972036169 0.09946862111324753
0.0025876237199059715 -0.32452846349478454 0.10568012875393705
0.008126854336013003 -0.32351157191483676 0.11146797304131453
0.014186147302150457 -0.3214525970974164 0.1167993361504631
0.020689118541606575 -0.3185440786216704 0.12169189880736288
0.02753415919620609 -0.3150333468663853 0.12620523206834477
0.034609677946368725 -0.31120214365558957 0.13043110069001107
0.04181487285016005 -0.3073337647300624 0.13446852137322582
0.04907618277543068 -0.30368306243278853 0.13840428476666172
0.056356500455683925 -0.30043679003538876 0.14229516485506413
0.06365321852493036 -0.2976840946804927 0.14616121185754075
0.07098641758925842 -0.295398093740367 0.14998426649768368
0.07838337141006903 -0.2934361790232142 0.1537236972078159
0.0858629095991289 -0.2915693873278859 0.15733415256034955
0.09342555217560833 -0.2895396140042577 0.1607899242447325
0.10104728931890841 -0.2871244714869647 0.16410082417813018
0.1086857937436586 -0.2841910419200542 0.16732489039081969
0.11628717064684246 -0.2807351460649226 0.1705593122039315
0.1237924548875972 -0.2768890642512401 0.17392387061731315
0.1311502793390025 -0.27290867076188924 0.1775439415272219
0.13831489002452144 -0.26913396932699646 0.18152568217371548
0.14525357739231837 -0.26593668665615167 0.18594167810860485
0.1519392217967518 -0.2636683460387041 0.19081950443190945
0.15834968902666668 -0.2626103677354555 0.1961352902655862
0.16446757654391636 -0.2629351539020949 0.2018158940419447
0.17027369206846893 -0.2646938753883833 0.20775276421316238
0.17573420386314825 -0.2678273795171055 0.21381446297122578
0.1807895726040827 -0.27218319159086024 0.219873505430306
0.18535215509048583 -0.27755465902267207 0.22581644440319237
0.189299111190285 -0.28371394509162096 0.2315651804862577
0.1924984879915834 -0.29043823475178143 0.2370729754661917
0.19482618648431616 -0.2975271910387792 0.24232889681279413
0.1962013663753403 -0.3048038101545912 0.24736140473523946
0.1966106175181887 -0.31210604439427975 0.2522374152872121
0.19613312576559286 -0.31928396661717595 0.2570611264740603
0.1949289472646368 -0.3261901452375795 0.2619674047034656
0.1932358765406233 -0.3326872769108397 0.26710178230626047
0.1913328515408304 -0.33865856631282854 0.27260202539493505
0.1895089464761182 -0.34401869340859853 0.2785773856249845
0.18804378773942657 -0.3487200651689008 0.2850906494507144
0.18718949737449198 -0.3527655999036213 0.2921551793038337
0.18718415320881737 -0.3561982018783756 0.2997440905190528
0.18825365493999552 -0.3590945060920304 0.3078005412738218
0.1906212514432229 -0.361547309182946 0.316252146195584
0.19451018651144417 -0.36365748906345596 0.3250244241586561
LINES 1 120
119 0 1 2 3 4 5 6 7 8 9 10 11 12 13 14 15 16 17 18 19 20 21 22 23 24 25 26 27 28 29 30 31 32 33 34 35 36 37 38 39 40 41 42 43 44 45 46 47 48 49 50 51 52 53 54 55 56 57 58 59 60 61 62 63 64 65 66 67 68 69 70 71 72 73 74 75 76 77 78 79 80 81 82 83 84 85 86 87 88 89 90 91 92 93 94 95 96 97 98 99 100 101 102 103 104 105 106 107 108 109 110 111 112 113 114 115 116 117 118
POINT_DATA 119
SCALARS isSiphon int
LOOKUP_TABLE default
0
0
0
0
0
0
0
0
0
0
0
0
0
0
0
0
0
0
0
0
0
0
0
0
0
1
1
1
1
1
1
1
1
1
1
1
1
1
1
1
1
1
1
1
0
0
0
0
0
0
0
0
0
0
0
0
0
0
0
0
0
0
0
0
0
0
0
0
0
0
0
0
0
0
0
0
0
0
0
0
0
0
0
0
0
0
0
0
0
0
0
0
0
0
0
0
0
0
0
0
0
0
0
0
0
0
0
0
0
0
0
0
0
0
0
0
0
0
0
