# vtk DataFile Version 2.0
Vessel Segment
ASCII
DATASET POLYDATA
POINTS 119 float
-0.0037076900341330085 -0.005895172457853082 -0.008953324442325071
-0.007492883488417816 -0.011165743360135587 -0.015383696186921786
-0.011332450897744751 -0.015926986818593045 -0.019704672641440244
-0.015203451248420796 -0.020291855900730453 -0.02233393766491305
-0.019082681776735794 -0.02436590631473687 -0.023698034970878735
-0.02294665092030456 -0.02823840891764527 -0.02423703994470353
-0.026769459896379754 -0.031972147099223525 -0.024401615131423707
-0.03052159326094844 -0.03559919672074513 -0.02463915916857117
-0.03417303721290323 -0.03913187047712401 -0.02536261157414724
-0.03769772615248846 -0.042586120749103076 -0.026907596530387722
-0.04107377419877776 -0.04600592965467296 -0.029492096088878213
-0.044273911975775196 -0.04947564039823654 -0.03319776950466615
-0.04725313106819673 -0.053116765106224303 -0.03796965282224452
-0.049939694145939316 -0.05706768730538457 -0.043639693042530014
-0.052242272268637244 -0.0614541732141205 -0.04996817259802805
-0.054067216269428744 -0.06635996490874858 -0.05668999060696035
-0.05533675074109455 -0.07180557925694458 -0.06355606392880907
-0.056000702400417914 -0.07774064244821263 -0.07036267743585073
-0.05603630283623964 -0.08405193661806679 -0.07696579886771816
-0.055440091006317437 -0.09058210046039858 -0.08328107533304345
-0.054214778159387564 -0.09715864081107226 -0.08927391957372785
-0.052361183209084575 -0.10362342475563772 -0.09494862447856511
-0.04987882475594391 -0.10985807318471669 -0.10033730736879214
-0.0467734758774069 -0.11580112642526443 -0.10549613484218756
-0.04307079775961356 -0.12145471629719896 -0.11050252691695553
-0.038825490560277294 -0.12687850318851068 -0.11545217680980592
-0.03412371285802157 -0.13217324606543046 -0.12044964139841292
-0.029077056556722224 -0.13745771704828497 -0.125591385327189
-0.023812774150074455 -0.1428425945092179 -0.13094058012469337
-0.018463792665467705 -0.148409996920965 -0.13649745337078445
-0.013165337149355784 -0.15419551125912512 -0.14217098278370352
-0.008054056366454669 -0.16018363096955585 -0.14776140001767202
-0.003270391029635976 -0.16630881396613464 -0.15296415137089162
0.001041703189888242 -0.17246120988977823 -0.15738371309142565
0.004740886843601124 -0.17849788430429772 -0.16059757562980942
0.007698453184468934 -0.18425377507457488 -0.16221369803040953
0.00981354995073629 -0.1895637051406365 -0.16195321145874
0.01102603651105119 -0.19427575528263955 -0.15970921509151334
0.011324336876998709 -0.19827181648583417 -0.15557153359123874
0.010746988703245215 -0.20148887005310703 -0.14980967231786868
0.009379062582758444 -0.2039269612740458 -0.14282024837022178
0.007348095351152596 -0.20566256432931806 -0.135046789126838
0.004818710039232655 -0.2068454440623679 -0.12690379537758725
0.001983215055227883 -0.20767615663109434 -0.11871346963648467
-0.0009568117998623538 -0.2083805358969301 -0.11067837975485356
-0.0038187511540824573 -0.20916877986199894 -0.10288144982042513
-0.006467098273924744 -0.21020612048059437 -0.0953113992066995
-0.008832076994625827 -0.21158759232148408 -0.08789917173208926
-0.0109097271525118 -0.21333385940844568 -0.08055505599092477
-0.012742638295534306 -0.21540535504012678 -0.07319894713860794
-0.01439321521473404 -0.21774272214681129 -0.06578299326574456
-0.01591838064985694 -0.22030837281692803 -0.058305070997190095
-0.017351949227496687 -0.2231151173898627 -0.05080706066502905
-0.018698212193572494 -0.22622809819169484 -0.04336296992521538
-0.019935016398209146 -0.22975437337295168 -0.036057272610091604
-0.02102428524056892 -0.23379468052081023 -0.028962279132640337
-0.02192230338359255 -0.23841208922430668 -0.02212094322816297
-0.022587851786222895 -0.24361025679230577 -0.015542904224811157
-0.0229851304972303 -0.24933978987494196 -0.009211663204815921
-0.023085157106633454 -0.2555099763524216 -0.003100333511762217
-0.02286630284733301 -0.26201949170164635 0.0028137135001984163
-0.022317318840206435 -0.26877874959704157 0.008540249595712134
-0.021441272351221213 -0.2757227210831696 0.014077353762606248
-0.020260788134596343 -0.2828046979862113 0.019421110158084322
-0.018818208787177382 -0.2899904497438737 0.024578477293512566
-0.017168886318753674 -0.29723768818655644 0.029577335374760257
-0.015367110959553036 -0.30448792847927997 0.03446483372071877
-0.01344462048288367 -0.3116582006994927 0.039299468568813264
-0.011391154399228715 -0.3186475366046982 0.04413379183028633
-0.009143778201278922 -0.32535590293125954 0.04899779455651263
-0.006588759742496207 -0.3316917704757654 0.0538878620439771
-0.00358080348079164 -0.3375977695537671 0.05876540699549717
2.4735451535996408e-05 -0.3430567437736195 0.06356846349843828
0.004336040488450326 -0.34809718090025477 0.06822942538429322
0.009397302821208185 -0.3527802354662317 0.07269436740407895
0.015180953574554477 -0.35718679325154135 0.07693378571243065
0.021597775298542617 -0.3613909755393603 0.08094503367775946
0.028521946077895204 -0.3654441544631137 0.0847449254748288
0.03581959290584056 -0.36936191234929877 0.08835984914238802
0.04337299851553335 -0.3731177277295193 0.09181675006528835
0.05109399484265293 -0.37664401255994695 0.09513961489792727
0.05892452236043958 -0.3798553626346226 0.0983510990994881
0.06682947076698775 -0.3826570663230352 0.10147968795837534
0.07478394705628302 -0.38497256454512896 0.10456632090686017
0.08276284720225659 -0.38675078352575204 0.10766728089648606
0.09073595413655937 -0.3879747966116458 0.11085199721386467
0.09866941632392745 -0.3886632974836271 0.11419309142647609
0.10653236570480801 -0.38886689242162975 0.11775354740706885
0.1143049185302494 -0.3886606616479749 0.12157368271115326
0.12198129569896361 -0.38813602008860976 0.12566448306631178
0.12956795966577545 -0.3874066587983113 0.1300096015182929
0.13707495476468073 -0.3865886198780781 0.1345772689674678
0.14450150453096264 -0.3858032957496306 0.1393373172234415
0.15182864379882477 -0.38516477182790526 0.1442750413887929
0.1590153098672876 -0.3847805152137764 0.14939560274069758
0.16600476957428392 -0.38474844933085434 0.1547169918699584
0.17274153016435695 -0.38515333211828834 0.16025229438795474
0.17918913777871637 -0.38606704336403846 0.16599977922864378
0.18533602502436522 -0.3875469643345667 0.1719247790898788
0.1912056482712966 -0.3896259691803692 0.17797036770132804
0.19684774471393782 -0.39230957436134906 0.1840559587470751
0.20233289631328177 -0.39557438558819297 0.19010117231716134
0.20773330614490057 -0.39936953074994475 0.19602905431206216
0.2131136721639954 -0.40362411634164824 0.20178837205876418
0.2185088199016954 -0.4082588269125927 0.20734594344558951
0.2239215475189655 -0.4132034935669075 0.2126927913400265
0.22931457952064635 -0.4184023898231634 0.21784104615620525
0.23460592723492416 -0.42382270759331514 0.2228101206352065
0.2396788781280876 -0.42945816021408756 0.22762811058871196
0.24439292348738847 -0.4353220015463302 0.2323242328152918
0.24860000027374077 -0.4414392986262925 0.23692577729477748
0.2521694915094591 -0.447840524923202 0.24145183069906484
0.25499512326119844 -0.4545502023165353 0.24592282310549726
0.25701844757235687 -0.46158181510852064 0.2503485444608285
0.25821901862977603 -0.46893220385658624 0.25474379643644557
0.25861377751186576 -0.47659142389187736 0.2591154989836659
0.2582441535624083 -0.4845348999988714 0.26347542196733087
0.25716132626390054 -0.49274191153959246 0.2678310741231999
0.2554201537292399 -0.5011821141624702 0.2721924140936652
LINES 1 120
119 0 1 2 3 4 5 6 7 8 9 10 11 12 13 14 15 16 17 18 19 20 21 22 23 24 25 26 27 28 29 30 31 32 33 34 35 36 37 38 39 40 41 42 43 44 45 46 47 48 49 50 51 52 53 54 55 56 57 58 59 60 61 62 63 64 65 66 67 68 69 70 71 72 73 74 75 76 77 78 79 80 81 82 83 84 85 86 87 88 89 90 91 92 93 94 95 96 97 98 99 100 101 102 103 104 105 106 107 108 109 110 111 112 113 114 115 116 117 118
POINT_DATA 119
SCALARS isSiphon int
LOOKUP_TABLE default
0
0
0
0
0
0
0
0
0
0
0
0
0
0
0
0
0
0
0
1
1
1
1
1
1
1
1
1
1
1
1
1
1
1
1
1
1
1
1
1
1
1
1
1
0
0
0
0
0
0
0
0
0
0
0
0
0
0
0
0
0
0
0
0
0
0
0
0
0
0
0
0
0
0
0
0
0
0
0
0
0
0
0
0
0
0
0
0
0
0
0
0
0
0
0
0
0
0
0
0
0
0
0
0
0
0
0
0
0
0
0
0
0
0
0
0
0
0
0
