# vtk DataFile Version 2.0
Vessel Segment
ASCII
DATASET POLYDATA
POINTS 119 float
-0.004084408617315106 -0.009943793559483981 0.0057149171716648454
-0.00839488600448299 -0.01758797783317065 0.008146238127697889
-0.012812179945707115 -0.023351552848760403 0.007830055877923544
-0.017220213961516875 -0.02765889928436891 0.005300500586811162
-0.0215096033553786 -0.030947578754481897 0.0010861291230056063
-0.025578570775316823 -0.03367036565437792 -0.004297361712573049
-0.029328850165782194 -0.0362845411677078 -0.01036055624296474
-0.032657548664648164 -0.03922188386849674 -0.016660800145000716
-0.035451896651259474 -0.04284376656368239 -0.02282769109511217
-0.03759665044808167 -0.04739173200244141 -0.028591838762546375
-0.03899508943398962 -0.052949127037320444 -0.033806924009318444
-0.03959582212299508 -0.05942783090417001 -0.03845572600525247
-0.03941190685515094 -0.06658018404345827 -0.04263893799870154
-0.03852330817036581 -0.07403739838251341 -0.046549571848175285
-0.037056605282402635 -0.08136628229020443 -0.05043305866358083
-0.03514699804825153 -0.08813767158101729 -0.054543136430059064
-0.03289357351604073 -0.09399020231403976 -0.059101197837801725
-0.030325054724187554 -0.09868583142528474 -0.06426416044159196
-0.027392260705705197 -0.10214505397600489 -0.07010260212042893
-0.023996148245124384 -0.10445531086971656 -0.07659146349164904
-0.02004129638327899 -0.10585049278473542 -0.08361010670789724
-0.015497016435860933 -0.1066616845852386 -0.09094628726453531
-0.01044690050054313 -0.10724992129546282 -0.09830163580141876
-0.005107066962199748 -0.10793907991731742 -0.10530082027475805
0.00018669019074323129 -0.10896788313275342 -0.11151274096250349
0.005019753299214108 -0.11047020618055675 -0.1164878305379867
0.00896008578334818 -0.11248285142097525 -0.11981519407318203
0.011628210976968084 -0.11496659785608884 -0.12119261828721913
0.012760443709583803 -0.11782201702265624 -0.1204904050661017
0.01224602351322361 -0.12089726624538226 -0.11777968326733118
0.010142143528925666 -0.12398327391324071 -0.1133223253361421
0.0066712544426690374 -0.126808376648767 -0.10752877412401922
0.002182421569849083 -0.12904943515101178 -0.10087704802849529
-0.0029065815400778796 -0.1303675822603826 -0.09382266483661843
-0.008172736900633323 -0.1304631338868461 -0.08672666441106608
-0.01324319315817876 -0.12913948437354258 -0.07981491938228429
-0.017833245254786877 -0.1263583486219294 -0.07317221198298729
-0.021762196801680404 -0.12227074750619434 -0.06676188863861647
-0.02494641837663532 -0.11721055567713881 -0.06046607043735376
-0.027374799442540253 -0.11165113641541757 -0.05413348986089973
-0.029079137780327533 -0.10614054895622042 -0.04762364274951319
-0.030105983025412918 -0.10122504898189691 -0.040841842096104294
-0.03050084780741466 -0.09737740699933485 -0.03375755751805446
-0.03030460606384908 -0.09494362886994838 -0.02640456203738589
-0.02956347105486758 -0.09411378049209604 -0.018868459134712117
-0.028345740075785632 -0.09491947788367684 -0.011266464619992346
-0.026754429991778593 -0.09725633139679091 -0.0037288639399718554
-0.02492784274832341 -0.10092829816419008 0.003613356005008592
-0.02302441018010394 -0.10569891087272787 0.010632383092407875
-0.021198422930913438 -0.11133868169806023 0.01720628938179322
-0.019575940041299183 -0.11765551767891083 0.023226613960887058
-0.018238732885882954 -0.12450348280352684 0.02861429048580087
-0.017219604422803975 -0.1317735854790822 0.03333798981983403
-0.016502882090511362 -0.13937680867127705 0.03743265194445739
-0.016029812631102505 -0.14722766223696732 0.04100573687681473
-0.015707201806682537 -0.1552320369638697 0.044228820427916135
-0.015418607851186341 -0.16329086891836964 0.047313992079065684
-0.015037955464577037 -0.17129915587312738 0.050477650389672786
-0.014442916163368522 -0.17916978405878548 0.05390240464377877
-0.01352902278298386 -0.18683456492736558 0.05770617906942118
-0.012218202091088997 -0.1942576722690998 0.061929254433830336
-0.010465910392327086 -0.20143236411963703 0.06654003304549358
-0.008263886153390292 -0.20838045132135846 0.07145660214755643
-0.00564042742652567 -0.21513421822418252 0.07657663185858529
-0.0026575636954414756 -0.22173498571933906 0.0818033614114459
0.000595662883738249 -0.2282210553631626 0.08706330278607267
0.004015370556283713 -0.23463152539882962 0.09231180743134386
0.0074998033764903105 -0.24099508898430227 0.09752878891900692
0.01096795736604677 -0.24733336054801844 0.1027084690876089
0.01437746452715285 -0.2536569835901222 0.1078488049636369
0.017736673002474942 -0.25996010520664964 0.11294555142838288
0.021107248154505202 -0.26621805313035846 0.117988489623309
0.024593885630403056 -0.27239740853020544 0.12296170501552632
0.0283235924383884 -0.27845662851687053 0.12784481889718036
0.032418583884597466 -0.2843620816598388 0.13261584955387337
0.03697145899459269 -0.29009241855183987 0.1372549078522795
0.042030236345330506 -0.29563752839863 0.14174840052610932
0.04759479346946225 -0.300984387871173 0.1460990061641343
0.05362396104222767 -0.3061039739522418 0.1503234863657175
0.0600500012432052 -0.31093155112768284 0.15445351399849183
0.06679374463410316 -0.315362817733506 0.15853546043272837
0.07377728202870594 -0.31925840105050984 0.1626166964209728
0.08093216855077758 -0.3224591676001251 0.1667358050598627
0.08820249184462761 -0.32481257153978565 0.17091291504935818
0.09554480346177308 -0.32620162130492036 0.1751483183972916
0.10292565952061083 -0.32656909148505553 0.1794236745543452
0.11032000989683775 -0.32593898269032484 0.1837108293134552
0.117709669941215 -0.32441109031141446 0.18797856717359596
0.12508311611952985 -0.32215308057576136 0.19220255827039584
0.1324347185118969 -0.3193825717432239 0.1963752759929744
0.13976441811665555 -0.3163298678402559 0.20049714597877114
0.14707511571675025 -0.31321379160416074 0.20458955594392608
0.15436818820449236 -0.31021133871497436 0.20868076226205604
0.16164452705802643 -0.3074406805205041 0.21281335774828505
0.16889379134680513 -0.30496503974298406 0.21704113830514957
0.17609565613705763 -0.3027917855143018 0.2214176227327099
0.1832226269258514 -0.30090532331691294 0.2259991610726599
0.19024149642650845 -0.2992965932625922 0.23082811361196623
0.19711762641627986 -0.29799725348613315 0.23592833416867628
0.20381387707347354 -0.2970967592513714 0.24130122796569214
0.2102804320500249 -0.29673561101597895 0.24692537411734383
0.2164427840891221 -0.2970826531804701 0.25276762265985764
0.22218724031903364 -0.29829227789817514 0.25878823951476804
0.22736488872699095 -0.3004646339141772 0.2649471811665328
0.23179733724210774 -0.30362308258157333 0.27120636642261187
0.2353026714166286 -0.30771036052135264 0.2775207888766111
0.23772244690440356 -0.31259812068237947 0.2838341333434092
0.23894161248765225 -0.31811589809493185 0.2900757175685737
0.23891232270548068 -0.3240839186524068 0.2961674931086409
0.23766175552288968 -0.3303382003268841 0.30203733605041877
0.23529834969302593 -0.33674196667898426 0.30763174156606826
0.23200438165009124 -0.3431997454419264 0.31293456334579395
0.2280270470776092 -0.3496466269973661 0.3179698648213068
0.22365806552389447 -0.35604206912357883 0.32280615969120235
0.21921709516864313 -0.36235649689501626 0.3275470674047489
0.21504236063396973 -0.3685626438192558 0.3323196378784227
0.21147699602290712 -0.374641011119838 0.3372734140447447
0.2088694540112587 -0.380561602836233 0.34256041849808033
0.20756873275334511 -0.3862990404608014 0.34833929777698447
LINES 1 120
119 0 1 2 3 4 5 6 7 8 9 10 11 12 13 14 15 16 17 18 19 20 21 22 23 24 25 26 27 28 29 30 31 32 33 34 35 36 37 38 39 40 41 42 43 44 45 46 47 48 49 50 51 52 53 54 55 56 57 58 59 60 61 62 63 64 65 66 67 68 69 70 71 72 73 74 75 76 77 78 79 80 81 82 83 84 85 86 87 88 89 90 91 92 93 94 95 96 97 98 99 100 101 102 103 104 105 106 107 108 109 110 111 112 113 114 115 116 117 118
POINT_DATA 119
SCALARS isSiphon int
LOOKUP_TABLE default
0
0
0
0
0
0
0
0
0
0
0
0
0
0
0
0
0
0
0
0
0
0
0
1
1
1
1
1
1
1
1
1
1
1
1
1
1
1
1
1
1
1
1
1
1
1
0
0
0
0
0
0
0
0
0
0
0
0
0
0
0
0
0
0
0
0
0
0
0
0
0
0
0
0
0
0
0
0
0
0
0
0
0
0
0
0
0
0
0
0
0
0
0
0
0
0
0
0
0
0
0
0
0
0
0
0
0
0
0
0
0
0
0
0
0
0
0
0
0
