# vtk DataFile Version 2.0
Vessel Segment
ASCII
DATASET POLYDATA
POINTS 119 float
-0.00643956391964738 -0.0026624012908057684 0.003160570529047722
-0.012611117034707128 -0.006489338493902654 0.0062603700975637925
-0.01854145731933475 -0.011323380451367205 0.009403072853644657
-0.024255698525211526 -0.017004475254526353 0.012684481389231516
-0.02977284781811913 -0.023364790578090277 0.01617445104479407
-0.0350993138841845 -0.03022044048703162 0.019887095905672975
-0.0402230530847742 -0.03735911276340249 0.02374319031825758
-0.04511240172717321 -0.04452920368764686 0.027542127600643968
-0.049723576833458516 -0.05143301605071042 0.030958113805229236
-0.05401473722938554 -0.057737702642623887 0.03357758996837023
-0.057957521660408934 -0.06311569457245916 0.034971085362973144
-0.061542474326537075 -0.06731580012138921 0.03478865507132213
-0.06477624472465106 -0.07024875068391286 0.03284940258122812
-0.06767709163575159 -0.07205369451233536 0.029198597656374396
-0.07027443083707896 -0.07310372341434844 0.024102777721046457
-0.07261226413823268 -0.0739391352604245 0.017989918736647282
-0.07475228835108823 -0.07514197863261457 0.011347253424716763
-0.07676961829369001 -0.07719502913689232 0.004609925658757985
-0.07874266346987592 -0.08037705236593083 -0.0019238417694898394
-0.08073758639114337 -0.08472803060091187 -0.00812556078214288
-0.08279038738786239 -0.09008220876029392 -0.014014378713729726
-0.08488663163894387 -0.09614844917175822 -0.01969665211613514
-0.08694252000436586 -0.10259712968614972 -0.025299413306698357
-0.08879199670594336 -0.10912479198740724 -0.03092381386981321
-0.09019223281726309 -0.11548589559974767 -0.036628038723045736
-0.09085395398623405 -0.12149856966635116 -0.04243288517701397
-0.09049267326199077 -0.12704166589123841 -0.04833482696840706
-0.08888672324201949 -0.1320534107344361 -0.0543166823539571
-0.08592369100896301 -0.13653029885280282 -0.0603485652760668
-0.08162146727573238 -0.14053591062814072 -0.06637774802943419
-0.07612190245958285 -0.14418571100814406 -0.07231050995980948
-0.06966293071220857 -0.14763520473650388 -0.07799198397945033
-0.06254100259717055 -0.15104898882306467 -0.08319093459508974
-0.05507687836934488 -0.1545678944246003 -0.08760036715942511
-0.04758762829280869 -0.15828173763557232 -0.09086140850785693
-0.04036939771853838 -0.16221506595731014 -0.0926107063372488
-0.03368203219204372 -0.16632002177103292 -0.09254520316378298
-0.02773558663805589 -0.17047913462389364 -0.0904884902779496
-0.022674988711094655 -0.1745207731489712 -0.08644019564359913
-0.0185709549594507 -0.17822349560881823 -0.08059284447017302
-0.015424047162728613 -0.18132952898358282 -0.07330995899842696
-0.013184626263978578 -0.18357109892226325 -0.06507313092347292
-0.01178276436139423 -0.18469176787745928 -0.05641015896232346
-0.01115379660519594 -0.18449588158751778 -0.04781966924706075
-0.011243645163491734 -0.18288332046356778 -0.039705130509126996
-0.01199191622031808 -0.17987726147294847 -0.03232611116697068
-0.013305552522955018 -0.175641651452992 -0.02577217343758287
-0.015045149267164477 -0.17047178275848915 -0.019963416768481904
-0.017039744267810273 -0.16476514834240283 -0.014678948694692216
-0.019127229513189254 -0.1589799794147663 -0.009609883956921389
-0.02120006979535861 -0.15357861750388505 -0.004427398465879286
-0.023227056288342436 -0.14896879366053117 0.001147470448717932
-0.025239195107029298 -0.1454564357156957 0.007292154994204841
-0.02728423830943994 -0.143217362823043 0.014058876015119914
-0.029378942871212968 -0.14231548856015064 0.02137806079342935
-0.03148299558971841 -0.14273099428588645 0.029081286344705328
-0.03351258191150293 -0.14440649250840254 0.03692743286622188
-0.03537824856194379 -0.1472710931723936 0.04462832036810804
-0.037023993841416795 -0.15125687550746972 0.05187571321848884
-0.0384414602586914 -0.15629353619189545 0.05837392282637779
-0.03965752540618582 -0.16229604048172327 0.06387895340822225
-0.04070866784337593 -0.16916178873946006 0.0682397028929283
-0.041621026338724935 -0.17675395834173208 0.07143019916317413
-0.04240500779206415 -0.18491216722086826 0.07356584471359962
-0.04306194019638903 -0.19345875926441738 0.07489138344957331
-0.04359435993523841 -0.20221523771838645 0.07574497357474338
-0.0440130244715716 -0.21102156113457446 0.07650264528941705
-0.044333950818240916 -0.21974961919595806 0.07751392432727403
-0.04457089456974862 -0.22831759754225495 0.07904321864817805
-0.04472134904480161 -0.2366903949976579 0.08123021116477394
-0.044756618122708126 -0.24487962549412637 0.08407596148109665
-0.04461740250154984 -0.2529268238340642 0.08745576941847244
-0.04421603784212661 -0.2608891878443884 0.09115763671915018
-0.04344592033989006 -0.2688185846414065 0.09492976503670202
-0.04219501837749402 -0.2767459384874477 0.09853082390440573
-0.040359305471896714 -0.2846690382393121 0.10176947103418654
-0.0378546011839052 -0.2925465052734149 0.10452901520069546
-0.03462533602722976 -0.3003050291958678 0.10677421714265434
-0.030649258735816563 -0.30785008000596886 0.10854544264010538
-0.025938459963807597 -0.31507940871131107 0.1099408524455438
-0.020538064411529774 -0.32189623225048575 0.11109665066383255
-0.01452069002041407 -0.32822356850599804 0.1121653324397301
-0.007979239850540377 -0.33400912009844486 0.11329547103788275
-0.0010170426417713356 -0.33922710137458223 0.11461666121156645
0.0062614114533256545 -0.3438760438172938 0.11622855383880751
0.013759977135965851 -0.34797140635416307 0.11819659354370135
0.02139724904191939 -0.3515452046084555 0.12055120920292672
0.029111112097135926 -0.3546301111285319 0.12329374201261464
0.036858169283597766 -0.35726304382588037 0.12640342733806403
0.044611655185274574 -0.359476067790156 0.12984817595597656
0.05235503680097982 -0.36129656171396773 0.13359061677074185
0.06007474270700391 -0.362739674063956 0.13759924285169234
0.06775157517073994 -0.3638089374413263 0.1418511305327845
0.07535352894480772 -0.36449137977563173 0.1463383418313691
0.0828314344618549 -0.36475443779204314 0.15106079971138517
0.09011773373741669 -0.3645495847115367 0.15602901979900438
0.09713329914395634 -0.3638175923418292 0.1612545815526951
0.10379839437202273 -0.36249831962299867 0.16674551147176014
0.11005057339430738 -0.3605480092536469 0.1724936528780752
0.11586379585082868 -0.35796110899423 0.17846813233702413
0.12126571273692428 -0.3547903713022486 0.18460850189846137
0.12634701682403054 -0.3511560430704323 0.19083267296234319
0.13125748800807832 -0.34725202631193974 0.19703092871297517
0.13618738027485086 -0.343326966192272 0.20309266167998546
0.1413353513459961 -0.3396503758867721 0.20891992639612195
0.14686219718531582 -0.33647367648028875 0.21445326563345868
0.15286338557074083 -0.33398088664035924 0.2196849470045357
0.15933896976629508 -0.3322580583268051 0.22467201383234559
0.16619298475744804 -0.33128553930348176 0.22952934992363572
0.17325133433795478 -0.330954752994064 0.2344100345138035
0.1802931543221749 -0.33110828023902783 0.23947823575418
0.18707865014207078 -0.3315893190304523 0.24488410590886245
0.19337627451023714 -0.3322832927564949 0.2507397123993842
0.1989752584901208 -0.3331316703579293 0.2571152567211401
0.20368432085079705 -0.33412408344452704 0.26404419242648663
0.207328043098367 -0.335275925312198 0.2715297601027778
0.2097360920850483 -0.33661417946703787 0.27956403829295823
0.21074390025835216 -0.338159366511082 0.2881293611863777
0.2101866316532954 -0.3399336548624653 0.29721040611352956
LINES 1 120
119 0 1 2 3 4 5 6 7 8 9 10 11 12 13 14 15 16 17 18 19 20 21 22 23 24 25 26 27 28 29 30 31 32 33 34 35 36 37 38 39 40 41 42 43 44 45 46 47 48 49 50 51 52 53 54 55 56 57 58 59 60 61 62 63 64 65 66 67 68 69 70 71 72 73 74 75 76 77 78 79 80 81 82 83 84 85 86 87 88 89 90 91 92 93 94 95 96 97 98 99 100 101 102 103 104 105 106 107 108 109 110 111 112 113 114 115 116 117 118
POINT_DATA 119
SCALARS isSiphon int
LOOKUP_TABLE default
0
0
0
0
1
1
1
1
1
1
1
1
1
1
1
1
1
1
1
1
1
1
1
1
1
1
1
0
0
0
0
0
0
0
0
0
0
0
0
0
0
0
0
0
0
0
0
0
0
0
0
0
0
0
0
0
0
0
0
0
0
0
0
0
0
0
0
0
0
0
0
0
0
0
0
0
0
0
0
0
0
0
0
0
0
0
0
0
0
0
0
0
0
0
0
0
0
0
0
0
0
0
0
0
0
0
0
0
0
0
0
0
0
0
0
0
0
0
0
