# vtk DataFile Version 2.0
Vessel Segment
ASCII
DATASET POLYDATA
POINTS 119 float
-0.00496361322218677 -0.006482918498030984 -0.004956023500100565
-0.010765095996286568 -0.012671926960651588 -0.007354602781774831
-0.01722086251572185 -0.018555697739042913 -0.007735744341616101
-0.024148202858076912 -0.024121700820791014 -0.00664043336396213
-0.03136937404792348 -0.029354912067809113 -0.0046097050452526735
-0.03871802997629066 -0.0342350382268311 -0.002179057217669681
-0.04605017477972075 -0.03873565945287344 0.00013479982706118826
-0.05325546486723947 -0.042827613973469916 0.0018560830523857755
-0.060267799005170104 -0.046486842990958996 0.0025807420454516407
-0.06707097652057453 -0.049706560955998125 0.002012536460613715
-0.0736949722741571 -0.0525088117194252 -4.105686197569715e-06
-0.08020102714166245 -0.05495250788142877 -0.00346706334851734
-0.08665179360001887 -0.057133559271475766 -0.008224038866603856
-0.0930734834936614 -0.0591771226796115 -0.014005018630166415
-0.09941550440351736 -0.061225642612618286 -0.020472194405570885
-0.10552184548539197 -0.0634254608201436 -0.02727384961716125
-0.11112752864905444 -0.06591324232613652 -0.03409064491130007
-0.11588537903162886 -0.06880351258840657 -0.040665376386625006
-0.11942303078376332 -0.07217908449840801 -0.04681896302621068
-0.12141491607578646 -0.07608253723719835 -0.052457968086344064
-0.12165104305483841 -0.08051284909789085 -0.0575767581506079
-0.12008745833056747 -0.08542773869405898 -0.062256346077065504
-0.11686511135569971 -0.09075115199906872 -0.06665258899280667
-0.1122938187104492 -0.09638996808840339 -0.0709669201686241
-0.10680992609276693 -0.10225210558865923 -0.07539930392158473
-0.10091681363140668 -0.10826370846481624 -0.08008942218215954
-0.09512236136962185 -0.114377505182901 -0.0850614087745842
-0.0898814540205 -0.12057089474853189 -0.0901853338201045
-0.08554928123080881 -0.12683019477315907 -0.0951692617087906
-0.08234856222427572 -0.13313120796544087 -0.09958914165468144
-0.08035281916181579 -0.13941341125436357 -0.10295404521383009
-0.0794885906836073 -0.14556547484020602 -0.10479435241740787
-0.07956104200189126 -0.15142804870657744 -0.10475215305074487
-0.08029553012440602 -0.15681041600901133 -0.10265590694340324
-0.08139518086483405 -0.1615297383093224 -0.0985617340220863
-0.08260210186037181 -0.1654472639964999 -0.09275015103662394
-0.08375249953492028 -0.1684897827709949 -0.08568158620571298
-0.08481345909865057 -0.1706582601304101 -0.07792252327104823
-0.08589228837072901 -0.17200014390556817 -0.07005601261566335
-0.08721511368055809 -0.17258081827848573 -0.06259475004549203
-0.08907183654779989 -0.17244863820379933 -0.05591331065728411
-0.09173298298457584 -0.17162218895970108 -0.05020552194262078
-0.0953609626392756 -0.17009471407360358 -0.0454706668647749
-0.09994683061206457 -0.16784555130301004 -0.04153736903346693
-0.10529125997441507 -0.16486186143246792 -0.03811082572457059
-0.1110331849948698 -0.1611551305025107 -0.03483454878259122
-0.11671534053427222 -0.15677914952334382 -0.03135410757690138
-0.12186490193381687 -0.15184155036341937 -0.027370131519587993
-0.12606483069961893 -0.1465093276738123 -0.022671237646174
-0.12900556420690937 -0.14100982097380543 -0.01714474158130791
-0.13051032996045214 -0.13562171538379245 -0.010775221041868403
-0.13053619060920224 -0.13064827404517174 -0.0036336916751281327
-0.1291670151195123 -0.12639639486003648 0.004133159686415108
-0.12658328485047657 -0.12314046448624265 0.01231110414972276
-0.12302740815302038 -0.12109892655858855 0.020623112701471002
-0.11877244387534465 -0.12040787126419686 0.028734756956005456
-0.1140891691174207 -0.12110606423925425 0.03626764364097422
-0.10922319234053378 -0.1231318951309778 0.042823585894580726
-0.10438075399534659 -0.12633789342680743 0.048024695525524415
-0.09972289226951435 -0.13052509833411124 0.05156543918051947
-0.09536664173452165 -0.13548138976293034 0.05327221045315746
-0.09138818661350484 -0.14102575688534463 0.05315169382754488
-0.08782599048175467 -0.14702403420851165 0.051413733764618566
-0.08468103094911894 -0.15340061353848083 0.04845629157345148
-0.08191499680938034 -0.16011869372944437 0.04481411460860086
-0.07945258960921904 -0.16715786585311757 0.04107808135450918
-0.07719008191230527 -0.17449270078876566 0.037807842300810926
-0.07501199944826271 -0.1820775721780732 0.03545786632557008
-0.07281060918463114 -0.18985124736166203 0.03432756553005233
-0.07050502181072263 -0.19773574827641463 0.03454173154855081
-0.06805305239514983 -0.2056451377775405 0.03606573585230755
-0.06545402027373896 -0.21349720444536574 0.0387460690202133
-0.06274226907095 -0.22121795057713275 0.04236772160527114
-0.059973074151716106 -0.2287477053433002 0.04670606388963886
-0.057204662979459045 -0.23603987593876644 0.05156455764808205
-0.05447873718743634 -0.24307067032849383 0.056790381189190546
-0.05180527015117929 -0.24983562265458445 0.06227070805812748
-0.049150254883549876 -0.25634856616941165 0.06791566672082447
-0.04643411263968192 -0.26262988140843035 0.07363852305574509
-0.043537047689477394 -0.26869465259498126 0.07934489781757502
-0.0403153378742625 -0.27453587326211293 0.08493362531520969
-0.03662501139557211 -0.28010718488927433 0.09031142658082604
-0.0323478117076083 -0.2853103709755101 0.09541302131027429
-0.027414058059230955 -0.2900102062797934 0.10021866682021334
-0.021817082486444504 -0.2940481747508562 0.10476193093280073
-0.01561513048761535 -0.29727991206595755 0.10912332779103422
-0.008920415061550255 -0.2996073255578571 0.11341219467958895
-0.0018774737890533946 -0.3010044974548404 0.11774179215954832
0.005365438387681645 -0.3015237529962662 0.12220305354167689
0.012683168139930128 -0.3012886992523573 0.1268439649771542
0.01999215954351685 -0.30046304824120185 0.13165502915319213
0.027258227730449287 -0.29921741141574043 0.13657878169200813
0.03448855755524392 -0.297697304486474 0.14152097491972943
0.04171391383663847 -0.2960044415501728 0.1463760571741257
0.048975277974174246 -0.29419119273384003 0.15105052597962454
0.05630279401534786 -0.29227120191802747 0.15548850878433013
0.06371255522512434 -0.29024808949356606 0.15968206247272382
0.07120321447400177 -0.28813088078088905 0.16366643060706357
0.07876174737335433 -0.2859530787735362 0.16750674510125388
0.0863705355373943 -0.28377347129260083 0.17128280850436148
0.0940242009492377 -0.2816777256327975 0.17506206122047585
0.10172797332640415 -0.2797679375348785 0.17889329744955929
0.10949753725917989 -0.2781494053105401 0.1827932653930376
0.117356414678889 -0.27692846208980737 0.18675555344920328
0.12531697596377134 -0.27619212392567083 0.19076084651678976
0.13336463745508922 -0.2760192449545605 0.19479137613060632
0.141437839648791 -0.2764645667351249 0.19884381928439465
0.14942087881237925 -0.27757616770918275 0.20293763048694932
0.15713947769365616 -0.27939204793946915 0.2071061286804794
0.16436766536508962 -0.28194328655307727 0.21139216201496902
0.17085312800181054 -0.28526139284049046 0.21581106472271588
0.17633702389494907 -0.28936758470593815 0.2203523799691417
0.1805824886030686 -0.2942762098573995 0.22495705124181814
0.1833905968153342 -0.2999845763726403 0.22952708999660798
0.18461217648352776 -0.3064752965759345 0.23393462375268995
0.1841401545440713 -0.31371491414923297 0.23803594381138898
0.18190063350938446 -0.3216586302200439 0.24168188968815754
0.17783704636557274 -0.33025565351820624 0.24472298269737108
0.171901648179063 -0.33945470028614294 0.24700981345304324
LINES 1 120
119 0 1 2 3 4 5 6 7 8 9 10 11 12 13 14 15 16 17 18 19 20 21 22 23 24 25 26 27 28 29 30 31 32 33 34 35 36 37 38 39 40 41 42 43 44 45 46 47 48 49 50 51 52 53 54 55 56 57 58 59 60 61 62 63 64 65 66 67 68 69 70 71 72 73 74 75 76 77 78 79 80 81 82 83 84 85 86 87 88 89 90 91 92 93 94 95 96 97 98 99 100 101 102 103 104 105 106 107 108 109 110 111 112 113 114 115 116 117 118
POINT_DATA 119
SCALARS isSiphon int
LOOKUP_TABLE default
0
0
0
0
0
0
0
0
0
0
0
0
0
0
0
0
0
0
0
0
0
0
0
0
0
0
0
0
0
0
0
1
1
1
1
1
1
1
0
0
0
0
0
0
0
0
0
0
0
0
0
0
0
0
0
0
0
0
0
0
0
0
0
0
0
0
0
0
0
0
0
0
0
0
0
0
0
0
0
0
0
0
0
0
0
0
0
0
0
0
0
0
0
0
0
0
0
0
0
0
0
0
0
0
0
0
0
0
0
0
0
0
0
0
0
0
0
0
0
