# vtk DataFile Version 2.0
Vessel Segment
ASCII
DATASET POLYDATA
POINTS 119 float
-0.001830961556475401 -0.006965114909023552 0.007262378167050082
-0.005634500766429943 -0.013553460888825654 0.012144745703313697
-0.010986856867978291 -0.019682940923912623 0.014893994901749709
-0.017461738283737618 -0.02527401871895748 0.01575784206180813
-0.024629256163520023 -0.030254735630047744 0.014984589953683748
-0.03206058027650517 -0.03456775029250589 0.012819972870818005
-0.0393429323672413 -0.038182150606946706 0.009502451799822075
-0.04610293731841703 -0.041107159744258145 0.005259978721410578
-0.05203605517340958 -0.04341021735877184 0.0003108718907062897
-0.05693576487114825 -0.04522638268438878 -0.005134372172152076
-0.060712278452396636 -0.04675042334661163 -0.010875816754958231
-0.06339903450068309 -0.04820678638529595 -0.016736630443660867
-0.06514045332479669 -0.04980169946379307 -0.022583837078806814
-0.0661562993527217 -0.05167628459878877 -0.028347358265878517
-0.06668857656786303 -0.05388040862327309 -0.03402856143454825
-0.06694196623564644 -0.05637977999038083 -0.039690088312890726
-0.06704254593273652 -0.05909225786689095 -0.045430715306250466
-0.06702208936168949 -0.06193671389879843 -0.0513531657288794
-0.06683507864201872 -0.06487237598769062 -0.057534179455816715
-0.06639164697866777 -0.06791525634086636 -0.06400314599619561
-0.06558807817341528 -0.07112762271450641 -0.0707330429423877
-0.06432606777177978 -0.07458775499778726 -0.07764404762513866
-0.06252627470426327 -0.07836005730403382 -0.08461613449949101
-0.06014303610114943 -0.08247900703344407 -0.0915090031118596
-0.05718496677170261 -0.0869513658352284 -0.09818468754139201
-0.05373323301320004 -0.09176960798677856 -0.10453170321708956
-0.04995113485932861 -0.0969253169954836 -0.11048568353839552
-0.04607365202015735 -0.10241415868405487 -0.11604139374292709
-0.04237829379393349 -0.1082300755485443 -0.12125030314782323
-0.039137619195809575 -0.11434995999968267 -0.12620080278280765
-0.036568637169840844 -0.12071754166700141 -0.13098256935383
-0.03479847802640637 -0.12723707058847805 -0.13564373374342523
-0.033856387719584505 -0.13377740221896736 -0.1401504662048969
-0.033699823146989806 -0.14018970938131312 -0.1443636430848121
-0.034261278251780755 -0.14632731780721905 -0.14803897853947257
-0.03549468116616964 -0.15206033915712328 -0.15085973224784496
-0.03739851021338816 -0.15728862525422102 -0.15249254265028853
-0.040008609189462946 -0.1619226131906881 -0.15266719406415166
-0.04336389756738377 -0.1658872939881709 -0.15122969872533218
-0.04746538361209317 -0.16912710540123033 -0.14817293490908845
-0.05224450422558594 -0.17159708759904774 -0.14363387463041788
-0.05755440074925558 -0.17329067352524175 -0.13785076681040034
-0.06318278592513797 -0.17423856458903553 -0.1311107952634743
-0.06888292632854738 -0.17452161361624632 -0.12369990317251336
-0.07441030417929993 -0.17425724095445683 -0.11586943654974648
-0.07955637294445647 -0.17359151467960987 -0.10781950559972003
-0.08416565162313715 -0.1726954284301621 -0.09969852294343211
-0.08813348281274344 -0.17174551799191912 -0.09160860863311936
-0.09138644744398411 -0.17090815431268203 -0.08361323306360526
-0.09385811422272916 -0.17033216792578043 -0.07574524507935453
-0.09547219642540086 -0.170122267733969 -0.06801519179427912
-0.09614432466170078 -0.17034751323882574 -0.060420296101055745
-0.09580701996576084 -0.17104333009866193 -0.05295530587886035
-0.09444697098308583 -0.1722411432933839 -0.045623306857339785
-0.09213622336567451 -0.17398990087713234 -0.0384432980343875
-0.08904192615884601 -0.17636309516566182 -0.0314559067604408
-0.08540874622898205 -0.17945787040474834 -0.024723760803931242
-0.08152072080107314 -0.18336989340525117 -0.018328478115232673
-0.07765786923689443 -0.18816100089345392 -0.012362759902336564
-0.07405680100722657 -0.19385436251456767 -0.0069160329078137555
-0.07088233633456001 -0.2004077498624363 -0.0020573437304063987
-0.06821293782674473 -0.20772938920791595 0.002182515818791538
-0.06603736746029606 -0.2156777007109285 0.0058226734168343505
-0.06426412112870357 -0.2240842955771465 0.008934726568955473
-0.06274138508753155 -0.23277112332751282 0.011634953209395634
-0.061287230985931695 -0.24157153014497038 0.014069536507223892
-0.05972645579280479 -0.25033835042888564 0.01639640878451016
-0.05792941903634186 -0.25897491958229324 0.018767174118114856
-0.055839254542844 -0.26741652268687893 0.021311445569450502
-0.05348125173333201 -0.27564319296326045 0.024123678453529498
-0.050948872355965756 -0.2836751632563487 0.02725461031044517
-0.04836952240263542 -0.2915518135052455 0.030704476209946745
-0.045859947336221694 -0.2993187766387008 0.034421038776961725
-0.04348363976498309 -0.3070324328410475 0.03830315628862579
-0.04122300583862657 -0.3147302718855654 0.042211174809898375
-0.03897537353535766 -0.3224362602346175 0.04598710386628296
-0.03657360900545287 -0.330147440489345 0.049483344125623226
-0.033824866017139056 -0.33783581002632124 0.052594007841479946
-0.030553636316645164 -0.34544505461949887 0.05528126348406377
-0.026635159844298404 -0.35288588638561535 0.05758708653650977
-0.02201015971628503 -0.36005143217212193 0.05962790094030512
-0.016682532719965813 -0.36682238315618876 0.061571282274411374
-0.010705441560032591 -0.37307502080579696 0.0636028198326627
-0.004164349373659189 -0.3787110275844023 0.06589131972152965
0.0028386322128345293 -0.383662933225704 0.06856018382908051
0.010195799336129744 -0.38790684819222304 0.07167316415720675
0.017801487519644377 -0.391465785068387 0.07523427172157184
0.02555727266244212 -0.3943942373223848 0.07920087196814826
0.03337525885108985 -0.3967659460155803 0.08350400911210965
0.041182909711056835 -0.3986445090298604 0.08806580565179842
0.048927764238257725 -0.4000926391343385 0.09281298609771867
0.05658195919770619 -0.40113765513999333 0.09768165284204305
0.06414545755644982 -0.4017923311098035 0.10261757777253262
0.07164360812433344 -0.4020577370383831 0.1075755376437856
0.07911855013566023 -0.40195614413547837 0.1125207935974514
0.08661406327088694 -0.4015357339140699 0.1174342682559966
0.09415921920596387 -0.40089912329906163 0.12231851886779303
0.10175459883642748 -0.4001926161905573 0.1271983213954407
0.10936530384720883 -0.39957405035364824 0.13211627556472763
0.1169225238431921 -0.39918592773307127 0.13712088377107984
0.12433290323570102 -0.3991080116261479 0.1422534613828757
0.1314931734419925 -0.39933282418326693 0.14753745545860034
0.13830694791253897 -0.39976335575254957 0.15297276149778102
0.14470378333615344 -0.4002353135388346 0.15853253450910476
0.1506564877522575 -0.40057095504243484 0.16416900558177747
0.1561891519028802 -0.40064915235453813 0.16981680661889936
0.161389416907337 -0.400463816482285 0.17538856628392113
0.16638821277705762 -0.40015420765118115 0.18078777638141186
0.1713312449651047 -0.3999933629483136 0.18592099206171536
0.17634306026032082 -0.40033485191830936 0.1907024900525248
0.18148698631494975 -0.40154251588610074 0.19507633349874856
0.18673520196835397 -0.403922155235348 0.19902012983746736
0.19197325613638655 -0.4076697738145514 0.2025506424368374
0.19700414701846916 -0.4128742656346108 0.20571493824404913
0.20158330425272583 -0.4195178484721651 0.2085842955295073
0.2054436692135765 -0.42751008172131266 0.211249321943982
0.20830712099976045 -0.4367137165878089 0.21380283235808473
0.20989901747992093 -0.44697228121695304 0.21634491255280364
0.2099396768400626 -0.4581214184676674 0.21897569883187504
LINES 1 120
119 0 1 2 3 4 5 6 7 8 9 10 11 12 13 14 15 16 17 18 19 20 21 22 23 24 25 26 27 28 29 30 31 32 33 34 35 36 37 38 39 40 41 42 43 44 45 46 47 48 49 50 51 52 53 54 55 56 57 58 59 60 61 62 63 64 65 66 67 68 69 70 71 72 73 74 75 76 77 78 79 80 81 82 83 84 85 86 87 88 89 90 91 92 93 94 95 96 97 98 99 100 101 102 103 104 105 106 107 108 109 110 111 112 113 114 115 116 117 118
POINT_DATA 119
SCALARS isSiphon int
LOOKUP_TABLE default
0
0
0
0
0
0
0
0
0
0
0
0
0
0
0
0
0
0
0
0
0
0
0
0
0
0
0
0
0
0
1
1
1
1
1
1
1
1
1
1
1
1
1
1
1
1
1
1
1
1
1
1
1
0
0
0
0
0
0
0
0
0
0
0
0
0
0
0
0
0
0
0
0
0
0
0
0
0
0
0
0
0
0
0
0
0
0
0
0
0
0
0
0
0
0
0
0
0
0
0
0
0
0
0
0
0
0
0
0
0
0
0
0
0
0
0
0
0
0
