# vtk DataFile Version 2.0
Vessel Segment
ASCII
DATASET POLYDATA
POINTS 119 float
-0.007371900488652557 -0.00825399763031126 -0.0031309835493872613
-0.014720362261604607 -0.015502818505230968 -0.0046354546575488285
-0.021843373601970258 -0.021812461228791515 -0.004977621271668763
-0.028543353247207286 -0.027252983151661515 -0.0046212178641777645
-0.034637336297522775 -0.03190627869768261 -0.004025573552858068
-0.039976214076030664 -0.035876658371822176 -0.003633349303313882
-0.04446796969490924 -0.03930093235974193 -0.0038460353651461054
-0.048097521328068694 -0.042351645439232394 -0.004989426306685572
-0.0509317299975569 -0.04523021391223578 -0.007280953506590562
-0.0530978656455067 -0.04814762666798121 -0.010811059327203535
-0.05474712647187488 -0.05130144703228771 -0.015538373906793591
-0.056013367001337466 -0.054855089967939814 -0.021306282843958364
-0.05698172810169188 -0.05892666395086264 -0.027878575552598497
-0.0576770457642489 -0.06358945010038305 -0.03498120426930967
-0.058072565502213895 -0.06887637968025677 -0.04233945978650986
-0.058113791736633356 -0.07478521009680227 -0.04970078628550117
-0.05775304670675472 -0.08128129803178917 -0.05684008304933437
-0.056985013942803794 -0.0882961455469132 -0.06354718561488337
-0.05587434566563298 -0.09572349578123447 -0.06960796269979708
-0.05456585458514356 -0.10341374453471414 -0.07478679564515617
-0.053271524213222045 -0.11117063495517554 -0.07882364623939844
-0.0522377433861457 -0.11875606392045525 -0.08144944132567203
-0.05170260349425103 -0.12590363755735293 -0.08242175205271542
-0.051851384056655785 -0.13234827365464324 -0.08157178612506868
-0.052784574634543696 -0.13785621286000918 -0.07884391915811097
-0.05450244264456409 -0.14226281732387105 -0.07431682101848543
-0.0569024189009258 -0.14549975239235144 -0.06820176730459322
-0.05979606901564098 -0.14761149232519327 -0.060812885105309876
-0.06293874366301089 -0.14875976793679002 -0.05251996710800128
-0.0660612949150375 -0.1491961946719417 -0.04369990088733186
-0.06890048511026355 -0.1492389808616941 -0.03469332781333924
-0.0712248205116602 -0.14921646191633675 -0.025773925328442488
-0.0728567932444948 -0.149424429681835 -0.017132023186183662
-0.07368761794754854 -0.1500819516189355 -0.008871831108970487
-0.07368587749352054 -0.15129852785456402 -0.001018685428626382
-0.07289789411905627 -0.15307000159584666 0.006462837131941429
-0.07143969228668223 -0.15530284852873655 0.01364420715713166
-0.06947799436077078 -0.15786271395976353 0.02060271095538194
-0.06720070118369274 -0.16063668483421742 0.027390306525257507
-0.06478380389226615 -0.1635926592394506 0.034009336000127524
-0.06236319757731949 -0.16680075127712565 0.04040278705206848
-0.06002025114142212 -0.1704149043461079 0.04646384632874482
-0.057785869214647484 -0.17462554846180897 0.05206292320869877
-0.05566189075809693 -0.17959244340893982 0.05708634308583428
-0.05364961997657213 -0.18539654050315385 0.0614739341488297
-0.051773447925970474 -0.19201646372501693 0.06524670331105543
-0.05008587306016124 -0.19933130839800745 0.06851459776095305
-0.04865353493604341 -0.20714455763339634 0.07146289012437622
-0.047532513593211624 -0.21522491641166275 0.07432032882661851
-0.04674123329651721 -0.22335266455315658 0.07731468787565603
-0.04624246139352233 -0.23135208688076342 0.08062572757171305
-0.04593875442042975 -0.23912139688218112 0.08434639966030988
-0.04568073336471793 -0.24663781262775986 0.08846439143988466
-0.045285573987858596 -0.2539409411460722 0.09287259334718224
-0.044559812335406575 -0.26109686284433237 0.0974037402648667
-0.04332208334520875 -0.2681674747789055 0.10187941789768443
-0.04142174306459171 -0.275173600172638 0.10615546566121169
-0.038751072659496996 -0.2820829448411409 0.11015213602768972
-0.03525115358715285 -0.28881220436619376 0.11386027724958536
-0.030913546275235952 -0.29525361873492917 0.11732794438185672
-0.025777603859024608 -0.30130055565649827 0.12063515098775417
-0.019923545845184357 -0.3068728776707528 0.12386575987405056
-0.013459880553219769 -0.31193054306124884 0.1270849823206478
-0.0065073392827855354 -0.31647452857323394 0.13032911322706256
0.0008178560968272033 -0.32053890274173535 0.13359633818279693
0.008417233547802737 -0.3241677398486142 0.13685731330681783
0.016216970710572678 -0.3274033679929579 0.14006931048920027
0.024168398420928532 -0.3302726396593439 0.14318141184859648
0.0322439142889552 -0.33277412259296085 0.1461542656636978
0.04042825469944757 -0.33488652448249784 0.1489672443902677
0.04871043798231897 -0.3365638157628316 0.1516273520332522
0.057076151410506294 -0.33775583912162294 0.1541624122751919
0.06550268049929688 -0.3384143094046263 0.1566239349950459
0.07395583212402654 -0.33851801987752966 0.15907905163045044
0.08238918559635293 -0.33808472501949705 0.16160742691842575
0.0907424833107477 -0.33718466075915243 0.16429154521543685
0.09894689597078336 -0.3359461566188746 0.16722188076525768
0.10692067636313267 -0.33453545833899506 0.17048390502364827
0.11458257372603238 -0.33313642317234643 0.17416120631349002
0.12186146714619844 -0.3319189140560152 0.17832418422865937
0.12870831412846975 -0.3310172137156689 0.1830149141410268
0.13511447929962822 -0.33052097219137094 0.1882332689321908
0.14111850339599302 -0.3304869993888236 0.1939191757681041
0.1468029261938649 -0.3309529871715291 0.19995335024501504
0.1522758884244673 -0.3319696082640478 0.20615786553798554
0.15763348952612344 -0.33360567349804704 0.21233173976149666
0.16292749372283533 -0.3359571961680151 0.2182750817884495
0.16813532503266493 -0.3391244107547892 0.22383222228643798
0.17315985316450438 -0.34318035747638737 0.22891297277829317
0.17784445088490658 -0.3481446176299302 0.23350637151234593
0.18200113604705698 -0.3539722444902642 0.2376755693148445
0.1854528924428188 -0.3605519113409805 0.24153632745841522
0.18806306018505653 -0.36772484086004675 0.2452270939174126
0.18976522002567917 -0.3753195296155406 0.24887645626628574
0.19057435154383948 -0.3831713621699712 0.252572896425865
0.19058370458908977 -0.3911530705897023 0.2563485377446172
0.18994198921685562 -0.3991828277984954 0.2601701087763878
0.1888285202650935 -0.4072298241132765 0.2639433116149254
0.18741099252623145 -0.4152998981631147 0.26752914808683076
0.18582837564070068 -0.4234300969270439 0.27077113653715895
0.18417836751175964 -0.43166310981989625 0.2735128402392821
0.18251973437702934 -0.440038591609594 0.275629950005904
0.18089929225983684 -0.4485719184944394 0.27703925815603025
0.17936603015548774 -0.45724726269486604 0.2777122129331528
0.17798836196026596 -0.4660148770743063 0.27766817592953114
0.17685470285054916 -0.4747864670846036 0.2769538051366766
0.17606758515512472 -0.4834477950895996 0.2756229712334088
0.17571610855155326 -0.4918743667297761 0.27371958556128595
0.17584539054419882 -0.49994709717931696 0.2712662329778814
0.17643773513180255 -0.5075779959237309 0.26827164674279186
0.17739420142985135 -0.5147311922653536 0.2647417860810187
0.178551863926895 -0.5214329063885953 0.2606996954999729
0.17970709457617862 -0.5277750939609503 0.2562016495799956
0.18064848824259072 -0.5339128566658702 0.2513429277350041
0.18119219159641592 -0.5400436594609861 0.24625699502504222
0.18118222302799855 -0.5463972631020629 0.24110315263428653
0.18049084801260495 -0.553218139302465 0.23606047494637275
0.17900051658549598 -0.5607543964994095 0.2313108710152105
0.17660322601121298 -0.5692582107418888 0.2270429483340079
LINES 1 120
119 0 1 2 3 4 5 6 7 8 9 10 11 12 13 14 15 16 17 18 19 20 21 22 23 24 25 26 27 28 29 30 31 32 33 34 35 36 37 38 39 40 41 42 43 44 45 46 47 48 49 50 51 52 53 54 55 56 57 58 59 60 61 62 63 64 65 66 67 68 69 70 71 72 73 74 75 76 77 78 79 80 81 82 83 84 85 86 87 88 89 90 91 92 93 94 95 96 97 98 99 100 101 102 103 104 105 106 107 108 109 110 111 112 113 114 115 116 117 118
POINT_DATA 119
SCALARS isSiphon int
LOOKUP_TABLE default
0
0
0
0
0
0
0
0
0
0
0
0
0
0
1
1
1
1
1
1
1
1
1
1
1
1
1
1
1
1
1
1
1
0
0
0
0
0
0
0
0
0
0
0
0
0
0
0
0
0
0
0
0
0
0
0
0
0
0
0
0
0
0
0
0
0
0
0
0
0
0
0
0
0
0
0
0
0
0
0
0
0
0
0
0
0
0
0
0
0
0
0
0
0
0
0
0
0
0
0
0
0
0
0
0
0
0
0
0
0
0
0
0
0
0
0
0
0
0
