# vtk DataFile Version 2.0
Vessel Segment
ASCII
DATASET POLYDATA
POINTS 119 float
-0.0018628361211679414 -0.006639596664350288 0.005624529704667296
-0.005058371781904066 -0.013215234129530453 0.00909343583765655
-0.009215217894779726 -0.01973775811124669 0.01068299502439142
-0.013964180537654209 -0.02621634971899223 0.010666798957002033
-0.018944235473725236 -0.03265575017991052 0.009308763724967735
-0.023814821306268122 -0.03905211414455403 0.0068505061873869195
-0.028272911198701588 -0.04538813939443834 0.0034985483271618213
-0.03207022580426673 -0.05163208995404661 -0.0005813792206662793
-0.035025605436427965 -0.05774035761729057 -0.0052594185789053
-0.0370284473194256 -0.06366373461709625 -0.010429457088421825
-0.0380324007569829 -0.06935205846431927 -0.015998731992466604
-0.038045163575431314 -0.0747587512909347 -0.021885819495166006
-0.03711805952118035 -0.07984581151897885 -0.028026012123148387
-0.03533880034636576 -0.08459348574353782 -0.03437640780886063
-0.032828671772346364 -0.08901148825368681 -0.04091588644213971
-0.02974274044137994 -0.09314915168636248 -0.047635879723237774
-0.026267849611027717 -0.09710063973498667 -0.054521116015941486
-0.022615686429067427 -0.1010044689618295 -0.06152115896349357
-0.01900924661334405 -0.1050308812426306 -0.06852368105015207
-0.01566133526992473 -0.10935755143765692 -0.07533320980893321
-0.012751339350272587 -0.11413381838161495 -0.08166809770777597
-0.010405023687722807 -0.11944747389702895 -0.0871797397727881
-0.00868418761286232 -0.12529389934096719 -0.09149242870163701
-0.007590536789287902 -0.13157324527624317 -0.09426082828741371
-0.007082808738224425 -0.13808523102059606 -0.09523461177465904
-0.0071014729930386905 -0.1445455331294169 -0.0943079465320386
-0.007592799694381477 -0.15062089611306245 -0.09153750094675576
-0.008524261396308604 -0.1559616975749156 -0.08712750860090528
-0.009884566058323609 -0.16025567061631832 -0.08138389684385139
-0.011668077117209066 -0.1632818672481267 -0.07465496897508482
-0.013851147513711476 -0.16494696475149975 -0.06727793775893309
-0.016372036111443136 -0.165305837135202 -0.05954271591723038
-0.01912044216048613 -0.16454948670216651 -0.05167127739572319
-0.021942099817311905 -0.16296635634448703 -0.04381714398434629
-0.024654489812707958 -0.16089079160000672 -0.036077739866417664
-0.027071815369453273 -0.15865071580848444 -0.028515445946492957
-0.029031737714299313 -0.15654139961043834 -0.021177542123548054
-0.03041613677454988 -0.15480176783764132 -0.01410957211951945
-0.03115761157015876 -0.1536280602142605 -0.007358850097629801
-0.031232736562889125 -0.15318773185428686 -0.0009676667256070716
-0.030648968522564973 -0.15363383508702014 0.0050371071896021385
-0.029436580548421437 -0.15510429909342927 0.010654586565456817
-0.02765017604400505 -0.15769671567117102 0.01591644118561985
-0.02537404650211633 -0.16144597679903175 0.020883173552750448
-0.02272473154176677 -0.16630170143160874 0.02563302570929255
-0.01984492257334074 -0.17213237145498173 0.030243843636847054
-0.01688657222342209 -0.17874936109225603 0.03477345380141371
-0.013992287607080201 -0.18594193955450203 0.039244351846660544
-0.011277641052706776 -0.19351737033266145 0.043639999061913085
-0.008819721649985153 -0.2013192770688209 0.04791121898968101
-0.0066510377663040006 -0.2092430233435427 0.05199248007116577
-0.004758613318241835 -0.21723061304774222 0.055822517986739074
-0.003088041726245509 -0.22525926345838027 0.05936356368870716
-0.0015520059815764306 -0.23332950229819036 0.06261274449059182
-4.2420382800179844e-05 -0.24144574548090858 0.06560386878492333
0.001555379683030059 -0.24960963249043971 0.06839970570315167
0.003348800637758754 -0.2578121393911675 0.0710779292252011
0.005427648515483661 -0.2660268515530381 0.07371550314508803
0.007859284447047924 -0.2742127054501417 0.07637612188413626
0.010690371361818477 -0.28230584908220213 0.07910291910919155
0.01395328064625117 -0.2902204096364537 0.0819183917948864
0.01767327818308121 -0.2978560383370137 0.08482885070404882
0.02187307232213637 -0.30509433271155506 0.0878338660862507
0.02657142430136463 -0.31182133263100276 0.09093610088846696
0.03177771491047579 -0.3179372974513265 0.09415020625564204
0.037483717468420635 -0.32337555008070756 0.0975060860230086
0.04365643187960748 -0.32811822527771534 0.10104644956655301
0.05023606299434578 -0.3321974243729478 0.10481545304693293
0.057141035202249994 -0.335692450790181 0.1088421943839044
0.0642798506211101 -0.33870655896087754 0.1131232436923228
0.07156438131775096 -0.3413332388662357 0.11761218630493304
0.0789221147612787 -0.34363212876026494 0.12222595585021959
0.08630139256451844 -0.3456031712567427 0.1268514061646416
0.09367217668492321 -0.34718249692097275 0.13137431628381077
0.10102166560999189 -0.34826756443915724 0.13570216436517954
0.1083477725411267 -0.3487496792884864 0.1397831192236096
0.11565368617506507 -0.3485624930238807 0.14362056108546992
0.12294354183335236 -0.34772717190703106 0.1472684736836776
0.13021823311807648 -0.3463612232336682 0.15082994113957024
0.13747810859687684 -0.3446725614096294 0.15442922469289116
0.14472258857015374 -0.3429170402630484 0.15819822153406699
0.15194750296436885 -0.3413514321948597 0.1622501061859575
0.15914317646676351 -0.34018729988882673 0.1666618443959993
0.1662921570535381 -0.3395694793014085 0.17146903693465287
0.17335884935685725 -0.3395734289239124 0.17666395041831395
0.1802928486941367 -0.3402284215258784 0.1822010395096517
0.18702319184939267 -0.34154393518600024 0.18800268906934736
0.1934646446187889 -0.34353084620874985 0.19396120763661082
0.19952702516936244 -0.3462164418875913 0.19994648149623806
0.2051169618294756 -0.34963710839912127 0.20581708766706974
0.21014212192502535 -0.3538223568025235 0.21143198907877506
0.21450858877671283 -0.3587838730135264 0.21667326308129686
0.21812135965847795 -0.3644987721432473 0.2214632953419739
0.2208895797349625 -0.37090681312283186 0.2257746936826884
0.22274544170196775 -0.3779188879739366 0.2296298871571452
0.22366652191222441 -0.38542148975442025 0.23309363122600693
0.2236968275542499 -0.3933012443616462 0.2362489889932855
0.22295021493936076 -0.4014504451302337 0.23918142602906073
0.22160410410013506 -0.4097767396199755 0.24196166574312006
0.21987046693065984 -0.41821293919997693 0.24462188477150634
0.2179635176111474 -0.42671368088656836 0.2471549525733477
0.2160674814129753 -0.43525203526408845 0.24951204808076147
0.21431266833862017 -0.44381631823760165 0.25160596133836527
0.21276785162188622 -0.45240339799696505 0.2533288540252706
0.21143906129562123 -0.46101107676865116 0.25456839183692404
0.2102756481993915 -0.4696316780045199 0.2552301684285159
0.209191009469988 -0.4782564729617682 0.2552547084350824
0.20807335283456768 -0.4868649982272496 0.2546285905625819
0.20680798373143403 -0.4954313276962823 0.25337973747387127
0.2052955682877158 -0.5039219522453321 0.2515705344305019
0.20346494210468355 -0.5123025564715363 0.2492768295880606
0.2012902517487939 -0.5205370918344221 0.24657018798672253
0.19879483413606677 -0.5285924891470525 0.24350342677802866
0.19605345787979556 -0.5364415811722006 0.24010610685577602
0.1931838621304183 -0.5440584688968314 0.236382532653017
0.1903373727402654 -0.5514224920662815 0.23231393603942624
0.18768333512455643 -0.5585156706181462 0.22787308311529153
0.1853985096971611 -0.565317180229424 0.22302161020635589
0.18366513595504275 -0.5718107321939759 0.2177233925372908
LINES 1 120
119 0 1 2 3 4 5 6 7 8 9 10 11 12 13 14 15 16 17 18 19 20 21 22 23 24 25 26 27 28 29 30 31 32 33 34 35 36 37 38 39 40 41 42 43 44 45 46 47 48 49 50 51 52 53 54 55 56 57 58 59 60 61 62 63 64 65 66 67 68 69 70 71 72 73 74 75 76 77 78 79 80 81 82 83 84 85 86 87 88 89 90 91 92 93 94 95 96 97 98 99 100 101 102 103 104 105 106 107 108 109 110 111 112 113 114 115 116 117 118
POINT_DATA 119
SCALARS isSiphon int
LOOKUP_TABLE default
0
0
0
0
0
0
0
0
0
0
0
0
0
0
0
0
0
0
0
0
0
0
0
0
0
1
1
1
1
1
1
1
1
1
1
1
1
1
1
1
1
1
1
1
0
0
0
0
0
0
0
0
0
0
0
0
0
0
0
0
0
0
0
0
0
0
0
0
0
0
0
0
0
0
0
0
0
0
0
0
0
0
0
0
0
0
0
0
0
0
0
0
0
0
0
0
0
0
0
0
0
0
0
0
0
0
0
0
0
0
0
0
0
0
0
0
0
0
0
