# vtk DataFile Version 2.0
Vessel Segment
ASCII
DATASET POLYDATA
POINTS 119 float
-0.005491656191508876 -0.0032070481444132996 0.005048671677644325
-0.010314109121509233 -0.007934350589953475 0.008093075543338709
-0.014646140104383462 -0.013823608552253598 0.00954309952471193
-0.018664967751874425 -0.020516865597343666 0.00980254843833069
-0.02254084252816047 -0.02766042275279224 0.009253865961068477
-0.026426422749630127 -0.0349157927192947 0.008228134474368405
-0.030442139862537507 -0.04197922940951363 0.006967076641848215
-0.034661636589159446 -0.04860632271402283 0.005590871037030558
-0.03910135591508976 -0.054636883412752725 0.004087558027508262
-0.04372094660514344 -0.060012818959445505 0.0023327840347959934
-0.048434930306706286 -0.06478475048085391 0.00013870101925257577
-0.05313305438605496 -0.06909938976736212 -0.0026805643921806784
-0.05770468347437899 -0.07316789115846725 -0.00624949090405429
-0.06206032503365762 -0.07721811833220252 -0.010598215653173444
-0.06613902566550045 -0.08144854599618676 -0.015661730481829336
-0.06990267995197336 -0.08599137918174414 -0.021304536108872694
-0.07331546962490466 -0.09089715013234612 -0.02735876117642717
-0.07632416592458476 -0.09614057041352357 -0.033657532183499914
-0.0788440027198447 -0.10164145043116415 -0.04005836836230196
-0.0807569839438373 -0.10729417859596924 -0.04645163674017946
-0.08192341529839797 -0.11299628874941163 -0.05275994064548515
-0.08220211984731342 -0.11866805375496366 -0.058936029044850284
-0.08147639796043983 -0.1242618533948768 -0.06495839146091588
-0.07967517457697647 -0.12976445079383234 -0.07082387962815703
-0.076788685623401 -0.13519257562862297 -0.07653689508231999
-0.07287290530302584 -0.14058349142127002 -0.08209188272921979
-0.0680418970565763 -0.14598061464640305 -0.08745228334446237
-0.06245452014935481 -0.1514215992481024 -0.0925301926703242
-0.05629901643580932 -0.15691327341343017 -0.09717189095261923
-0.049782384313335655 -0.16243215587099605 -0.10115799938839855
-0.043125604725950305 -0.16791242897384434 -0.10422173148082746
-0.03656376172001674 -0.17324999576794983 -0.10608522643827606
-0.030347616097940715 -0.17832156105405642 -0.10651236255398916
-0.024741720315022003 -0.18300299007437534 -0.10536370108652422
-0.020014471166122122 -0.18720191712236578 -0.10263756542834454
-0.016418025281047386 -0.19087449394119718 -0.0984808177039005
-0.014157014725599382 -0.19405704554695738 -0.09316902695060732
-0.013350031425023922 -0.19685913615654013 -0.08705677583446926
-0.013994414386148792 -0.19945804914747467 -0.08051157483054609
-0.015942143422307212 -0.20206129315022553 -0.07385161733387052
-0.01890502180417086 -0.2048777982726069 -0.06730661459658324
-0.022490769960067006 -0.2080742537438688 -0.06100256571252453
-0.026263348778686395 -0.2117722261924996 -0.05497350124268405
-0.029822571243141385 -0.21604042905957727 -0.04919340086483115
-0.032874571619236265 -0.22089883835648666 -0.04361304554029897
-0.035274754295696736 -0.2263378703431459 -0.03818719266222288
-0.03703321346548516 -0.232315554076701 -0.032886921235199144
-0.038283277920182344 -0.23876661726951082 -0.02769805491310667
-0.03922526928656738 -0.24561086806697272 -0.02261434106468929
-0.040060565035317054 -0.25275249203716793 -0.017630095073647524
-0.04093629289639021 -0.26009379469644683 -0.012737131781801093
-0.04191201653413392 -0.267546213817517 -0.007926016049139046
-0.04294984407949048 -0.2750353626046587 -0.00319113275956043
-0.043930034449224095 -0.282507733526068 0.0014646918795689912
-0.04467913138377826 -0.28993314682328464 0.006027514083742444
-0.04501216527029312 -0.2973048729841691 0.010473328195496276
-0.0447709144130804 -0.30463279499281887 0.014773514392523043
-0.04385741667918688 -0.3119444248827588 0.018903571733982258
-0.04224954777263262 -0.3192689595769475 0.022852216514864087
-0.039998852184157226 -0.3266365455675432 0.02663020108621704
-0.037213158873785374 -0.3340646171056548 0.03027462129780375
-0.03403123333693386 -0.34155258236319697 0.03385025387540291
-0.030593642626049754 -0.3490672394633654 0.037444445052506874
-0.02701560720281505 -0.35654836146615243 0.04115618173198854
-0.023368372266434456 -0.36389378585869414 0.0450810476104979
-0.019669137704184336 -0.3709712617678031 0.04929250770771263
-0.015882028646973977 -0.37762548721132694 0.053826367507783544
-0.011928803435265022 -0.3836957967294943 0.05867021856553468
-0.00770671115075397 -0.3890344412044496 0.06376387125563508
-0.0031115769620799695 -0.3935312335931995 0.06901131433487914
0.001938516103029727 -0.39712998512127656 0.07430379747236561
0.007483438661423156 -0.39984408320222137 0.07954634568087374
0.013509417830957137 -0.40176626540425775 0.08468044129399764
0.0199483358528289 -0.40305073153741705 0.08969568325322799
0.026691284405240816 -0.4038964153870774 0.09462797655360712
0.03361062252252694 -0.4045060752977953 0.09954198458117891
0.040588993997916614 -0.40504597782310975 0.10450649192144743
0.04754202197235821 -0.4056155444628428 0.10956944353146389
0.05442917508857082 -0.40623885846398317 0.11474305618672073
0.06125145117880951 -0.4068722969368801 0.12000187696985404
0.06803427784057829 -0.4074377348803736 0.1252952300334001
0.07480700008873173 -0.4078561284586608 0.1305665350621162
0.08158518754782873 -0.408077452112056 0.1357754105566316
0.08835954140388037 -0.4080867639147664 0.14091196721544053
0.09509893399070485 -0.4079113190035943 0.14600170745118043
0.10176422785270695 -0.4075983356494623 0.1510925588916386
0.10832509555180321 -0.40719313677086794 0.1562416659936629
0.11477678913364243 -0.4067283791200242 0.161501876338898
0.12114371635233206 -0.40620172921698905 0.16690347335143166
0.1274716491478657 -0.40559289886415184 0.17246405576946416
0.13381273421613082 -0.40487078745867044 0.17818632665621562
0.1402058220708293 -0.4040229070138585 0.1840678045498133
0.1466648222288789 -0.403083058027932 0.19009796266178733
0.1531726348991129 -0.40214834080564543 0.19625099629066475
0.15967264925695016 -0.4013872631679885 0.20247866913971635
0.16607354894538512 -0.4010270549348482 0.20870959004610165
0.17225220792110563 -0.40132397413240894 0.2148488153075497
0.1780586838687374 -0.402526890319139 0.2207903190387106
0.18332753950214734 -0.40483170478848596 0.22643699495943032
0.18789848556178573 -0.4083545508096675 0.23171436833872858
0.19164537053495906 -0.4131092995517532 0.23658167410473133
0.19449057162484532 -0.4190071723145012 0.24103668563696284
0.19642760101879014 -0.42588115979242863 0.24511737593652383
0.19751903091073905 -0.43350943756138255 0.24888113486237856
0.19788639306782946 -0.44165348774863056 0.25240455223058234
0.19768549262615803 -0.45009014470363834 0.2557593504556862
0.1970881955415968 -0.4586373594394467 0.25900928347614505
0.19625730911314843 -0.46716399505647643 0.26220045135796916
0.19533574787874156 -0.4755975238325662 0.2653630139792918
0.19443603470507453 -0.4839096206244807 0.2685124966457667
0.19363902430103777 -0.49210962752610177 0.27164745428226494
0.19299756888697905 -0.5002297878299079 0.27476449990564217
0.19253552197675677 -0.5083111027752298 0.2778539419677355
0.19225377291279688 -0.5163995734518347 0.2809036162540254
0.19213476433114 -0.5245357650012124 0.28390615970798583
0.19215471342701257 -0.5327582784504153 0.2868547507165176
0.19227717210853987 -0.5411032361416549 0.2897444917548076
0.19246760696425042 -0.5496022512612576 0.2925683788244457
0.19268964627422255 -0.5582892030407085 0.2953222103014882
LINES 1 120
119 0 1 2 3 4 5 6 7 8 9 10 11 12 13 14 15 16 17 18 19 20 21 22 23 24 25 26 27 28 29 30 31 32 33 34 35 36 37 38 39 40 41 42 43 44 45 46 47 48 49 50 51 52 53 54 55 56 57 58 59 60 61 62 63 64 65 66 67 68 69 70 71 72 73 74 75 76 77 78 79 80 81 82 83 84 85 86 87 88 89 90 91 92 93 94 95 96 97 98 99 100 101 102 103 104 105 106 107 108 109 110 111 112 113 114 115 116 117 118
POINT_DATA 119
SCALARS isSiphon int
LOOKUP_TABLE default
0
0
0
0
0
0
0
0
0
0
0
0
0
0
0
0
1
1
1
1
1
1
1
1
1
1
1
1
1
1
1
1
1
1
1
1
1
1
1
1
1
0
0
0
0
0
0
0
0
0
0
0
0
0
0
0
0
0
0
0
0
0
0
0
0
0
0
0
0
0
0
0
0
0
0
0
0
0
0
0
0
0
0
0
0
0
0
0
0
0
0
0
0
0
0
0
0
0
0
0
0
0
0
0
0
0
0
0
0
0
0
0
0
0
0
0
0
0
0
