# vtk DataFile Version 2.0
Vessel Segment
ASCII
DATASET POLYDATA
POINTS 119 float
-0.002908093023502384 -0.005189830530994618 0.005401747309227124
-0.006871633044527143 -0.010838363214079844 0.008607174517113523
-0.01167231418033319 -0.016807438564984283 0.010059776131727483
-0.017094778189581005 -0.022959444954469485 0.010196663664292265
-0.02293030942183686 -0.029157919456673675 0.009433981760052093
-0.028981760189760813 -0.035273568587432844 0.00813930223209408
-0.03506965182259719 -0.04119047901540819 0.0065969887149233625
-0.041043251195409754 -0.04681114790998098 0.004977186297078933
-0.04679740781978652 -0.05205999169911211 0.0033200328965575414
-0.05228986770599676 -0.056881079442015064 0.0015439411028656278
-0.057552990448724126 -0.06123543332563526 -0.0005196532324698846
-0.06268718290754408 -0.06510187139197528 -0.0030725154133210172
-0.06783376089283305 -0.06847562091440099 -0.0062949075665185575
-0.07312662061155376 -0.07137295694743113 -0.010305812427441052
-0.07863859539213415 -0.07383343506280836 -0.01514681714698368
-0.08433848075047676 -0.07591878659965791 -0.020785675736525473
-0.09007247504699141 -0.07771130633758544 -0.0271284695645628
-0.0955771786840177 -0.07931116250019901 -0.03403420727326718
-0.10051623685193072 -0.08083566631756052 -0.041328113271204135
-0.1045336052801842 -0.08241805703200648 -0.04881503912823383
-0.1073085231453492 -0.08420606267797112 -0.05629421822907547
-0.10860680825039992 -0.08635110621558909 -0.06357847781188916
-0.10831579902363925 -0.08898985663378231 -0.07051410485259457
-0.10645679898556701 -0.09222590751411544 -0.07699668852272255
-0.10317112114250758 -0.09611317420766347 -0.08297742770959135
-0.09868466023331639 -0.10064775017901556 -0.0884566021466977
-0.09325981881788016 -0.1057661213734908 -0.09346410381315329
-0.0871514572970286 -0.11134905871895488 -0.0980320647593935
-0.08058066503696666 -0.11723368292434622 -0.10216417366206865
-0.0737325102094547 -0.1232320061304375 -0.10581160989552515
-0.06677517858085862 -0.12915570478819163 -0.10885987888117549
-0.05988685764045937 -0.13484138465961654 -0.1111312284193946
-0.053277470101229844 -0.14017137082432882 -0.11240599941204217
-0.04719043632937394 -0.14508108022184377 -0.11245818106181203
-0.04188003544766388 -0.14956427902145114 -0.11110052282837346
-0.03757147565655602 -0.1536586878116981 -0.10823062280159634
-0.0344168061903824 -0.15744374939333583 -0.10386554654468522
-0.03246593829060655 -0.1610199346448448 -0.0981532366015231
-0.0316579079416705 -0.1645095178303765 -0.09136335694377824
-0.03183675989859319 -0.16804630414047428 -0.08385352986559767
-0.03278868462519595 -0.17176108285176006 -0.07601645182533263
-0.03428191182292345 -0.1757706250110307 -0.0682261365682874
-0.03610174351057106 -0.18015058126089 -0.060787658218316686
-0.03806908987970221 -0.18492846041305944 -0.05390358852751024
-0.04004218111709912 -0.19007688216468513 -0.04765661498510402
-0.04190251128168874 -0.19553201421220487 -0.042011358897653645
-0.04353847605574439 -0.20120066334229514 -0.03683601998890753
-0.044838175035504274 -0.2069921167174924 -0.03194007527646746
-0.04570084139747067 -0.21283539303898155 -0.02712745720603917
-0.04606315243667078 -0.2187100220214327 -0.022251439899911612
-0.045925646355496834 -0.22464834481420998 -0.017257643036345745
-0.045360958919919446 -0.2307343099650018 -0.012199401908294464
-0.044497754387363087 -0.23707441951767708 -0.007221597330813373
-0.04348240347430822 -0.24376535794592455 -0.0025157897987191434
-0.04243453798790196 -0.25085957217670185 0.0017386764942898215
-0.041410736104125656 -0.25833730045930353 0.005430643282267902
-0.04039027987879203 -0.26610988876964353 0.008555384711148124
-0.03928100212261771 -0.27402509337753866 0.011225579143676908
-0.0379436433311458 -0.2819045321452203 0.013651600840121198
-0.036225478700478604 -0.28957719085237416 0.016094257659523516
-0.03399228831135887 -0.29691368921410144 0.01880187683660992
-0.03115272910405092 -0.30384672013135117 0.021949665921903838
-0.027668146058531438 -0.31037521208585295 0.025603359704575467
-0.02355005421930613 -0.31654326895839247 0.029709949708466053
-0.018845789439913076 -0.3224058077464679 0.03412392416823786
-0.013619697053240289 -0.3279902669266809 0.038655056291051156
-0.007936334653039525 -0.3332704819030085 0.04312042772135091
-0.0018491606176798121 -0.33815708571860736 0.04738692779799334
0.004602131621138208 -0.34251937178875574 0.0513951360117146
0.011387132315028843 -0.3462175821939493 0.05516179871829079
0.018475083434374963 -0.3491561500413375 0.058766034902762325
0.025825497906725742 -0.3513171870258517 0.06232573770205869
0.033381690445200604 -0.3527817425857392 0.06596979541247938
0.04107183821662675 -0.3537249148909395 0.06981324994811196
0.048814602219376724 -0.3543850886385936 0.0739382863298744
0.05652850095963061 -0.35501797710677574 0.07838309887727689
0.06413916681855812 -0.35584662778281506 0.08313993594389535
0.07158632813929892 -0.3570241717956095 0.08816207081406373
0.07882531970509776 -0.35859925029410156 0.09337672523541174
0.0858296284030058 -0.3605069238829936 0.0987005874328735
0.09259133881301576 -0.3625758044384304 0.10405418593238139
0.0991232630154982 -0.3645554212839972 0.10937345690345844
0.10545884251355218 -0.36616186105072 0.11461681589778108
0.11165057630358902 -0.36713990977433897 0.11976767170442824
0.11776363968343168 -0.36732131281218766 0.12483362775345216
0.1238676508514233 -0.36668127283670016 0.12984169836652618
0.1300261102278915 -0.36534721237217255 0.13483052389166297
0.13628645686041208 -0.363586562248861 0.13984053791726625
0.1426726567090911 -0.36174734863482383 0.1449057574524366
0.14917356796438852 -0.3601932573992283 0.15004890005546015
0.15574217501710855 -0.35924433233913294 0.1552928390408506
0.16229434553629188 -0.3591313830259444 0.16064990358698863
0.1687122404408093 -0.3599800749244324 0.16614700982757896
0.1748661186065035 -0.36182365110510095 0.17180504974424798
0.18063460742483767 -0.36461984496316213 0.17763325463687563
0.18593127447186567 -0.368275567889626 0.1836143756616003
0.19071106858602704 -0.37267975856860386 0.18968459202085347
0.194971138452197 -0.37771688655029423 0.19575188819040565
0.19873115014036907 -0.3832807652350177 0.20168782734632978
0.20200214196919844 -0.3892833874632374 0.20737090045424564
0.20476847700897657 -0.3956574884021486 0.21269507826426284
0.20698124203949836 -0.40234847566595744 0.2176048113220589
0.2085779318292385 -0.4093083872456714 0.2220997340186246
0.2095132420039562 -0.416494500442903 0.2262308128894359
0.2098021960833303 -0.4238577920481679 0.2300989315521496
0.20954640124420004 -0.4313465124655186 0.23381754578958983
0.2089292970685433 -0.4389054115309551 0.2375017904837087
0.20819100219837988 -0.4464898761340342 0.24123635745740535
0.2075818334056313 -0.4540743056360415 0.2450533588479204
0.20730814711679837 -0.46165463950026364 0.24893126718361425
0.20749472549228465 -0.4692568521106192 0.2527917626194108
0.20817011605838093 -0.4769276426690148 0.2565146259990157
0.209270841755193 -0.48472465675845455 0.25996726743453635
0.21066180638655715 -0.4927109850113697 0.2630159226488941
0.21216786173136226 -0.5009411718515439 0.2655450251627274
0.2135905214914673 -0.5094648917629797 0.2674606667301287
0.2147176421186821 -0.5183217451507891 0.2686808499207681
0.21534316584268423 -0.5275518997502516 0.2691400611444739
0.2152528032699586 -0.5371896207073067 0.2687666612589714
LINES 1 120
119 0 1 2 3 4 5 6 7 8 9 10 11 12 13 14 15 16 17 18 19 20 21 22 23 24 25 26 27 28 29 30 31 32 33 34 35 36 37 38 39 40 41 42 43 44 45 46 47 48 49 50 51 52 53 54 55 56 57 58 59 60 61 62 63 64 65 66 67 68 69 70 71 72 73 74 75 76 77 78 79 80 81 82 83 84 85 86 87 88 89 90 91 92 93 94 95 96 97 98 99 100 101 102 103 104 105 106 107 108 109 110 111 112 113 114 115 116 117 118
POINT_DATA 119
SCALARS isSiphon int
LOOKUP_TABLE default
0
0
0
0
0
0
0
0
0
0
0
0
0
0
0
0
0
0
0
1
1
1
1
1
1
1
1
1
1
1
1
1
1
1
1
1
1
0
0
0
0
0
0
0
0
0
0
0
0
0
0
0
0
0
0
0
0
0
0
0
0
0
0
0
0
0
0
0
0
0
0
0
0
0
0
0
0
0
0
0
0
0
0
0
0
0
0
0
0
0
0
0
0
0
0
0
0
0
0
0
0
0
0
0
0
0
0
0
0
0
0
0
0
0
0
0
0
0
0
