# vtk DataFile Version 2.0
Vessel Segment
ASCII
DATASET POLYDATA
POINTS 1161 float
0.130850826759153 -0.142602913401093 -0.10151030216914
0.145854310124698 -0.0542211663397001 -0.100597654321867
0.160913809564272 0.0339703324252126 -0.0999804106444227
0.176033100247832 0.121967401233527 -0.0996608743383205
0.191215957316946 0.209765858457451 -0.0996413485807519
0.206466155900656 0.297361522488886 -0.0999241365291801
0.221787471131348 0.384750211726792 -0.100511541325936
0.237183678160609 0.471927744564553 -0.101405866102811
0.252658552175095 0.558889939377342 -0.102609413985653
0.268215868412395 0.64563261450949 -0.104124488098963
0.283859402176893 0.732151588261846 -0.105953391570484
0.299592928850836 0.818442678884155 -0.108098427532458
0.315420223780629 0.904501704697496 -0.110561899035969
0.331345061846415 0.990324484546931 -0.113346108744672
0.347371216906881 1.07590683838423 -0.116453358541615
0.363502461239273 1.1612445878556 -0.119885949132718
0.379742564979407 1.24633355688941 -0.123646179650255
0.396095295561674 1.3311695722839 -0.127736347256328
0.412564417159059 1.41574846429494 -0.132158746746352
0.429153690123147 1.50006606722374 -0.13691567015253
0.445866870424135 1.58411822000457 -0.142009406347334
0.46270770908718 1.6679007667964 -0.147442240644332
0.479679951533441 1.7514095576761 -0.15321645433004
0.496787336679227 1.83464044958941 -0.159334324020692
0.514033595939837 1.91758930740354 -0.165798120950031
0.531422452229733 2.00025200496356 -0.172610110254459
0.548957618962724 2.08262442614893 -0.179772550258169
0.566642799052141 2.16470246592991 -0.187287691758297
0.584481683911015 2.24648203142403 -0.195157777310059
0.602477952452251 2.32795904295259 -0.203385040511893
0.620635270088813 2.40912943509706 -0.211971705290605
0.638957287708713 2.48998915777991 -0.220919985172033
0.65744763999532 2.57053417797871 -0.230232082175391
0.676109942085739 2.65076048304761 -0.239910184752313
0.69494778557451 2.73066408467214 -0.249956465349579
0.713964734492109 2.81024102284833 -0.260373077957351
0.733164321283466 2.88948736986185 -0.27116215565743
0.752550042786472 2.96839923426712 -0.282325808171493
0.772125356210487 3.04697276486645 -0.293866119409344
0.791893675114857 3.12520415468919 -0.305785145017158
0.811858365387416 3.2030896449708 -0.318084909925727
0.832022741239136 3.28062552911511 -0.330767405910125
0.852390061618234 3.35780815621524 -0.343834589446336
0.872963527689079 3.43463393345494 -0.357288380321678
0.893746280730567 3.51109932806868 -0.371130660542191
0.914741400050626 3.58720086928484 -0.385363273251445
0.935951900900724 3.66293515026879 -0.399988021649346
0.957380732390375 3.73829883006617 -0.41500666791094
0.979030775401646 3.81328863554594 -0.430420932105224
1.00090484050366 3.8879013633436 -0.44623249111395
1.02300566586712 3.96213388180432 -0.462442977550433
1.04533591512074 4.03598313297985 -0.479053978647617
1.06789817369887 4.1094461360214 -0.496067034346905
1.09069494135872 4.18251999411671 -0.513483633358162
1.11372862318872 4.2552019028231 -0.531305208420476
1.13700152055888 4.32748915845428 -0.549533131532178
1.16051582207111 4.39937916646714 -0.568168709180876
1.18427359450951 4.47086944984853 -0.587213177573469
1.20827677379075 4.54195765750208 -0.606667697866173
1.23252715591437 4.61264157263497 -0.626533351394549
1.2570263879131 4.68291912114474 -0.646811134903521
1.28177595894471 4.75278837987119 -0.667501955856028
1.30677719506226 4.82224758134082 -0.688606629785857
1.33203126332219 4.89129510960787 -0.710125882839591
1.35753917957087 4.95992949258792 -0.732060356362746
1.38330181637259 5.02814939425656 -0.754410611564529
1.40931991093764 5.0959536068481 -0.777177134182595
1.43559407305031 5.16334104305423 -0.80036033914781
1.46212479299691 5.23031072822277 -0.823960575249009
1.48891244949383 5.29686179255632 -0.847978129797755
1.51595731761556 5.36299346331095 -0.872413233293099
1.54325957662805 5.42870505708628 -0.897266064028774
1.57081931536138 5.49399597449084 -0.922536751203794
1.59863653133594 5.55886570083721 -0.948225374233961
1.62671112742781 5.62331380921246 -0.974331960566779
1.65504290843956 5.68733996363996 -1.0008564834388
1.68363157767102 5.75094392224118 -1.02779885963295
1.71247673349007 5.81412554039753 -1.05515894723594
1.74157786590343 5.87688477391217 -1.08293654339552
1.7709343531274 5.93922168217178 -1.1111313820779
1.80054545815865 6.0011364313084 -1.13974313182507
1.83041032538884 6.0626292973244 -1.16877139352403
1.86052797835823 6.12370066825822 -1.19821569848527
1.8908973204008 6.18435104391581 -1.22807550730619
1.92151713642842 6.24458103464275 -1.25835020904372
1.9523860947588 6.30439136005966 -1.28903912039888
1.98350274894348 6.36378284779753 -1.32014148490131
2.01486553959582 6.42275643223307 -1.35165647209378
2.04647279621891 6.48131315322401 -1.38358317671674
2.07832273903363 6.53945415484453 -1.41592061789289
2.11041348080654 6.59718068412055 -1.44866773831165
2.1427430287005 6.65449408974998 -1.4818234034115
2.17530928671231 6.71139582043079 -1.51538640050405
2.20811005960082 6.76788742219322 -1.54935543775031
2.24114305740211 6.82397053533996 -1.58372914307881
2.27440589996732 6.87964689137098 -1.61850606310138
2.30789612150043 6.93491830990863 -1.65368466202901
2.34161117509604 6.98978669562251 -1.6892633205877
2.37554843727718 7.04425403515449 -1.72524033493426
2.40970521253309 7.09832239404368 -1.76161391557217
2.44407873785702 7.15199391365135 -1.79838218626741
2.47866618731615 7.20527080806476 -1.83554318295361
2.51346467745652 7.25815536044946 -1.87309485235988
2.54847127482763 7.31064991800189 -1.91103504993453
2.58368300434212 7.36275688635056 -1.94936153749143
2.61909685766752 7.414478723936 -1.98807198084571
2.65470980161801 7.46581793639076 -2.02716394744948
2.69051878654621 7.51677707091936 -2.06663490402753
2.7265207547349 7.56735871067824 -2.10648221421302
2.76271264878883 7.61756546915576 -2.14670313618317
2.79909142002647 7.66739998455213 -2.18729482029499
2.83565403687546 7.71686491414682 -2.22825430674871
2.87239749336486 7.76596292833861 -2.26957852397255
2.90931881786275 7.81469670385473 -2.31126428883852
2.94641508191057 7.86306891663278 -2.3533083075996
2.98368340906123 7.91108223468992 -2.39570717685459
3.02112098371716 7.95873931099218 -2.43845738451299
3.05872505996836 8.0060427763237 -2.48155531075992
3.09649297043049 8.052995232156 -2.52499722902096
3.13442213508293 8.09959924351725 -2.56877930692706
3.17251007010683 8.14585733186153 -2.61289760727943
3.21075439672085 8.1917719679329 -2.65734808901583
3.24915284995512 8.23734556449482 -2.70212660821391
3.28770328726863 8.28258046871766 -2.74722891918865
3.32640369710498 8.32747895443154 -2.79265067562676
3.36525220744567 8.37204321437404 -2.83838743172253
3.40424709436345 8.4162753524378 -2.88443464331376
3.44338679057562 8.46017737591821 -2.93078766901753
3.4826698939974 8.50375118776111 -2.97744177136613
3.52209517629524 8.54699857881038 -3.02439211794292
3.56166159144014 8.58992122005568 -3.07163378251813
3.60136828409769 8.63252065499621 -3.11916174623702
3.64121459377201 8.67479829502441 -3.16697090016544
3.68120004817112 8.71675542247533 -3.21505605128148
3.72132435232635 8.75839319669598 -3.26341192982471
3.76158737754834 8.79971266023072 -3.31203319669756
3.80198915038307 8.84071474500669 -3.36091445086675
3.84252984156786 8.88140027851923 -3.41005023676467
3.88320975498747 8.92176999001732 -3.45943505169083
3.92402931663006 8.961824516689 -3.50906335321321
3.96498906354327 9.0015644098468 -3.55892956656975
4.00608963286737 9.04099014106073 -3.60902809202789
4.04733175287486 9.08010210692822 -3.6593533111573
4.08871623910306 9.11890063038395 -3.70989959034347
4.13024399249313 9.15738596064658 -3.76066128321448
4.17191599760614 9.19555827311308 -3.81163273302585
4.2137333208393 9.23341766925306 -3.8628082750455
4.25569710864206 9.27096417650308 -3.91418223893862
4.29780858573227 9.30819774816101 -3.9657489511526
4.34006905331229 9.34511826328031 -4.01750273730194
4.38247988728522 9.38172552656438 -4.06943792455316
4.42504253645053 9.41801926826333 -4.12154884403159
4.46775852016842 9.45399914413471 -4.17382983379686
4.5106294246752 9.48966473556657 -4.22627524326216
4.55365689886742 9.52501554976439 -4.27887943818218
4.59684265006535 9.56005101994057 -4.33163680566298
4.64018843977666 9.59477050550382 -4.38454175917175
4.68369607946 9.62917329224865 -4.43758874354673
4.72736742628858 9.66325859254476 -4.490772240007
4.77120437891377 9.69702554552651 -4.54408677116232
4.81520887322874 9.73047321728233 -4.59752690602296
4.85938287810554 9.76360060108204 -4.65108726499478
4.90372839044425 9.79640661858756 -4.70476252448965
4.94824742847561 9.8288901235604 -4.75854742055982
4.99294202437565 9.86104990655257 -4.81243675214763
5.03781421685379 9.89288469963532 -4.86642538432046
5.08286604374106 9.92439318112798 -4.92050825150568
5.12809953457821 9.95557398032667 -4.97468036072564
5.1735167032039 9.98642568223308 -5.02893679483259
5.21911954034281 10.0169468322833 -5.08327271574363
5.26491000619382 10.0471359410764 -5.13768336767567
5.3108900230336 10.0769914890967 -5.19216408037191
5.35706146822145 10.1065119312605 -5.24671027210724
5.40342616822278 10.1356957010179 -5.30131745213274
5.4499858930338 10.1645412142796 -5.35598122289911
5.49674235062169 10.1930468733368 -5.41069728227163
5.54369718136479 10.2212110707812 -5.4654614257451
5.59085195249267 10.249032193425 -5.5202695486588
5.63820815252641 10.2765086262209 -5.57511764841145
5.68576718571862 10.3036387561819 -5.63000182667614
5.73353036649372 10.3304209763014 -5.68491829161532
5.7814989139193 10.3568536894619 -5.73986336007341
5.82967394699111 10.3829353120558 -5.79483345918994
5.87805648198316 10.4086642768732 -5.84982512654144
5.92664743061123 10.4340390357018 -5.90483500970379
5.97544759822782 10.4590580619162 -5.95985986579225
6.02445768201697 10.4837198530655 -6.01489656100154
6.07367826918914 10.5080229334632 -6.06994207014587
6.1231098351761 10.5319658567749 -6.12499347619899
[...]
POINT_DATA 1161
SCALARS MaximumInscribedSphereRadius float
LOOKUP_TABLE default
2.79
2.777439655172414
2.7648793103448277
2.7523189655172415
2.7397586206896554
2.727198275862069
2.7146379310344826
2.7020775862068964
2.6895172413793103
2.676956896551724
2.664396551724138
2.6518362068965518
2.6392758620689656
2.6267155172413794
2.6141551724137932
2.601594827586207
2.5890344827586205
2.5764741379310343
2.563913793103448
2.551353448275862
2.538793103448276
2.5262327586206896
2.5136724137931035
2.5011120689655173
2.488551724137931
2.484008620689655
2.496568965517241
2.509129310344828
2.521689655172414
2.53425
2.5468103448275863
2.5593706896551724
2.5719310344827586
2.584491379310345
2.597051724137931
2.609612068965517
2.6221724137931033
2.6347327586206895
2.647293103448276
2.6598534482758622
2.6724137931034484
2.6849741379310346
2.6975344827586207
2.710094827586207
2.722655172413793
2.7352155172413792
2.7477758620689654
2.7603362068965516
2.7728965517241377
2.7854568965517243
2.79
2.79
2.79
2.79
2.79
2.79
2.79
2.79
2.79
2.79
2.79
2.79
2.79
2.79
2.79
2.79
2.79
2.79
2.79
2.79
2.79
2.79
2.79
2.79
2.79
2.7779741379310345
2.7654137931034484
2.752853448275862
2.740293103448276
2.72773275862069
2.7151724137931037
2.7026120689655175
2.6900517241379314
2.6774913793103448
2.6649310344827586
2.6523706896551724
2.6398103448275863
2.62725
2.614689655172414
2.6021293103448278
2.5895689655172416
2.5770086206896554
2.564448275862069
2.551887931034483
2.5393275862068965
2.5267672413793103
2.514206896551724
2.501646551724138
2.489086206896552
2.48
2.48
2.48
2.48
2.48
2.48
2.48
2.48
2.48
2.48
2.48
2.48
2.48
2.48
2.48
2.48
2.48
2.48
2.48
2.48
2.48
2.48
2.48
2.48
2.48
2.4680275862068966
2.447931034482759
2.427834482758621
2.407737931034483
2.387641379310345
2.3675448275862068
2.347448275862069
2.327351724137931
2.3072551724137935
2.2871586206896555
2.2670620689655174
2.24696551724138
2.2268689655172413
2.2067724137931033
2.1866758620689657
2.1665793103448276
2.1464827586206896
2.126386206896552
2.106289655172414
2.0861931034482764
2.0660965517241383
2.046
2.025903448275862
2.005806896551724
1.9857103448275866
1.9918141379310343
2.000355172413793
2.0088962068965515
2.01743724137931
2.025978275862069
2.0345193103448276
2.043060344827586
2.0516013793103447
2.0601424137931033
2.068683448275862
2.0772244827586204
2.085765517241379
2.094306551724138
2.1028475862068965
2.111388620689655
2.1199296551724136
2.128470689655172
2.1370117241379307
2.1455527586206893
2.1540937931034483
2.162634827586207
2.1711758620689654
2.179716896551724
2.1882579310344825
2.1886855172413795
2.16256
2.136434482758621
2.1103089655172416
2.084183448275862
2.058057931034483
2.0319324137931036
2.0058068965517246
1.9796813793103452
1.9535558620689657
1.9274303448275867
1.9013048275862072
1.8751793103448275
1.8490537931034488
1.822928275862069
1.7968027586206896
1.7706772413793106
1.7445517241379311
1.7184262068965523
1.6923006896551727
1.6661751724137932
1.6400496551724142
1.6139241379310347
1.587798620689656
1.5616731034482763
1.5638965517241379
1.5890172413793104
1.6141379310344819
1.6392586206896547
1.6643793103448272
1.6894999999999998
1.7146206896551723
1.7397413793103451
1.7648620689655166
1.7899827586206891
1.815103448275862
1.8402241379310345
1.865344827586207
1.8904655172413785
1.9155862068965512
1.9407068965517238
1.9658275862068963
1.990948275862069
2.0160689655172415
2.041189655172413
2.0663103448275857
2.0914310344827585
2.116551724137931
2.1416724137931036
2.166793103448275
2.159043103448276
2.1464827586206896
2.1339224137931034
2.1213620689655173
2.1088017241379315
2.096241379310345
2.0836810344827588
2.0711206896551726
2.058560344827586
2.0460000000000003
2.033439655172414
2.020879310344828
2.0083189655172413
1.9957586206896551
1.983198275862069
1.9706379310344833
1.9580775862068969
1.9455172413793105
1.9329568965517243
1.920396551724138
1.9078362068965522
1.8952758620689658
1.8827155172413796
1.8701551724137933
1.862405172413793
1.8749655172413795
1.8875258620689652
1.9000862068965516
1.9126465517241378
1.9252068965517242
1.9377672413793106
1.9503275862068963
1.9628879310344824
1.9754482758620688
1.988008620689655
2.0005689655172416
2.0131293103448273
2.0256896551724135
2.0382499999999997
2.0508103448275863
2.0633706896551725
2.075931034482758
2.0884913793103443
2.101051724137931
2.113612068965517
2.1261724137931033
2.13873275862069
2.1512931034482756
2.163853448275862
2.163586206896552
2.1510258620689657
2.138465517241379
2.1259051724137934
2.1133448275862072
2.100784482758621
2.0882241379310345
2.0756637931034483
2.063103448275862
2.0505431034482764
2.03798275862069
2.0254224137931036
2.0128620689655174
2.000301724137931
1.9877413793103453
1.975181034482759
1.9626206896551728
1.9500603448275864
1.9375
1.9249396551724143
1.912379310344828
1.8998189655172417
1.8872586206896553
1.8746982758620692
1.8621379310344834
1.8608337931034484
1.8618386206896553
1.8628434482758622
1.8638482758620691
1.864853103448276
1.8658579310344827
1.8668627586206896
1.8678675862068965
1.8688724137931034
1.8698772413793103
1.8708820689655172
1.8718868965517241
1.872891724137931
1.873896551724138
1.8749013793103448
1.8759062068965517
1.8769110344827586
1.8779158620689655
1.8789206896551724
1.8799255172413794
1.8809303448275863
1.8819351724137932
1.88294
1.883944827586207
1.8848
1.8848
1.8848
1.8848
1.8848
1.8848
1.8848
1.8848
1.8848
1.8848
1.8848
1.8848
1.8848
1.8848
1.8848
1.8848
1.8848
1.8848
1.8848
1.8848
1.8848
1.8848
1.8848
1.8848
1.8848
1.8784503448275867
1.8648851724137934
1.85132
1.837754827586207
1.8241896551724144
1.810624482758621
1.7970593103448278
1.7834941379310347
1.7699289655172414
1.7563637931034488
1.7427986206896557
1.7292334482758625
1.7156682758620692
1.7021031034482759
1.6885379310344835
1.6749727586206902
1.6614075862068969
1.6478424137931038
1.6342772413793105
1.6207120689655172
1.6071468965517246
1.5935817241379315
1.5800165517241382
1.5664513793103452
1.5528862068965519
1.5598879310344822
1.5724482758620686
1.585008620689655
1.5975689655172411
1.6101293103448275
1.622689655172414
1.6352499999999996
1.6478103448275858
1.6603706896551722
1.6729310344827586
1.6854913793103448
1.6980517241379307
1.7106120689655169
1.7231724137931033
1.7357327586206897
1.7482931034482758
1.7608534482758615
1.773413793103448
1.7859741379310343
1.7985344827586205
1.8110948275862069
1.8236551724137926
1.836215517241379
1.8487758620689654
1.86
1.86
1.86
1.86
1.86
1.86
1.86
1.86
1.86
1.86
1.86
1.86
1.86
1.86
1.86
1.86
1.86
1.86
1.86
1.86
1.86
1.86
1.86
1.86
1.86
1.849310344827586
1.8241896551724146
1.799068965517243
1.7739482758620693
1.7488275862068978
1.7237068965517242
1.6985862068965525
1.673465517241381
1.6483448275862074
1.6232241379310357
1.598103448275862
1.5729827586206906
1.5478620689655167
1.5227413793103453
1.4976206896551738
1.4725000000000001
1.4473793103448285
1.4222586206896548
1.3971379310344831
1.3720172413793117
1.346896551724138
1.3217758620689666
1.296655172413793
1.2715344827586212
1.2464137931034496
1.258706896551724
1.2838275862068955
1.3089482758620692
1.3340689655172406
1.3591896551724123
1.384310344827586
1.4094310344827576
1.4345517241379313
1.4596724137931028
1.4847931034482742
1.509913793103448
1.5350344827586195
1.5601551724137932
1.5852758620689649
1.6103965517241363
1.63551724137931
1.6606379310344814
1.6857586206896553
1.7108793103448268
1.7359999999999984
1.761120689655172
1.7862413793103435
1.8113620689655172
1.8364827586206887
1.8591982758620689
1.8466379310344831
1.8340775862068974
1.8215172413793106
1.8089568965517246
1.7963965517241378
1.783836206896552
1.7712758620689664
1.7587155172413795
1.7461551724137938
1.7335948275862068
1.721034482758621
1.7084741379310353
1.6959137931034485
1.6833534482758628
1.670793103448276
1.6582327586206902
1.6456724137931042
1.6331120689655174
1.6205517241379317
1.6079913793103449
1.5954310344827591
1.5828706896551734
1.5703103448275866
1.5577500000000006
1.5596206896551725
1.584741379310344
1.6098620689655176
1.634982758620689
1.6601034482758608
1.6852241379310344
1.7103448275862059
1.7354655172413795
1.7605862068965512
1.7857068965517227
1.8108275862068963
1.835948275862068
1.8610689655172417
1.886189655172413
1.9113103448275846
1.9364310344827582
1.9615517241379299
1.9866724137931036
2.011793103448275
2.0369137931034467
2.0620344827586203
2.087155172413792
2.1122758620689654
2.137396551724137
2.162517241379309
2.178818965517241
2.1913793103448267
2.2039396551724137
2.2164999999999995
2.229060344827585
2.2416206896551722
2.254181034482758
2.2667413793103446
2.2793017241379303
2.2918620689655165
2.304422413793103
2.316982758620689
2.329543103448276
2.3421034482758616
2.354663793103448
2.367224137931034
2.37978448275862
2.3923448275862067
2.4049051724137924
2.4174655172413795
2.430025862068965
2.442586206896551
2.4551465517241375
2.4677068965517237
2.4794655172413793
2.454344827586208
2.429224137931036
2.4041034482758623
2.378982758620691
2.353862068965517
2.3287413793103457
2.3036206896551743
2.2785000000000006
2.2533793103448287
2.228258620689655
2.2031379310344836
2.178017241379312
2.1528965517241385
2.127775862068967
2.1026551724137934
2.0775344827586215
2.052413793103448
2.0272931034482764
2.002172413793105
1.9770517241379313
1.9519310344827598
1.9268103448275862
1.9016896551724145
1.876568965517243
1.86
1.86
1.86
1.86
1.86
1.86
1.86
1.86
1.86
1.86
1.86
1.86
1.86
1.86
1.86
1.86
1.86
1.86
1.86
1.86
1.86
1.86
1.86
1.86
1.86
1.86
1.86
1.86
1.86
1.86
1.86
1.86
1.86
1.86
1.86
1.86
1.86
1.86
1.86
1.86
1.86
1.86
1.86
1.86
1.86
1.86
1.86
1.86
1.86
1.86
1.8845862068965509
1.9097068965517223
1.934827586206896
1.9599482758620677
1.9850689655172413
2.0101896551724128
2.0353103448275864
2.060431034482758
2.0855517241379293
2.110672413793103
2.135793103448275
2.1609137931034486
2.18603448275862
2.2111551724137914
2.236275862068965
2.2613965517241366
2.2865172413793102
2.311637931034482
2.3367586206896536
2.3618793103448272
2.3869999999999987
2.4121206896551723
2.437241379310344
2.4623620689655157
2.4762586206896553
2.4636982758620696
2.451137931034483
2.438577586206897
2.426017241379311
2.4134568965517245
2.4008965517241387
2.3883362068965517
2.375775862068966
2.3632155172413802
2.350655172413793
2.3380948275862075
2.325534482758621
2.312974137931035
2.3004137931034494
2.2878534482758623
2.2752931034482766
2.2627327586206896
2.250172413793104
2.2376120689655172
2.2250517241379315
2.212491379310346
2.1999310344827587
2.187370689655173
2.174810344827586
2.16535
2.1578137931034487
2.150277586206897
2.1427413793103454
2.135205172413793
2.1276689655172416
2.12013275862069
2.112596551724138
2.1050603448275864
2.0975241379310345
2.089987931034483
2.0824517241379317
2.0749155172413793
2.067379310344828
2.059843103448276
2.0523068965517246
2.044770689655173
2.037234482758621
2.0296982758620694
2.0221620689655175
2.0146258620689657
2.007089655172414
1.9995534482758623
1.992017241379311
1.9844810344827588
1.984
1.984
1.984
1.984
1.984
1.984
1.984
1.984
1.984
1.984
1.984
1.984
1.984
1.984
1.984
1.984
1.984
1.984
1.984
1.984
1.984
1.984
1.984
1.984
1.9849620689655172
1.988730172413793
1.9924982758620688
1.9962663793103446
2.0000344827586205
2.003802586206896
2.007570689655172
2.011338793103448
2.015106896551724
2.018875
2.0226431034482757
2.0264112068965514
2.0301793103448276
2.0339474137931033
2.0377155172413794
2.041483620689655
2.045251724137931
2.0490198275862066
2.0527879310344823
2.0565560344827585
2.060324137931034
2.06409224137931
2.067860344827586
2.071628448275862
2.075396551724138
2.064733620689656
2.0433810344827603
2.022028448275863
2.0006758620689666
1.9793232758620691
1.9579706896551734
1.9366181034482777
1.91526551724138
1.8939129310344842
1.8725603448275865
1.8512077586206908
1.829855172413793
1.8085025862068973
1.7871500000000016
1.7657974137931038
1.7444448275862081
1.7230922413793104
1.7017396551724147
1.6803870689655187
1.6590344827586212
1.6376818965517255
1.6163293103448277
1.594976724137932
1.573624137931036
1.5522715517241386
1.5387758620689662
1.5262155172413794
1.5136551724137937
1.501094827586208
1.488534482758621
1.4759741379310354
1.4634137931034485
1.4508534482758626
1.4382931034482769
1.42573275862069
1.4131724137931043
1.4006120689655175
1.3880517241379318
1.3754913793103458
1.362931034482759
1.3503706896551733
1.3378103448275864
1.3252500000000007
1.312689655172415
1.3001293103448281
1.2875689655172422
1.2750086206896554
1.2624482758620696
1.2498879310344828
1.2426724137931018
1.2552327586206886
1.2677931034482757
1.2803534482758625
1.2929137931034471
1.305474137931034
1.3180344827586208
1.3305948275862054
1.3431551724137925
1.3557155172413793
1.368275862068964
1.3808362068965507
1.3933965517241376
1.4059568965517244
1.418517241379309
1.431077586206896
1.443637931034483
1.4561982758620675
1.4687586206896543
1.4813189655172412
1.493879310344828
1.5064396551724126
1.5189999999999997
1.5315603448275865
1.5441206896551711
1.556681034482758
1.5692413793103448
1.5818017241379294
1.5943620689655165
1.6069224137931033
1.6194827586206901
1.6320431034482747
1.6446034482758616
1.6571637931034484
1.6697241379310332
1.68228448275862
1.694844827586207
1.7074051724137915
1.7199655172413784
1.7325258620689652
1.745086206896552
1.7576465517241369
1.7702068965517237
1.7827672413793105
1.7953275862068951
1.807887931034482
1.8204482758620688
1.8330086206896556
1.8455689655172405
1.8581293103448273
1.849310344827586
1.8367500000000014
1.8241896551724146
1.8116293103448278
1.799068965517243
1.786508620689656
1.7739482758620693
1.7613879310344824
1.7488275862068978
1.736267241379311
1.7237068965517242
1.7111465517241393
1.6985862068965525
1.6860258620689657
1.673465517241381
1.6609051724137942
1.6483448275862074
1.6357844827586203
1.6232241379310357
1.6106637931034489
1.598103448275862
1.5855431034482774
1.5729827586206906
1.5604224137931038
1.5521379310344834
1.564698275862068
1.5772586206896548
1.5898189655172417
1.6023793103448263
1.6149396551724131
1.6275
1.6400603448275848
1.6526206896551716
1.6651810344827584
1.6777413793103453
1.69030172413793
1.702862068965517
1.7154224137931038
1.7279827586206884
1.7405431034482752
1.753103448275862
1.7656637931034467
1.7782241379310335
1.7907844827586206
1.8033448275862074
1.815905172413792
1.8284655172413788
1.8410258620689657
1.8535862068965503
1.845248275862071
1.8151034482758626
1.7849586206896593
1.7548137931034509
1.7246689655172425
1.694524137931034
1.6643793103448308
1.6342344827586224
1.6040896551724138
1.5739448275862107
1.5438000000000023
1.5136551724137939
1.4835103448275853
1.4533655172413822
1.4232206896551736
1.3930758620689652
1.362931034482762
1.3327862068965537
1.302641379310345
1.2724965517241418
1.2423517241379334
1.212206896551725
1.1820620689655166
1.1519172413793133
1.1217724137931049
1.1212806896551726
1.1278120689655167
1.1343434482758616
1.1408748275862068
1.147406206896551
1.1539375862068961
1.1604689655172413
1.1670003448275863
1.1735317241379304
1.1800631034482756
1.1865944827586208
1.1931258620689646
1.1996572413793098
1.206188620689655
1.2127199999999991
1.2192513793103443
1.2257827586206893
1.2323141379310345
1.2388455172413786
1.2453768965517238
1.251908275862069
1.2584396551724129
1.264971034482758
1.2715024137931032
1.2770075862068964
1.2755003448275863
1.2739931034482759
1.2724858620689654
1.2709786206896552
1.269471379310345
1.2679641379310345
1.2664568965517242
1.2649496551724138
1.2634424137931035
1.261935172413793
1.2604279310344828
1.2589206896551723
1.257413448275862
1.2559062068965519
1.2543989655172414
1.252891724137931
1.251384482758621
1.2498772413793104
1.24837
1.2468627586206895
1.2453555172413795
1.243848275862069
1.2423410344827586
1.2408337931034485
1.2456120689655164
1.2581724137931032
1.27073275862069
1.2832931034482746
1.2958534482758615
1.3084137931034485
1.3209741379310331
1.33353448275862
1.3460948275862068
1.3586551724137914
1.3712155172413782
1.383775862068965
1.3963362068965521
1.4088965517241367
1.4214568965517236
1.4340172413793104
1.446577586206895
1.4591379310344819
1.4716982758620687
1.4842586206896535
1.4968189655172404
1.5093793103448272
1.521939655172414
1.5344999999999986
1.5470603448275857
1.55
1.55
1.55
1.55
1.55
1.55
1.55
1.55
1.55
1.55
1.55
1.55
1.55
1.55
1.55
1.55
1.55
1.55
1.55
1.55
1.55
1.55
1.55
1.55
1.551411034482759
1.5679906896551707
1.5845703448275854
1.60115
1.6177296551724119
1.6343093103448265
1.6508889655172412
1.667468620689653
1.6840482758620676
1.7006279310344823
1.7172075862068967
1.7337872413793085
1.7503668965517232
1.7669465517241378
1.7835262068965496
1.8001058620689643
1.816685517241379
1.8332651724137936
1.8498448275862054
1.86642448275862
1.8830041379310347
1.8995837931034463
1.916163448275861
1.9327431034482756
1.9493227586206874
1.9567627586206902
1.9507337931034485
1.9447048275862069
1.9386758620689661
1.9326468965517245
1.9266179310344829
1.9205889655172421
1.9145600000000005
1.9085310344827588
1.902502068965518
1.8964731034482765
1.8904441379310348
1.884415172413793
1.8783862068965524
1.8723572413793108
1.866328275862069
1.8602993103448284
1.8542703448275868
1.848241379310345
1.8422124137931044
1.8361834482758628
1.830154482758621
1.8241255172413793
1.8180965517241385
1.812067586206897
1.7860489655172418
1.752387241379315
1.718725517241382
1.6850637931034493
1.6514020689655164
1.6177403448275895
1.5840786206896569
1.550416896551724
1.5167551724137973
1.4830934482758644
1.4494317241379315
1.4157700000000046
1.382108275862072
1.3484465517241393
1.3147848275862064
1.2811231034482795
1.2474613793103466
1.213799655172414
1.180137931034487
1.1464762068965544
1.1128144827586215
1.0791527586206946
1.0454910344827617
1.011829310344829
0.9800489655172415
0.9905996551724127
1.0011503448275856
1.0117010344827586
1.0222517241379296
1.0328024137931027
1.0433531034482755
1.0539037931034485
1.0644544827586198
1.0750051724137926
1.0855558620689656
1.0961065517241366
1.1066572413793097
1.1172079310344827
1.1277586206896537
1.1383093103448267
1.1488599999999995
1.1594106896551726
1.1699613793103438
1.1805120689655166
1.1910627586206897
1.2016134482758607
1.2121641379310337
1.2227148275862068
1.2332655172413778
1.2354568965517252
1.2228965517241384
1.2103362068965515
1.197775862068967
1.18521551724138
1.1726551724137932
1.1600948275862086
1.1475344827586218
1.1349741379310347
1.122413793103448
1.1098534482758633
1.0972931034482765
1.0847327586206896
1.072172413793105
1.0596120689655182
1.0470517241379311
1.0344913793103465
1.0219310344827597
1.0093706896551728
0.996810344827586
0.9842500000000014
0.9716896551724146
0.9591293103448276
0.946568965517243
0.9340086206896561
0.9284606896551725
0.9261998275862072
0.9239389655172416
0.9216781034482759
0.9194172413793104
0.9171563793103451
0.9148955172413795
0.9126346551724138
0.9103737931034486
0.908112931034483
0.9058520689655173
0.903591206896552
0.9013303448275864
0.8990694827586208
0.8968086206896552
0.8945477586206899
0.8922868965517243
0.8900260344827586
0.8877651724137934
0.8855043103448278
0.8832434482758621
0.8809825862068965
0.8787217241379313
0.8764608620689656
0.8742
FIELD FieldData 2
Curvature 1 1161 double
0.0435945159185851
0.0443580408975211
0.0451349483279604
0.0459252537133877
0.0467289801095699
0.0475461576266078
0.0483768229253567
0.0492210187083311
0.0500787932049742
0.0509501996509577
0.051835295761
0.0527341259701627
0.0536466677116998
0.0545728799131843
0.0555127192992187
0.0564661398249115
0.0574330920864767
0.0584135227092446
0.0594073737133168
0.0604145818570785
0.0614350779587335
0.0624687714720621
0.063515504448437
0.0645750929554089
0.065647340731707
0.066732038380062
0.0678289625381655
0.0689378750294408
0.0700585219954715
0.0711906330120708
0.0723339201911574
0.0734879799701004
0.0746519928562861
0.0758250013541569
0.0770060044103786
0.0781939564454912
0.07938776643093
0.0805862970236226
0.0817883637710332
0.0829927344000744
0.0841981282038607
0.0854032899716224
0.0866072179187834
0.0878089488941619
0.0890074850186576
0.0902017936140026
0.0913908072545666
0.0925734239507631
0.0937485074724451
0.0949148878204183