# vtk DataFile Version 2.0
Vessel Segment
ASCII
DATASET POLYDATA
POINTS 1151 float
-0.182292628948713 -0.127605238473438 0.0353763195896856
-0.203390631788573 -0.0618105760946851 0.0132891213763127
-0.224245553134377 0.0033788201028875 -0.0096291514018252
-0.24486699108519 0.0679607083485298 -0.0333664119183604
-0.265264543712889 0.131932846891818 -0.0579105733504115
-0.285447808958769 0.195292994066323 -0.0832495489101384
-0.30542638453015 0.258038908353272 -0.109371251876297
-0.32520986779698 0.320168348445223 -0.136263595625791
-0.344807855688446 0.381679073309722 -0.163914493665232
-0.364229944589574 0.442568842252976 -0.192311859662489
-0.383485730237839 0.502835414983517 -0.221443607478243
-0.402584807617302 0.562476551677568 -0.251297651198016
-0.421536770788498 0.621490013088563 -0.281861905176418
-0.440351212555258 0.679873560768768 -0.313124284112438
-0.459037724067286 0.737624957335049 -0.345072703136958
-0.477605894420264 0.794741966736348 -0.37769507790074
-0.496065310255958 0.851222354521156 -0.410979324662412
-0.514425555362325 0.907063888104983 -0.444913360376452
-0.532696210273616 0.962264337037831 -0.479485102781173
-0.550886851870486 1.01682147327167 -0.514682470486713
-0.569007052980099 1.0707330714279 -0.550493383063014
-0.587066381952708 1.12399690907712 -0.586905761137684
-0.605074401626637 1.17661076733828 -0.623907526750478
-0.623040666740731 1.22857243228854 -0.661486604359217
-0.640974720735202 1.27987969669263 -0.69963092210234
-0.658886092528951 1.33053036174439 -0.738328413071318
-0.676784293296894 1.38052223880832 -0.777567016583078
-0.694678813247283 1.42985315116123 -0.817334679452415
-0.712579118399031 1.47852093573374 -0.857619357264418
-0.730494647359034 1.52652344485191 -0.898409015646882
-0.748434808099496 1.57385854797879 -0.939691631542729
-0.766408974742238 1.62052413345076 -0.981455194482496
-0.784426484524685 1.66651811007684 -1.02368770785857
-0.802496635227027 1.71183840839044 -1.06637719020384
-0.820628682781053 1.7564829817641 -1.10951167647218
-0.838831838885974 1.800449807519 -1.15307921931888
-0.857115268624247 1.84373688803441 -1.19706789038114
-0.875488088077397 1.88634225185725 -1.24146578155861
-0.89395936194184 1.92826395481149 -1.28626100629385
-0.912538101144709 1.96950008110773 -1.33144170085281
-0.931233260459669 2.01004874445263 -1.37699602560532
-0.950053736138739 2.04990808915059 -1.42291216629977
-0.969008363959821 2.08907629100142 -1.46917833518499
-0.988105918329541 2.12755155768042 -1.51578277174475
-1.00735511180181 2.16533212891439 -1.56271374327959
-1.02676459461238 2.20241627664988 -1.60995954548272
-1.04634295421337 2.23880230522144 -1.65750850301597
-1.06609871480786 2.27448855151984 -1.70534897008569
-1.08604033688441 2.30947338516027 -1.75346933101877
-1.10617621675162 2.34375520865064 -1.80185800083848
-1.12651468607268 2.37733245755973 -1.85050342584044
-1.14706401135403 2.41020360071457 -1.89939408419171
-1.16783239224132 2.4423671411539 -1.9485184871306
-1.1888279567875 2.47382161900116 -1.99786518169175
-1.21005875552821 2.50456561509367 -2.04742275403209
-1.2315327555113 2.53459775464091 -2.09717983277979
-1.25325783432631 2.56391671088274 -2.14712509238333
-1.27524177413397 2.5925212087477 -2.19724725646044
-1.29749225569573 2.62041002851121 -2.24753510114721
-1.32001685240321 2.64758200945388 -2.29797745844702
-1.34282302430775 2.67403605351973 -2.3485632195796
-1.36591811213259 2.69977112899868 -2.39928133834211
-1.3893093308349 2.72478627483796 -2.45012083478399
-1.41300376202527 2.74908060655036 -2.50107079967849
-1.43700834593704 2.77265332275142 -2.55212039930788
-1.46132987337829 2.79550371172085 -2.60325888026085
-1.48597497768388 2.8176311579639 -2.65447557422978
-1.51095012666746 2.83903514877285 -2.70575990280814
-1.53626161457348 2.85971528078833 -2.75710138228782
-1.56191555402921 2.87967126656078 -2.80848962845645
-1.58791786799679 2.89890294111184 -2.85991436139474
-1.61427428178293 2.91741026847017 -2.91136541024446
-1.64099031655003 2.9351933475415 -2.96283271721246
-1.66807128663817 2.95225241628881 -3.01430633963544
-1.69552229838856 2.96858785524674 -3.06577645128083
-1.72334824902455 2.98420019101042 -3.11723334361824
-1.7515538255328 2.99909009972428 -3.16866742709096
-1.78014350354434 3.0132584105709 -3.22006923238744
-1.80912154621568 3.02670610925981 -3.27142941171271
-1.83849200310992 3.03943434151631 -3.32273874005993
-1.86825870907787 3.05144441657032 -3.3739881164818
-1.89842528313351 3.06273781065208 -3.42516856536955
-1.92899512718387 3.07331617066791 -3.47627123792646
-1.95997142438935 3.08318131833283 -3.52728741413529
-1.99135713737826 3.09233525448312 -3.57820850492026
-2.02315500645588 3.10078016339583 -3.62902605431652
-2.0553675478135 3.10851841710835 -3.67973174163967
-2.08799705173745 3.11555257973785 -3.7303173836552
-2.12104558081808 3.12188541180086 -3.78077493674795
-2.15451496815886 3.12751987453273 -3.83109649909163
-2.18840681558533 3.13245913420719 -3.88127431281828
-2.22272249189488 3.13670656641811 -3.93130076616845
-2.2574631321642 3.14026575938037 -3.98116839514008
-2.29262963974196 3.14314051474071 -4.03086988386475
-2.32822268929924 3.14533484740763 -4.08039806448255
-2.36424272992068 3.14685298534362 -4.12974591699779
-2.40068998819559 3.14769936935732 -4.17890656913456
-2.43756447130908 3.14787865289574 -4.2278732961924
-2.47486597013318 3.14739570183643 -4.27663952090193
-2.51259406231799 3.14625559427969 -4.32519881328047
-2.55074811538279 3.14446362034076 -4.37354489048767
-2.58932728981975 3.14202528192148 -4.42167161667524
-2.6283305425242 3.13894629194847 -4.46957300268287
-2.66775663105404 3.13523257225688 -4.51724320534367
-2.70760411821579 3.13089025094069 -4.56467652663593
-2.7478713766631 3.12592565968243 -4.61186741282879
-2.78855659349537 3.12034533108293 -4.65881045362808
-2.8296577748563 3.11415599599109 -4.70550038132207
-2.87117275053247 3.10736458083359 -4.75193206992721
-2.91309917855191 3.09997820494464 -4.7981005343339
-2.95543454978268 3.09200417789577 -4.8440009294523
-2.9981761925193 3.08344999683514 -4.88962854937788
-3.04132127675364 3.07432334407802 -4.93497882707304
-3.08486681764491 3.06463208533426 -4.98004733535837
-3.12880967867399 3.05438426818679 -5.02482978841997
-3.17314657478574 3.04358812057983 -5.06932204333657
-3.21787407553127 3.03225204930698 -5.11352010160658
-3.2629886082102 3.02038463849948 -5.15742011067532
-3.30848646101289 3.00799464811427 -5.201018365462
-3.35436378616279 2.99509101242223 -5.24431130988697
-3.40061660305862 2.9816828384963 -5.28729553839875
-3.44724080144933 2.9677794046477 -5.32996779746262
-3.49423214545758 2.9533901575115 -5.37232498604645
-3.54158627975735 2.9385247057035 -5.4143641535613
-3.58929873660017 2.92319281212647 -5.45608249679926
-3.63736494287397 2.90740438622449 -5.49747735683276
-3.68578022716191 2.89116947623717 -5.53854621591386
-3.73453982680123 2.87449826145402 -5.57928669437358
-3.78363889494213 2.85740104446868 -5.61969654752116
-3.83307250760659 2.83988824343324 -5.65977366254341
-3.88283567074723 2.82197038431254 -5.69951605540398
-3.93292332728261 2.80365809316033 -5.73892186776663
-3.98333036351985 2.78496208896423 -5.7779893645413
-4.03405161402229 2.76589317793459 -5.81671693301125
-4.08508186586436 2.7464622483621 -5.85510308258301
-4.13641586286302 2.72668026549732 -5.89314644456027
-4.18804830980916 2.7065582664302 -5.9308457719178
-4.23997387669896 2.68610735496959 -5.96819993907535
-4.2921872029653 2.66533869652273 -6.00520794167156
-4.34468290170917 2.6442635129748 -6.04186889633785
-4.39745556393105 2.62289307756842 -6.07818204047235
-4.4504997627613 2.60123870977712 -6.11414673202602
-4.50381005766495 2.57931177002274 -6.14976244960685
-4.55738099858132 2.55712365399611 -6.18502879339146
-4.61120713003798 2.53468578682178 -6.21994548635474
-4.66528299526382 2.51200961721654 -6.25451237551174
-4.71960314030197 2.48910661164802 -6.28872943315952
-4.77416211812285 2.46598824849335 -6.32259675811908
-4.82895449273715 2.44266601219769 -6.3561145769772
-4.88397484330882 2.41915138743287 -6.38928324532835
-4.93921776826811 2.39545585325599 -6.42210324901655
-4.99467788941168 2.37159087727506 -6.45457520535816
-5.05034985566875 2.34756790999835 -6.48669986386833
-5.1062283460194 2.32339837965007 -6.5184781057274
-5.16230807207887 2.29909368716966 -6.54991094275092
-5.21858378066891 2.27466520121817 -6.58099951634069
-5.27505025638931 2.25012425318471 -6.61174509643564
-5.33170232418925 2.22548213219276 -6.64214908046282
-5.38853485193877 2.20075008010662 -6.67221299228839
-5.44554275300019 2.1759392865378 -6.70193848116852
-5.50272098879956 2.15106088385136 -6.73132732070041
-5.56006457138814 2.12612594217948 -6.76038140777384
-5.61756856574604 2.10114546462036 -6.78910276153918
-5.6752280914313 2.07613038290767 -6.81749352241707
-5.73303832397103 2.05109155326543 -6.84555595112444
-5.79099449624266 2.02603975227 -6.87329242770121
-5.84909189985519 2.00098567271209 -6.90070545053701
-5.90732588653047 1.97593991945871 -6.92779763539784
-5.96569186948441 1.95091300531519 -6.95457171445278
-6.02418532480828 1.92591534688718 -6.98103053530066
-6.08280179284989 1.9009572604426 -7.00717705999679
-6.14153687957254 1.87604895781828 -7.03301436406239
-6.20038625733151 1.85120054348596 -7.05854563504673
-6.25934566417262 1.82642201456155 -7.08377416995348
-6.31841090254844 1.80172326197385 -7.10870337221968
-6.37757783801213 1.77711407167782 -7.13333674867754
-6.43684239791126 1.75260412586793 -7.1576779065162
-6.49620057008163 1.72820300419138 -7.18173055024349
-6.55564840154116 1.70392018496151 -7.20549847864772
-6.61518199718364 1.67976504637098 -7.22898558175945
-6.67479751847265 1.65574686770516 -7.25219583781326
-6.73449118223004 1.63187483036299 -7.2751333103206
-6.79425926188699 1.60815801387553 -7.29780214803125
-6.85409809498608 1.5846053792262 -7.3202065922271
-6.91400409314584 1.5612257471687 -7.34235098690459
-6.97397375211996 1.53802777635246 -7.36423978906818
[...]
POINT_DATA 1151
SCALARS MaximumInscribedSphereRadius float
LOOKUP_TABLE default
2.48
2.4843669565217392
2.4887339130434785
2.4931008695652173
2.4974678260869565
2.5018347826086957
2.506201739130435
2.5105686956521738
2.514935652173913
2.5193026086956523
2.5236695652173915
2.5280365217391303
2.5324034782608695
2.5367704347826088
2.541137391304348
2.545504347826087
2.549871304347826
2.5542382608695653
2.5586052173913045
2.5629721739130438
2.5673391304347826
2.571706086956522
2.576073043478261
2.5804400000000003
2.584806956521739
2.5891739130434783
2.5935408695652176
2.597907826086957
2.6022747826086956
2.606641739130435
2.611008695652174
2.6153756521739133
2.6197426086956526
2.6241095652173914
2.6284765217391306
2.63284347826087
2.6372104347826086
2.641577391304348
2.645944347826087
2.644488695652174
2.640121739130435
2.635754782608696
2.6313878260869568
2.6270208695652175
2.6226539130434783
2.6182869565217395
2.6139200000000002
2.609553043478261
2.6051860869565218
2.600819130434783
2.5964521739130437
2.5920852173913045
2.5877182608695652
2.583351304347826
2.578984347826087
2.574617391304348
2.5702504347826087
2.5658834782608695
2.5615165217391307
2.5571495652173915
2.552782608695652
2.548415652173913
2.544048695652174
2.539681739130435
2.5353147826086957
2.5309478260869565
2.5265808695652177
2.5222139130434784
2.517846956521739
2.51348
2.509113043478261
2.504746086956522
2.5003791304347827
2.4960121739130434
2.491645217391304
2.4872782608695654
2.482911304347826
2.4773043478260868
2.469217391304348
2.461130434782609
2.4530434782608697
2.4449565217391305
2.4368695652173913
2.428782608695652
2.420695652173913
2.4126086956521737
2.404521739130435
2.396434782608696
2.3883478260869566
2.3802608695652174
2.3721739130434782
2.364086956521739
2.356
2.347913043478261
2.3398260869565215
2.3317391304347828
2.3236521739130436
2.3155652173913044
2.307478260869565
2.299391304347826
2.291304347826087
2.2832173913043476
2.275130434782609
2.2670434782608693
2.2589565217391305
2.2508695652173913
2.242782608695652
2.234695652173913
2.226608695652174
2.2185217391304346
2.2104347826086954
2.2023478260869567
2.1942608695652175
2.1861739130434783
2.178086956521739
2.17
2.178086956521739
2.1861739130434783
2.1942608695652175
2.2023478260869562
2.2104347826086954
2.2185217391304346
2.226608695652174
2.234695652173913
2.242782608695652
2.2508695652173913
2.25895652173913
2.2670434782608697
2.2751304347826085
2.2832173913043476
2.291304347826087
2.299391304347826
2.307478260869565
2.3155652173913044
2.3236521739130436
2.3317391304347823
2.3398260869565215
2.3479130434782607
2.356
2.364086956521739
2.3721739130434782
2.3802608695652174
2.3883478260869566
2.3964347826086954
2.4045217391304345
2.4126086956521737
2.420695652173913
2.428782608695652
2.4368695652173913
2.4449565217391305
2.453043478260869
2.461130434782609
2.4692173913043476
2.4773043478260868
2.469648695652174
2.454121739130435
2.4385947826086958
2.4230678260869567
2.407540869565217
2.3920139130434785
2.376486956521739
2.36096
2.3454330434782613
2.329906086956522
2.3143791304347827
2.2988521739130436
2.2833252173913046
2.267798260869565
2.2522713043478264
2.236744347826087
2.221217391304348
2.2056904347826087
2.1901634782608697
2.1746365217391306
2.1591095652173915
2.1435826086956524
2.128055652173913
2.1125286956521743
2.0970017391304347
2.0814747826086957
2.0659478260869566
2.0504208695652175
2.0348939130434784
2.0193669565217394
2.0038400000000003
1.9883130434782608
1.9727860869565221
1.9572591304347826
1.9417321739130435
1.9262052173913047
1.9106782608695654
1.895151304347826
1.882913043478261
1.8772521739130434
1.871591304347826
1.865930434782609
1.8602695652173913
1.854608695652174
1.8489478260869567
1.8432869565217391
1.8376260869565217
1.8319652173913044
1.826304347826087
1.8206434782608696
1.8149826086956522
1.8093217391304348
1.8036608695652174
1.798
1.7923391304347827
1.7866782608695653
1.7810173913043479
1.7753565217391305
1.7696956521739131
1.7640347826086957
1.7583739130434783
1.752713043478261
1.7470521739130436
1.7413913043478262
1.7357304347826086
1.7300695652173914
1.724408695652174
1.7187478260869564
1.7130869565217393
1.7074260869565219
1.7017652173913043
1.696104347826087
1.6904434782608695
1.684782608695652
1.679121739130435
1.6734608695652173
1.6678
1.664726956521739
1.6616539130434782
1.6585808695652173
1.6555078260869565
1.6524347826086956
1.6493617391304347
1.6462886956521738
1.643215652173913
1.640142608695652
1.6370695652173914
1.6339965217391303
1.6309234782608695
1.6278504347826088
1.624777391304348
1.6217043478260869
1.6186313043478262
1.6155582608695653
1.6124852173913045
1.6094121739130436
1.6063391304347827
1.6032660869565218
1.600193043478261
1.59712
1.5940469565217392
1.5909739130434783
1.5879008695652175
1.5848278260869566
1.5817547826086957
1.5786817391304349
1.575608695652174
1.5725356521739131
1.5694626086956522
1.5663895652173914
1.5633165217391305
1.5602434782608696
1.5571704347826087
1.5540973913043479
1.551024347826087
1.5392173913043479
1.52304347826087
1.5068695652173916
1.4906956521739132
1.4745217391304353
1.458347826086957
1.4421739130434783
1.4260000000000006
1.409826086956522
1.3936521739130436
1.3774782608695657
1.3613043478260873
1.3451304347826087
1.3289565217391308
1.3127826086956524
1.296608695652174
1.2804347826086961
1.2642608695652178
1.2480869565217394
1.2319130434782615
1.2157391304347829
1.1995652173913045
1.1833913043478266
1.1672173913043482
1.1510434782608696
1.1348695652173917
1.1186956521739133
1.102521739130435
1.086347826086957
1.0701739130434786
1.0540000000000003
1.0378260869565223
1.021652173913044
1.0054782608695654
0.9893043478260874
0.9731304347826091
0.9569565217391306
0.9407826086956527
0.9339895652173911
0.9459582608695651
0.9579269565217392
0.9698956521739133
0.9818643478260864
0.9938330434782605
1.0058017391304346
1.0177704347826086
1.0297391304347827
1.0417078260869568
1.05367652173913
1.065645217391304
1.077613913043478
1.0895826086956522
1.1015513043478262
1.1135200000000003
1.1254886956521735
1.1374573913043475
1.1494260869565216
1.1613947826086957
1.1733634782608697
1.1853321739130438
1.197300869565217
1.209269565217391
1.221238260869565
1.2332069565217392
1.245175652173913
1.257144347826087
1.2691130434782605
1.2810817391304345
1.2930504347826084
1.3050191304347825
1.3169878260869565
1.3289565217391306
1.3409252173913038
1.3528939130434778
1.364862608695652
1.376831304347826
1.3888
1.3849182608695652
1.3810365217391307
1.3771547826086958
1.373273043478261
1.369391304347826
1.3655095652173914
1.3616278260869565
1.3577460869565219
1.3538643478260872
1.3499826086956523
1.3461008695652175
1.3422191304347826
1.3383373913043477
1.3344556521739133
1.3305739130434784
1.3266921739130435
1.3228104347826088
1.318928695652174
1.315046956521739
1.3111652173913044
1.3072834782608698
1.3034017391304349
1.29952
1.2956382608695654
1.2917565217391305
1.2878747826086958
1.283993043478261
1.2801113043478263
1.2762295652173914
1.2723478260869565
1.2684660869565216
1.2645843478260872
1.2607026086956523
1.2568208695652174
1.2529391304347826
1.249057391304348
1.245175652173913
1.2412939130434784
1.24
1.24
1.24
1.24
1.24
1.24
1.24
1.24
1.24
1.24
1.24
1.24
1.24
1.24
1.24
1.24
1.24
1.24
1.24
1.24
1.24
1.24
1.24
1.24
1.24
1.24
1.24
1.24
1.24
1.24
1.24
1.24
1.24
1.24
1.24
1.24
1.24
1.24
1.2453913043478257
1.2615652173913041
1.2777391304347827
1.29391304347826
1.3100869565217383
1.326260869565217
1.3424347826086953
1.358608695652174
1.3747826086956523
1.3909565217391295
1.4071304347826081
1.4233043478260865
1.4394782608695649
1.4556521739130432
1.4718260869565218
1.487999999999999
1.5041739130434775
1.520347826086956
1.5365217391304344
1.552695652173913
1.5688695652173914
1.5850434782608687
1.6012173913043473
1.6173913043478256
1.633565217391304
1.6497391304347824
1.665913043478261
1.6820869565217382
1.6982608695652168
1.7144347826086952
1.7306086956521736
1.7467826086956522
1.7629565217391305
1.779130434782608
1.7953043478260864
1.8114782608695648
1.8276521739130431
1.8438260869565215
1.86
1.8680869565217388
1.876173913043478
1.8842608695652172
1.8923478260869564
1.9004347826086956
1.9085217391304348
1.9166086956521735
1.9246956521739127
1.9327826086956519
1.940869565217391
1.9489565217391305
1.9570434782608697
1.9651304347826082
1.9732173913043476
1.9813043478260868
1.989391304347826
1.9974782608695651
2.0055652173913043
2.013652173913043
2.0217391304347823
2.0298260869565214
2.0379130434782606
2.046
2.054086956521739
2.0621739130434777
2.070260869565217
2.078347826086956
2.0864347826086953
2.0945217391304345
2.1026086956521737
2.1106956521739124
2.1187826086956516
2.126869565217391
2.13495652173913
2.1430434782608696
2.151130434782609
2.159217391304347
2.1673043478260867
2.164608695652174
2.1565217391304348
2.1484347826086956
2.1403478260869564
2.1322608695652177
2.1241739130434785
2.1160869565217393
2.108
2.099913043478261
2.0918260869565217
2.083739130434783
2.075652173913044
2.0675652173913046
2.0594782608695654
2.0513913043478262
2.043304347826087
2.035217391304348
2.027130434782609
2.01904347826087
2.0109565217391308
2.0028695652173916
1.9947826086956522
1.986695652173913
1.9786086956521745
1.9705217391304353
1.9624347826086959
1.9543478260869567
1.9462608695652175
1.9381739130434783
1.9300869565217396
1.9220000000000004
1.9139130434782612
1.905826086956522
1.8977391304347828
1.8896521739130434
1.881565217391305
1.8734782608695657
1.8653913043478263
1.86
1.86
1.86
1.86
1.86
1.86
1.86
1.86
1.86
1.86
1.86
1.86
1.86
1.86
1.86
1.86
1.86
1.86
1.86
1.86
1.86
1.86
1.86
1.86
1.86
1.86
1.86
1.86
1.86
1.86
1.86
1.86
1.86
1.86
1.86
1.86
1.86
1.86
1.86
1.86
1.86
1.86
1.86
1.86
1.86
1.86
1.86
1.86
1.86
1.86
1.86
1.86
1.86
1.86
1.86
1.86
1.86
1.86
1.86
1.86
1.86
1.86
1.86
1.86
1.86
1.86
1.86
1.86
1.86
1.86
1.86
1.86
1.86
1.86
1.86
1.86
1.86
1.8498643478260877
1.834660869565219
1.8194573913043481
1.8042539130434794
1.7890504347826086
1.7738469565217398
1.758643478260869
1.7434400000000005
1.7282365217391318
1.713033043478261
1.6978295652173923
1.6826260869565215
1.6674226086956527
1.652219130434784
1.6370156521739134
1.6218121739130447
1.606608695652174
1.5914052173913051
1.5762017391304344
1.5609982608695656
1.5457947826086968
1.530591304347826
1.5153878260869575
1.5001843478260866
1.484980869565218
1.4697773913043493
1.4545739130434785
1.4393704347826097
1.424166956521739
1.4089634782608704
1.3937599999999994
1.3785565217391307
1.3633530434782621
1.3481495652173914
1.3329460869565226
1.3177426086956519
1.302539130434783
1.2873356521739145
1.2768765217391302
1.2759060869565217
1.274935652173913
1.2739652173913043
1.2729947826086956
1.2720243478260869
1.2710539130434781
1.2700834782608694
1.269113043478261
1.268142608695652
1.2671721739130435
1.2662017391304348
1.265231304347826
1.2642608695652173
1.2632904347826086
1.2623199999999999
1.2613495652173912
1.2603791304347827
1.259408695652174
1.2584382608695652
1.2574678260869565
1.2564973913043478
1.255526956521739
1.2545565217391306
1.2535860869565216
1.2526156521739131
1.2516452173913044
1.2506747826086957
1.249704347826087
1.2487339130434782
1.2477634782608695
1.2467930434782608
1.2458226086956523
1.2448521739130434
1.2438817391304349
1.2429113043478262
1.2419408695652174
1.2409704347826087
1.24
1.2332069565217396
1.2264139130434781
1.2196208695652175
1.2128278260869572
1.2060347826086957
1.1992417391304353
1.1924486956521738
1.1856556521739134
1.1788626086956528
1.1720695652173914
1.165276521739131
1.1584834782608695
1.1516904347826091
1.1448973913043476
1.1381043478260873
1.1313113043478267
1.1245182608695654
1.1177252173913048
1.1109321739130433
1.104139130434783
1.0973460869565224
1.090553043478261
1.0837600000000005
1.0769669565217392
1.0701739130434786
1.0633808695652172
1.0565878260869568
1.0497947826086964
1.043001739130435
1.0362086956521743
1.029415652173913
1.0226226086956525
1.015829565217392
1.0090365217391306
1.0022434782608702
0.9954504347826088
0.9886573913043483
0.9818643478260869
0.9787373913043479
0.9774434782608697
0.9761495652173914
0.9748556521739131
0.9735617391304348
0.9722678260869566
0.9709739130434785
0.9696800000000001
0.9683860869565218
0.9670921739130435
0.9657982608695653
0.964504347826087
0.9632104347826088
0.9619165217391306
0.9606226086956522
0.959328695652174
0.9580347826086957
0.9567408695652175
0.9554469565217393
0.9541530434782609
0.9528591304347828
0.9515652173913044
0.9502713043478263
0.9489773913043479
0.9476834782608696
0.9463895652173915
0.9450956521739131
0.943801739130435
0.9425078260869566
0.9412139130434783
0.9399200000000002
0.9386260869565218
0.9373321739130437
0.9360382608695653
0.9347443478260871
0.9334504347826087
0.9321565217391306
0.9308626086956524
0.93
0.93
0.93
0.93
0.93
0.93
0.93
0.93
0.93
0.93
0.93
0.93
0.93
0.93
0.93
0.93
0.93
0.93
0.93
0.93
0.93
0.93
0.93
0.93
0.93
0.93
0.93
0.93
0.93
0.93
0.93
0.93
0.93
0.93
0.93
0.93
0.93
0.93
0.93
0.9219130434782614
0.9138260869565216
0.9057391304347829
0.8976521739130443
0.8895652173913045
0.8814782608695658
0.8733913043478261
0.8653043478260873
0.8572173913043487
0.849130434782609
0.8410434782608702
0.8329565217391305
0.8248695652173919
0.816782608695652
0.8086956521739134
0.8006086956521747
0.7925217391304349
0.7844347826086963
0.7763478260869565
0.7682608695652178
0.7601739130434791
0.7520869565217394
0.7440000000000007
0.7359130434782609
0.7278260869565223
0.7197391304347824
0.7116521739130438
0.7035652173913052
0.6954782608695653
0.6873913043478267
0.679304347826087
0.6712173913043482
0.6631304347826095
0.6550434782608698
0.6469565217391311
0.6388695652173914
0.6307826086956527
0.6226956521739129
0.6253913043478257
0.6334782608695645
0.6415652173913042
0.6496521739130429
0.6577391304347827
0.6658260869565213
0.67391304347826
0.6819999999999998
0.6900869565217385
0.6981739130434782
0.7062608695652169
0.7143478260869567
0.7224347826086953
0.7305217391304341
0.7386086956521738
0.7466956521739124
0.7547826086956523
0.7628695652173909
0.7709565217391297
0.7790434782608694
0.787130434782608
0.7952173913043478
0.8033043478260865
0.8113913043478262
0.819478260869565
0.8275652173913036
0.8356521739130434
0.8437391304347821
0.8518260869565218
0.8599130434782605
0.8679999999999992
0.876086956521739
0.8841739130434776
0.8922608695652174
0.9003478260869561
0.9084347826086958
0.9165217391304346
0.9246086956521732
0.9356608695652171
0.9526434782608684
0.9696260869565219
0.986608695652173
1.0035913043478242
1.0205739130434779
1.037556521739129
1.0545391304347824
1.0715217391304337
1.0885043478260872
1.1054869565217385
1.1224695652173897
1.1394521739130432
1.1564347826086943
1.173417391304348
1.190399999999999
1.2073826086956503
1.2243652173913038
1.241347826086955
1.2583304347826085
1.2753130434782598
1.2922956521739133
1.3092782608695646
1.3262608695652156
1.3432434782608693
1.3602260869565204
1.3772086956521739
1.3941913043478251
1.4111739130434764
1.4281565217391299
1.445139130434781
1.4621217391304344
1.4791043478260857
1.4960869565217392
1.5130695652173904
1.5300521739130417
1.5470347826086952
1.5640173913043465
1.581
1.5801913043478262
1.5793826086956522
1.5785739130434782
1.5777652173913044
1.5769565217391304
1.5761478260869566
1.5753391304347826
1.5745304347826088
1.5737217391304348
1.5729130434782608
1.572104347826087
1.571295652173913
1.5704869565217392
1.5696782608695654
1.5688695652173914
1.5680608695652174
1.5672521739130434
1.5664434782608696
1.5656347826086956
1.5648260869565218
1.564017391304348
1.563208695652174
1.5624
1.561591304347826
1.5607826086956522
1.5599739130434784
1.5591652173913044
1.5583565217391306
1.5575478260869566
1.5567391304347826
1.5559304347826086
1.5551217391304348
1.554313043478261
1.553504347826087
1.5526956521739133
1.5518869565217392
1.5510782608695652
1.5502695652173915
1.5575478260869562
1.5688695652173903
1.580191304347826
1.59151304347826
1.6028347826086957
1.6141565217391298
1.625478260869564
1.6367999999999998
1.648121739130434
1.6594434782608696
1.6707652173913037
1.6820869565217378
1.6934086956521734
1.7047304347826076
1.7160521739130434
1.7273739130434775
1.7386956521739132
1.7500173913043473
1.7613391304347814
1.772660869565217
1.7839826086956512
1.7953043478260868
1.8066260869565212
1.817947826086955
1.829269565217391
1.840591304347825
1.8519130434782607
1.8632347826086948
1.8745565217391305
1.8858782608695646
1.8971999999999989
1.9085217391304345
1.9198434782608687
1.9311652173913043
1.9424869565217384
1.9538086956521725
1.9651304347826082
1.9764521739130423
1.974834782608696
1.9473391304347847
1.9198434782608695
1.892347826086958
1.8648521739130466
1.8373565217391312
1.8098608695652199
1.7823652173913045
1.7548695652173931
1.7273739130434818
1.6998782608695664
1.672382608695655
1.6448869565217397
1.6173913043478283
1.589895652173913
1.5624000000000016
1.5349043478260902
1.5074086956521748
1.4799130434782635
1.452417391304348
1.4249217391304367
1.3974260869565254
1.36993043478261
1.3424347826086986
1.3149391304347833
1.287443478260872
1.2599478260869565
1.2324521739130452
1.2049565217391336
1.1774608695652184
1.149965217391307
1.1224695652173917
1.0949739130434804
1.067478260869565
1.0399826086956536
1.012486956521742
0.9849913043478269
0.9574956521739153
0.93
0.9380869565217387
0.9461739130434774
0.9542608695652172
0.9623478260869558
0.9704347826086956
0.9785217391304343
0.986608695652174
0.9946956521739128
1.0027826086956513
1.0108695652173911
1.0189565217391299
1.0270434782608695
1.0351304347826082
1.043217391304347
1.0513043478260866
1.0593913043478254
1.0674782608695652
1.0755652173913037
1.0836521739130436
1.0917391304347823
1.0998260869565208
1.1079130434782607
1.1159999999999994
1.124086956521739
1.1321739130434778
1.1402608695652166
1.1483478260869562
1.156434782608695
1.1645217391304348
1.1726086956521733
1.1806956521739131
1.1887826086956519
1.1968695652173904
1.2049565217391303
1.213043478260869
1.2211304347826086
1.2292173913043474
1.2373043478260861
1.2453913043478257
1.2534782608695645
1.2615652173913041
1.2696521739130429
1.2777391304347827
1.2858260869565212
1.29391304347826
1.3019999999999998
1.3100869565217383
1.3181739130434782
1.326260869565217
1.3343478260869555
1.3424347826086953
1.350521739130434
1.358608695652174
1.3666956521739124
1.3747826086956523
1.382869565217391
1.3909565217391295
1.3990434782608694
1.4071304347826081
1.4152173913043478
1.4233043478260865
1.4313913043478252
1.4394782608695649
1.4475652173913036
1.4556521739130432
1.463739130434782
1.4718260869565218
1.4799130434782604
1.487999999999999
1.496086956521739
1.5041739130434775
1.5122608695652173
1.520347826086956
1.5284347826086946
1.5365217391304344
1.5446086956521732
1.5446086956521743
1.528434782608697
1.5122608695652173
1.49608695652174
1.4799130434782626
1.463739130434783
1.4475652173913058
1.4313913043478264
1.4152173913043489
1.3990434782608716
1.3828695652173921
1.3666956521739146
1.3505217391304352
1.334347826086958
1.3181739130434782
1.302000000000001
1.2858260869565235
1.269652173913044
1.2534782608695667
1.2373043478260872
1.2211304347826097
1.2049565217391325
1.188782608695653
1.1726086956521755
1.156434782608696
1.1402608695652188
1.1240869565217393
1.1079130434782618
1.0917391304347845
1.075565217391305
1.0593913043478276
1.043217391304348
1.0270434782608708
1.0108695652173934
0.9946956521739139
0.9785217391304365
0.9623478260869569
0.9461739130434796
0.93
FIELD FieldData 2
Curvature 1 1151 double
0.201745701000283
0.20178266686312
0.201774960188639
0.201724568760121
0.201633605924691
0.201504304377044
0.201339009638005
0.201140173272985
0.200910345893895
0.200652169985934
0.200368372598026
0.200061756301353
0.199735185196362
0.199391579320627
0.19903390807035
0.198665182398744
0.198288447050421
0.197906772846052
0.197523249027899
0.197140975673409
0.196763056180971
0.196392584688987
0.196032605351334
0.195686087696313
0.195355917264039
0.195044885726406
0.19475568132788
0.194490879670086
0.194252934864142
0.19404417107564
0.193866774488153
0.193722808061042
0.193614277237035
0.19354306632025
0.193510911270014
0.193519393826815