# vtk DataFile Version 2.0
Vessel Segment
ASCII
DATASET POLYDATA
POINTS 1151 float
-0.109809919539688 -0.201287087326364 0.221209467315613
-0.170115775139436 -0.0873797289750591 0.204134148843204
-0.231017183847132 0.0243180694993558 0.189504180892493
-0.292511528193931 0.133835211710842 0.177277597055996
-0.354596190038805 0.241200602543402 0.167412429532759
-0.417268550121206 0.34644314918892 0.159866708000707
-0.480525987613717 0.449591762185003 0.154598458488992
-0.544365879674718 0.550675356452817 0.151565702250341
-0.608785601001036 0.64972285233493 0.150726454633406
-0.673782523380608 0.746763176633151 0.15203872395511
-0.739354015245136 0.841825263646366 0.155460510373
-0.80549744116658 0.934938056291019 0.16094980466558
-0.872210159893277 1.02613050937013 0.168464584620466
-0.939489518678993 1.11543159829628 0.177962805350041
-1.0073328461516 1.2028703299632 0.189402387214919
-1.07573744512558 1.28847575369991 0.202741203655405
-1.14470058541455 1.37227697222492 0.21793706902295
-1.21421949664376 1.4543031526004 0.234947726411608
-1.28429136106264 1.5345835371864 0.253730835489495
-1.35491330635724 1.61314745459497 0.274243960330247
-1.42608239846282 1.6900243306444 0.296444557244473
-1.497795634317 1.76524369939193 0.320289962522762
-1.57004993307097 1.83883521620918 0.345737377878799
-1.64284212338622 1.91082867604272 0.372743850054331
-1.71616892918932 1.98125403371736 0.401266248124257
-1.79002695536731 2.05014142431796 0.431261240713256
-1.86441267346319 2.11752118357126 0.462685273212414
-1.93932240737129 2.18342386822772 0.495494544995858
-2.01475231903274 2.24788027644329 0.529644986637383
-2.09069839413089 2.31092146816132 0.565092237127083
-2.16715642778675 2.3725787854943 0.601791621087976
-2.24412201003153 2.43288387319291 0.639698125878805
-2.32159050548484 2.49186870138083 0.67876637573701
-2.39955701832385 2.54956559404166 0.718950598408361
-2.47801635145817 2.60600725977163 0.760204588816774
-2.55696296548173 2.66122682261953 0.802481672620289
-2.63639093762477 2.71525785292657 0.845734669767051
-2.71629392070578 2.76813439816636 0.889915858051292
-2.79666510208339 2.81989101378474 0.934976936669302
-2.8774971626084 2.87056279403975 0.980868989775419
-2.95878223557565 2.9201854028415 1.027542450038
-3.04051186620465 2.96879510400422 1.07494706288006
-3.12267698486427 3.01642877621393 1.12303186852095
-3.2052679151866 3.06312388919723 1.17174522920527
-3.28827439592496 3.10891846460571 1.22103487423286
-3.3716856033405 3.15385103631256 1.27084794567342
-3.45549017358887 3.19796061070906 1.32113104408111
-3.53967622510681 3.24128662700117 1.37183027420923
-3.62423138099883 3.28386891750607 1.42289129072476
-3.70914279142377 3.32574766794876 1.47425934392308
-3.79439715598151 3.36696337775856 1.52587932544252
-3.87998074602424 3.40755682052486 1.57769581378926
-3.9658794250103 3.44756900859135 1.62965311492782
-4.05207866388878 3.48704116815559 1.68169529034618
-4.13856355452669 3.52601471850709 1.73376618018648
-4.22531882306065 3.56453125142457 1.78580942618603
-4.3123288432488 3.60263251057319 1.83776849461828
-4.39957764982255 3.64036037090183 1.8895866992338
-4.4870489518384 3.67775681804029 1.94120722420123
-4.57472614602973 3.71486392769658 1.99257314704831
-4.66259233015864 3.75172384505416 2.0436274616028
-4.75063031599482 3.78837876404808 2.09431310130159
-4.83882263259974 3.82487090349301 2.14457297206993
-4.92715150500076 3.86124247521969 2.19435000949427
-5.0155988231706 3.89753564906326 2.24358724556527
-5.10414611063381 3.93379251773047 2.29222787578896
-5.19277449307328 3.97005506166692 2.3402153262978
-5.28146466693675 4.00636511392426 2.38749332096183
-5.37019686804336 4.04276432502744 2.43400594849973
-5.4589508401901 4.07929412784193 2.47969772959002
-5.54770580375834 4.11599570244094 2.52451368398208
-5.63644042462778 4.15290994080789 2.56839939814779
-5.72513279108293 4.19007740725525 2.6113011069851
-5.81376041100852 4.22753828796952 2.65316581119219
-5.90230021707749 4.26533233627257 2.69394140869364
-5.9907285722464 4.30349881771828 2.73357682660709
-6.07902127525083 4.34207645518908 2.77202215320986
-6.1671535661008 4.38110337399258 2.8092287699056
-6.25510013157613 4.42061704695817 2.84514948319092
-6.34283511072189 4.46065423953359 2.87973865662205
-6.43033210034378 4.50125095488154 2.91295234278146
-6.51756416085193 4.54244237927877 2.94474841468782
-6.60450383116294 4.58426283537937 2.97508668273196
-6.691123166596 4.62674575544126 3.00392897487125
-6.77739378582719 4.66992366241691 3.03123920234994
-6.86328691819224 4.71382815134655 3.05698342486285
-6.94877345098925 4.75848987075135 3.08112991571904
-7.03382397678143 4.80393850402664 3.10364922700552
-7.11840884069983 4.85020275083512 3.12451425475089
-7.20249818774609 4.8973103085 3.14370030408908
-7.28606201009514 4.94528785339829 3.16118515442293
-7.36907019441744 4.99416102200144 3.17694912462277
-7.45149256970754 5.04395438275185 3.19097513912865
-7.53329895639805 5.09469138467609 3.20324879634733
-7.61445921597994 5.14639429683394 3.2137584379531
-7.69494330064234 5.19908414741483 3.22249521822333
-7.77472130291236 5.2527806628344 3.22945317337409
-7.85376350529486 5.30750220683103 3.23462929089573
-7.93204042991228 5.36326571956228 3.23802357888849
-8.00952288814438 5.42008665670149 3.23963913539805
-8.08618203026808 5.47797892853421 3.23948221775116
-8.16198939459714 5.53695484013363 3.2375623096464
-8.23691694361852 5.59702505958637 3.23389212987983
-8.3109370671205 5.6581986574232 3.22848749291309
-8.38402257231749 5.72048317410017 3.22136711107632
-8.45614667347476 5.78388468855867 3.2125523945263
-8.52728298153307 5.84840788678542 3.20206725120459
-8.59740549373343 5.91405613037248 3.18993788679567
-8.6664885832418 5.9808315250773 3.1761926046851
-8.73450698877371 6.04873498938269 3.16086160591759
-8.80143580421904 6.11776632305684 3.14397678915521
-8.86725046824182 6.1879242754106 3.12557155156411
-8.93192675323358 6.25920660568206 3.10568061384556
-8.9954407526256 6.33161012343702 3.08433990655614
-9.05776886755475 6.40513072109684 3.0615864805723
-9.11888779350436 6.47976340616349 3.03745841848344
-9.17877450694516 6.55550233344463 3.01199474598503
-9.23740625197622 6.63234083727867 2.98523534327176
-9.29476052696588 6.71027146375982 2.95722085643061
-9.3508150711926 6.78928600296318 2.927992608834
-9.405547851486 6.86937552116979 2.89759251253291
-9.45893704922132 6.9505303917315 2.86606298004232
-9.51096105650893 7.03274029057078 2.83344684632736
-9.56159849572452 7.1159941019077 2.7997873166835
-9.61082824823422 7.20027978862185 2.76512792481749
-9.65862948347335 7.28558426125405 2.72951249132052
-9.70498168802514 7.37189324700808 2.69298508214153
-9.74986469469949 7.45919115875242 2.65558996706038
-9.79325871161171 7.54746096402194 2.61737157816111
-9.83514435126131 7.63668405401964 2.57837446830516
-9.87550265961065 7.72684011261839 2.5386432696046
-9.91431514490139 7.81790698665827 2.49822265134349
-9.95156379964911 7.9098605899309 2.45715726355021
-9.98723110532108 8.00267489267671 2.4154916441455
-10.0213000301925 8.09632194476921 2.37327011174145
-10.05375402694 8.1907719001948 2.33053665788863
-10.0845770302356 8.28599304153269 2.28733483932323
-10.1137534543404 8.38195180443477 2.24370767021419
-10.1412681906981 8.47861280210547 2.19969751441032
-10.1671066055289 8.57593884978166 2.15534597768746
-10.1912545374233 8.67389098921247 2.11069379999556
-10.2136982950111 8.77242851340769 2.06578074836997
-10.2344246565963 8.87150899836528 2.0206455271097
-10.2534208747797 8.97108835251573 1.97532573178727
-10.2706746830471 9.07112087314557 1.92985782052571
-10.2861743024332 9.17155930308946 1.88427708593951
-10.2999084481851 9.27235488742214 1.83861762707572
-10.3118663364261 9.37345743015047 1.79291232135494
-10.3220376908194 9.47481535090545 1.74719279651235
-10.330412749232 9.5763757416342 1.7014894025388
-10.3369822703979 9.67808442329204 1.65583118362177
-10.3417375407263 9.77988600265184 1.61024585011556
-10.3446703848483 9.88172393216636 1.56475975126874
-10.3457731856583 9.98354057757999 1.51939784987389
-10.3450389080943 10.0852772885934 1.47418369767466
-10.3424611230622 10.1868744696457 1.42913941080191
-10.3380340313603 10.2882716506961 1.38428564520991
-10.3317524876039 10.3894075580067 1.33964157211246
-10.3236120241497 10.4902201849236 1.29522485341912
-10.31360887502 10.5906468626597 1.25105161717131
-10.3017399998272 10.6906243310765 1.20713643297852
-10.2880031076393 10.7900888100671 1.16349228802008
-10.2723966793093 10.8889760865693 1.12013057775312
-10.254919985906 10.9872216412532 1.0770611339515
-10.2355731056087 11.0847607908386 1.03429226745097
-10.2143569405431 11.1815288310138 0.991830811459906
-10.191273233617 11.2774611793539 0.949682164870013
-10.1663245853563 11.3724935182395 0.90785033556711
-10.1395144707405 11.4665619377751 0.866337983741859
-10.1108472560387 11.559603078708 0.8251464652005
-10.0803282156454 11.6515542753463 0.784275874675598
-10.0479635487098 11.7423536981169 0.743725089386626
-10.0137603904015 11.8319404867371 0.703491819096349
-9.97772680955932 11.9202548595596 0.663572672656566
-9.93987180097696 12.0072382135324 0.623963231049662
-9.90020527748148 12.092833223797 0.584658120679991
-9.85873806201231 12.1769839432872 0.545651086665267
-9.81548187970008 12.259635902327 0.50693506612795
-9.77044934994548 12.3407362082299 0.468502261486635
-9.72365397849815 12.4202336448964 0.430344213747436
-9.67511014953548 12.4980787724131 0.392451875795377
-9.6248331178782 12.574224026888 0.354815685531653
-9.57283900475923 12.6486238264414 0.317425635003653
-9.51914480261265 12.7212346928249 0.280271329362751
-9.46376838341596 12.7920153791965 0.243342041814857
-9.40672850716908 12.8609269981315 0.206626768416848
-9.34804483037334 12.9279331496348 0.170114282872989
-9.28773791451037 12.9930000491522 0.133793191331366
-9.22582923452117 13.056096655582 0.0976519871803079
-9.16234118728501 13.1171947992869 0.0616791058448157
[...]
POINT_DATA 1151
SCALARS MaximumInscribedSphereRadius float
LOOKUP_TABLE default
3.2364
3.2087426086956525
3.1810852173913045
3.153427826086957
3.1257704347826087
3.098113043478261
3.070455652173913
3.0427982608695654
3.0151408695652178
2.9874834782608697
2.959826086956522
2.932168695652174
2.9045113043478263
2.8768539130434783
2.8491965217391306
2.821539130434783
2.793881739130435
2.7662243478260873
2.738566956521739
2.7109095652173916
2.6832521739130435
2.655594782608696
2.6654285217391305
2.6910480000000003
2.7166674782608697
2.742286956521739
2.767906434782609
2.7935259130434784
2.819145391304348
2.8447648695652177
2.870384347826087
2.8960038260869565
2.9216233043478264
2.9472427826086958
2.972862260869565
2.998481739130435
3.0241012173913044
3.049720695652174
3.0753401739130433
3.100959652173913
3.1265791304347825
3.1521986086956524
3.177818086956522
3.1739040000000003
3.1270320000000003
3.0801600000000002
3.033288
2.986416
2.939544
2.892672
2.8458
2.798928
2.752056
2.705184
2.658312
2.61144
2.5645680000000004
2.517696
2.470824
2.423952
2.3770800000000003
2.3302080000000003
2.283336
2.236464
2.1951234782608693
2.1980347826086954
2.2009460869565216
2.2038573913043478
2.206768695652174
2.20968
2.212591304347826
2.215502608695652
2.218413913043478
2.2213252173913043
2.2242365217391304
2.2271478260869566
2.2300591304347828
2.232970434782609
2.2358817391304346
2.238793043478261
2.241704347826087
2.244615652173913
2.2475269565217393
2.2504382608695654
2.2533495652173916
2.2562608695652173
2.241618086956522
2.222985739130435
2.2043533913043483
2.185721043478261
2.167088695652174
2.148456347826087
2.129824
2.1111916521739134
2.092559304347826
2.0739269565217393
2.0552946086956525
2.0366622608695657
2.0180299130434785
1.9993975652173914
1.9807652173913046
1.9621328695652176
1.9435005217391308
1.9248681739130438
1.9062358260869567
1.88760347826087
1.8689711304347827
1.8737370434782605
1.900229913043478
1.9267227826086957
1.9532156521739128
1.9797085217391304
2.0062013913043475
2.0326942608695653
2.0591871304347826
2.0856799999999995
2.1121728695652173
2.1386657391304342
2.165158608695652
2.1916514782608694
2.2181443478260867
2.244637217391304
2.2711300869565214
2.2976229565217388
2.3241158260869565
2.3506086956521735
2.3771015652173912
2.403594434782608
2.418312695652174
2.3918198260869565
2.365326956521739
2.338834086956522
2.312341217391305
2.285848347826087
2.2593554782608694
2.2328626086956525
2.206369739130435
2.1798768695652178
2.1533840000000004
2.1268911304347826
2.1003982608695657
2.073905391304348
2.047412521739131
2.0209196521739132
1.9944267826086959
1.9679339130434788
1.9414410434782612
1.914948173913044
1.8884553043478265
1.861962434782609
1.8745565217391302
1.8902775652173913
1.905998608695652
1.9217196521739128
1.937440695652174
1.9531617391304346
1.9688827826086956
1.9846038260869563
2.000324869565217
2.0160459130434782
2.031766956521739
2.047488
2.0632090434782606
2.0789300869565217
2.0946511304347823
2.110372173913043
2.126093217391304
2.1418142608695647
2.157535304347826
2.173256347826087
2.1889773913043475
2.1940667826086955
2.192902260869565
2.1917377391304345
2.190573217391304
2.189408695652174
2.188244173913043
2.187079652173913
2.1859151304347826
2.184750608695652
2.1835860869565216
2.1824215652173913
2.1812570434782605
2.1800925217391303
2.178928
2.1777634782608697
2.176598956521739
2.1754344347826087
2.1742699130434784
2.1731053913043477
2.1719408695652174
2.170776347826087
2.1748521739130435
2.1894086956521734
2.203965217391304
2.2185217391304346
2.233078260869565
2.2476347826086953
2.262191304347826
2.2767478260869565
2.291304347826087
2.3058608695652167
2.3204173913043475
2.334973913043478
2.3495304347826083
2.364086956521739
2.3786434782608694
2.3931999999999998
2.4077565217391306
2.422313043478261
2.436869565217391
2.451426086956521
2.465982608695652
2.480032347826087
2.4809057391304346
2.4817791304347825
2.4826525217391304
2.4835259130434784
2.4843993043478263
2.485272695652174
2.4861460869565217
2.4870194782608697
2.4878928695652176
2.488766260869565
2.489639652173913
2.490513043478261
2.491386434782609
2.4922598260869564
2.4931332173913043
2.4940066086956523
2.49488
2.4957533913043477
2.4966267826086956
2.4975001739130436
2.4983735652173915
2.4772504347826088
2.448428521739131
2.419606608695653
2.390784695652174
2.361962782608696
2.3331408695652183
2.3043189565217403
2.275497043478261
2.246675130434783
2.2178532173913053
2.1890313043478264
2.1602093913043485
2.1313874782608706
2.1025655652173914
2.0737436521739134
2.0449217391304355
2.0160998260869576
1.9872779130434786
1.9584560000000006
1.9296340869565227
1.9008121739130437
1.897221565217391
1.925170086956521
1.953118608695652
1.9810671304347822
2.0090156521739124
2.0369641739130433
2.0649126956521737
2.0928612173913037
2.1208097391304337
2.148758260869565
2.176706782608695
2.2046553043478254
2.2326038260869563
2.2605523478260867
2.2885008695652167
2.3164493913043476
2.344397913043478
2.372346434782608
2.400294956521738
2.4282434782608693
2.4561919999999997
2.4784473043478266
2.467966608695652
2.4574859130434783
2.447005217391305
2.4365245217391305
2.4260438260869566
2.415563130434783
2.405082434782609
2.394601739130435
2.384121043478261
2.3736403478260875
2.363159652173913
2.352678956521739
2.3421982608695657
2.3317175652173914
2.3212368695652175
2.310756173913044
2.30027547826087
2.2897947826086957
2.2793140869565223
2.2688333913043484
2.258352695652174
2.253328
2.2492521739130438
2.245176347826087
2.2411005217391304
2.237024695652174
2.2329488695652175
2.228873043478261
2.2247972173913046
2.220721391304348
2.2166455652173913
2.212569739130435
2.2084939130434784
2.204418086956522
2.200342260869565
2.1962664347826086
2.192190608695652
2.1881147826086957
2.1840389565217393
2.179963130434783
2.175887304347826
2.1718114782608695
2.161913043478261
2.1473565217391304
2.1328
2.11824347826087
2.1036869565217398
2.089130434782609
2.0745739130434786
2.0600173913043482
2.0454608695652174
2.030904347826087
2.016347826086957
2.0017913043478264
1.987234782608696
1.9726782608695657
1.9581217391304353
1.9435652173913045
1.9290086956521744
1.914452173913044
1.8998956521739132
1.885339130434783
1.8707826086956527
1.8562260869565226
1.8416695652173922
1.8271130434782608
1.8125565217391306
1.7980000000000003
1.7834434782608701
1.7688869565217398
1.7543304347826094
1.7397739130434793
1.7252173913043478
1.7106608695652177
1.6961043478260873
1.681547826086957
1.6669913043478268
1.6524347826086965
1.6378782608695652
1.6233217391304349
1.6087652173913045
1.5942086956521744
1.579652173913044
1.5650956521739139
1.5505391304347835
1.55
1.55
1.55
1.55
1.55
1.55
1.55
1.55
1.55
1.55
1.55
1.55
1.55
1.55
1.55
1.55
1.55
1.55
1.55
1.55
1.55
1.55
1.55
1.55
1.55
1.55
1.55
1.55
1.55
1.55
1.55
1.55
1.55
1.55
1.55
1.55
1.55
1.55
1.55
1.55
1.55
1.55
1.571565217391303
1.6297913043478243
1.6880173913043452
1.7462434782608665
1.8044695652173919
1.8626956521739129
1.920921739130434
1.979147826086955
2.037373913043476
2.0955999999999975
2.1538260869565184
2.212052173913044
2.270278260869565
2.328504347826086
2.386730434782607
2.444956521739128
2.5031826086956492
2.56140869565217
2.6196347826086956
2.677860869565217
2.7360869565217376
2.7889217391304353
2.774365217391305
2.7598086956521746
2.7452521739130433
2.730695652173913
2.716139130434783
2.7015826086956527
2.6870260869565223
2.672469565217392
2.6579130434782616
2.6433565217391304
2.6288
2.6142434782608697
2.5996869565217398
2.5851304347826094
2.570573913043479
2.5560173913043487
2.5414608695652174
2.526904347826087
2.5123478260869567
2.4977913043478264
2.4832347826086965
2.468678260869566
2.454121739130435
2.4395652173913045
2.425008695652174
2.410452173913044
2.3958956521739134
2.3813391304347835
2.366782608695653
2.352226086956522
2.3376695652173916
2.323113043478261
2.308556521739131
2.2940000000000005
2.2794434782608706
2.26488695652174
2.2503304347826085
2.2357739130434786
2.2212173913043483
2.206660869565218
2.1921043478260875
2.177547826086957
2.1635519999999997
2.15016
2.136768
2.1233760000000004
2.1099840000000007
2.0965920000000007
2.083200000000001
2.069808
2.056416
2.0430240000000004
2.0296320000000003
2.0162400000000007
2.0028480000000006
1.989456000000001
1.976064
1.9626720000000002
1.9492800000000003
1.9358880000000005
1.9224960000000006
1.9091040000000008
1.895712
1.8878730434782607
1.9044674782608693
1.9210619130434776
1.9376563478260862
1.9542507826086948
1.9708452173913031
1.987439652173913
2.0040340869565214
2.02062852173913
2.0372229565217386
2.053817391304347
2.0704118260869553
2.087006260869564
2.103600695652174
2.1201951304347824
2.136789565217391
2.153383999999999
2.1699784347826077
2.1865728695652162
2.203167304347826
2.2197617391304347
2.236356173913043
2.2459634782608693
2.2546973913043473
2.2634313043478254
2.272165217391304
2.2808991304347823
2.289633043478261
2.298366956521739
2.307100869565217
2.3158347826086954
2.3245686956521734
2.3333026086956523
2.3420365217391304
2.3507704347826084
2.3595043478260864
2.368238260869565
2.376972173913043
2.385706086956521
2.39444
2.403173913043478
2.4119078260869564
2.4206417391304345
2.4242
2.4242
2.4242
2.4242
2.4242
2.4242
2.4242
2.4242
2.4242
2.4242
2.4242
2.4242
2.4242
2.4242
2.4242
2.4242
2.4242
2.4242
2.4242
2.4242
2.4242
2.433602434782607
2.4653356521739105
2.4970688695652172
2.528802086956521
2.560535304347825
2.592268521739129
2.624001739130433
2.655734956521737
2.6874681739130435
2.719201391304347
2.750934608695651
2.7826678260869553
2.8144010434782594
2.8461342608695634
2.8778674782608675
2.909600695652174
2.9413339130434775
2.9730671304347815
3.0048003478260856
3.0365335652173897
3.068266782608694
3.099999999999998
3.0429384347826094
2.9858768695652187
2.928815304347828
2.8717537391304373
2.8146921739130466
2.7576306086956563
2.700569043478261
2.6435074782608705
2.58644591304348
2.529384347826089
2.4723227826086984
2.4152612173913077
2.3581996521739175
2.3011380869565223
2.2440765217391316
2.187014956521741
2.1299533913043502
2.07289182608696
2.015830260869569
1.9587686956521784
1.9017071304347835
1.9005749565217387
1.9229919999999991
1.9454090434782598
1.9678260869565205
1.9902431304347812
2.0126601739130434
2.035077217391304
2.0574942608695648
2.0799113043478252
2.1023283478260857
2.1247453913043466
2.147162434782607
2.1695794782608693
2.19199652173913
2.2144135652173906
2.236830608695651
2.259247652173912
2.2816646956521724
2.304081739130433
2.326498782608695
2.348915826086956
2.370383999999999
2.390471999999999
2.410559999999999
2.430647999999999
2.450736
2.4708239999999995
2.4909119999999993
2.5109999999999992
2.531087999999999
2.5511759999999986
2.5712639999999984
2.5913519999999997
2.6114399999999995
2.6315279999999994
2.651615999999999
2.6717039999999987
2.6917919999999986
2.7118799999999985
2.7319679999999997
2.7520559999999996
2.772143999999999
2.786765217391306
2.7576521739130455
2.728539130434785
2.699426086956522
2.6703130434782616
2.641200000000001
2.6120869565217406
2.58297391304348
2.553860869565219
2.524747826086959
2.495634782608696
2.4665217391304357
2.437408695652175
2.4082956521739143
2.379182608695654
2.3500695652173933
2.320956521739131
2.29184347826087
2.2627304347826094
2.233617391304349
2.2045043478260884
2.175391304347828
2.17
2.17
2.17
2.17
2.17
2.17
2.17
2.17
2.17
2.17
2.17
2.17
2.17
2.17
2.17
2.17
2.17
2.17
2.17
2.17
2.17
2.1654713043478266
2.156737391304348
2.1480034782608706
2.1392695652173916
2.1305356521739127
2.1218017391304356
2.1130678260869566
2.104333913043479
2.0956
2.0868660869565225
2.078132173913044
2.069398260869565
2.0606643478260875
2.0519304347826086
2.0431965217391315
2.0344626086956525
2.025728695652175
2.016994782608696
2.008260869565217
1.9995269565217397
1.990793043478261
1.9821885217391313
1.9740368695652177
1.9658852173913042
1.9577335652173917
1.9495819130434782
1.941430260869566
1.9332786086956524
1.92512695652174
1.9169753043478264
1.9088236521739128
1.9006720000000006
1.892520347826087
1.8843686956521746
1.876217043478261
1.8680653913043488
1.8599137391304352
1.8517620869565217
1.8436104347826092
1.8354587826086957
1.8273071304347834
1.8191554782608699
1.8110038260869574
1.8271130434782599
1.8451631304347829
1.863213217391303
1.881263304347826
1.899313391304346
1.9173634782608688
1.9354135652173892
1.953463652173912
1.971513739130435
1.989563826086955
2.007613913043478
2.025663999999998
2.043714086956521
2.061764173913041
2.079814260869564
2.097864347826087
2.115914434782607
2.13396452173913
2.15201460869565
2.170064695652173
2.1881147826086957
2.1849015652173924
2.1691805217391305
2.1534594782608707
2.137738434782609
2.1220173913043494
2.1062963478260874
2.090575304347826
2.074854260869566
2.059133217391304
2.043412173913045
2.027691130434783
2.0119700869565236
1.9962490434782616
1.9805279999999998
1.9648069565217403
1.9490859130434786
1.933364869565219
1.917643826086957
1.9019227826086977
1.8862017391304358
1.8704806956521738
1.8648521739130424
1.8794086956521738
1.8939652173913029
1.9085217391304343
1.9230782608695636
1.9376347826086948
1.9521913043478263
1.9667478260869553
1.9813043478260868
1.9958608695652158
2.010417391304347
2.0249739130434787
2.0395304347826078
2.054086956521739
2.068643478260868
2.0831999999999997
2.0977565217391287
2.11231304347826
2.1268695652173917
2.1414260869565207
2.155982608695652
2.170539130434781
2.1850956521739127
2.1996521739130417
2.214208695652173
2.2287652173913046
2.2433217391304336
2.257878260869565
2.2724347826086944
2.2869913043478256
2.3015478260869546
2.3161043478260863
2.3306608695652176
2.3452173913043466
2.359773913043478
2.3743304347826073
2.3888869565217385
2.4034434782608676
2.4179999999999993
2.4325565217391305
2.4471130434782595
2.4616695652173908
2.4762260869565202
2.48
2.48
2.48
2.48
2.48
2.48
2.48
2.48
2.48
2.48
2.48
2.48
2.48
2.48
2.48
2.48
2.48
2.48
2.48
2.48
2.48
2.469131130434784
2.4446761739130434
2.4202212173913065
2.3957662608695656
2.3713113043478287
2.3468563478260878
2.322401391304351
2.2979464347826104
2.2734914782608695
2.2490365217391326
2.2245815652173917
2.200126608695655
2.175671652173914
2.151216695652177
2.1267617391304365
2.1023067826086956
2.0778518260869587
2.053396869565218
2.028941913043481
2.0044869565217405
1.9800320000000033
1.9592
1.9592
1.9592
1.9592
1.9592
1.9592
1.9592
1.9592
1.9592
1.9592
1.9592
1.9592
1.9592
1.9592
1.9592
1.9592
1.9592
1.9592
1.9592
1.9592
1.9592
1.9592
1.9440720000000005
1.9263130434782627
1.9085540869565225
1.890795130434785
1.8730361739130446
1.8552772173913044
1.8375182608695668
1.8197593043478264
1.8020003478260889
1.7842413913043487
1.7664824347826111
1.7487234782608707
1.7309645217391305
1.713205565217393
1.6954466086956526
1.677687652173915
1.6599286956521748
1.6421697391304373
1.6244107826086969
1.6066518260869567
1.5888928695652191
1.5882782608695647
1.601379130434781
1.6144799999999992
1.6275808695652174
1.6406817391304338
1.653782608695652
1.6668834782608684
1.6799843478260865
1.6930852173913027
1.706186086956521
1.7192869565217392
1.7323878260869554
1.7454886956521738
1.75858956521739
1.7716904347826081
1.7847913043478245
1.7978921739130427
1.8109930434782608
1.8240939130434772
1.8371947826086954
1.8502956521739118
1.8640758260869559
1.8797968695652154
1.8955179130434772
1.9112389565217391
1.9269599999999987
1.9426810434782604
1.95840208695652
1.974123130434782
1.9898441739130412
2.005565217391303
2.021286260869565
2.0370073043478247
2.0527283478260863
2.068449391304346
2.084170434782608
2.0998914782608695
2.1156125217391293
2.131333565217391
2.1470546086956506
2.1627756521739125
2.178496695652172
2.194217739130434
2.1774184347826084
2.159368347826088
2.1413182608695656
2.1232681739130452
2.1052180869565222
2.0871680000000024
2.0691179130434794
2.0510678260869564
2.033017739130436
2.0149676521739135
1.9969175652173932
1.9788674782608704
1.96081739130435
1.9427673043478273
1.9247172173913043
1.9066671304347842
1.8886170434782614
1.870566956521741
1.8525168695652183
1.8344667826086982
1.8164166956521752
1.8150580869565216
1.8220452173913038
1.8290323478260868
1.8360194782608688
1.8430066086956518
1.8499937391304337
1.8569808695652168
1.8639679999999998
1.870955130434782
1.877942260869565
1.884929391304347
1.89191652173913
1.898903652173913
1.905890782608695
1.912877913043478
1.9198650434782603
1.9268521739130433
1.9338393043478252
1.9408264347826083
1.9478135652173914
1.9548006956521733
1.955641739130435
1.9460344347826097
1.936427130434783
1.9268198260869578
1.9172125217391311
1.9076052173913043
1.8979979130434792
1.8883906086956523
1.8787833043478273
1.8691760000000004
1.8595686956521753
1.8499613913043484
1.8403540869565218
1.8307467826086965
1.8211394782608699
1.8115321739130446
1.801924869565218
1.7923175652173926
1.782710260869566
1.773102956521739
1.763495652173914
1.7546
1.7546
1.7546
1.7546
1.7546
1.7546
1.7546
1.7546
1.7546
1.7546
1.7546
1.7546
1.7546
1.7546
1.7546
1.7546
1.7546
1.7546
1.7546
1.7546
1.7546
1.7546
1.7312772173913082
1.7012907826086978
1.6713043478260872
1.641317913043481
1.6113314782608703
1.5813450434782643
1.5513586086956537
1.5213721739130477
1.491385739130437
1.4613993043478264
1.4314128695652204
1.4014264347826098
1.3714400000000038
1.3414535652173931
1.311467130434787
1.2814806956521765
1.2514942608695656
1.2215078260869596
1.1915213913043492
1.161534956521743
1.1315485217391323
1.1196445217391306
1.1272139130434777
1.134783304347826
1.1423526956521732
1.1499220869565214
1.1574914782608687
1.165060869565217
1.1726302608695653
1.1801996521739124
1.1877690434782606
1.195338434782608
1.2029078260869561
1.2104772173913032
1.2180466086956516
1.2256159999999998
1.2331853913043471
1.2407547826086953
1.2483241739130426
1.2558935652173908
1.263462956521738
1.2710323478260863
1.2841547826086952
1.3217106086956485
1.3592664347826073
1.3968222608695606
1.4343780869565195
1.4719339130434728
1.5094897391304318
1.5470455652173907
1.584601391304344
1.6221572173913028
1.659713043478256
1.6972688695652152
1.7348246956521682
1.7723805217391273
1.8099363478260861
1.8474921739130394
1.8850479999999985
1.9226038260869516
1.9601596521739104
1.9977154782608695
2.0352713043478228
2.0728271304347814
2.0420643478260914
2.0027617391304364
1.963459130434788
1.9241565217391332
1.8848539130434785
1.8455513043478298
1.806248695652175
1.7669460869565263
1.7276434782608716
1.6883408695652227
1.6490382608695682
1.6097356521739135
1.5704330434782645
1.53113043478261
1.4918278260869613
1.4525252173913066
1.4132226086956576
1.3739200000000031
1.3346173913043484
1.2953147826086995
1.256012173913045
1.2410351304347824
1.242781913043478
1.2445286956521737
1.2462754782608694
1.2480222608695652
1.2497690434782607
1.2515158260869563
1.253262608695652
1.2550093913043476
1.256756173913043
1.258502956521739
1.2602497391304346
1.2619965217391302
1.263743304347826
1.2654900869565213
1.2672368695652172
1.2689836521739128
1.2707304347826085
1.2724772173913041
1.2742239999999998
1.2759707826086955
1.2749572173913053
1.2673878260869569
1.2598184347826087
1.2522490434782616
1.2446796521739132
1.237110260869566
1.2295408695652177
1.2219714782608706
1.2144020869565222
1.206832695652174
1.199263304347827
1.1916939130434785
1.1841245217391314
1.176555130434783
1.168985739130436
1.1614163478260877
1.1538469565217393
1.1462775652173922
1.1387081739130438
1.1311387826086967
1.1235693913043483
1.116
FIELD FieldData 2
Curvature 1 1151 double
0.198023083300405
0.20118106074572
0.204164466299417
0.206953065024032
0.209526866218871
0.211866395050482
0.213952976502201
0.215769024999207
0.217298332185948
0.218526344717005
0.219440423637553
0.220029872000215
0.220285482250678
0.220200253599284
0.219769715855675
0.218992008808678
0.217867909531323
0.216400806585632
0.214596622086686
0.212463684516701
0.21001255694463
0.207255599924461
0.204206037336793
0.200878360214186
0.197288289432282
0.193452507470002
0.189388389632276
0.185113741780174
0.180646550860113
0.176004753619999
0.171206027920407
0.166267255339675
0.161203313845867
0.156028039395203
0.150754492833854
0.145394897526788
0.139960605964494