# vtk DataFile Version 2.0
Vessel Segment
ASCII
DATASET POLYDATA
POINTS 75 float
-4.623642828668961 21.359729547509605 -6.519577871099688
-5.123107756432325 20.426883278083764 -6.392348726400686
-5.7135639096702295 19.454144998375348 -6.1922736022408165
-6.365144771659293 18.4788495938873 -5.952311213411567
-7.05213213433172 17.534396601193524 -5.707979700463132
-7.7500933360795194 16.64821709191069 -5.507184847718355
-8.435653432542122 15.839301992476793 -5.4097703490552105
-9.08738104150319 15.111942020021182 -5.477858302638208
-9.68455574280585 14.452764550691704 -5.7587540582341115
-10.205682742379826 13.832168167557466 -6.260435423693748
-10.632790239087036 13.212785001990985 -6.944536623935194
-10.956561053360154 12.562148210442441 -7.747301529763711
-11.1631986686461 11.866720188253502 -8.609965028994162
-11.216809933625187 11.14967405430555 -9.504390163108647
-11.101978986977766 10.441236188633434 -10.388891155127096
-10.816165620592377 9.755216248299552 -11.248247292188019
-10.368262291859887 9.101598579830906 -12.084828173540206
-9.782465645835643 8.46966816502394 -12.89674794324617
-9.09517465459573 7.838572509017175 -13.659019488041048
-8.352815400016523 7.189013108600081 -14.323924939440545
-7.605459162395944 6.516168213689346 -14.827259239185134
-6.904442174587145 5.837565193520114 -15.102817550728473
-6.294143756258413 5.190682260453967 -15.104008938954184
-5.80403310401501 4.614447065617457 -14.813084469998309
-5.4526447928892985 4.139843336422707 -14.24032930949761
-5.245524042250664 3.7829970055703255 -13.427339597583108
-5.176798294058655 3.5409253064668347 -12.435818872900528
-5.2323379905746785 3.404918401391785 -11.34390207729273
-5.377020305109275 3.338594021587309 -10.236254241372828
-5.570987002835229 3.292731838248767 -9.154539716789193
-5.779790350148374 3.2243580562029286 -8.108995090658292
-5.97484610004784 3.098401334178769 -7.0956929651024385
-6.134981985497769 2.8884158013839776 -6.109117159339343
-6.247576704218113 2.57596326971952 -5.149404306800605
-6.305751069733606 2.1465791243517285 -4.222936651988982
-6.306787138938211 1.588898140184924 -3.340819836842944
-6.253393589022445 0.9015470422489054 -2.5130654190358124
-6.149811391486732 0.09668830215685131 -1.7408997573929472
-5.9960551822096395 -0.8010583955962169 -1.0168913140890425
-5.787530151482874 -1.7600144810541969 -0.32979325833760215
-5.5169452264595655 -2.749782228698135 0.3268310392185455
-5.177112863261909 -3.745916977010705 0.9489700322105677
-4.764388970973583 -4.730288525592204 1.5292596363862752
-4.271540763298057 -5.687838560705157 2.067212570645439
-3.68940601241051 -6.601182243585523 2.5655303047553106
-3.0123012805829297 -7.450891538783304 3.0341506072895883
-2.241719168231604 -8.218798729257621 3.4892779842646457
-1.3870784434839176 -8.891120533296927 3.947910268655735
-0.4629206510259815 -9.459629842678567 4.4223458856058
0.516121567514269 -9.920113813068351 4.9155250549348395
1.5390505202304914 -10.271341597717814 5.420385402005675
2.5981174724622664 -10.512978281391533 5.927070454328931
3.685522168397605 -10.64480557259922 6.429022842257814
4.791389105974261 -10.669325202349642 6.925950467164091
5.903649623074272 -10.595436011852824 7.423873151805559
7.009812991356977 -10.438512815368727 7.932081827094081
8.099486440457712 -10.219489700396327 8.459509903214792
9.166794080904207 -9.962889442287345 9.012026708618732
10.211245863683557 -9.693989788146123 9.59111321169701
11.235904923098966 -9.43736283386926 10.194451161207853
12.244447602933816 -9.216039530261392 10.817381387666748
13.237825597453886 -9.05142252419118 11.454904355690664
14.211215761814177 -8.96181905596141 12.10374534524192
15.153085922075693 -8.960164375606809 12.763100799840716
16.046987097636077 -9.053100019768996 13.433898425271233
16.875698279033795 -9.242683100389135 14.116402732558445
17.62551908939601 -9.530129702923517 14.808154274533157
18.28815844578848 -9.91892790799624 15.503981344289366
18.859845993677986 -10.41414487066884 16.19728714234985
19.3401611441428 -11.018395047618835 16.882235018462072
19.731497285931347 -11.726407150821151 17.554741691996785
20.03880729008392 -12.52267060241568 18.21326588960751
20.26915659290325 -13.382725163110447 18.85924345747745
20.432183984870534 -14.275500719534582 19.496759454521076
20.53882301326104 -15.16785692292721 20.131716373362163
LINES 1 76
75 0 1 2 3 4 5 6 7 8 9 10 11 12 13 14 15 16 17 18 19 20 21 22 23 24 25 26 27 28 29 30 31 32 33 34 35 36 37 38 39 40 41 42 43 44 45 46 47 48 49 50 51 52 53 54 55 56 57 58 59 60 61 62 63 64 65 66 67 68 69 70 71 72 73 74
POINT_DATA 75
SCALARS MaximumInscribedSphereRadius float
LOOKUP_TABLE default
1.2
1.2108108108108109
1.2216216216216216
1.2324324324324323
1.2432432432432432
1.2540540540540541
1.2648648648648648
1.2756756756756755
1.2864864864864864
1.2972972972972974
1.308108108108108
1.3189189189189188
1.3297297297297297
1.3405405405405406
1.3513513513513513
1.362162162162162
1.372972972972973
1.3837837837837839
1.3945945945945946
1.4054054054054053
1.4162162162162162
1.427027027027027
1.4378378378378378
1.4486486486486485
1.4594594594594594
1.4702702702702704
1.481081081081081
1.4918918918918918
1.5027027027027027
1.5135135135135136
1.5243243243243243
1.535135135135135
1.545945945945946
1.5567567567567568
1.5675675675675675
1.5783783783783782
1.5891891891891892
1.6
1.6108108108108108
1.6216216216216215
1.6324324324324324
1.6432432432432433
1.654054054054054
1.6648648648648647
1.6756756756756757
1.6864864864864866
1.6972972972972973
1.708108108108108
1.718918918918919
1.7297297297297298
1.7405405405405405
1.7513513513513512
1.7621621621621621
1.772972972972973
1.7837837837837838
1.7945945945945945
1.8054054054054054
1.8162162162162163
1.827027027027027
1.8378378378378377
1.8486486486486486
1.8594594594594596
1.8702702702702703
1.881081081081081
1.8918918918918919
1.9027027027027028
1.9135135135135135
1.9243243243243242
1.9351351351351351
1.945945945945946
1.9567567567567568
1.9675675675675675
1.9783783783783784
1.9891891891891893
2.0
SCALARS Curvature float
LOOKUP_TABLE default
0.0
0.060709116992402425
0.0409856557102099
0.03304037081803218
0.04369244527011571
0.09229744192280286
0.17894821210661635
0.2575489744053348
0.24940975418354086
0.1797550964981742
0.11997406570485654
0.1010926812521973
0.11690771281637843
0.12945798871721173
0.13395494899083793
0.12325112361363698
0.09676745019232504
0.0755915710897452
0.07963603741442953
0.12098703968636303
0.20556691302168825
0.33746410984861386
0.4557827536022047
0.44135097169018694
0.31621219996200917
0.2011586166577504
0.13742572484290597
0.0891261003206446
0.04678227624415351
0.028658553686877638
0.05708206301905909
0.0896834960169304
0.11210284534960072
0.12574441156047594
0.13143060814430843
0.12371770000754716
0.10305721527545672
0.07776655476251076
0.05702616672602031
0.04868406155027415
0.051675371583816715
0.05734411261205183
0.06491950134730198
0.07514105894662336
0.08413252182244774
0.08958923668359704
0.09100372112026671
0.08923612934188457
0.08615153929211533
0.08254273242428772
0.0798174841896082
0.07761857786343175
0.07349527532717078
0.06556485946046567
0.05528018463221654
0.04417274720808062
0.03336888315815398
0.024620183023645825
0.022185711409655598
0.029111739686110402
0.04161722433267583
0.05572930590825645
0.06939735205922201
0.08253734338540857
0.09593661452262325
0.10983111101735933
0.123075142788459
0.13221626199312664
0.1322085011806574
0.12067359672661854
0.10137597009324989
0.08017795907864443
0.06043904912576423
0.046196394636195515
0.0
SCALARS Torsion float
LOOKUP_TABLE default
0.0
0.0
0.23560101408494485
0.4305185565506612
0.46480506517419473
0.23763082560523252
0.13793303766783996
0.11827131493096198
0.1565395813012545
0.256361477962326
0.37941339011241626
0.3161295936028996
0.0010232728618712605
0.013150757892322604
-0.006153809862125496
-0.05145686238693736
0.057496678115924356
0.28044845237792854
0.3531448574159859
0.18913093735587622
0.0653906118353616
-0.0037489622489664254
-0.028893772592739026
-0.02387295168992323
-0.009105666637211351
0.023165711747581946
0.03169745069750112
0.13414049170598316
0.5310752722409685
0.9075295011740695
0.3628569139845198
0.12903437851809094
0.04011355908531525
-0.002755950436020206
-0.024481517797128823
-0.031562313719253866
-0.003207868210663326
0.08631529761443289
0.22830261108360939
0.27601994617661085
0.1496090172043191
0.06041812239387204
0.08594611751948598
0.09764312498917893
0.12534058277437055
0.14579754893447308
0.14451547190830016
0.12007654375188952
0.0629124035484166
-0.011816331368083466
-0.04165601389411804
-0.020429720764694695
0.026317267122957178
0.08581358482046242
0.15087527354118538
0.2254477740971446
0.32930103079219314
0.4788558203346231
0.539655529468172
0.34305980155662735
0.16414926248645026
0.05325809505724938
-0.018411650946867586
-0.06068421500913902
-0.06491526015543807
-0.03363092325099928
0.009065838599719371
0.035253014415702305
0.03497898110745545
0.01612232449700304
-0.0186968314493554
-0.0780048266029174
-0.1862194482240039
-0.36510504025854285
0.0
