# vtk DataFile Version 2.0
Vessel Segment
ASCII
DATASET POLYDATA
POINTS 75 float
-3.3476559695072363 22.26439484928257 -6.396530511088619
-3.933351057119821 21.28438591382276 -6.131276133070392
-4.599583316412534 20.234902067787736 -5.804943484441615
-5.3198976188542915 19.156079264317466 -5.463321305530536
-6.07011116504231 18.084582359022185 -5.154102298179875
-6.82449226632323 17.053946071941123 -4.9346799434128705
-7.556456360229793 16.09264965935182 -4.869678892832838
-8.24209378336197 15.216368713756545 -5.019647543678498
-8.862484265151652 14.423034129426743 -5.422323439066468
-9.406863809078706 13.684851906470184 -6.063194952080068
-9.861828989196377 12.954528951650495 -6.887061413848188
-10.193518748583784 12.199742797110035 -7.823835247985487
-10.361507830225845 11.413512569497328 -8.806283779487165
-10.311232110139452 10.628837152972705 -9.812668517818546
-10.041074627831174 9.878606425717857 -10.799233474242937
-9.582315132268278 9.159451035429667 -11.765310716843267
-8.973677459058525 8.463886545281863 -12.711432523046579
-8.277317711330673 7.771341316994409 -13.607509036568713
-7.564846126778337 7.054672749186819 -14.389754572974994
-6.902886321185965 6.299646468288971 -14.964289455811993
-6.351229479387262 5.524985213457982 -15.224944334037996
-5.970973174541883 4.795740237170303 -15.096848999854602
-5.799644203182183 4.196509027749799 -14.599742613618558
-5.824107534860455 3.7790062427300173 -13.822113862296217
-6.009725810878449 3.561651065440293 -12.855189633356197
-6.314493991084038 3.5345022579967873 -11.786419939840705
-6.691212243990284 3.6596846844613284 -10.684550179254856
-7.097617626811794 3.8866674467138664 -9.592495658017324
-7.493837331850553 4.151191005189038 -8.530588698168861
-7.849317195519798 4.383993442101255 -7.489940672799928
-8.141951673125172 4.516911326855274 -6.454107861703977
-8.351964288166114 4.482662949303991 -5.417150662751885
-8.46356618740712 4.224444130371221 -4.39676709998616
-8.4746827182909 3.7202153751901728 -3.4345123375283886
-8.392878627560096 2.985491575595002 -2.575249313309815
-8.229159186966275 2.0559030349191105 -1.857064902149864
-7.999876961122974 0.977134805008279 -1.3019278542584538
-7.721786045835799 -0.20416544905952808 -0.9044735943784683
-7.406542720119408 -1.4459766557701603 -0.6342173365253799
-7.057959267517307 -2.709559161372382 -0.4456668262160792
-6.668071150511919 -3.95900864233601 -0.2899835140327523
-6.21833698618702 -5.165230236777964 -0.12984158208692598
-5.690799452502326 -6.30840655804797 0.06121834299757129
-5.064274474518049 -7.3764100558772085 0.30480424668191325
-4.324107803660931 -8.35623191730858 0.6048998879501358
-3.4668147903897784 -9.230897149539345 0.9593285512028266
-2.500813640219452 -9.97896016300518 1.368884957866255
-1.4474367066569198 -10.57888829739928 1.837278043785401
-0.33688088108746 -11.015897569608459 2.367505486607583
0.800696868876721 -11.285508549924431 2.9558241961388494
1.9444131964854081 -11.395886531241741 3.586846392469611
3.086188257911287 -11.364897342320937 4.240516773065973
4.227293742294476 -11.21476348618784 4.898766013969886
5.370980347664994 -10.968792169008427 5.551275321178238
6.5141075228955305 -10.64821549826144 6.1994850141231606
7.64454066216672 -10.268538093978767 6.855013356690137
8.747026270389865 -9.840500506211479 7.532374914983853
9.81299022902726 -9.375301331700888 8.239903135332108
10.84634209579574 -8.889483539938112 8.975336873288501
11.860569144510414 -8.406890374060854 9.728687003845275
12.870533743626996 -7.959545140683873 10.488305966316304
13.883122955117859 -7.588235247732977 11.247548473984379
14.89010928072017 -7.338782210236598 12.008241293567634
15.865901704526234 -7.252177725016727 12.77872425932308
16.77249219469273 -7.353054259824867 13.567233015579609
17.57117444188439 -7.644026242913276 14.374356535825669
18.235691771372956 -8.108533499051878 15.190061567155045
18.758230621890828 -8.71973542960113 15.99864090232196
19.14697256334928 -9.44922677084108 16.786571311227775
19.420026011443948 -10.273892455765552 17.547049718409777
19.602262895216633 -11.17777855001381 18.27788933105472
19.72525826047289 -12.149477959585463 18.97808186797955
19.82991125969645 -13.175795716881673 19.647783326391774
19.968508076478447 -14.24174650708597 20.28913329556254
20.19791270312344 -15.33569777339115 20.90330534130597
LINES 1 76
75 0 1 2 3 4 5 6 7 8 9 10 11 12 13 14 15 16 17 18 19 20 21 22 23 24 25 26 27 28 29 30 31 32 33 34 35 36 37 38 39 40 41 42 43 44 45 46 47 48 49 50 51 52 53 54 55 56 57 58 59 60 61 62 63 64 65 66 67 68 69 70 71 72 73 74
POINT_DATA 75
SCALARS MaximumInscribedSphereRadius float
LOOKUP_TABLE default
1.2
1.2108108108108109
1.2216216216216216
1.2324324324324323
1.2432432432432432
1.2540540540540541
1.2648648648648648
1.2756756756756755
1.2864864864864864
1.2972972972972974
1.308108108108108
1.3189189189189188
1.3297297297297297
1.3405405405405406
1.3513513513513513
1.362162162162162
1.372972972972973
1.3837837837837839
1.3945945945945946
1.4054054054054053
1.4162162162162162
1.427027027027027
1.4378378378378378
1.4486486486486485
1.4594594594594594
1.4702702702702704
1.481081081081081
1.4918918918918918
1.5027027027027027
1.5135135135135136
1.5243243243243243
1.535135135135135
1.545945945945946
1.5567567567567568
1.5675675675675675
1.5783783783783782
1.5891891891891892
1.6
1.6108108108108108
1.6216216216216215
1.6324324324324324
1.6432432432432433
1.654054054054054
1.6648648648648647
1.6756756756756757
1.6864864864864866
1.6972972972972973
1.708108108108108
1.718918918918919
1.7297297297297298
1.7405405405405405
1.7513513513513512
1.7621621621621621
1.772972972972973
1.7837837837837838
1.7945945945945945
1.8054054054054054
1.8162162162162163
1.827027027027027
1.8378378378378377
1.8486486486486486
1.8594594594594596
1.8702702702702703
1.881081081081081
1.8918918918918919
1.9027027027027028
1.9135135135135135
1.9243243243243242
1.9351351351351351
1.945945945945946
1.9567567567567568
1.9675675675675675
1.9783783783783784
1.9891891891891893
2.0
SCALARS Curvature float
LOOKUP_TABLE default
0.0
0.027403628531695312
0.015948893977588564
0.024663931064060948
0.0522039034453041
0.10374064700425359
0.17767934342697517
0.22864941479718057
0.19565294583979506
0.1289658584437059
0.0993245980087425
0.10486779509473794
0.13285010786785156
0.1378070610060319
0.11337904105321268
0.08387218292011185
0.05678584852854468
0.06578057901840717
0.14027098592898518
0.3058150509224643
0.5448163518662599
0.5942259026493941
0.4207447766317508
0.26072981119377503
0.16977145392015364
0.11361182622263584
0.07400418991237277
0.03232169069121409
0.03151218141260824
0.09591641652430981
0.1646640424625703
0.21404260403853892
0.22077416887355447
0.1977343565624059
0.170128019438564
0.14324124678033062
0.11353508157468412
0.08150568322697976
0.050768171036038624
0.03130717697037693
0.04246434442635541
0.0633880371468783
0.08448824784823804
0.09614254970021698
0.10121195400572547
0.10433340923387638
0.10630787605802511
0.10653976539515626
0.10389270689684132
0.09543362884679446
0.08215270240520633
0.06717190916499603
0.052633059894526685
0.03997457482144254
0.03247084703346128
0.032221374044859245
0.032474804207732945
0.025776439915179795
0.014116333520778214
0.019026035357355486
0.04223129467830385
0.0717436167116932
0.10482305471591506
0.13613121515777057
0.15802452753710614
0.1644491973964533
0.15567131264837714
0.1364670958256974
0.1125212872508757
0.0870516722120292
0.06198911622797923
0.03907544333575744
0.03493558761562495
0.05834041315644187
0.0
SCALARS Torsion float
LOOKUP_TABLE default
0.0
0.0
0.6815108166445132
0.35814691171273527
0.1431395315570445
0.07441724790092419
0.053534956133521786
0.054277135086390774
0.09838316762005703
0.2583571871942797
0.3601958705759144
0.2203391405403445
-0.03062144466471431
0.00430874842930961
0.004502571626213375
0.02014228958498296
0.3346851224872298
0.4590153835387729
0.1555742709348254
0.020907706227265677
-0.011547228984573641
-0.011481151098649767
-0.03445309416647326
-0.05028377932452271
-0.04225425314918082
-0.05560892828395537
-0.09503529849048778
-0.5143886840527753
-0.6458539810813457
-0.11400473971572234
-0.05470206616394179
-0.04233496341985004
-0.045640944854217
-0.034253222144993836
-0.021290027233483395
-0.022548037110912782
-0.012355898065730477
0.026756432803730124
0.17824657957157175
0.6272591547424
0.3770337850003596
0.13614458166775323
0.05583613352571949
-0.015705164994848073
-0.018068981695881173
0.015102108884334987
0.04650541791174824
0.061170298953331564
0.04531084326108257
-0.005351489167756469
-0.057086811349685296
-0.09856887756891833
-0.09480958358751963
0.018637698973707886
0.22390568347129025
0.25923848692609774
0.1805431544822829
0.18559838950954763
0.6110620105351475
0.4942764055821426
0.08678313934515258
-0.030962433246019536
-0.07599117944121335
-0.09097915403603928
-0.08435869398658587
-0.0585568146585013
-0.025380935199032985
0.001458887377041581
0.022682618981772935
0.06644959741436057
0.1750685778811878
0.4630580342640233
0.6139134245899645
0.23392336421230603
0.0
