# vtk DataFile Version 2.0
Vessel Segment
ASCII
DATASET POLYDATA
POINTS 75 float
-5.489590698428687 21.573577253402437 -6.150793408529794
-5.9508989265684855 20.566771552489524 -5.946664533175261
-6.509699936385111 19.540062804768503 -5.710620814522115
-7.121213655937659 18.518077893255676 -5.4925479087694145
-7.74320457315281 17.523140551910743 -5.340265092822242
-8.337805102418407 16.57461995222623 -5.301722761222592
-8.875666709425806 15.687771348201567 -5.422707253028418
-9.336612855532485 14.87107150936765 -5.740240860166402
-9.707270289037249 14.123832318371253 -6.265979656626061
-9.985153899910715 13.427542625045024 -6.973031169928778
-10.17016745534881 12.751761628073712 -7.812673759812365
-10.253476287110418 12.074231016710273 -8.730852068169881
-10.220395281327647 11.386334553283257 -9.680651345134086
-10.055607072200994 10.689559997653372 -10.631357798372372
-9.7505691648926 9.988573113602406 -11.5677141847621
-9.31220582382691 9.283049579576813 -12.481609023157057
-8.765033319343264 8.566503558452245 -13.354657090960949
-8.153280937849782 7.830662337090011 -14.145945866858707
-7.5324300187198165 7.069345688165305 -14.792008373274506
-6.960530147927664 6.288852757746767 -15.213673638349103
-6.488960728122567 5.523982815301739 -15.33796809798244
-6.151037243281997 4.831087692885947 -15.130683399695027
-5.974571476393294 4.270527970091843 -14.607106530873875
-5.96704128094112 3.890868471279209 -13.832749816689745
-6.114682168951189 3.714950518633323 -12.889346040413894
-6.385421386233348 3.736523554512596 -11.855441469846493
-6.729404087925821 3.9202616369159253 -10.794250699080624
-7.08548124032376 4.2089312982669655 -9.742632352826305
-7.395110093947376 4.536287250489136 -8.70805927385643
-7.613962116994386 4.833659036232884 -7.681185321917758
-7.717395774350214 5.03242883862605 -6.6515021132797205
-7.69903220141636 5.067882956259966 -5.620897807658042
-7.5691527871430795 4.888661826935659 -4.612851734701242
-7.353033018338629 4.477133780185932 -3.6649070866457065
-7.076795011432575 3.8496381202617243 -2.8056709014819514
-6.758661042186869 3.0404252997239816 -2.048186358443113
-6.4140904446384255 2.0937066541896945 -1.392738285337077
-6.059389601530471 1.0563760902120163 -0.8280189562194564
-5.708107796796911 -0.031221002288963882 -0.33767201594241586
-5.365299823780477 -1.1401211760266727 0.09318720037394215
-5.023761739637078 -2.2533992920676256 0.47667802662110703
-4.666243572552247 -3.3640786612443336 0.8224287714669615
-4.272359955816036 -4.469373909700809 1.140758437395448
-3.820261768510607 -5.563684640263066 1.4457607038204077
-3.2898012625854776 -6.63166038227674 1.7529459282695448
-2.6654607729164885 -7.645611024819178 2.0800518671560306
-1.939355663969068 -8.570565312006803 2.4440140660407477
-1.1143274339982738 -9.374345348548681 2.8576843432334735
-0.2031833670870734 -10.036129595502114 3.3273033413110724
0.7761890900405755 -10.549086951224805 3.849729476082981
1.8072745127067025 -10.917515175635472 4.412025173846112
2.878213969137473 -11.149855471370676 4.996278333338237
3.9789168884190365 -11.253546862424173 5.585742266402149
5.096495236978054 -11.235318928068034 6.170611224011823
6.213953183818136 -11.104575365481816 6.751156175329294
7.314039208392722 -10.876028872873926 7.335706256738807
8.385506729257115 -10.57126020683198 7.934964525386771
9.42708864404223 -10.21837985776981 8.556393089094628
10.446239273328398 -9.848293454964066 9.201951398554955
11.453117557042416 -9.490084075777034 9.869673915878861
12.4547993869017 -9.169089795531239 10.556219037029559
13.452167875862058 -8.90941543894361 11.258743091390313
14.438423533190365 -8.736596362196195 11.97637536965597
15.397966530477015 -8.676167202700137 12.710415254637558
16.307394750324498 -8.748948682927427 13.46234571667862
17.140120178682277 -8.967573469254598 14.229856020271342
17.87275687866525 -9.336735011258616 15.003734365909974
18.48945862769208 -9.854699807489682 15.769143259468134
18.98214124181037 -10.513584107225329 16.510581300802368
19.35035045839172 -11.298786607509921 17.217191307634323
19.603430634952 -12.187822721174932 17.884814226607666
19.763583085081773 -13.150937744192452 18.516206375678692
19.863034687976114 -14.155185745353112 19.119007609134606
19.93727536995399 -15.165115748245853 19.70236987466583
20.022259484022477 -16.143881839227497 20.275537540615172
LINES 1 76
75 0 1 2 3 4 5 6 7 8 9 10 11 12 13 14 15 16 17 18 19 20 21 22 23 24 25 26 27 28 29 30 31 32 33 34 35 36 37 38 39 40 41 42 43 44 45 46 47 48 49 50 51 52 53 54 55 56 57 58 59 60 61 62 63 64 65 66 67 68 69 70 71 72 73 74
POINT_DATA 75
SCALARS MaximumInscribedSphereRadius float
LOOKUP_TABLE default
1.2
1.2108108108108109
1.2216216216216216
1.2324324324324323
1.2432432432432432
1.2540540540540541
1.2648648648648648
1.2756756756756755
1.2864864864864864
1.2972972972972974
1.308108108108108
1.3189189189189188
1.3297297297297297
1.3405405405405406
1.3513513513513513
1.362162162162162
1.372972972972973
1.3837837837837839
1.3945945945945946
1.4054054054054053
1.4162162162162162
1.427027027027027
1.4378378378378378
1.4486486486486485
1.4594594594594594
1.4702702702702704
1.481081081081081
1.4918918918918918
1.5027027027027027
1.5135135135135136
1.5243243243243243
1.535135135135135
1.545945945945946
1.5567567567567568
1.5675675675675675
1.5783783783783782
1.5891891891891892
1.6
1.6108108108108108
1.6216216216216215
1.6324324324324324
1.6432432432432433
1.654054054054054
1.6648648648648647
1.6756756756756757
1.6864864864864866
1.6972972972972973
1.708108108108108
1.718918918918919
1.7297297297297298
1.7405405405405405
1.7513513513513512
1.7621621621621621
1.772972972972973
1.7837837837837838
1.7945945945945945
1.8054054054054054
1.8162162162162163
1.827027027027027
1.8378378378378377
1.8486486486486486
1.8594594594594596
1.8702702702702703
1.881081081081081
1.8918918918918919
1.9027027027027028
1.9135135135135135
1.9243243243243242
1.9351351351351351
1.945945945945946
1.9567567567567568
1.9675675675675675
1.9783783783783784
1.9891891891891893
2.0
SCALARS Curvature float
LOOKUP_TABLE default
0.0
0.055042787010829985
0.03574106694486123
0.047928144326270086
0.08889070155501001
0.15356052804494608
0.2210143871476472
0.23816898090622077
0.1858111412359468
0.1212532092934646
0.08788809333741629
0.08400261962648088
0.09136505425086458
0.09449655250915219
0.08576121178479942
0.07223149095672925
0.06837577710080475
0.09780728477172577
0.1834221624387263
0.3447381508124863
0.5152920236442279
0.53560642560471
0.40724961575715846
0.2760523783416391
0.18804258622818992
0.12759912293853667
0.07877217563703308
0.04741276436044652
0.07528909965355522
0.1337109217141853
0.1892037670379101
0.22264647902496915
0.21986814864467621
0.18886896797451228
0.1491104662383139
0.1119778034056589
0.08071215503031365
0.057339768684424273
0.041487445413100586
0.030761099718678717
0.027136316546449823
0.0310161180909916
0.04020939870866777
0.05395966316134304
0.07188878879872687
0.09217560276386937
0.10911187578426913
0.1170265642440651
0.11412612302247954
0.10360952988818
0.091941607375115
0.08321106055414068
0.0767011254850971
0.0698834003371982
0.06183445793374776
0.05165799134992929
0.03810035424022144
0.023332472064856915
0.0175953927633921
0.02654541668645534
0.040539904298178706
0.05792573455261162
0.07874469869619703
0.10137479160891136
0.12310742095944668
0.14098724063239354
0.1517787672480129
0.1527368439118836
0.14198631310959936
0.11979846286173085
0.08914560701918955
0.055806016529863174
0.02320560865597484
0.011467601999929791
0.0
SCALARS Torsion float
LOOKUP_TABLE default
0.0
0.0
0.640045457054495
0.43533243346631734
0.1769289339400919
0.06981621886538346
0.03329745750898828
0.04000321547646976
0.0920349028803507
0.23209261720402963
0.35241806809857673
0.2569060322701252
0.10307944671612768
0.0259567625966569
0.03537825573124658
0.14737982127064556
0.31649312390870904
0.2712366073846467
0.1267596733155373
0.028859511948201466
-0.024499619543974588
-0.006904394695216604
-0.0074460895880175725
-0.016922732706895247
-0.034268565157793134
-0.0939694544772447
-0.3222241587971383
-0.8144949586290792
-0.4949469332981624
-0.22963743825714905
-0.1580078898283795
-0.12847791241970818
-0.10524481140266012
-0.06859540743797769
-0.028276036517726026
-0.014683936462668759
-0.03632538741704544
-0.06496157441733406
-0.023120023605209268
0.1911557301440659
0.4021974694827004
0.33459286803499555
0.24398053619269922
0.16144201295370522
0.11934274991334455
0.08469417829072014
0.06338753517268216
0.04978185693515782
0.027260717126823507
-0.014306824960489815
-0.05673171569660572
-0.06458542105728075
-0.02158836832596306
0.054914834622594375
0.13281164031540002
0.19305735874157476
0.2727601839431944
0.5115249744298231
0.6950345724621323
0.3175295839380575
0.10767640355148711
0.018331799569569165
-0.02756374533273915
-0.04863180457055965
-0.04598438472323811
-0.022375204922152163
0.005304905269171441
0.016890690095418406
0.010391035045652244
8.254781414340426e-06
-0.0019982151537966167
0.014036742962513117
0.07800627548070074
0.32814211500504364
0.0
