# vtk DataFile Version 2.0
Vessel Segment
ASCII
DATASET POLYDATA
POINTS 75 float
-5.3922233527307695 21.82348877899662 -6.932360440818211
-5.971995937784482 20.88382873775978 -6.8345884278098445
-6.591501006662692 19.8650795738048 -6.672413179275315
-7.2334747639393155 18.81323989590554 -6.486459873454681
-7.883805963855025 17.76805958983443 -6.31565592053653
-8.526742230457717 16.76340430264609 -6.20449704459321
-9.143332499015676 15.82607606020953 -6.202878640243891
-9.710388858882151 14.970845540473801 -6.361239208439037
-10.198305982030435 14.20222673075315 -6.71708215207445
-10.582327001066352 13.499027161488184 -7.256982813611227
-10.844516383515682 12.816811072572483 -7.946162219219076
-10.959088876396116 12.125720978914153 -8.746256529229997
-10.905945315766264 11.414447709053833 -9.608639804559045
-10.660425469201854 10.712633342258318 -10.51791789985219
-10.242845761730889 10.048769092456158 -11.416470882865099
-9.690742459628481 9.419354424165896 -12.265414923785125
-9.042555872463367 8.827039140068273 -13.036760659298988
-8.34293053935105 8.264278349329418 -13.695862771986581
-7.636723758664072 7.719947216451329 -14.19477513721375
-6.966963039233573 7.1849248562379255 -14.481199795184304
-6.374132537585597 6.659142361453394 -14.504749025000494
-5.912288969879671 6.15770295936624 -14.222218219108054
-5.65456211989972 5.723745562136853 -13.649379207898063
-5.585108322488574 5.391503138106932 -12.892312581305566
-5.6496104027966565 5.1672555710122845 -12.011398545461612
-5.814211690307554 5.046543929429845 -11.046377979423385
-6.046512529016436 5.008594194228734 -10.035150513564437
-6.3140119165810695 5.018469482870224 -9.008041844683731
-6.5844633768012 5.032131357606436 -7.981489664277745
-6.82972749282489 5.000747405785924 -6.959462188934607
-7.025151310598109 4.876537123209167 -5.944910647032692
-7.147950490092604 4.618066792357621 -4.949316558536721
-7.181945689714502 4.197026215171472 -3.995307431647591
-7.122081082094303 3.6071380528421573 -3.1086123361167193
-6.969961304004867 2.8603228180653217 -2.308708704902245
-6.7343568932501015 1.9787967965463817 -1.6112905664937438
-6.436140938461062 0.9958123197278497 -1.0262217644366092
-6.096669261446911 -0.05209545650704166 -0.5510844570665089
-5.726912994798522 -1.1326934250181724 -0.17615674582573834
-5.328203933117419 -2.218861490282221 0.11399753557554483
-4.89468460254868 -3.2913741935470617 0.3381566390656564
-4.419182655969524 -4.3404471657671815 0.5071808574851642
-3.907942552829153 -5.364901244896934 0.6396991963434165
-3.3519922520004477 -6.367705462396602 0.7778252799820431
-2.7386372100325698 -7.342985931797333 0.9475139594367984
-2.060675606272727 -8.276062389355145 1.168094503279644
-1.3169736943207293 -9.146606978726343 1.4574198702964565
-0.5136645521064308 -9.932060071357716 1.8297575223886269
0.3389004641001598 -10.611659090409232 2.2923682429410634
1.231815925344814 -11.167596272739406 2.8392200300662602
2.162694571100423 -11.592297613998511 3.4450300314303237
3.1329151752484896 -11.88886013632713 4.082887465411065
4.140982843145733 -12.062383677601202 4.733928737990033
5.178728218031934 -12.11711430186269 5.3896069767954335
6.230403074151571 -12.057837748665603 6.0515237684025935
7.276504153228149 -11.892050144584067 6.727246313704216
8.30037448906706 -11.633007627603531 7.42371018483707
9.293210697730375 -11.301646950364347 8.142921415267852
10.255296956615682 -10.92433610850115 8.88312047815793
11.192470336847057 -10.526240316567062 9.641843775968383
12.110545421148082 -10.128982994370284 10.417335080588689
13.011663421957529 -9.754272732109296 11.208808127633317
13.893188618567626 -9.426949359472797 12.016280752733463
14.748027157823394 -9.173392692648374 12.839621844048198
15.565843892965079 -9.015875210130249 13.67693554907522
16.33584549928309 -8.968507707814164 14.522050751635353
17.0503011323172 -9.038899049765556 15.363820537658977
17.705463946739904 -9.23250180721396 16.18941332840362
18.299827038393936 -9.55438963518575 16.989132535895425
18.832755687020587 -10.00753524044334 17.759381333605127
19.30402099353271 -10.5895045159773 18.501174084856718
19.712585113236496 -11.289767333043029 19.21714011366236
20.05695354616845 -12.08646206838683 19.91039841715649
20.33894638205531 -12.947177007036025 20.585064260219074
20.56432669839516 -13.833697480823936 21.24619780376923
LINES 1 76
75 0 1 2 3 4 5 6 7 8 9 10 11 12 13 14 15 16 17 18 19 20 21 22 23 24 25 26 27 28 29 30 31 32 33 34 35 36 37 38 39 40 41 42 43 44 45 46 47 48 49 50 51 52 53 54 55 56 57 58 59 60 61 62 63 64 65 66 67 68 69 70 71 72 73 74
POINT_DATA 75
SCALARS MaximumInscribedSphereRadius float
LOOKUP_TABLE default
1.2
1.2108108108108109
1.2216216216216216
1.2324324324324323
1.2432432432432432
1.2540540540540541
1.2648648648648648
1.2756756756756755
1.2864864864864864
1.2972972972972974
1.308108108108108
1.3189189189189188
1.3297297297297297
1.3405405405405406
1.3513513513513513
1.362162162162162
1.372972972972973
1.3837837837837839
1.3945945945945946
1.4054054054054053
1.4162162162162162
1.427027027027027
1.4378378378378378
1.4486486486486485
1.4594594594594594
1.4702702702702704
1.481081081081081
1.4918918918918918
1.5027027027027027
1.5135135135135136
1.5243243243243243
1.535135135135135
1.545945945945946
1.5567567567567568
1.5675675675675675
1.5783783783783782
1.5891891891891892
1.6
1.6108108108108108
1.6216216216216215
1.6324324324324324
1.6432432432432433
1.654054054054054
1.6648648648648647
1.6756756756756757
1.6864864864864866
1.6972972972972973
1.708108108108108
1.718918918918919
1.7297297297297298
1.7405405405405405
1.7513513513513512
1.7621621621621621
1.772972972972973
1.7837837837837838
1.7945945945945945
1.8054054054054054
1.8162162162162163
1.827027027027027
1.8378378378378377
1.8486486486486486
1.8594594594594596
1.8702702702702703
1.881081081081081
1.8918918918918919
1.9027027027027028
1.9135135135135135
1.9243243243243242
1.9351351351351351
1.945945945945946
1.9567567567567568
1.9675675675675675
1.9783783783783784
1.9891891891891893
2.0
SCALARS Curvature float
LOOKUP_TABLE default
0.0
0.036183992248195955
0.011368911370637187
0.011809901142867554
0.04038931025806419
0.0875279150100371
0.15890026038342073
0.23312103758827643
0.23223542492765467
0.18172750777581903
0.14894048992135794
0.13207220276019646
0.13339510884832412
0.12155629961741343
0.10316922428839631
0.09333757899264515
0.0941128119663717
0.13152638515569948
0.2299940642327141
0.3977685567100767
0.5455633205597519
0.5299017851031869
0.35992623569912985
0.21973810495032814
0.1456245822153616
0.09388996437683524
0.049926944655040995
0.004281917541750613
0.046121872619367316
0.09709366158075891
0.14223333646572955
0.17122357925282763
0.17405250052322666
0.1574018817330859
0.1352590236662996
0.1123275275926571
0.09136445049503623
0.07557836981123282
0.06285943942490077
0.05386951772276765
0.05320177884550153
0.04196448560377861
0.03737735556900179
0.051623779931545134
0.06624081018963401
0.08097730553692999
0.09437279882252353
0.10458596724604843
0.10953686363040424
0.104459065809603
0.09492882179875439
0.08664100867504851
0.07963833750182282
0.07299794540528896
0.06719403267885332
0.06070942604237785
0.05053662223658735
0.03654781690867688
0.023160799385727678
0.0156888912683025
0.019759996367693933
0.033360962956617383
0.05190691240041174
0.07148604713662901
0.08857290071730493
0.10300160319698463
0.11713078773032425
0.13017063310479948
0.13571160230428894
0.12863544021054013
0.11198800548488638
0.09109368206461332
0.06933341760819169
0.049936572976675676
0.0
SCALARS Torsion float
LOOKUP_TABLE default
0.0
0.0
0.5236760588277648
0.47829805182080604
0.08904280666797998
0.06331793748203189
0.06917872114332811
0.08411303080012399
0.16136601291569813
0.2871969985168182
0.2879985763951873
0.22364156219293632
-0.03606108439081415
0.05614260188513198
0.14828859080412116
0.11603166297004888
0.2594997323298271
0.27358613434312834
0.17501165243946415
0.08696149201604171
0.05981003926574963
0.07082631697941566
-0.03499052472709399
-0.17768327752097335
-0.1105961906516386
-0.06680357017667506
-0.02781535386657951
0.8236024740458019
0.017238130222225978
-0.006093047491294912
-0.005801714167561128
-0.01391845709127423
-0.016565138089636992
-0.0031719504628870705
-0.010429631752665163
-0.04375738897874285
-0.03947335266076759
0.025340551062625068
0.12815837785320766
0.2404765335021501
0.1837307769117778
0.17502337841836027
0.6017109334440756
0.2049969098629824
0.08747999032490568
0.06210432121152488
0.050047266440216696
0.030090515654783573
-0.021697875771576114
-0.11180250529059306
-0.13935885458487843
-0.0997076705691267
-0.022409286865971725
0.06852331834827466
0.13095848076210012
0.1430185573366396
0.13853024042117157
0.18008195149991563
0.33785550007974774
0.588514089507841
0.4080549337789926
0.15428636527573453
0.056222991547812656
0.01645399556817763
0.008792892310530374
0.028107427115113513
0.04762784527240712
0.041174077867658344
0.015764881862972407
-0.008817617096179533
-0.03508547681680654
-0.07589283653327364
-0.1371729210601071
-0.27005909062753547
0.0
