# vtk DataFile Version 2.0
Vessel Segment
ASCII
DATASET POLYDATA
POINTS 75 float
-5.308541810108435 22.42447280889009 -7.2585116532717375
-5.863097144264589 21.386093270761002 -7.150859728617237
-6.471085893535121 20.316951598756695 -6.903927872491639
-7.1107218498433715 19.24913945356298 -6.591725119235283
-7.761977728011996 18.210479327182036 -6.287513304417533
-8.40309474634307 17.221195972241272 -6.0662649239837805
-9.009335734273975 16.291661967368988 -5.997752948336503
-9.553156365785863 15.419681770686886 -6.133607099637996
-10.005681215745263 14.58924316163517 -6.493462913416758
-10.33917848396534 13.775397757508511 -7.061509883512256
-10.534797920082859 12.954342948855166 -7.788770693843643
-10.588988069776851 12.107453572478855 -8.611455405596228
-10.504508897524165 11.230224224909229 -9.474058599505312
-10.271661434371586 10.349073876652467 -10.354754309703567
-9.901268965953518 9.494654623159898 -11.214512552732359
-9.415489657461015 8.679398403573517 -12.026260968805557
-8.845375693339541 7.912462433560303 -12.768100065702965
-8.230987349541314 7.187209023382132 -13.410488052779835
-7.615073206087693 6.493437728080184 -13.908816242014145
-7.039605024750703 5.826763676294389 -14.212818862303685
-6.541094556902648 5.19687220478097 -14.27795047907413
-6.1499107333824 4.629837331254217 -14.079568126241606
-5.899162169508575 4.160646711537372 -13.625091051248972
-5.79920858280825 3.8235539642788328 -12.964936832304042
-5.836253325257671 3.6436004377325433 -12.152990036780546
-5.983151209992214 3.6303303422608533 -11.240658083077427
-6.198873158818532 3.766753801310528 -10.2715852143342
-6.436562941692155 4.013661971945099 -9.28015604160411
-6.647099775937909 4.306427100717274 -8.293189254725212
-6.7939340492185005 4.57133485414688 -7.31757239955485
-6.860126229304719 4.742187255378447 -6.353996348478053
-6.8449555725244196 4.764995418211034 -5.407057250949332
-6.758339571686613 4.600990435491773 -4.490223416553516
-6.616799545449266 4.233353750096259 -3.6248066611592433
-6.436523589051557 3.6668590147331837 -2.830861679885691
-6.22862598896813 2.9208642595246275 -2.125034927297846
-6.001279706851107 2.0266840631862015 -1.521308530830245
-5.762121620562327 1.0229083801824002 -1.0279269599573517
-5.517744119211317 -0.05203293944003884 -0.6435210159425326
-5.272256420281168 -1.1665665649798698 -0.3527556567617331
-5.024008996740743 -2.299688525951313 -0.12636498586357062
-4.762628897154385 -3.439108439321625 0.07517930948330807
-4.4682587866753325 -4.575670760177078 0.29214705088599335
-4.118509592442712 -5.696566049701299 0.5567561548283911
-3.6897004458391454 -6.780935723670467 0.8931129926738955
-3.1605551711042805 -7.797872544887057 1.3135615935494196
-2.517392740404494 -8.709720736932201 1.818539401075242
-1.7578329146401706 -9.480061207686095 2.3984212819251036
-0.8912084720904405 -10.083945218225148 3.035772355035655
0.06568776441616572 -10.515742500690504 3.7080329618546912
1.0943270162070455 -10.787859166689152 4.39193442957289
2.179076293227502 -10.92246800078363 5.06637974978689
3.3064434400905336 -10.943928791769485 5.717492765091025
4.4617465961018805 -10.872755050912048 6.342635882916198
5.628253329622981 -10.723549919763387 6.94905511396257
6.790444954788338 -10.505436958775 7.547907087101591
7.938152014760763 -10.226654903002581 8.148514466231733
9.06858495001197 -9.900235629636166 8.756327398444341
10.185229252355558 -9.54721719641768 9.374467441594643
11.293794263176238 -9.195835905351755 10.00602556998084
12.39804997953429 -8.879242802078988 10.654459902947774
13.49663950742776 -8.633262497465319 11.322719150356914
14.580968803486936 -8.492765631733818 12.01280991736743
15.633420509043678 -8.486286502713227 12.725978535551322
16.627014648678387 -8.631694209981424 13.462362083612364
17.528732703401513 -8.936086305972465 14.218878642378844
18.30592439204889 -9.398461536143484 14.986958662497214
18.933170056826494 -10.01094897954388 15.753894838370957
19.39702694196405 -10.757374222596283 16.507335428220795
19.69871688962561 -11.613525750420232 17.23963660423153
19.855074355175237 -12.55016466827418 17.948541875517158
19.89661797945671 -13.538126431374641 18.635736255273425
19.861833839709053 -14.551961927475734 19.304566841968963
19.792404790456743 -15.568766319249288 19.958186078703807
19.7304108036731 -16.568678376521756 20.598398329539336
LINES 1 76
75 0 1 2 3 4 5 6 7 8 9 10 11 12 13 14 15 16 17 18 19 20 21 22 23 24 25 26 27 28 29 30 31 32 33 34 35 36 37 38 39 40 41 42 43 44 45 46 47 48 49 50 51 52 53 54 55 56 57 58 59 60 61 62 63 64 65 66 67 68 69 70 71 72 73 74
POINT_DATA 75
SCALARS MaximumInscribedSphereRadius float
LOOKUP_TABLE default
1.2
1.2108108108108109
1.2216216216216216
1.2324324324324323
1.2432432432432432
1.2540540540540541
1.2648648648648648
1.2756756756756755
1.2864864864864864
1.2972972972972974
1.308108108108108
1.3189189189189188
1.3297297297297297
1.3405405405405406
1.3513513513513513
1.362162162162162
1.372972972972973
1.3837837837837839
1.3945945945945946
1.4054054054054053
1.4162162162162162
1.427027027027027
1.4378378378378378
1.4486486486486485
1.4594594594594594
1.4702702702702704
1.481081081081081
1.4918918918918918
1.5027027027027027
1.5135135135135136
1.5243243243243243
1.535135135135135
1.545945945945946
1.5567567567567568
1.5675675675675675
1.5783783783783782
1.5891891891891892
1.6
1.6108108108108108
1.6216216216216215
1.6324324324324324
1.6432432432432433
1.654054054054054
1.6648648648648647
1.6756756756756757
1.6864864864864866
1.6972972972972973
1.708108108108108
1.718918918918919
1.7297297297297298
1.7405405405405405
1.7513513513513512
1.7621621621621621
1.772972972972973
1.7837837837837838
1.7945945945945945
1.8054054054054054
1.8162162162162163
1.827027027027027
1.8378378378378377
1.8486486486486486
1.8594594594594596
1.8702702702702703
1.881081081081081
1.8918918918918919
1.9027027027027028
1.9135135135135135
1.9243243243243242
1.9351351351351351
1.945945945945946
1.9567567567567568
1.9675675675675675
1.9783783783783784
1.9891891891891893
2.0
SCALARS Curvature float
LOOKUP_TABLE default
0.0
0.08236082444839257
0.03993821460672815
0.01600893422909962
0.05219045131641602
0.11932954599615456
0.19702411955687152
0.23517327466887783
0.20871786689911287
0.1541015478476652
0.10957715379376005
0.08862791797882238
0.08899831143011433
0.08782653887262755
0.08343685607334896
0.07832598571235931
0.07653412680403224
0.1062874723827129
0.19212242357641332
0.3466886667957488
0.5100677403924526
0.5516174945586385
0.44628016579924956
0.31783518213872997
0.2211731660387221
0.14746020772788945
0.09273632485904822
0.04831394556367241
0.06218364980340504
0.12392814244326193
0.18578617064154462
0.22686871059073851
0.2316846075822786
0.20567408690914815
0.1694377983718154
0.13701630419624877
0.11218398744388872
0.09260425525266491
0.07241964631810545
0.04777578278225367
0.02018669449206042
0.024963742789918388
0.0508598597918998
0.07576843146408721
0.0978521728826368
0.11667759374277872
0.1300630266362407
0.13373081439401754
0.12505851025730383
0.10759698105833425
0.08836552370457239
0.07119218557137927
0.056965778489434585
0.04588728696703967
0.03944307513943439
0.035521511127666584
0.029173742699387134
0.0180688744301078
0.008980618506058092
0.022255265446714908
0.042644404449496874
0.06452543492732732
0.08576279972507746
0.10524717532408875
0.12387786897277675
0.14188902288959615
0.15510988522367639
0.15643369189265632
0.14259772887692873
0.11694943151257184
0.085989997296773
0.05516056075419546
0.025759250309298442
0.004720840435142381
0.0
SCALARS Torsion float
LOOKUP_TABLE default
0.0
0.0
0.28098023128922456
0.9596017048765956
0.2573431068485801
0.10055266248734646
0.08457903588944579
0.11037062347673723
0.16465963993093666
0.23611621801772503
0.2997506962142603
0.2505335494674991
-0.011701803459414128
0.0328332855365797
0.0666250975302492
0.08439476056427948
0.29774401921560467
0.3359714544219248
0.19760915827532113
0.08236274848273262
0.018134475646823786
0.028252591780880968
-0.014753141486590852
-0.08680708694038844
-0.11519838533212023
-0.16448203549880266
-0.29561882182781496
-0.8033108036572324
-0.6592172361570758
-0.25383224348790046
-0.15740613418691615
-0.12060927011587176
-0.09596888550446887
-0.06562671027624885
-0.02912262197624118
-0.004533890976890092
0.0036179719726423575
0.006035701877877022
0.009239117078443188
0.06930856050897612
0.6818048170425215
0.5840241671037278
0.10900503237840564
0.012154670910401497
-0.02485933495746563
-0.03415267959712281
-0.0315058687038433
-0.02927398237498724
-0.0378269384787776
-0.05549739702539102
-0.08331485229506021
-0.08502790143824271
-0.022148013492184995
0.09408920966853494
0.17729265645141407
0.1653700120206971
0.13871037656741994
0.2687736057789425
0.8821184356619887
0.2574340600369497
0.06759122878720528
0.014927191299939337
-0.0166668851013032
-0.042317235886311956
-0.0522582695577455
-0.041191166732922876
-0.024233551071334188
-0.018509674103151238
-0.024784743114302125
-0.032439471930245836
-0.03258627185256296
-0.01925008195453118
0.034574789605716694
0.996370146062385
0.0
