# vtk DataFile Version 2.0
Vessel Segment
ASCII
DATASET POLYDATA
POINTS 75 float
-5.423441984743074 21.254817825161776 -5.806081289250121
-5.9327686766744945 20.131361558381567 -5.834970637301073
-6.519567896682501 19.020426324750456 -5.73908460198096
-7.160730481770104 17.947115786450812 -5.582024728444485
-7.832845152772881 16.936708029998158 -5.432195051921802
-8.50981747542246 16.010323681740495 -5.364163226458122
-9.160547324987888 15.178978314582537 -5.451803020543758
-9.751130443410315 14.43733095340093 -5.7486058449459385
-10.253495808021254 13.755805281073675 -6.2636206589125445
-10.645217737953377 13.092691748846716 -6.978819509912456
-10.903484246327853 12.418871719938346 -7.845330430145044
-11.00601390143109 11.72062427043217 -8.79619774161605
-10.940411361858244 11.00570281283269 -9.767517050914245
-10.703563075442394 10.297544815821574 -10.731765997858009
-10.305018416162344 9.617258936310964 -11.67923227805097
-9.765240355131237 8.968466963615837 -12.608245492810441
-9.115548692375144 8.344292342445899 -13.500744247736316
-8.399709998895384 7.73233116555883 -14.307812036077154
-7.670139193983102 7.125344440609352 -14.953235453655504
-6.982319672439643 6.529679672488564 -15.351616553991157
-6.38871923164267 5.9739741853050585 -15.433269201797737
-5.92534195069361 5.509339261452701 -15.179733913517708
-5.614019540237155 5.168706191993132 -14.623759875109698
-5.465082184305813 4.970638532801498 -13.828608149135386
-5.463004667535433 4.922400505346117 -12.863723753829229
-5.574279349520157 5.012057224241254 -11.792952833274173
-5.751685039985423 5.204431876679625 -10.667218297111726
-5.947974267983701 5.446003056617907 -9.521872905427639
-6.126691615270155 5.672834026067816 -8.380715807280898
-6.265855213627418 5.81996854371626 -7.25934272893632
-6.35504604252517 5.828572060557868 -6.171526340430095
-6.392171403744637 5.652600779918661 -5.134170251410417
-6.382489677175349 5.266570108933214 -4.169624980352471
-6.3364294627421875 4.670758712170451 -3.3009021443019084
-6.265442712733792 3.8887422104308125 -2.5449778451008997
-6.180644316138789 2.96096710389957 -1.9035668826434478
-6.085994340357941 1.9275431863328032 -1.3627438529994986
-5.9811219365113715 0.8209341562369393 -0.9059883309120412
-5.863438397799775 -0.33267317870394375 -0.5163357183879492
-5.724655322045991 -1.513687722222923 -0.1760606442229096
-5.550190444117411 -2.7082393674016405 0.13387792858571337
-5.318665076085988 -3.9061691854896994 0.44166712514309
-4.993986536927908 -5.096330784842412 0.766564217252849
-4.559778266859839 -6.258270976846878 1.1038786176807043
-4.008538068413704 -7.364945093018428 1.4611224189794185
-3.335136177306534 -8.383835353986216 1.8476243082896593
-2.5421342367917155 -9.280908783494038 2.2719130262415983
-1.6422187424974388 -10.026682364305406 2.738523806488505
-0.6553016781632868 -10.6041405163425 3.242522275779699
0.3978279043516836 -11.015799588516309 3.7737457151659566
1.4976992303690295 -11.274095144638324 4.328226890232
2.62854358449467 -11.392206578805268 4.8988972186414514
3.7784308626706005 -11.386251723138454 5.476815972639801
4.935552557963642 -11.273500739100447 6.057733943987561
6.085798103173527 -11.069934522065278 6.643784121513732
7.214580118092551 -10.788817936547423 7.241133205475063
8.311619746029068 -10.442295513280209 7.8560222880276305
9.375146274736762 -10.046242781374772 8.491913340003642
10.411992885305702 -9.624304949542244 9.148971217293383
11.432892968207385 -9.207935312853662 9.825235929694285
12.446626774344677 -8.83311753539857 10.51830295095353
13.455765975649946 -8.536435141121153 11.226699146672757
14.454226748354294 -8.351442606724348 11.951617810852847
15.425843920026796 -8.304996805979052 12.697462481817876
16.345616475531262 -8.414414739638858 13.468948200861805
17.184836950643888 -8.687021267253655 14.264928529198324
17.918617629768242 -9.122271549381413 15.07366876918009
18.53085484256742 -9.71351309645337 15.874913124142273
19.015503162814337 -10.44838766899439 16.647161251771415
19.376547437928334 -11.307876127148548 17.376068405462647
19.628144294662533 -12.266015688914026 18.058489128034232
19.793071530651368 -13.289367684400545 18.702156834761723
19.90246629241334 -14.333619668418066 19.324102124361364
19.998692262504196 -15.348285957576953 19.9480190069532
20.130149262969926 -16.28868471322361 20.597448976568433
LINES 1 76
75 0 1 2 3 4 5 6 7 8 9 10 11 12 13 14 15 16 17 18 19 20 21 22 23 24 25 26 27 28 29 30 31 32 33 34 35 36 37 38 39 40 41 42 43 44 45 46 47 48 49 50 51 52 53 54 55 56 57 58 59 60 61 62 63 64 65 66 67 68 69 70 71 72 73 74
POINT_DATA 75
SCALARS MaximumInscribedSphereRadius float
LOOKUP_TABLE default
1.2
1.2108108108108109
1.2216216216216216
1.2324324324324323
1.2432432432432432
1.2540540540540541
1.2648648648648648
1.2756756756756755
1.2864864864864864
1.2972972972972974
1.308108108108108
1.3189189189189188
1.3297297297297297
1.3405405405405406
1.3513513513513513
1.362162162162162
1.372972972972973
1.3837837837837839
1.3945945945945946
1.4054054054054053
1.4162162162162162
1.427027027027027
1.4378378378378378
1.4486486486486485
1.4594594594594594
1.4702702702702704
1.481081081081081
1.4918918918918918
1.5027027027027027
1.5135135135135136
1.5243243243243243
1.535135135135135
1.545945945945946
1.5567567567567568
1.5675675675675675
1.5783783783783782
1.5891891891891892
1.6
1.6108108108108108
1.6216216216216215
1.6324324324324324
1.6432432432432433
1.654054054054054
1.6648648648648647
1.6756756756756757
1.6864864864864866
1.6972972972972973
1.708108108108108
1.718918918918919
1.7297297297297298
1.7405405405405405
1.7513513513513512
1.7621621621621621
1.772972972972973
1.7837837837837838
1.7945945945945945
1.8054054054054054
1.8162162162162163
1.827027027027027
1.8378378378378377
1.8486486486486486
1.8594594594594596
1.8702702702702703
1.881081081081081
1.8918918918918919
1.9027027027027028
1.9135135135135135
1.9243243243243242
1.9351351351351351
1.945945945945946
1.9567567567567568
1.9675675675675675
1.9783783783783784
1.9891891891891893
2.0
SCALARS Curvature float
LOOKUP_TABLE default
0.0
0.09001210642597514
0.056632824389449846
0.04056153344526692
0.0713528914158114
0.14774154115479546
0.23077623784563878
0.24095366554542133
0.19114855244050613
0.14048385383488404
0.11719056778123338
0.11360724052594984
0.11371785929900212
0.10699342727038445
0.09026354474735447
0.07259348258833095
0.06891396048545871
0.10467001811106356
0.2111496262821553
0.43052411199743024
0.6338615767569482
0.5772884309715056
0.37894926725073413
0.2274197445513273
0.1390418273954385
0.07982950704981896
0.032777878008370134
0.015342682273383507
0.06485071196076324
0.12195694240643078
0.17607091770411815
0.2071850082071667
0.20381683054184796
0.17624271354617246
0.1377400513704724
0.10060632877748023
0.07317396658782563
0.05295231757480147
0.03815722029420923
0.030647391787526047
0.03513797849213105
0.05691121352889922
0.06817387690743722
0.07874979946387632
0.0930975550671964
0.10793232999163883
0.11940774215821644
0.12299497685346343
0.11491202153831336
0.10118400080534273
0.08802038625165413
0.07472073820834084
0.06250604284520472
0.05301091952847606
0.04744265020204492
0.043916990105757094
0.03741681784371958
0.02535146872781944
0.015066372558364346
0.027014917741770943
0.0488529189974026
0.07204526716573692
0.09422848214234873
0.11374447635690568
0.1292849697580926
0.13962705192271033
0.14364073349539092
0.1401348827062137
0.12705790658614302
0.10445213488462778
0.07572487672954695
0.04238519718504279
0.014349979717554612
0.05658709756308572
0.0
SCALARS Torsion float
LOOKUP_TABLE default
0.0
0.0
0.326618314644809
0.6969706287977778
0.41686793287891505
0.19239442518012698
0.1378359891415111
0.1621123480790372
0.21516967881692806
0.2646930673528491
0.265479704425176
0.15547612646020556
-0.012182450495820035
-0.057823980828065516
-0.02133903121896602
0.10828279695640722
0.31657122501907214
0.2633630579630169
0.12358465914087247
0.03013037041298945
-0.051960942630706636
-0.027530675463686757
-0.013302928389549334
-0.0672341417613239
-0.0957890204316522
-0.15638754635063667
-0.40930334434676274
-0.7596627555067821
-0.0954412496831023
-0.06366037099041107
-0.05218589385864823
-0.04925126386918293
-0.047005582958856124
-0.039381592515166146
-0.03650904031465891
-0.0015215599065627333
0.03364310517568104
0.07867259986558776
0.22778294591284864
0.42132801032875994
0.41484416597408996
0.11618821042703781
-0.019071864804324448
0.06078530225222091
0.05912478104023548
0.05398128294909501
0.045838433208187215
0.020101977669784568
-7.587100260545918e-05
0.025663365727607648
0.004650939046238388
-0.0181683831688531
0.010293512139934388
0.07973049107478838
0.13628083183000222
0.13969966777658632
0.14074466372655478
0.27997383649658236
0.7683655847869717
0.34980140522236886
0.09557587790384448
0.008723790380684979
-0.03924877647854263
-0.06328820605967013
-0.05738608235381337
-0.02393452786465808
0.012902491796501828
0.03251931578313623
0.028190808920554887
0.010691225009112855
-0.029546143561672254
-0.22191486397838964
-0.988303801465689
-0.21358407942318391
0.0
