# vtk DataFile Version 2.0
Vessel Segment
ASCII
DATASET POLYDATA
POINTS 75 float
-5.828298468218939 21.60357117995648 -5.973316844766614
-6.230353253506944 20.6184677956912 -5.631497694129964
-6.742941684473008 19.621560350385415 -5.332221658370845
-7.306956028899497 18.62889666852256 -5.110621738638227
-7.867050948484625 17.65563283656907 -4.997225664079939
-8.377571800232463 16.71667743949545 -5.020601622864122
-8.811142096638386 15.827492502198162 -5.208407423437868
-9.15859098838654 15.002708049483033 -5.585149593285528
-9.42294806572094 14.249405642845604 -6.1526877981288814
-9.62091550955747 13.553998774452879 -6.882705539291647
-9.765457491900637 12.88840925036706 -7.730790860522434
-9.849638375089238 12.229510709474088 -8.648104130886715
-9.852438658800377 11.565311743020995 -9.59399399795485
-9.75479773001702 10.883165526686565 -10.534207299840917
-9.532194613531926 10.176432067233355 -11.470676562428762
-9.175750774595812 9.443403917365677 -12.41085597455434
-8.698264738333021 8.672975483356462 -13.342688450923154
-8.139645549381331 7.857079848840414 -14.221052318297282
-7.5582664788031835 6.989097851500391 -14.970890408814746
-7.019892208346697 6.078074334955239 -15.492075446799147
-6.583637137104887 5.175120147445274 -15.692212831738756
-6.27678889342701 4.3568473344398555 -15.532028220528021
-6.129500201971006 3.6993065737751025 -15.016343869962093
-6.1647136924016515 3.2703979834313834 -14.210370356407852
-6.376146276035693 3.1033369574388767 -13.21571662165693
-6.725727242065847 3.188934112051786 -12.132687240207495
-7.148835607514662 3.4799846011774243 -11.041526709536551
-7.5636935219138115 3.9008382207677768 -9.983294345740864
-7.897414835677488 4.374889360232648 -8.95240319925783
-8.09878946890603 4.827332883841195 -7.926530513713646
-8.14308933360175 5.1775720530996 -6.8847578336053585
-8.029969764443987 5.3417526086853595 -5.824464564001105
-7.78149188102455 5.247874741373733 -4.775931858810623
-7.440743708876557 4.870589703915895 -3.7919390494804786
-7.04975734262047 4.23455744113553 -2.9101364645175996
-6.6328476689756215 3.3885026600693076 -2.1412868570673336
-6.204336886212195 2.3918456432004187 -1.4766254537076886
-5.780985932416666 1.3060680863615968 -0.8922132682753509
-5.381114495577329 0.18117286289154924 -0.3604685931134267
-5.015039990219318 -0.951638372594528 0.13635953671357234
-4.677005247190574 -2.07888314620532 0.6044126921290139
-4.345263717110532 -3.2007782218662304 1.0441998245513358
-3.9873309535089896 -4.322472034475106 1.451225239861616
-3.574515592071253 -5.444116774874729 1.8183540476672841
-3.0817146842289054 -6.553725293328287 2.15239590937618
-2.4882528115417255 -7.62088935281666 2.473565384639943
-1.7823722799705721 -8.602836239538533 2.806660625490075
-0.9658583871809489 -9.459333565679728 3.1739135007386046
-0.05362067763668532 -10.164766478650739 3.5897480155692163
0.9322263951148675 -10.712651380627554 4.05775135225687
1.9702966438540825 -11.108929496170324 4.572179243088861
3.045617900945538 -11.361391523073594 5.117844549198675
4.146909790397603 -11.475834286754246 5.67543038411397
5.260104596317333 -11.458140381799373 6.230390586407062
6.366004799440529 -11.31884366975446 6.779812955668174
7.444943497886269 -11.0755306729854 7.332144377502953
8.484843271095345 -10.753166341866851 7.900811083966208
9.486440206276642 -10.382513948154733 8.49622273547364
10.461460709194242 -9.994883840013202 9.121475237116588
11.424520535081015 -9.616997499440796 9.774031589278486
12.386078902566597 -9.270032766880568 10.44951984819714
13.349569528754088 -8.974875473058924 11.144672995125646
14.310321529079937 -8.757518787652938 11.859395827830099
15.253914756119011 -8.647872251542738 12.596634869367843
16.1567260759029 -8.673054899954725 13.359150709107007
16.990792357403187 -8.851614818939952 14.144129587687127
17.730613969655575 -9.19268660737907 14.939251396548883
18.357645483174863 -9.697318897584813 15.724317292258748
18.85952514061964 -10.358765946927457 16.47784261142012
19.23026098839666 -11.161635513183674 17.18425388033623
19.475433313615028 -12.07929813223028 17.837239934252548
19.620371281847998 -13.074527899397475 18.440789152158864
19.705861069398377 -14.108828075449864 19.005284131468947
19.774526769625737 -15.141910621909664 19.541099979274634
19.86866418258172 -16.13053273497187 20.058197793502806
LINES 1 76
75 0 1 2 3 4 5 6 7 8 9 10 11 12 13 14 15 16 17 18 19 20 21 22 23 24 25 26 27 28 29 30 31 32 33 34 35 36 37 38 39 40 41 42 43 44 45 46 47 48 49 50 51 52 53 54 55 56 57 58 59 60 61 62 63 64 65 66 67 68 69 70 71 72 73 74
POINT_DATA 75
SCALARS MaximumInscribedSphereRadius float
LOOKUP_TABLE default
1.2
1.2108108108108109
1.2216216216216216
1.2324324324324323
1.2432432432432432
1.2540540540540541
1.2648648648648648
1.2756756756756755
1.2864864864864864
1.2972972972972974
1.308108108108108
1.3189189189189188
1.3297297297297297
1.3405405405405406
1.3513513513513513
1.362162162162162
1.372972972972973
1.3837837837837839
1.3945945945945946
1.4054054054054053
1.4162162162162162
1.427027027027027
1.4378378378378378
1.4486486486486485
1.4594594594594594
1.4702702702702704
1.481081081081081
1.4918918918918918
1.5027027027027027
1.5135135135135136
1.5243243243243243
1.535135135135135
1.545945945945946
1.5567567567567568
1.5675675675675675
1.5783783783783782
1.5891891891891892
1.6
1.6108108108108108
1.6216216216216215
1.6324324324324324
1.6432432432432433
1.654054054054054
1.6648648648648647
1.6756756756756757
1.6864864864864866
1.6972972972972973
1.708108108108108
1.718918918918919
1.7297297297297298
1.7405405405405405
1.7513513513513512
1.7621621621621621
1.772972972972973
1.7837837837837838
1.7945945945945945
1.8054054054054054
1.8162162162162163
1.827027027027027
1.8378378378378377
1.8486486486486486
1.8594594594594596
1.8702702702702703
1.881081081081081
1.8918918918918919
1.9027027027027028
1.9135135135135135
1.9243243243243242
1.9351351351351351
1.945945945945946
1.9567567567567568
1.9675675675675675
1.9783783783783784
1.9891891891891893
2.0
SCALARS Curvature float
LOOKUP_TABLE default
0.0
0.0807340219983726
0.06866709034197148
0.08298981810419875
0.1223832010353231
0.1780126995112373
0.22621005859469856
0.22291476713584069
0.1629579627949928
0.0969222553641435
0.061340128722211194
0.061556558159207936
0.07432162469651496
0.08572003284199138
0.0800070229865389
0.0659121507648003
0.05931281185690654
0.08290045721690031
0.15671417757443187
0.29444835299224226
0.45525947356072005
0.5217226787677015
0.42768380153243396
0.29508013339202527
0.19991940870707292
0.1380627032888095
0.09061563941386508
0.06962164028796007
0.09918516297680446
0.15298036476791832
0.20688687654236404
0.24177748477275773
0.23777810979679018
0.2000466651940028
0.15069750592669814
0.10503287209851428
0.0671645473736765
0.040665502744715
0.027955068955995213
0.02079453682351302
0.015648276325776714
0.026933107027516924
0.04318509882156022
0.05454428507286843
0.0687015964879412
0.0897328541818725
0.11072270391718837
0.12269993086694908
0.12102042879417668
0.11045856115133632
0.09907380822146652
0.090890004592335
0.08522785963093168
0.07874502961166772
0.07020631290625041
0.05928019987850377
0.044839696722636734
0.029091907330035995
0.020909657562613936
0.02559350200934439
0.03698086453769211
0.05405572164062119
0.07659286773927723
0.10172051603116981
0.12528496039267276
0.14410771879434128
0.15605593855242694
0.1597104470428416
0.1522450582089389
0.13093604561171837
0.0964686372677701
0.05751915435799648
0.021754507594763606
0.023684202148481624
0.0
SCALARS Torsion float
LOOKUP_TABLE default
0.0
0.0
0.43766469853863815
0.33667881788301385
0.17582938917536858
0.048479961477754074
-0.02196347336404169
-0.029303356399201202
-0.016182995946437934
0.11399807798548814
0.43286570142521963
0.36022836468967645
0.2187323394096119
-0.00032738691755462845
-0.02699126560459867
0.12931729121322066
0.3071858655500909
0.26897366490937674
0.11867761804516933
0.025954070452624087
-0.04024534098717769
-0.002402678275759511
0.028135375222233947
0.020629705033630954
-0.015044773254278696
-0.0915180311839662
-0.35246054420387474
-0.6771066164242262
-0.4430712242372484
-0.2671800697741359
-0.19704769068866046
-0.15139476693684573
-0.11622109591389677
-0.07791915557689832
-0.03041620423039186
-0.005814887445220161
-0.06595001232949205
-0.26026146320543975
-0.34708083031320325
-0.03171040393903135
0.591177510037027
0.33438073222307974
0.11699756193825692
0.16517011794070843
0.2004586886544528
0.15721710980902096
0.11202637018732092
0.08300600567776992
0.05814554050499783
0.028099168790623477
-0.03168879294053695
-0.07012510557596176
-0.04287227054766991
0.03837991938615558
0.13713099373448945
0.22196395609511615
0.3108431135518121
0.4949325878186013
0.6623615602952806
0.3918262732920466
0.14571514099345592
0.028066407694797235
-0.025875735556907236
-0.045379968211528926
-0.03925526805232899
-0.012577463558449055
0.01663420952503942
0.023683441661512327
0.009574199816006013
-0.005848626939529254
0.00016476241505595547
0.07865805607209012
0.5712673287945519
0.5896346535056365
0.0
