# vtk DataFile Version 2.0
Vessel Segment
ASCII
DATASET POLYDATA
POINTS 75 float
-5.603465340710254 21.590480703667822 -5.85760656426041
-6.104483683790996 20.60047749956728 -5.758142408943882
-6.680512899599429 19.556040260082334 -5.60420296265784
-7.300965121091142 18.494243017649026 -5.447842539351251
-7.93654649969302 17.448281156253667 -5.341022721419204
-8.556269196384397 16.446033563103928 -5.336960327601855
-9.126863356422499 15.50785861196524 -5.485162908148547
-9.613758001900548 14.644289817420029 -5.82463214431343
-9.98431846365364 13.8596404732367 -6.372140765546885
-10.22264671539119 13.13988379258204 -7.09835989103125
-10.32887907599212 12.450282116972561 -7.95118874110264
-10.307757489526452 11.762468576383187 -8.880149946679783
-10.164404724389968 11.064741651732566 -9.846088270891954
-9.899133204896808 10.366049609209876 -10.824136510402678
-9.523582168925941 9.677964396537158 -11.78040015300138
-9.058914667546231 9.00120558388271 -12.68048514936937
-8.53361757475114 8.33567842885935 -13.484008548655943
-7.9865818729117475 7.68270882131292 -14.144239803895795
-7.459577127991586 7.047785809474549 -14.614897757680508
-6.9900947332136685 6.4425947699535175 -14.855078720666038
-6.606006837466449 5.890074781544898 -14.834671297104904
-6.325696252750986 5.417249417578302 -14.545321264847647
-6.1689358024036425 5.051910737995618 -14.012652951128995
-6.12717841857834 4.809308438922787 -13.299211561748693
-6.178031003136372 4.685226888489455 -12.454737875580376
-6.299562225612593 4.663704488725437 -11.518862346259125
-6.466024608184061 4.7210178918637 -10.52045410512175
-6.6525893460150165 4.8363574166526115 -9.488767587369605
-6.827105743353785 4.9666825440692 -8.462147997798219
-6.964568428248197 5.053190073062183 -7.456386635548887
-7.052380469323356 5.038437463906596 -6.477062066082392
-7.085225330441163 4.872100514554299 -5.531818303666501
-7.065773276982028 4.5205833846375185 -4.636741227820196
-7.005978257016999 3.9815325483010113 -3.810455540627629
-6.9156274158788005 3.278107231081678 -3.0617239261885176
-6.79622123807282 2.4420878269845634 -2.3919893148190763
-6.647335779381091 1.5073440754822298 -1.7992220332978632
-6.466977321692897 0.503384571928091 -1.2758980271926799
-6.2482808045271625 -0.5476256093329082 -0.8121758975660683
-5.979491192946859 -1.6265996201526307 -0.39719183277137193
-5.646028705206919 -2.7145317351876734 -0.018670264695631343
-5.236421299266983 -3.79267846385778 0.33180893774520515
-4.752751211880817 -4.844886205163168 0.6684234531648602
-4.192221052911347 -5.85911955504811 1.01912883285059
-3.5524127254178572 -6.8218017467204435 1.3995820371123846
-2.834615741456652 -7.716770912761263 1.8172747325625995
-2.04195555985789 -8.5256796369726 2.2739491699462744
-1.1794927992284345 -9.230956022339432 2.767175492854887
-0.2541244549004876 -9.819815232493012 3.2930507417282806
0.7264512753250266 -10.285123937811226 3.844929049061469
1.75682708141796 -10.628612256142631 4.409226529176273
2.8332906515788125 -10.85845961238518 4.974510522955632
3.9498258994595603 -10.98195263718589 5.535397662669579
5.095264021142929 -11.003890667836806 6.092593444679874
6.2532320454271595 -10.928248427939234 6.652467397245885
7.405471605836374 -10.760334282633583 7.224754296264365
8.537035670293449 -10.510861704227368 7.818455161264975
9.64106004850305 -10.200056158261697 8.438368561046463
10.72011137088345 -9.857764348806507 9.084569723280918
11.782137404444837 -9.518950296144654 9.754529211967087
12.832501864530649 -9.218399988057623 10.44570817905457
13.866526500372634 -8.987923519456073 11.157353908752158
14.866386170192653 -8.854713766755463 11.89035952104825
15.803520150681269 -8.839721362145708 12.645316859097257
16.64585220521183 -8.955454775401869 13.420234490824042
17.36790929630192 -9.205252014774377 14.20878836073006
17.95979018907746 -9.58430827089678 15.000632211304287
18.429624778856198 -10.081608927043545 15.785355543043813
18.79819175128261 -10.681199695983679 16.557562812553098
19.090052461645225 -11.363656762274116 17.319439844967718
19.327858679490586 -12.107609075507982 18.078450960793617
19.531375778383367 -12.892712622790032 18.842888868902026
19.718283848725598 -13.701699357513704 19.618626546452976
19.905051674403936 -14.519176921980588 20.40841005900687
20.107752797454236 -15.328852825641283 21.213585768748448
LINES 1 76
75 0 1 2 3 4 5 6 7 8 9 10 11 12 13 14 15 16 17 18 19 20 21 22 23 24 25 26 27 28 29 30 31 32 33 34 35 36 37 38 39 40 41 42 43 44 45 46 47 48 49 50 51 52 53 54 55 56 57 58 59 60 61 62 63 64 65 66 67 68 69 70 71 72 73 74
POINT_DATA 75
SCALARS MaximumInscribedSphereRadius float
LOOKUP_TABLE default
1.2
1.2108108108108109
1.2216216216216216
1.2324324324324323
1.2432432432432432
1.2540540540540541
1.2648648648648648
1.2756756756756755
1.2864864864864864
1.2972972972972974
1.308108108108108
1.3189189189189188
1.3297297297297297
1.3405405405405406
1.3513513513513513
1.362162162162162
1.372972972972973
1.3837837837837839
1.3945945945945946
1.4054054054054053
1.4162162162162162
1.427027027027027
1.4378378378378378
1.4486486486486485
1.4594594594594594
1.4702702702702704
1.481081081081081
1.4918918918918918
1.5027027027027027
1.5135135135135136
1.5243243243243243
1.535135135135135
1.545945945945946
1.5567567567567568
1.5675675675675675
1.5783783783783782
1.5891891891891892
1.6
1.6108108108108108
1.6216216216216215
1.6324324324324324
1.6432432432432433
1.654054054054054
1.6648648648648647
1.6756756756756757
1.6864864864864866
1.6972972972972973
1.708108108108108
1.718918918918919
1.7297297297297298
1.7405405405405405
1.7513513513513512
1.7621621621621621
1.772972972972973
1.7837837837837838
1.7945945945945945
1.8054054054054054
1.8162162162162163
1.827027027027027
1.8378378378378377
1.8486486486486486
1.8594594594594596
1.8702702702702703
1.881081081081081
1.8918918918918919
1.9027027027027028
1.9135135135135135
1.9243243243243242
1.9351351351351351
1.945945945945946
1.9567567567567568
1.9675675675675675
1.9783783783783784
1.9891891891891893
2.0
SCALARS Curvature float
LOOKUP_TABLE default
0.0
0.04044603137234329
0.01931458851952612
0.03525855006285544
0.07406899130794742
0.13108509107737765
0.19627594231060808
0.23394487183257284
0.20249114169268562
0.1416525885415337
0.10037857366121679
0.0816497466155122
0.07705326960434453
0.07338122852634309
0.07066672505556518
0.07688851864184698
0.10168567763352745
0.16632951292459833
0.30665403744149383
0.5281284295725922
0.649096287159085
0.5499651510847076
0.35728637563407717
0.21677700300275357
0.13379131450570095
0.07978996079371459
0.0498159556157173
0.01744880058691687
0.0515582855519956
0.11539091778789712
0.17655581927135316
0.2104368599847759
0.2001895204931044
0.16286554079670582
0.12531666495346766
0.09607948731402115
0.0738545157701779
0.059200220845175004
0.051526691116761926
0.05095648989861961
0.05585231745195315
0.05469328280237583
0.05895769061925876
0.06648989260067877
0.07327516344498299
0.08055540968131662
0.08742456727676892
0.0917778274016895
0.09247910100119189
0.08755622982878439
0.07891668382350012
0.07051076707814244
0.06350232607391143
0.05820223106087746
0.054871000901439676
0.05098512841172205
0.0423706151775609
0.028253240159530308
0.017333054812677214
0.026758431831588186
0.04502998002576901
0.06564805887715203
0.08992406639665056
0.11806168851079157
0.14528999085806227
0.16085154764503537
0.15560739396679785
0.13099549117529727
0.09750093567293242
0.06475664999039181
0.03773392555992522
0.017152473131220137
0.0037685006313568307
0.01641079124900082
0.0
SCALARS Torsion float
LOOKUP_TABLE default
0.0
0.0
0.8491485265791173
0.3806044797153498
0.13537933046181808
0.08311287950974143
0.07441499671224412
0.07662720359921205
0.12468366950703463
0.24087937840204598
0.29932525900423773
0.22209887192466685
0.05162722122409824
0.07484619479962251
0.16740425481511018
0.2249323458190042
0.2506035896774285
0.19205071803963794
0.11144467829165157
0.0278584330091268
-0.009027331180869801
0.022004962763716905
-0.041232229209729306
-0.07539699430928518
-0.05575218845056439
-0.1165123553366138
-0.24057457115398
-0.9697682512494992
-0.3268911113898928
-0.11955349092437678
-0.07492319818676918
-0.06447513973781052
-0.06709862927679065
-0.033985022792879585
0.027065645229443047
0.05882027180204148
0.09709396702500817
0.17172380161131107
0.251022150842466
0.2711356397307652
0.18029092191333457
0.1908409868553911
0.26052324184990266
0.12065133973563696
0.059369504288939154
0.02341369157036924
0.00411215624116161
0.000964785662714681
-0.011499843817438881
-0.06049383579842701
-0.06604275754762992
-0.02607976708099663
0.035622787945742904
0.10196616375667505
0.1424322048955556
0.14961573801386416
0.16849884429270662
0.3207099311356598
0.7324073386290176
0.37666021889514406
0.09538920487841546
-0.008781221586013549
-0.04854922167011722
-0.055290240782984564
-0.038749931045838626
-0.005489881042679529
0.031114281988196393
0.051067080723343435
0.0346257801110151
-0.023650676819133194
-0.11331187023585762
-0.3030042336589574
-0.9989584767513193
-0.18640360480823281
0.0
