# vtk DataFile Version 2.0
Vessel Segment
ASCII
DATASET POLYDATA
POINTS 75 float
-5.144910856306257 21.535828133741724 -6.323684911390844
-5.665154648480027 20.50776156067237 -6.260557738842472
-6.26999544882615 19.451174338769718 -6.089742648239006
-6.929207651869488 18.399437967290183 -5.876140730476958
-7.6138458046329625 17.382205882191663 -5.685173845764476
-8.293885035408396 16.423463774268114 -5.5845073188837535
-8.937865340793001 15.538379449515299 -5.638337890691258
-9.514301922376 14.729308876808522 -5.896373282562879
-9.993027477097693 13.98781346296033 -6.380174958276736
-10.351998587172716 13.290481183407369 -7.064226707768082
-10.577842177311267 12.604507522619388 -7.895389677160914
-10.659835681877107 11.908494754822398 -8.814313255113266
-10.589809626907648 11.197189584230188 -9.76774523533437
-10.356321064246535 10.486465986872407 -10.728515949754534
-9.967258495177681 9.792316870057412 -11.663903124792052
-9.445719963791642 9.11566832402301 -12.55004110605896
-8.828186893279154 8.45465607666202 -13.362154299870813
-8.163230066934 7.800806541970782 -14.063663368944928
-7.50329067676589 7.148457011360454 -14.602917967484325
-6.898406554168903 6.501236538599969 -14.922097966075828
-6.391883955100291 5.8774314896233415 -14.968094266907022
-6.023058947035558 5.312690419564067 -14.712041041730092
-5.817246061149853 4.851406212520182 -14.179948530715802
-5.766111464606972 4.522512877230468 -13.437615243357717
-5.8483653851703155 4.338211330885621 -12.546515863499028
-6.0381960478052665 4.2951094348175864 -11.563028785417806
-6.30094404239526 4.369844853623277 -10.533020395801202
-6.59657689960268 4.523858999379974 -9.489064633119396
-6.881120185962256 4.701518440245358 -8.451938850912045
-7.117199343433163 4.840487692123158 -7.425510683669169
-7.280255323177635 4.8844368768873085 -6.4098054685341594
-7.357828784413511 4.78821728993258 -5.411160400232242
-7.3483405397221295 4.521518758226605 -4.445944202345533
-7.259044306584827 4.074577711198133 -3.5360388818160535
-7.099858378462184 3.4552946714864454 -2.7007974591986756
-6.8826963477316125 2.6832293167302703 -1.9556300906366362
-6.62402938876605 1.7871485797769702 -1.3101269118741032
-6.339546400112632 0.7991542149300931 -0.765919493968514
-6.0378253344007655 -0.2501687224041504 -0.31810640444501415
-5.718540132385048 -1.3341054426894088 0.04529628894327709
-5.373074638068715 -2.432259660324101 0.34251954804484086
-4.988852331332837 -3.5304062314398474 0.5924863836968236
-4.5579403807435215 -4.617838467807707 0.8205580413527638
-4.065631551690919 -5.683271954782672 1.0624203028006038
-3.4969122154330776 -6.7080208464032545 1.3424297558463583
-2.84150755727403 -7.667191209613836 1.6757607621815889
-2.0954067746516123 -8.53374640459664 2.071283339070445
-1.2624394805510546 -9.283675431531712 2.5322534937322865
-0.35320172318553855 -9.900990074735207 3.0565705440161235
0.6187627018135423 -10.37844955538468 3.6342779604063016
1.6419384158676875 -10.71860505614229 4.245166539060869
2.7076605177241566 -10.930519192628513 4.8685771035861345
3.8070433786362003 -11.023307439097486 5.490385687162877
4.9283768690061684 -11.004583890750165 6.10561610241915
6.05688682509963 -10.882612405945672 6.717792575325919
7.177775862389808 -10.669170065108684 7.335142090079711
8.280653217346194 -10.382370948557398 7.965604845622703
9.36222691407249 -10.047609362698736 8.613632867935829
10.42561450834596 -9.695378994055623 9.279997322261877
11.476450896098791 -9.357175526222607 9.963270394451058
12.518385281260024 -9.062579011219503 10.661114318357038
13.549721274759188 -8.838972708873182 11.37108247201006
14.561500725064588 -8.711421175149237 12.091503185263672
15.536920208810091 -8.700994190894216 12.822013693852133
16.452791433259055 -8.822088016993018 13.562829196640608
17.283908507934537 -9.081306931446978 14.312189463808444
18.009011567425443 -9.478828281994613 15.064083297491372
18.61496982766869 -10.01010210889983 15.809161745182262
19.09802293881353 -10.666101001896033 16.538042514850684
19.463335759518046 -11.433034846894973 17.24469138061863
19.72409116886957 -12.292642226083181 17.9271328960122
19.89934145882932 -13.222794483293349 18.58680640945621
20.012627446232578 -14.196237016175598 19.228480159702087
20.09218564778958 -15.18248733326221 19.85999594437406
20.167524541736956 -16.15125679402843 20.489800966049653
LINES 1 76
75 0 1 2 3 4 5 6 7 8 9 10 11 12 13 14 15 16 17 18 19 20 21 22 23 24 25 26 27 28 29 30 31 32 33 34 35 36 37 38 39 40 41 42 43 44 45 46 47 48 49 50 51 52 53 54 55 56 57 58 59 60 61 62 63 64 65 66 67 68 69 70 71 72 73 74
POINT_DATA 75
SCALARS MaximumInscribedSphereRadius float
LOOKUP_TABLE default
1.2
1.2108108108108109
1.2216216216216216
1.2324324324324323
1.2432432432432432
1.2540540540540541
1.2648648648648648
1.2756756756756755
1.2864864864864864
1.2972972972972974
1.308108108108108
1.3189189189189188
1.3297297297297297
1.3405405405405406
1.3513513513513513
1.362162162162162
1.372972972972973
1.3837837837837839
1.3945945945945946
1.4054054054054053
1.4162162162162162
1.427027027027027
1.4378378378378378
1.4486486486486485
1.4594594594594594
1.4702702702702704
1.481081081081081
1.4918918918918918
1.5027027027027027
1.5135135135135136
1.5243243243243243
1.535135135135135
1.545945945945946
1.5567567567567568
1.5675675675675675
1.5783783783783782
1.5891891891891892
1.6
1.6108108108108108
1.6216216216216215
1.6324324324324324
1.6432432432432433
1.654054054054054
1.6648648648648647
1.6756756756756757
1.6864864864864866
1.6972972972972973
1.708108108108108
1.718918918918919
1.7297297297297298
1.7405405405405405
1.7513513513513512
1.7621621621621621
1.772972972972973
1.7837837837837838
1.7945945945945945
1.8054054054054054
1.8162162162162163
1.827027027027027
1.8378378378378377
1.8486486486486486
1.8594594594594596
1.8702702702702703
1.881081081081081
1.8918918918918919
1.9027027027027028
1.9135135135135135
1.9243243243243242
1.9351351351351351
1.945945945945946
1.9567567567567568
1.9675675675675675
1.9783783783783784
1.9891891891891893
2.0
SCALARS Curvature float
LOOKUP_TABLE default
0.0
0.0752684355235734
0.03888036867100335
0.029282944816564536
0.06515016329388117
0.1315515277809739
0.2088771461559682
0.24636272745810073
0.20884920260427717
0.15008430977148177
0.11592721322639342
0.1051311410062664
0.10711750492555665
0.10382933599597624
0.09343938642704022
0.08228655243455883
0.08238129869541266
0.11922240305424528
0.21805540107408325
0.4008991500680852
0.569979121992864
0.5394442225906176
0.37757273150496823
0.24735669994634116
0.16792154234252682
0.11194712292710209
0.06678480916596798
0.022232836133105005
0.050666690999863775
0.11031411700139089
0.16128635944273578
0.1908911332817049
0.1920660296196084
0.17297220147075643
0.1469203632517454
0.12097534009773486
0.09884010907482278
0.08121855673446682
0.06542658755349152
0.05120941675499043
0.04309527692460939
0.03701220740762057
0.04601413974114275
0.06467295552635237
0.08243456064664482
0.09765863721427404
0.10782656022591977
0.11062978269342912
0.10648556795154804
0.09657734234663531
0.08524448501215405
0.07605606608014988
0.06861986462252113
0.06155628168739036
0.05418218454345762
0.04496878963793856
0.03244801806834498
0.018345077991607135
0.01472459994894205
0.027654874065420193
0.044091845744472
0.061889227852797435
0.08107587781601058
0.101170251538995
0.12097274406620959
0.1378977570726711
0.14764823734886978
0.14589048731392104
0.13153413724343685
0.10815634436459512
0.08161166890054544
0.05464097757251527
0.027108004066427268
0.006489765002059864
0.0
SCALARS Torsion float
LOOKUP_TABLE default
0.0
0.0
0.46998879424632417
0.7584180969506652
0.2842197685411924
0.12738217941185295
0.09416971891598276
0.09823079943194307
0.15759219841519215
0.26151953630642855
0.2867073586642303
0.20208904530921046
0.020172745786638413
0.034246784575646734
0.08609484120344639
0.1520397059461594
0.3080619013349948
0.26616162986228675
0.13772648902274953
0.04598887376113561
0.0077910613177051904
-0.006229690980802994
-0.046457624860387084
-0.06417547304878443
-0.055288456267448514
-0.07803825889583016
-0.18671745399470513
-0.9455264667120238
-0.39040308565060666
-0.11718612231017506
-0.0781025685952842
-0.0698681635254599
-0.06072509504301957
-0.039582465768189114
-0.030111745866601865
-0.042115534859305664
-0.04010397877133294
0.0011383124233802777
0.08476369278595729
0.22799170723230855
0.3374189229362216
0.42644114646137643
0.38076100112830763
0.13219442563858486
0.04758644805930838
0.02198628026819454
0.015480845005269339
0.012863035300243169
-0.008332124950719142
-0.06135364482380993
-0.08531235636432817
-0.06018875081856322
0.001239296017926786
0.07322868236843938
0.1276404886915603
0.15981306478679852
0.22315891266196186
0.527007905257714
0.7146243287094625
0.24102787661663083
0.07650131908369251
0.00994175233830226
-0.0291727496594663
-0.05227368889327844
-0.05431897454605476
-0.03511443219044416
-0.010130745864497775
0.005479006157989004
0.007752814552444584
0.005990842058718652
-0.00012924048821708924
-0.03526673871355299
-0.1961701864426691
-0.9987850843437445
0.0
