# vtk DataFile Version 2.0
Vessel Segment
ASCII
DATASET POLYDATA
POINTS 75 float
-5.245880630001887 21.400425484819177 -6.175397855725118
-5.7089348266535795 20.321860037223757 -6.109318930336176
-6.284173313032417 19.22792148907478 -5.920078307274037
-6.938369407780677 18.144317714889244 -5.668686021442672
-7.637722153760395 17.09519349822791 -5.4174798543034575
-8.347173116981748 16.103257405606342 -5.232961232038688
-9.032283721520471 15.187793044522397 -5.184477500978723
-9.662538633235908 14.358924656735647 -5.3341834620817625
-10.211671954644562 13.612559382910025 -5.720902895557869
-10.659607905898444 12.922796993250747 -6.334767889893691
-10.987778264863914 12.244312796294038 -7.127995836317664
-11.163737397960793 11.548780949118306 -8.039585426074447
-11.166791176071937 10.83330467619309 -9.005154940293496
-10.989178335407358 10.1201279055075 -9.989126815661292
-10.651081218953605 9.432824817380613 -10.960083479073603
-10.182256100798124 8.771894429603073 -11.912333034669528
-9.601937144347549 8.133339530741273 -12.830026324603791
-8.939873665309898 7.515384400102069 -13.6716415138502
-8.234963518888714 6.913765290057631 -14.381500305841211
-7.52726796093509 6.327879865868211 -14.893035336986943
-6.857233069036879 5.763674200439119 -15.140392423512278
-6.278872666140925 5.235816543712667 -15.064432656388904
-5.8696766050335745 4.7838687533865265 -14.648932557543286
-5.65418667891721 4.452446970198291 -13.962126574128428
-5.617741166444802 4.265632797659731 -13.075600629286917
-5.735014736142518 4.228853164038485 -12.062302690506383
-5.961192479836916 4.32373266598653 -10.991001372922016
-6.241589111211635 4.509949404932941 -9.911334964911262
-6.5253032362004095 4.734556619751951 -8.847805673792735
-6.772300110748889 4.936773127053185 -7.808546075342483
-6.955893883290286 5.055739846227993 -6.794475671561661
-7.062126249889318 5.041191245498209 -5.807557999164224
-7.086453544345584 4.859546615965844 -4.853666612659956
-7.029812091666998 4.494229069553679 -3.942708716764519
-6.897213076151255 3.9443351925741967 -3.08799045228053
-6.697124055268363 3.222313652772707 -2.307607631631032
-6.443869753223209 2.354895144228912 -1.6213620190391553
-6.151871051755192 1.3773272095317413 -1.0412134230463885
-5.828445964316369 0.3234843363969377 -0.5706001334463906
-5.472725761856289 -0.7763430856735002 -0.20587983494367687
-5.077967469544617 -1.8959106923574527 0.06615667437236974
-4.636818660771963 -3.0158668810700395 0.2635820777446211
-4.14930656583125 -4.123374209121907 0.41373511333025825
-3.608482796485445 -5.207588422872319 0.5578349378273441
-3.003199537000324 -6.251004329011958 0.7313810210972305
-2.3216588150954705 -7.22822847867259 0.965180233010414
-1.5550665608172731 -8.110287338081756 1.2827411210386213
-0.7036920040496732 -8.87297240697106 1.6961734869501137
0.22252689825501493 -9.503283126722575 2.203671808263148
1.2087732021945639 -9.99795363495229 2.789242669667812
2.2417766236948373 -10.360066033878933 3.4245572886424465
3.3115034072144063 -10.593595498698834 4.082220970925218
4.4091725242179365 -10.69923776854756 4.744101380261887
5.524763584967743 -10.678739018616008 5.403919827801785
6.6455874757320705 -10.541854960639649 6.0663340229266804
7.757780259761396 -10.309500633904346 6.742791977027608
8.850098442617604 -10.012160668306063 7.445208392927407
9.916889137082391 -9.686070511265997 8.181039359231816
10.95790005241621 -9.36821589732052 8.952149879549662
11.97443860114304 -9.091034106740894 9.755754788656922
12.965024418828918 -8.880885248564436 10.58530014487154
13.92297780020386 -8.760111212499067 11.432295428470175
14.835621793680241 -8.748348784608858 12.289042071334842
15.68432681149643 -8.860721266147467 13.151284595332664
16.44705426313879 -9.104293893113931 14.017836022771261
17.10428565169618 -9.476581843675914 14.886787499955776
17.645393980100945 -9.96846737532852 15.751710151026494
18.070515382473666 -10.568709575865906 16.601669017013425
18.38795645330212 -11.266516954887596 17.42466544773869
18.611333635672676 -12.0511371527412 18.211518353829398
18.759413295490507 -12.910340067945764 18.957571955076077
18.856558028329168 -13.829987348341723 19.663499944187375
18.930555423462703 -14.794883738420499 20.33432151103588
19.0088499843303 -15.788526119545944 20.97750641422304
19.116981016616005 -16.7922326429224 21.601489487756602
LINES 1 76
75 0 1 2 3 4 5 6 7 8 9 10 11 12 13 14 15 16 17 18 19 20 21 22 23 24 25 26 27 28 29 30 31 32 33 34 35 36 37 38 39 40 41 42 43 44 45 46 47 48 49 50 51 52 53 54 55 56 57 58 59 60 61 62 63 64 65 66 67 68 69 70 71 72 73 74
POINT_DATA 75
SCALARS MaximumInscribedSphereRadius float
LOOKUP_TABLE default
1.2
1.2108108108108109
1.2216216216216216
1.2324324324324323
1.2432432432432432
1.2540540540540541
1.2648648648648648
1.2756756756756755
1.2864864864864864
1.2972972972972974
1.308108108108108
1.3189189189189188
1.3297297297297297
1.3405405405405406
1.3513513513513513
1.362162162162162
1.372972972972973
1.3837837837837839
1.3945945945945946
1.4054054054054053
1.4162162162162162
1.427027027027027
1.4378378378378378
1.4486486486486485
1.4594594594594594
1.4702702702702704
1.481081081081081
1.4918918918918918
1.5027027027027027
1.5135135135135136
1.5243243243243243
1.535135135135135
1.545945945945946
1.5567567567567568
1.5675675675675675
1.5783783783783782
1.5891891891891892
1.6
1.6108108108108108
1.6216216216216215
1.6324324324324324
1.6432432432432433
1.654054054054054
1.6648648648648647
1.6756756756756757
1.6864864864864866
1.6972972972972973
1.708108108108108
1.718918918918919
1.7297297297297298
1.7405405405405405
1.7513513513513512
1.7621621621621621
1.772972972972973
1.7837837837837838
1.7945945945945945
1.8054054054054054
1.8162162162162163
1.827027027027027
1.8378378378378377
1.8486486486486486
1.8594594594594596
1.8702702702702703
1.881081081081081
1.8918918918918919
1.9027027027027028
1.9135135135135135
1.9243243243243242
1.9351351351351351
1.945945945945946
1.9567567567567568
1.9675675675675675
1.9783783783783784
1.9891891891891893
2.0
SCALARS Curvature float
LOOKUP_TABLE default
0.0
0.09239229896048969
0.05470172854360308
0.03429116430612034
0.04783438159693492
0.1029235076543237
0.18829027439013585
0.25543836077053367
0.23239187452802873
0.1635778234225832
0.13018789725923435
0.11975824034349698
0.11698003678979342
0.10548298701767712
0.08489574466079261
0.07418231269238633
0.07318687015233939
0.09120945117845343
0.15254727156535014
0.28488718764611015
0.49095942227375733
0.6072379014254444
0.480661581310111
0.3065363458927951
0.19674947400433163
0.12861200601120318
0.07811470472239675
0.03265377798710443
0.028851781727568762
0.09043671429796872
0.15411053381748033
0.19765159938221347
0.20657940783433024
0.18618299621729606
0.15687269022438807
0.1302901936736824
0.1084555162957198
0.09245689547432756
0.08035323483112361
0.0686521377066235
0.05888261618183175
0.04527405547372942
0.03924044655617323
0.0549953291293169
0.07959560817346754
0.10363069473804791
0.11734645327486753
0.11628566446473153
0.10527187537678069
0.09148700716463705
0.0821229482331277
0.07846015865480498
0.07506352331308504
0.06708347777984942
0.054523829567861413
0.04041098036204159
0.028376581268884433
0.024965897282431888
0.032462806083599034
0.04381771778396246
0.057145249503639896
0.07341015135649084
0.09228688878994183
0.11079593542966333
0.12427067500125936
0.12915447421101844
0.12550356934203116
0.11601022993758311
0.10237795649217074
0.0847475641717243
0.0638538345580671
0.04307677689331774
0.027705381998156402
0.026166756569783893
0.0
SCALARS Torsion float
LOOKUP_TABLE default
0.0
0.0
0.2706170283132482
0.6246831214515215
0.4778045881433097
0.18451334385502705
0.09373285918874825
0.07926277989466478
0.12949105340822586
0.2731774784035452
0.3086217438907977
0.20021429733733628
0.01764573491012708
-0.009060555010710084
0.004202355607147115
0.08377974245414385
0.19330832531409217
0.24232439834756733
0.16334801771767837
0.08932517624283155
0.07152394351498566
0.06637119017696985
-0.024973592751822482
-0.07889555370637064
-0.06746843306156333
-0.09587275671823278
-0.17538771381749513
-0.6285138740831762
-0.7042999155224385
-0.14202564664721118
-0.08112588792863298
-0.05800237880300496
-0.040930849510177045
-0.030156923504850684
-0.025166898684318536
-0.031931843161110605
-0.019402211678963995
0.0221419095617254
0.08167509207808499
0.15742165009664216
0.20371358709236914
0.2817578912543502
0.5358014883186943
0.26792510474697695
0.10841079894590139
0.043506365699066366
0.02050824898136746
0.006593077749932234
-0.023622840893385972
-0.08464625736894857
-0.10511086645422853
-0.06643557396110111
-0.0026640476592927204
0.06910680985191445
0.15800367714738975
0.28026437284662054
0.4666984795427202
0.533140900133803
0.3147242750818131
0.15927792253957274
0.0791087385072997
0.024663131721981937
-0.021737622857499472
-0.053544977842832214
-0.059377383084320265
-0.03460808279337902
0.007540783533147195
0.04479991198467478
0.06527790471863487
0.08727062105822674
0.14203783172909468
0.2864532867748156
0.5610798417728281
0.5850594525161721
0.0
