# vtk DataFile Version 2.0
Vessel Segment
ASCII
DATASET POLYDATA
POINTS 75 float
-6.068433900298744 21.62356775527409 -5.3920961272830015
-6.551072916553812 20.672276493044027 -5.25505015451342
-7.0979142997550015 19.641284107674704 -5.1174121433650015
-7.678244823598236 18.571213040602213 -5.018213596772306
-8.262664702242141 17.4986391682323 -4.995775344802537
-8.819480997280431 16.455174598431594 -5.088662670430073
-9.313890766752461 15.466232665633365 -5.33146192543527
-9.70849980632562 14.550491350528992 -5.75222033513384
-9.968468982005545 13.725094548222682 -6.362685249438049
-10.084303750646992 12.985345056833934 -7.129661023900391
-10.069721554427542 12.294380925160421 -8.00231779664297
-9.944833849794778 11.616698418738943 -8.939443132796514
-9.727879206647426 10.934078198963308 -9.916378728076168
-9.43088484571883 10.248327095985076 -10.91083959489627
-9.069203375819106 9.566486330741578 -11.887870336166266
-8.662165125366412 8.888970232319156 -12.80244155725945
-8.230408469894238 8.217401278210913 -13.598305044703771
-7.803327790293201 7.563021726298377 -14.218245669795367
-7.412011078630753 6.942817116333251 -14.621124108979084
-7.081176249634361 6.377022586665586 -14.782840059567379
-6.822875354303692 5.893810952948417 -14.696223135462523
-6.633925415448178 5.512094227389456 -14.373439902843547
-6.52823566774514 5.242990217501526 -13.839848846946929
-6.4968832933786 5.087883716796955 -13.154860561103153
-6.51627321928569 5.025849532683421 -12.356555002678029
-6.568425976687861 5.027964156268565 -11.4678646884687
-6.6368217764748065 5.069781664981467 -10.500627382464165
-6.712315579098978 5.148118009528344 -9.480722202623982
-6.7746818882151585 5.232687538801626 -8.46420547151961
-6.811315333201937 5.268230081302608 -7.479012741754998
-6.821610591242754 5.196085715118298 -6.536495085029556
-6.807368402287437 4.960630955879443 -5.645769529693873
-6.775503999773883 4.524894533291101 -4.822724907597013
-6.7428719446561445 3.893881409676747 -4.0826596379888285
-6.719502852340002 3.1059998009299923 -3.4234540941272984
-6.696766052381945 2.205328542480025 -2.832165287961006
-6.65742312025881 1.2309868531173427 -2.29475003135743
-6.581716387549854 0.21001518751638798 -1.7942460870624508
-6.4471311966798694 -0.8437462707292476 -1.315731963426134
-6.2302477371181135 -1.9187205851458469 -0.8494234524177267
-5.910371565127019 -2.9971425746840787 -0.3889997919475394
-5.477080975038233 -4.055598795322335 0.06339796067028339
-4.942493613276694 -5.072452797512944 0.5105900317991054
-4.315726927656794 -6.034997210616508 0.9725654393776962
-3.6068680932659936 -6.934896118699919 1.455959546777639
-2.8286274297187455 -7.7648818232561325 1.9602410411071278
-1.9910923049863896 -8.515397508375735 2.4797524848608448
-1.1003831062526823 -9.175319014168533 3.006229707745695
-0.15958601810991188 -9.735017543010352 3.533961943110435
0.829458576265714 -10.187424996215073 4.059722779266417
1.8674018108802666 -10.533437205105157 4.576711552272243
2.9553883641243432 -10.78038527466949 5.082888164601654
4.0901527543423875 -10.933778433928936 5.58175247995918
5.260956873653533 -10.995639340517995 6.079786111495516
6.449716740132988 -10.965673076493175 6.586261738294844
7.6345684929496676 -10.842729013717234 7.1124699309974835
8.795843311917523 -10.630130576847804 7.668514424643899
9.922987200232617 -10.342937824500323 8.25956281621739
11.018004453377218 -10.010331667442708 8.884992711765383
12.091237185603594 -9.67071179582222 9.541154580306905
13.149856897029403 -9.364074080967425 10.225267639304676
14.186222739584297 -9.126750180923258 10.938195647942115
15.173567760695812 -8.98823881290565 11.683277423978325
16.071463564308335 -8.96955474992305 12.461917060337772
16.83887595644332 -9.081404425372746 13.269808465166909
17.45007748923938 -9.323773987643486 14.096068861278738
17.90660488166544 -9.686603707013866 14.926201456936568
18.237942848975813 -10.1520210124727 15.749097251607875
18.48945553975836 -10.696763305828208 16.563801425611903
18.705067589038418 -11.295537044311628 17.38112191878601
18.916805346952977 -11.92381637140763 18.218207639290043
19.14508907308757 -12.563140723170271 19.090246372764646
19.40182824129182 -13.20642587609693 20.004015298123544
19.691924896908162 -13.853622724779191 20.956765730258265
20.01821372478796 -14.502679340508456 21.942316767774475
LINES 1 76
75 0 1 2 3 4 5 6 7 8 9 10 11 12 13 14 15 16 17 18 19 20 21 22 23 24 25 26 27 28 29 30 31 32 33 34 35 36 37 38 39 40 41 42 43 44 45 46 47 48 49 50 51 52 53 54 55 56 57 58 59 60 61 62 63 64 65 66 67 68 69 70 71 72 73 74
POINT_DATA 75
SCALARS MaximumInscribedSphereRadius float
LOOKUP_TABLE default
1.2
1.2108108108108109
1.2216216216216216
1.2324324324324323
1.2432432432432432
1.2540540540540541
1.2648648648648648
1.2756756756756755
1.2864864864864864
1.2972972972972974
1.308108108108108
1.3189189189189188
1.3297297297297297
1.3405405405405406
1.3513513513513513
1.362162162162162
1.372972972972973
1.3837837837837839
1.3945945945945946
1.4054054054054053
1.4162162162162162
1.427027027027027
1.4378378378378378
1.4486486486486485
1.4594594594594594
1.4702702702702704
1.481081081081081
1.4918918918918918
1.5027027027027027
1.5135135135135136
1.5243243243243243
1.535135135135135
1.545945945945946
1.5567567567567568
1.5675675675675675
1.5783783783783782
1.5891891891891892
1.6
1.6108108108108108
1.6216216216216215
1.6324324324324324
1.6432432432432433
1.654054054054054
1.6648648648648647
1.6756756756756757
1.6864864864864866
1.6972972972972973
1.708108108108108
1.718918918918919
1.7297297297297298
1.7405405405405405
1.7513513513513512
1.7621621621621621
1.772972972972973
1.7837837837837838
1.7945945945945945
1.8054054054054054
1.8162162162162163
1.827027027027027
1.8378378378378377
1.8486486486486486
1.8594594594594596
1.8702702702702703
1.881081081081081
1.8918918918918919
1.9027027027027028
1.9135135135135135
1.9243243243243242
1.9351351351351351
1.945945945945946
1.9567567567567568
1.9675675675675675
1.9783783783783784
1.9891891891891893
2.0
SCALARS Curvature float
LOOKUP_TABLE default
0.0
0.01619653044989744
0.029324543541019883
0.051453840352590874
0.08397941331470175
0.1287303393671586
0.18135167297390303
0.21885420453023474
0.19446730232163947
0.13329698842446938
0.08521533463207916
0.05873531979433212
0.04792914358258974
0.04321762896683437
0.04734720036940692
0.07314885399774361
0.12735409670987985
0.23488344746949877
0.44314939921903873
0.6938329714066371
0.7251563217848755
0.5396574398792096
0.3222167437338709
0.173459711471899
0.08754697024828928
0.040082205927057725
0.030899168016695976
0.013851985296277118
0.05518957365275929
0.12647781370588568
0.20086457834298746
0.23651022749995415
0.2105829267999893
0.15319697358930434
0.1018445541983564
0.0677711485790978
0.049124137238019575
0.048117336021896724
0.056762431653867615
0.06716060313484082
0.0750361508421876
0.0718338355512974
0.07004986436298308
0.06781901177943596
0.06482994303374505
0.06526607560157453
0.06962995589857285
0.07558388081886777
0.08044396842772253
0.07984230279220095
0.07296080869560372
0.06466302934839652
0.057988372914340384
0.05462507066188144
0.055494679824335195
0.05700362345483045
0.05232007091659948
0.03842440912008552
0.022562879135881918
0.026951847014506487
0.04688167040360073
0.07135841518119126
0.10277054676198862
0.14138389651371494
0.17671012016241708
0.18694520120271602
0.16005295240923137
0.10863527514796148
0.055455804184181355
0.013774859279894476
0.012132503761268298
0.021716413520817237
0.021513025829900397
0.021277799091692296
0.0
SCALARS Torsion float
LOOKUP_TABLE default
0.0
0.0
0.2906840192365013
0.1006054028367559
0.06584483820038929
0.06089187577757963
0.06276546004726784
0.05855728528106619
0.09383416834469716
0.20652269722936045
0.2903820317656671
0.23329892862303023
0.11224724478876534
0.1740930081194019
0.30118131218504773
0.2239514046465604
0.15379849474039112
0.11128574387049672
0.0627280465374148
-0.0258007025127667
-0.0797147212154178
0.06305637886414041
-0.03787163786035512
-0.11406449127546223
-0.06266928555214415
-0.22186649121044943
-0.2086235031164473
-0.9672686794915375
-0.26618537551856636
-0.12083632845732478
-0.06186668246993489
-0.05200875766055774
-0.08257666672028768
-0.06622794698983528
0.06802242373968481
0.24615026870733733
0.41586048515252017
0.3569244061561139
0.1958356742423653
0.11839743625966066
0.05114995354560754
0.08533935826512533
0.18053106500364716
0.0871247912142913
0.047544716410748866
0.004918257774036587
-0.023733115210901573
-0.015698042870889627
-0.005819783276949344
-0.046267534122505234
-0.03162194366349383
0.023306714363041173
0.08037049954231124
0.13148117821966662
0.14751380115471188
0.13088439706473323
0.12809309308392497
0.21829189918080516
0.6236020289773109
0.49763981877716845
0.12063583617816465
-0.01995034559577745
-0.061568494469141914
-0.05823613664616846
-0.031243115410810582
0.011607877780168377
0.06878875992276068
0.13470779820049647
0.1960605349984154
0.21767775179317553
-0.0677948940068471
-0.04766133207028116
-0.12294348660419908
-0.09499929760110058
0.0
