# vtk DataFile Version 2.0
Vessel Segment
ASCII
DATASET POLYDATA
POINTS 75 float
-5.480153274362013 23.274475218210625 -8.18450815470731
-6.066881040884862 22.227810523149557 -8.033136313395232
-6.675510901181049 21.147991458213724 -7.711522325829385
-7.292850250003142 20.065881895597908 -7.3025070949627535
-7.9079270314584305 19.007567003726535 -6.886904153799532
-8.50741019154888 17.98961434809982 -6.546677990839291
-9.073439513188971 17.01771699922592 -6.356878186575717
-9.582511081631013 16.08525906051698 -6.370834876061362
-10.007166954104406 15.168798863102884 -6.606050724638293
-10.314204563185864 14.241549223672662 -7.05648679318279
-10.479216650831647 13.288476600797868 -7.677666344866682
-10.505724913083268 12.293934332478722 -8.401384752615662
-10.407396992854704 11.254394715206923 -9.169783505772491
-10.176198553641507 10.20669010019351 -9.966569865012728
-9.825511272664821 9.196243476034583 -10.746708144015953
-9.376254165934892 8.246983068976217 -11.480220720314653
-8.853850937211774 7.378851925661853 -12.148440151994958
-8.289903441127024 6.586663000181213 -12.729084158992295
-7.717660049878234 5.855256016126153 -13.184709444686264
-7.171312613361987 5.171816588973839 -13.472629506011614
-6.680913667426722 4.537001608455471 -13.556834312389396
-6.268167449864449 3.9669267732338533 -13.416854394785679
-5.973883205160825 3.4876708968466064 -13.041182023919895
-5.826759319058684 3.139517331099837 -12.46460686823921
-5.820122045931957 2.9606836507437335 -11.733502305958014
-5.925157757621708 2.9737841609761757 -10.894528504619485
-6.094300481103786 3.168220650573695 -9.989288307195908
-6.2738955216634515 3.5040886663614477 -9.054036000983158
-6.40991647825615 3.90769385491206 -8.121512058417215
-6.466867114123025 4.294033596544905 -7.2014032558613925
-6.435576869525187 4.587282135234733 -6.294788537639165
-6.327145250489963 4.724957561764986 -5.404203153076953
-6.1630384967294845 4.6601796511566675 -4.53989559272049
-5.969112236141217 4.369306553769599 -3.7223300782122375
-5.767849387644636 3.854108263438732 -2.9720977471982137
-5.569568892694023 3.1336936332935195 -2.307071214283922
-5.374176109887641 2.241634687390728 -1.7457716142724655
-5.181256786012428 1.222657177941242 -1.3032790700743633
-4.995340961024102 0.12286797712450825 -0.9819275397593749
-4.824843901659598 -1.0211864445067493 -0.7630637894210408
-4.674921514525745 -2.187557003633748 -0.6063151544763773
-4.537157196711421 -3.3654393174987467 -0.451516374603901
-4.379631424652307 -4.547206084637279 -0.2436808075642148
-4.172371414773975 -5.718808042976029 0.04578512357166263
-3.883070571306751 -6.857436929758915 0.4405733846770268
-3.4794559791124753 -7.926492737366414 0.9499410118758507
-2.9381627084715993 -8.87810891347698 1.5655795465467566
-2.250595560960873 -9.663884328900739 2.2646912762384943
-1.4248947957081493 -10.250273772336842 3.0143576191093238
-0.48131592383047755 -10.633443699641303 3.7795449190856405
0.5543919190071565 -10.835531840790722 4.534263646425973
1.6594011217456597 -10.89163678025098 5.257371048790618
2.81534313621059 -10.841224509791896 5.935628872939273
4.004364065882132 -10.717584189649457 6.5690385368144195
5.207722547039444 -10.541551502914857 7.168699874218565
6.409297070725774 -10.319547572074196 7.748615707205878
7.599383166299941 -10.049936742359034 8.319240762757087
8.775986043553239 -9.733386781278025 8.886717719863338
9.94321539071454 -9.381426372867043 9.45627689171682
11.107018207013427 -9.018911430537234 10.035421549416329
12.2713280504979 -8.682408047971707 10.633444230509673
13.435067042598208 -8.41603552728636 11.258829474420528
14.589895625978452 -8.264364836395854 11.917433025864273
15.717295559261999 -8.263323881635898 12.612250569537775
16.786471545164627 -8.43418006424123 13.343443434348917
17.756618038619834 -8.784409960352097 14.106712501405287
18.58373867144188 -9.311678145506066 14.891061117435042
19.2301931499131 -10.004637845533782 15.68053235597508
19.672987229365418 -10.839864165780225 16.459801352834877
19.909586719797684 -11.782713810397807 17.219462744369206
19.960661979208687 -12.793081266036411 17.956711282551186
19.868279641242474 -13.835008110336945 18.673188170201865
19.685726132794365 -14.88517528877031 19.370680911986035
19.467809610786738 -15.92860341647421 20.047672352226
19.268771749348097 -16.95622388504395 20.699420899028222
LINES 1 76
75 0 1 2 3 4 5 6 7 8 9 10 11 12 13 14 15 16 17 18 19 20 21 22 23 24 25 26 27 28 29 30 31 32 33 34 35 36 37 38 39 40 41 42 43 44 45 46 47 48 49 50 51 52 53 54 55 56 57 58 59 60 61 62 63 64 65 66 67 68 69 70 71 72 73 74
POINT_DATA 75
SCALARS MaximumInscribedSphereRadius float
LOOKUP_TABLE default
1.2
1.2108108108108109
1.2216216216216216
1.2324324324324323
1.2432432432432432
1.2540540540540541
1.2648648648648648
1.2756756756756755
1.2864864864864864
1.2972972972972974
1.308108108108108
1.3189189189189188
1.3297297297297297
1.3405405405405406
1.3513513513513513
1.362162162162162
1.372972972972973
1.3837837837837839
1.3945945945945946
1.4054054054054053
1.4162162162162162
1.427027027027027
1.4378378378378378
1.4486486486486485
1.4594594594594594
1.4702702702702704
1.481081081081081
1.4918918918918918
1.5027027027027027
1.5135135135135136
1.5243243243243243
1.535135135135135
1.545945945945946
1.5567567567567568
1.5675675675675675
1.5783783783783782
1.5891891891891892
1.6
1.6108108108108108
1.6216216216216215
1.6324324324324324
1.6432432432432433
1.654054054054054
1.6648648648648647
1.6756756756756757
1.6864864864864866
1.6972972972972973
1.708108108108108
1.718918918918919
1.7297297297297298
1.7405405405405405
1.7513513513513512
1.7621621621621621
1.772972972972973
1.7837837837837838
1.7945945945945945
1.8054054054054054
1.8162162162162163
1.827027027027027
1.8378378378378377
1.8486486486486486
1.8594594594594596
1.8702702702702703
1.881081081081081
1.8918918918918919
1.9027027027027028
1.9135135135135135
1.9243243243243242
1.9351351351351351
1.945945945945946
1.9567567567567568
1.9675675675675675
1.9783783783783784
1.9891891891891893
2.0
SCALARS Curvature float
LOOKUP_TABLE default
0.0
0.0941520799729275
0.04726610685079194
0.009918044755447317
0.04035610428874804
0.10645409683999411
0.18126410389730355
0.2171629777854907
0.20161722931674184
0.15256842246291055
0.10021232156135888
0.07131688238709684
0.07154201328472093
0.07182227409569322
0.07256616274444111
0.0751160102974946
0.07456570696908013
0.09618961149592638
0.16680716886296332
0.2918536355342499
0.43547442272555653
0.5434407161793364
0.5177772042459791
0.4087439406936075
0.29006262578959713
0.18887036337577195
0.12004238870271454
0.07451301662807559
0.07860560877833886
0.1345832271737958
0.20552338440024262
0.2654232642885803
0.2826861586690466
0.25139384303773243
0.2000805659025526
0.1555887355533395
0.12531985798682616
0.10326735820280492
0.0796266814495198
0.04844097106534864
0.009645327261568235
0.03724990746644275
0.06289437117237275
0.08810167749041219
0.11103657002014049
0.13149705423863856
0.14790637433633932
0.15384694873427568
0.14246150104582433
0.11804614232778438
0.0919036349066544
0.06869155675787263
0.049585256594970595
0.034676322589960264
0.027325817224104404
0.02734797855008132
0.027057356123361437
0.020229205237807205
0.0077468007246602015
0.017551410819772042
0.0414131079129329
0.06673984005513432
0.08943280269497485
0.10797808832069898
0.12523455661680913
0.14384007576773894
0.15978283144286357
0.16378543260063977
0.1508718952696026
0.12431517615508947
0.09075329342708299
0.0566634699389875
0.025134306637151133
0.012641507365275848
0.0
SCALARS Torsion float
LOOKUP_TABLE default
0.0
0.0
0.08627474736239847
0.9664589879719709
0.1518345019922871
0.0604842176005225
0.0704162807319343
0.11670831625386101
0.15832521935209806
0.20841054096593495
0.29938855462150016
0.2967351600103864
-0.04213862318398992
0.048861914195474504
0.05923196853167934
0.021227510809299764
0.23876799742313826
0.39697331658357593
0.27500361443541044
0.13110041619021773
0.031773188444117306
0.07554366291998536
0.01924794607821915
-0.11223339452924835
-0.16973813189035195
-0.22969027465675895
-0.3470942913131461
-0.696090367565544
-0.7063305532299441
-0.3688588920546872
-0.23592798167297577
-0.1690459212455328
-0.1239958357423309
-0.08478560331087574
-0.024048170950107084
0.03515595978636561
0.04464004207833807
0.010144448039521803
-0.06027857918987749
-0.20489450609030407
-0.997998693937317
-0.17172975410626956
-0.09424825510859035
-0.06399182830502531
-0.06842570732604172
-0.06346925934579968
-0.05268480878507851
-0.04728798850622275
-0.05387343159017789
-0.054709016416520526
-0.09045540441203917
-0.13125168703205495
-0.10199294957684349
0.04630781705186232
0.24293779344227218
0.20291160513768622
0.09767849480687632
0.09971919709192278
0.8135668133908335
0.30710628720413347
0.06544642051058511
0.020731291426391435
-0.006821459249328716
-0.033830907517964845
-0.04849770683645548
-0.04228356217476073
-0.0299400319172314
-0.030142451553240034
-0.0423293331700032
-0.05664634543493017
-0.062240948727435304
-0.02511905355200187
0.213300189015294
0.903390689046912
0.0
