# vtk DataFile Version 2.0
Vessel Segment
ASCII
DATASET POLYDATA
POINTS 75 float
-5.175195643571499 21.56206798825273 -4.804776832275048
-5.759249857646795 20.41404871190701 -4.78236863486687
-6.390859316825548 19.241208281019553 -4.623040493716801
-7.049725736510442 18.08124861657088 -4.400609759748656
-7.7176292275002405 16.96511084996295 -4.190458263459399
-8.374446519001598 15.916650802066723 -4.072603323163806
-8.996721603435411 14.950742377131423 -4.125887276551993
-9.557680955634497 14.070477892716061 -4.417731556273656
-10.024211098826257 13.278508450564347 -4.988839080751727
-10.372494681754686 12.557698420733221 -5.798093618287949
-10.589921138317909 11.861987300484275 -6.767101752338152
-10.659006036546707 11.163119034231052 -7.820357637400973
-10.56426473200719 10.45603180191666 -8.89492808134074
-10.283982896294077 9.764676000705181 -9.966569220052225
-9.825423382657087 9.111724483289466 -11.003653910888593
-9.21242501883671 8.496008540747747 -11.998341937941616
-8.476083327854331 7.9113628188339735 -12.946914083746284
-7.660590358794425 7.3380042021252825 -13.831118700895413
-6.81773178229468 6.7484978209580655 -14.609029916233792
-6.003891884247383 6.117500445199334 -15.21376024192115
-5.280670836219191 5.437876404474657 -15.55627366116873
-4.726955648594532 4.74269631758249 -15.555751450418107
-4.3937287281771 4.1100130947658275 -15.221416049981116
-4.275205495321084 3.6011390431331947 -14.61364210956979
-4.360753573940788 3.2625743810376524 -13.789634099848676
-4.631275441612064 3.1248164527133953 -12.815539779595898
-5.049868305063231 3.190255290480645 -11.754115616651957
-5.5667785013955 3.4398913253060797 -10.659603606104067
-6.115178051750815 3.817159721985378 -9.575334688359824
-6.632011277461223 4.243510104510081 -8.50473875376543
-7.069399279826849 4.642251656957972 -7.43121565870561
-7.392809864156815 4.943113852746177 -6.340866057867135
-7.582225047095234 5.08504949207574 -5.236981000817709
-7.63248226499387 5.026336328072494 -4.140593302891026
-7.545568181544012 4.745593017970343 -3.0837354705586932
-7.334280298118205 4.2425592878209635 -2.1084997982309504
-7.031902519731843 3.5432888040531476 -1.2558367274696767
-6.678688082838615 2.6867249161925923 -0.5526301989986734
-6.3071188809143335 1.710292033222116 -0.013506038167084308
-5.936663424387202 0.6462419113118554 0.3615646885293465
-5.57078534780645 -0.48035773742026816 0.5893401893410666
-5.204314611145857 -1.6518233831829625 0.6895069856952594
-4.847089178895509 -2.856454289907171 0.7095474778770271
-4.478185468115691 -4.086779853999692 0.740234813801649
-4.067865294576413 -5.324114339941129 0.840046430932911
-3.59114681960789 -6.540781726371789 1.0419391811794672
-3.027546364238082 -7.7042123975725545 1.3597053062022406
-2.3645711761120842 -8.78145445736782 1.7917019023579654
-1.59951207029418 -9.74354414709016 2.327858504113265
-0.7372660823410847 -10.562526620157584 2.946662590062848
0.21741273234022562 -11.222457413230524 3.6064260222772653
1.2591239404297614 -11.72223579325474 4.273029837593133
2.3758872348982956 -12.062669472078385 4.930885069467756
3.5474173405687903 -12.244002330117619 5.579239048773557
4.747534410676746 -12.26898300264211 6.226256297582566
5.950168456120163 -12.147115970896946 6.8824679723091915
7.136673040650536 -11.898440446975215 7.554692640285554
8.299773616461204 -11.553266432893674 8.243336453502833
9.442282656997735 -11.146336958414691 8.94450513720895
10.572050078473582 -10.709451150669599 9.654050480838315
11.69689523963645 -10.268204660524018 10.370805729704502
12.821723213131097 -9.845370508589813 11.097729222311077
13.946887098752935 -9.465484119350727 11.841551351828926
15.066521907455822 -9.15605610374441 12.61076032372231
16.167266667521126 -8.944971945141008 13.411744592356747
17.229125114688213 -8.85723797531279 14.243795933150476
18.228054252463764 -8.913485638185238 15.096747327867096
19.138063975664544 -9.129200712866826 15.95403778592133
19.93299121496399 -9.513454871069099 16.7986375639622
20.591398494225455 -10.067426022261976 17.61739579077782
21.103748711802602 -10.783175493375934 18.40174885604461
21.475161327075952 -11.642060486074264 19.147145230695642
21.72500230940813 -12.610371891868251 19.854950513141176
21.884711243727164 -13.64508651734135 20.533328615988474
21.987507036698936 -14.699463405938383 21.192722523620425
LINES 1 76
75 0 1 2 3 4 5 6 7 8 9 10 11 12 13 14 15 16 17 18 19 20 21 22 23 24 25 26 27 28 29 30 31 32 33 34 35 36 37 38 39 40 41 42 43 44 45 46 47 48 49 50 51 52 53 54 55 56 57 58 59 60 61 62 63 64 65 66 67 68 69 70 71 72 73 74
POINT_DATA 75
SCALARS MaximumInscribedSphereRadius float
LOOKUP_TABLE default
1.2
1.2108108108108109
1.2216216216216216
1.2324324324324323
1.2432432432432432
1.2540540540540541
1.2648648648648648
1.2756756756756755
1.2864864864864864
1.2972972972972974
1.308108108108108
1.3189189189189188
1.3297297297297297
1.3405405405405406
1.3513513513513513
1.362162162162162
1.372972972972973
1.3837837837837839
1.3945945945945946
1.4054054054054053
1.4162162162162162
1.427027027027027
1.4378378378378378
1.4486486486486485
1.4594594594594594
1.4702702702702704
1.481081081081081
1.4918918918918918
1.5027027027027027
1.5135135135135136
1.5243243243243243
1.535135135135135
1.545945945945946
1.5567567567567568
1.5675675675675675
1.5783783783783782
1.5891891891891892
1.6
1.6108108108108108
1.6216216216216215
1.6324324324324324
1.6432432432432433
1.654054054054054
1.6648648648648647
1.6756756756756757
1.6864864864864866
1.6972972972972973
1.708108108108108
1.718918918918919
1.7297297297297298
1.7405405405405405
1.7513513513513512
1.7621621621621621
1.772972972972973
1.7837837837837838
1.7945945945945945
1.8054054054054054
1.8162162162162163
1.827027027027027
1.8378378378378377
1.8486486486486486
1.8594594594594596
1.8702702702702703
1.881081081081081
1.8918918918918919
1.9027027027027028
1.9135135135135135
1.9243243243243242
1.9351351351351351
1.945945945945946
1.9567567567567568
1.9675675675675675
1.9783783783783784
1.9891891891891893
2.0
SCALARS Curvature float
LOOKUP_TABLE default
0.0
0.07436767088550529
0.037590142309055274
0.017869809516291885
0.05813147353572552
0.13205172938932963
0.21627095245693662
0.25459924836984604
0.198579770930401
0.1269376178381634
0.09844294028133292
0.09696047179244356
0.10747107049846867
0.1075901298772384
0.0931162316191074
0.07473155082680817
0.057741322029773126
0.06240304012752499
0.11092988344572584
0.22854600864499475
0.43838389830935937
0.571546465981617
0.5037312195861995
0.3644947062929891
0.24841828883824962
0.16827439176241582
0.11855843297427558
0.0769189084808009
0.0372280761422574
0.050956398325702354
0.10480012275195556
0.1604238479386948
0.19949798015591363
0.2145893619750257
0.20701482730584034
0.1837545701692188
0.16051400105852398
0.14497397712349297
0.12982850922563607
0.10776229402794255
0.08636324552252053
0.052278979062169065
0.00646818861305401
0.04499078151598897
0.06955646281069212
0.08626492089878107
0.09675888965489787
0.10251891544048782
0.10602601817864693
0.1052676899923448
0.10195758724329503
0.09739146970515836
0.09129467899576856
0.0844789252658367
0.07694157390278229
0.06638150692086009
0.05127046964318433
0.03355386079223045
0.01697273516426045
0.004912247606377134
0.010662219115622401
0.02346881664049807
0.03854332149353938
0.054961660668457
0.07187765830708708
0.09000916647373867
0.11105362289215422
0.134596510039041
0.15391129530909028
0.15719980892061278
0.1399657654374041
0.10816635502222015
0.07211597530478857
0.040507100061748944
0.0
SCALARS Torsion float
LOOKUP_TABLE default
0.0
0.0
0.3080221387712164
0.9270954671574388
0.23575134505171869
0.09246026872766111
0.06916498655352556
0.06549423113753586
0.1242611930784936
0.29708584377443
0.3218195587297003
0.18645781419495186
-0.02154286874898803
-0.007481021190790044
0.01887642673232013
0.03788286927704106
0.24154041650839858
0.37323994082895084
0.19795021388226305
0.06228467751794828
0.02117376942269203
-0.014769878703834605
-0.06764059673588241
-0.05918329703321392
-0.0427721576123095
-0.05137182397528733
-0.08024953522730618
-0.18592532821096536
-0.762909957605338
-0.5524323785629186
-0.1784919195136666
-0.10423445547183073
-0.07747262505880977
-0.05161367139792114
-0.04643220421031127
-0.07254880899624037
-0.08962284202076828
-0.07557818239104383
-0.04375068439245865
0.006401489117764642
0.050207456892947824
-0.1577051892041827
0.6899546111896098
-0.014508602432552031
-0.046065171225517704
-0.0606520256628996
-0.06232890208251939
-0.04930466774925309
-0.05944654448988095
-0.12431031277424218
-0.11020859038454703
-0.03616096804331162
0.03720224396215417
0.08933476709157354
0.10962098411077703
0.10064743408769139
0.08011271741709314
0.06845650738519236
0.12933583203120494
0.9159715152032297
0.31680440469035875
0.03542439776455497
-0.01104053342167994
-0.0198592099687299
-0.012084569880229863
0.002661896894811661
0.008364862784545781
-0.0004417510817480881
-0.010506587454508248
-0.00903165103553406
-0.0030642461987869293
-0.014474061952653867
-0.04585716767235187
-0.19347013095413243
0.0
