# vtk DataFile Version 2.0
Vessel Segment
ASCII
DATASET POLYDATA
POINTS 75 float
-5.561464056031926 22.06554035543741 -7.5658659942656685
-6.207265537325231 21.213941354060957 -7.429627892136404
-6.844231943144825 20.236766153409526 -7.271883392704103
-7.469465698081506 19.190910711905335 -7.10923757455683
-8.085079653229444 18.124369024810786 -6.954524700123013
-8.690882329783763 17.079162314465993 -6.829416070648346
-9.281495863632022 16.09237196278565 -6.7696620259842035
-9.84260410547555 15.190549640981908 -6.826312957073103
-10.345208189585323 14.391437470829876 -7.05234499728177
-10.761539760466485 13.676663014217512 -7.446228519620162
-11.068005538332589 12.991261907265642 -7.99166908123616
-11.222710150592068 12.298478253268073 -8.670946571258154
-11.193226858987316 11.581771086173818 -9.439888521728053
-10.941812902840011 10.88537569636115 -10.29399657966344
-10.502468705474701 10.248980540849054 -11.151098334968164
-9.927390554383491 9.66374293543774 -11.958087715814884
-9.257180719530284 9.136768663953488 -12.68368541238203
-8.53245528426585 8.661877013021416 -13.294922384139644
-7.790056771732607 8.223212584934046 -13.747367071883916
-7.065176035748178 7.7997345290344215 -13.994321276412988
-6.394450556125043 7.3736164710182335 -13.988584253960891
-5.846013605822153 6.938692633431998 -13.673957094553378
-5.540669098020719 6.534493275568035 -13.058007413907168
-5.453807389140252 6.201842297216305 -12.286383522204092
-5.498134590505893 5.942175178775874 -11.417227212241102
-5.632470918357041 5.749555034721543 -10.473404482863472
-5.827229150412851 5.605285275312936 -9.48483982709549
-6.057837560988154 5.477546019504235 -8.479752626057381
-6.304630190324525 5.333123744893465 -7.470289199082099
-6.549462281454334 5.136247865206855 -6.4603825177947956
-6.768031914562651 4.847777527495473 -5.455552250290678
-6.927410399158744 4.430568223969932 -4.471794098101409
-6.996878978466902 3.8590525741201316 -3.537222106200083
-6.959218813014034 3.130959396708658 -2.680698959423422
-6.807967314977304 2.2624328004241607 -1.921301189669069
-6.548869097521784 1.278362398812822 -1.2747460213878015
-6.207285369982333 0.2162388322128501 -0.7511691743944275
-5.810448037191825 -0.8833771170900064 -0.3442092268332649
-5.3718732886459675 -1.9868907896316172 -0.03942956737735781
-4.894614969745752 -3.0669736781150823 0.18191272578421813
-4.375471584739877 -4.105689177042473 0.3388972696575455
-3.812120462187234 -5.097605654928393 0.433924329829104
-3.2241842900194513 -6.05124804117613 0.4780051281638198
-2.6079471543107657 -6.984057428091163 0.5188442561091522
-1.9524700341766223 -7.903005158184398 0.5833568958387951
-1.2532640834472206 -8.803848086210593 0.6944389695073394
-0.5120378907972082 -9.673394665887416 0.8784416612426588
0.2625171274471194 -10.4910462044392 1.160355496273863
1.0598337437899037 -11.23164140517159 1.5568472616868616
1.8751143739667278 -11.866861796408688 2.0662672417219676
2.7148379298436196 -12.378617116895533 2.6589791265034135
3.5903382389559213 -12.763523650194523 3.3024889920068694
4.507474721093922 -13.022241166937446 3.9736923705696388
5.46161291445455 -13.155358923153228 4.660783954129713
6.435997952742251 -13.164090426346428 5.363564575841815
7.406315662613718 -13.051736541431298 6.088937158326908
8.349493584370732 -12.826845620539899 6.8428003626433105
9.251083422491737 -12.505988388137686 7.624722725336874
10.108373805647119 -12.111404931991844 8.430521977384664
10.927081087469391 -11.661877807383004 9.256977548252866
11.714750004322719 -11.171005397499457 10.103299604670225
12.476993740803618 -10.654702289487634 10.970730847327703
13.21735779696166 -10.137326661373375 11.861280621511204
13.938587818677528 -9.6500936759529 12.775333063391557
14.643512981624308 -9.222467001780442 13.709236592248601
15.336125181870855 -8.875261291419838 14.6528654367213
16.02261196431262 -8.62274823818684 15.590377118224975
16.70905108243545 -8.479833963038642 16.50564591423525
17.39671356456316 -8.465516262981733 17.388404189198102
18.079750898982002 -8.599758188748257 18.236778060035267
18.745113971140412 -8.896523417635906 19.053728098882793
19.372232799248092 -9.357695960662557 19.841852695819718
19.935075347701723 -9.967771887057117 20.601345039983443
20.409370903673388 -10.693416344350908 21.331445373911812
20.777197061535546 -11.489440407034028 22.032955134345077
LINES 1 76
75 0 1 2 3 4 5 6 7 8 9 10 11 12 13 14 15 16 17 18 19 20 21 22 23 24 25 26 27 28 29 30 31 32 33 34 35 36 37 38 39 40 41 42 43 44 45 46 47 48 49 50 51 52 53 54 55 56 57 58 59 60 61 62 63 64 65 66 67 68 69 70 71 72 73 74
POINT_DATA 75
SCALARS MaximumInscribedSphereRadius float
LOOKUP_TABLE default
1.2
1.2108108108108109
1.2216216216216216
1.2324324324324323
1.2432432432432432
1.2540540540540541
1.2648648648648648
1.2756756756756755
1.2864864864864864
1.2972972972972974
1.308108108108108
1.3189189189189188
1.3297297297297297
1.3405405405405406
1.3513513513513513
1.362162162162162
1.372972972972973
1.3837837837837839
1.3945945945945946
1.4054054054054053
1.4162162162162162
1.427027027027027
1.4378378378378378
1.4486486486486485
1.4594594594594594
1.4702702702702704
1.481081081081081
1.4918918918918918
1.5027027027027027
1.5135135135135136
1.5243243243243243
1.535135135135135
1.545945945945946
1.5567567567567568
1.5675675675675675
1.5783783783783782
1.5891891891891892
1.6
1.6108108108108108
1.6216216216216215
1.6324324324324324
1.6432432432432433
1.654054054054054
1.6648648648648647
1.6756756756756757
1.6864864864864866
1.6972972972972973
1.708108108108108
1.718918918918919
1.7297297297297298
1.7405405405405405
1.7513513513513512
1.7621621621621621
1.772972972972973
1.7837837837837838
1.7945945945945945
1.8054054054054054
1.8162162162162163
1.827027027027027
1.8378378378378377
1.8486486486486486
1.8594594594594596
1.8702702702702703
1.881081081081081
1.8918918918918919
1.9027027027027028
1.9135135135135135
1.9243243243243242
1.9351351351351351
1.945945945945946
1.9567567567567568
1.9675675675675675
1.9783783783783784
1.9891891891891893
2.0
SCALARS Curvature float
LOOKUP_TABLE default
0.0
0.05507377454737879
0.030008656583646657
0.013600984797171058
0.018388963708710442
0.04862238776247608
0.10788288954978054
0.2012843596496964
0.23845992307867594
0.2136897854855452
0.1928668301362148
0.16749708557756737
0.1675020751130816
0.14386594292967053
0.11524819636361185
0.10818112120373632
0.1122369167144244
0.1515259677486494
0.2440746074368283
0.3831103447864911
0.5074401534694749
0.5216755790592711
0.35164043994340444
0.19241521351172264
0.12015233577154052
0.07255939926831756
0.03403731657673258
0.019333329982957826
0.04607956840240603
0.08248141909689596
0.12070700316945807
0.1501708325677788
0.1568042984855575
0.14465291140355332
0.1270364638253131
0.10693441057745066
0.08708891923131488
0.07320634196846824
0.06402573697776212
0.060390863958187845
0.06560222090520619
0.05148184780009153
0.028149654359265197
0.03606921679880929
0.04886153837262396
0.06600252162128646
0.08535032106881599
0.10386544135515498
0.11653602873164255
0.1138998011639519
0.1054439554677529
0.09842116291410287
0.09223802352469028
0.08609082188605686
0.08180572115867117
0.0780413008976587
0.0703285158968253
0.05764772854583331
0.04482533981455258
0.03450619785110097
0.025365284708888852
0.019644016706038662
0.026598151717767575
0.0406971175463468
0.05283436827855747
0.06407684145448696
0.08059584330315896
0.10340715684911589
0.12566201420236905
0.13781190247065353
0.13702769004248694
0.1273428377774405
0.1142713966269616
0.10332051576914995
0.0
SCALARS Torsion float
LOOKUP_TABLE default
0.0
0.0
-0.19565378051448135
-0.6130482928639056
-0.5287317505881283
-0.06726099175217315
0.051098358532846125
0.08906290482294889
0.17558058431932674
0.3133527599783269
0.2863483069039974
0.24299443783394448
-0.06407010850867634
0.07715133966008222
0.20210518995712767
0.08318338781519671
0.2036218322076495
0.26965400462766664
0.21689109555069533
0.14035818054480179
0.10890434161118134
0.0939414843962085
-0.007895940853941463
-0.26296655119888923
-0.17257753678140467
-0.01849867810846348
0.5001988120517664
0.9234604667145944
0.2727536049430166
0.11099315913761865
0.07245966124158287
0.037099186113719373
0.019584745017329232
0.02633538559016586
0.003964733066628406
-0.04387501021744111
-0.030132253131204944
0.05650894164630903
0.16479525364454906
0.22336754550131496
0.05282251954300274
-0.12802157875510903
0.8255910427710067
0.37046529240816883
0.16069058191957533
0.10263743117276429
0.06349146132678558
0.017268150708767305
-0.05938212128265717
-0.17159861622539008
-0.19809097092758754
-0.14069413043921392
-0.04548802356354553
0.06438022845095265
0.13537457196027433
0.13617530232371883
0.10534441191303807
0.08588468081718555
0.06717596206617056
0.07292235519355063
0.2182401786755242
0.532780843194396
0.3896990777203674
0.18662766299645275
0.13084592926270194
0.1338400337934033
0.10250440318486635
0.028668811787550194
-0.034544639968483185
-0.0688035758592858
-0.09166737123221276
-0.1176344075672548
-0.1480841435858128
-0.19598897222529957
0.0
