# vtk DataFile Version 2.0
Vessel Segment
ASCII
DATASET POLYDATA
POINTS 75 float
-6.039894780785786 21.507701685955407 -5.919778860723417
-6.590098897355886 20.31430927161493 -5.985154164886313
-7.212650615749042 19.113823139169877 -5.87453445999596
-7.875390233457537 17.933255767675934 -5.715235899656628
-8.541894121061912 16.796365867208507 -5.630885893685668
-9.170599071553397 15.721275093258255 -5.727146635447018
-9.714441420183233 14.715661661035057 -6.075741772774598
-10.123416724334245 13.777249633550543 -6.700767462187565
-10.350979346048963 12.905858072756587 -7.571791169941577
-10.376500891727046 12.088247451566788 -8.597093117529383
-10.196851507477595 11.299932820860567 -9.695114640868645
-9.798844086375567 10.542126606714925 -10.815374489860833
-9.185355109764545 9.826286381096676 -11.916192283731881
-8.392760627945188 9.152614272862886 -12.974721384050286
-7.473444296945093 8.508491808048396 -13.978736345883833
-6.500538907168318 7.867792666782841 -14.88983913923987
-5.565204033235751 7.202318624582058 -15.632237477322063
-4.765129009539215 6.504935686104616 -16.102434961639446
-4.185466166958458 5.797918314557439 -16.196583835642297
-3.883903908568295 5.1297601613090045 -15.836254269006666
-3.889879436572043 4.565691065409929 -14.988974046056265
-4.21698383081153 4.180151582495555 -13.698107064447731
-4.848938691723796 4.03664541571714 -12.131008361224973
-5.698351620586018 4.151241111748013 -10.51603059867581
-6.662319345293653 4.503901990397671 -9.014012323419136
-7.652061376646012 5.054871805007479 -7.7093961619802736
-8.576801167952949 5.740730255564943 -6.615990590570118
-9.347312467761142 6.462233009550986 -5.676567747554966
-9.905610929948153 7.122290445655187 -4.78620601694117
-10.221509419614284 7.630730718677014 -3.874959253353192
-10.290582193154476 7.904461640453589 -2.9239505326647284
-10.131681879517153 7.879027279112343 -1.9610726687166824
-9.780846732292122 7.517504520016612 -1.0468436527788338
-9.283868114496046 6.82794728807362 -0.24615947382699102
-8.684088910449407 5.862374996064643 0.3969278867538145
-8.023278321901088 4.700741243303401 0.8600125224169081
-7.346098438881199 3.430277498096223 1.1357131596692067
-6.691340930190928 2.121526060127738 1.2222749766631598
-6.084360036007159 0.8162134919872167 1.1193923743397516
-5.53293915316253 -0.4693776952951797 0.83966596248544
-5.025990637337706 -1.7356658960826257 0.4236202050750001
-4.541048033118334 -2.9901562114500755 -0.06534738726107393
-4.062994608031433 -4.23906289590873 -0.538102714724688
-3.5641080728601873 -5.480938490192788 -0.8881354006356749
-3.0190257825878977 -6.696059758313547 -1.0484827759101296
-2.408874192821705 -7.849286169571355 -0.9934318103429459
-1.718665859196174 -8.895716291405797 -0.7279921892509209
-0.9407380001954831 -9.790271658091319 -0.2751994628875322
-0.07727577230552538 -10.50067877962353 0.3351494801636152
0.8610291998488709 -11.012884987173148 1.0680789590210875
1.8625898781769605 -11.335972645807908 1.8775320857244235
2.9179710149474465 -11.496704881512624 2.721242096851897
4.017022917445427 -11.521996100645778 3.5697590464122624
5.1450183865548835 -11.429140294907695 4.408585018889333
6.282143690282071 -11.224862954509248 5.236269595817388
7.409154640459535 -10.91355369081919 6.059045524828847
8.515723602969477 -10.507296460753148 6.883065320935072
9.603762184348874 -10.032537455534262 7.710088082908414
10.68363726726169 -9.529377204169773 8.539398651001516
11.766127099192996 -9.042462640372184 9.371098829086778
12.854835336276384 -8.614032726705009 10.207106653314847
13.942898763774075 -8.283156418013016 11.049598762983171
15.01346755694253 -8.088122809917335 11.899523242181711
16.03986792259152 -8.065940499743046 12.756684016662422
16.98629693836636 -8.246261250269725 13.619133026794852
17.81241110642613 -8.64471229023848 14.480536001052258
18.482366726636137 -9.259488594508463 15.32775314764357
18.97336262524503 -10.070189486025095 16.143734302527264
19.281051337233716 -11.039937437822203 16.914795544253888
19.420706008002288 -12.122522136627463 17.636065185483222
19.425911549903276 -13.27399059289699 18.311186852871177
19.342932848525702 -14.459071757040963 18.948543235439075
19.227434433186474 -15.644919155473525 19.560245229605503
19.144125206648155 -16.802148604505888 20.162046533187095
19.159089470405238 -17.905989482243488 20.767716984253806
LINES 1 76
75 0 1 2 3 4 5 6 7 8 9 10 11 12 13 14 15 16 17 18 19 20 21 22 23 24 25 26 27 28 29 30 31 32 33 34 35 36 37 38 39 40 41 42 43 44 45 46 47 48 49 50 51 52 53 54 55 56 57 58 59 60 61 62 63 64 65 66 67 68 69 70 71 72 73 74
POINT_DATA 75
SCALARS MaximumInscribedSphereRadius float
LOOKUP_TABLE default
1.2
1.2108108108108109
1.2216216216216216
1.2324324324324323
1.2432432432432432
1.2540540540540541
1.2648648648648648
1.2756756756756755
1.2864864864864864
1.2972972972972974
1.308108108108108
1.3189189189189188
1.3297297297297297
1.3405405405405406
1.3513513513513513
1.362162162162162
1.372972972972973
1.3837837837837839
1.3945945945945946
1.4054054054054053
1.4162162162162162
1.427027027027027
1.4378378378378378
1.4486486486486485
1.4594594594594594
1.4702702702702704
1.481081081081081
1.4918918918918918
1.5027027027027027
1.5135135135135136
1.5243243243243243
1.535135135135135
1.545945945945946
1.5567567567567568
1.5675675675675675
1.5783783783783782
1.5891891891891892
1.6
1.6108108108108108
1.6216216216216215
1.6324324324324324
1.6432432432432433
1.654054054054054
1.6648648648648647
1.6756756756756757
1.6864864864864866
1.6972972972972973
1.708108108108108
1.718918918918919
1.7297297297297298
1.7405405405405405
1.7513513513513512
1.7621621621621621
1.772972972972973
1.7837837837837838
1.7945945945945945
1.8054054054054054
1.8162162162162163
1.827027027027027
1.8378378378378377
1.8486486486486486
1.8594594594594596
1.8702702702702703
1.881081081081081
1.8918918918918919
1.9027027027027028
1.9135135135135135
1.9243243243243242
1.9351351351351351
1.945945945945946
1.9567567567567568
1.9675675675675675
1.9783783783783784
1.9891891891891893
2.0
SCALARS Curvature float
LOOKUP_TABLE default
0.0
0.09889114251183313
0.03534493365848031
0.044017269327637096
0.11842768809497732
0.18957762031132283
0.2132364138966656
0.18835711454667692
0.14212426301863942
0.11173900083926472
0.10649340526451058
0.10116214765829054
0.08290568091876235
0.060855815326372645
0.04784115788593217
0.07440331362270831
0.17897022612689636
0.44239734247477025
0.6609782937281176
0.4244671098395152
0.1915227626485371
0.11296603378052185
0.08987926572967703
0.086501231127549
0.09082019362560693
0.08968251090678901
0.0715023392220638
0.10135327855440408
0.21427688847573745
0.3324620233443006
0.37167729417446665
0.3227779811784211
0.2387058054630895
0.16575635885888826
0.11930316444781168
0.09596897504218284
0.0899541397282723
0.09342780968384436
0.09131792747846383
0.07094887003783963
0.03745744590904317
0.00669930916860707
0.06317150400303338
0.10796958031970824
0.13572155063006652
0.15059660476777262
0.15780663965066882
0.15595069262836875
0.14222512160890288
0.11748298311427069
0.0909439582882273
0.0714410904859131
0.06008867774094426
0.054939341807754144
0.052246913040656956
0.046574602816932625
0.03356410045521222
0.013857910646760358
0.007849950975963266
0.02808155828332158
0.04779734180266616
0.07029502964773904
0.09787795314418558
0.1285475520794662
0.15591821693288446
0.1710696690384638
0.1676336066643483
0.1472953503222957
0.11794960784061738
0.08616714504199044
0.055072285201353335
0.02263095148771902
0.017873193888995834
0.06486499012127857
0.0
SCALARS Torsion float
LOOKUP_TABLE default
0.0
0.0
0.6675237009022263
0.5181175322010626
0.11119614284228085
0.07799949701976806
0.09379663158671016
0.12090348328432372
0.20389231166037058
0.23166712353512106
0.10385447189573127
0.04765608727963477
0.03912108215499057
0.08871812769867045
0.36615951104714367
0.3173889522135295
0.10825883372987594
0.011464084018924361
-0.036431402749340244
-0.05153130762672562
-0.02508754236023299
0.022366017812836574
0.011320585918260302
-0.017799882290917043
-0.03690376972435292
-0.12529800778339006
-0.5183156170280354
-0.587965064400574
-0.26140330092785646
-0.1710621845566013
-0.137761169766957
-0.1091141799991068
-0.06764237908759495
-0.021690528712004442
0.004852170913622
-0.0012981725895230894
-0.01283404223331133
-0.015843520510313548
-0.010394182179442546
0.0019013950161337768
0.03738632646119796
-0.9704180367895521
-0.04015982812508301
-0.046530016889946665
-0.06849839906728131
-0.09857191406651937
-0.10474906365889278
-0.08276460901282791
-0.06641454925563518
-0.09634235266570236
-0.122725983543726
-0.11125637098900051
-0.03636477794686527
0.06232245110700396
0.10696912446190159
0.0892431575875582
0.05147607464252783
0.06305372176790401
0.2965776732021686
0.004890929898687002
-0.02785953345625934
-0.03579997686271516
-0.04067582775788696
-0.046360854767258895
-0.046320828115774676
-0.03578559096643275
-0.025314923591453535
-0.02437745296918547
-0.03193639985603067
-0.02837742722556444
0.006364805828095822
0.16843441060548425
0.4241764752317821
0.033199757457187506
0.0
