# vtk DataFile Version 2.0
Vessel Segment
ASCII
DATASET POLYDATA
POINTS 75 float
-4.697082549644695 21.460221637466045 -6.786239202551129
-5.237158070938974 20.394667863200354 -6.758471996010788
-5.870185966424263 19.32705977821369 -6.570585979529063
-6.566539572218733 18.28693780702424 -6.300119880994044
-7.297862586014038 17.300276767255717 -6.025743659168545
-8.035345212484726 16.387036685493655 -5.829336167515081
-8.749603346265932 15.557090770951211 -5.789520035304594
-9.412483450714248 14.804620308731582 -5.9664370894179255
-9.996530225636532 14.108554460815093 -6.386184055630547
-10.473820957271371 13.436058174633503 -7.02699150180502
-10.817568807267584 12.756056511619338 -7.83491977269353
-11.001522678127927 12.053930626172084 -8.742149563027873
-11.004074666343302 11.33078259221791 -9.68174925722872
-10.80201758350782 10.609186680861551 -10.624515686378507
-10.399477091299977 9.909427806431715 -11.539003682662925
-9.821593638677957 9.232532376822366 -12.411758137762996
-9.112981700030707 8.574814450733871 -13.233335909348712
-8.332057289924547 7.918126719880743 -13.97697147436432
-7.541901499685032 7.246000450898916 -14.585441085364799
-6.804848652720582 6.5544889931474275 -14.983938620072333
-6.179231657701515 5.8577810944224105 -15.096354209919367
-5.724710950694556 5.200609512871976 -14.873372175049132
-5.471833279228954 4.6438517892271785 -14.341513961838059
-5.412319536042697 4.229939122674482 -13.569935311931845
-5.525891121723213 3.987185795153646 -12.63189126333581
-5.782938377299195 3.924373372440035 -11.600525721574028
-6.140214239872938 4.018158826254762 -10.538634677881069
-6.542967269101625 4.212158787893134 -9.482040165079356
-6.9354915359291995 4.43834334543698 -8.434116042205952
-7.268074654366805 4.630870361929227 -7.387042777336811
-7.504233115414128 4.73442221120633 -6.335518854224904
-7.624343847755597 4.7088998066556025 -5.284743006330071
-7.622572956471187 4.527190361314622 -4.2514534886371145
-7.5016711211846365 4.172088208551608 -3.260715777652063
-7.272049850435456 3.636260485604101 -2.3421652415413705
-6.956290121886435 2.9271546399080357 -1.5247432622981776
-6.5878074530614095 2.068594992353424 -0.8292554496037432
-6.199867900982494 1.0953974612873392 -0.2661990406425038
-5.8162697057528705 0.04664742989103878 0.1645313461343084
-5.447870993096453 -1.04320933733215 0.47607868916496027
-5.091865184701135 -2.1522418902289506 0.6926245392359408
-4.734518740177979 -3.2705877876845 0.8435252858143504
-4.3579232307105435 -4.392956466730242 0.9651355530515235
-3.935500194965491 -5.508908468721775 1.1006293006343795
-3.4395828892726996 -6.59479724257202 1.2827364849354204
-2.8482192884010646 -7.617178852487708 1.5339702487101516
-2.1501100080261093 -8.540447463101316 1.8700518667191968
-1.347692461617327 -9.334175367668927 2.2997700271773285
-0.45515025356372635 -9.979130328248337 2.8228204341200107
0.5081444315429718 -10.467919081324073 3.426053232630991
1.5245306177830504 -10.80388882230974 4.082805029212884
2.5803066443737497 -10.997008382756158 4.76337130050246
3.6636035671250236 -11.058265431516068 5.4450435681640865
4.762058982794773 -10.998122967405191 6.117266003527102
5.862382096530878 -10.829151313962068 6.780776917299286
6.953088474224531 -10.56960165042645 7.442341406875807
8.028176633996457 -10.244992004595515 8.108876709719246
9.087812075518398 -9.885882839998166 8.784504602535193
10.13565949728594 -9.523395220247021 9.47068236074138
11.175131988581311 -9.185528726205948 10.167057481438553
12.208262958721534 -8.89666891032554 10.871447959039577
13.236353294268495 -8.679873244639651 11.57963626129355
14.259223916972774 -8.558258763876617 12.287269714963456
15.271702150975926 -8.553198678865533 12.992888718458977
16.25940803135741 -8.681062375089924 13.698800771721238
17.19742172935244 -8.951632548367444 14.407802185952292
18.053230823970356 -9.369789930705501 15.118386391233896
18.79258159355949 -9.937046033059296 15.822616380328297
19.387269023320144 -10.650907050978802 16.507571149679634
19.823064995289716 -11.50296997601689 17.159401079757437
20.103606171096864 -12.478030803047222 17.7669448804356
20.247171922323847 -13.552276480966633 18.32484013823349
20.283235088836726 -14.688679775687161 18.836555693640257
20.251967937826674 -15.84194802977746 19.314631068628767
20.196472837006883 -16.96806682072099 19.774188402201812
LINES 1 76
75 0 1 2 3 4 5 6 7 8 9 10 11 12 13 14 15 16 17 18 19 20 21 22 23 24 25 26 27 28 29 30 31 32 33 34 35 36 37 38 39 40 41 42 43 44 45 46 47 48 49 50 51 52 53 54 55 56 57 58 59 60 61 62 63 64 65 66 67 68 69 70 71 72 73 74
POINT_DATA 75
SCALARS MaximumInscribedSphereRadius float
LOOKUP_TABLE default
1.2
1.2108108108108109
1.2216216216216216
1.2324324324324323
1.2432432432432432
1.2540540540540541
1.2648648648648648
1.2756756756756755
1.2864864864864864
1.2972972972972974
1.308108108108108
1.3189189189189188
1.3297297297297297
1.3405405405405406
1.3513513513513513
1.362162162162162
1.372972972972973
1.3837837837837839
1.3945945945945946
1.4054054054054053
1.4162162162162162
1.427027027027027
1.4378378378378378
1.4486486486486485
1.4594594594594594
1.4702702702702704
1.481081081081081
1.4918918918918918
1.5027027027027027
1.5135135135135136
1.5243243243243243
1.535135135135135
1.545945945945946
1.5567567567567568
1.5675675675675675
1.5783783783783782
1.5891891891891892
1.6
1.6108108108108108
1.6216216216216215
1.6324324324324324
1.6432432432432433
1.654054054054054
1.6648648648648647
1.6756756756756757
1.6864864864864866
1.6972972972972973
1.708108108108108
1.718918918918919
1.7297297297297298
1.7405405405405405
1.7513513513513512
1.7621621621621621
1.772972972972973
1.7837837837837838
1.7945945945945945
1.8054054054054054
1.8162162162162163
1.827027027027027
1.8378378378378377
1.8486486486486486
1.8594594594594596
1.8702702702702703
1.881081081081081
1.8918918918918919
1.9027027027027028
1.9135135135135135
1.9243243243243242
1.9351351351351351
1.945945945945946
1.9567567567567568
1.9675675675675675
1.9783783783783784
1.9891891891891893
2.0
SCALARS Curvature float
LOOKUP_TABLE default
0.0
0.10767366477344656
0.06302812710667209
0.038215216849566795
0.059965946609248914
0.130828215829358
0.21804724294053876
0.25472941348809747
0.21303758519760543
0.1580106369711958
0.13089060113298545
0.12840294604754227
0.13802576312100345
0.13429429170299026
0.1136154588439158
0.0858252457799185
0.06659311501600466
0.0864449939240533
0.16185532691709478
0.31379996710807123
0.49885543826034806
0.5168144379635417
0.3859660004702612
0.26737793726186476
0.19200069568618994
0.13631180163454223
0.08077556832374497
0.026456818253854757
0.051594536710766054
0.10946732343911311
0.15356096456950175
0.17852441233820257
0.18689905103061036
0.18131925785028757
0.1637666635955887
0.1409680348502928
0.12113493393670785
0.10533880327969032
0.08914526325238765
0.06946418453766295
0.04729014891591147
0.024424382062614488
0.03248751973084442
0.06267230894390685
0.09141821255985749
0.11533678005035919
0.1295767246131086
0.13079192995841912
0.12121205096846978
0.1059429484939684
0.09149385913667094
0.08116287455317872
0.07323641466393775
0.06457500120413903
0.0534466246291843
0.03917014497048738
0.022735734911090582
0.00935087099978533
0.015993260588216665
0.029540253126010094
0.04414010591052428
0.06031504233959365
0.07640360484688762
0.09039780345677069
0.10339999315325311
0.11898219208733789
0.13781065246210428
0.1539792252520524
0.1567382817983226
0.1410602708007371
0.1135381407126153
0.08208369181798769
0.04933799907581603
0.017925135980226367
0.0
SCALARS Torsion float
LOOKUP_TABLE default
0.0
0.0
0.2781906135320264
0.7047700672665426
0.48005109639242544
0.1908301156006415
0.12049978007628463
0.12258795870002398
0.188733930309497
0.26745597074108607
0.26504104352840513
0.18513761174545001
0.001150890880259714
0.012256545089853493
0.036861948033195105
0.07334356807135446
0.33698417317578383
0.3316406761216061
0.14148008229952175
0.04232196944006775
0.005022593488540228
-0.022600574650042626
-0.04913801554698182
-0.056088723086153494
-0.04925564102561735
-0.050346604636838856
-0.12608988686086217
-0.9171181702739297
-0.43181440907093327
-0.11149367895550105
-0.06896926250184941
-0.06487653180228596
-0.0625847569983136
-0.06238402473738319
-0.0755202730327711
-0.09563633266587616
-0.09497517311570852
-0.0659239341013971
-0.026929016355436028
0.03679855700032686
0.19346922698959848
0.6777075511631371
0.535468976913617
0.10751056777994716
0.022087161425946925
0.013218521501390024
0.01965473596200322
0.02119132982901725
-0.001959099615923929
-0.05542016407172712
-0.09354104405447221
-0.08200789172896679
-0.024163491582724766
0.04698149435154855
0.10419135194578376
0.1525651314983334
0.2950129205648701
0.8907476852515022
0.4170836927840245
0.12552991592814816
0.0677302754901672
0.03462496442226913
-0.006764601655975991
-0.05026749037953844
-0.07629070807120393
-0.07079649236197348
-0.045083022128061395
-0.01716088663816296
0.004598538766120187
0.022806740233704905
0.028167592658665096
0.0030423787788922373
-0.06373045838003179
-0.5243090632699602
0.0
