# vtk DataFile Version 2.0
Vessel Segment
ASCII
DATASET POLYDATA
POINTS 75 float
-4.132410954435916 21.063134545711222 -6.6362530126490755
-4.602875770023786 20.229095016513238 -6.4535637027511665
-5.171390996930551 19.342877299670107 -6.232702607151754
-5.807959573155802 18.446405109199112 -5.9747511503671085
-6.489567216307424 17.5774900251262 -5.685318686404067
-7.196936987613463 16.767584849034716 -5.392362460724692
-7.914499747124611 16.039894593325347 -5.150972443769354
-8.630843498570153 15.400810574736314 -5.035089133043286
-9.33500784512274 14.831962187554021 -5.117050780865151
-10.006654011030845 14.297172168321456 -5.437908807671324
-10.623661321644095 13.754307842667474 -5.97415844870089
-11.17837927800832 13.160073111787357 -6.6577289908210115
-11.651762033599066 12.492637096643499 -7.424535187574378
-11.983933689565983 11.781884780745749 -8.246015974926605
-12.136275236955 11.07174318411107 -9.072388887017546
-12.08079647145899 10.388158617695508 -9.897757379465922
-11.799243108847595 9.751860048098163 -10.7520702061508
-11.29213844336806 9.148802987984132 -11.668228516714159
-10.580498463391127 8.542188475902265 -12.647859515933014
-9.707536845191415 7.889505197725031 -13.653250145001172
-8.730107656519325 7.162981359415982 -14.609104362541169
-7.711067101072591 6.362629592096729 -15.412099421681571
-6.71261599078207 5.5202736384391935 -15.9435888141609
-5.800203036554565 4.686669804565619 -16.10272356584467
-5.030744370419666 3.9129137549929105 -15.848694576232727
-4.4402912878999174 3.235323978757599 -15.208074415848742
-4.051334205956482 2.671530796114957 -14.257871600391107
-3.87554110678527 2.24227696736721 -13.121196902254155
-3.887115622871655 1.929672266787711 -11.945946532216983
-4.044030884212634 1.6972051086471027 -10.811471940917832
-4.30195604614077 1.5151517120116595 -9.73862978965226
-4.616013268366581 1.3586548436507049 -8.713881711708725
-4.945227593910105 1.2054215763710923 -7.710472262483476
-5.257057130582339 1.02866773955286 -6.7071243205888695
-5.528050106318096 0.7918653465847307 -5.6971248504350065
-5.741324058232387 0.45293838639025535 -4.686811820595541
-5.886358465768725 -0.019560257221539368 -3.686093829862037
-5.956318680203526 -0.6334463914186953 -2.69548433759187
-5.942811082222174 -1.3701991289562572 -1.7050202211272698
-5.837028173745666 -2.1934402898616976 -0.7043398184337204
-5.633155731840689 -3.0632286420181596 0.3011524863799556
-5.3297167550362925 -3.9455291958870755 1.2846655422357132
-4.9278668147414475 -4.815575383024779 2.2064166700344074
-4.428457383369475 -5.655312003424089 3.030163990101544
-3.828691887439468 -6.4491474835197655 3.737342328040502
-3.127791404663737 -7.183251475015153 4.332966034010227
-2.332850738936603 -7.848132552669818 4.840837648647185
-1.4588049663880942 -8.43985863222004 5.291901265134431
-0.5239381925912246 -8.957564738983088 5.7129487944647455
0.4563110841753506 -9.399742472517051 6.119778919494776
1.4718177439176148 -9.76113102353798 6.518294070132756
2.5161076184250746 -10.031868663872737 6.909161863942337
3.582750588283098 -10.202376690667556 7.293109191739809
4.66387464802226 -10.270080248582223 7.674292271628098
5.750177130714925 -10.244552520258926 8.061057095873181
6.831493414597446 -10.144769564927405 8.463635844357096
7.897493392668371 -9.994406244021866 8.891851553788506
8.9398676781727 -9.81695973319469 9.35286794439973
9.954718380631238 -9.632335606207548 9.848716774416905
10.942711949867252 -9.458076060430333 10.376023060207567
11.907666157822566 -9.310629735237416 10.927641100511744
12.85326383854131 -9.205442662293382 11.495832502282555
13.77892805885338 -9.15413080814519 12.075476784462305
14.6785553068942 -9.161614440601733 12.665014200089015
15.542612448832214 -9.226940605334605 13.26573189121084
16.362023973693454 -9.347758210959702 13.87960434007486
17.1307740065676 -9.526352518763703 14.507532312978727
17.845469961769837 -9.77413461778837 15.14852500482654
18.502299331793175 -10.110050130650894 15.798997782270177
19.095140072370953 -10.552878930581219 16.453717445670563
19.615453946862626 -11.110144031165502 17.106977862811103
20.05396878162022 -11.772826090571476 17.754729977651692
20.401134994404135 -12.519174190245126 18.395572711275392
20.647851616099068 -13.317472895508004 19.030340917560437
20.78637511031647 -14.131669714013514 19.662842949565704
LINES 1 76
75 0 1 2 3 4 5 6 7 8 9 10 11 12 13 14 15 16 17 18 19 20 21 22 23 24 25 26 27 28 29 30 31 32 33 34 35 36 37 38 39 40 41 42 43 44 45 46 47 48 49 50 51 52 53 54 55 56 57 58 59 60 61 62 63 64 65 66 67 68 69 70 71 72 73 74
POINT_DATA 75
SCALARS MaximumInscribedSphereRadius float
LOOKUP_TABLE default
1.2
1.2108108108108109
1.2216216216216216
1.2324324324324323
1.2432432432432432
1.2540540540540541
1.2648648648648648
1.2756756756756755
1.2864864864864864
1.2972972972972974
1.308108108108108
1.3189189189189188
1.3297297297297297
1.3405405405405406
1.3513513513513513
1.362162162162162
1.372972972972973
1.3837837837837839
1.3945945945945946
1.4054054054054053
1.4162162162162162
1.427027027027027
1.4378378378378378
1.4486486486486485
1.4594594594594594
1.4702702702702704
1.481081081081081
1.4918918918918918
1.5027027027027027
1.5135135135135136
1.5243243243243243
1.535135135135135
1.545945945945946
1.5567567567567568
1.5675675675675675
1.5783783783783782
1.5891891891891892
1.6
1.6108108108108108
1.6216216216216215
1.6324324324324324
1.6432432432432433
1.654054054054054
1.6648648648648647
1.6756756756756757
1.6864864864864866
1.6972972972972973
1.708108108108108
1.718918918918919
1.7297297297297298
1.7405405405405405
1.7513513513513512
1.7621621621621621
1.772972972972973
1.7837837837837838
1.7945945945945945
1.8054054054054054
1.8162162162162163
1.827027027027027
1.8378378378378377
1.8486486486486486
1.8594594594594596
1.8702702702702703
1.881081081081081
1.8918918918918919
1.9027027027027028
1.9135135135135135
1.9243243243243242
1.9351351351351351
1.945945945945946
1.9567567567567568
1.9675675675675675
1.9783783783783784
1.9891891891891893
2.0
SCALARS Curvature float
LOOKUP_TABLE default
0.0
0.04929104962422916
0.043558549724529355
0.04591141640082785
0.04761022571526217
0.06833269550298614
0.14272143895104214
0.24574879470244168
0.27838324982785184
0.20901623016264692
0.1245161598951761
0.09554856500102538
0.11989018818262565
0.14648769751961002
0.17985419227291752
0.1845828566011844
0.1364377716117828
0.08043127284493859
0.048087587157063925
0.04917833473736013
0.0748328639614107
0.12986370163939637
0.2302931910310133
0.33604562722955555
0.33987121636470335
0.25937346045158505
0.19568062024531072
0.1502156468510806
0.1217255775971261
0.09632680093161011
0.06039739243277381
0.0185081960105552
0.025736020429648728
0.06284184726866034
0.09743534645403874
0.11597929719150603
0.10832850924253491
0.08426129645296904
0.06247420148945283
0.053690293887162906
0.05528191849123813
0.06490042796127837
0.08201169350913443
0.10242614093261533
0.11394170854399449
0.10874947353129041
0.09218509874375687
0.07585269810968583
0.06732599372789279
0.06690556424562846
0.07232604264443869
0.07810993623935417
0.0784323955788895
0.06988979335407258
0.05640801891220106
0.04370660097749187
0.03642449287364397
0.033749784024871166
0.032188026921258474
0.0328911880185288
0.03895133572730217
0.04767512766214961
0.05446482940830275
0.059375703662004946
0.06508022787253018
0.07419694415923657
0.08905165854308297
0.10896798788999333
0.1264026302810558
0.13134583298567168
0.12325522723714184
0.11116540214639091
0.10189837964723915
0.10068429252525998
0.0
SCALARS Torsion float
LOOKUP_TABLE default
0.0
0.0
-0.15236639476901528
-0.036308688655591004
0.2696771972039694
0.4466989926119842
0.28021729471527473
0.19337607954490502
0.1881331079989685
0.2470733450513839
0.4263200843824471
0.40784877343490594
-0.017182031919757035
-0.0014013550228745252
-0.059565519396919446
-0.11914618456028347
-0.044337073878332994
0.11861987012293207
0.3736473652685287
0.3036181857383348
0.10006001378673043
0.0022490514075401286
-0.013372382750096104
-0.006920784404504631
0.004079461315787707
0.03404967031916131
0.039857180695686174
0.12010041810713071
0.16914550151036184
0.13323719025362435
0.12468331125117155
0.6638833632962502
0.4926988452087304
-0.002142991032966668
-0.06207337853183206
-0.044226135295027544
0.013193174028789889
0.12409281814992493
0.24371869028078136
0.21517500718916516
0.07115330840964673
-0.03382273590094635
-0.04183346816480379
0.010715147462387359
0.0726767290856794
0.13231738323684444
0.1896847002977259
0.2245524760361579
0.18014951997884404
0.09383932366417451
0.03955092947801607
0.03402103539260072
0.056059163581113965
0.10511142210621743
0.18965115034841995
0.3208133072477361
0.40582280396623405
0.3680277882682052
0.3566162732710527
0.36605459828690734
0.27707018858164806
0.12510601106031347
-0.0019526417065965362
-0.0865255670788792
-0.094800887580149
-0.026463514465341606
0.05601635547349453
0.08304141320369496
0.05963201680595407
0.015431043825326084
-0.040185018078814264
-0.10215224474264864
-0.17003846578807344
-0.21992443162288125
0.0
