# vtk DataFile Version 2.0
Vessel Segment
ASCII
DATASET POLYDATA
POINTS 75 float
-5.103353240344704 21.34757293292079 -7.742225566789469
-5.552471732689441 20.441641077944887 -7.6470798826499
-6.121007084123669 19.50397882379815 -7.473342834701731
-6.769093131686701 18.56328831774784 -7.277379152932569
-7.45729892278998 17.64751827226807 -7.115131001468411
-8.146144180703068 16.780484905917877 -7.042112613927176
-8.796915806582247 15.977603292091768 -7.107625487504548
-9.374353404916146 15.2408036004168 -7.343077024650373
-9.852134094684914 14.551511809131144 -7.750054077982642
-10.21166583255186 13.880704161468865 -8.316501712431696
-10.439939582800227 13.208700894478065 -9.013049527959835
-10.533283613555627 12.52104316780484 -9.795768411914317
-10.490430174837396 11.812275301484283 -10.621372314471579
-10.309711372849405 11.090431343234453 -11.460131878189006
-9.998300679095728 10.364458533867449 -12.280152665714638
-9.577411410876715 9.637214602513694 -13.043265265521235
-9.087961882714396 8.91129125407062 -13.704680728559367
-8.581921930425949 8.189494911302242 -14.210538399966685
-8.111694710683405 7.48750078725371 -14.500218673828595
-7.720869751657432 6.836966172864301 -14.525066754531142
-7.435295268333569 6.280270701754462 -14.26705000416495
-7.256318925428202 5.854268114514302 -13.74844000969402
-7.18274731543493 5.569198660342378 -13.014095857271263
-7.202843557556383 5.422065589414703 -12.135881605914008
-7.284794091945853 5.391478637654002 -11.17959994625174
-7.396163310411662 5.441114920430765 -10.192230509581242
-7.504947882350283 5.523078015372286 -9.202510201645474
-7.581556371439513 5.58068359245463 -8.22055086869375
-7.6053474829268515 5.560309055250297 -7.243541131051847
-7.564945028029007 5.416222897381368 -6.2743783031295
-7.4593154232924554 5.112442470381687 -5.328122323246613
-7.297920929095621 4.628583168997623 -4.430000013040481
-7.096975618973864 3.96435611863167 -3.6088665380934484
-6.8752120197338105 3.141043411017602 -2.8876587782682166
-6.6494545395910025 2.194951975930433 -2.2738506723814256
-6.429905991928175 1.1648915184430164 -1.7574601255913633
-6.216185335849396 0.08222077847341154 -1.31799905140381
-5.999923314594661 -1.0277483622523027 -0.9328419293839608
-5.766384048637713 -2.1412573191712077 -0.5783962384914391
-5.4960151758953435 -3.2371704998696753 -0.23133561341318698
-5.1685557345072395 -4.299845228629643 0.12774770909898406
-4.764243404894221 -5.318591926361649 0.5167068043651785
-4.258660731063562 -6.2840530525295994 0.9395589455533212
-3.6445238901329136 -7.181714885470649 1.3792883449103628
-2.9218166884817163 -7.993204135275915 1.8275265338484779
-2.0947459989337363 -8.696597939943777 2.2822329983616756
-1.1750487310109612 -9.270436931460573 2.7472526612948354
-0.1818831701258297 -9.699490016473533 3.2302318377554005
0.8616428176813262 -9.980326614140523 3.736680608816636
1.9337306181770348 -10.125596140933613 4.268123502476057
3.016641999623717 -10.155425924708664 4.8253944369331645
4.098744896440048 -10.088449970073402 5.4011007850610735
5.174078601557446 -9.941726625838237 5.982785694482842
6.2391385183787476 -9.730038350364394 6.561469782277634
7.290222849014669 -9.467081118937788 7.136038163114325
8.323606399971881 -9.166909365557318 7.712176471353589
9.337142060763822 -8.84576881368914 8.298533048940103
10.331688286319764 -8.524181023498706 8.90311031013351
11.310900525773004 -8.228327618754282 9.530928003588132
12.278368756690538 -7.98917569742432 10.183098652170573
13.233611148979518 -7.839921658066588 10.856284636904238
14.168313973485185 -7.812169276496664 11.54312231142818
15.064278099672576 -7.931251256684527 12.234185702110716
15.894003238032166 -8.211763376045914 12.92087885097083
16.624855028745046 -8.654825546624398 13.597673138944778
17.226799146947943 -9.249045704531197 14.261919531204759
17.681550436471323 -9.974682437440464 14.911662265605996
17.988683741855876 -10.807782598366607 15.54445027074097
18.166313131333293 -11.721942013864473 16.15807033454033
18.24548621702284 -12.68915239039227 16.753000007548096
18.261486986293445 -13.681483395756327 17.33318894595401
18.246947440915843 -14.673747603887987 17.905433803599685
18.22943214329461 -15.645235440095389 18.477491288376225
18.233932115995557 -16.577893866368605 19.05670937803453
18.286093341730275 -17.4576496630442 19.649527935907415
LINES 1 76
75 0 1 2 3 4 5 6 7 8 9 10 11 12 13 14 15 16 17 18 19 20 21 22 23 24 25 26 27 28 29 30 31 32 33 34 35 36 37 38 39 40 41 42 43 44 45 46 47 48 49 50 51 52 53 54 55 56 57 58 59 60 61 62 63 64 65 66 67 68 69 70 71 72 73 74
POINT_DATA 75
SCALARS MaximumInscribedSphereRadius float
LOOKUP_TABLE default
1.2
1.2108108108108109
1.2216216216216216
1.2324324324324323
1.2432432432432432
1.2540540540540541
1.2648648648648648
1.2756756756756755
1.2864864864864864
1.2972972972972974
1.308108108108108
1.3189189189189188
1.3297297297297297
1.3405405405405406
1.3513513513513513
1.362162162162162
1.372972972972973
1.3837837837837839
1.3945945945945946
1.4054054054054053
1.4162162162162162
1.427027027027027
1.4378378378378378
1.4486486486486485
1.4594594594594594
1.4702702702702704
1.481081081081081
1.4918918918918918
1.5027027027027027
1.5135135135135136
1.5243243243243243
1.535135135135135
1.545945945945946
1.5567567567567568
1.5675675675675675
1.5783783783783782
1.5891891891891892
1.6
1.6108108108108108
1.6216216216216215
1.6324324324324324
1.6432432432432433
1.654054054054054
1.6648648648648647
1.6756756756756757
1.6864864864864866
1.6972972972972973
1.708108108108108
1.718918918918919
1.7297297297297298
1.7405405405405405
1.7513513513513512
1.7621621621621621
1.772972972972973
1.7837837837837838
1.7945945945945945
1.8054054054054054
1.8162162162162163
1.827027027027027
1.8378378378378377
1.8486486486486486
1.8594594594594596
1.8702702702702703
1.881081081081081
1.8918918918918919
1.9027027027027028
1.9135135135135135
1.9243243243243242
1.9351351351351351
1.945945945945946
1.9567567567567568
1.9675675675675675
1.9783783783783784
1.9891891891891893
2.0
SCALARS Curvature float
LOOKUP_TABLE default
0.0
0.0863822433891769
0.048556367646220996
0.04332156172543837
0.07446057766672995
0.13286334177561004
0.20040445118286868
0.23016617054600624
0.21422694163183145
0.17433288529888963
0.13454963882840526
0.11318884378967307
0.10546374324212755
0.0997319834540989
0.09545127329752419
0.0981202440275975
0.13366208280782366
0.23800894012647084
0.43004164166863135
0.5975880144707743
0.5494693784457365
0.3668541441307036
0.22772833895960737
0.14132780668879427
0.08319748020459525
0.03222378510562772
0.040464486174039936
0.09826711347801187
0.14352450243590495
0.16926584529875469
0.1741551121305217
0.16362776550525718
0.14353187345712612
0.11813033082996743
0.09081198327902695
0.06478710174300283
0.04219995501739029
0.024874417071041943
0.02884626969066829
0.048528439873475195
0.06895003983747303
0.08667146763708922
0.0931678198586999
0.09988360335069671
0.10781896763093785
0.11381089469005509
0.11526009691801427
0.10987469659156764
0.09561099483291087
0.07888584457523515
0.06471840597128603
0.0527138534431615
0.043455566571011774
0.035369035630622894
0.0274602756524155
0.020358357879771583
0.017508780246166252
0.02589996352214044
0.04393128984187751
0.06666352246630514
0.09145236904267263
0.11642308921776269
0.1396934276397607
0.15885355303689425
0.17038935125669402
0.1689074850127748
0.15091537181883538
0.11992800155116141
0.08450888123796713
0.05160942745865018
0.02388257285842857
0.008556919982751736
0.028681228709940304
0.056745797151550516
0.0
SCALARS Torsion float
LOOKUP_TABLE default
0.0
0.0
0.5154450808694698
0.6165382863981064
0.31096508522346156
0.16158818173828346
0.126395058858941
0.1601594904393002
0.19073781187166958
0.20087019251205834
0.2431071074119322
0.21735519483622187
0.08850071190865341
0.09576531699829609
0.18208893765969195
0.28714107182269005
0.3032573702931601
0.17415451097905252
0.06661940035129794
-0.009884949952180394
-0.07049170805424412
-0.007416083831373571
-0.009049868773379124
-0.10919851893141928
-0.18167658385898144
-0.7665149666353189
-0.6062497892656327
-0.13802351453461126
-0.0803144096591283
-0.07505741713832206
-0.07641186506127658
-0.07011909876122588
-0.061203811151566874
-0.056043434824303955
-0.046656368672744974
0.009825245469269689
0.1615687400937679
0.6156496880691107
0.5522489206814641
0.18873873821493814
0.08167914127335119
-0.031537165082640706
-0.09425049814687389
-0.018040533207530185
0.026202286539814604
0.06129164969368341
0.08333057184167748
0.08003494264456852
0.07164519146033492
0.08306884874704373
0.01666419449487712
-0.06508747520707073
-0.07092497740378394
0.023377897196504696
0.19508358242064178
0.4329068408699261
0.6039667601272658
0.39092932038634276
0.19028827825076813
0.0994800946896685
0.04793324740030966
0.007417787917536223
-0.030863608189268966
-0.06413769551568778
-0.08025915756394189
-0.07087654829608421
-0.04540115793795664
-0.017751772299669896
-0.006754199003414844
-0.03828434673356345
-0.2957560472022099
-0.9877949032017366
-0.23631005580013287
-0.09376720405871106
0.0
