# vtk DataFile Version 2.0
Vessel Segment
ASCII
DATASET POLYDATA
POINTS 75 float
-4.248332749099487 21.911889114970936 -6.36095881690697
-4.801380148118345 20.907252373875796 -6.196718437093497
-5.437128797622276 19.853489099768876 -5.948136237038481
-6.127195100262345 18.787424231628457 -5.67054355383766
-6.844973145542589 17.742287536417585 -5.420488445304694
-7.562539202904298 16.746908409880138 -5.260508347962002
-8.250826092194679 15.823176328637526 -5.255042216279916
-8.88210810883374 14.98015943067276 -5.4592587106345105
-9.431850550466141 14.212627308578478 -5.902839304648182
-9.883694273638646 13.494947925766281 -6.56577301613604
-10.22428705419934 12.787001412336297 -7.393856844688888
-10.431317081728345 12.061842965401237 -8.322315923589631
-10.480429284773464 11.313289920333224 -9.29084960857287
-10.338500430237502 10.565749549967126 -10.27500628066722
-10.008619036024783 9.843681219318345 -11.23651856978779
-9.51801900126862 9.14583988946981 -12.163175381661958
-8.904353318504807 8.467491897427363 -13.04293089843312
-8.223078989159644 7.794048433353657 -13.842483354236926
-7.536354762032573 7.1090341787939915 -14.504086791392002
-6.902633411124713 6.407096127975029 -14.951793482640882
-6.373548508568843 5.706754290994784 -15.105813584538573
-5.9993428632807495 5.058492826747012 -14.914131904545968
-5.811365210090175 4.527030092364025 -14.399569479079405
-5.798768392796964 4.152846829942228 -13.639316708474208
-5.933492072141076 3.9513211176325185 -12.709803915381352
-6.181561793017411 3.9157854637972966 -11.683037230983656
-6.502013420669496 4.015570717868872 -10.61640145854442
-6.853688034163263 4.2060728918780725 -9.547694061961929
-7.194662283784053 4.427279675066283 -8.497496676936388
-7.490972501355724 4.6133339718956226 -7.463290785442424
-7.719283364457432 4.701928240693998 -6.436850431700709
-7.8634678395360895 4.636769167045941 -5.418371796421053
-7.9148268968933655 4.374220096352522 -4.424919137133833
-7.875939265620817 3.898348018126856 -3.488271274597986
-7.755539713742559 3.2208833328355864 -2.6405911882596844
-7.5650886727082325 2.3694583135048646 -1.9086674754151578
-7.3210094799128305 1.3813330636720806 -1.30829841586085
-7.0395340275740566 0.29591255481731815 -0.8375998436843601
-6.730785173566025 -0.8504718983838645 -0.47882447264877276
-6.396503618009924 -2.0250622720893454 -0.20316028363029867
-6.028379123212107 -3.199676832353381 0.023002117733270114
-5.6108206642081075 -4.352635323007782 0.22784169392206025
-5.130861191000057 -5.468677085900851 0.4372930238913655
-4.570554531694489 -6.536105857318001 0.6800072840006591
-3.9150823437501647 -7.539072363382852 0.970140024968329
-3.157589658961777 -8.456624418302663 1.3141731208753116
-2.3003112356445503 -9.264486960567421 1.7169355548392786
-1.3558694209451734 -9.939843972647658 2.1819208176857074
-0.34471048968024093 -10.467268470694624 2.7095937443328264
0.7112679527522122 -10.840875004245804 3.293114883435092
1.795838382005283 -11.066016651479092 3.9146809224563857
2.900623616600325 -11.156176561125926 4.553914057015507
4.021824762065731 -11.127067152799604 5.194687793494166
5.155219165793508 -10.994207441456686 5.8293278624126135
6.291845293653223 -10.772397361266748 6.4603058972372525
7.418225437621563 -10.475301103753354 7.0975536439057905
8.52153208492577 -10.117337085023337 7.752318253767252
9.595845698799359 -9.716778445666046 8.431005728485902
10.644713301069908 -9.297129552512187 9.13286613323422
11.677736584177788 -8.886069404145292 9.85217026073972
12.704200343700524 -8.514435978081444 10.581898958686057
13.726702153617536 -8.216371459270276 11.317485808219102
14.736620574967601 -8.027380894697314 12.058999386453578
15.712709454531527 -7.978541493325162 12.810426802417656
16.62432228617584 -8.089383927133788 13.575989335021077
17.439477790129267 -8.364504186207363 14.3550853985897
18.13442920753248 -8.795680754534315 15.139665278181884
18.69874481774306 -9.367188213694405 15.917173695046158
19.13468297592055 -10.060290289605238 16.676144335274703
19.45391344213 -10.856529361632436 17.410162177022947
19.675478154159194 -11.738806968735462 18.11715807776805
19.824696864206622 -12.69037673259127 18.797358770836535
19.933797208986853 -13.691043241118896 19.453242090069715
20.043057742389706 -14.718108307667702 20.089822045156726
20.195687033066676 -15.750654993391198 20.711929369577618
LINES 1 76
75 0 1 2 3 4 5 6 7 8 9 10 11 12 13 14 15 16 17 18 19 20 21 22 23 24 25 26 27 28 29 30 31 32 33 34 35 36 37 38 39 40 41 42 43 44 45 46 47 48 49 50 51 52 53 54 55 56 57 58 59 60 61 62 63 64 65 66 67 68 69 70 71 72 73 74
POINT_DATA 75
SCALARS MaximumInscribedSphereRadius float
LOOKUP_TABLE default
1.2
1.2108108108108109
1.2216216216216216
1.2324324324324323
1.2432432432432432
1.2540540540540541
1.2648648648648648
1.2756756756756755
1.2864864864864864
1.2972972972972974
1.308108108108108
1.3189189189189188
1.3297297297297297
1.3405405405405406
1.3513513513513513
1.362162162162162
1.372972972972973
1.3837837837837839
1.3945945945945946
1.4054054054054053
1.4162162162162162
1.427027027027027
1.4378378378378378
1.4486486486486485
1.4594594594594594
1.4702702702702704
1.481081081081081
1.4918918918918918
1.5027027027027027
1.5135135135135136
1.5243243243243243
1.535135135135135
1.545945945945946
1.5567567567567568
1.5675675675675675
1.5783783783783782
1.5891891891891892
1.6
1.6108108108108108
1.6216216216216215
1.6324324324324324
1.6432432432432433
1.654054054054054
1.6648648648648647
1.6756756756756757
1.6864864864864866
1.6972972972972973
1.708108108108108
1.718918918918919
1.7297297297297298
1.7405405405405405
1.7513513513513512
1.7621621621621621
1.772972972972973
1.7837837837837838
1.7945945945945945
1.8054054054054054
1.8162162162162163
1.827027027027027
1.8378378378378377
1.8486486486486486
1.8594594594594596
1.8702702702702703
1.881081081081081
1.8918918918918919
1.9027027027027028
1.9135135135135135
1.9243243243243242
1.9351351351351351
1.945945945945946
1.9567567567567568
1.9675675675675675
1.9783783783783784
1.9891891891891893
2.0
SCALARS Curvature float
LOOKUP_TABLE default
0.0
0.0507259813377555
0.02584217605817855
0.026212100068794777
0.05800475759600112
0.11654262405493097
0.1927688242383293
0.23786976193939846
0.20229880730691616
0.1390521716094219
0.10775778799162114
0.1060417189523837
0.12135053025894946
0.12173954657774105
0.10336062354976477
0.08182943240840394
0.06644640436761545
0.08741869176249287
0.1721634848147801
0.3499115030277136
0.5636010292852631
0.5731911156378674
0.4024543216253654
0.25562898498960945
0.16942149527520603
0.11296141387506772
0.07066805834184263
0.02720182642838409
0.040904900182397924
0.10302542091940513
0.16340780246225253
0.2035339036769338
0.20803521657637694
0.18717189662521058
0.16039640680040584
0.13400622646013685
0.10782239951214494
0.08215041693992996
0.05746482996086608
0.038257923345843554
0.03725306443280681
0.04745097524049169
0.06578059780342822
0.08140483530069137
0.09286094182778286
0.10200262786682894
0.10792226391149641
0.10914962346991292
0.10538658783098592
0.09578489555716403
0.08323729367364661
0.07125642670738302
0.06037018378489503
0.05034508348601917
0.04274946007783084
0.03783413908300932
0.03197709356716696
0.02222251349451
0.013948137219806915
0.023165887388347246
0.04293954553869189
0.0668955393083979
0.0932318377416187
0.11900952211470868
0.14008191534460163
0.1520143674318797
0.15233765646135242
0.1413159655052498
0.12175481306558486
0.09716663000234378
0.0709809127802358
0.04398778525590265
0.02060083718424417
0.031123963383262742
0.0
SCALARS Torsion float
LOOKUP_TABLE default
0.0
0.0
0.5799990572577729
0.6014713300569176
0.21454071212015136
0.10104632710371923
0.07237718202718078
0.07352366012503307
0.12574809496830813
0.2638990971657979
0.32799835434200497
0.21422854626299975
-0.011238733104809773
0.015765038207837524
0.041237771047559636
0.08343782070463845
0.3438766159621316
0.3661416878671034
0.1544516283248743
0.033622122976675536
-0.005505990795927271
-0.013179209926863552
-0.043065420598577334
-0.05893986447805297
-0.049911008021351795
-0.06746118725733471
-0.13807765993150506
-0.7739037273805656
-0.5085709453272301
-0.12044950392660281
-0.06831795831247481
-0.055230087580284706
-0.05093743317129853
-0.03419219702961134
-0.022289967578252166
-0.02821509198504551
-0.022983182166255833
0.012626089039580811
0.12100270336245342
0.4240055109390303
0.46564155773452276
0.2785034531217355
0.15848767174218556
0.03902846596638314
0.011676441842597318
0.020549844640655113
0.0341464512703522
0.0406511282560115
0.022096431093985375
-0.03143831078137668
-0.0735424564103263
-0.08417416010785178
-0.04616068303838185
0.04986103132180743
0.1659507354253377
0.2183350799621348
0.22512151133783298
0.33576416484885946
0.7216994355604228
0.3633027034452905
0.09042311919646046
-0.009181292151536
-0.0552036530194731
-0.07474908455855796
-0.07149521172986166
-0.047573190438593246
-0.017026422057906117
0.004881483859182027
0.015751605438080782
0.0338199977933913
0.07813136080397541
0.2082610496818536
0.8063840901415018
0.4760949812681566
0.0
