# vtk DataFile Version 2.0
Vessel Segment
ASCII
DATASET POLYDATA
POINTS 75 float
-5.141950946635926 21.418838396061197 -3.2563042361355232
-5.788127712435006 20.158140639992013 -3.2735765351966544
-6.443619365115868 18.877151425729483 -3.124517545456471
-7.098480159350626 17.617431257932957 -2.8917311910177665
-7.745631374276296 16.41073314484042 -2.660447264851121
-8.375274179673236 15.280352234444264 -2.5229053339534313
-8.972360085521458 14.240559260060943 -2.5724577986797095
-9.515138532082089 13.295101514686023 -2.894164592240891
-9.967733316891913 12.458023272247981 -3.54783130874042
-10.304874244348085 11.71861672808795 -4.476658709309682
-10.514799111435034 11.017579711904357 -5.5771765640832305
-10.573151828341661 10.320066464243713 -6.7578394994484645
-10.457056648148162 9.621388795634493 -7.946176112014206
-10.134402110895392 8.953692286450135 -9.120989521404097
-9.611741328735956 8.346247164905062 -10.252041066923098
-8.913284250657563 7.7958316032873745 -11.348008355521072
-8.064204986232893 7.292173706343879 -12.426615207811693
-7.1037637816678245 6.804366657186853 -13.4883216104763
-6.082529168359836 6.283225894881954 -14.501381615308821
-5.0628021264697995 5.674174890120172 -15.390239147530687
-4.124363217204851 4.944065911138748 -16.03014146760874
-3.3860705258940555 4.122540961772456 -16.2883746309867
-2.924898517933911 3.3209676390477267 -16.157272090952326
-2.7375742657652324 2.633452974674946 -15.691057642163168
-2.8244747094879563 2.141242817745261 -14.941945065157222
-3.1736429792446934 1.9091534820060194 -13.985398773028042
-3.7463238766449147 1.965818359574801 -12.900752431910535
-4.483386652087538 2.3123153336469566 -11.763761467940224
-5.295372426555966 2.8914878840487654 -10.640278919894168
-6.093677868299946 3.6087170585769455 -9.533156084150155
-6.807144221865249 4.367003184765723 -8.408878072654169
-7.379067049654762 5.070926196513548 -7.232928421013775
-7.770766810103008 5.628568601107012 -5.995178482822181
-7.964376408395301 5.966005093424527 -4.71561697699786
-7.9536229795233035 6.032286883642932 -3.4389740520243617
-7.751876685806737 5.807131758304667 -2.2342916104250894
-7.409112686258824 5.3137747810680755 -1.1743220289990153
-6.990183152635892 4.597912827008576 -0.311668471556682
-6.551521826212254 3.703723612338303 0.3190447334208951
-6.132458370315713 2.668914059400296 0.7054759405061215
-5.748641081492467 1.5231420795393238 0.8626367576125952
-5.402378660783147 0.2875026105988627 0.810730679276386
-5.121632304937126 -1.025652400216342 0.6191604493211714
-4.879649532434885 -2.4132398304113982 0.43411347101860925
-4.632080975995989 -3.856945000945967 0.3484209547537711
-4.339210715685994 -5.326590416906935 0.41292351384194653
-3.963918939151223 -6.784237480087809 0.6463694363786332
-3.4771324731519884 -8.18800929443765 1.0422241668157586
-2.862589805990975 -9.495833026106148 1.5825163798881845
-2.116384103591011 -10.658701038644885 2.234346523607542
-1.2363030568296043 -11.64168180276272 2.9346852291693697
-0.22437059924605385 -12.433152456375609 3.6361225583990167
0.9042821219929454 -13.0253961635556 4.321812983959185
2.120670971902324 -13.411145796674907 4.995383246250806
3.38709641606352 -13.587526786224272 5.6696896487546224
4.666133938966166 -13.561683785459717 6.357518491292993
5.9308345950604995 -13.35549060239657 7.0644647207739295
7.169924386634662 -13.00404100288771 7.786786585283636
8.385895035783681 -12.546130283538066 8.515873698489706
9.58876837115998 -12.013605135418647 9.244900517769812
10.790471847477736 -11.427800174186126 9.974013635445049
12.002481054657759 -10.80663184202607 10.711789418503765
13.234520716340704 -10.173928918424059 11.473598549472982
14.491850990051917 -9.563550534647998 12.276994858381691
15.771231605619883 -9.016857305570783 13.13469784860078
17.058199386959405 -8.577297491316209 14.047142762998542
18.326174361546354 -8.286035453028397 15.000030739621394
19.536392721604898 -8.178730627815746 15.969519760487707
20.640196803886106 -8.282789418355636 16.930731262964127
21.589343996175145 -8.614688026942453 17.863058325538493
22.351366661096247 -9.177181135445931 18.750929744354828
22.917293808464862 -9.955452103150824 19.5833824977663
23.3021936203411 -10.909599745629055 20.35804871362742
23.540587666012684 -11.984277281823672 21.083182493363616
23.66922165865664 -13.11646679757179 21.771058608676334
LINES 1 76
75 0 1 2 3 4 5 6 7 8 9 10 11 12 13 14 15 16 17 18 19 20 21 22 23 24 25 26 27 28 29 30 31 32 33 34 35 36 37 38 39 40 41 42 43 44 45 46 47 48 49 50 51 52 53 54 55 56 57 58 59 60 61 62 63 64 65 66 67 68 69 70 71 72 73 74
POINT_DATA 75
SCALARS MaximumInscribedSphereRadius float
LOOKUP_TABLE default
1.2
1.2108108108108109
1.2216216216216216
1.2324324324324323
1.2432432432432432
1.2540540540540541
1.2648648648648648
1.2756756756756755
1.2864864864864864
1.2972972972972974
1.308108108108108
1.3189189189189188
1.3297297297297297
1.3405405405405406
1.3513513513513513
1.362162162162162
1.372972972972973
1.3837837837837839
1.3945945945945946
1.4054054054054053
1.4162162162162162
1.427027027027027
1.4378378378378378
1.4486486486486485
1.4594594594594594
1.4702702702702704
1.481081081081081
1.4918918918918918
1.5027027027027027
1.5135135135135136
1.5243243243243243
1.535135135135135
1.545945945945946
1.5567567567567568
1.5675675675675675
1.5783783783783782
1.5891891891891892
1.6
1.6108108108108108
1.6216216216216215
1.6324324324324324
1.6432432432432433
1.654054054054054
1.6648648648648647
1.6756756756756757
1.6864864864864866
1.6972972972972973
1.708108108108108
1.718918918918919
1.7297297297297298
1.7405405405405405
1.7513513513513512
1.7621621621621621
1.772972972972973
1.7837837837837838
1.7945945945945945
1.8054054054054054
1.8162162162162163
1.827027027027027
1.8378378378378377
1.8486486486486486
1.8594594594594596
1.8702702702702703
1.881081081081081
1.8918918918918919
1.9027027027027028
1.9135135135135135
1.9243243243243242
1.9351351351351351
1.945945945945946
1.9567567567567568
1.9675675675675675
1.9783783783783784
1.9891891891891893
2.0
SCALARS Curvature float
LOOKUP_TABLE default
0.0
0.07779958200667386
0.04163067029970816
0.010125977155665856
0.05194084484730689
0.13225860292400504
0.22211413662863833
0.2588167184385862
0.18898895460833906
0.10916223445667282
0.08493171823569289
0.09028248588303796
0.1074451668239086
0.11040467807273156
0.09227830085724299
0.06886474869928513
0.043795412031154196
0.03517347286189605
0.06669066412257312
0.14547512795214348
0.3110186453666689
0.4902017050182433
0.548134968510609
0.4679247439086439
0.32031135253191795
0.20318973187383071
0.1375956813980679
0.09424161631602543
0.05551319545518108
0.040680781127965485
0.07028891639681085
0.1167534899798965
0.1639093754504454
0.2046248756078622
0.22646442968876657
0.22195480846533924
0.21080115285092513
0.2075116928629323
0.19809607449160502
0.16623014159431898
0.12931419221686052
0.08261834947490157
0.026343520017462624
0.047595874401498664
0.06821398696771308
0.07962664530222799
0.08536388210715005
0.0898583445695016
0.09625620187105799
0.10218936918069646
0.10796262315399008
0.11003097198782012
0.10731524883612209
0.10227070256122674
0.09544088641346234
0.08410547556589361
0.06724567642975941
0.04852164971981575
0.0327317712152738
0.02136575384558874
0.011309965639457766
0.0039994217619230285
0.016520130718003463
0.031069701673375246
0.04482411622510063
0.05909223498380286
0.07751284399120781
0.10460296586128333
0.14130426792749182
0.17473791383282106
0.18122297602986126
0.15288586981662364
0.10945498430479897
0.0721174907524799
0.0
SCALARS Torsion float
LOOKUP_TABLE default
0.0
0.0
0.1465474321079325
0.9931019188486165
0.16788780569070905
0.06172047893460755
0.05108099522056482
0.04808573546689693
0.09679432645214175
0.3132298969153796
0.34657503662317657
0.17034923744809957
-0.046907618807278395
-0.03368025025808322
-0.022619153427849384
-0.02747015841600572
0.16323424198454223
0.48395285062347987
0.19872072993739293
0.03937321773598637
0.011227340383678085
-0.0075979885803680175
-0.06769775413361642
-0.048393897272859046
-0.025645214020488118
-0.03149211734539986
-0.04668524757003862
-0.08800380700116213
-0.3345299672050445
-0.6309786743472753
-0.2814435207839262
-0.13466206431019426
-0.08644193010369326
-0.0551807733857257
-0.04500651850979433
-0.06903925805354574
-0.09481219017327441
-0.0913989524178519
-0.06857851006819762
-0.03453138515750903
-0.0076910263881062695
-0.2641374645277328
-0.9597714749724762
-0.3226345010983953
-0.1298464106222246
-0.10752920140766842
-0.10199927519885145
-0.08030360602525427
-0.07867360343671191
-0.14344706207097074
-0.11034642490314593
-0.020244745173667866
0.05213232746387113
0.09279408474971383
0.0991089885295182
0.07679689394527109
0.03682446965249948
-0.016220085599249458
-0.07271898466453608
-0.0758758745441841
0.07172394180996788
0.9373123289924152
0.11359755982983044
0.03412281735492699
0.024132064296669465
0.022680435862828415
0.010471848365543933
-0.011767723131291529
-0.024318907676440644
-0.018224274676755647
-0.006600072129238351
-0.011582185178366311
-0.03010930798061911
-0.10534759929271612
0.0
