# vtk DataFile Version 2.0
Vessel Segment
ASCII
DATASET POLYDATA
POINTS 75 float
-4.434842988049945 21.436512304539455 -6.656837777034717
-5.071484126154455 20.367952802795877 -6.884939927422928
-5.767543313505372 19.251919391986252 -6.8501700757478385
-6.522523252284939 18.139730264784724 -6.648210456794936
-7.33453402234374 17.07616435986977 -6.380570152859913
-8.189350572574382 16.094919935881578 -6.155270759820915
-9.050853924376193 15.211399141563803 -6.074088672178057
-9.864054694655463 14.415894506223527 -6.212534789709797
-10.564066463126714 13.684618417099088 -6.612233069365908
-11.088684284618747 12.98450365039783 -7.250223438616563
-11.397386981700398 12.278055944653843 -8.06419214963803
-11.475721975094972 11.545570987374168 -8.983979272540806
-11.329078622519253 10.788439455904795 -9.943485419407853
-10.954167017202249 10.051999709253757 -10.922616878534207
-10.3930934448104 9.374808128211546 -11.853006138677468
-9.702390039724564 8.75978592559552 -12.67883604627045
-8.943193780680074 8.21423947534183 -13.362418560928859
-8.172793243493286 7.729317883761576 -13.876203747574275
-7.437083502826424 7.30069481425277 -14.192780301041005
-6.769143484747026 6.927026004664732 -14.29808732746739
-6.195018745443507 6.593172540147836 -14.179994098116117
-5.765914464580641 6.292187230362705 -13.821190634736697
-5.501577744249712 6.035835121402006 -13.26989614387059
-5.361001065379682 5.813028132644673 -12.592440688015174
-5.307759107732278 5.61387137630861 -11.80873449217835
-5.329401317155666 5.4403225945479035 -10.929704121054252
-5.422988385857581 5.29302418142442 -9.965659201498129
-5.592194722742992 5.171366941161114 -8.940390584651102
-5.8228299919566355 5.041637503540007 -7.901979398697992
-6.09162742210813 4.854761562856907 -6.8813783282156615
-6.374208989440914 4.579893897363154 -5.899967719895611
-6.645904758063728 4.2122370052113585 -4.972703685219438
-6.881319533402102 3.764720993254933 -4.100731707540866
-7.051189761901768 3.243723623047239 -3.273313703706842
-7.132223030236895 2.639950285071261 -2.4906650629412512
-7.123053752581176 1.9430089426143178 -1.7731926520640624
-7.041729503493407 1.1501641276179786 -1.1498653613174235
-6.902135911522433 0.2634315405128529 -0.6490993438493267
-6.702261769763575 -0.7063369537533063 -0.2895550376173468
-6.4306683853910505 -1.7369226981184671 -0.06513423530813736
-6.0760481573625915 -2.800938375196509 0.05499962528194373
-5.63572921900952 -3.8695783063595472 0.10884350858239514
-5.12774703377458 -4.91644605054577 0.1524387069363093
-4.552600974362137 -5.919209268962876 0.2656325033343855
-3.906077223449131 -6.852653799920721 0.490849495155598
-3.1885871792396228 -7.697704188460923 0.8378484650189638
-2.4037922104489153 -8.443539182570705 1.298746912394113
-1.557228129760063 -9.08275132445663 1.856969638344415
-0.6547080189010064 -9.609081870963777 2.493286441665605
0.29926094206057047 -10.014251369199885 3.1838964990818193
1.3035373899485052 -10.29698214225826 3.8938664924157798
2.3560773071446492 -10.467475225731263 4.596999533085314
3.450444266147672 -10.538300500539169 5.284564097121358
4.577267451355881 -10.518960123106355 5.961493414949122
5.726257607302941 -10.415413143441597 6.63802968958531
6.887622833380353 -10.23337746467606 7.322266659069988
8.052748147488348 -9.983781035415419 8.01653356563053
9.214227914402304 -9.686395521974221 8.719098184287313
10.366324379133145 -9.370874025633723 9.428199652720025
11.505441068937962 -9.073691822949014 10.143366111648163
12.628264230250265 -8.833151252629127 10.864164008852683
13.727869182446506 -8.683363394984047 11.588845044461332
14.790898558687473 -8.648414384288541 12.31405968795792
15.798064855047542 -8.740186609166987 13.03609537385396
16.726567864081794 -8.95986655670743 13.75269051960203
17.553959466928692 -9.301683214293726 14.463353607543509
18.263233559158735 -9.756580501818013 15.168764871972764
18.846697274507346 -10.314297192010827 15.870936289374301
19.309330026557873 -10.96351738191315 16.573132766992714
19.667737217709206 -11.692133328813842 17.27929075582276
19.942988765555796 -12.490545244965814 17.99189278926281
20.14781735628055 -13.352313312971583 18.70946175042857
20.288081067516234 -14.261976959287137 19.430595285441125
20.37721372241515 -15.199380016060845 20.160208343221633
20.431583789354534 -16.147816959100425 20.904860871029722
LINES 1 76
75 0 1 2 3 4 5 6 7 8 9 10 11 12 13 14 15 16 17 18 19 20 21 22 23 24 25 26 27 28 29 30 31 32 33 34 35 36 37 38 39 40 41 42 43 44 45 46 47 48 49 50 51 52 53 54 55 56 57 58 59 60 61 62 63 64 65 66 67 68 69 70 71 72 73 74
POINT_DATA 75
SCALARS MaximumInscribedSphereRadius float
LOOKUP_TABLE default
1.2
1.2108108108108109
1.2216216216216216
1.2324324324324323
1.2432432432432432
1.2540540540540541
1.2648648648648648
1.2756756756756755
1.2864864864864864
1.2972972972972974
1.308108108108108
1.3189189189189188
1.3297297297297297
1.3405405405405406
1.3513513513513513
1.362162162162162
1.372972972972973
1.3837837837837839
1.3945945945945946
1.4054054054054053
1.4162162162162162
1.427027027027027
1.4378378378378378
1.4486486486486485
1.4594594594594594
1.4702702702702704
1.481081081081081
1.4918918918918918
1.5027027027027027
1.5135135135135136
1.5243243243243243
1.535135135135135
1.545945945945946
1.5567567567567568
1.5675675675675675
1.5783783783783782
1.5891891891891892
1.6
1.6108108108108108
1.6216216216216215
1.6324324324324324
1.6432432432432433
1.654054054054054
1.6648648648648647
1.6756756756756757
1.6864864864864866
1.6972972972972973
1.708108108108108
1.718918918918919
1.7297297297297298
1.7405405405405405
1.7513513513513512
1.7621621621621621
1.772972972972973
1.7837837837837838
1.7945945945945945
1.8054054054054054
1.8162162162162163
1.827027027027027
1.8378378378378377
1.8486486486486486
1.8594594594594596
1.8702702702702703
1.881081081081081
1.8918918918918919
1.9027027027027028
1.9135135135135135
1.9243243243243242
1.9351351351351351
1.945945945945946
1.9567567567567568
1.9675675675675675
1.9783783783783784
1.9891891891891893
2.0
SCALARS Curvature float
LOOKUP_TABLE default
0.0
0.15025292699643392
0.0910755810969348
0.05324918712077129
0.05356643703823319
0.10259975467827344
0.17444795667373375
0.2409872786886283
0.24677431906609884
0.2108631042557844
0.17167587534311313
0.14281146665347913
0.13272004109372934
0.12190625430589577
0.1136706719328397
0.11640296231821626
0.13478651213605716
0.2001809734670848
0.3202860119456742
0.48003954897223583
0.6037722630625393
0.5068340142642586
0.2928629386827241
0.1594773664250826
0.10515848699844113
0.0777817891308548
0.06659320911575861
0.049877891112636775
0.06167392299596309
0.08633210711167684
0.09922100479037356
0.09963543649748359
0.10884839639359482
0.1305768469978987
0.142822617841181
0.1462441433596509
0.15252370984384336
0.1520053286253978
0.13207660090547024
0.10128695384347253
0.07681594566714257
0.05244597802680022
0.07861656644626888
0.11126527694980949
0.12212604786763798
0.1173340837338499
0.10656756639840673
0.09621700895667411
0.08948124868642425
0.0825086971525004
0.07376109523659999
0.06380153549274303
0.054026625506632425
0.046539043825424134
0.04096614487322085
0.03430889190574845
0.024485212271084817
0.011108971036618568
0.01065033050602768
0.030198796847944964
0.05099623532033537
0.06983135245550821
0.08609778248867299
0.10118996396474887
0.11691944623362678
0.13195439662387196
0.1402693427019473
0.13346510971821815
0.11118147410095178
0.08443753207265871
0.06665904209852987
0.05404048551885655
0.03804741502942124
0.024627008456229667
0.0
SCALARS Torsion float
LOOKUP_TABLE default
0.0
0.0
0.22998522229999924
0.5638851263121845
0.6142895642462118
0.2957609169836156
0.20428811943221878
0.17650131432151145
0.21075493405515466
0.24834241939722151
0.20918498330216806
0.1475280041270979
-0.07785868259003689
0.03369719079430669
0.14791651661263003
0.12380317590375
0.22840506981933875
0.18662065707676795
0.1172519155045418
0.1566863436415267
0.15092692659525858
0.04757911873077761
0.04153542872204779
-0.05337479584269914
-0.08001148744261385
-0.0029884496434155056
0.08328676809453826
0.5688204553885232
0.519231432331629
0.24986243064624275
0.1797640217166393
0.24285350747154733
0.2779283761089536
0.09191989829978803
-0.08623588406224057
-0.17019898358577776
-0.11305488843638133
0.0029887363450800397
0.11060809081305012
0.22832035243707133
0.3106148553371734
0.5874871018692772
0.4142191309162536
0.09296938288388346
0.0016776486404898733
-0.03151024085370462
-0.05390094142824132
-0.06676367577823601
-0.09640678193888763
-0.16733329070521338
-0.149513820737955
-0.058276730422712544
0.04958935672290783
0.11725599276130366
0.11550606527908809
0.08161923153997969
0.08627273839520135
0.4595784328184506
0.6064790320691401
0.10165646301250242
0.03033299805172089
-0.002493458719377048
-0.03048032084280644
-0.05868012490193245
-0.0750659225100549
-0.07108566091389036
-0.05742044613828795
-0.03990648415119169
-0.02253352205520001
0.010822897495676893
0.030787076292945158
-0.060431695628120376
-0.20242120059200228
-0.38661466565215225
0.0
