# vtk DataFile Version 2.0
Vessel Segment
ASCII
DATASET POLYDATA
POINTS 75 float
-4.650301928168422 20.97872670502 -6.555073222433668
-5.136256915033523 19.936639178682974 -6.439958410759313
-5.73136188353792 18.894022760605296 -6.2370306966163245
-6.3990312112327645 17.876423184103807 -6.001807615805546
-7.104309131791171 16.907613151307547 -5.793059615624965
-7.811423333631008 16.00570710463578 -5.675639688184604
-8.48284412933588 15.180170114158352 -5.713194658238743
-9.082349412261767 14.4289191327352 -5.952048144031186
-9.583456358427947 13.734165027164963 -6.402328052360466
-9.972330579435562 13.068374549901923 -7.049846729334422
-10.237515205995415 12.408657508466325 -7.853908541284526
-10.362180995188128 11.742508225621147 -8.758674271397847
-10.334440867560174 11.072883039292241 -9.706367715579464
-10.149090970584053 10.410271875384707 -10.65974280234791
-9.817608613874404 9.760920954319406 -11.58676610963977
-9.36798466390211 9.116878637381118 -12.464894283819861
-8.838100734759443 8.467156133752086 -13.25958345607855
-8.282772032071483 7.806201003271008 -13.92122899688757
-7.762440544515912 7.136641250187176 -14.39864798618895
-7.327633247123179 6.474678534562429 -14.64576066452305
-7.010389193385446 5.857477926776399 -14.628875729909373
-6.815961734611496 5.343061769108215 -14.354159732843243
-6.720779857615966 4.965424477243931 -13.864390536175147
-6.713154190651174 4.73691932371961 -13.193919901703238
-6.78699154434081 4.662038354374768 -12.3823737721657
-6.928655681226498 4.727967204765908 -11.470559850614443
-7.11556448929867 4.898903175795594 -10.494293924726563
-7.316656010225361 5.120441754363587 -9.483244390298363
-7.493481820363138 5.322689520601533 -8.460972207981033
-7.6105486105250915 5.438311449507034 -7.438263502950892
-7.642871345245092 5.41677177385925 -6.424673153463454
-7.579131277861683 5.227425521033192 -5.437138039738374
-7.423372500755518 4.859286212222354 -4.501445489949944
-7.1917985612827415 4.319408198025538 -3.6445149885335235
-6.906611085621037 3.6270537209899376 -2.8887372835765794
-6.594596596148964 2.8110036775381673 -2.244133653475961
-6.276695709704697 1.898366883929496 -1.7056108301763977
-5.96504465787013 0.9116130629525204 -1.2624285037230554
-5.663108486388115 -0.1284324336386614 -0.8991689885013262
-5.365398847025823 -1.2025810365643066 -0.5945766728695365
-5.059955848292137 -2.293658908648589 -0.3198389802620331
-4.7298375365732115 -3.388205152442117 -0.03509797537695637
-4.3476573306372925 -4.4753348347607576 0.29093310302451425
-3.9020606766619337 -5.540969492407299 0.6645586439194774
-3.3871449194003618 -6.568731190841213 1.0919103278492168
-2.7954193645502747 -7.538991264836863 1.571989887005548
-2.120925481317918 -8.427726220796998 2.099620853377385
-1.3619927448048106 -9.208984611287223 2.667886113729962
-0.5218466219624419 -9.861869634069231 3.2668658511347104
0.3931126266271965 -10.379583079208375 3.885449475950377
1.3738721911938145 -10.764683784734736 4.517546222569037
2.410996740808092 -11.021848553287224 5.153896429313691
3.4942183841199657 -11.157202000337305 5.784292217225241
4.6095360313817215 -11.175709392200403 6.404292657232136
5.738942235848032 -11.082800991604826 7.0164939236637425
6.864628386992627 -10.889076433456278 7.6271909780078575
7.97422326657812 -10.614578787058365 8.242656635471395
9.063358778245972 -10.288229965865629 8.867491019230721
10.134769885510389 -9.942382856967992 9.504372073418747
11.1950543346759 -9.607545967492685 10.154670897880191
12.251465428473468 -9.309734493029755 10.818874476359731
13.308611059606148 -9.071435598200113 11.496501644734169
14.364971084397418 -8.913549210579133 12.186684770645611
15.410034151598433 -8.855702698735637 12.888904511104448
16.42334414062202 -8.915130566255847 13.602882048506082
17.37637560401826 -9.105543727222113 14.326909827921531
18.237146574753975 -9.43696321258422 15.056467641819536
18.975955840744657 -9.91499806764243 15.78492017877396
19.57117196949117 -10.538388197583823 16.505603837911337
20.01417896942292 -11.296968532235901 17.213754207540063
20.311892112828424 -12.17094686244173 17.906253459785027
20.484299727525688 -13.130650107580294 18.58069057362195
20.563545562680776 -14.133098273569972 19.236704856781667
20.596784606348972 -15.128006581788712 19.878010780633453
20.63859578828393 -16.07147935540371 20.508699644009358
LINES 1 76
75 0 1 2 3 4 5 6 7 8 9 10 11 12 13 14 15 16 17 18 19 20 21 22 23 24 25 26 27 28 29 30 31 32 33 34 35 36 37 38 39 40 41 42 43 44 45 46 47 48 49 50 51 52 53 54 55 56 57 58 59 60 61 62 63 64 65 66 67 68 69 70 71 72 73 74
POINT_DATA 75
SCALARS MaximumInscribedSphereRadius float
LOOKUP_TABLE default
1.2
1.2108108108108109
1.2216216216216216
1.2324324324324323
1.2432432432432432
1.2540540540540541
1.2648648648648648
1.2756756756756755
1.2864864864864864
1.2972972972972974
1.308108108108108
1.3189189189189188
1.3297297297297297
1.3405405405405406
1.3513513513513513
1.362162162162162
1.372972972972973
1.3837837837837839
1.3945945945945946
1.4054054054054053
1.4162162162162162
1.427027027027027
1.4378378378378378
1.4486486486486485
1.4594594594594594
1.4702702702702704
1.481081081081081
1.4918918918918918
1.5027027027027027
1.5135135135135136
1.5243243243243243
1.535135135135135
1.545945945945946
1.5567567567567568
1.5675675675675675
1.5783783783783782
1.5891891891891892
1.6
1.6108108108108108
1.6216216216216215
1.6324324324324324
1.6432432432432433
1.654054054054054
1.6648648648648647
1.6756756756756757
1.6864864864864866
1.6972972972972973
1.708108108108108
1.718918918918919
1.7297297297297298
1.7405405405405405
1.7513513513513512
1.7621621621621621
1.772972972972973
1.7837837837837838
1.7945945945945945
1.8054054054054054
1.8162162162162163
1.827027027027027
1.8378378378378377
1.8486486486486486
1.8594594594594596
1.8702702702702703
1.881081081081081
1.8918918918918919
1.9027027027027028
1.9135135135135135
1.9243243243243242
1.9351351351351351
1.945945945945946
1.9567567567567568
1.9675675675675675
1.9783783783783784
1.9891891891891893
2.0
SCALARS Curvature float
LOOKUP_TABLE default
0.0
0.08227170668199993
0.05171226575209172
0.0428756102960861
0.07195888246881164
0.13940939026061422
0.22099906528141522
0.250645648373273
0.21323285850123855
0.15628594005847157
0.12354449510322497
0.11311685200489145
0.11222952376066554
0.10636604725881833
0.09184105687192691
0.0856690929709496
0.10226353278924397
0.16410477732771525
0.3023101750402565
0.5221843833999652
0.6655914296182011
0.5881332589855167
0.4096117314534214
0.2624875111754664
0.1648055157328
0.09493848806269722
0.03805504817399654
0.029369945726336492
0.09663769646869436
0.1554458952271267
0.18950791611718434
0.19575475903690087
0.18263187106650786
0.162903465284843
0.1389455314473667
0.11426719194669244
0.09297340709036948
0.07217642355054729
0.04960089627566737
0.024620238272760518
0.017097725022193876
0.0442019754791987
0.05417045555324747
0.06252602606446711
0.07136749310258308
0.08210527320449973
0.09418126467359736
0.10356756304016843
0.10412965260790658
0.09743696600151956
0.08899125399343012
0.08052098303602878
0.07338671878741136
0.06700714924491238
0.05970272858026909
0.048799138227315596
0.033568828731283674
0.017185535235287847
0.01201616332867671
0.02397919911805941
0.03727570349215088
0.05023101955950602
0.06357523018659421
0.07860589498555397
0.09707760026106496
0.12004493046136182
0.1444546051702792
0.1605810829221332
0.1578248616890213
0.13560033892508339
0.10442781568019899
0.07085080845373709
0.03303022179903461
0.017296408916892294
0.0
SCALARS Torsion float
LOOKUP_TABLE default
0.0
0.0
0.3654207075409457
0.5936637388279704
0.36634736979913035
0.18262562881963396
0.12460598838835474
0.12611234422942566
0.14407828208322976
0.20060093956912034
0.24505590599315416
0.18080044399209363
0.07222099473544681
0.07597477673897546
0.15392226758979605
0.2835099008379253
0.34414733535974423
0.25478005976836965
0.121313697617734
0.002450421339074013
-0.10754581343195356
-0.17365182749077823
-0.07282394792589815
-0.017651939242030318
-0.024137056475135296
-0.051302909044016944
-0.3560015015377057
-0.6772481578638766
-0.08654775914760393
-0.03390340921894837
-0.029954588801517166
-0.04450964401631713
-0.05861577326732426
-0.06714702779457661
-0.09035290868630873
-0.09270230683133351
-0.07049573966452942
-0.028400517814574734
0.0682565375790943
0.44702732160446174
0.8231482785091309
0.09962566153359054
-0.015475166372930574
0.01252410625116651
-0.03256380950513866
-0.0373783965739958
-0.023813225838466717
-0.02250566667390056
-0.028116766623212896
-0.00658880575273485
-0.02482572373098503
-0.032437458429238016
0.011727242844227805
0.07136588340474656
0.10785716268203759
0.13004442855717668
0.19881550471973863
0.538286913861073
0.7978780712637935
0.2441306469016743
0.08865136728400103
0.025697972184609008
-0.01779631150999145
-0.04712285874477455
-0.056124657499273985
-0.04730893447810225
-0.033762499338430334
-0.025051883242362176
-0.02124027651209741
-0.01702091220386568
-0.01925788379450736
-0.06843252894212948
-0.3691073807126821
-0.8939768662400832
0.0
