# vtk DataFile Version 2.0
Vessel Segment
ASCII
DATASET POLYDATA
POINTS 75 float
-4.816373225352032 19.648785632310318 -4.471214802721089
-5.263636310323099 18.648732884634697 -4.496107451682031
-5.855973797290067 17.624534202777465 -4.477995272050336
-6.546987679738091 16.61207067463204 -4.462891990367084
-7.290570256614749 15.644738974453578 -4.499794472955513
-8.040928598476526 14.75412449333978 -4.640905545486976
-8.753881732613833 13.965094797006849 -4.938435598428036
-9.390559725352949 13.289306005896192 -5.437598646119655
-9.91872004020906 12.733704584607361 -6.1631511733125235
-10.328250889826135 12.276925010471738 -7.070560248713261
-10.616275067833605 11.867631679139366 -8.099495401588173
-10.75744870317038 11.47970814046814 -9.199447396625736
-10.721764677616859 11.107270258024474 -10.321276567272381
-10.493923731690902 10.744878774023752 -11.427863519736315
-10.074637635931888 10.379942817840066 -12.499964747127876
-9.487829064357742 9.990643067041596 -13.52099863950277
-8.780027826748942 9.552578170056075 -14.46158581363568
-8.016810372264427 9.052474428501109 -15.27183821567162
-7.270433619505698 8.492414288221225 -15.886463909090844
-6.60782105535098 7.89070441730659 -16.232666727363874
-6.086774078129034 7.281445610286837 -16.240206563129238
-5.76532076666797 6.718187711609431 -15.871665334929759
-5.6530415627994905 6.265698838808956 -15.188863165254215
-5.7034162529932 5.944599642075046 -14.287374411721267
-5.879082583158011 5.742609154580013 -13.244077639176801
-6.155787764709689 5.63098549166148 -12.126032374592192
-6.511018991776382 5.573629490230887 -10.984180238526458
-6.918459767688474 5.532950867203696 -9.847743368896248
-7.345275359549527 5.4707433652136 -8.725125195350836
-7.753356128635581 5.347426055534603 -7.613424041731883
-8.103658503045034 5.126973571666759 -6.510343457809408
-8.360845307358707 4.782880340399941 -5.424519938933127
-8.500847168725663 4.302729567496146 -4.376927390657058
-8.512873382698036 3.6914841152877056 -3.3895920924902514
-8.394564418048233 2.963623848823393 -2.47988801350795
-8.159471056439875 2.1389244862540417 -1.6607333167070015
-7.840605653461494 1.2401325156909546 -0.9335175093191462
-7.469560375466596 0.28532789026769323 -0.2875231818120408
-7.0585246647478455 -0.7109958421213415 0.28857256874242915
-6.597897825426314 -1.7313394780803062 0.7999891393115391
-6.06468399262482 -2.7553281324715355 1.2432991249479475
-5.441121351924645 -3.7633232572098665 1.5966434455535123
-4.742421913733945 -4.741323420227018 1.8551575712771113
-3.969267596620542 -5.681891652032565 2.060840582037827
-3.123830040910017 -6.571326500206674 2.2379133404177964
-2.217529614238026 -7.3977038842353755 2.4062061872711884
-1.265343533207725 -8.156425381885144 2.5901693153703027
-0.28326626142772904 -8.849551935945309 2.817555215075053
0.7154647556045542 -9.480134575445698 3.1161284038994146
1.723064261509434 -10.038426932557053 3.501322550885005
2.7411563708065834 -10.507112152614601 3.9601067527938625
3.7740303766669534 -10.868709362957926 4.473999879318478
4.820944867154018 -11.101670198750258 5.029693201039787
5.875353852414643 -11.187595024565047 5.618590002706269
6.92616823457863 -11.121765073257786 6.237309696014451
7.9604136043481635 -10.92099204007068 6.888051006630357
8.968077208278869 -10.622929913272303 7.575256112204302
9.945834561327477 -10.277463872166283 8.30046446935648
10.896891518414257 -9.93365973078106 9.059058673642735
11.827221519021156 -9.629078008873844 9.840353664848703
12.740305042275581 -9.385698607978746 10.63068414906213
13.633490630650021 -9.213674345189359 11.417398840654087
14.496651479334028 -9.118266847361575 12.192130276613142
15.314237566491801 -9.105495659464433 12.951836339464542
16.070447231492988 -9.182599954163924 13.697292362397036
16.7556121802824 -9.354798302110805 14.429786381279657
17.371175656487193 -9.62406509110673 15.14890334600599
17.92858519199963 -9.991904307111026 15.852397732400673
18.443725137993344 -10.463100548490733 16.536829357834122
18.930239118945973 -11.044479274706218 17.19888363966529
19.3947381445089 -11.739912343077595 17.836237492547674
19.833866206200476 -12.542043604594074 18.448811505206326
20.24110155221809 -13.421154654752588 19.04360891806728
20.617014181325008 -14.33294726453983 19.63768579896228
20.96488947615038 -15.227728689468297 20.252826330491853
LINES 1 76
75 0 1 2 3 4 5 6 7 8 9 10 11 12 13 14 15 16 17 18 19 20 21 22 23 24 25 26 27 28 29 30 31 32 33 34 35 36 37 38 39 40 41 42 43 44 45 46 47 48 49 50 51 52 53 54 55 56 57 58 59 60 61 62 63 64 65 66 67 68 69 70 71 72 73 74
POINT_DATA 75
SCALARS MaximumInscribedSphereRadius float
LOOKUP_TABLE default
1.2
1.2108108108108109
1.2216216216216216
1.2324324324324323
1.2432432432432432
1.2540540540540541
1.2648648648648648
1.2756756756756755
1.2864864864864864
1.2972972972972974
1.308108108108108
1.3189189189189188
1.3297297297297297
1.3405405405405406
1.3513513513513513
1.362162162162162
1.372972972972973
1.3837837837837839
1.3945945945945946
1.4054054054054053
1.4162162162162162
1.427027027027027
1.4378378378378378
1.4486486486486485
1.4594594594594594
1.4702702702702704
1.481081081081081
1.4918918918918918
1.5027027027027027
1.5135135135135136
1.5243243243243243
1.535135135135135
1.545945945945946
1.5567567567567568
1.5675675675675675
1.5783783783783782
1.5891891891891892
1.6
1.6108108108108108
1.6216216216216215
1.6324324324324324
1.6432432432432433
1.654054054054054
1.6648648648648647
1.6756756756756757
1.6864864864864866
1.6972972972972973
1.708108108108108
1.718918918918919
1.7297297297297298
1.7405405405405405
1.7513513513513512
1.7621621621621621
1.772972972972973
1.7837837837837838
1.7945945945945945
1.8054054054054054
1.8162162162162163
1.827027027027027
1.8378378378378377
1.8486486486486486
1.8594594594594596
1.8702702702702703
1.881081081081081
1.8918918918918919
1.9027027027027028
1.9135135135135135
1.9243243243243242
1.9351351351351351
1.945945945945946
1.9567567567567568
1.9675675675675675
1.9783783783783784
1.9891891891891893
2.0
SCALARS Curvature float
LOOKUP_TABLE default
0.0
0.0861099960370411
0.05861667054920786
0.058057781395054575
0.08899630983399452
0.14833515570262432
0.2147478662839453
0.24256175164138968
0.1889956744449144
0.12707536075900464
0.11477020341324606
0.126326816903409
0.13556208625296048
0.13026723126499054
0.11071968256983339
0.09556083646065036
0.10194609218560104
0.1471797024735647
0.26853338679477456
0.5035050057618097
0.6414953781356125
0.47668463738790967
0.26582214243799285
0.15214898520874806
0.09499099547661577
0.06151660617854026
0.03682834398414444
0.02192343215124733
0.045130945143983685
0.08131830685847545
0.11372272352526383
0.13528326061161422
0.14152966654135885
0.1374270972310299
0.12341015656803397
0.0991536209527239
0.07508920778184093
0.05982774015688566
0.05550920571842897
0.06471238371290985
0.08368768523408412
0.08227939758556405
0.06433526596862801
0.06020340933515845
0.05739999453874593
0.05478571023385191
0.05606711578656846
0.06472581967273573
0.07655179950454434
0.07920355511480123
0.08277909943394565
0.09282014881052157
0.1022548039100231
0.10248149547787495
0.08939272780908841
0.06651975009761743
0.04163937722265502
0.026760927647171355
0.031005795337911556
0.04038830613552612
0.0476296083521273
0.05510360573177661
0.06775452628815348
0.08725887720839612
0.10784161126640542
0.12039286158567257
0.12190370200188798
0.1170420830573455
0.10873350960648975
0.09681269771183398
0.08129533305863176
0.0586204017114279
0.03213748623989847
0.028855594686915786
0.0
SCALARS Torsion float
LOOKUP_TABLE default
0.0
0.0
0.4016874872452481
0.4420270305772108
0.26468016857782234
0.14659023337527005
0.09895925074914047
0.06565123866168114
0.09855762634071803
0.2834207066257797
0.23851379818573995
0.11715600345936168
0.07558253626274189
0.07688011307089213
0.1391075734236432
0.2309274400836636
0.2413253017712719
0.15671140718485635
0.056881598925802634
-0.004734755218250751
-0.00792741335450653
-0.0507695468275575
-0.10318408789505994
-0.023406011873487023
0.11115510280772754
0.2385522232451029
0.45691110777558414
0.8468915866469243
0.3421106992665238
0.1219795272506819
0.05558566659681477
0.018413492668020344
0.013251285122204269
0.016722385597281307
-0.016915627169604798
-0.08556405022340802
-0.11859928474649305
-0.011062116297113678
0.17728289205022493
0.18350776233590058
0.04087933395244264
-0.023527283827653095
0.29949791832225015
0.22890153537922805
0.19807398098351756
0.2574801553163207
0.2903354246241366
0.2197720774804576
0.05164419914932375
-0.12956916487911302
-0.1535287169066486
-0.09446795096214232
-0.03964530873166151
0.00915423386927923
0.07264512424148004
0.17656665653105955
0.4086908027537129
0.7036247781616009
0.48127707572589923
0.2344137537917847
0.10752631350864505
0.0010368857884662658
-0.07120748129582412
-0.07872094379078576
-0.043712845464424686
0.016623542900633587
0.08612209102343847
0.13252251301190562
0.11736188504804405
0.05976296483427138
-0.026680422375753805
-0.15540355891243682
-0.5525388923670348
-0.7388034832681308
0.0
