# vtk DataFile Version 2.0
Vessel Segment
ASCII
DATASET POLYDATA
POINTS 75 float
-5.036069673718076 21.69492271040765 -6.466482146839592
-5.658155387138923 20.77031871185533 -6.41985304127458
-6.312287457115797 19.786709127285764 -6.298914572195852
-6.97416013399837 18.792857608254447 -6.1759727012868355
-7.624460827524663 17.829743854473488 -6.121946047781294
-8.24318943813191 16.924568972754727 -6.2058178472395005
-8.804524828755302 16.08553547679905 -6.48033981144075
-9.27425099216915 15.301220751657349 -6.969486967841054
-9.612937970466648 14.556391515173418 -7.660293232081339
-9.792918494553591 13.834006996910357 -8.496781501950284
-9.80964640479308 13.1269510896182 -9.416359333747339
-9.695276146974198 12.429101812430483 -10.361873460534095
-9.468089575049918 11.7303608280352 -11.300894836136399
-9.111056186689371 11.032961237168392 -12.222382894142596
-8.60864576068763 10.336453865484982 -13.091440554348239
-7.968953963199648 9.64330934689055 -13.84908091770008
-7.261557239669129 8.957829088990565 -14.451591138437298
-6.573228828290203 8.258956319035791 -14.870203700926856
-5.983664611980998 7.538421105936109 -15.0604373034082
-5.563228144638785 6.807518380620431 -14.981906065415636
-5.361417995792562 6.1071716879228735 -14.6081746660299
-5.390251570462903 5.509624945777155 -13.974085455884728
-5.575740806587494 5.0600333291301425 -13.194731093064624
-5.845310216359183 4.754012811217651 -12.33214910374024
-6.164437969257575 4.580935592761181 -11.426705504612444
-6.505280689573274 4.521794113544904 -10.500734487679743
-6.8511747077852885 4.54686428063407 -9.553008863191641
-7.188991481832455 4.624621479461231 -8.580904936229297
-7.487896251112719 4.695964376204844 -7.59694383299675
-7.715141128213906 4.6968132835742535 -6.596339337170971
-7.8496788556827015 4.580601308792346 -5.5777846070814965
-7.881780133961143 4.312486225399424 -4.556798412080323
-7.816206043368723 3.8683046471526565 -3.570694426222591
-7.67309974757769 3.2514846763419594 -2.6651537287175833
-7.471799986203932 2.4873707604495605 -1.8718243071314247
-7.2300502154246615 1.6101866448373376 -1.201049113051382
-6.967334841339271 0.6536943945132301 -0.642059536859737
-6.7011707136765075 -0.3554910161557886 -0.1754715360797976
-6.442270047106144 -1.3927393865502684 0.2207365361361791
-6.191127731686914 -2.4378829321951234 0.5756487494381481
-5.9356999723358825 -3.482010013159785 0.9179760010859921
-5.65360939201332 -4.521483930520438 1.2684017968430605
-5.321715990391644 -5.550876827712069 1.6477085384317678
-4.910797909375177 -6.559452532565618 2.0797435234276915
-4.399486895077757 -7.527647018267088 2.566338913545072
-3.782395162377312 -8.43298075352538 3.0919867829531054
-3.0668621514344228 -9.253350075313088 3.6373362656933126
-2.264881491097641 -9.965814370204338 4.1886198500668295
-1.3882842999976948 -10.548576137681088 4.743093664707729
-0.4472248097272846 -10.986109834841463 5.302453624675811
0.5512305453933628 -11.279163314087686 5.862544396692597
1.601581747630001 -11.446200052210658 6.416508033097511
2.6946041090238353 -11.512579003514118 6.95899541199597
3.814977071741023 -11.497345430035178 7.488268593454617
4.943835006057509 -11.405891693966003 8.00550964873402
6.064968882322367 -11.232267891235468 8.511559086736375
7.170344910493464 -10.97058941096961 9.004959965504352
8.262062088931462 -10.62518257362271 9.482687636820657
9.350513527877007 -10.213880826292947 9.942176181683296
10.450302540280255 -9.766326981756338 10.384017505098479
11.575568331676866 -9.31832376365192 10.813926118939412
12.734858049163343 -8.906969467525093 11.241310779856525
13.926952065844173 -8.567783482762193 11.67642842405883
15.13882050617642 -8.333430135137588 12.126791073845395
16.34481394079341 -8.232683868611726 12.595953082537184
17.508007387423675 -8.289772035268799 13.08364517372054
18.585614675599533 -8.522454357893468 13.586430730738886
19.538047040969793 -8.938264947703738 14.099894241698196
20.337895171188105 -9.530518780442067 14.62106128323942
20.9741835419651 -10.27852910693557 15.150576456468043
21.449722659992055 -11.15147910138257 15.691724230638638
21.77358727320589 -12.110965409018156 16.24729540051399
21.9615415784416 -13.105540706486007 16.821035010557484
22.04414196905807 -14.077046334510724 17.4204434535561
22.059246651130252 -14.972499853785255 18.052884855361278
LINES 1 76
75 0 1 2 3 4 5 6 7 8 9 10 11 12 13 14 15 16 17 18 19 20 21 22 23 24 25 26 27 28 29 30 31 32 33 34 35 36 37 38 39 40 41 42 43 44 45 46 47 48 49 50 51 52 53 54 55 56 57 58 59 60 61 62 63 64 65 66 67 68 69 70 71 72 73 74
POINT_DATA 75
SCALARS MaximumInscribedSphereRadius float
LOOKUP_TABLE default
1.2
1.2108108108108109
1.2216216216216216
1.2324324324324323
1.2432432432432432
1.2540540540540541
1.2648648648648648
1.2756756756756755
1.2864864864864864
1.2972972972972974
1.308108108108108
1.3189189189189188
1.3297297297297297
1.3405405405405406
1.3513513513513513
1.362162162162162
1.372972972972973
1.3837837837837839
1.3945945945945946
1.4054054054054053
1.4162162162162162
1.427027027027027
1.4378378378378378
1.4486486486486485
1.4594594594594594
1.4702702702702704
1.481081081081081
1.4918918918918918
1.5027027027027027
1.5135135135135136
1.5243243243243243
1.535135135135135
1.545945945945946
1.5567567567567568
1.5675675675675675
1.5783783783783782
1.5891891891891892
1.6
1.6108108108108108
1.6216216216216215
1.6324324324324324
1.6432432432432433
1.654054054054054
1.6648648648648647
1.6756756756756757
1.6864864864864866
1.6972972972972973
1.708108108108108
1.718918918918919
1.7297297297297298
1.7405405405405405
1.7513513513513512
1.7621621621621621
1.772972972972973
1.7837837837837838
1.7945945945945945
1.8054054054054054
1.8162162162162163
1.827027027027027
1.8378378378378377
1.8486486486486486
1.8594594594594596
1.8702702702702703
1.881081081081081
1.8918918918918919
1.9027027027027028
1.9135135135135135
1.9243243243243242
1.9351351351351351
1.945945945945946
1.9567567567567568
1.9675675675675675
1.9783783783783784
1.9891891891891893
2.0
SCALARS Curvature float
LOOKUP_TABLE default
0.0
0.04774959847686465
0.0007107941597713982
0.05004366656116408
0.11743282652749085
0.1869654866267168
0.21870801024099062
0.20287653360670072
0.16232909377056573
0.12978505943123664
0.09368739830814218
0.07843574546615292
0.0877981952482053
0.10211769581654055
0.12023123352960345
0.12210236394159635
0.14766662647339454
0.2522166745117355
0.4115605807697099
0.4955228393191936
0.4196528695931929
0.2839908204820764
0.19343216977553193
0.15081865155560348
0.11826153966066284
0.08197826691250765
0.05003920196160384
0.038733216097346854
0.0964738583864191
0.13868392748498684
0.159379922554328
0.16791785440687662
0.16369585123259428
0.1515845619094678
0.13221387399401768
0.10579224187551363
0.08091793891748873
0.058486892861672066
0.032853228504280185
0.010044648658111097
0.02168806818151611
0.042989592210345505
0.06746741008517741
0.08116861615687992
0.08571429211994966
0.08826317763691728
0.09481689000862203
0.1052280870559663
0.11387571389566535
0.11048167436521862
0.09298301370150822
0.07113163967378466
0.05512356760603702
0.04974845513054112
0.053919356620081044
0.058833647449299295
0.05588032962335169
0.043019510299558326
0.023980991949285796
0.012848799093235
0.02757173511319091
0.04544277389056339
0.06228105187285068
0.07981438096772588
0.10167858689522424
0.1304114055065165
0.16206396117424685
0.182603489031104
0.1792073196787164
0.15563524742498977
0.1277820586366243
0.10342945577788311
0.08378254510164458
0.08088943721814874
0.0
SCALARS Torsion float
LOOKUP_TABLE default
0.0
0.0
1.0
0.010618565893356746
0.028530461573430907
0.0640717009205686
0.11725199425387127
0.16320729851561266
0.22903575585433208
0.20460334838869518
0.21274013087251975
0.20726636764837125
0.022117453240258544
0.08744812461067011
0.12844087822041575
0.23891140492887433
0.3920147596426433
0.2146697207814574
0.10122282297843874
0.01270110314406278
-0.028066450248999814
-0.12412876235428984
-0.22471608688570985
-0.10119782993775306
-0.13777882615440082
-0.1989264764497107
-0.3772995589135068
-0.8464879606564615
-0.22049799312275709
-0.08420839227435803
-0.07367100301349186
-0.09585566913239779
-0.09886399905771011
-0.05743187934645925
-0.03778060175915807
-0.06375313123673636
-0.10659492323230851
-0.11227809765041598
-0.07143943673765527
0.9209078408090419
0.3832459646161721
0.09720314490658677
0.035695762096823506
-0.047096087466430354
-0.07334447116711562
-0.055037073073223974
-0.010454735010365854
0.04051410120226412
0.045937196613604105
-0.003564878827953262
-0.04785715375747321
-0.05978396048848299
-0.004624490921701384
0.08301003306414029
0.07788767848802655
0.02111290901143638
-0.03781659995437385
-0.12706260724832727
-0.4156426743988305
-0.8768936688357444
-0.2768522679223919
-0.1141208297464712
-0.06678389274636484
-0.04884440063561971
-0.04088598256955349
-0.03406725297131739
-0.030611328438756264
-0.03323317123930632
-0.04548051718766708
-0.06455331908922106
-0.09129637132158026
-0.173546339447423
-0.34671744966596746
-0.4592418529945965
0.0
