# vtk DataFile Version 2.0
Vessel Segment
ASCII
DATASET POLYDATA
POINTS 75 float
-4.793623478445118 21.490196863418383 -6.4921879087963426
-5.3723402463930485 20.441487329838 -6.573215338131638
-6.0229522023242685 19.35507626273971 -6.4695406033983565
-6.729999805376952 18.273236017450788 -6.261334067223156
-7.477991272395939 17.233107410852565 -6.031919190741129
-8.24478606262426 16.26345256768439 -5.868991734082832
-8.996667272922041 15.37948549613743 -5.855419457669287
-9.690542209668703 14.577495640135187 -6.053746128900471
-10.2790668898325 13.841338485183599 -6.4955285570732855
-10.720284415803206 13.142744882586028 -7.156565036993853
-10.987341781227764 12.44655601748636 -7.979186994099949
-11.067643222478356 11.732225561533507 -8.898673726390479
-10.959713245310732 10.997838792525755 -9.855373844481797
-10.656118123843198 10.273892336920323 -10.825659102373097
-10.181632196716869 9.587687316117853 -11.759093876447835
-9.57589343401391 8.941238927736268 -12.615900544875995
-8.887592600326348 8.33728607046521 -13.36486474297111
-8.169655679142215 7.767161569004814 -13.973862671940061
-7.471329164503328 7.225815766855474 -14.40326933112766
-6.834329226309857 6.714319097451478 -14.616979606785433
-6.293523593022731 6.234294645990083 -14.582174100544767
-5.894223531928958 5.800277268205839 -14.275618799036668
-5.659063087046132 5.440448630524882 -13.73430397026745
-5.563546188759144 5.163847912286378 -13.024300339700854
-5.578826356828815 4.971764346748343 -12.18646605403809
-5.68563027651822 4.863551331139861 -11.25462916159262
-5.864935784929632 4.8278499680366656 -10.257012237639211
-6.098319113456902 4.844990970004778 -9.221829602320417
-6.356591890957405 4.870190787048807 -8.183398452709639
-6.609400832311423 4.847647843323211 -7.159024344309269
-6.832271996541245 4.733625968984106 -6.159368861312735
-7.006641837720666 4.5029544555373615 -5.195132240058363
-7.119027539976048 4.146761599388832 -4.27524276156747
-7.158490768641221 3.6632918268080643 -3.40548856955374
-7.118470943906111 3.05189837205888 -2.5957579871557503
-7.004351930566833 2.3172536068830736 -1.8639162807360972
-6.833471942896246 1.472467678671673 -1.2291163674189671
-6.620717849150223 0.5346737129341919 -0.7062340943109626
-6.369482961369097 -0.4753819635982435 -0.30204413777813854
-6.0739426414435185 -1.5332351439495435 -0.007492840434068299
-5.724111073078772 -2.614999133551535 0.2018921313754494
-5.3122701032954955 -3.6991660610570305 0.35449416082126695
-4.843295719071221 -4.767150727681167 0.4909228742303871
-4.309930692238129 -5.802083559318324 0.6687922870386276
-3.702474520099846 -6.7819867687075375 0.921435976450089
-3.015966921552409 -7.684839149384822 1.261370715246755
-2.250251775816167 -8.491658825802052 1.6891940641223095
-1.4100614664182989 -9.186697247021517 2.1983515724563985
-0.5036626543246016 -9.758824920115721 2.778249589374388
0.4598615498586314 -10.20032034157377 3.4120415863123044
1.4741222912887093 -10.511877443029935 4.072182145083483
2.533727514435435 -10.703146400811677 4.735248708758661
3.6310100518518813 -10.784953200904248 5.389790036756206
4.755432785234844 -10.76583591461943 6.035744552139199
5.8944583770110786 -10.65291000867089 6.679960323999674
7.03577757727683 -10.454954406270948 7.330583936695773
8.169877912505243 -10.186532486602102 7.992761376491318
9.291421332432966 -9.870258862434106 8.66787760683402
10.39912712492115 -9.536209465348742 9.355463225143327
11.494043608609518 -9.218344282166086 10.054589334403964
12.57635520394442 -8.950565743773883 10.763889041718596
13.641761591934959 -8.763593427992298 11.481281884095193
14.679117970709639 -8.682008714619998 12.204269706219486
15.67039200264536 -8.722329453874567 12.930817531312377
16.592597352958723 -8.892405382674578 13.65989019934958
17.421910185212514 -9.19270420922027 14.390332156956362
18.139199977949797 -9.618817923298314 15.119428871838604
18.73405698066946 -10.163351852458419 15.843448123378904
19.207079179188685 -10.81613316406593 16.559263322316607
19.569121620718064 -11.564202922905539 17.265771312803167
19.8372771568193 -12.39359636250954 17.96321070955513
20.027438717697088 -13.289959286267743 18.65161129936754
20.1543516970305 -14.231867112364457 19.33272979331016
20.238895225102272 -15.193936719202192 20.01299886782356
20.304043535517046 -16.152594748851005 20.6999746432102
LINES 1 76
75 0 1 2 3 4 5 6 7 8 9 10 11 12 13 14 15 16 17 18 19 20 21 22 23 24 25 26 27 28 29 30 31 32 33 34 35 36 37 38 39 40 41 42 43 44 45 46 47 48 49 50 51 52 53 54 55 56 57 58 59 60 61 62 63 64 65 66 67 68 69 70 71 72 73 74
POINT_DATA 75
SCALARS MaximumInscribedSphereRadius float
LOOKUP_TABLE default
1.2
1.2108108108108109
1.2216216216216216
1.2324324324324323
1.2432432432432432
1.2540540540540541
1.2648648648648648
1.2756756756756755
1.2864864864864864
1.2972972972972974
1.308108108108108
1.3189189189189188
1.3297297297297297
1.3405405405405406
1.3513513513513513
1.362162162162162
1.372972972972973
1.3837837837837839
1.3945945945945946
1.4054054054054053
1.4162162162162162
1.427027027027027
1.4378378378378378
1.4486486486486485
1.4594594594594594
1.4702702702702704
1.481081081081081
1.4918918918918918
1.5027027027027027
1.5135135135135136
1.5243243243243243
1.535135135135135
1.545945945945946
1.5567567567567568
1.5675675675675675
1.5783783783783782
1.5891891891891892
1.6
1.6108108108108108
1.6216216216216215
1.6324324324324324
1.6432432432432433
1.654054054054054
1.6648648648648647
1.6756756756756757
1.6864864864864866
1.6972972972972973
1.708108108108108
1.718918918918919
1.7297297297297298
1.7405405405405405
1.7513513513513512
1.7621621621621621
1.772972972972973
1.7837837837837838
1.7945945945945945
1.8054054054054054
1.8162162162162163
1.827027027027027
1.8378378378378377
1.8486486486486486
1.8594594594594596
1.8702702702702703
1.881081081081081
1.8918918918918919
1.9027027027027028
1.9135135135135135
1.9243243243243242
1.9351351351351351
1.945945945945946
1.9567567567567568
1.9675675675675675
1.9783783783783784
1.9891891891891893
2.0
SCALARS Curvature float
LOOKUP_TABLE default
0.0
0.11310918738908851
0.06451147766760508
0.03651352850779753
0.05393007684503962
0.11449702782480119
0.19247820856739306
0.24703418864942012
0.22975808848708115
0.1805202834099259
0.1440238316460164
0.12475954708449064
0.12097807258192819
0.11313076330829273
0.10286744471776213
0.09686972866042448
0.10369435368978547
0.15158949675108532
0.2635060280905834
0.45281642863920507
0.6049390536828915
0.5301626968680733
0.3381239463232602
0.2072919398823194
0.13876907308941874
0.09308145775595561
0.060718537318109486
0.021512177485298586
0.04315146249604263
0.09134163661950533
0.12784992340554274
0.1478538458808863
0.15431676834467994
0.15288235536316966
0.14463120436394908
0.13241294036232748
0.12246978649263188
0.1124629830513946
0.09600213753401073
0.07552265108782645
0.06018349720000105
0.04436723038556507
0.05987495253585877
0.08484683204476993
0.09967421682293008
0.10618260162230889
0.1069593558344583
0.1036320672018453
0.09822039194819952
0.08949730662513393
0.07913464061711471
0.06954237861716984
0.06103763985339506
0.053770069506145844
0.0472302747000329
0.03919005718586952
0.027901287365664315
0.01420954497084083
0.01237572829955732
0.028885794786001673
0.047591325838182104
0.06587950188473568
0.0835431216519061
0.10110939171922592
0.11890326509652935
0.13487550320375305
0.14376976790531498
0.1393710785002553
0.12112977283259761
0.09623790014072946
0.07404109317758581
0.0540585093592211
0.032323042178015356
0.014909668429131342
0.0
SCALARS Torsion float
LOOKUP_TABLE default
0.0
0.0
0.27898151138111676
0.720805003205458
0.49592878376603045
0.21190568646787522
0.15334546900349844
0.14359372594627892
0.19338889206188375
0.2596659060060168
0.24114200988602497
0.16911157377902286
-0.03746073007286074
0.03497483684245508
0.12324067175293424
0.14269004052708031
0.2773757377103104
0.24047510280222523
0.14133172535632557
0.08769542968454597
0.06542741652209326
0.007905287261867622
-0.06310473887945393
-0.1085023068734178
-0.07336212341193243
-0.030891599628213924
0.048151956483863674
0.8699755840608066
0.42507400305856213
0.09774096619595996
0.05116011884069695
0.04633054422904611
0.04804281244220292
0.01718270818033676
-0.044583966553927656
-0.09346218345176173
-0.06870608449072416
0.011938091324148997
0.1075898323265105
0.22897580984538327
0.3180345172149435
0.5226168676857178
0.42230069903815226
0.10707266457523762
0.011127883638864508
-0.01749665001467337
-0.02561030553448153
-0.026633552911836583
-0.04928566325998468
-0.11267567732129169
-0.1167614344151748
-0.057732915357046936
0.025293699385760114
0.09382217486397187
0.12175938848522212
0.12229459285957946
0.16008203879956936
0.5253164306788238
0.7005446645028481
0.16777985126868433
0.05104902126135262
0.0030154092148497805
-0.03024628967822915
-0.055803656084390016
-0.06411452763630893
-0.05122913101115564
-0.030691289471599444
-0.01260253075749488
-0.0014589641100955526
0.010743830415717451
0.009059973570933416
-0.061314966506671016
-0.24134923366188774
-0.8008254957028629
0.0
