# vtk DataFile Version 2.0
Vessel Segment
ASCII
DATASET POLYDATA
POINTS 75 float
-6.032430048226242 21.138220163161932 -6.285838851119078
-6.520208847770202 20.087978352420745 -6.323202000433489
-7.094100277847775 19.030062127143673 -6.22956891946057
-7.722177507350017 17.994211062613328 -6.079408195163411
-8.373294771496 17.00632646489862 -5.94700627287726
-9.015465096566738 16.0853920517919 -5.905122327065696
-9.614961998982716 15.23972477589051 -6.017651963971451
-10.136619630242736 14.464882743590591 -6.328779932178106
-10.54461881644887 13.749191863116291 -6.851926410328515
-10.811121315317461 13.071533406301539 -7.556100685396496
-10.922627333212965 12.406553426502922 -8.389302766996552
-10.879984108292376 11.738574757768655 -9.297691497496553
-10.691265243459963 11.063425069225856 -10.235131457026988
-10.366879115017138 10.388582342556479 -11.171684633919856
-9.919621435684371 9.721574872802572 -12.080176466516795
-9.368347516151571 9.065575845268269 -12.925008047884432
-8.748227714583855 8.42176405020454 -13.668539817999998
-8.10074842787491 7.787936836540398 -14.27084540876282
-7.468363235857668 7.169371842967584 -14.6864153999015
-6.892464462323906 6.578739115811506 -14.875710555487775
-6.407909763830251 6.0340192109750355 -14.812533257726685
-6.043176349425677 5.555731354605149 -14.49140421067005
-5.817802143226769 5.167462104988934 -13.941645684246907
-5.726249721229729 4.8862561403133125 -13.217623436992865
-5.754199309545692 4.720984515794301 -12.365751748093578
-5.884101906777367 4.671524022327646 -11.426651509215608
-6.087627649794183 4.721914338919603 -10.434552216929474
-6.325868655384912 4.839761296033972 -9.41671285081284
-6.55278930215944 4.973948062825821 -8.39404541869513
-6.727615754924589 5.0657699852660425 -7.376790483561958
-6.824586334429232 5.064969714230877 -6.373222749103401
-6.8349235350018605 4.937653361169645 -5.395798275141543
-6.764173117729666 4.666949979125912 -4.460124836579595
-6.624256973082702 4.249318823519748 -3.5780984023160602
-6.426268816150442 3.6888169492180074 -2.7561961085794597
-6.182548172577137 2.996910452277847 -1.9984089029320713
-5.909569281992983 2.193860774248165 -1.3080994064678377
-5.622457709513598 1.3044427284979758 -0.6904295025643282
-5.328260925609205 0.3534503787434554 -0.15339671331512608
-5.024629766029964 -0.6385027598949228 0.2980770428362846
-4.702714791197705 -1.658855468561988 0.6667628128258927
-4.353025744712171 -2.7008537457461217 0.9622642564122421
-3.972681524826182 -3.758307539816471 1.2093314484037183
-3.5501696966767677 -4.8202977419417 1.450643344591396
-3.070215967118565 -5.865301555206377 1.7207308349965997
-2.5190651358174847 -6.864533322020575 2.0434405922355565
-1.8864132419218398 -7.7882876108851296 2.4316529045854542
-1.1672477280613471 -8.611476005348157 2.8883411487840176
-0.3622540547923718 -9.317659169328254 3.4087925775305754
0.5234390130190039 -9.898318393873236 3.9799054759641592
1.483060975888594 -10.353239849714408 4.579073920440754
2.507663983797336 -10.687048686355745 5.185401858617702
3.5832799224883396 -10.902191946179009 5.78682909503066
4.690734866488078 -10.998274187725842 6.381130026861856
5.809484197531904 -10.976928991295 6.972902694811176
6.923443453730805 -10.848003310116873 7.568657062142135
8.024651686306223 -10.633318676607177 8.172999462755
9.11239113179484 -10.36541999560208 8.78841477036251
10.189269743008435 -10.081792862113941 9.417212682610757
11.256882796238218 -9.8177062394048 10.062308561899505
12.313210755550603 -9.601398162155688 10.726094611040939
13.352284800174525 -9.453391351107436 11.408281585032677
14.364877849100628 -9.388221783568454 12.105477534631843
15.338712956212479 -9.416903458977323 12.812981123214819
16.258122581294238 -9.548694811358212 13.527022805612095
17.10468809977134 -9.792230554264876 14.244731700414421
17.85958778461167 -10.156106201947331 14.96220922988447
18.506906287737255 -10.646947081964843 15.673388380679793
19.03678342018228 -11.265418825449101 16.371016791595725
19.447839623367738 -12.002378066924969 17.049442210497013
19.74740458159002 -12.83837891601118 17.706752277327496
19.948295607973538 -13.745880837012098 18.345557228837183
20.0654136095123 -14.690528060650996 18.972855107535544
20.114998576824785 -15.6339995782161 19.59923422320005
20.11290167205218 -16.536569616312942 20.236679939729825
LINES 1 76
75 0 1 2 3 4 5 6 7 8 9 10 11 12 13 14 15 16 17 18 19 20 21 22 23 24 25 26 27 28 29 30 31 32 33 34 35 36 37 38 39 40 41 42 43 44 45 46 47 48 49 50 51 52 53 54 55 56 57 58 59 60 61 62 63 64 65 66 67 68 69 70 71 72 73 74
POINT_DATA 75
SCALARS MaximumInscribedSphereRadius float
LOOKUP_TABLE default
1.2
1.2108108108108109
1.2216216216216216
1.2324324324324323
1.2432432432432432
1.2540540540540541
1.2648648648648648
1.2756756756756755
1.2864864864864864
1.2972972972972974
1.308108108108108
1.3189189189189188
1.3297297297297297
1.3405405405405406
1.3513513513513513
1.362162162162162
1.372972972972973
1.3837837837837839
1.3945945945945946
1.4054054054054053
1.4162162162162162
1.427027027027027
1.4378378378378378
1.4486486486486485
1.4594594594594594
1.4702702702702704
1.481081081081081
1.4918918918918918
1.5027027027027027
1.5135135135135136
1.5243243243243243
1.535135135135135
1.545945945945946
1.5567567567567568
1.5675675675675675
1.5783783783783782
1.5891891891891892
1.6
1.6108108108108108
1.6216216216216215
1.6324324324324324
1.6432432432432433
1.654054054054054
1.6648648648648647
1.6756756756756757
1.6864864864864866
1.6972972972972973
1.708108108108108
1.718918918918919
1.7297297297297298
1.7405405405405405
1.7513513513513512
1.7621621621621621
1.772972972972973
1.7837837837837838
1.7945945945945945
1.8054054054054054
1.8162162162162163
1.827027027027027
1.8378378378378377
1.8486486486486486
1.8594594594594596
1.8702702702702703
1.881081081081081
1.8918918918918919
1.9027027027027028
1.9135135135135135
1.9243243243243242
1.9351351351351351
1.945945945945946
1.9567567567567568
1.9675675675675675
1.9783783783783784
1.9891891891891893
2.0
SCALARS Curvature float
LOOKUP_TABLE default
0.0
0.09979230023641594
0.053466603215956636
0.033791533031829385
0.0739308813707175
0.14884289818240806
0.2252421940905973
0.2533785583652945
0.21504735364516855
0.1614401333486869
0.12301951493801074
0.1019146275815751
0.09075978005793395
0.0846010786561656
0.08433697309994302
0.08710900351419078
0.10713548833676516
0.1658366937469653
0.28286374303876405
0.45430872320187593
0.5565437770669144
0.4896572822364347
0.34444906100194067
0.23495099082572368
0.16506574836039783
0.11074666742375777
0.06247251163363213
0.01792514717907996
0.060416113105262764
0.11744072062512606
0.15837329050428123
0.17621649991953803
0.17246750852365805
0.15447901437292152
0.12923125312866302
0.10411257095296658
0.08671233030940817
0.07842865562042338
0.07426145379195793
0.06963974308385791
0.06219944183144048
0.04356157382246343
0.028384664194262842
0.04638138882891473
0.07047063558334744
0.0914709947021636
0.10578382317702463
0.11074686668357511
0.10728316688232131
0.09815155483368587
0.08833294547640069
0.0813085729688163
0.07692633634017572
0.07320498891570071
0.06651940017356082
0.05339964318058651
0.03412560659434299
0.014254562251952742
0.016511284790813555
0.032392923086566834
0.0457585710287116
0.05698636737321274
0.06847268752225698
0.0825638526675209
0.10071103490450632
0.12221453240427023
0.14159335800531955
0.15002816902082047
0.14170712169952268
0.11996208071577642
0.09380982337267443
0.06990071518777417
0.05240808399291226
0.05005469128735362
0.0
SCALARS Torsion float
LOOKUP_TABLE default
0.0
0.0
0.40323325837371776
0.8406561311537268
0.3481882358076543
0.153024254514953
0.11905495242028738
0.12835727044291126
0.1904547422143745
0.2489061254518377
0.23756640085319902
0.18126533152191482
0.07278023247965527
0.06709197948207207
0.13137629170663015
0.1986436190413475
0.23784528124244447
0.16468878813548798
0.09986116904972998
0.05067299034246066
0.030781987959741994
0.018280226111271024
-0.03762370542114839
-0.06187753646139578
-0.056940523323524166
-0.08670592631890177
-0.2369377966684399
-0.9935377576308237
-0.28852446799431697
-0.10492572955308666
-0.0810057797918555
-0.08415468286001608
-0.0771341679337987
-0.055302822157035414
-0.05149159748279404
-0.07222449742828917
-0.06604681866219538
3.399156234915046e-06
0.07577571250569184
0.12517442762729333
0.14346500546411062
0.21788530952991095
0.761958264286156
0.3077692518114178
0.08623337282974189
0.015802830559081923
-0.010596072762536077
-0.02175264917854419
-0.04376915689871195
-0.09036271419677085
-0.08952500239926577
-0.030541094651766035
0.04419590449696492
0.09088632949207466
0.10062746469412105
0.09938143636511412
0.16303139304251146
0.7304696553341025
0.5921500661907442
0.1336798012037232
0.04451784423783403
0.019943564555711325
0.0025068020602496063
-0.0192091599877252
-0.030020919347553694
-0.02127322382977089
-0.005821270221834644
0.0030621745526895556
-0.0007642547114541706
-0.017422815232239878
-0.060532644924927326
-0.16883963414641232
-0.37349124293606756
-0.4884605105619714
0.0
