# vtk DataFile Version 2.0
Vessel Segment
ASCII
DATASET POLYDATA
POINTS 75 float
-5.070665248692354 21.632089735103815 -6.427812525570969
-5.644101632694602 20.655870585394673 -6.370596568343775
-6.275426665427704 19.63648124467807 -6.222014010786414
-6.937383099403653 18.61496769994563 -6.050775183181956
-7.605860287664758 17.62658878433112 -5.925189543521524
-8.255873022218346 16.696816098951707 -5.913757886531147
-8.858857792218156 15.837112155950697 -6.075127205854563
-9.3821112499658 15.042643217960167 -6.446240872353408
-9.791063485528339 14.301267570747104 -7.031364285256342
-10.061095515501636 13.592573624019575 -7.789588568951755
-10.183464465054879 12.896563990582585 -8.662834786554832
-10.169002465035904 12.199320874627896 -9.592993510010913
-10.022576458695731 11.493194759447285 -10.537451850025112
-9.729671634754537 10.78733279342419 -11.477252974641054
-9.286234600666994 10.089694149083348 -12.378537502517306
-8.708072259410226 9.401921635749412 -13.199645646349886
-8.048450947595649 8.725008455039028 -13.906443464695672
-7.375018659119196 8.04409194579259 -14.466527139489074
-6.75385094535126 7.352220227808154 -14.831924715063712
-6.245100670152474 6.657028427117644 -14.953524665522915
-5.895063900139269 5.9884934501312825 -14.791395306528212
-5.729013120875392 5.401408935525631 -14.348154891488706
-5.721711432659782 4.941795028786634 -13.693840305997602
-5.832434481303802 4.622116352444558 -12.892243043081278
-6.033280833822304 4.442968837592939 -11.9944127143369
-6.297599670667112 4.392827515216392 -11.039807406889297
-6.600122328324829 4.444612619409844 -10.050872111820574
-6.914684116989687 4.562769147170142 -9.042685533341796
-7.204049125007192 4.689609258468701 -8.031990677923316
-7.433298502349056 4.76169852811926 -7.018318533904877
-7.579759132422755 4.727479390950932 -6.00094780898487
-7.632394593726271 4.546935889507928 -4.990745944479824
-7.592763873495262 4.192868148787594 -4.014578836762344
-7.474556437052874 3.6621653813389345 -3.1062753987699847
-7.292473021770722 2.9714835490134086 -2.291322678121406
-7.061505603169248 2.147669206510406 -1.5825467111132832
-6.79982104325168 1.22187608018587 -0.9793222978190312
-6.524122231550916 0.22336229423548642 -0.47280006790581247
-6.244102146141721 -0.8203415369112557 -0.04956697436293881
-5.9598699466205 -1.8858708377554583 0.31086216286299034
-5.661032231692962 -2.9586050563468853 0.6318969539834205
-5.329998546152402 -4.029577460304697 0.9333244739386174
-4.95109485709513 -5.090571285514572 1.2382983090683106
-4.5021630006501985 -6.130361356484005 1.5766706264060275
-3.9647817695045364 -7.129613578485628 1.9615258336204462
-3.330841571765502 -8.064449735126292 2.392558729190771
-2.601747765350113 -8.910159737843387 2.864326579085436
-1.78525639461287 -9.64317312411118 3.371439986911073
-0.892579552230521 -10.244561635017638 3.911470981184931
0.06432466939952891 -10.702977175868542 4.4803526044353585
1.076024688734167 -11.020181037451446 5.065943151537566
2.1353586320756297 -11.210068375889737 5.6544551154010785
3.2332690942462103 -11.289985564646834 6.236059712209059
4.356258691509999 -11.273315236941665 6.807321632367452
5.487494098362385 -11.16685358168038 7.370612659717755
6.6114183543490155 -10.973399350144298 7.9306044306806145
7.718742160273436 -10.6989212429845 8.490747132476681
8.80878500476604 -10.35816307479459 9.051969250248089
9.888229998770864 -9.975230887170026 9.613546744251154
10.967151190397944 -9.580695192085255 10.17517387574495
12.054408239899066 -9.207292802854788 10.738611739377978
13.153383455000291 -8.887331668954829 11.307399307304044
14.258936900467608 -8.651171892400052 11.885876292392926
15.356119719682752 -8.52573264816168 12.477633243934301
16.420511072747615 -8.532651327371436 13.084504248154886
17.421054918642596 -8.68743789911089 13.70532799808416
18.32571170143043 -8.999218984426875 14.33515673248377
19.108053964829946 -9.469677329905318 14.966882759994641
19.752383488898637 -10.091116292990506 15.594184970002525
20.25566317610717 -10.846391674751294 16.214333614561028
20.625771151873092 -11.711006310702837 16.828007760175694
20.876683379629927 -12.654707075122674 17.43734413257999
21.027969325369614 -13.638118349639782 18.046654796473927
21.1089614612934 -14.616844742090883 18.66373604395415
21.153333796789425 -15.549152527108598 19.296615564058605
LINES 1 76
75 0 1 2 3 4 5 6 7 8 9 10 11 12 13 14 15 16 17 18 19 20 21 22 23 24 25 26 27 28 29 30 31 32 33 34 35 36 37 38 39 40 41 42 43 44 45 46 47 48 49 50 51 52 53 54 55 56 57 58 59 60 61 62 63 64 65 66 67 68 69 70 71 72 73 74
POINT_DATA 75
SCALARS MaximumInscribedSphereRadius float
LOOKUP_TABLE default
1.2
1.2108108108108109
1.2216216216216216
1.2324324324324323
1.2432432432432432
1.2540540540540541
1.2648648648648648
1.2756756756756755
1.2864864864864864
1.2972972972972974
1.308108108108108
1.3189189189189188
1.3297297297297297
1.3405405405405406
1.3513513513513513
1.362162162162162
1.372972972972973
1.3837837837837839
1.3945945945945946
1.4054054054054053
1.4162162162162162
1.427027027027027
1.4378378378378378
1.4486486486486485
1.4594594594594594
1.4702702702702704
1.481081081081081
1.4918918918918918
1.5027027027027027
1.5135135135135136
1.5243243243243243
1.535135135135135
1.545945945945946
1.5567567567567568
1.5675675675675675
1.5783783783783782
1.5891891891891892
1.6
1.6108108108108108
1.6216216216216215
1.6324324324324324
1.6432432432432433
1.654054054054054
1.6648648648648647
1.6756756756756757
1.6864864864864866
1.6972972972972973
1.708108108108108
1.718918918918919
1.7297297297297298
1.7405405405405405
1.7513513513513512
1.7621621621621621
1.772972972972973
1.7837837837837838
1.7945945945945945
1.8054054054054054
1.8162162162162163
1.827027027027027
1.8378378378378377
1.8486486486486486
1.8594594594594596
1.8702702702702703
1.881081081081081
1.8918918918918919
1.9027027027027028
1.9135135135135135
1.9243243243243242
1.9351351351351351
1.945945945945946
1.9567567567567568
1.9675675675675675
1.9783783783783784
1.9891891891891893
2.0
SCALARS Curvature float
LOOKUP_TABLE default
0.0
0.059228066313220994
0.020898326079951984
0.03412995460607318
0.08914501122492709
0.16125879704085558
0.2199678256294261
0.22764893590238525
0.18435742060094804
0.13842067639450883
0.1033762128436038
0.09103244600438268
0.09721663433260032
0.10267298079504128
0.10559578178549378
0.09856224560155832
0.10777318145298555
0.17602107413105117
0.31912933307243774
0.49622775546326325
0.5357960352408955
0.40721521088733825
0.2740999929334668
0.19454057175368442
0.1416032245532066
0.09582643014204822
0.05641361919305324
0.023668914062387976
0.07370052025664083
0.12668551576595377
0.1627790245494801
0.18051111362611535
0.17757155088928944
0.1614442611895597
0.13870168742010347
0.11275069838623211
0.08959518982311457
0.06981262456063929
0.04944010261783382
0.03172526000851821
0.027940187225050577
0.03556222291211214
0.0561262681965966
0.07357870994996653
0.08444603637469733
0.09239778099608224
0.10015058193433682
0.10682462818259256
0.10928747483430098
0.10286979982145185
0.08885010538506216
0.07361017880642104
0.061972112763348616
0.05578031656641312
0.05396688423420098
0.051122839067897274
0.04222749551905795
0.026613545025742813
0.006835540912113917
0.013864432239035015
0.033632465458253706
0.052313333509766864
0.0707011188325597
0.09013914086690124
0.11250393467438556
0.13783103129005625
0.16051716578698097
0.1695746019609097
0.15851664017411515
0.13279403177778965
0.1040610522719887
0.07717523851063955
0.052520984727706714
0.04149158522370896
0.0
SCALARS Torsion float
LOOKUP_TABLE default
0.0
0.0
0.8384887024507655
0.4838213816063708
0.12750147594510042
0.08888902696125316
0.10257782947437379
0.12726280535109555
0.19410738920786108
0.2397095881496051
0.2534601262089583
0.20359927481179574
0.02148856554012668
0.06703481251917144
0.12481599726559545
0.21270391276018172
0.37913405404202105
0.24336250515890526
0.11455157403151864
0.021847335710474522
-0.025750379601645477
-0.08900163675750486
-0.11791045493912122
-0.06723969656415711
-0.07027142482269683
-0.09738434989920142
-0.2517040891004896
-0.975252582436841
-0.27400654310348427
-0.09906910479936143
-0.07543305877530142
-0.08236165062492917
-0.0801412995630631
-0.048758184816690975
-0.03435053557669074
-0.05284310462722614
-0.06810223371825921
-0.03721414569723968
0.06843142605471941
0.39532881912446544
0.5563639401376139
0.3761335333653086
0.186746323098801
0.029466818855441862
-0.014322888853833832
-0.011335858499863514
0.0053163653849889
0.024089514852503338
0.015163238621126715
-0.03393724993944539
-0.06612936953473535
-0.057381661321898515
0.0018638109815541093
0.07783538211408883
0.10005769837907848
0.07264734173211285
0.03401718040248219
-0.013283580876049202
-0.27975199432263337
-0.028071749821404257
-0.027935606486076785
-0.03998738130742507
-0.04693740466548185
-0.052017953921475055
-0.04935489511089715
-0.03682284758490645
-0.024477805983907315
-0.020336799510089137
-0.027312317007976716
-0.04122217546703125
-0.06757108500169669
-0.15548924800310568
-0.3930745540476216
-0.6485418966672616
0.0
