# vtk DataFile Version 2.0
Vessel Segment
ASCII
DATASET POLYDATA
POINTS 75 float
-4.850846020468984 21.78233629137053 -6.871348251746943
-5.379060260752373 20.854923235138973 -6.714857836339221
-5.99987266309558 19.857228973169317 -6.467247970252716
-6.675758693229207 18.83080946560939 -6.194986746659998
-7.372077948733218 17.809652419531194 -5.960599828237369
-8.054719506129775 16.82063305876375 -5.824802498320701
-8.691723467370883 15.883221029019527 -5.841977473437206
-9.253992285935912 15.00762375594397 -6.058033527688083
-9.709215051133999 14.206568370418825 -6.507655166369281
-10.035373201032685 13.475382982427163 -7.158062225597066
-10.22867572896407 12.777810266462563 -7.951583744528544
-10.290369220519027 12.084784459998902 -8.836308570078666
-10.216923423483996 11.377756453479014 -9.769567492653115
-9.98851150323455 10.664741044530864 -10.724640489791712
-9.61094468505943 9.956904189928682 -11.645440018481457
-9.109617598591441 9.252849085814981 -12.485506976680867
-8.526033304078153 8.555974713960854 -13.21330765586329
-7.913769915324459 7.861647451693771 -13.804837004293812
-7.325657115168954 7.1653905587905795 -14.23346282156248
-6.80665493835141 6.467553260538488 -14.469436707022458
-6.391108092319643 5.775555599375891 -14.476445947774618
-6.121668672408387 5.109695801432491 -14.214670272163675
-6.0267446352656115 4.526310600647949 -13.703375737905192
-6.078787217601722 4.064619595891284 -13.011386865556341
-6.250371756403306 3.7419469541325427 -12.192219854291556
-6.523265862765585 3.563838800593261 -11.294659801551157
-6.875392896548534 3.519198765343919 -10.359416916517532
-7.273902161892222 3.5847766463244466 -9.416388986047393
-7.6671880333453775 3.713215963841009 -8.483528315025161
-8.002127494104919 3.844771707145215 -7.553049220785384
-8.239582984098483 3.9256925681337136 -6.611256269576557
-8.35638847256434 3.9117951960771937 -5.653906551901718
-8.343994203902017 3.767889356908682 -4.691276792808163
-8.206574618080905 3.47397607308173 -3.7439220374980153
-7.9528065353956725 3.0219269033702307 -2.833295053047669
-7.596025565401854 2.4097828540487023 -1.9882817335144514
-7.166039294350651 1.6545060518036236 -1.2419327474158388
-6.695190250276473 0.7877239539350235 -0.6140558722033538
-6.2035395793678365 -0.15557643384612826 -0.11192942828059241
-5.698828906746997 -1.1414434029211344 0.2705515204209276
-5.178409189243228 -2.1427948833322157 0.5507155107068754
-4.638750725951051 -3.1413279036542843 0.7380791625783574
-4.100447105629773 -4.126221663558723 0.8646343382194209
-3.5499163675750602 -5.094765049435517 1.0072501838714947
-2.9643288268371113 -6.036613005483352 1.207375622128255
-2.3281724083025837 -6.934626042364133 1.4861317186097567
-1.6308319035040333 -7.769006013447972 1.8527180740150064
-0.8672179273462772 -8.521495236121151 2.309024676959539
-0.0384034138580406 -9.177265881474115 2.855693176966873
0.849608610778851 -9.719279959628956 3.4826813744358542
1.7932749357121112 -10.140468318227677 4.152965148411999
2.7909954986506023 -10.446062039144785 4.831888264295719
3.8370276855069174 -10.638176538885599 5.4998858804302015
4.919936843579878 -10.714587787770053 6.151068636400453
6.02445249545936 -10.675636692712676 6.790253938121152
7.135642137199415 -10.531505297451654 7.4277583938555996
8.242937083284696 -10.306303035622514 8.073391394764608
9.341349576011911 -10.035018174914574 8.732849059407686
10.43009694369949 -9.75499616231153 9.407742426597014
11.509613817134152 -9.497646452168725 10.097299701411977
12.578417055868579 -9.285920432220534 10.79923980937531
13.63059288835639 -9.137763229120361 11.510043168532775
14.654352639564602 -9.069578815976591 12.225027823299405
15.632273681888917 -9.096594727281243 12.938897846641972
16.543008135802896 -9.230318477716683 13.647219299676618
17.36493793237368 -9.476669216949926 14.347552679777023
18.080592909499476 -9.836504450311764 15.039686421053709
18.680015295822994 -10.307262448239836 15.725388611644316
19.16190378599909 -10.883126361418972 16.407664534568518
19.53265450681801 -11.555503979379795 17.08904247835318
19.804329966196647 -12.313947857426795 17.768910874298033
19.99188597842676 -13.147910824689305 18.442570669486788
20.110643904864908 -14.047617247895333 19.102732425318642
20.173874204348007 -15.003019311819031 19.741680414778763
20.19138311889745 -15.998461103754662 20.353046150055505
LINES 1 76
75 0 1 2 3 4 5 6 7 8 9 10 11 12 13 14 15 16 17 18 19 20 21 22 23 24 25 26 27 28 29 30 31 32 33 34 35 36 37 38 39 40 41 42 43 44 45 46 47 48 49 50 51 52 53 54 55 56 57 58 59 60 61 62 63 64 65 66 67 68 69 70 71 72 73 74
POINT_DATA 75
SCALARS MaximumInscribedSphereRadius float
LOOKUP_TABLE default
1.2
1.2108108108108109
1.2216216216216216
1.2324324324324323
1.2432432432432432
1.2540540540540541
1.2648648648648648
1.2756756756756755
1.2864864864864864
1.2972972972972974
1.308108108108108
1.3189189189189188
1.3297297297297297
1.3405405405405406
1.3513513513513513
1.362162162162162
1.372972972972973
1.3837837837837839
1.3945945945945946
1.4054054054054053
1.4162162162162162
1.427027027027027
1.4378378378378378
1.4486486486486485
1.4594594594594594
1.4702702702702704
1.481081081081081
1.4918918918918918
1.5027027027027027
1.5135135135135136
1.5243243243243243
1.535135135135135
1.545945945945946
1.5567567567567568
1.5675675675675675
1.5783783783783782
1.5891891891891892
1.6
1.6108108108108108
1.6216216216216215
1.6324324324324324
1.6432432432432433
1.654054054054054
1.6648648648648647
1.6756756756756757
1.6864864864864866
1.6972972972972973
1.708108108108108
1.718918918918919
1.7297297297297298
1.7405405405405405
1.7513513513513512
1.7621621621621621
1.772972972972973
1.7837837837837838
1.7945945945945945
1.8054054054054054
1.8162162162162163
1.827027027027027
1.8378378378378377
1.8486486486486486
1.8594594594594596
1.8702702702702703
1.881081081081081
1.8918918918918919
1.9027027027027028
1.9135135135135135
1.9243243243243242
1.9351351351351351
1.945945945945946
1.9567567567567568
1.9675675675675675
1.9783783783783784
1.9891891891891893
2.0
SCALARS Curvature float
LOOKUP_TABLE default
0.0
0.05445705259531758
0.0205831465356395
0.02738876646003202
0.0644420012347723
0.11947397517574149
0.18854330124567348
0.24914618621303322
0.22720303932593533
0.16224860430089202
0.11617122882313646
0.09645821554489242
0.10046730176560006
0.10166333371449031
0.1012853080915261
0.09948450987297587
0.10416048539072581
0.13983006782524796
0.2231478653448639
0.35788244206636394
0.4811157400717435
0.461652606892803
0.3403151957350062
0.24897005571403652
0.19246894867186606
0.1479500774417598
0.10923442351707274
0.06118904312832201
0.05462563344855738
0.11436265884382071
0.16426389216067616
0.18924368504106684
0.1874527822099524
0.17048598292082667
0.15344315129119765
0.13602660251607296
0.11934009679326375
0.10638388962674543
0.09269984662440647
0.07719609126964232
0.07123336144247362
0.04641115877244784
0.02001965698371671
0.056780388836471136
0.07931359746517543
0.0931882520369896
0.09982522665105274
0.10112588235655588
0.09960432637025343
0.09048876454748332
0.0813680391449805
0.07759369025703665
0.07570765592061189
0.0715703612175392
0.06254247492291803
0.047333095312567644
0.02802718789349036
0.011702304591869658
0.016518771663183877
0.028278078241748227
0.03933189712421364
0.05183638267052466
0.06774248554345376
0.0875294851601258
0.11050689026999655
0.13377464181658202
0.15047443027494187
0.1520227667492627
0.13717135733992986
0.11323638069553697
0.08932798822439156
0.07015704504916752
0.056663216013319084
0.04683881959672472
0.0
SCALARS Torsion float
LOOKUP_TABLE default
0.0
0.0
0.8059195399191824
0.5338895891071452
0.14698253465474093
0.07055452688037551
0.05218645057763346
0.04471382989998378
0.1125024376152308
0.24467468469896883
0.2872769248885527
0.25567578138280483
0.06044812402102048
0.12864118171854888
0.17809092532602175
0.18093802570003265
0.30110415274049374
0.27963061960719493
0.16428716841035354
0.057377563812912785
0.037955467758562816
0.013770602029882006
-0.07421793449168654
-0.06598517615220503
-0.0069832942184739275
-0.0027204541232197666
-0.08754967997062094
-0.5594171565916365
-0.8226956060014861
-0.2691335291630397
-0.13615747211078347
-0.1112011146193942
-0.0921878245640315
-0.06611502055087422
-0.063322915187949
-0.08369292371407061
-0.07256627795356467
-0.016249571886424355
0.05038920457351226
0.13291292146308797
0.12685381609462987
-0.1448107792173594
0.9308978880221852
0.057674578438335344
-0.026058262709282055
-0.045901168960253605
-0.04061945003486795
-0.013099284559604997
-0.0383238276372257
-0.16414887970090014
-0.18319721240365447
-0.091354358063444
0.0078642890690791
0.07772448752504964
0.11822991830574767
0.15475829966489618
0.28712125246503517
0.8569622453826241
0.48710166176104147
0.13909838068190056
0.048959599162774606
0.009742910764842877
-0.013996842284126353
-0.03537863186684709
-0.05008130331120063
-0.052531687438158864
-0.04477161570344892
-0.0354673192955198
-0.022538408678439446
0.004532875914833357
0.04865035716513945
0.0940880166484905
0.11104792299271966
0.06675288100390968
0.0
