# vtk DataFile Version 2.0
Vessel Segment
ASCII
DATASET POLYDATA
POINTS 75 float
-6.906001639691285 20.72135345487433 -6.248524447426204
-7.362245184555683 19.650264281611673 -6.384907318073019
-7.905575416386997 18.592574748153776 -6.367188442501073
-8.5025838393653 17.574164694892723 -6.279363322974299
-9.120143050798093 16.616960354604835 -6.204537256533422
-9.724510232452465 15.73475787304056 -6.220501658711283
-10.2798670022882 14.928896525803582 -6.390779890180293
-10.747467750185761 14.188074964626058 -6.753984769468672
-11.085812538888272 13.497382087658728 -7.315419678090267
-11.261121028492166 12.838087103552828 -8.038695487867637
-11.259614808064164 12.192416601604444 -8.87304267831157
-11.093623245843125 11.550596852384253 -9.770187422900188
-10.787459515543585 10.909715404545453 -10.691122202756027
-10.373480444496117 10.269092230339922 -11.60302252451169
-9.869519767082624 9.62783231176104 -12.484195647119124
-9.290051208813631 8.991470004890413 -13.28727021753836
-8.668735066933484 8.364475664854837 -13.96162643838781
-8.0397521974287 7.751106047179902 -14.463920679912368
-7.435286663208931 7.167687306991949 -14.754830288006614
-6.887872419565789 6.635935699041618 -14.813216611390256
-6.42386505788792 6.1733927456792035 -14.639955053164421
-6.061063796587261 5.785102812080758 -14.253128795787545
-5.813637178271925 5.473300612037678 -13.685509386479316
-5.6792041872389385 5.242753051735555 -12.980042032024562
-5.650624000347695 5.098827591525074 -12.168032465795818
-5.718669288481759 5.044659507952623 -11.274273842870803
-5.8613058046465785 5.071788400744 -10.32128517107718
-6.040713100687456 5.154113020521771 -9.330934407983566
-6.208766836946328 5.2451866882268945 -8.324196321340905
-6.321319946733313 5.290040059445222 -7.317636263879214
-6.351450429995875 5.244554016226809 -6.327735960694247
-6.294077307345715 5.086149976739356 -5.373018985381554
-6.16185037098267 4.811461643244663 -4.468264819007244
-5.9713160339662625 4.423219972928219 -3.6153290407497987
-5.734702098899607 3.9216667870660857 -2.8077930612980744
-5.46470767086509 3.310220409733984 -2.0382279054613086
-5.177732144803973 2.6006930002554034 -1.3037659948616145
-4.888318117564045 1.810551408898802 -0.6130868455205212
-4.602035766494932 0.9587632084513823 0.0129257832390184
-4.314614336422073 0.059779561799078604 0.5524492847082839
-4.017094467636916 -0.8817148885029784 0.9927950710792672
-3.703160825994223 -1.8664292086237908 1.3342406985546325
-3.3749702134649247 -2.89261185120084 1.6009016935232274
-3.024100139871594 -3.9496288839542912 1.8423685877973277
-2.6349012466213257 -5.0131143232861675 2.103250477201194
-2.190058056272733 -6.05045913676995 2.4159783755854787
-1.6729406273158252 -7.029415381016036 2.797363689329261
-1.0696844417333877 -7.9239757944665605 3.2500203790943023
-0.3710514044304374 -8.717400271645994 3.7665563166160543
0.42626561960785664 -9.400005873214878 4.33068390103244
1.3202438980726914 -9.968883714936146 4.917406946844538
2.301649810864299 -10.424227118721872 5.505640696090783
3.351460409286308 -10.76175581478778 6.085451637956752
4.443106810745142 -10.972967690970433 6.6574145086804455
5.550357154209796 -11.052778477524047 7.22721916807854
6.65588410256914 -11.009065722041537 7.799650263305928
7.7541288024678305 -10.867366087177789 8.375967285132253
8.846863501486967 -10.667387577306652 8.95669276782212
9.936092048190106 -10.45358100199685 9.545706094839302
11.019309360953162 -10.264913566617674 10.150313160283142
12.088825927072852 -10.128178250814631 10.777682416897404
13.134454598166757 -10.056944271244017 11.429714083584747
14.146780202424823 -10.055169660199274 12.10131239907399
15.118119021489987 -10.123816129979982 12.783451368543265
16.040346339305234 -10.267036633224393 13.468408837518922
16.901798034454714 -10.49551430815706 14.152271546110223
17.686012912831828 -10.826233251446995 14.833357699112849
18.37420162188964 -11.276919994376739 15.50899314467387
18.950340774793236 -11.857848436081062 16.174132056705123
19.406498772812988 -12.564462106019661 16.82351874419317
19.744199565959054 -13.376103115865329 17.455264167129847
19.970111346664535 -14.259802320861054 18.07308113269533
20.090616157988663 -15.174076972532095 18.686097734452
20.11009719505167 -16.072729334627653 19.3075218463692
20.03089392923589 -16.906551517513307 19.952749372183636
LINES 1 76
75 0 1 2 3 4 5 6 7 8 9 10 11 12 13 14 15 16 17 18 19 20 21 22 23 24 25 26 27 28 29 30 31 32 33 34 35 36 37 38 39 40 41 42 43 44 45 46 47 48 49 50 51 52 53 54 55 56 57 58 59 60 61 62 63 64 65 66 67 68 69 70 71 72 73 74
POINT_DATA 75
SCALARS MaximumInscribedSphereRadius float
LOOKUP_TABLE default
1.2
1.2108108108108109
1.2216216216216216
1.2324324324324323
1.2432432432432432
1.2540540540540541
1.2648648648648648
1.2756756756756755
1.2864864864864864
1.2972972972972974
1.308108108108108
1.3189189189189188
1.3297297297297297
1.3405405405405406
1.3513513513513513
1.362162162162162
1.372972972972973
1.3837837837837839
1.3945945945945946
1.4054054054054053
1.4162162162162162
1.427027027027027
1.4378378378378378
1.4486486486486485
1.4594594594594594
1.4702702702702704
1.481081081081081
1.4918918918918918
1.5027027027027027
1.5135135135135136
1.5243243243243243
1.535135135135135
1.545945945945946
1.5567567567567568
1.5675675675675675
1.5783783783783782
1.5891891891891892
1.6
1.6108108108108108
1.6216216216216215
1.6324324324324324
1.6432432432432433
1.654054054054054
1.6648648648648647
1.6756756756756757
1.6864864864864866
1.6972972972972973
1.708108108108108
1.718918918918919
1.7297297297297298
1.7405405405405405
1.7513513513513512
1.7621621621621621
1.772972972972973
1.7837837837837838
1.7945945945945945
1.8054054054054054
1.8162162162162163
1.827027027027027
1.8378378378378377
1.8486486486486486
1.8594594594594596
1.8702702702702703
1.881081081081081
1.8918918918918919
1.9027027027027028
1.9135135135135135
1.9243243243243242
1.9351351351351351
1.945945945945946
1.9567567567567568
1.9675675675675675
1.9783783783783784
1.9891891891891893
2.0
SCALARS Curvature float
LOOKUP_TABLE default
0.0
0.1230667609884215
0.06884668523193377
0.039494712100662126
0.08466356617128357
0.16822083860734283
0.24066552458941956
0.2580671873524341
0.2205030862451194
0.1720808532597146
0.12817037151282337
0.09656276318663547
0.07332049155202779
0.06497526672973407
0.0771460788534686
0.09828997662095898
0.14365451515599473
0.23254354723909343
0.36770473270374915
0.49911424098492585
0.5155319831824676
0.42118738400794076
0.3014324646515445
0.21750938796270927
0.16095252578119218
0.10990011098274871
0.058129222464045276
0.015012288118493491
0.06968191095770032
0.12399717884003754
0.154840684996647
0.15988577045652383
0.14899646760151153
0.1311229965096787
0.10722704198736953
0.08427098214031145
0.0726378464950655
0.07391708154057658
0.08312419766153797
0.0924552794567481
0.09125297335477975
0.06738267639627736
0.02650179819636196
0.027235400529575588
0.05792406104686714
0.08395923699452083
0.10181889151167348
0.10942540322636964
0.10789752212757646
0.10065542939867475
0.09235509926410167
0.08658858053470211
0.08473082777861343
0.08474334229276596
0.07941745053598528
0.062879346066526
0.03711105210969085
0.01024960086904745
0.019147958843384986
0.03727003353721804
0.04796509885879735
0.05255135393320299
0.055664625565953814
0.06316084023473119
0.07934208450643111
0.10517896858510062
0.13424754685332163
0.15355206970529497
0.15205223877487375
0.13245943173109276
0.10748848292233643
0.08889552769934894
0.08528930424589394
0.10415587502245795
0.0
SCALARS Torsion float
LOOKUP_TABLE default
0.0
0.0
0.36604413951380116
0.8846161670271002
0.40296390609659927
0.17768636927503717
0.14711674851021805
0.16301368556537738
0.21930355058022036
0.22557743321801604
0.1831396438482902
0.14870596310549308
0.1639326398112324
0.13251618866187506
0.15517378474273788
0.196826021407519
0.15323318480046255
0.06734105425852992
0.03972602775877132
0.03457366795635431
0.061795697433058926
0.0769224951042267
-0.001730738011943525
-0.04470966883475818
-0.05443876150222187
-0.09450988461166988
-0.2779417736383294
-0.998708195472435
-0.1979611052106881
-0.08496073942508729
-0.07364457797591308
-0.09270845949129311
-0.10259191186785757
-0.09143648836643192
-0.10082476639743197
-0.1339269537669737
-0.09909912249113781
0.02287311202425857
0.0941914943205184
0.08742245550918862
0.049000646908977236
-0.013519486384758181
0.6101648869067063
0.6659856698934834
0.11375010585780265
-0.002576103865736229
-0.044142043341783496
-0.06096184995839394
-0.07958710444877981
-0.11280198733281703
-0.08586683151854942
-0.00017621328551178927
0.08093425732277262
0.10431203014470253
0.08042576849555033
0.044220123175556944
0.05487774333364098
0.8641169293504767
0.3746393543768051
0.042608062972320726
-0.002285363501493609
0.009602050491205109
0.036017895652267484
0.03365584115426671
0.007296321123227693
-0.006798632015433345
-0.005613927951474811
-0.00228261975788882
-0.00920129548001116
-0.036776459319055765
-0.10632583828302128
-0.22948075901033285
-0.32364843719265307
-0.28839694174356556
0.0
