# vtk DataFile Version 2.0
Vessel Segment
ASCII
DATASET POLYDATA
POINTS 75 float
-5.62838661878425 22.066449529936023 -6.110429222367505
-6.183568042532596 21.054277645573645 -6.097899178796972
-6.7983663398782035 19.98586689301954 -5.957636494137844
-7.4489565206503165 18.902339064643165 -5.764005291288342
-8.112465737163761 17.83910523999679 -5.589161152472584
-8.764767830285134 16.825832275699028 -5.503631336917483
-9.380678524718189 15.883157757661944 -5.572204662738415
-9.933572303432266 15.01773646680443 -5.848021012917818
-10.389593787064445 14.230714621142875 -6.363921726471177
-10.718767156071163 13.50281210932405 -7.082782208534417
-10.905849458239036 12.791171903318302 -7.939079381466387
-10.946125537934734 12.065351510538463 -8.870242132231088
-10.834853107714034 11.311922876582845 -9.827832237352643
-10.554171456223902 10.552488647026054 -10.794645104011149
-10.10849838818261 9.812962673613029 -11.737051185893492
-9.516193520825327 9.10333313129181 -12.629573529214573
-8.812285379469369 8.431179386379831 -13.457035212315944
-8.038698303077576 7.785561843159346 -14.195826987290603
-7.239616022668021 7.152772737087628 -14.793761975710343
-6.4644921771737485 6.523754317093034 -15.18139086327028
-5.767862738525283 5.897402783731159 -15.286628961774676
-5.223436104261401 5.285726960093471 -15.046482233267302
-4.906105647171283 4.74233402686308 -14.470944924891391
-4.810616118443916 4.31319739564733 -13.65723450442497
-4.9001475230218725 4.018839417094214 -12.688366958579696
-5.136582614715535 3.86574331615196 -11.635969618729085
-5.473268950013225 3.8433498354848727 -10.555547897516627
-5.861541726120376 3.9291438787300583 -9.482129934671686
-6.25236293459676 4.081790633596294 -8.433310413586888
-6.606839828756484 4.243850705277831 -7.405841783607562
-6.9010229088095265 4.352980882741186 -6.39023756620566
-7.121317884516611 4.349280664390935 -5.382360368417015
-7.260374276911456 4.182943973663316 -4.3892761255210555
-7.316272567757077 3.827364488186999 -3.4278595846550877
-7.2864560853923495 3.2791775675681984 -2.514318129854453
-7.16761509860316 2.549030590537637 -1.669309042821914
-6.97145077060024 1.6676935288684773 -0.9170501916417684
-6.717124595223852 0.6771045449907112 -0.27152022183591806
-6.418292845568383 -0.3822498327908939 0.2616573067454409
-6.079738232474302 -1.4760209181305939 0.6851389693313747
-5.696010265009813 -2.580437189827453 1.0064635126567363
-5.258475484546611 -3.680199612204358 1.2233965241825533
-4.778572480634843 -4.764990078023248 1.354919857258112
-4.238675666437859 -5.826714619257875 1.4662217540652671
-3.614958995851607 -6.84448784043975 1.6001425324337448
-2.894717870014199 -7.788361893427439 1.7881948342137481
-2.0761835817089147 -8.628585399861757 2.053311661801104
-1.1688291074925377 -9.343419785479448 2.408769082918692
-0.19067927816860852 -9.922123259705522 2.860048967843552
0.837530764902868 -10.35720146856743 3.3981933445702452
1.902037295121034 -10.651041608052154 3.9887515746078224
2.9952384333192033 -10.816930153329768 4.599561929448555
4.1097652327263505 -10.866897039853795 5.2125578091211136
5.236281405226469 -10.811139501911482 5.822244626447093
6.363314424929736 -10.660674353975525 6.433122837070971
7.479080996774948 -10.42838080992556 7.055440995298379
8.575086200671505 -10.130376680766815 7.698939378432394
9.649003191435904 -9.788455227552086 8.368060358822442
10.704274824160848 -9.431182222249861 9.061749839047646
11.745591424349232 -9.091003038723912 9.775767930517317
12.77307156887863 -8.801089437598907 10.50482727228582
13.778795668190082 -8.59381936430832 11.244313394349426
14.74640910737532 -8.498555031092073 11.991549714754816
15.652790905480437 -8.537917323428541 12.746215350774943
16.471922312262212 -8.723484678511364 13.509062682991198
17.181775175529584 -9.05462839120817 14.278521891158473
17.771677658447278 -9.521378944172715 15.04752715721487
18.24497906794237 -10.108592654495183 15.804569334382341
18.615755970578185 -10.799029782036385 16.53807775043277
18.90296127546064 -11.57496295343665 17.24111186608748
19.126081266654506 -12.41958000872751 17.91294252687002
19.30331228340575 -13.318452365978644 18.558693266792215
19.449792759034914 -14.260435460998446 19.187768177852536
19.575106313344648 -15.235447590881737 19.811330581190465
19.683802867234093 -16.227499302578227 20.441352763430196
LINES 1 76
75 0 1 2 3 4 5 6 7 8 9 10 11 12 13 14 15 16 17 18 19 20 21 22 23 24 25 26 27 28 29 30 31 32 33 34 35 36 37 38 39 40 41 42 43 44 45 46 47 48 49 50 51 52 53 54 55 56 57 58 59 60 61 62 63 64 65 66 67 68 69 70 71 72 73 74
POINT_DATA 75
SCALARS MaximumInscribedSphereRadius float
LOOKUP_TABLE default
1.2
1.2108108108108109
1.2216216216216216
1.2324324324324323
1.2432432432432432
1.2540540540540541
1.2648648648648648
1.2756756756756755
1.2864864864864864
1.2972972972972974
1.308108108108108
1.3189189189189188
1.3297297297297297
1.3405405405405406
1.3513513513513513
1.362162162162162
1.372972972972973
1.3837837837837839
1.3945945945945946
1.4054054054054053
1.4162162162162162
1.427027027027027
1.4378378378378378
1.4486486486486485
1.4594594594594594
1.4702702702702704
1.481081081081081
1.4918918918918918
1.5027027027027027
1.5135135135135136
1.5243243243243243
1.535135135135135
1.545945945945946
1.5567567567567568
1.5675675675675675
1.5783783783783782
1.5891891891891892
1.6
1.6108108108108108
1.6216216216216215
1.6324324324324324
1.6432432432432433
1.654054054054054
1.6648648648648647
1.6756756756756757
1.6864864864864866
1.6972972972972973
1.708108108108108
1.718918918918919
1.7297297297297298
1.7405405405405405
1.7513513513513512
1.7621621621621621
1.772972972972973
1.7837837837837838
1.7945945945945945
1.8054054054054054
1.8162162162162163
1.827027027027027
1.8378378378378377
1.8486486486486486
1.8594594594594596
1.8702702702702703
1.881081081081081
1.8918918918918919
1.9027027027027028
1.9135135135135135
1.9243243243243242
1.9351351351351351
1.945945945945946
1.9567567567567568
1.9675675675675675
1.9783783783783784
1.9891891891891893
2.0
SCALARS Curvature float
LOOKUP_TABLE default
0.0
0.07805386691115702
0.03252128538047378
0.01728213573032792
0.059864918460865675
0.12415525222195731
0.1973630819364064
0.24197350654077704
0.20476394037340834
0.14444783465398883
0.10923608627031277
0.09826228266210695
0.10196948190730637
0.1010330452475312
0.0947398444902684
0.08223467986806908
0.07260772497589356
0.09294951534963619
0.16320562190893337
0.30354032721333724
0.47653524480260795
0.4993266704515607
0.3555488825487166
0.23420498380455396
0.16675948022532608
0.12280184900006974
0.0902206897199682
0.05487844976162426
0.02548274670235407
0.06529355606067676
0.12443463642875031
0.17471965951533236
0.1937045542699527
0.1807199360312627
0.15712191689023355
0.13070099265003096
0.10705415930064674
0.09158298252285794
0.08139940600163009
0.07614167762233037
0.08095813966804699
0.06752220592883319
0.04693188967296075
0.06706634911724205
0.09165484399060636
0.11147999930042814
0.12074220276697799
0.11899856603850732
0.11199905277665738
0.09745871680773202
0.08221183566287965
0.07202047384466868
0.06414246036480234
0.05633004701024583
0.04902595507155708
0.04179466607963095
0.03203958258171122
0.01995922099900966
0.017350279574733573
0.0313910283436872
0.05145282659434519
0.07538356281329146
0.10245521038131628
0.1290905708913167
0.14885187502399255
0.1550630703749536
0.1460377825117173
0.12657052136672683
0.10301379198765492
0.07954128525978073
0.05776574864846651
0.038911305416398846
0.024089376138255705
0.013323087431455362
0.0
SCALARS Torsion float
LOOKUP_TABLE default
0.0
0.0
0.40514619513562367
0.9017360274412777
0.16656501170077986
0.07352028010180689
0.0662512457136468
0.07831651589751572
0.17065285073439942
0.31818491638467655
0.32846395911543663
0.21907421669743024
-0.0303049355480412
0.0019496723855103142
0.04082415085475901
0.031737271911867135
0.21702025764863409
0.27688199417483494
0.16996014684456065
0.09297916406268797
0.07473522870239253
0.04231486051586402
-0.025143483287908976
-0.06928002164076566
-0.06376821539545727
-0.09356046381472473
-0.16447864423070713
-0.4007149275886354
-0.9616530672451411
-0.35062786852785244
-0.14259504426758238
-0.08606715692611074
-0.052928466130999156
-0.00857676182197619
0.013225602214181618
-0.019104505699286577
-0.029910248721855544
0.0015721112268158623
0.05869222462750522
0.1213589698715021
0.08600348811324249
0.03418425551459776
0.6865019137745241
0.2923278256514111
0.12096841696105098
0.06782320953106298
0.04991322333075938
0.05012129516745527
0.008741810708435674
-0.11088070795447066
-0.14295965554321405
-0.08813331700999819
-0.008716968746849185
0.07825482630582851
0.15352046442023487
0.18765212143549895
0.22874962837762985
0.48549509434058247
0.6454266213200371
0.2353427155323678
0.06621336695947039
-0.002276022005602077
-0.03867616359593742
-0.05879954226977079
-0.05718226469208183
-0.028280896412070943
0.016206242110432614
0.05687661525148276
0.07533782831058332
0.07511367477349648
0.0666363852524436
0.03808329441811585
-0.10605332442053268
-0.6577663660568297
0.0
