# vtk DataFile Version 2.0
Vessel Segment
ASCII
DATASET POLYDATA
POINTS 75 float
-4.182559027655099 20.4015145274623 -6.764369358861805
-4.628560791330244 19.345819070389567 -6.603625153767159
-5.206839480244979 18.31756877088755 -6.3758845494364165
-5.874215554140673 17.33438146622879 -6.1277046569492315
-6.589531358336867 16.41399073024872 -5.911606128104838
-7.311541188807186 15.568490782821357 -5.7895459657429935
-7.997471597154541 14.801559522617886 -5.823935956722123
-8.60740987284555 14.10676909374264 -6.056661671062708
-9.119348558216144 13.457495895398154 -6.485265315184892
-9.529227791588054 12.82240369914521 -7.105017406624789
-9.82843912102686 12.18852082177373 -7.886663214845487
-9.994452504880877 11.552130588986362 -8.777604074254509
-10.010987651134231 10.924315191349464 -9.716321305429267
-9.878506315958981 10.310510822760062 -10.655812588889376
-9.610905249998561 9.70711308176534 -11.56605002543711
-9.24062307611951 9.097366945297347 -12.426220472702303
-8.806841159104378 8.461526261087863 -13.191888743063442
-8.369909600332427 7.797405720108368 -13.800706187814297
-7.998038720849139 7.11617868766617 -14.201830811211563
-7.742531409721724 6.446506242714866 -14.360604487881941
-7.624662185601999 5.84385647906353 -14.262655956976225
-7.616375295536366 5.387101421845744 -13.949767003971392
-7.644723967036634 5.098082240153697 -13.483976108325603
-7.692296407722077 4.972690468191374 -12.870657084974942
-7.766071510487575 5.008086121326196 -12.129310258017343
-7.863210351158849 5.182343784381498 -11.28625077181856
-7.973066437874775 5.447671301850753 -10.367002787871444
-8.07468210234604 5.734311673543126 -9.396841658516763
-8.137104974400469 5.958571044579425 -8.399845476790183
-8.128448080646622 6.048338408153338 -7.391861137890509
-8.02453945775666 5.958857517651954 -6.390721293606915
-7.815902931673856 5.6738409535854855 -5.423245565473376
-7.512269650678008 5.20145642045342 -4.524470261263577
-7.138401953011877 4.565502486252158 -3.726530734969317
-6.728315230387512 3.7966599490768873 -3.055007167199033
-6.322837084868584 2.933201462064033 -2.514874570257824
-5.946743901259206 2.000927755901164 -2.086663704112097
-5.608486543310985 1.0129198609856533 -1.7473146049966113
-5.306402723099862 -0.019573482811262904 -1.47090237480736
-5.029792985236085 -1.0847550561397805 -1.2269763646559495
-4.762974560033048 -2.168538873644064 -0.976511797065961
-4.483679911076076 -3.257985345517216 -0.6596005519106483
-4.145315923795233 -4.342239768654619 -0.2392094904882859
-3.741065614194638 -5.404764450850447 0.26259304828422103
-3.274677696144033 -6.431569878717184 0.8342977480765374
-2.7420247326133658 -7.408493799186517 1.4591711867946866
-2.1356324973921184 -8.3148532838439 2.1181477115875724
-1.4485279692744821 -9.123149820443333 2.7940049975942114
-0.6767910656865859 -9.807956768363978 3.4689132353970473
0.18003053998955337 -10.363089446571992 4.1306990390079745
1.1158771274696762 -10.79095801358528 4.787029346956197
2.1210638173241505 -11.091702864197998 5.439682084704118
3.1841827125710696 -11.26839026145138 6.082220218653463
4.289196281833932 -11.32330662605457 6.710558732880613
5.415220195272223 -11.25903537504212 7.326079963505238
6.5417426637016725 -11.084996039726947 7.932881006700262
7.654586855287066 -10.823149423361516 8.535398204463714
8.748430461634532 -10.505911479629559 9.13824907620497
9.825781643560388 -10.167459025105948 9.745853452130069
10.894369694772383 -9.83730429398515 10.362188159251865
11.965134441094497 -9.537939384819989 10.990411311135631
13.048907674164914 -9.287049173297198 11.631961961795765
14.15136315430817 -9.101476681282188 12.286873959426961
15.267916714795454 -8.999469717051273 12.954726426213227
16.380429185243887 -9.001055367755058 13.635154782906863
17.45670826015347 -9.126843696993351 14.327016850691438
18.45392190642461 -9.396316693735898 15.027782638384885
19.325952681196426 -9.824750102097779 15.733897443265873
20.03366712554771 -10.418185183389019 16.441576607560723
20.555076095225473 -11.169783165765768 17.147294695919637
20.89112225980381 -12.058176780493236 17.84662183174235
21.06290419230957 -13.046361207251472 18.533007460232792
21.11131473854549 -14.076099026651905 19.200472976086395
21.102448591685565 -15.077995661211666 19.84796817434349
21.115614759833967 -15.995302052830558 20.47478046804737
LINES 1 76
75 0 1 2 3 4 5 6 7 8 9 10 11 12 13 14 15 16 17 18 19 20 21 22 23 24 25 26 27 28 29 30 31 32 33 34 35 36 37 38 39 40 41 42 43 44 45 46 47 48 49 50 51 52 53 54 55 56 57 58 59 60 61 62 63 64 65 66 67 68 69 70 71 72 73 74
POINT_DATA 75
SCALARS MaximumInscribedSphereRadius float
LOOKUP_TABLE default
1.2
1.2108108108108109
1.2216216216216216
1.2324324324324323
1.2432432432432432
1.2540540540540541
1.2648648648648648
1.2756756756756755
1.2864864864864864
1.2972972972972974
1.308108108108108
1.3189189189189188
1.3297297297297297
1.3405405405405406
1.3513513513513513
1.362162162162162
1.372972972972973
1.3837837837837839
1.3945945945945946
1.4054054054054053
1.4162162162162162
1.427027027027027
1.4378378378378378
1.4486486486486485
1.4594594594594594
1.4702702702702704
1.481081081081081
1.4918918918918918
1.5027027027027027
1.5135135135135136
1.5243243243243243
1.535135135135135
1.545945945945946
1.5567567567567568
1.5675675675675675
1.5783783783783782
1.5891891891891892
1.6
1.6108108108108108
1.6216216216216215
1.6324324324324324
1.6432432432432433
1.654054054054054
1.6648648648648647
1.6756756756756757
1.6864864864864866
1.6972972972972973
1.708108108108108
1.718918918918919
1.7297297297297298
1.7405405405405405
1.7513513513513512
1.7621621621621621
1.772972972972973
1.7837837837837838
1.7945945945945945
1.8054054054054054
1.8162162162162163
1.827027027027027
1.8378378378378377
1.8486486486486486
1.8594594594594596
1.8702702702702703
1.881081081081081
1.8918918918918919
1.9027027027027028
1.9135135135135135
1.9243243243243242
1.9351351351351351
1.945945945945946
1.9567567567567568
1.9675675675675675
1.9783783783783784
1.9891891891891893
2.0
SCALARS Curvature float
LOOKUP_TABLE default
0.0
0.09751584762680593
0.0681226163254584
0.057788572430971866
0.08204731934756848
0.15088690691423653
0.23536578035970634
0.2523004224125541
0.21216416897814944
0.1575482928892529
0.127909092990426
0.11991949546572542
0.11639445981187474
0.109203468511189
0.09135986472219437
0.09631294670630769
0.1392602092468462
0.24236770892606427
0.43082015825841985
0.6421647319499989
0.7257099453599739
0.6347806121392873
0.44821802681656303
0.2716662578178241
0.15299771505669396
0.07145300843799376
0.014457503797381713
0.07404550587931696
0.14782588113319392
0.19549517708924116
0.20452483292984772
0.1888691961653689
0.16725117472398168
0.15140838080039673
0.13381394350301867
0.11221694241203088
0.09176962854582897
0.06770004607030777
0.039036660830067314
0.010897576574855107
0.045778480384331105
0.07436286800440224
0.0651968966322903
0.06048124941113465
0.059669695561927506
0.06616935801626027
0.08056153254075009
0.09760571640931709
0.10467617018171203
0.09991332118188197
0.09334053483112766
0.0853672522828342
0.07846829516639847
0.07275652796842633
0.06560141875876932
0.05317023944132051
0.03522280653559308
0.016186376954041223
0.008544129619245605
0.020277704074770038
0.0310876401744222
0.0404543416701559
0.04978664295088202
0.06129953189649627
0.07808392968486416
0.1035882493097197
0.13776518075546879
0.16999087611045408
0.18061495328762533
0.16084817721535877
0.12516961100513335
0.08602546486073334
0.04041953326880778
0.031027214832796166
0.0
SCALARS Torsion float
LOOKUP_TABLE default
0.0
0.0
0.2609002200886566
0.47023155273543693
0.41026117389547817
0.23135035978014376
0.15369530519355484
0.16254226906067326
0.1288440426967524
0.13766377697888602
0.2100801626143783
0.15857821403152678
0.12647241785135613
0.1276264955785516
0.25212920208839923
0.38461582766166197
0.3322726052470047
0.25088893992126726
0.1311975400103964
-0.002194684732480856
-0.19598396910090438
-0.49075233874783397
-0.1390680045294863
0.07777784935715118
0.018003019315188093
-0.08496774995600596
-0.9993741780661309
-0.18428177628298426
-0.02878330459891479
0.005577085240121515
0.008030226573503054
-0.012859106111481137
-0.043833086365409356
-0.08035168577971499
-0.144104984597465
-0.1646374945603588
-0.13214432942625004
-0.12523596921350222
-0.19353020114248093
-0.9900560955535798
-0.19254388945537226
-0.16977599494223536
-0.15174396321627817
-0.03599581446096346
-0.10890795576473566
-0.11084902798366313
-0.0642108061825096
-0.04705796095094548
-0.043134771727461725
0.04593554296603546
0.03365822025729104
-0.006054888861192195
0.021324122732007324
0.06942946312064183
0.09010935181744795
0.09759630904669529
0.15147674450484022
0.48362620522961125
0.9039200568794753
0.22050273789166053
0.09211136327686809
0.038201025375362775
-0.010612271598714591
-0.04858351707146089
-0.06472638312060697
-0.062075819122649534
-0.051346588493385664
-0.0411848022489906
-0.03270166384320483
-0.023908495408993233
-0.02349930017032746
-0.07977774063050033
-0.4683392886380475
-0.7846730744567619
0.0
