# vtk DataFile Version 2.0
Vessel Segment
ASCII
DATASET POLYDATA
POINTS 75 float
-4.986047797199742 20.989596490467132 -9.147421134412243
-5.357370998102062 20.201149631963947 -9.034108540179494
-5.873501694570278 19.3743685989886 -8.880946880880636
-6.487782120409207 18.534379514963465 -8.732691892684906
-7.153208292981573 17.708406889436134 -8.632743045710631
-7.824216265804269 16.921417771818987 -8.620651535633026
-8.458467469618666 16.190767360471185 -8.726472601644673
-9.019891882607212 15.519693987473403 -8.959728898165432
-9.487312355594943 14.881254996933711 -9.300399411172915
-9.849327440724352 14.24323419206036 -9.74377125004839
-10.094200822936829 13.598854943491917 -10.282346334907722
-10.221114661100707 12.938223936429928 -10.893076435853596
-10.232467206341896 12.2540494260804 -11.546933419945114
-10.134371017053958 11.546129441893648 -12.214059173239137
-9.932854356630898 10.816063578850624 -12.864487814498125
-9.64607927998904 10.06803989720406 -13.448152009213423
-9.317355207564093 9.308472482477224 -13.903315715209205
-9.000630459747862 8.55084642166729 -14.160903892415284
-8.746417022527615 7.830651120627999 -14.15405084317261
-8.590569493169541 7.205428664666071 -13.845169058147416
-8.542622974266529 6.739952518596384 -13.249836999823932
-8.571868424498627 6.472851847258589 -12.434311475886945
-8.652563863567211 6.380912768879564 -11.461238621419417
-8.762486580740987 6.426165521669062 -10.419231027390929
-8.855745116045876 6.552408091972307 -9.384705720528729
-8.892851474373531 6.691346165891833 -8.396997349321332
-8.844848344478455 6.772315227848766 -7.467631006478561
-8.69433707683524 6.72334715198309 -6.581585361602682
-8.44820828238635 6.496762840131648 -5.704934099116884
-8.124068499552953 6.065752572111697 -4.832941560179132
-7.745627937386912 5.415453941372986 -3.991314357416629
-7.3435620405843025 4.549591730007187 -3.222523201341491
-6.949631891702384 3.4960383227343788 -2.5689690994714747
-6.591294411188408 2.3047586528330797 -2.0572994806659395
-6.289535443469515 1.0381485749851975 -1.6865930746562756
-6.050723084125359 -0.24746586039683546 -1.4252782682549612
-5.857746532087917 -1.5184483611404223 -1.2248156221372914
-5.679866841870881 -2.755759322621098 -1.038614504588174
-5.480479253328892 -3.942185548786661 -0.8249407916430452
-5.2218418236315145 -5.062153209108844 -0.5498246138081482
-4.873196349520395 -6.10460755203434 -0.1923375471389564
-4.408511218783773 -7.0622182388365475 0.2647635755975145
-3.791912381266707 -7.925304325185157 0.8106150622150274
-3.0292602115043294 -8.673897580070227 1.3860402309829867
-2.1377168902788486 -9.288848018026506 1.9553245903707857
-1.1363137188194303 -9.750778040705583 2.501380464048075
-0.051216029585976736 -10.043923576808801 3.0224905690108153
1.0853807588754487 -10.16216052449032 3.528439254558788
2.240071988334426 -10.114705365480242 4.029943888732676
3.384736292743407 -9.933699947945277 4.53760888130406
4.498653282557183 -9.65709084931441 5.068561388408675
5.569696799374506 -9.31349804665409 5.625045020803659
6.595568076503552 -8.927915806946073 6.195026210166136
7.580689763020535 -8.522109864633975 6.765445120366769
8.531713567774375 -8.115007194492081 7.3308435909897405
9.455194599442951 -7.7228002427963425 7.8946731244325745
10.356822252397288 -7.3599310326364 8.466152007980316
11.241769148915607 -7.04232110712664 9.056096001784667
12.11461220920935 -6.792036040858547 9.672982545654552
12.977054626941278 -6.639340767287063 10.320282971453597
13.8242871252757 -6.620461634617168 10.994332682142918
14.641198142611465 -6.770557900938838 11.683913891929928
15.40074184432155 -7.114967246784186 12.372467232823817
16.065974915941613 -7.662250776189522 13.04274808200377
16.59680557383355 -8.40142194726716 13.681866505031714
16.9605813122081 -9.304756972791196 14.283807919572926
17.14365394540516 -10.334369769864852 14.848124579702759
17.15869169760843 -11.44840326107307 15.377561414489122
17.044537279897433 -12.60410112117334 15.876705448169451
16.856082080648815 -13.759863546898059 16.353047099844556
16.64884380553824 -14.878492251201994 16.81695950784554
16.46791549794744 -15.931926316483203 17.280682561510954
16.3443898205349 -16.9057608824413 17.754978171204414
16.29984989173106 -17.79383381362245 18.246914441728332
16.355706240962714 -18.597461410513016 18.761529633143297
LINES 1 76
75 0 1 2 3 4 5 6 7 8 9 10 11 12 13 14 15 16 17 18 19 20 21 22 23 24 25 26 27 28 29 30 31 32 33 34 35 36 37 38 39 40 41 42 43 44 45 46 47 48 49 50 51 52 53 54 55 56 57 58 59 60 61 62 63 64 65 66 67 68 69 70 71 72 73 74
POINT_DATA 75
SCALARS MaximumInscribedSphereRadius float
LOOKUP_TABLE default
1.2
1.2108108108108109
1.2216216216216216
1.2324324324324323
1.2432432432432432
1.2540540540540541
1.2648648648648648
1.2756756756756755
1.2864864864864864
1.2972972972972974
1.308108108108108
1.3189189189189188
1.3297297297297297
1.3405405405405406
1.3513513513513513
1.362162162162162
1.372972972972973
1.3837837837837839
1.3945945945945946
1.4054054054054053
1.4162162162162162
1.427027027027027
1.4378378378378378
1.4486486486486485
1.4594594594594594
1.4702702702702704
1.481081081081081
1.4918918918918918
1.5027027027027027
1.5135135135135136
1.5243243243243243
1.535135135135135
1.545945945945946
1.5567567567567568
1.5675675675675675
1.5783783783783782
1.5891891891891892
1.6
1.6108108108108108
1.6216216216216215
1.6324324324324324
1.6432432432432433
1.654054054054054
1.6648648648648647
1.6756756756756757
1.6864864864864866
1.6972972972972973
1.708108108108108
1.718918918918919
1.7297297297297298
1.7405405405405405
1.7513513513513512
1.7621621621621621
1.772972972972973
1.7837837837837838
1.7945945945945945
1.8054054054054054
1.8162162162162163
1.827027027027027
1.8378378378378377
1.8486486486486486
1.8594594594594596
1.8702702702702703
1.881081081081081
1.8918918918918919
1.9027027027027028
1.9135135135135135
1.9243243243243242
1.9351351351351351
1.945945945945946
1.9567567567567568
1.9675675675675675
1.9783783783783784
1.9891891891891893
2.0
SCALARS Curvature float
LOOKUP_TABLE default
0.0
0.10740875952316467
0.06587608051950432
0.06141969804727805
0.08615777756084125
0.13097933746902488
0.17856090902553648
0.18997380613572873
0.1973647720484272
0.19098931066211097
0.15872207438919245
0.12995346310352815
0.11091713380939715
0.10379440050865339
0.11126131162369754
0.14493441807820173
0.24709551638130414
0.4309771724342088
0.5698560177254346
0.5113199960641183
0.34707946165060666
0.1983372371546505
0.12278843622471355
0.07568044820071616
0.05785841093448268
0.11724034234801506
0.20691521239893793
0.21583561332249196
0.17983039547585672
0.14999992556454136
0.13111765616535953
0.11788953439810378
0.10582913790635147
0.0916511127265513
0.07120097952400994
0.04211912064768005
0.008443582783929024
0.030813931529817325
0.07297049879886848
0.1070038708001867
0.12907951253791808
0.134914339098758
0.1246586192304654
0.12243983108744738
0.12387526471852502
0.12229523161746629
0.11560263514860504
0.10384235632727064
0.08319548881344065
0.0643343596865936
0.052805683231752554
0.03959970615943149
0.025450320704760804
0.012895876570951096
0.010729914257662196
0.023144377024394237
0.03972136378342898
0.06038747983333097
0.0863482498748432
0.11655690833954167
0.14657513376874134
0.17061098619600054
0.1842404306468908
0.1853750382680785
0.17386479565229723
0.15066046463986302
0.11895074406394418
0.0835745215835212
0.04856596548625508
0.01672749204297945
0.022822423835750942
0.05583267818976227
0.09172718636946149
0.13290424159124495
0.0
SCALARS Torsion float
LOOKUP_TABLE default
0.0
0.0
0.4928493532916644
0.4994485401887899
0.3036825888635938
0.18762424571961542
0.17374576106628395
0.3072318987509358
0.23323104059844915
0.109549577330619
0.18364405057665323
0.22602821443351448
0.2089978821911787
0.19983751171204323
0.30617442729869104
0.36528027850027794
0.2519516083980552
0.11459365912197234
0.02886072050270143
-0.0367568837074292
-0.13627933403589626
-0.07528343319542968
-0.050274110884191855
-0.49351217250602025
-0.8439048425821223
-0.431221023275266
-0.21767205475819582
-0.17912377615030511
-0.13441986676266846
-0.09422288995209022
-0.06821014513188671
-0.046102280596886556
-0.037390608953666825
-0.05904982650774683
-0.10730340532600872
-0.15332563489149428
-0.6907298658170927
-0.03726955339650917
-0.030388836352214045
-0.033636235015977824
-0.02081030413051086
-0.11963788429954844
-0.1945682867283091
-0.08511269462617106
-0.009033056535864337
0.052442653717965096
0.09820564399868233
0.10767242897758561
0.13609351304156625
0.25859593469360354
0.18171196888704647
0.05457679600180457
-0.005483346367198091
0.3702092317625753
0.7635658603064903
0.19760350609177846
0.07077420427169007
0.06745134484486688
0.06599769878680108
0.05292062927137455
0.030575206477934044
0.0026117991570118633
-0.029595550949770292
-0.06019561332110273
-0.07856885012213269
-0.07705051734908472
-0.06272651732754714
-0.048883141253375964
-0.0874935972372138
-0.7339777259059623
-0.5563819480097159
-0.11148929293579801
-0.057421579111227666
-0.07003938020086647
0.0
