# vtk DataFile Version 2.0
Vessel Segment
ASCII
DATASET POLYDATA
POINTS 75 float
-4.877019281628192 21.205226123405765 -5.694908306918245
-5.341600777178928 20.087207858308872 -5.666696809075647
-5.931421666488789 18.994531220279914 -5.488225435658062
-6.604887920854638 17.94649848350342 -5.248369019542909
-7.319796919761143 16.961052735706094 -5.038903799235801
-8.033268211445382 16.050844498556398 -4.950528819564584
-8.702451595238264 15.218384617919376 -5.061531577917698
-9.288097133205031 14.45335872132496 -5.420604104308768
-9.75940853705153 13.735040658761406 -6.0329145253744745
-10.096713606909178 13.038462045007037 -6.860776919158721
-10.29003730053119 12.343357669531825 -7.833164452949218
-10.342536546501446 11.638220467595222 -8.869736381658369
-10.257556733035278 10.924530724668184 -9.912532541061646
-10.03698739536261 10.205462336378902 -10.921668124559183
-9.677956256422835 9.483090781574568 -11.889259956900204
-9.189620888513305 8.76154054936643 -12.807173565867153
-8.606791921145884 8.03422830583457 -13.653833707686642
-7.981824912182602 7.2919866165254135 -14.390696958247366
-7.374264434107279 6.535025814045985 -14.962522909356327
-6.840325081704711 5.780111205126869 -15.306400525686225
-6.425224481810132 5.0639297641372005 -15.367261193169128
-6.15333752253508 4.441291858144922 -15.131942128307271
-6.002723042862566 3.9552060414119894 -14.63849655202616
-5.971088347958938 3.6310182966417766 -13.911988737868793
-6.069776712034816 3.488202798603495 -13.013751465580091
-6.281596933224312 3.5241988684349805 -12.016289911944481
-6.570074602486862 3.7127608045234446 -10.973269421040058
-6.887936377349735 4.011444290619262 -9.919575488425169
-7.180215149985116 4.352600591834142 -8.880258494448128
-7.4009477672062385 4.660259266638752 -7.858914542062506
-7.525935489196353 4.8698632259306995 -6.852325072641512
-7.5529349550238605 4.9333302694635215 -5.861150237632525
-7.494685458487802 4.819297051850722 -4.894853726665781
-7.370621546927058 4.515218545321282 -3.9708353631978754
-7.199043097797794 4.025327519330265 -3.1078067952154336
-6.995046423772651 3.366622679971329 -2.3206382082915042
-6.770868838366337 2.5631395631765352 -1.618630663959828
-6.536897836248892 1.642086744139148 -1.0074942106174405
-6.299606718606398 0.6320522007813144 -0.4871569914079243
-6.057217497102449 -0.4409140584038246 -0.04913343929882817
-5.798399474599234 -1.5554329793701163 0.32408300221137776
-5.50474525161711 -2.6928306169041756 0.6590297972544279
-5.153592122388396 -3.8333030274613327 0.986811497776543
-4.724254798863814 -4.951856111205983 1.3359060298829217
-4.199003069127422 -6.017232259597163 1.7284886609832084
-3.564293358764569 -6.994701009737522 2.1750992434098673
-2.8133661400223597 -7.851057407756411 2.6753177882159878
-1.948154174590297 -8.561402617389705 3.2213135722737944
-0.9800632918814822 -9.114868382864605 3.8018711284274467
0.07218064507815826 -9.514689315627557 4.403718903142759
1.1878110652497058 -9.772913901124603 5.0124599477882334
2.348225822780197 -9.903864856440292 5.614298320128552
3.537255765011073 -9.920149057757467 6.200270801902363
4.739706492807884 -9.832446600052217 6.769197039447977
5.941729309356938 -9.652455736535433 7.326564017023075
7.133070627167879 -9.396384426755256 7.8811844696571445
8.309418067465867 -9.087385142578357 8.4418983462761
9.472876687129318 -8.755382273451884 9.015521875317468
10.629310290659975 -8.434930895833878 9.605379440835952
11.783925614013759 -8.1636963914836 10.2113157551909
12.937862226739737 -7.9790225799243215 10.830794293322194
14.085318289007333 -7.913759615510253 11.460072946078043
15.21100724685697 -7.992919881889569 12.09604245118492
16.288740211051667 -8.231830400706224 12.738270091904742
17.283033585165022 -8.636394208719866 13.38925091302933
18.154918363759343 -9.204966102288054 14.051864127075584
18.870272737779985 -9.929582767647135 14.725430468042129
19.407253494761115 -10.795250943790702 15.40403696675397
19.760498975883028 -11.778858446364813 16.078161823319046
19.941549695820246 -12.850339360318596 16.738489923499436
19.9774387680683 -13.97644072312516 17.37896665845268
19.907577494398552 -15.124474461000386 17.998651603341255
19.780614029863678 -16.26291382816633 18.602803024805226
19.65101855370904 -17.364268042116336 19.202047022534973
19.571603540521462 -18.407093384476852 19.80760913403804
LINES 1 76
75 0 1 2 3 4 5 6 7 8 9 10 11 12 13 14 15 16 17 18 19 20 21 22 23 24 25 26 27 28 29 30 31 32 33 34 35 36 37 38 39 40 41 42 43 44 45 46 47 48 49 50 51 52 53 54 55 56 57 58 59 60 61 62 63 64 65 66 67 68 69 70 71 72 73 74
POINT_DATA 75
SCALARS MaximumInscribedSphereRadius float
LOOKUP_TABLE default
1.2
1.2108108108108109
1.2216216216216216
1.2324324324324323
1.2432432432432432
1.2540540540540541
1.2648648648648648
1.2756756756756755
1.2864864864864864
1.2972972972972974
1.308108108108108
1.3189189189189188
1.3297297297297297
1.3405405405405406
1.3513513513513513
1.362162162162162
1.372972972972973
1.3837837837837839
1.3945945945945946
1.4054054054054053
1.4162162162162162
1.427027027027027
1.4378378378378378
1.4486486486486485
1.4594594594594594
1.4702702702702704
1.481081081081081
1.4918918918918918
1.5027027027027027
1.5135135135135136
1.5243243243243243
1.535135135135135
1.545945945945946
1.5567567567567568
1.5675675675675675
1.5783783783783782
1.5891891891891892
1.6
1.6108108108108108
1.6216216216216215
1.6324324324324324
1.6432432432432433
1.654054054054054
1.6648648648648647
1.6756756756756757
1.6864864864864866
1.6972972972972973
1.708108108108108
1.718918918918919
1.7297297297297298
1.7405405405405405
1.7513513513513512
1.7621621621621621
1.772972972972973
1.7837837837837838
1.7945945945945945
1.8054054054054054
1.8162162162162163
1.827027027027027
1.8378378378378377
1.8486486486486486
1.8594594594594596
1.8702702702702703
1.881081081081081
1.8918918918918919
1.9027027027027028
1.9135135135135135
1.9243243243243242
1.9351351351351351
1.945945945945946
1.9567567567567568
1.9675675675675675
1.9783783783783784
1.9891891891891893
2.0
SCALARS Curvature float
LOOKUP_TABLE default
0.0
0.11919142746281537
0.06905510222083547
0.04895909991557125
0.09240702655225076
0.1783879823500909
0.25005197844719507
0.2416247020207249
0.17903512067471467
0.12348783914278731
0.09236037790995881
0.08492373160451869
0.0880309675056557
0.09067182541525741
0.08586831212300061
0.07459098730231427
0.07600656012499897
0.1132167315199962
0.20936710706984415
0.39500454258556267
0.5766630218027939
0.5495748767489046
0.40584117657660995
0.2743762265033955
0.18636652056399436
0.12557266058902122
0.08012448345251172
0.039875751172707266
0.058918014301160816
0.12061820846792712
0.17493476902947946
0.20590431682891205
0.20868521302372176
0.19075896291430228
0.1624573272559576
0.13349653422828656
0.1097900629236321
0.08997746364451878
0.07120875806281013
0.05215081735705167
0.03566014813430109
0.03616046058900268
0.053182698633700974
0.07503953452509436
0.09618594616045482
0.11325259465620525
0.12205990119963293
0.11898833495072149
0.10619333674038121
0.09039439528575523
0.07690978897063389
0.06703750586463479
0.05933786413783362
0.05181837762420946
0.042806467428546345
0.030834351685694456
0.016373569354876525
0.011777938732426253
0.029098404952069157
0.049910195303203314
0.0696566718482759
0.08682365520492501
0.10187723071290654
0.11716244710257855
0.1337922845192214
0.14731846876509033
0.14981370189148963
0.1380701843783531
0.1164385568315524
0.09066685889819477
0.0637420579268573
0.03522116777099115
0.009302348111001814
0.04001792739042805
0.0
SCALARS Torsion float
LOOKUP_TABLE default
0.0
0.0
0.3702516450292925
0.7351582981338911
0.36906512646975437
0.16538277716969413
0.1164203374826442
0.11993028335386997
0.1590851724318626
0.232705889964379
0.2798848037664308
0.18018967574082287
0.11063080278075695
0.011341721243613032
0.01622287679203259
0.1858029781089618
0.3346151159272045
0.2481999310578983
0.10981386129849605
0.021248322747725937
-0.03461763156845825
-0.14393252520537234
-0.0419397891644451
0.05191986270128077
-0.007942644598483463
-0.07667471571858689
-0.22520009142080608
-0.7996031545119595
-0.5832819105960806
-0.20724150572144928
-0.14293540542961444
-0.12871764097987565
-0.11057338525974462
-0.07955751276607582
-0.052916558968587886
-0.03730935684943263
-0.03040501176265118
-0.011520820244966055
0.04996375427093492
0.19274881289642132
0.48582409785417136
0.5087668385757725
0.2347637001480044
0.09921568004755948
0.027717075441881386
-0.004300564673441993
-0.014960957158298066
-0.01416415101553365
-0.016125320183221863
-0.026989637552962686
-0.03964765611386173
-0.024241161685487466
0.02396872144994074
0.07728352583539934
0.12295423130038702
0.19278554708934592
0.5070767984908444
0.7782687593730612
0.19366019809161894
0.06847847272738108
0.023329414766873127
-0.009791944243639553
-0.0439160291125026
-0.07038740859802799
-0.0739879896535187
-0.05568457294728318
-0.03248237929197377
-0.016213239573590003
-0.011004092923196818
-0.013181980995989048
-0.02963048031078094
-0.15574557645676163
-0.9955269603099335
-0.2018551501695618
0.0
