# vtk DataFile Version 2.0
Vessel Segment
ASCII
DATASET POLYDATA
POINTS 75 float
-6.095788077812043 22.572312522039898 -5.916144459224751
-6.686630169339573 21.577816856275767 -5.95261173507502
-7.311789872037892 20.49968327561838 -5.841135558379187
-7.9538692118145775 19.386678158153423 -5.665612534750853
-8.596115083091354 18.279831216775236 -5.505004487983234
-9.220423414965857 17.214298289532206 -5.432752184104622
-9.8080554459959 16.21596263981418 -5.514285443882402
-10.337349053965564 15.2956335523098 -5.806222249727147
-10.770771102990823 14.464191894382987 -6.352553407755608
-11.070656529568925 13.706497109876082 -7.104342110670549
-11.219938555878569 12.969566507610011 -7.983739153596356
-11.219812672882652 12.213824589942572 -8.925197670418966
-11.068708581665453 11.417725098377009 -9.885323700319107
-10.742199518234335 10.608862707786177 -10.856782229030406
-10.241318990671472 9.82320693115724 -11.80487137614943
-9.57981708196139 9.079951390882497 -12.702269905643144
-8.791218748641093 8.39637047076537 -13.543245065831679
-7.910474174419038 7.759445753931644 -14.317069760316807
-6.973303727559304 7.147661182700394 -14.970938958333198
-6.0284869117377715 6.539236814947503 -15.423862352261228
-5.141721525801207 5.913343321311484 -15.585155165270432
-4.421243949635583 5.257428375518153 -15.358485988745084
-3.991981442364571 4.633380662356517 -14.738516293545016
-3.8515198708912832 4.10451863892944 -13.853828780641326
-3.947269633244228 3.700124744761208 -12.808694221379051
-4.2287352616291205 3.4368702464277137 -11.689703556679415
-4.637380745556422 3.3172348936982923 -10.561656321873917
-5.116223685816956 3.334850446615255 -9.461676762048702
-5.611575540463503 3.4626676548826767 -8.403871124731996
-6.083349875076552 3.6480451504821008 -7.377732379538462
-6.508378750469762 3.82246220401494 -6.364283241587268
-6.871962536460096 3.9110944257334626 -5.349008372884718
-7.160892031495746 3.8445319799616824 -4.329746996116733
-7.363926519466955 3.5793263436645373 -3.3183660841055196
-7.46591171943084 3.1009319778504953 -2.3278185100264888
-7.448061043781117 2.4113306075612533 -1.3838603688268312
-7.317062486420806 1.5435581237021412 -0.5252625827628764
-7.0954646649485 0.5495344056102267 0.22167799395214374
-6.801950132745937 -0.520255612632208 0.8408071871453578
-6.446343613379802 -1.6237548957835375 1.3254081863908733
-6.026196347431841 -2.7336982482533045 1.6722437286104808
-5.536454209984761 -3.833466845283564 1.8577688123946334
-5.007813212667767 -4.913280480236159 1.8942126773087005
-4.420080690641182 -5.968527149733989 1.8763092888969555
-3.7408677961684984 -6.976206821853178 1.8655523708333026
-2.9553219124496835 -7.901493275570899 1.9098810104799997
-2.064140113709226 -8.712163237986953 2.0462605150917046
-1.0825341829172823 -9.389011763469725 2.2978308325966745
-0.03598363256658351 -9.926802669926166 2.6774431463358854
1.047564944579289 -10.317939359519366 3.1770013696908337
2.15231111557179 -10.564529620638496 3.7477384196575416
3.271947820057162 -10.683955782133753 4.345936352167058
4.400725845265294 -10.69109810899424 4.949581120764242
5.531744929026088 -10.5986757131174 5.5526854623257735
6.656884069125576 -10.420380367059947 6.160776836959181
7.767369693125043 -10.170120967762179 6.786206969804786
8.85652532910416 -9.861960413374431 7.440629434765389
9.922887719848255 -9.514034116772219 8.128595243103565
10.970166032687244 -9.152926948066517 8.847300385199834
12.002112015891818 -8.812001122541915 9.58969351484768
13.015372175705567 -8.528032006070172 10.347447507876886
13.995875436863155 -8.338456395530129 11.113625149165287
14.919913203556808 -8.27702519147102 11.88438894224467
15.758033492980221 -8.36798609952868 12.65937165816447
16.481309102344554 -8.62011361244313 13.439901300497507
17.07076580065523 -9.025454032859436 14.224800391744653
17.526187838289676 -9.563668423042964 15.006312332359157
17.867295941849026 -10.208697440358774 15.771232235572043
18.125937558936382 -10.934756690607491 16.50624861295754
18.33482979963587 -11.719947354235039 17.203821914662175
18.519777713073868 -12.548846296321893 17.864555789615974
18.69818887914667 -13.414842807833557 18.49711527063329
18.87698207241578 -14.323187187161464 19.115127278278425
19.047346095115525 -15.284643841675804 19.7324041697133
19.189019427999344 -16.298050266110288 20.36373768140956
LINES 1 76
75 0 1 2 3 4 5 6 7 8 9 10 11 12 13 14 15 16 17 18 19 20 21 22 23 24 25 26 27 28 29 30 31 32 33 34 35 36 37 38 39 40 41 42 43 44 45 46 47 48 49 50 51 52 53 54 55 56 57 58 59 60 61 62 63 64 65 66 67 68 69 70 71 72 73 74
POINT_DATA 75
SCALARS MaximumInscribedSphereRadius float
LOOKUP_TABLE default
1.2
1.2108108108108109
1.2216216216216216
1.2324324324324323
1.2432432432432432
1.2540540540540541
1.2648648648648648
1.2756756756756755
1.2864864864864864
1.2972972972972974
1.308108108108108
1.3189189189189188
1.3297297297297297
1.3405405405405406
1.3513513513513513
1.362162162162162
1.372972972972973
1.3837837837837839
1.3945945945945946
1.4054054054054053
1.4162162162162162
1.427027027027027
1.4378378378378378
1.4486486486486485
1.4594594594594594
1.4702702702702704
1.481081081081081
1.4918918918918918
1.5027027027027027
1.5135135135135136
1.5243243243243243
1.535135135135135
1.545945945945946
1.5567567567567568
1.5675675675675675
1.5783783783783782
1.5891891891891892
1.6
1.6108108108108108
1.6216216216216215
1.6324324324324324
1.6432432432432433
1.654054054054054
1.6648648648648647
1.6756756756756757
1.6864864864864866
1.6972972972972973
1.708108108108108
1.718918918918919
1.7297297297297298
1.7405405405405405
1.7513513513513512
1.7621621621621621
1.772972972972973
1.7837837837837838
1.7945945945945945
1.8054054054054054
1.8162162162162163
1.827027027027027
1.8378378378378377
1.8486486486486486
1.8594594594594596
1.8702702702702703
1.881081081081081
1.8918918918918919
1.9027027027027028
1.9135135135135135
1.9243243243243242
1.9351351351351351
1.945945945945946
1.9567567567567568
1.9675675675675675
1.9783783783783784
1.9891891891891893
2.0
SCALARS Curvature float
LOOKUP_TABLE default
0.0
0.08912922882409909
0.03464482819737202
0.008723621729189321
0.05598383158502767
0.11720574667372939
0.18651954446694397
0.23755520629945825
0.20092808893880665
0.1393514866848624
0.1034683969297051
0.09243064460042195
0.0968624460909204
0.09810056559590896
0.09568171439239602
0.08389062601435915
0.06909251706014316
0.07791905735821184
0.12752378009715756
0.23391513422913332
0.3991994909105883
0.46281680013299725
0.3365151236033441
0.22197867558033565
0.1629619299505738
0.12886299448223068
0.10838111898505966
0.08498352670497189
0.04850453952522866
0.03124057907913913
0.08714652668945497
0.15158240839028456
0.1873192727341482
0.1846292949992546
0.1672400502490574
0.14087840312115724
0.11540657126694906
0.1013116664999378
0.09589137283558513
0.09901948619741238
0.11798651483460548
0.10690888023714751
0.05720277064113124
0.06942721456497256
0.09807007637123141
0.12228756682869894
0.13197072095001455
0.12816476784108718
0.11994667278751736
0.09982642578542004
0.07991155554507151
0.0684537384095255
0.05999201992588575
0.05137218294165456
0.04433179449438733
0.03939506542014331
0.032321856171420825
0.021877839950826098
0.019897505039429393
0.035176633601670365
0.059329316691731734
0.0906947530310005
0.12764737081548308
0.16153218495234598
0.1781448282408302
0.16863098411971889
0.1391197243096405
0.10411327641927694
0.07430518781063009
0.05313982401268168
0.038445069498020595
0.029099381201217075
0.024626018188056122
0.026206787211538844
0.0
SCALARS Torsion float
LOOKUP_TABLE default
0.0
0.0
0.07481227260179801
0.5007027140131559
0.021963171052539143
0.02208193668927201
0.0409058311901449
0.06442920268641218
0.18312289964280776
0.3701533121326748
0.3690992662707512
0.2317504819519932
-0.07829483459564038
-0.02271142653291136
0.011493069134622416
-0.05450805347330766
0.11064259728248539
0.27989202080360287
0.20349520516613084
0.12706726950828096
0.10128933413145713
0.04805503001834016
-0.00742383912923876
-0.056454574568600646
-0.05917232480202565
-0.09861034731887712
-0.15888680584419895
-0.2446869851262143
-0.568987220452486
-0.9007901841785145
-0.24478671195754076
-0.09460334052736358
-0.04138067437158385
0.01605879705558192
0.03492599142712599
-0.012215790046537868
-0.0268254026276352
-0.0039742339267093835
0.035093656919973265
0.06640705948878395
0.010786944284599573
-0.09977785214318546
0.6870592135337925
0.43733533949175973
0.18031226735841238
0.10022546671073806
0.0764416060501883
0.08151180976658078
0.019458920566047172
-0.15067516716097581
-0.19428016758071656
-0.11516713449024474
-0.017429553506308912
0.08807908296878389
0.18666656072070126
0.20885790809710664
0.21497182167723758
0.43032464932541203
0.5889639776292013
0.22858287102249636
0.05749403755238311
-0.01167162154102614
-0.04619095307033055
-0.06529258713744561
-0.06299022761881677
-0.027723884762059767
0.041852613832846094
0.14338911760017842
0.24728277696309875
0.3037630721725411
0.29127967781591446
0.09844525863416187
-0.319518132150935
-0.4235004695281303
0.0
