# vtk DataFile Version 2.0
Vessel Segment
ASCII
DATASET POLYDATA
POINTS 75 float
-5.637490179268551 21.58143376981358 -6.107067309707052
-6.172969735498599 20.465762639707744 -6.110556879674546
-6.787073338799082 19.332284621972395 -5.971795410629535
-7.44869331661349 18.211053616953055 -5.787274102111411
-8.125180004245207 17.128643976840173 -5.651906246034218
-8.780659745432617 16.106074989323126 -5.652669835465505
-9.375645110953814 15.154867710342147 -5.85769425135077
-9.869026310433233 14.275289661913126 -6.303892337246279
-10.221994826151262 13.463371806160438 -6.986724415638986
-10.41285922008059 12.70114274553297 -7.847250841996377
-10.433273641625826 11.960047881783176 -8.817871687410536
-10.271281858651989 11.229945945163838 -9.843652290757936
-9.924388359949303 10.513891816708908 -10.877042636528662
-9.405420224077613 9.819963806025516 -11.892676721170993
-8.744990548661699 9.1497056510725 -12.867775652986507
-7.991548973179952 8.490555657124954 -13.770804234746771
-7.209184332035791 7.82770994682518 -14.550884938263838
-6.471202852615688 7.153710741160108 -15.13745228825625
-5.846512330205112 6.477170003795659 -15.45246958360942
-5.389044946537882 5.824296618596586 -15.427839470752684
-5.135277615054487 5.236767260326138 -15.02108540154712
-5.1119191853362365 4.7692839544155134 -14.24005374004231
-5.323854134374361 4.475053520947563 -13.182459909996037
-5.723383483620543 4.375603399517207 -11.996535190500682
-6.248364710067495 4.466271182160232 -10.794146149267652
-6.84127218949903 4.725112574561905 -9.64597634326744
-7.438921578153334 5.108656340965541 -8.581791278004342
-7.976061912775715 5.548097379706379 -7.5887875087057015
-8.40104024355493 5.967476622989222 -6.624227600483685
-8.679670769369459 6.290737439931359 -5.654635679361216
-8.797366217373842 6.448107040238978 -4.670367902601752
-8.757461226301842 6.384594257085784 -3.6885148681306497
-8.577456066516339 6.066383720208289 -2.747648288671257
-8.284129285004095 5.492589451219794 -1.891388202642091
-7.904234191710438 4.6933867378843335 -1.1516996830420234
-7.464649010578143 3.7189203467084817 -0.5477313506112611
-6.995983949031214 2.6276203772015396 -0.08813331182425943
-6.525566705776122 1.471128168873345 0.22532909912081753
-6.07049147809267 0.2857486115900691 0.39498189735252887
-5.634590685615929 -0.9069730871958696 0.4332657214049369
-5.20800963945587 -2.0969942578158514 0.3698405468433273
-4.773122042835401 -3.2808487261799355 0.2462325803443511
-4.318254766154413 -4.456068825577773 0.12016058620335529
-3.821959633188207 -5.616016913250039 0.06320167188165833
-3.263908830576909 -6.741282905128359 0.1212994247585595
-2.6294942600899915 -7.801723903159372 0.3149837762703883
-1.9092399421764532 -8.761320718293355 0.6460956482648558
-1.1012792814473813 -9.58552822627609 1.1045488640241534
-0.2120624337246737 -10.250246748618308 1.674183474532223
0.7462222053560404 -10.744890022328752 2.3323505732724996
1.7619185871910592 -11.07542507240037 3.045757531776224
2.8258570094856617 -11.259970943138045 3.7828492723823803
3.9284094913758745 -11.316733271481414 4.521789324256824
5.056261853951847 -11.25830476349427 5.252799949270045
6.192047842946058 -11.092258614320809 5.976863544046396
7.318706372356131 -10.826728757718525 6.701146377529259
8.42588030580322 -10.47688413749492 7.432623895864967
9.512920344293253 -10.068761092751721 8.174337671990598
10.586630791267243 -9.637805166883327 8.926286215849514
11.65528067567417 -9.222225697430781 9.6878143951271
12.722534733738147 -8.858037606042195 10.458749001286014
13.784110745285545 -8.578554406772232 11.239005470456066
14.827052612989903 -8.41555512821017 12.028278435654256
15.829516382711278 -8.398203201424266 12.826351888164346
16.7618614273032 -8.548638284817166 13.632416065878203
17.59116647176851 -8.878041225270822 14.442442579995678
18.28878492081397 -9.385590423610354 15.246799025022657
18.836750311561865 -10.058725921007872 16.032136862300412
19.23111689940065 -10.874348393024546 16.786706677170944
19.48229100445988 -11.80228495520757 17.504832913043145
19.61387025352334 -12.811283816068908 18.18718853686016
19.658701096783783 -13.872559653030534 18.83861486374502
19.65654317495642 -14.956006671565506 19.467556159985115
19.654009862965868 -16.031659300634324 20.085879843380468
19.699019944509935 -17.071981155722504 20.704783177728345
LINES 1 76
75 0 1 2 3 4 5 6 7 8 9 10 11 12 13 14 15 16 17 18 19 20 21 22 23 24 25 26 27 28 29 30 31 32 33 34 35 36 37 38 39 40 41 42 43 44 45 46 47 48 49 50 51 52 53 54 55 56 57 58 59 60 61 62 63 64 65 66 67 68 69 70 71 72 73 74
POINT_DATA 75
SCALARS MaximumInscribedSphereRadius float
LOOKUP_TABLE default
1.2
1.2108108108108109
1.2216216216216216
1.2324324324324323
1.2432432432432432
1.2540540540540541
1.2648648648648648
1.2756756756756755
1.2864864864864864
1.2972972972972974
1.308108108108108
1.3189189189189188
1.3297297297297297
1.3405405405405406
1.3513513513513513
1.362162162162162
1.372972972972973
1.3837837837837839
1.3945945945945946
1.4054054054054053
1.4162162162162162
1.427027027027027
1.4378378378378378
1.4486486486486485
1.4594594594594594
1.4702702702702704
1.481081081081081
1.4918918918918918
1.5027027027027027
1.5135135135135136
1.5243243243243243
1.535135135135135
1.545945945945946
1.5567567567567568
1.5675675675675675
1.5783783783783782
1.5891891891891892
1.6
1.6108108108108108
1.6216216216216215
1.6324324324324324
1.6432432432432433
1.654054054054054
1.6648648648648647
1.6756756756756757
1.6864864864864866
1.6972972972972973
1.708108108108108
1.718918918918919
1.7297297297297298
1.7405405405405405
1.7513513513513512
1.7621621621621621
1.772972972972973
1.7837837837837838
1.7945945945945945
1.8054054054054054
1.8162162162162163
1.827027027027027
1.8378378378378377
1.8486486486486486
1.8594594594594596
1.8702702702702703
1.881081081081081
1.8918918918918919
1.9027027027027028
1.9135135135135135
1.9243243243243242
1.9351351351351351
1.945945945945946
1.9567567567567568
1.9675675675675675
1.9783783783783784
1.9891891891891893
2.0
SCALARS Curvature float
LOOKUP_TABLE default
0.0
0.08821053828430721
0.037046066898130094
0.034529569007961294
0.09256378909979845
0.1660261007252055
0.21943404014503926
0.21933967750350142
0.17118152728184224
0.12731127483809468
0.11165870651848514
0.1050860328644907
0.09469766210332807
0.07954880712262992
0.06492612646135053
0.06843076391512642
0.11767572000949561
0.2556959201622236
0.5176230157401501
0.6331624735415177
0.42732258188002215
0.2404041152889481
0.15695670438156414
0.12341753721530144
0.10816172163145564
0.08977975993313891
0.059487949144435184
0.07098164184300344
0.1445434230920779
0.22402595979013684
0.2721752641042109
0.27336665289731993
0.23444597682371868
0.18180100651744874
0.13812033973029902
0.10966839510590426
0.09522743056836055
0.08962205040900811
0.08216188139759828
0.06368392830469106
0.03796235355499636
0.013650917372876874
0.05136959564774861
0.08524332390862882
0.107290126182715
0.12245207361977642
0.1321589864854469
0.13366675572235617
0.12544008984891203
0.10822584990687273
0.08882921852286771
0.07387365572707502
0.06409189369392457
0.05798943163739611
0.05314878789938723
0.04579326567835539
0.03271209907765509
0.014838369736084801
0.00977634566139044
0.02753651044675172
0.046148403919593455
0.06661620017966985
0.09035494277766125
0.11622523704663017
0.1406500528840402
0.15790959131255966
0.1618031633099116
0.14990086434123623
0.12590624000707268
0.09624135527034
0.06614364325392687
0.035698470889414885
0.0034661673367484755
0.03545761434398749
0.0
SCALARS Torsion float
LOOKUP_TABLE default
0.0
0.0
0.5983430328161633
0.7019046533125292
0.1669334540089955
0.09161551675356269
0.0891038552355109
0.10638825449119103
0.18110924536701603
0.25443898628916256
0.18480957133102333
0.10917840487101883
0.03333896605660486
0.060588920219008933
0.22272560176425268
0.35577559996815983
0.23815387739242166
0.09361769317383162
0.013167034046091958
-0.02560363003110969
-0.019535464658046533
0.012974523362969514
-0.010318599368830237
-0.04464641277161193
-0.05970814520077429
-0.16327811375208984
-0.6066853681203467
-0.6610943301297522
-0.27164351321554714
-0.1644786894555286
-0.1295328664054436
-0.10867365918921428
-0.07889712990419256
-0.03968836773753711
-0.018710646838119394
-0.02962783959543183
-0.03727457165516895
-0.022112935712712275
0.01024191028960499
0.08003255384736885
0.30410121187801725
0.9712036958211896
0.1877279260158481
0.008056275604089919
-0.043282175622092994
-0.06776452554109014
-0.06637193179020848
-0.04931702909313796
-0.04610878598483588
-0.08492712139339385
-0.1091901042025965
-0.08932072212392148
-0.01941189930443246
0.0658516987108838
0.11424385344372016
0.11698283470577862
0.1251352403147294
0.4077063012267305
0.7787765328972251
0.11461887579056762
0.014970643325405888
-0.017472945831597912
-0.03606664856552335
-0.04845012339058289
-0.049211237247935066
-0.03557187526489762
-0.019778765171265318
-0.012857678345202598
-0.01507408737874222
-0.01061809320947371
0.00931119903277665
0.04101647993022431
0.9999971440543745
0.07643724445698585
0.0
