# vtk DataFile Version 2.0
Vessel Segment
ASCII
DATASET POLYDATA
POINTS 75 float
-4.263420284141377 21.365173376190356 -7.241138099402846
-4.823660623642975 20.26264317359401 -7.248047078277259
-5.484038958626476 19.18494014835866 -7.043276956919586
-6.215749273677664 18.157679110081936 -6.716767891822069
-6.991248619788724 17.203053227785748 -6.36019981229936
-7.783172946290994 16.336900629750428 -6.069404863793876
-8.564452675489596 15.563735137196105 -5.9371455511122555
-9.31047729830924 14.86960482665848 -6.03371412529176
-9.996715094586035 14.220965171918078 -6.389487180641698
-10.589625709074161 13.575545640322117 -6.986367935410094
-11.049129466943642 12.903796966897621 -7.769844036957874
-11.333425275166395 12.197674620349824 -8.664025197647124
-11.407366288143805 11.46452232038314 -9.5887177084459
-11.236008891884927 10.733389351802897 -10.512928595887395
-10.81973020827488 10.028711239764235 -11.406581021972915
-10.185817128486411 9.351508520093606 -12.266503352983962
-9.387134253031927 8.696226977474716 -13.098302235420187
-8.4920751770406 8.035178633043028 -13.88470099085079
-7.574304681848384 7.341420867289039 -14.56273766779115
-6.708190940113883 6.603874665388785 -15.040607538096392
-5.966683123211104 5.8331299311903475 -15.219262123980767
-5.429148800766881 5.0833786232547835 -15.029054298258043
-5.131083740444331 4.431823722850965 -14.497136391955298
-5.06411669419258 3.934203308962162 -13.696101307853581
-5.208897334459964 3.6346418438012136 -12.710993893070905
-5.532106925224624 3.553713402708356 -11.631697670031118
-5.982227990689459 3.66779270387333 -10.537832267957441
-6.490259810177843 3.9026553862462077 -9.468384775781223
-6.988851845079444 4.178098641585974 -8.409511141595258
-7.415992373693642 4.424813640025041 -7.341949340383573
-7.723323988903754 4.5884043323692545 -6.255293664359153
-7.884048510658213 4.633698498792884 -5.153765074849427
-7.88807376321659 4.5366975643354985 -4.05455314548365
-7.733832398187357 4.272746111790452 -2.985831157567763
-7.432557605947304 3.8193432747727996 -1.9872071235631883
-7.017704479146186 3.1719621654104984 -1.1007207431257295
-6.53963940542984 2.349650744808073 -0.3579972002903547
-6.0490728975735895 1.390047752700045 0.22188514685088664
-5.584789314506402 0.3407957960493294 0.6343774095588652
-5.16858551668453 -0.7558501455795408 0.8938160505516224
-4.803313767075731 -1.8762956352585929 1.030319764986667
-4.4740372510140975 -3.014889031170833 1.0835956534059161
-4.152934395136254 -4.1717294611071125 1.100791279319907
-3.801631337441547 -5.337324333759347 1.1323320037754425
-3.379792566388538 -6.483225018032895 1.2190061406359347
-2.853718378040821 -7.567633439710248 1.390335463911609
-2.2047024566068925 -8.54651093903888 1.6686249596649958
-1.4336484675868426 -9.383051600552216 2.068044690696943
-0.5582203957836466 -10.054749319724445 2.5900799141987614
0.3964063642361797 -10.554013001076587 3.2185075383912602
1.406406051978635 -10.884950202683108 3.920386705244783
2.4529758470932324 -11.058445234544381 4.657157169338595
3.5211639269271546 -11.087389154730038 5.397690358980441
4.597851863716908 -10.985119919085234 6.125957205184601
5.671119903629419 -10.768525664674568 6.839968948476784
6.732651868925923 -10.462328731518383 7.545070591514892
7.780674045222225 -10.099443134486123 8.24718845051622
8.818701540843248 -9.715584193536047 8.950123447820205
9.85094900013506 -9.34248058023074 9.656001564060782
10.87870347924012 -9.00461579877125 10.36551296253745
11.902481661868377 -8.72120104648042 11.07658475123139
12.926591274555303 -8.511070867078898 11.783157900875446
13.95953272293852 -8.395568664164898 12.478094142267988
15.007623513968941 -8.39654518347293 13.158704362255357
16.065203238460523 -8.532422008182527 13.829273761841325
17.107661632410895 -8.816074066675068 14.497133726782964
18.091365049484278 -9.25681505213442 15.165424351783859
18.96111935048845 -9.86182565397384 15.827936320310494
19.66442249399392 -10.63476031785769 16.468626630588194
20.167702089666502 -11.572357653218633 17.066216984023917
20.464996954339522 -12.662413418065821 17.60061259602017
20.57375578858918 -13.879527098751312 18.059711301563286
20.529429157113807 -15.177122124920974 18.44550674296839
20.384244898937794 -16.49539400642016 18.774861596612084
20.195005609065976 -17.776890349201835 19.069170572382507
LINES 1 76
75 0 1 2 3 4 5 6 7 8 9 10 11 12 13 14 15 16 17 18 19 20 21 22 23 24 25 26 27 28 29 30 31 32 33 34 35 36 37 38 39 40 41 42 43 44 45 46 47 48 49 50 51 52 53 54 55 56 57 58 59 60 61 62 63 64 65 66 67 68 69 70 71 72 73 74
POINT_DATA 75
SCALARS MaximumInscribedSphereRadius float
LOOKUP_TABLE default
1.2
1.2108108108108109
1.2216216216216216
1.2324324324324323
1.2432432432432432
1.2540540540540541
1.2648648648648648
1.2756756756756755
1.2864864864864864
1.2972972972972974
1.308108108108108
1.3189189189189188
1.3297297297297297
1.3405405405405406
1.3513513513513513
1.362162162162162
1.372972972972973
1.3837837837837839
1.3945945945945946
1.4054054054054053
1.4162162162162162
1.427027027027027
1.4378378378378378
1.4486486486486485
1.4594594594594594
1.4702702702702704
1.481081081081081
1.4918918918918918
1.5027027027027027
1.5135135135135136
1.5243243243243243
1.535135135135135
1.545945945945946
1.5567567567567568
1.5675675675675675
1.5783783783783782
1.5891891891891892
1.6
1.6108108108108108
1.6216216216216215
1.6324324324324324
1.6432432432432433
1.654054054054054
1.6648648648648647
1.6756756756756757
1.6864864864864866
1.6972972972972973
1.708108108108108
1.718918918918919
1.7297297297297298
1.7405405405405405
1.7513513513513512
1.7621621621621621
1.772972972972973
1.7837837837837838
1.7945945945945945
1.8054054054054054
1.8162162162162163
1.827027027027027
1.8378378378378377
1.8486486486486486
1.8594594594594596
1.8702702702702703
1.881081081081081
1.8918918918918919
1.9027027027027028
1.9135135135135135
1.9243243243243242
1.9351351351351351
1.945945945945946
1.9567567567567568
1.9675675675675675
1.9783783783783784
1.9891891891891893
2.0
SCALARS Curvature float
LOOKUP_TABLE default
0.0
0.13725047220046369
0.08618522412424828
0.05354962552464225
0.06010420819846774
0.12965638697325366
0.22310402871660173
0.2582184659207241
0.21481491353714594
0.16481841560896762
0.14441960783918273
0.1508391113324621
0.1696888771875986
0.1645761211316819
0.13058896810272916
0.08676434329572823
0.053245857842096095
0.06341917024420968
0.12563606529066998
0.25481567539342814
0.4390425189264953
0.4886941700007988
0.38610356947647817
0.2795285322943158
0.20835523141591963
0.1537759722642108
0.09144315755657069
0.029600212566792586
0.05321001861997145
0.11071555893051703
0.15081075830603385
0.1719312990959473
0.1838630472264754
0.18655032400804814
0.17487494650685495
0.15553703891322107
0.1395504378318497
0.12804489155147994
0.11531186001567831
0.09561033784805237
0.0655488489934153
0.026680071807488923
0.020108234988435524
0.0607468693289135
0.09931430678556401
0.13243134966816142
0.15177011484089598
0.15151196527175348
0.13595538341341015
0.11504599885053547
0.0973397322148549
0.08572400470153552
0.07727936416225897
0.06717962940354949
0.05267261304799729
0.033799986737227915
0.013500950004080407
0.006461327357833338
0.02033588469330189
0.032232213674317924
0.04518116654747428
0.060964920823819935
0.07555707686373331
0.08457870106083477
0.09107395132287437
0.10373422292501745
0.12738249360735274
0.15672513148214565
0.17387285232228747
0.16349848708840567
0.13245114232134006
0.09649851969922418
0.062126931420259275
0.031819648420046635
0.0
SCALARS Torsion float
LOOKUP_TABLE default
0.0
0.0
0.20312495555905447
0.5405272195738913
0.6106096330172052
0.2623055145713148
0.15000586060732704
0.1478078833167298
0.2143476105406393
0.2609661083173302
0.24085207733210057
0.17235738646162
-0.011537174378449616
-0.0015768888158163349
0.004083264436072454
0.004680004125747163
0.34784810414773526
0.38811554946507004
0.1272529240986206
0.028911016648837065
-0.0028791748511123837
-0.031192723444623448
-0.04959258757113901
-0.04830039174065935
-0.04092241645780234
-0.02870516619377425
-0.0740340079785065
-0.8914562724440266
-0.4473764854550056
-0.10300895294794843
-0.05217068223747143
-0.05181357041057392
-0.06802309227491746
-0.0858915418883475
-0.10456658938069316
-0.12174770027812294
-0.11452434087028923
-0.0869034125196068
-0.06934000439218738
-0.05793440507931712
-0.024181378958390183
0.2063622043790165
0.6170525629360268
0.042611840743201124
-0.008407680281067725
0.00280006013374714
0.020878496748456918
0.02726874875781698
0.005113627836194991
-0.0467080574012379
-0.0945723581268081
-0.09445358461211802
-0.04203735165617457
0.024227337531635244
0.0741390504545894
0.11287441579219869
0.33996059606653484
0.8276481133812461
0.09215594181361442
0.048121689356583994
0.0705374142702034
0.06069836824366047
0.012633335870334383
-0.05006380731170172
-0.10004382233302232
-0.1053355422364449
-0.07000021886589658
-0.026456382108880544
0.007596660281074245
0.03287306414133669
0.04063454664487178
0.020421540305139367
-0.016919766195932794
-0.09783046472952336
0.0
