# vtk DataFile Version 2.0
Vessel Segment
ASCII
DATASET POLYDATA
POINTS 75 float
-4.641529142070931 20.834603204768218 -5.003233584247823
-5.050768529300579 19.62499930689439 -5.014199086484645
-5.622330548280768 18.496090611965435 -4.833883905361608
-6.3045743921045565 17.45238301228083 -4.574356591171406
-7.043350888661545 16.49921415704983 -4.353092366958223
-7.784066695542668 15.63714312926068 -4.283232364970922
-8.47334368718735 14.855630293260505 -4.4566345205379925
-9.064519310309947 14.131876850302042 -4.920620122286773
-9.526025781497296 13.433714932832869 -5.663695958235395
-9.840296079643464 12.735155690858718 -6.636097249403483
-9.999878348217992 12.028918697508129 -7.749609036204069
-10.020845952328443 11.31426525020176 -8.903256933980463
-9.917752021399696 10.59975074127673 -10.034418637623476
-9.705873215247623 9.876838965063165 -11.08981800335516
-9.373157686534714 9.132616990971652 -12.08599421657684
-8.915436230319203 8.373260281557663 -13.03096052073172
-8.366116805353524 7.587196205769848 -13.906405385401506
-7.78118061892297 6.764538274631751 -14.672036974821806
-7.22686119886258 5.911343928489947 -15.26941500074406
-6.764929432581631 5.057337489744944 -15.631191532512675
-6.441964699592094 4.257071145034482 -15.701153218340718
-6.267600879179465 3.582873088298207 -15.482779855819077
-6.173725998280655 3.074223526453714 -15.027195585099816
-6.162825957969605 2.7544377426252455 -14.318664389842327
-6.278144736682209 2.651465517754621 -13.417353498271762
-6.511380408228235 2.7635981996337855 -12.411215113091233
-6.824475984257021 3.0617298019271675 -11.361414022122375
-7.163051732169939 3.499601768381645 -10.305112274197514
-7.46159587166299 3.9976311962982956 -9.271503571125136
-7.6659451297228305 4.466462516190204 -8.263800078079885
-7.7523011520371785 4.833798504085993 -7.275382382429399
-7.7282843272180415 5.049396627947613 -6.300964189400848
-7.620413429081354 5.081712677696094 -5.342770703375411
-7.459930411137248 4.916093897569919 -4.41334369602807
-7.273373231200054 4.553488849641324 -3.530395019639231
-7.078956045338283 4.008462340035052 -2.708078602939118
-6.884868098967415 3.3001278949554345 -1.9553864604044502
-6.696596676881734 2.4504126216331703 -1.2820561209599972
-6.518838650627823 1.4855882776216403 -0.692759919462771
-6.348644225482644 0.4307876085418706 -0.18245131779881013
-6.172147866418219 -0.6918354818863858 0.2655865456621877
-5.964944610224985 -1.8592464513114115 0.6851284202549027
-5.689513526603066 -3.043114607472364 1.1122197731281098
-5.319269456705146 -4.2054428251245275 1.5676498442337814
-4.833652027379305 -5.3027869218276384 2.0710636462289855
-4.21586819131426 -6.291010228849006 2.628142068469585
-3.456650511901023 -7.1312385817735215 3.2291405005642972
-2.5564559950486623 -7.798133636493679 3.8553023666024395
-1.5279844025099454 -8.286150395194223 4.486670080107425
-0.39552242835392587 -8.608774257504182 5.107232053147444
0.8109801606294985 -8.786869297859342 5.708938322588256
2.063262670838316 -8.839332412350032 6.285234782581128
3.3380938382256398 -8.781791906504237 6.832547380974864
4.616897679212713 -8.627762557531067 7.353571370934392
5.8867013570828055 -8.392385572675023 7.85570541305538
7.141623298428727 -8.096455074725167 8.348219703955591
8.383254019583033 -7.76830508928192 8.84069319152786
9.619024150068505 -7.442409807261721 9.342141833494829
10.857543677441829 -7.157264943247457 9.85835963856288
12.103514703585944 -6.9564653588612675 10.390575584270133
13.355404285012627 -6.884835567956426 10.93631118907548
14.603208052205344 -6.980435543647105 11.49077887107503
15.825442587849968 -7.267994307479821 12.049566796993997
16.986963693642068 -7.7568275946582546 12.612181357339475
18.04064504942502 -8.443984189182665 13.183351420443792
18.934502211620543 -9.319120804409454 13.770552084923125
19.6223071658178 -10.36571501760581 14.378357318340333
20.074208257987102 -11.55815273236213 15.004056133139478
20.283823066879304 -12.859466590745608 15.63750933775075
20.26945469977974 -14.223939954948616 16.265433483669604
20.072133162086924 -15.60420095594691 16.876905419540673
19.751520592801995 -16.9579716159969 17.467805185285822
19.380990596379448 -18.250406522009378 18.043172784552663
19.040604213523576 -19.457812730357855 18.615934891719945
18.80566003643433 -20.5682022819735 19.199893215843343
LINES 1 76
75 0 1 2 3 4 5 6 7 8 9 10 11 12 13 14 15 16 17 18 19 20 21 22 23 24 25 26 27 28 29 30 31 32 33 34 35 36 37 38 39 40 41 42 43 44 45 46 47 48 49 50 51 52 53 54 55 56 57 58 59 60 61 62 63 64 65 66 67 68 69 70 71 72 73 74
POINT_DATA 75
SCALARS MaximumInscribedSphereRadius float
LOOKUP_TABLE default
1.2
1.2108108108108109
1.2216216216216216
1.2324324324324323
1.2432432432432432
1.2540540540540541
1.2648648648648648
1.2756756756756755
1.2864864864864864
1.2972972972972974
1.308108108108108
1.3189189189189188
1.3297297297297297
1.3405405405405406
1.3513513513513513
1.362162162162162
1.372972972972973
1.3837837837837839
1.3945945945945946
1.4054054054054053
1.4162162162162162
1.427027027027027
1.4378378378378378
1.4486486486486485
1.4594594594594594
1.4702702702702704
1.481081081081081
1.4918918918918918
1.5027027027027027
1.5135135135135136
1.5243243243243243
1.535135135135135
1.545945945945946
1.5567567567567568
1.5675675675675675
1.5783783783783782
1.5891891891891892
1.6
1.6108108108108108
1.6216216216216215
1.6324324324324324
1.6432432432432433
1.654054054054054
1.6648648648648647
1.6756756756756757
1.6864864864864866
1.6972972972972973
1.708108108108108
1.718918918918919
1.7297297297297298
1.7405405405405405
1.7513513513513512
1.7621621621621621
1.772972972972973
1.7837837837837838
1.7945945945945945
1.8054054054054054
1.8162162162162163
1.827027027027027
1.8378378378378377
1.8486486486486486
1.8594594594594596
1.8702702702702703
1.881081081081081
1.8918918918918919
1.9027027027027028
1.9135135135135135
1.9243243243243242
1.9351351351351351
1.945945945945946
1.9567567567567568
1.9675675675675675
1.9783783783783784
1.9891891891891893
2.0
SCALARS Curvature float
LOOKUP_TABLE default
0.0
0.15902213644604854
0.09860775969745153
0.06961937334816047
0.12204807572475201
0.22536778184650852
0.2775505318694069
0.22462680033504245
0.1502568779488668
0.10280406572999176
0.07579820923453659
0.06970722333895026
0.0753402277326671
0.08203168275287445
0.08024335164466741
0.06974165256943785
0.07353643278853304
0.11122799902305867
0.20325076817935508
0.38334873404016107
0.5660126992788289
0.5580717447350315
0.44479021555949366
0.3003366093227426
0.20085467931872192
0.13467686784149602
0.08894223529463328
0.0537363304085943
0.06845710640070136
0.12764892332603128
0.1815883540606111
0.213460130593233
0.22121074697830287
0.20917834786150633
0.18150041625244415
0.14990529650721868
0.12397167893546582
0.10124049057069309
0.079148012390969
0.05555023165875651
0.030848388445594687
0.037824424401966567
0.05875013818250539
0.08288218822040395
0.10720757256098576
0.12662243372605564
0.1350665901295642
0.1274102867480414
0.10728411296184297
0.08570994303660198
0.07006978746902101
0.05964872120909015
0.05174460484543011
0.043716135025082516
0.0330421558717718
0.018278293592778015
0.0056541444273648725
0.023075457508702595
0.04589989021627663
0.06937195283881437
0.08895818037772177
0.10169678798303575
0.10936648338786821
0.117354775016693
0.12823298756155102
0.13661916168514496
0.13418283118405952
0.11984285820663886
0.09967550754984772
0.0782159856083443
0.055814078192335324
0.030374351352802635
0.018674208875333807
0.06404517769357149
0.0
SCALARS Torsion float
LOOKUP_TABLE default
0.0
0.0
0.3266200130470506
0.7160956626250541
0.4162995591895169
0.1914318966248428
0.13536941694281393
0.1441577431435353
0.16254933984979894
0.19991452634560772
0.2662235036164403
0.15895666096966546
0.22445775765574302
-0.011326415886805385
-0.058766830629741085
0.2116640491813253
0.336111431014043
0.22620502756330116
0.09230019832844175
0.011864940938434348
-0.05737551806946867
-0.3256162537934887
-0.02547535563673875
0.1595363215123755
0.032819790323656506
-0.07077676526408391
-0.23117657943122025
-0.6664608393477254
-0.6106127679106391
-0.2669714301013458
-0.19723611763264806
-0.1872695859528918
-0.16237020381437953
-0.11869848476013843
-0.0753147263281535
-0.028177982315244134
-0.012454121339032898
-0.014090428455257722
0.02909582899014175
0.1558996229635637
0.597999034096305
0.48215862548056093
0.15080366149826557
0.08521816922637679
0.01858149117423548
-0.01960750628404034
-0.03596964372790793
-0.037989050128404485
-0.033528902470220834
-0.008780361421567642
-0.004073408529377517
0.006670377062868786
0.04441305536320944
0.07904793167314958
0.11060094936761374
0.25240877311434673
0.9824467911009646
0.15921948999391178
0.05674416401702395
0.028686141943335308
0.011132817439625065
-0.010349316544999187
-0.041082112577833375
-0.06826662132119457
-0.07267260164638921
-0.0555605564157903
-0.03428446143057885
-0.01890112187321821
-0.01324628416255674
-0.01831315145113195
-0.0512247951900465
-0.2961817079302974
-0.8663716146089011
-0.17424987473276388
0.0
