# vtk DataFile Version 2.0
Vessel Segment
ASCII
DATASET POLYDATA
POINTS 75 float
-5.6772667264108945 20.946590089819683 -5.3225656589797685
-6.173968490886435 19.73293064501772 -5.440925550403636
-6.741726527265037 18.572052497526553 -5.417121046216264
-7.3643433327639745 17.480761829039352 -5.313693698034239
-8.023775295677098 16.479936146372975 -5.202094452811119
-8.697723502932305 15.587837008404819 -5.163722847017905
-9.355366613950785 14.811429430861269 -5.281964182177547
-9.960410890972305 14.137799171960518 -5.614057027931753
-10.486852247218236 13.51636017417826 -6.157096021146156
-10.911632089626245 12.88757057188449 -6.9006488901125325
-11.202689452212876 12.226166936588928 -7.79986351604199
-11.326573063711695 11.52608543896951 -8.780093416426574
-11.26699025445925 10.807789172427475 -9.76681689176445
-11.02902548915522 10.10199646474923 -10.732285233508795
-10.623532355700318 9.435136001729088 -11.689390599778054
-10.068098925178008 8.813789752900224 -12.658211503513119
-9.388814815659492 8.226276209520458 -13.627332081709453
-8.624836355381566 7.656197888258233 -14.535768385289451
-7.828825096583066 7.094449204178473 -15.283255975554678
-7.061932978190578 6.549675964008429 -15.757372300130418
-6.385841404199316 6.060462851301146 -15.87211508079413
-5.833194438765114 5.693450293467795 -15.61889714364699
-5.421991644625437 5.470653075937444 -15.037114999660915
-5.180587652981396 5.400367380161942 -14.18786801970998
-5.0988565438049624 5.485156632232996 -13.1485052718156
-5.135561999187094 5.70490741662233 -11.990176339110109
-5.231059473437301 6.013022061010377 -10.768736835943477
-5.330958775649262 6.341327286444001 -9.522382554001837
-5.406264131062378 6.617534950922608 -8.278085040441548
-5.450069843028095 6.774019760973292 -7.063156306368601
-5.4656957459600095 6.749510868934956 -5.905044573834262
-5.461098323095947 6.497138712256708 -4.8311337828217775
-5.448235281184392 5.9961761836431675 -3.86962564917461
-5.440779150474315 5.256719761153424 -3.044495937725291
-5.451958782816972 4.317615187866732 -2.370144165781582
-5.49260734718798 3.2395200671654485 -1.8345231080902948
-5.554914246564127 2.073401086486018 -1.4003181380402911
-5.623017544157177 0.8519595707854664 -1.0330039308714045
-5.68346654755099 -0.4030008624717945 -0.7037357133515719
-5.720123766581959 -1.6788838243856232 -0.3892063490286058
-5.71246496425957 -2.968182404243516 -0.06965687826224531
-5.63054728682147 -4.264784317885301 0.2921728884312901
-5.410610016402514 -5.556699310010175 0.7098917053038
-5.034221250471928 -6.813891145551453 1.1393365300520897
-4.5011003399145055 -8.00099012674864 1.5714635931465024
-3.811140237326546 -9.078002255809707 2.0098514319495933
-2.973382245639077 -10.004125874737607 2.4626583395826045
-2.009237838912089 -10.744650408035895 2.935605635397039
-0.9476933821199715 -11.281627321320192 3.4208680910758265
0.18351348915673207 -11.627216151646877 3.9078561256389976
1.35704867568085 -11.803869769556542 4.408284470998151
2.5500772330162507 -11.82907359570476 4.928260979309689
3.7477367500320904 -11.725888905816214 5.4637983253298685
4.938269596259739 -11.521014940081567 6.011241022576738
6.10835834413122 -11.237915499132313 6.571286203431992
7.243677921115313 -10.891231926115035 7.148098099962261
8.333996098985832 -10.487189633560483 7.746378519313791
9.37889777412523 -10.032266570316589 8.368815460333439
10.388741246527117 -9.543312264919283 9.015163794971256
11.379224675950212 -9.051642733875553 9.683044078224981
12.364208433452035 -8.599429477532123 10.369992722590817
13.350533467897261 -8.232207984327495 11.075441791487567
14.335002506937801 -7.991827122837127 11.803331237368894
15.302103574684367 -7.9108396398692875 12.56267956757869
16.22506414772666 -8.009477250747397 13.362563321737884
17.0717689938438 -8.295797996301042 14.202403607740571
17.813845077487485 -8.768500236771876 15.06485322191918
18.43237183832577 -9.418750930628338 15.919004880766206
18.919143247802523 -10.230788768869859 16.731552444849147
19.276988037521548 -11.180378439778512 17.480108773160396
19.5209025442919 -12.234002927811202 18.16051961850877
19.67707646295036 -13.347216647614134 18.786875201939964
19.783716945311493 -14.459116995951035 19.38851243268185
19.896580695939612 -15.499718624949516 20.005059403800132
20.082216928964034 -16.410260859847483 20.675231575863048
LINES 1 76
75 0 1 2 3 4 5 6 7 8 9 10 11 12 13 14 15 16 17 18 19 20 21 22 23 24 25 26 27 28 29 30 31 32 33 34 35 36 37 38 39 40 41 42 43 44 45 46 47 48 49 50 51 52 53 54 55 56 57 58 59 60 61 62 63 64 65 66 67 68 69 70 71 72 73 74
POINT_DATA 75
SCALARS MaximumInscribedSphereRadius float
LOOKUP_TABLE default
1.2
1.2108108108108109
1.2216216216216216
1.2324324324324323
1.2432432432432432
1.2540540540540541
1.2648648648648648
1.2756756756756755
1.2864864864864864
1.2972972972972974
1.308108108108108
1.3189189189189188
1.3297297297297297
1.3405405405405406
1.3513513513513513
1.362162162162162
1.372972972972973
1.3837837837837839
1.3945945945945946
1.4054054054054053
1.4162162162162162
1.427027027027027
1.4378378378378378
1.4486486486486485
1.4594594594594594
1.4702702702702704
1.481081081081081
1.4918918918918918
1.5027027027027027
1.5135135135135136
1.5243243243243243
1.535135135135135
1.545945945945946
1.5567567567567568
1.5675675675675675
1.5783783783783782
1.5891891891891892
1.6
1.6108108108108108
1.6216216216216215
1.6324324324324324
1.6432432432432433
1.654054054054054
1.6648648648648647
1.6756756756756757
1.6864864864864866
1.6972972972972973
1.708108108108108
1.718918918918919
1.7297297297297298
1.7405405405405405
1.7513513513513512
1.7621621621621621
1.772972972972973
1.7837837837837838
1.7945945945945945
1.8054054054054054
1.8162162162162163
1.827027027027027
1.8378378378378377
1.8486486486486486
1.8594594594594596
1.8702702702702703
1.881081081081081
1.8918918918918919
1.9027027027027028
1.9135135135135135
1.9243243243243242
1.9351351351351351
1.945945945945946
1.9567567567567568
1.9675675675675675
1.9783783783783784
1.9891891891891893
2.0
SCALARS Curvature float
LOOKUP_TABLE default
0.0
0.09958598898198323
0.07293452580700463
0.056257152526385114
0.08330116341824069
0.1682422015298332
0.25347694324978975
0.23286704485570092
0.1748728001217925
0.13336551451968628
0.11947922322291657
0.12181664600003671
0.12030866148994554
0.11099359949397096
0.09055977322879553
0.06790625836073048
0.060850148749741886
0.09451894912166897
0.20350908293628314
0.4474396370229559
0.6668479020853193
0.570548608231927
0.3542873206513464
0.2015022506504861
0.11355563143033222
0.05484176774919954
0.007987752560209851
0.03417512202461536
0.07891393045429793
0.13640568214872464
0.19622275346112192
0.2277424913050624
0.21542841086433387
0.1773356081163658
0.1289151886500331
0.0817790333075979
0.04905008555891185
0.0273410287399427
0.017939039709040705
0.02508105255235892
0.04541399525485196
0.07643822886728992
0.08372939451661557
0.09107391017632623
0.10444207455958238
0.11933716622708689
0.1316911717831656
0.13605467001437904
0.1236780074341748
0.10418524330134504
0.08962113355229379
0.07363712248493161
0.05771799470276044
0.046329176114758605
0.04254460339620346
0.044031947288893564
0.04267379180176278
0.032396750732601336
0.017350933396393427
0.026382080197360387
0.05350201790519922
0.08215415093907565
0.10714765129217342
0.12535494202015765
0.13587157344429937
0.13976516592101093
0.1391093141197404
0.13476805592436433
0.12324020701994806
0.10155154698691325
0.07122505291722274
0.0327208304241511
0.03415847650876433
0.11114317465772507
0.0
SCALARS Torsion float
LOOKUP_TABLE default
0.0
0.0
0.25848815250420876
0.593631766372345
0.4980435767102897
0.25601192961784264
0.1811050928558146
0.23744981445306437
0.28285649903295795
0.252231463559028
0.23283914455784532
0.1162554520399422
-0.03858366127416485
-0.14232110018031843
-0.11625382687877253
0.06624259583854838
0.32443278852979895
0.26261559765388515
0.11293484382369989
0.010724217378572792
-0.12007323302623235
-0.04195925609874972
0.014398101656039733
-0.07233806429853035
-0.11920571925559506
-0.22099355950301283
-0.9817086454089983
-0.05137458022309416
-0.07233707424295775
-0.06014069813727063
-0.04577560324028672
-0.042955951948082584
-0.04471387209099498
-0.05192152632151102
-0.07857396099924277
-0.012611992673390193
0.12221455640118595
0.3049546644566401
0.6266540529125673
0.330748740939242
0.17100125682002856
-0.043881301462424555
-0.1609177981408625
0.005681509981378313
0.05130227116223587
0.06477285476043661
0.05960324952181309
0.01860212572169062
-0.004942028384468326
0.09318773159036106
0.07994188665426019
0.026858688454751423
0.03633389056977569
0.10309371361349258
0.14159316905546762
0.09809436347319052
0.06325403430133031
0.13439206487071997
0.6880127651064042
0.4575174014262259
0.10849024486549586
0.006973642397986035
-0.04625315128429235
-0.0708185082969793
-0.0596827034285189
-0.01646099214696751
0.02846692283511688
0.04988877125038989
0.04085818108255055
0.015518325390322923
-0.04415486738146457
-0.46421328795287015
-0.5980539324525108
-0.11551805486228939
0.0
