# vtk DataFile Version 2.0
Vessel Segment
ASCII
DATASET POLYDATA
POINTS 75 float
-4.983377715845548 20.609606175490104 -5.390950382328573
-5.467641307902033 19.594238683507573 -5.372302871084186
-6.067101005174447 18.55252284412653 -5.27810422061981
-6.743311155885945 17.519112199902512 -5.163905588678402
-7.458614661244872 16.525537450470754 -5.087025084798101
-8.174956082748794 15.59959335464347 -5.107524046693741
-8.854375903495646 14.76130206509247 -5.283733915905878
-9.461599826219086 14.017656048498978 -5.66321834235164
-9.965329329591052 13.367888472670682 -6.269244524887887
-10.349406808648617 12.789784750141168 -7.066707437399288
-10.605799645440948 12.241343225403426 -7.998681069922827
-10.716517307517279 11.69865538043512 -9.010250145977132
-10.662460118562255 11.155998056844753 -10.050288835366947
-10.430328019409025 10.618608934787076 -11.086519323338647
-10.024645656741177 10.08803599578414 -12.092824142807464
-9.469105987904806 9.553763922103961 -13.04884338018208
-8.805363672018688 9.002720113915709 -13.9273089048483
-8.09051106679923 8.424208943986326 -14.684855595037163
-7.386842400085568 7.816658706552265 -15.262935261742152
-6.752728114149047 7.19126245087107 -15.596213084113593
-6.238586890092844 6.5744452670557525 -15.623007645800458
-5.892993272011777 6.0110149500977 -15.310190759934178
-5.733405275311799 5.555295263461215 -14.701929459742782
-5.732500119422991 5.2316739469549045 -13.87908947168805
-5.86112345833169 5.039901833267236 -12.910813335747356
-6.094429169019271 4.9638171564426035 -11.858696637537479
-6.403933570379033 4.97369197573696 -10.771035406142266
-6.7564513346290305 5.031522149967191 -9.678676876333851
-7.113430666041801 5.0905079971041625 -8.596252232613399
-7.436961826703869 5.099715814016674 -7.524366806022574
-7.695094830520258 5.012890172746814 -6.462056945004368
-7.86380346055255 4.794056542183449 -5.417017801947406
-7.930151745493812 4.421701058420582 -4.408132472486832
-7.892266868117706 3.8933319241207305 -3.4575287015536844
-7.753869927444346 3.2200916397151915 -2.5836690659486994
-7.527684890722098 2.4216824646682995 -1.8007200062564659
-7.238476099393005 1.5240146368155847 -1.1140659280013583
-6.909935174937341 0.5523458150019973 -0.5190056582498642
-6.5525154526936715 -0.4707288749654007 -0.007312688262867845
-6.161319524064385 -1.5231962565461996 0.4296218053350458
-5.720608473492601 -2.5848776847104222 0.7991170554633804
-5.215338898641321 -3.639105840209364 1.0996074261293343
-4.6492869898887115 -4.673568476581052 1.341391498019278
-4.015459343287562 -5.678782804530466 1.563424359560072
-3.3074828086101835 -6.638455901828154 1.7901088523983335
-2.5260081798683762 -7.534029577475418 2.0391284003178014
-1.6766038077719445 -8.34949653851665 2.3273788366722608
-0.7692454952384404 -9.073682766137624 2.6706012909924777
0.18415779419174771 -9.699938369995618 3.081787438412564
1.1730669933528424 -10.219641317170584 3.5636644898967607
2.192701305697362 -10.62541518389823 4.099439445228916
3.2410565462259986 -10.913082036765012 4.669323034210931
4.3135131682376295 -11.076432211672431 5.25937698915819
5.401083843668092 -11.110093516327805 5.862632163716815
6.49088133538002 -11.015885891726255 6.4790615720769225
7.5689568763221695 -10.808158722740979 7.113897799580544
8.624969539768406 -10.514849030195696 7.77344754660802
9.655447197109511 -10.173654647137255 8.460852945443936
10.663415135739271 -9.82442573808616 9.174297504752891
11.654600367764179 -9.501771490003565 9.90775103735844
12.6325617617412 -9.231544705415857 10.653156573341601
13.595178633151498 -9.032561205996082 11.402856890590408
14.532989256286807 -8.920003637798583 12.151713693321677
15.429886922139183 -8.907428103876994 12.897928042381626
16.266419004661486 -9.005685108786738 13.641922255058276
17.025176586747758 -9.220754834648318 14.38338767140485
17.69628203628625 -9.553810811558614 15.119027199280085
18.27891139781 -10.00343473768223 15.84297659833655
18.779091724918953 -10.567597224770294 16.54882288096954
19.206129603325792 -11.242869420416374 17.23197524988424
19.569789272082023 -12.022041448371029 17.890439066235704
19.877810345260258 -12.890260768008801 18.525072299512967
20.138706654939536 -13.818841611534234 19.141874490670943
20.366988348029334 -14.77015265009793 19.753340559715756
20.579211687229165 -15.703939236822682 20.37459909532062
LINES 1 76
75 0 1 2 3 4 5 6 7 8 9 10 11 12 13 14 15 16 17 18 19 20 21 22 23 24 25 26 27 28 29 30 31 32 33 34 35 36 37 38 39 40 41 42 43 44 45 46 47 48 49 50 51 52 53 54 55 56 57 58 59 60 61 62 63 64 65 66 67 68 69 70 71 72 73 74
POINT_DATA 75
SCALARS MaximumInscribedSphereRadius float
LOOKUP_TABLE default
1.2
1.2108108108108109
1.2216216216216216
1.2324324324324323
1.2432432432432432
1.2540540540540541
1.2648648648648648
1.2756756756756755
1.2864864864864864
1.2972972972972974
1.308108108108108
1.3189189189189188
1.3297297297297297
1.3405405405405406
1.3513513513513513
1.362162162162162
1.372972972972973
1.3837837837837839
1.3945945945945946
1.4054054054054053
1.4162162162162162
1.427027027027027
1.4378378378378378
1.4486486486486485
1.4594594594594594
1.4702702702702704
1.481081081081081
1.4918918918918918
1.5027027027027027
1.5135135135135136
1.5243243243243243
1.535135135135135
1.545945945945946
1.5567567567567568
1.5675675675675675
1.5783783783783782
1.5891891891891892
1.6
1.6108108108108108
1.6216216216216215
1.6324324324324324
1.6432432432432433
1.654054054054054
1.6648648648648647
1.6756756756756757
1.6864864864864866
1.6972972972972973
1.708108108108108
1.718918918918919
1.7297297297297298
1.7405405405405405
1.7513513513513512
1.7621621621621621
1.772972972972973
1.7837837837837838
1.7945945945945945
1.8054054054054054
1.8162162162162163
1.827027027027027
1.8378378378378377
1.8486486486486486
1.8594594594594596
1.8702702702702703
1.881081081081081
1.8918918918918919
1.9027027027027028
1.9135135135135135
1.9243243243243242
1.9351351351351351
1.945945945945946
1.9567567567567568
1.9675675675675675
1.9783783783783784
1.9891891891891893
2.0
SCALARS Curvature float
LOOKUP_TABLE default
0.0
0.07611302192650861
0.045971933603924243
0.043894911149234085
0.07786721115242055
0.1416470485130652
0.2150392135207971
0.24880088223034844
0.20178376298580294
0.1405917603171169
0.11777642834619835
0.11834163816760662
0.12348812052571427
0.11845370117837341
0.10254689682265766
0.0880133939034336
0.09134087063928852
0.13325077927518048
0.24369448514902964
0.4534227585429833
0.6135126131363753
0.5125228116992414
0.3168647525755543
0.19342302342476347
0.1267818339372224
0.08309677439463932
0.046446012161980736
0.0057687047813365505
0.045796913084487856
0.09559747514943424
0.13636024331658042
0.16019215547846147
0.16269446746324226
0.15102625456240434
0.13190220435871264
0.1081872214432622
0.08617985909255974
0.06999971061537417
0.059598900131965414
0.05754465744459219
0.06492665127968146
0.059821737058612504
0.05197980694318444
0.05881114259455572
0.06766432530676829
0.07611836861385382
0.08252212097169494
0.08649843318655259
0.08908804759201594
0.08642966298519333
0.08317892259647827
0.08337755320494113
0.08394423127597024
0.08057220295235865
0.07089033869624585
0.05536020355968334
0.03668042040400119
0.021448610614722616
0.02236048221078561
0.03371243800224226
0.04575446656329026
0.058766827784185224
0.0751479643522939
0.09533196000034129
0.11589728847344026
0.1310707693770884
0.13672025991444983
0.13226248456824016
0.11909554021425782
0.10033051609002641
0.07962366453252444
0.055814476655338625
0.02927694780730143
0.01745008849634019
0.0
SCALARS Torsion float
LOOKUP_TABLE default
0.0
0.0
0.4823175858510946
0.5646048669253072
0.28003857496707396
0.14185125745866026
0.0987775131597427
0.08244713815047297
0.13481068871828464
0.27896731257207685
0.2644075312947604
0.1561935725549053
0.05026558715201787
0.050650926889860226
0.1126488024138052
0.20468832909973295
0.2817876169994424
0.20501404109914934
0.09209410716026831
0.017850985024108534
-0.000645852649680919
-0.031679658869502296
-0.07590184958005819
-0.04332609654174735
0.016809279068248917
0.05042082677811094
0.087772533935829
0.9996964485275037
0.08605909285302671
0.01351557653110877
-0.005783992052926132
-0.022137516142567166
-0.022448589063753858
-0.010184578971774307
-0.025833581322743007
-0.07169919506162192
-0.08341635090241369
-0.004632703673287275
0.1480081391248294
0.2388195580676409
0.1407564812823496
0.10422597049775573
0.4149303336343289
0.23437981638434738
0.1408664880258522
0.11713888171339477
0.10819476726259841
0.09466341903817252
0.03132037589233955
-0.08204416670815017
-0.10646825772085128
-0.0647090634631132
-0.01171278854387553
0.0398915794203159
0.09487370842380562
0.16608941586638037
0.3197415408968778
0.6700931895308533
0.5696058103574138
0.2365017593721187
0.09074376258322905
0.005714665618337084
-0.04604108483654428
-0.06412279158447802
-0.05275571396393457
-0.019239334465606925
0.020794924945777848
0.05184733797977806
0.05972873233926631
0.048487094072988894
0.009385386264613584
-0.08505505302775074
-0.41037243237426957
-0.8987609808132173
0.0
