# vtk DataFile Version 2.0
Vessel Segment
ASCII
DATASET POLYDATA
POINTS 75 float
-4.553886707778723 21.989737847868753 -7.438541307154385
-5.086078825906057 21.167773307940283 -7.188907168398945
-5.719821247705151 20.233126639777232 -6.864064286115783
-6.410148754342946 19.235424025934854 -6.532301705887911
-7.11658355855126 18.212944392966204 -6.253331040584244
-7.800760025657952 17.195502927590912 -6.080880000258063
-8.430024571538997 16.20706735079962 -6.059407438160025
-8.97756913743856 15.26588775380823 -6.2310266638236005
-9.408879952931503 14.405820810276085 -6.644160867421735
-9.701540826997965 13.641331769762434 -7.259087379510187
-9.861433052167273 12.932977056237162 -8.013355354212402
-9.90217890885755 12.24404548947149 -8.86228327332686
-9.82535214320616 11.542424306864417 -9.773629599054695
-9.602768355024184 10.827984873424944 -10.721165882669073
-9.237731011033803 10.107395237309841 -11.625139202746489
-8.757526550680618 9.377373184858836 -12.416163649230207
-8.208484481379333 8.64686028655248 -13.055927009925195
-7.649382055816388 7.914967211477809 -13.533197004683363
-7.133848960586336 7.177959404480489 -13.846745050315807
-6.702237173995246 6.432254058857122 -13.995316373697806
-6.380250937422106 5.67380214589723 -13.959574140800964
-6.213862815364277 4.9076476589447 -13.688238216822848
-6.234216675985023 4.202415410040128 -13.19391187582854
-6.394160217626633 3.607327871379089 -12.548984133181524
-6.65981310124533 3.1449351593171926 -11.799083727204895
-7.020351488820135 2.8301131489961713 -10.985319385228745
-7.4661962159538175 2.6645167346269196 -10.143178483453129
-7.971545394585635 2.6405860135401245 -9.300012774727593
-8.476978270363286 2.7192813931089317 -8.471169855847112
-8.91322934376013 2.843462746971448 -7.637352715501935
-9.22612796916159 2.962040821720822 -6.771252672474936
-9.381459402377656 3.031865750781414 -5.858093969491144
-9.363577533212686 3.0128281699458985 -4.901972750225296
-9.173676809371692 2.8745426666316627 -3.9219037407170743
-8.819484286068137 2.592573144179311 -2.9411139788594136
-8.316401147767754 2.1429072956773836 -2.001626630458208
-7.708394738115851 1.530311939425433 -1.1597495509046887
-7.045031623445097 0.7858576707388817 -0.45339033501272746
-6.358166818655781 -0.05106651129680046 0.09793976814586441
-5.663712534123463 -0.9391772825008232 0.4943593054750105
-4.964979469068314 -1.8445593365239474 0.7522114056796388
-4.2677275687247604 -2.7448200271487724 0.8715185181090188
-3.62130977519528 -3.628380088281316 0.8914401164777301
-3.0126192371995706 -4.500410434090435 0.9306946895231191
-2.410714413113077 -5.358853865185465 1.0480299987088075
-1.7947901437202523 -6.194436997074039 1.2706247756520004
-1.1476545073958189 -6.994841564125567 1.6080253253227643
-0.455305141676023 -7.747859739329959 2.060692238787517
0.29086854601800854 -8.439985808652718 2.6319028598550678
1.0926691660630685 -9.044414192218381 3.3111996864391053
1.9544647955934165 -9.544807530300586 4.044206858600214
2.8816098416644795 -9.942908394544729 4.781907685990883
3.871573944716082 -10.233889792590903 5.499034609171176
4.91337472089101 -10.405567250573046 6.188561601573113
5.991425779066833 -10.450201755624294 6.8564531542230505
7.090749019607067 -10.376292769834038 7.515108556473621
8.200544814928445 -10.21395294430979 8.176364739019029
9.313973248202485 -10.00779589550177 8.847422849063209
10.426197009737969 -9.801977499982025 9.530974659671594
11.532390303892786 -9.627669696855698 10.2270194790605
12.625980359917449 -9.500975581992659 10.933298162536316
13.696923303835883 -9.43018831803192 11.645089550353012
14.730663764082832 -9.422913340194878 12.354535679815141
15.709176966915148 -9.48851605159333 13.051234369056044
16.61296700466184 -9.635679450123263 13.725951859601977
17.42407848519142 -9.869693607219608 14.375489960942964
18.12900421396433 -10.192055827952174 15.00547396637444
18.72119424271056 -10.602061483446343 15.628939660890092
19.202023579946744 -11.096957954747712 16.261486215793813
19.579202852651488 -11.67328933088197 16.914418540479602
19.86353541971408 -12.328498135288445 17.588695653000133
20.065490788083274 -13.06383965464336 18.27370983891711
20.191511490040746 -13.887359778916178 18.950453349453806
20.239034054009586 -14.809772665311538 19.596121553551786
20.19734616500816 -15.83020312129346 20.189967952129294
LINES 1 76
75 0 1 2 3 4 5 6 7 8 9 10 11 12 13 14 15 16 17 18 19 20 21 22 23 24 25 26 27 28 29 30 31 32 33 34 35 36 37 38 39 40 41 42 43 44 45 46 47 48 49 50 51 52 53 54 55 56 57 58 59 60 61 62 63 64 65 66 67 68 69 70 71 72 73 74
POINT_DATA 75
SCALARS MaximumInscribedSphereRadius float
LOOKUP_TABLE default
1.2
1.2108108108108109
1.2216216216216216
1.2324324324324323
1.2432432432432432
1.2540540540540541
1.2648648648648648
1.2756756756756755
1.2864864864864864
1.2972972972972974
1.308108108108108
1.3189189189189188
1.3297297297297297
1.3405405405405406
1.3513513513513513
1.362162162162162
1.372972972972973
1.3837837837837839
1.3945945945945946
1.4054054054054053
1.4162162162162162
1.427027027027027
1.4378378378378378
1.4486486486486485
1.4594594594594594
1.4702702702702704
1.481081081081081
1.4918918918918918
1.5027027027027027
1.5135135135135136
1.5243243243243243
1.535135135135135
1.545945945945946
1.5567567567567568
1.5675675675675675
1.5783783783783782
1.5891891891891892
1.6
1.6108108108108108
1.6216216216216215
1.6324324324324324
1.6432432432432433
1.654054054054054
1.6648648648648647
1.6756756756756757
1.6864864864864866
1.6972972972972973
1.708108108108108
1.718918918918919
1.7297297297297298
1.7405405405405405
1.7513513513513512
1.7621621621621621
1.772972972972973
1.7837837837837838
1.7945945945945945
1.8054054054054054
1.8162162162162163
1.827027027027027
1.8378378378378377
1.8486486486486486
1.8594594594594596
1.8702702702702703
1.881081081081081
1.8918918918918919
1.9027027027027028
1.9135135135135135
1.9243243243243242
1.9351351351351351
1.945945945945946
1.9567567567567568
1.9675675675675675
1.9783783783783784
1.9891891891891893
2.0
SCALARS Curvature float
LOOKUP_TABLE default
0.0
0.02687966473346312
0.011885616542427438
0.035727097470447396
0.06796363834429647
0.11100067314884396
0.17018774445739507
0.2494299534642065
0.2454332618997151
0.1769185894037487
0.11850075288577287
0.0877578531646935
0.09370003636881942
0.10065178089209241
0.11461720903438653
0.12602483334491482
0.13646120188454144
0.16676111551408537
0.22451632726059972
0.30407399896602877
0.3825739088996895
0.3667733059692953
0.27553830905376847
0.22439888687336124
0.201297499637066
0.17967330389943303
0.15499978196911904
0.10872432772846734
0.08868713170682188
0.14631375719815456
0.19534222782604804
0.20842058819450665
0.19247212099271074
0.16799400230110115
0.15323598479978293
0.1409061416029009
0.1294554606294236
0.12261263649508712
0.11369547921899939
0.10074708257118681
0.10434997655135843
0.08601951155100448
0.028070685159043963
0.07112848830421725
0.09546942363684237
0.10257014203395812
0.09996140125378156
0.09677669116032918
0.0949524710525567
0.08326408863811427
0.0766810569312918
0.07913024814502174
0.0831126480781742
0.08243064374536299
0.07213562801563576
0.050986003240613205
0.024525378643834805
0.006491169063430155
0.019743164281790338
0.02885322797136172
0.03469080296906066
0.04205462833477872
0.05430265224706888
0.0727591056915421
0.09743258104339628
0.1261466997001016
0.15109045233654467
0.1586347024720416
0.14496935131350858
0.12057930861587517
0.09938152471773218
0.0897351958655678
0.09065327276505546
0.09160261047142575
0.0
SCALARS Torsion float
LOOKUP_TABLE default
0.0
0.0
0.8982124951681375
0.14622364551026756
0.061901377886755204
0.03112855925253198
0.014238386376618145
0.00030871731380992425
0.07987395750995652
0.21756244135479358
0.2563564240883325
0.3121514271302681
0.11136263684723452
0.21774999592352762
0.23340213387399714
0.1888871911780041
0.2967551928506166
0.30980745860340525
0.21719434553283357
0.06919615133931295
0.030425677418534636
0.024589981249013553
-0.08743902315392028
-0.07370154953103691
0.0369975113071703
0.056063380474207364
-0.03216559497002493
-0.3775387285795702
-0.8120903541748274
-0.39760148072197066
-0.19384629856892951
-0.15355414868723735
-0.1284560870340281
-0.1070709657515789
-0.10183623052226928
-0.09671699514758668
-0.06822185404131842
-0.004032227577348724
0.05391896060974226
0.10354130046905874
0.05839159714177056
-0.3661957321826513
-0.9929429124210092
-0.2891859681450639
-0.13675395497954185
-0.12288638842975307
-0.11163465291895905
-0.063498193394035
-0.09082176077093072
-0.27311492236010426
-0.27749549629513515
-0.10650593489693636
0.025128310968719564
0.08756101611329935
0.10959093343518837
0.12908337920666677
0.2832693313004453
0.9930971520836297
0.2139931731764667
0.049834084736049666
0.00985248227857155
0.005886045694219185
0.010357741934284327
-0.007690108291276625
-0.043952016580628105
-0.08122120200365486
-0.09788224147925961
-0.09464750313781806
-0.06178117505298983
0.01274178587665796
0.11906045018196934
0.1784782303823964
0.12043583807117679
0.02464923391441949
0.0
