# vtk DataFile Version 2.0
Vessel Segment
ASCII
DATASET POLYDATA
POINTS 75 float
-5.344452512873693 21.221912860151896 -6.018563590053184
-5.748084248884565 20.096039366976754 -5.949380173243183
-6.292174579176168 18.966486926417183 -5.742367320620279
-6.940453895775462 17.85124107222912 -5.45471719563434
-7.654271218256738 16.768961119876842 -5.14560826214487
-8.393614726455974 15.741169048165212 -4.880139006354784
-9.121096107533786 14.791513825656319 -4.73243607733794
-9.807043692086387 13.938288193313698 -4.776741274554065
-10.428670767169708 13.182262271509218 -5.069032761951084
-10.96725491583089 12.495614687843949 -5.6152327773506485
-11.398459632068384 11.820974552103273 -6.373224453963013
-11.668051867455217 11.123774626829976 -7.279892107714049
-11.743345220913204 10.403461038047501 -8.259308231983148
-11.620774196376182 9.688184125473375 -9.267478890853782
-11.332939639345884 9.00869922418622 -10.274515441793756
-10.91552113371292 8.365529084570387 -11.293101894139669
-10.370140215651649 7.753408839985159 -12.3157307531444
-9.708132483515858 7.177626350547139 -13.295070625264364
-8.955021548479957 6.635563078650256 -14.170946989128161
-8.141030418479426 6.122355086340832 -14.867932785947481
-7.303735545943059 5.631226559859675 -15.307866505111006
-6.512072873000642 5.154319048414845 -15.402766437272511
-5.896769807169215 4.723133300309076 -15.09641701137177
-5.515563235980007 4.396910617685014 -14.460053122421384
-5.360459607310206 4.211705839427268 -13.575078654915117
-5.406356163732913 4.182332983049588 -12.530577277175455
-5.597731391218722 4.2965910179216005 -11.417515932499882
-5.864715579440401 4.513568945498992 -10.3020101295952
-6.149537495659651 4.783463938124468 -9.211916529154763
-6.409466878932621 5.047398991565535 -8.159482017616812
-6.615549616943321 5.240203778718856 -7.146619267593078
-6.752330614887134 5.3064805537238335 -6.17107421092938
-6.812570950491394 5.20915007710929 -5.2282718731078655
-6.791100454316516 4.924627908114715 -4.316176929235145
-6.687954496954843 4.443167886693343 -3.4421662806049484
-6.507829322917565 3.770316974704898 -2.6270902648865153
-6.262470479828154 2.9311709153623617 -1.900870850596294
-5.96476299061031 1.9644657209901322 -1.2855685976039681
-5.620584440687929 0.9076348974859731 -0.7927508555958563
-5.2283617395651145 -0.20520030870509298 -0.42693647634937293
-4.783253744233092 -1.3418807558193957 -0.17979640515088025
-4.283273299055324 -2.478094495409878 -0.03413802977844613
-3.736515230046246 -3.599202213483354 0.03909385040132628
-3.1439345537495997 -4.695240727258364 0.08626511779421342
-2.498596209570409 -5.750421093639092 0.1537418145565293
-1.7877632319089642 -6.739406359167472 0.2879408882628046
-0.9984644535932437 -7.631722401592902 0.5271744690995599
-0.12773953186552023 -8.40322100859549 0.8925020633777362
0.8152289841754053 -9.043903224856741 1.3823376659667468
1.8147129021340083 -9.554305869035476 1.974507782566558
2.8560017314172863 -9.9378069140679 2.632547162681283
3.9277717575887805 -10.193109130310951 3.3225114465737575
5.021219351764166 -10.312370971761485 4.022593551031284
6.127876478675078 -10.291393167230419 4.725491753733475
7.237163397155775 -10.141388231231263 5.43701378538599
8.336358169664 -9.892444985306135 6.171520734342891
9.413654553502937 -9.587509775242598 6.9444103983288725
10.461309163359548 -9.273752239283654 7.765655010691474
11.475890322124448 -8.994711582756992 8.637850180350425
12.454473503070552 -8.78379035983276 9.556659955275553
13.390515362145921 -8.664097026895172 10.51124947675532
14.2724321588292 -8.652845977939702 11.48709666172307
15.083899629237152 -8.764133605292598 12.470547797458089
15.8044429947158 -9.00705817972548 13.453604864637335
16.413013844901027 -9.381294550486 14.433979309419898
16.895498040164046 -9.875134567260432 15.41014608042572
17.25159031102417 -10.469874929750482 16.375993315117846
17.49448590791507 -11.147158426024669 17.31975429481738
17.644543216728884 -11.893982313419578 18.227357775479007
17.72399776927707 -12.702258074534088 19.086715357790954
17.75745069442602 -13.5655071195183 19.890511256784507
17.77481376312342 -14.477371492873765 20.638582361772304
17.808453818142038 -15.434559691199043 21.33593810018742
17.88545565378929 -16.4345182896254 21.98915929667898
18.027743480603093 -17.47026527450162 22.606110692273486
LINES 1 76
75 0 1 2 3 4 5 6 7 8 9 10 11 12 13 14 15 16 17 18 19 20 21 22 23 24 25 26 27 28 29 30 31 32 33 34 35 36 37 38 39 40 41 42 43 44 45 46 47 48 49 50 51 52 53 54 55 56 57 58 59 60 61 62 63 64 65 66 67 68 69 70 71 72 73 74
POINT_DATA 75
SCALARS MaximumInscribedSphereRadius float
LOOKUP_TABLE default
1.2
1.2108108108108109
1.2216216216216216
1.2324324324324323
1.2432432432432432
1.2540540540540541
1.2648648648648648
1.2756756756756755
1.2864864864864864
1.2972972972972974
1.308108108108108
1.3189189189189188
1.3297297297297297
1.3405405405405406
1.3513513513513513
1.362162162162162
1.372972972972973
1.3837837837837839
1.3945945945945946
1.4054054054054053
1.4162162162162162
1.427027027027027
1.4378378378378378
1.4486486486486485
1.4594594594594594
1.4702702702702704
1.481081081081081
1.4918918918918918
1.5027027027027027
1.5135135135135136
1.5243243243243243
1.535135135135135
1.545945945945946
1.5567567567567568
1.5675675675675675
1.5783783783783782
1.5891891891891892
1.6
1.6108108108108108
1.6216216216216215
1.6324324324324324
1.6432432432432433
1.654054054054054
1.6648648648648647
1.6756756756756757
1.6864864864864866
1.6972972972972973
1.708108108108108
1.718918918918919
1.7297297297297298
1.7405405405405405
1.7513513513513512
1.7621621621621621
1.772972972972973
1.7837837837837838
1.7945945945945945
1.8054054054054054
1.8162162162162163
1.827027027027027
1.8378378378378377
1.8486486486486486
1.8594594594594596
1.8702702702702703
1.881081081081081
1.8918918918918919
1.9027027027027028
1.9135135135135135
1.9243243243243242
1.9351351351351351
1.945945945945946
1.9567567567567568
1.9675675675675675
1.9783783783783784
1.9891891891891893
2.0
SCALARS Curvature float
LOOKUP_TABLE default
0.0
0.10924062674252076
0.06849663509353802
0.04234577264881503
0.03827604314486554
0.07891589561470931
0.16340568555624346
0.25408575684929147
0.2514177610110098
0.17695743164060063
0.14462784706014384
0.13391526303532789
0.12632530596873418
0.10747592848291379
0.08035489055198326
0.07257557691225547
0.07457344298836871
0.08477732662695822
0.12369911355178259
0.20804974920922312
0.3733947184836452
0.5844990942826466
0.5479219429633057
0.3636376488968704
0.2260472301795582
0.14460732427781414
0.0889622780993743
0.04536150703396985
0.01263337412253003
0.06828015741564857
0.14113716368792542
0.1995219200859145
0.2203432070401036
0.20097854049356875
0.16849942215332062
0.14052400274792082
0.11829111302749433
0.10340661000352089
0.0941924072178973
0.08423647656369158
0.07345658913160273
0.055983107725755064
0.03752011697336606
0.04524534031877929
0.07596183801444227
0.10988074854582565
0.1282189335521525
0.12345967904510137
0.10545982912082641
0.0874909393009492
0.07943820403277317
0.08081057903660346
0.08131061419546187
0.07237785586858107
0.05494649900070089
0.03740746929785892
0.030351048462519188
0.03743470506303736
0.048659617755050566
0.058826283040753144
0.06991653381666449
0.08448452746966785
0.10170651124003402
0.1161318621902496
0.12095964422508902
0.11412041215696755
0.10026070249486706
0.08626667133017764
0.07515933280916617
0.06503796584171366
0.05431890674951877
0.04951811577969154
0.05148336558249226
0.05452204154440452
0.0
SCALARS Torsion float
LOOKUP_TABLE default
0.0
0.0
0.16456975697614865
0.3952161376595931
0.5945974816483899
0.26194473762564185
0.10221677694059866
0.07092578600466469
0.11305447274708161
0.2785853095108853
0.31897182946360747
0.19707528540869065
0.01398309899685185
-0.05923658223583548
-0.10378606562588441
0.04985114741772992
0.11871401995621267
0.17744901166512125
0.16424910691550842
0.12558247869559086
0.12497531859990381
0.09574575763124062
-0.033699659316693095
-0.09609359439621694
-0.08700857210331309
-0.12359960739158349
-0.18732290869809928
-0.40051787661373
-0.9979736185101753
-0.18244607893887088
-0.08346423412285685
-0.04607384912752405
-0.021083130649788853
-0.02081963204776046
-0.019857092412337782
-0.02260771836614326
-0.0037204533939651473
0.03460181305004324
0.07588315849405798
0.12014285075199518
0.13160133076664676
0.14500888401881926
0.5356709314667321
0.438695889215874
0.16468024308038776
0.05446130009341846
0.021717678840730267
0.0041235380365101035
-0.031097522895863504
-0.10293454422965126
-0.12526492100440448
-0.07492965842158829
-0.008032505681642252
0.06533439513528332
0.18915363104640293
0.41357360767305384
0.5420034786857529
0.34475305761806024
0.17717980820998447
0.09751185220765438
0.05440682640827464
0.01823688534390954
-0.023588969664543886
-0.057289930622406476
-0.06734432425275712
-0.042221858013495504
0.017708136406933535
0.09306856618162476
0.14926106800567862
0.20183564314794886
0.3085389438085416
0.37878102709338857
0.28601883453495636
0.21848309400775942
0.0
