# vtk DataFile Version 2.0
Vessel Segment
ASCII
DATASET POLYDATA
POINTS 76 float
-4.328314233963947 17.011729384925935 -6.4878458889314325
-4.637479254461584 16.335206573589222 -6.437348585130576
-5.043284729740351 15.613103817759198 -6.325741411750251
-5.507929418602562 14.878666758625794 -6.204710252994613
-6.003538460560217 14.163050713791678 -6.109328553130777
-6.518525731067305 13.464362160178814 -6.074014360836491
-7.035315471346012 12.781678194182813 -6.152968454132634
-7.517741688367556 12.133151419392702 -6.388544579250272
-7.9288269856811375 11.51865331496751 -6.776341729963765
-8.205483496933555 10.936599351887734 -7.301594510198715
-8.364583558182611 10.363625904536578 -7.878599359561216
-8.419568997491474 9.793630357283769 -8.481627773818788
-8.369938301416097 9.235039797173343 -9.090261359475736
-8.221938337619392 8.687844037432022 -9.685873223651523
-7.984438513253733 8.146061063983131 -10.257450445491031
-7.671752396262972 7.603606082087754 -10.784818355065765
-7.309648735440163 7.0542580078759 -11.231175663564397
-6.931696779845673 6.492827223536547 -11.542960851842002
-6.575320573019686 5.921759128425626 -11.667220015202417
-6.298776853016147 5.396403323851805 -11.509486114250912
-6.1472447504897465 4.99297425347362 -11.073395374996727
-6.107529563915748 4.73384617927483 -10.44887625291537
-6.146527972054303 4.5981723673335715 -9.705594317174
-6.238180843205825 4.56587084182547 -8.896274475627232
-6.34441916788682 4.604133065967969 -8.080537517926517
-6.435310006368603 4.672294660620602 -7.286532253231361
-6.494794758693302 4.73122349422988 -6.5144454869549095
-6.507366765960291 4.7360894732616945 -5.761002325943411
-6.464050886923719 4.647015519699191 -5.015678064617488
-6.363276310899982 4.42880692482159 -4.278794594339286
-6.208834599390865 4.060148286828449 -3.5767994188541503
-6.015293086456318 3.5457432684247463 -2.9425349581913927
-5.79959053869497 2.9049487230387427 -2.4001115031949753
-5.579911516341454 2.169268277032833 -1.9540810687593415
-5.370907850446048 1.3720887987871626 -1.591842921693013
-5.1755455387173095 0.5415782528671382 -1.2938649884361595
-4.984885995333069 -0.3020999345606423 -1.0402654283246575
-4.7854425732200045 -1.146824629261202 -0.812165200186872
-4.562429915269723 -1.985302881404117 -0.59161798959616
-4.301860218381479 -2.8100017384215064 -0.36649131540567603
-3.992657886912338 -3.6102789934643638 -0.12926917054157305
-3.625291640440543 -4.375359108327298 0.12882200466603347
-3.1878053704989218 -5.093942198080087 0.4145253297833244
-2.6730449782850414 -5.752766381935292 0.7239332082311544
-2.0825534582349303 -6.337928301780975 1.0496773305124336
-1.4215573046740364 -6.834897136783296 1.3906770402645092
-0.7008856123039592 -7.231011224965987 1.7497766341642638
0.06303285622107464 -7.520005372896341 2.131385110827288
0.8521082476177108 -7.703281784794703 2.5379649539262736
1.6512407162101588 -7.789083290844902 2.967649959735838
2.4506623337595883 -7.789943873502653 3.415570198573255
3.2453571855580705 -7.718867441519555 3.8746464803567315
4.033359590568336 -7.5887146642757735 4.3357323132367664
4.813538302740986 -7.411820740735746 4.792684363551096
5.585152565852482 -7.198638834419439 5.245595281293714
6.347797990130329 -6.958705761850658 5.699828922213213
7.100304065527275 -6.702800114889104 6.162484648651743
7.84115446145639 -6.444782929356884 6.639522240328988
8.570390827351776 -6.202700488299046 7.134687051179182
9.289648535985188 -5.998108978008296 7.648692740402624
9.99936043108242 -5.853031348316258 8.179248017178574
10.695848876409748 -5.787630390329634 8.721790083500583
11.372075620633414 -5.820288252660147 9.269912097241935
12.018082302341712 -5.967249738196976 9.817398968146346
12.61687132861818 -6.24027196852604 10.360682117945904
13.140429669769512 -6.641443507566347 10.897147956341659
13.56161951062817 -7.1569154416530685 11.420662381395532
13.874584091871721 -7.7659929764851325 11.925322003165865
14.08334990947624 -8.453960060403999 12.409685209374667
14.19486847140582 -9.20307956513001 12.871289149215386
14.22844912894686 -9.988088372924262 13.309984902085125
14.214724821041834 -10.782334289408693 13.733878174012426
14.186740521465191 -11.565938069309064 14.157125668977246
14.16943408528543 -12.328870022855103 14.586633790173234
14.176953149632126 -13.054420766768636 15.016657580129888
14.21416202868374 -13.718077428064081 15.426812204370808
LINES 1 77
76 0 1 2 3 4 5 6 7 8 9 10 11 12 13 14 15 16 17 18 19 20 21 22 23 24 25 26 27 28 29 30 31 32 33 34 35 36 37 38 39 40 41 42 43 44 45 46 47 48 49 50 51 52 53 54 55 56 57 58 59 60 61 62 63 64 65 66 67 68 69 70 71 72 73 74 75
POINT_DATA 76
SCALARS MaximumInscribedSphereRadius float
LOOKUP_TABLE default
1.2
1.2106666666666666
1.2213333333333334
1.232
1.2426666666666666
1.2533333333333334
1.264
1.2746666666666666
1.2853333333333332
1.296
1.3066666666666666
1.3173333333333332
1.3279999999999998
1.3386666666666667
1.3493333333333333
1.3599999999999999
1.3706666666666667
1.3813333333333333
1.392
1.4026666666666667
1.4133333333333333
1.424
1.4346666666666668
1.4453333333333334
1.456
1.4666666666666668
1.4773333333333334
1.488
1.4986666666666666
1.5093333333333332
1.52
1.5306666666666666
1.5413333333333332
1.552
1.5626666666666666
1.5733333333333333
1.584
1.5946666666666667
1.6053333333333333
1.616
1.6266666666666667
1.6373333333333333
1.6480000000000001
1.6586666666666667
1.6693333333333333
1.68
1.6906666666666668
1.7013333333333334
1.712
1.7226666666666666
1.7333333333333334
1.744
1.7546666666666666
1.7653333333333334
1.776
1.7866666666666666
1.7973333333333334
1.808
1.8186666666666667
1.8293333333333335
1.84
1.8506666666666667
1.8613333333333335
1.8719999999999999
1.8826666666666667
1.8933333333333335
1.904
1.9146666666666667
1.9253333333333333
1.936
1.9466666666666668
1.9573333333333334
1.968
1.9786666666666668
1.9893333333333334
2.0
SCALARS Curvature float
LOOKUP_TABLE default
0.0
0.11249640515709589
0.056147454500579806
0.057823246571215646
0.08616854514487969
0.15481483798762544
0.22723627931276652
0.24079908895946212
0.2735396686805495
0.18510282544720963
0.15335437372260763
0.15261247558911253
0.1466642303366756
0.13609440749152985
0.12942144935578906
0.14666315294532972
0.23041549568452574
0.3760709630684664
0.6561467508667204
0.6874391083446912
0.4755266495142026
0.27357745331333533
0.17170461397230546
0.10492109950254506
0.05318164172896028
0.05057812276938026
0.1248617854333773
0.19118600491937357
0.22415653847400438
0.2347660969204475
0.2213536590902926
0.1999008149847504
0.16547545794769786
0.12626919596692543
0.08960474584975357
0.057189308745748665
0.033210448210479325
0.03175733908440084
0.050365891869072546
0.07020618954801316
0.09012661334363062
0.11147107866187538
0.12534313555470641
0.13295092215898519
0.1410076561292121
0.14562120817965293
0.1430917636855183
0.1341572692634927
0.11996638865488937
0.10253167040232798
0.08548223438029975
0.06970283882389253
0.05598731855826159
0.044293867783880274
0.033392822488807185
0.024475245823160217
0.022041357997025154
0.03174249361130123
0.05187541435348688
0.0768337995517306
0.10318794907791703
0.13092948877551722
0.15863848017355084
0.1827556497373905
0.20250298053074117
0.2109790755945871
0.19566706117044813
0.17082603298067534
0.1436754369895588
0.10716861246533606
0.062069303023244156
0.019184109463564775
0.02442672816105369
0.04466142472265199
0.05928980407483413
0.0
SCALARS Torsion float
LOOKUP_TABLE default
0.0
0.0
0.813743157573873
0.6127655026415157
0.3859590187198959
0.19675648178224625
0.11498659392981724
0.19758033603348665
0.27405324632483785
0.5388492123385591
0.21077525329527647
0.08863790086498836
0.1525291710698862
0.16649756229166687
0.284634574485659
0.4177576120452308
0.32558026679065843
0.18800726482203184
0.03822067058270659
0.005887381728116772
-0.0569756517075814
-0.09233074398303047
-0.10303938422555341
-0.38406540057261607
-0.8875812145321093
-0.8916411389177882
-0.31551200626641795
-0.15108378242616907
-0.12070654512302814
-0.08005394802951848
-0.07947789716236982
-0.0703370915482698
-0.0915195595091777
-0.12969816431706088
-0.06746007879275012
0.21410696693601589
0.7136532229104084
0.7480543022239879
0.2838142366754401
0.10566258231390624
0.08628619392681865
0.02769785396620264
-0.051129366580826965
-0.04260997253375759
0.028931114981249256
0.0755402556352887
0.10638439229016242
0.10753293392289381
0.075747302757515
0.03543210964363071
-0.022806852796587618
-0.10653735448396089
-0.10541142330753109
0.019779744462147336
0.25270349409792836
0.5586405900174513
0.691855265169577
0.4829120021136932
0.27372057085714596
0.15285881082747274
0.07740410411307137
0.042948971058108756
0.012069156728210923
-0.04515797343587839
-0.10456608868849435
-0.10903514376054906
-0.053017341703426764
-0.027164729558615024
-0.023568994143515418
-0.029891381527307366
-0.17470679475446116
-0.9781041285069324
-0.7115675431883094
-0.2182266470467053
-0.2347031298660402
0.0
