# vtk DataFile Version 2.0
Vessel Segment
ASCII
DATASET POLYDATA
POINTS 76 float
-4.744195271953844 18.343812712720926 -6.811513021649489
-5.152377574024098 17.59187558918871 -6.713259657863577
-5.577865529599343 16.804360756806155 -6.50036380293249
-6.018961008015032 15.992431533742337 -6.201151988728108
-6.476760096903885 15.182442825424445 -5.869717188763049
-6.951883837916929 14.366928616228682 -5.571621996752331
-7.436367949903347 13.53008438093711 -5.414114634416443
-7.882502867294802 12.694195961761999 -5.456864563347078
-8.244848631415122 11.861746734109378 -5.688302680003462
-8.480215132264801 11.0494872072239 -6.0837921029862665
-8.583392147504476 10.256188333096128 -6.562974580115018
-8.573995602197371 9.462047967619384 -7.08095713625887
-8.466890233388705 8.669202020973152 -7.625869733126207
-8.266301506364142 7.901572853487514 -8.196089372758475
-7.984072161234518 7.17832441260847 -8.777409373832565
-7.626918297974096 6.495995017591371 -9.353854080751503
-7.2057974235700275 5.846936092456112 -9.883931024610469
-6.7560932054566365 5.243008626532955 -10.303243382486377
-6.310100530578528 4.687087057597593 -10.601376701654585
-5.893301948626832 4.186865255173901 -10.730132648567931
-5.534957695426913 3.741086137971591 -10.683371116125016
-5.255770017437345 3.34953400275864 -10.482689820408842
-5.055152939509343 3.0328002930972717 -10.134476394174241
-4.965210704580864 2.8372277904412337 -9.623606441643302
-4.968333038292773 2.778319671168097 -9.019840070649806
-5.025791993678393 2.852620780162186 -8.372164469343993
-5.1053703525663545 3.0407691471415936 -7.6977690077428145
-5.179308002219528 3.2966024875622395 -7.004143802135795
-5.224464095183888 3.557885468105622 -6.299029126420612
-5.224914612711181 3.7640286383307484 -5.589569226470959
-5.162125678608768 3.868615711904249 -4.883686987757189
-5.040824852587998 3.855316559890389 -4.197059822909511
-4.8800903104018065 3.7126242637536406 -3.5299527522717398
-4.693659209699686 3.402043869538632 -2.885827110928744
-4.50319674659615 2.9017694392239872 -2.304861548561663
-4.320352427829696 2.2554560541744038 -1.8224703278243704
-4.143072991858141 1.515364918435602 -1.45060893944024
-3.9790033919977637 0.7157083648943762 -1.1848837589090424
-3.8315826371130917 -0.12289482532697162 -0.9983845211346211
-3.701812595324528 -0.9906218671126966 -0.8652410348655877
-3.589614974810434 -1.8765072824885838 -0.756272197825293
-3.4815731668231313 -2.77108621538876 -0.6248811451230245
-3.3515402687505382 -3.664985791602472 -0.4272135695215903
-3.1744983901059864 -4.542811359270785 -0.14454705246255747
-2.932017329491554 -5.385121419992162 0.22304155830540598
-2.6042955958141043 -6.167912823416162 0.6703057774147371
-2.1733165276977964 -6.861208002593229 1.185115641491782
-1.6320355164643712 -7.43410419495643 1.7492126800060246
-0.9900035021961278 -7.865542359703205 2.3387457501104905
-0.2675605883046806 -8.15342357985397 2.9287321414924254
0.5143062359527601 -8.312828241712973 3.5002131589737226
1.339103437222131 -8.370491928493447 4.04014609447504
2.195700889639317 -8.35749956098859 4.542630896493686
3.0730138395207467 -8.296032341396959 5.013354899590357
3.9606698313645157 -8.194449800512603 5.46273322185208
4.849899886644942 -8.050867598138266 5.900315556476691
5.733426951864064 -7.8631860646340135 6.33279326151032
6.606199659288673 -7.637036247076266 6.7636588478462025
7.467968502022657 -7.3849645180355985 7.194677386755611
8.32349895799997 -7.122514138252652 7.629770122913556
9.178631851388477 -6.868742730855743 8.076650022340015
10.036039823625645 -6.648279039508205 8.543823625156511
10.891557272717279 -6.489858662550619 9.036594173320983
11.734578751820887 -6.419257979988341 9.555746654433106
12.550243021083041 -6.454657201096419 10.101265102093699
13.31670046266841 -6.608154549513454 10.673792916276065
14.00441049613455 -6.88721117908717 11.269717755877805
14.587141220662575 -7.293873607006955 11.878540608330656
15.043073446858031 -7.825637015663343 12.489662895213751
15.349577910539999 -8.46755570521133 13.09151002456944
15.49742713898619 -9.184599834559812 13.672612519599998
15.510414011836092 -9.934092648515255 14.231712338286274
15.43407086898664 -10.68919903406794 14.781743081491824
15.304214992190223 -11.44662584961331 15.327908437766292
15.142373705898539 -12.211172124845984 15.856543033661616
14.980047943353124 -12.9673602308041 16.34581973212867
LINES 1 77
76 0 1 2 3 4 5 6 7 8 9 10 11 12 13 14 15 16 17 18 19 20 21 22 23 24 25 26 27 28 29 30 31 32 33 34 35 36 37 38 39 40 41 42 43 44 45 46 47 48 49 50 51 52 53 54 55 56 57 58 59 60 61 62 63 64 65 66 67 68 69 70 71 72 73 74 75
POINT_DATA 76
SCALARS MaximumInscribedSphereRadius float
LOOKUP_TABLE default
1.2
1.2106666666666666
1.2213333333333334
1.232
1.2426666666666666
1.2533333333333334
1.264
1.2746666666666666
1.2853333333333332
1.296
1.3066666666666666
1.3173333333333332
1.3279999999999998
1.3386666666666667
1.3493333333333333
1.3599999999999999
1.3706666666666667
1.3813333333333333
1.392
1.4026666666666667
1.4133333333333333
1.424
1.4346666666666668
1.4453333333333334
1.456
1.4666666666666668
1.4773333333333334
1.488
1.4986666666666666
1.5093333333333332
1.52
1.5306666666666666
1.5413333333333332
1.552
1.5626666666666666
1.5733333333333333
1.584
1.5946666666666667
1.6053333333333333
1.616
1.6266666666666667
1.6373333333333333
1.6480000000000001
1.6586666666666667
1.6693333333333333
1.68
1.6906666666666668
1.7013333333333334
1.712
1.7226666666666666
1.7333333333333334
1.744
1.7546666666666666
1.7653333333333334
1.776
1.7866666666666666
1.7973333333333334
1.808
1.8186666666666667
1.8293333333333335
1.84
1.8506666666666667
1.8613333333333335
1.8719999999999999
1.8826666666666667
1.8933333333333335
1.904
1.9146666666666667
1.9253333333333333
1.936
1.9466666666666668
1.9573333333333334
1.968
1.9786666666666668
1.9893333333333334
2.0
SCALARS Curvature float
LOOKUP_TABLE default
0.0
0.12037459556765812
0.07748755907115171
0.03294038544707403
0.03863769775486875
0.14738510490181417
0.22260601499619115
0.23065197363561896
0.23365357652226398
0.17874778451628323
0.12922106930173408
0.10447431019237634
0.1034083358640752
0.09911908808910445
0.09203143841554359
0.09434641884262596
0.13473140972629843
0.16631287141460868
0.3376167370444719
0.5019135479047349
0.5798007053025586
0.6004032713429861
0.6002545429723044
0.43631482776218183
0.30817285913684406
0.20578744521203352
0.1041024014036657
0.05195417933446525
0.12795216873264856
0.2278357009497879
0.2665597033384021
0.2692997077388881
0.28761657938655344
0.2888109427772642
0.24026025054310138
0.19461418263772756
0.1624080074835153
0.1154079915116997
0.07694612421180068
0.04021115206023867
0.02609168550718199
0.07916437732455193
0.10901841691532187
0.12278370092812528
0.14010733075818604
0.1611065556126965
0.17848867820434025
0.182388102929788
0.17003864851406528
0.14623979984711727
0.11652290707201685
0.08650306430653078
0.06145708584811683
0.046416613270275096
0.043444168140391225
0.04458862858326943
0.039989727562015534
0.028231544573054785
0.012874826787969086
0.014452234046570313
0.03875817002323506
0.06704331433448285
0.09360935193555806
0.11617984921451224
0.13831631989961649
0.16401976201092888
0.1870494375581074
0.20291032811738027
0.2095943429159226
0.1983999972966389
0.15875487638783148
0.10178203222310055
0.0598310795455378
0.041692458380716065
0.03464874319673853
0.0
SCALARS Torsion float
LOOKUP_TABLE default
0.0
0.0
0.06319104690891399
0.779359513150145
0.5619193764388325
0.09184653953604333
0.10873683419648028
0.20469364810822155
0.18536466147497496
0.3864673447279056
0.3557179302472729
0.05365231358100914
-0.1244245876880257
-0.02833196350440223
0.15713834269120527
0.4362247691501767
0.4212721112783502
0.2859944597776345
0.17597380054927111
0.21768163866038406
0.2052994369238714
-0.1326121526468014
-0.0323852582632318
-0.1817783457708226
-0.35128733850197197
-0.35489681969766823
-0.6310235173235419
-0.9876055403602813
-0.42423554422691834
-0.09027367598474573
-0.10056345113097204
-0.2214341010207212
-0.16016816137149534
-0.09353994608644052
0.00955698849520921
0.09748861560508655
-0.03567029396203096
-0.10260790035996811
-0.1703226886444272
-0.5273773431844713
-0.8577395544809756
-0.1826382669199682
-0.1428516555211537
-0.13249425830404357
-0.12363883897095707
-0.10683998928548223
-0.07112843892143068
-0.048400827430015746
-0.05267928017538885
-0.06874133049708489
-0.12264643665276746
-0.1979504197506073
-0.08694273927350797
0.1706967791490112
0.28159430085282294
0.20517287347284086
0.14300153140149505
0.1381991992189856
0.636982081946848
0.7011777758600339
0.137096973470078
0.051416811693491576
0.021329674690498752
-0.014890073030178818
-0.05349381920225367
-0.05669004004737491
-0.021835120184264076
-0.01899615849854323
-0.04842375289934239
-0.08252163316748712
-0.13072149987788081
-0.24267644827905105
-0.06222041244080134
0.5632858470626307
0.7831901974179606
0.0
