# vtk DataFile Version 2.0
Vessel Segment
ASCII
DATASET POLYDATA
POINTS 76 float
-4.279826093633573 16.772942017423144 -7.559258259755139
-4.540891936416294 16.15762033344019 -7.492789114762336
-4.92395061234221 15.50768281893474 -7.375084611501211
-5.380152001324512 14.845550319261974 -7.267733782242387
-5.8719294502371 14.206215379059014 -7.20194559424299
-6.3843801679486685 13.5847044439672 -7.197248460840129
-6.898977702693589 12.976708164001069 -7.298176310226591
-7.378938500596433 12.399042220085242 -7.533525741669365
-7.792439779461689 11.83064800575164 -7.874417068643746
-8.064470994722681 11.26954731976201 -8.327154108225185
-8.222341295931619 10.701794507843175 -8.807199043679551
-8.287652008627873 10.133175372855163 -9.301061855096563
-8.260140485823477 9.579539033463544 -9.79320244419644
-8.153046158868454 9.034206536236667 -10.26391152579559
-7.979561027957276 8.480769916858131 -10.708049262369714
-7.753963250606595 7.9075988656359355 -11.10132212478329
-7.502838620720415 7.309343864420054 -11.393852982680178
-7.255599616554308 6.692266990177619 -11.521588111544096
-7.041359352555013 6.071230025233691 -11.425600251381738
-6.920280894603908 5.538773802594531 -11.000754872405269
-6.935299036995657 5.2065731628011225 -10.286486888996352
-7.04766378750941 5.096956995282222 -9.431307615479895
-7.193251433183683 5.148870613882582 -8.535052482864073
-7.333332391322485 5.2937334653884065 -7.64868560598004
-7.420195879025982 5.463888873127145 -6.821793273655087
-7.42037565690876 5.5969979049560745 -6.059247317376397
-7.33193334594318 5.645843748945093 -5.334483129489744
-7.1531265446038566 5.557912370727716 -4.631267752306488
-6.890916846036185 5.294797223522383 -3.933576128026567
-6.565393475448167 4.834208520822442 -3.248856578401731
-6.2051829632683315 4.177596434658549 -2.6207471287570776
-5.843471951801051 3.3561260663772643 -2.0933849000813596
-5.506874221070264 2.415883558988922 -1.6939163179127252
-5.217178597083876 1.41524969826541 -1.4204643333054612
-4.98743701602193 0.40677238433532276 -1.2441550955934366
-4.814350056069443 -0.574870877592608 -1.1248574690963213
-4.674540864475196 -1.512441816275127 -1.0214424245501474
-4.533472859752647 -2.4041890825624135 -0.8985475740815753
-4.358278066361771 -3.2556140818545156 -0.7319273054388656
-4.122503013827995 -4.0683059207545345 -0.5105926337731378
-3.8095918867841743 -4.835300998734461 -0.23379469060186422
-3.41076590706229 -5.544821210138214 0.09863744964330681
-2.91170215390632 -6.18115828834985 0.48352048752112653
-2.3070304611432686 -6.725635220096841 0.8969886973069803
-1.608692925840152 -7.16190113603242 1.311674056950775
-0.8322121827743086 -7.476736514674227 1.7184715953198475
0.0005796592882942143 -7.662072835141619 2.119001363149438
0.8616055548997742 -7.72084439843867 2.5199441169585857
1.7246718043826916 -7.666088107227667 2.9268970895221194
2.572339162016854 -7.517729827052155 3.3406922806715182
3.395882753875791 -7.299605792182115 3.76143131733665
4.191181374435504 -7.032268757033435 4.1893740990175745
4.956599744239467 -6.732785207252898 4.618885821742275
5.694684081226642 -6.418442789066001 5.0430672690413205
6.41260027567164 -6.103104099362881 5.4610568840978395
7.118384877254006 -5.795961701068199 5.8788379846844
7.8158086368902 -5.505338101740587 6.305277150995812
8.504413880438557 -5.243080245117588 6.748552808418433
9.183363492702588 -5.026629603473366 7.21467310641513
9.852431241715802 -4.878395538940391 7.705801230105708
10.509140020137885 -4.822166481570741 8.219685949882063
11.145771961965806 -4.87998652832685 8.75016620903246
11.75131921973294 -5.071462688849959 9.28716754675352
12.312253261410188 -5.412418107061846 9.819452222077214
12.806164195048272 -5.911301970270949 10.338682550845691
13.195894543833328 -6.561711226965316 10.838106542116622
13.447927704686515 -7.3336646303775535 11.307983547236583
13.562301452123453 -8.189756831730095 11.742806436978666
13.553357820665804 -9.105178871793026 12.145708935724356
13.43980578605219 -10.052426425581341 12.518718595100573
13.25689856974758 -10.99502045420914 12.867923423386584
13.051611326937529 -11.897880262788282 13.211068823838517
12.87083771563605 -12.739972731304919 13.570795794070838
12.7461022093429 -13.519139835603582 13.953324783699216
12.69071358842975 -14.227734649707665 14.343377518225847
12.702867561058099 -14.847627112781312 14.7107084839423
LINES 1 77
76 0 1 2 3 4 5 6 7 8 9 10 11 12 13 14 15 16 17 18 19 20 21 22 23 24 25 26 27 28 29 30 31 32 33 34 35 36 37 38 39 40 41 42 43 44 45 46 47 48 49 50 51 52 53 54 55 56 57 58 59 60 61 62 63 64 65 66 67 68 69 70 71 72 73 74 75
POINT_DATA 76
SCALARS MaximumInscribedSphereRadius float
LOOKUP_TABLE default
1.2
1.2106666666666666
1.2213333333333334
1.232
1.2426666666666666
1.2533333333333334
1.264
1.2746666666666666
1.2853333333333332
1.296
1.3066666666666666
1.3173333333333332
1.3279999999999998
1.3386666666666667
1.3493333333333333
1.3599999999999999
1.3706666666666667
1.3813333333333333
1.392
1.4026666666666667
1.4133333333333333
1.424
1.4346666666666668
1.4453333333333334
1.456
1.4666666666666668
1.4773333333333334
1.488
1.4986666666666666
1.5093333333333332
1.52
1.5306666666666666
1.5413333333333332
1.552
1.5626666666666666
1.5733333333333333
1.584
1.5946666666666667
1.6053333333333333
1.616
1.6266666666666667
1.6373333333333333
1.6480000000000001
1.6586666666666667
1.6693333333333333
1.68
1.6906666666666668
1.7013333333333334
1.712
1.7226666666666666
1.7333333333333334
1.744
1.7546666666666666
1.7653333333333334
1.776
1.7866666666666666
1.7973333333333334
1.808
1.8186666666666667
1.8293333333333335
1.84
1.8506666666666667
1.8613333333333335
1.8719999999999999
1.8826666666666667
1.8933333333333335
1.904
1.9146666666666667
1.9253333333333333
1.936
1.9466666666666668
1.9573333333333334
1.968
1.9786666666666668
1.9893333333333334
2.0
SCALARS Curvature float
LOOKUP_TABLE default
0.0
0.16121775880570136
0.08486623987308343
0.09025113596688547
0.10274088827198063
0.16359069196238832
0.2253819426514772
0.20201180185760167
0.2944601100139122
0.2007308835054527
0.16228849633958997
0.16874901232176986
0.15413126359822665
0.13362599173867482
0.14012031859492952
0.20684333269498656
0.3456722692585504
0.46983844274947456
0.6015953724911388
0.48827012644984596
0.32202893011416484
0.19198454002636495
0.11272372856126087
0.0831968262536473
0.14960636319341344
0.22722644226336766
0.2983434778235526
0.2749966861627992
0.21582114533815347
0.18265878370612534
0.16104268290847884
0.14550645149004784
0.1260129454864381
0.1016609024765968
0.07244819078378471
0.03126176162987877
0.03219122043563905
0.08191019470689032
0.11731551345773701
0.13717422298051582
0.14970135842394006
0.16324762736725068
0.16656959997791715
0.16515982043215427
0.16350976862646066
0.1559658945267238
0.14088318707119066
0.12326905881446557
0.10384843625912708
0.08191666026927251
0.06395785810099737
0.048533018216382444
0.03005873677383638
0.012055897300707968
0.00938512191140677
0.024982303110263733
0.04515450463431916
0.07109799864573488
0.10252558774476897
0.13596045182944574
0.16786632955840167
0.19525944367954437
0.21178158632720762
0.21458329252032113
0.21172090417062633
0.20133216999666606
0.16899774836836345
0.13307678292133288
0.10376466880731242
0.0702695543462799
0.03201418793987117
0.04784780561146392
0.08901761917234416
0.11635118093770308
0.14084215825882063
0.0
SCALARS Torsion float
LOOKUP_TABLE default
0.0
0.0
0.8709079000822028
0.4804438320184533
0.37646578684934295
0.2437714478875874
0.13830321999482545
0.43006132160291566
0.2368240962890752
0.6402127426614819
0.05601084547954516
0.017011093791323526
0.331575576767805
0.34324729261417525
0.4623662517117858
0.3992453152304873
0.18635520328487562
0.09033731811318599
0.02569141390343989
0.02640813912057536
-0.08657554592430194
-0.25243301477422003
-0.36688521518104766
-0.8778909795941544
-0.6021854498964542
-0.390704161154416
-0.24673159302469347
-0.18001483795927653
-0.1539119843216965
-0.0818068166681747
-0.05631484039335868
-0.036523243132215
-0.07355075683011497
-0.17653907749047773
-0.3159080009079668
-0.8007825328789058
-0.7135148681919357
-0.17049108006295954
-0.12197906127598787
-0.0979132865969569
-0.04040996302653492
-0.07171445502508313
-0.15136039676756835
-0.11802453366967304
0.008266737050160525
0.08762610538473832
0.14179025904861797
0.1531338891185847
0.11704960575705138
0.1258365019963648
0.1583102663125215
0.04811499486550451
-0.04518299828821738
0.42158911722669323
0.9065212293754493
0.1320692862489804
0.042435003647559005
0.07881319299527426
0.09954321754202201
0.08145932366465554
0.048984544970872845
0.038880761160122596
0.020708398637088697
-0.03867900160136471
-0.10460989713483404
-0.10732514110252928
-0.058099035366947126
-0.04621769418771029
-0.04851061885054204
-0.12563641877729184
-0.8516217359761814
-0.6639478328419963
-0.280402341839982
-0.23236855054296304
-0.2802143273617038
0.0
