# vtk DataFile Version 2.0
Vessel Segment
ASCII
DATASET POLYDATA
POINTS 76 float
-4.514075823678844 16.974013744945065 -2.6877920620539
-4.965781426241105 16.125408748414923 -2.6938933745603606
-5.412911990605167 15.192229042994565 -2.629019242454559
-5.86544427707597 14.242627867583723 -2.49983847285437
-6.330191866264123 13.2946756157914 -2.3499779306691666
-6.805980175741875 12.358306337071925 -2.2594691872760997
-7.280353422863963 11.445658428408537 -2.308297592822446
-7.724073065082379 10.582462574217681 -2.573562134026922
-8.086828100782348 9.84177405356605 -3.122339004220524
-8.363171725866579 9.22646802325674 -3.8540794831015366
-8.526928375859525 8.679860389049297 -4.694405460285306
-8.565477378188392 8.157386572188647 -5.578687231465049
-8.475899385996003 7.642416465112912 -6.474073048082944
-8.235456314144365 7.154181755431273 -7.374151957980198
-7.8381364335078 6.719333298597192 -8.251215151752437
-7.29461942387511 6.348823322664184 -9.10311325778887
-6.6196175818717045 6.0318393991968415 -9.945296545145663
-5.850417960017097 5.7241101119505435 -10.770250010563792
-5.037769081503704 5.384978133212647 -11.560913661486676
-4.20293090863754 4.940445421166274 -12.295146354997332
-3.4013875484196463 4.34916401402805 -12.857132532822298
-2.7369034182570204 3.635586940265831 -13.110151223261678
-2.304630163461492 2.909540007619551 -12.998817083833957
-2.134592180038654 2.3055495706025626 -12.56779186205996
-2.226531856132966 1.9039584879806406 -11.902282521174254
-2.557822380893983 1.7361433279193583 -11.10900862163522
-3.061782327094123 1.7935221314166667 -10.276605989553147
-3.680351933806284 2.061902509643214 -9.438421492886304
-4.352772943994784 2.5020737882532216 -8.59909699800717
-5.008892757066049 3.0422089511378068 -7.731386148035498
-5.5769309057656855 3.591492192407033 -6.797867173467522
-6.010785466995123 4.069835508060252 -5.792857183385249
-6.2897963304388185 4.408253485394281 -4.73621680187378
-6.408721931115247 4.5481403639179145 -3.6653259031850016
-6.3739122590774 4.458027644398893 -2.634168945151445
-6.197454582918277 4.142484214674049 -1.7020501217697646
-5.9099665727888535 3.628738734476 -0.9267887055896451
-5.565427699470348 2.9613554492748233 -0.344819924893635
-5.2117590060123975 2.188974411307241 0.044673543560022344
-4.880399736626473 1.3484814881617337 0.2615933747269556
-4.582770033530827 0.4621595373041707 0.33922211350626796
-4.309404078165726 -0.46291653423671814 0.3155494572963914
-4.059991974188886 -1.4295290206818307 0.23267946401541204
-3.8305291255229936 -2.440271445316433 0.161033084691296
-3.5952368668130754 -3.487969879654853 0.16535993353600323
-3.3257605395032854 -4.554416716587964 0.2703048744533458
-2.993443236964506 -5.613633103090919 0.47831129011560913
-2.5718512570000835 -6.63131178976729 0.7807793022879727
-2.0493854302617973 -7.572179593536803 1.1666243976605304
-1.432946678622472 -8.40662436921567 1.6252869658132487
-0.7349036606055536 -9.110490366746557 2.1355570050539976
0.03919416502995957 -9.672475547020433 2.6645382877240067
0.8864045402550317 -10.091323817589204 3.192269376915484
1.7909289517751321 -10.362563693747022 3.718328226772561
2.723470830088524 -10.485112200246945 4.248834300406046
3.6547957440923278 -10.469477327198513 4.788143772302821
4.567631655746775 -10.334241263325334 5.337222482338252
5.457641140858345 -10.099345865393826 5.894000506823456
6.328483936708988 -9.784043872478964 6.454082179201227
7.188046702350673 -9.406021036516778 7.01346247094972
8.045529785803032 -8.980124792879257 7.570990353410764
8.909079340653372 -8.518860123345448 8.129498609991117
9.782645741135287 -8.03521847255252 8.697304453450105
10.666002833670767 -7.54565040583301 9.287128705876645
11.559608851499318 -7.071937231247795 9.911720485625894
12.467864276012074 -6.643776980057681 10.58000212383373
13.388609219517315 -6.300748209134907 11.293839470420691
14.300327329947349 -6.078078184930375 12.042153753189734
15.175798341490744 -5.995105990311245 12.805860914839789
15.984397789061877 -6.0666923821400065 13.567138207550359
16.693558462570625 -6.305024007080892 14.30506401514173
17.281813645220797 -6.712351136354193 14.993818623462252
17.73834453934464 -7.274294766239539 15.616503540742878
18.065663325239736 -7.9565321564456895 16.181242551656158
18.278381856085314 -8.714261537271986 16.71410334724191
18.39888659519842 -9.501988244887087 17.232084829589265
LINES 1 77
76 0 1 2 3 4 5 6 7 8 9 10 11 12 13 14 15 16 17 18 19 20 21 22 23 24 25 26 27 28 29 30 31 32 33 34 35 36 37 38 39 40 41 42 43 44 45 46 47 48 49 50 51 52 53 54 55 56 57 58 59 60 61 62 63 64 65 66 67 68 69 70 71 72 73 74 75
POINT_DATA 76
SCALARS MaximumInscribedSphereRadius float
LOOKUP_TABLE default
1.2
1.2106666666666666
1.2213333333333334
1.232
1.2426666666666666
1.2533333333333334
1.264
1.2746666666666666
1.2853333333333332
1.296
1.3066666666666666
1.3173333333333332
1.3279999999999998
1.3386666666666667
1.3493333333333333
1.3599999999999999
1.3706666666666667
1.3813333333333333
1.392
1.4026666666666667
1.4133333333333333
1.424
1.4346666666666668
1.4453333333333334
1.456
1.4666666666666668
1.4773333333333334
1.488
1.4986666666666666
1.5093333333333332
1.52
1.5306666666666666
1.5413333333333332
1.552
1.5626666666666666
1.5733333333333333
1.584
1.5946666666666667
1.6053333333333333
1.616
1.6266666666666667
1.6373333333333333
1.6480000000000001
1.6586666666666667
1.6693333333333333
1.68
1.6906666666666668
1.7013333333333334
1.712
1.7226666666666666
1.7333333333333334
1.744
1.7546666666666666
1.7653333333333334
1.776
1.7866666666666666
1.7973333333333334
1.808
1.8186666666666667
1.8293333333333335
1.84
1.8506666666666667
1.8613333333333335
1.8719999999999999
1.8826666666666667
1.8933333333333335
1.904
1.9146666666666667
1.9253333333333333
1.936
1.9466666666666668
1.9573333333333334
1.968
1.9786666666666668
1.9893333333333334
2.0
SCALARS Curvature float
LOOKUP_TABLE default
0.0
0.07214226021557484
0.05494362497723873
0.020316895741055593
0.05446048510025328
0.13177485187561735
0.21783393075167432
0.31248225517827083
0.23362725358489464
0.16072324912877473
0.1254727675537849
0.11824988847480987
0.13569098519343376
0.14793089505029394
0.13601785133195968
0.1028281425380764
0.06117869790549701
0.043963278646721955
0.08346699033842836
0.17143234812456776
0.3319552729891854
0.5294402596961031
0.6307408305274511
0.5575650814666119
0.3941366685425583
0.2593136328050351
0.17638759793217465
0.11182261744241358
0.06031695683866237
0.07307932304783708
0.11643007134124522
0.16107410214217147
0.2117178353063802
0.254501902702687
0.2767554944987381
0.28308894591010153
0.27334692016469814
0.24585825586956828
0.21261118055107037
0.16766718044192397
0.11357488876493156
0.06511649914304449
0.029956473118580643
0.065696191714496
0.08312848390787948
0.09143600975997872
0.1029603544645831
0.11527479068778289
0.12336615852702172
0.1297601104107673
0.13455126999277073
0.13632161541629467
0.13442705022043747
0.12883657068344698
0.11887336876764833
0.10484578572886494
0.08816608905089203
0.07001347890641184
0.05226910619899509
0.036851101535954826
0.023665268848953046
0.011226025858291166
0.009688493483259139
0.024293893985455003
0.042539992287873335
0.06539190160148123
0.08673997402394093
0.10472367309614287
0.1312749092185708
0.17050084326907458
0.21014050121561514
0.22947688988369558
0.20528906289469978
0.15363798419446167
0.1080348255043541
0.0
SCALARS Torsion float
LOOKUP_TABLE default
0.0
0.0
0.5264419786775573
0.8720993042251335
0.2500322688018225
0.07586380001055262
0.05535211824293462
0.02172442207203619
0.04807277707282657
0.4271479260980773
0.4769685737332946
0.23062714811855176
-0.058449644568120435
-0.0392016859964818
-0.06200982011856492
-0.025572613443262136
0.41319330783783476
0.6579467850745794
0.24419772800805006
-0.01105119480339753
-0.020629529946284433
-0.03554337663606209
-0.08360511923885668
-0.019596007587175238
0.041314294800318604
-0.03482481648431236
-0.11202023614256168
-0.2082410019999586
-0.6651976028305607
-0.5418841035498153
-0.21325480025164978
-0.1442502960372911
-0.11869689474670334
-0.08210505195938343
-0.03131542350975015
-0.04995897099093612
-0.11695361716267264
-0.13321989504958692
-0.129846522278973
-0.1037411484336752
-0.01683601277425463
-0.32339897329809336
-0.9593576870109521
-0.3391730585259005
-0.20604035195032988
-0.20082272925228384
-0.1770623568550934
-0.0970302896458362
-0.024955578142877424
-0.05322060294784381
-0.13521270109700265
-0.09097678678099816
0.04446061773218257
0.11995930914036157
0.12684020547133668
0.09243369577957124
0.0353431387703067
-0.029497735514574346
-0.08781398642129301
-0.12169460833284304
-0.09582863739979447
0.3966325874001921
0.7410776721923322
0.18213716042021155
0.12108416918387775
0.07167194679473468
0.019259323752413973
0.004848344188909365
-0.01716650045751496
-0.013183127676769586
0.02363141411347522
0.00615235195856436
-0.08504265940813865
-0.23178181513431742
-0.3097901026926396
0.0
