# vtk DataFile Version 2.0
Vessel Segment
ASCII
DATASET POLYDATA
POINTS 76 float
-4.3034817973428305 16.51278558353953 -4.43943513172578
-4.646533929025695 15.78906305474388 -4.424049627158372
-5.080946614125271 14.995616225732666 -4.365352019502776
-5.573887305130638 14.195478345561773 -4.30374114710477
-6.099499957121502 13.41637654270611 -4.269133431839252
-6.643360790164593 12.66412647808682 -4.3054151616957075
-7.184141584676203 11.950348310569705 -4.45567413365156
-7.690800429823593 11.293419161296667 -4.776049788807619
-8.11668675144849 10.725284721508428 -5.309940814842563
-8.414280461933055 10.237678749841447 -6.0069879762054885
-8.595133361116389 9.780423059895988 -6.778573841851211
-8.657834455175953 9.33594320016341 -7.588107616844833
-8.592772904913367 8.90351048625057 -8.40503398088389
-8.394084971411104 8.480442542831323 -9.207242639939274
-8.062527535286387 8.064692850190989 -9.975957601361136
-7.615601528079485 7.6572319786827165 -10.696424663139483
-7.084071841839425 7.2507564092876144 -11.35631028491956
-6.50535341404221 6.813315084682994 -11.92617466753307
-5.9257044763233075 6.32443478372458 -12.350844852832969
-5.403824522105052 5.798562971809948 -12.547557402938558
-4.996028984991643 5.29259853837319 -12.469641656747617
-4.72920894396336 4.844134285473586 -12.128217221001952
-4.619983662515965 4.479573231706858 -11.55605936226576
-4.649637206547813 4.226982358595773 -10.821865588163075
-4.791003734083042 4.085938730111046 -9.98871376850433
-5.020127492997412 4.0311267276683855 -9.115460758693056
-5.301053962682753 4.026528280616573 -8.24176748778492
-5.600266647996413 4.0410858842439605 -7.381445591810911
-5.886212169235174 4.043848697766809 -6.528481602383045
-6.127264215833789 3.992368991427499 -5.671679720827241
-6.299846647221631 3.8432717757923682 -4.817938753513955
-6.394389484541948 3.5707351455671685 -3.9895813692065945
-6.410151647914514 3.1673869727205255 -3.2187011208908616
-6.358006224170067 2.65580290688212 -2.525120147031561
-6.24568485460769 2.0640512311684467 -1.9032665533767743
-6.075581837782364 1.399843073093316 -1.346594512147818
-5.85422968530484 0.6702571077014465 -0.8580493182697594
-5.590174839623852 -0.10764195521651146 -0.4385022087527749
-5.2895929347669775 -0.9124867294205028 -0.08258612651046442
-4.9531177569470834 -1.7228344338076254 0.21959787442305911
-4.574985704146473 -2.5217064676127348 0.4779971974461666
-4.1471491814035595 -3.298729100592306 0.6969985730074977
-3.669296562802315 -4.048076949192957 0.8815030130870275
-3.1425415799943615 -4.765336651307762 1.0505134443904736
-2.5631417986035423 -5.443030169909225 1.225943500216422
-1.9317581209310652 -6.070071002696026 1.4201000599892408
-1.2547096546247 -6.636525870657873 1.642765821535065
-0.5402159847408003 -7.135275298740619 1.903630013853929
0.20290239209258532 -7.561452462315877 2.2121101516374932
0.9655940101776959 -7.9102796271559335 2.5738803597929136
1.7417839280465388 -8.175205057357031 2.983647204505681
2.5309698540280006 -8.350462467993424 3.4256282191998055
3.3345043043141454 -8.432756109822854 3.884649608045377
4.148585497536288 -8.42089576654797 4.35233949746389
4.9629861981796335 -8.320296187661809 4.827481701397968
5.766925243802509 -8.146274870281943 5.31387737375451
6.553845493685129 -7.919588332803592 5.8168119201078285
7.32215971447315 -7.6611125340959765 6.340216192600186
8.073642780973222 -7.392354838443069 6.8850719854992555
8.811657428026587 -7.136197485343324 7.44792415460673
9.538833815647523 -6.9128673025472 8.021351736501053
10.254648411960922 -6.736739744821218 8.597223971981036
10.956073828944412 -6.618423185200353 9.170392524921027
11.637894188755936 -6.569456332686237 9.740766077111218
12.289925393297624 -6.603285513199907 10.311510745470352
12.895819973519638 -6.730448594696316 10.884800806520909
13.440595942115346 -6.95226202005214 11.458128096704291
13.92019260979372 -7.263565024038716 12.026133198911639
14.335844718773307 -7.659800755269576 12.583970370979829
14.69074988874641 -8.13725614707007 13.126731834368588
14.99338372902414 -8.693288267677037 13.650019037702751
15.252656596166949 -9.323057462503614 14.150217687314555
15.4742132255753 -10.012793378631317 14.627082230585483
15.666941341311828 -10.73739049108715 15.088836526994857
15.841767205074646 -11.455913875618291 15.548886490039793
16.00079243801652 -12.129886015940166 16.002940449992398
LINES 1 77
76 0 1 2 3 4 5 6 7 8 9 10 11 12 13 14 15 16 17 18 19 20 21 22 23 24 25 26 27 28 29 30 31 32 33 34 35 36 37 38 39 40 41 42 43 44 45 46 47 48 49 50 51 52 53 54 55 56 57 58 59 60 61 62 63 64 65 66 67 68 69 70 71 72 73 74 75
POINT_DATA 76
SCALARS MaximumInscribedSphereRadius float
LOOKUP_TABLE default
1.2
1.2106666666666666
1.2213333333333334
1.232
1.2426666666666666
1.2533333333333334
1.264
1.2746666666666666
1.2853333333333332
1.296
1.3066666666666666
1.3173333333333332
1.3279999999999998
1.3386666666666667
1.3493333333333333
1.3599999999999999
1.3706666666666667
1.3813333333333333
1.392
1.4026666666666667
1.4133333333333333
1.424
1.4346666666666668
1.4453333333333334
1.456
1.4666666666666668
1.4773333333333334
1.488
1.4986666666666666
1.5093333333333332
1.52
1.5306666666666666
1.5413333333333332
1.552
1.5626666666666666
1.5733333333333333
1.584
1.5946666666666667
1.6053333333333333
1.616
1.6266666666666667
1.6373333333333333
1.6480000000000001
1.6586666666666667
1.6693333333333333
1.68
1.6906666666666668
1.7013333333333334
1.712
1.7226666666666666
1.7333333333333334
1.744
1.7546666666666666
1.7653333333333334
1.776
1.7866666666666666
1.7973333333333334
1.808
1.8186666666666667
1.8293333333333335
1.84
1.8506666666666667
1.8613333333333335
1.8719999999999999
1.8826666666666667
1.8933333333333335
1.904
1.9146666666666667
1.9253333333333333
1.936
1.9466666666666668
1.9573333333333334
1.968
1.9786666666666668
1.9893333333333334
2.0
SCALARS Curvature float
LOOKUP_TABLE default
0.0
0.07190126930688542
0.05217765102848838
0.05344945825088911
0.08959637830728852
0.1440563535247863
0.22683681842651884
0.29822914889226354
0.2632419017434981
0.1652781655099966
0.14290361939296717
0.14817084684720658
0.15450514156692116
0.1546895458839666
0.13979374644488635
0.11715386520532348
0.12350840535003532
0.19394554083523116
0.367833392034055
0.5943428821984884
0.6497521458950697
0.5084828520318465
0.3312661663367446
0.21394391634767645
0.14180270412993026
0.08332294059769597
0.03491439541885189
0.019265607512503523
0.08823081288715229
0.15156632060306766
0.19015806265575547
0.21194157234548788
0.1975206158030992
0.16234246803620594
0.14087004859723679
0.1256769487839548
0.10763237092220931
0.08927970416893181
0.0751614687761153
0.07216639679228833
0.07998807500287493
0.08074500110927674
0.07361134044667372
0.07970387993288948
0.08990537589353673
0.09739593709754146
0.103848635042393
0.10960416081508176
0.11411899295087492
0.11514177182319994
0.11224811318343454
0.10934880613104415
0.10622585194584253
0.09759941296467345
0.08118707743002135
0.061985630828486925
0.044934124963658506
0.03113149869533466
0.02757945360500048
0.038387013146852625
0.05238035903590449
0.06712239079646898
0.08697522847634644
0.11377295935051698
0.1432514219226652
0.16402204206586857
0.16857108460806383
0.1650775314874337
0.15588228499405055
0.13834403789597238
0.11719549441509977
0.09304094377024193
0.05854924633761602
0.02165804624236621
0.031170393960190834
0.0
SCALARS Torsion float
LOOKUP_TABLE default
0.0
0.0
0.6745131086628733
0.5385913385030616
0.3347907829088241
0.16288756372188112
0.09860367429888697
0.06951332886703875
0.2400155080105088
0.49118497539639117
0.2733811967881901
0.13482524379682284
0.10223055410805564
0.08125761065510831
0.06451106067769484
0.1875391724198726
0.4611457271084377
0.25888535480200103
0.05941098928002983
-0.03477104240626597
-0.006071454193611967
0.022121312969716103
-0.09153277208776647
-0.047186741909146145
0.1156975794201276
0.14700840527103906
0.18354317354460878
0.2569605349282149
-0.009201921814379954
-0.06504574373856217
-0.07674495375690148
-0.07125665429008876
-0.0402659298641001
0.06287475258381078
0.03182728286066965
-0.03599002980835326
-0.004608284506833711
0.08187174201557296
0.2333936948528369
0.31034190996998495
0.18668602555973093
0.11006912194417338
0.33711820607692466
0.3427634666400037
0.16863782049337078
0.1372678696495655
0.13359785897347973
0.1254268952154286
0.0830121325679228
-0.03591053706605833
-0.15863883305780838
-0.15792905028042664
-0.06104460168834719
0.05272377835968577
0.1596296620318135
0.2688224121707238
0.38611898841010595
0.6071331230331134
0.7091487761131129
0.4219875903818592
0.19469865730542704
0.06389135795538861
-0.0249123481493969
-0.07608786562179214
-0.09430580738406988
-0.07159233103941538
-0.006582888044560198
0.029276385330859862
0.0512005848469817
0.10313586274359499
0.10856173326402188
0.023050194594532725
-0.15344440998093414
-0.9850248373211613
-0.6769131840829199
0.0
