# vtk DataFile Version 2.0
Vessel Segment
ASCII
DATASET POLYDATA
POINTS 76 float
-4.484478293777335 17.59207484827956 -5.5687383751294215
-4.884055662157424 16.910320703870994 -5.476636392103009
-5.343769828086435 16.146089807515125 -5.316482830450105
-5.835212780842097 15.338710379305757 -5.1361911951991885
-6.337223985176434 14.524415545053841 -4.976019929548687
-6.840433806740729 13.708838912776207 -4.881827404761944
-7.329408214310669 12.89781919321871 -4.910029776250133
-7.772961398309417 12.114758736913076 -5.11372827882341
-8.12363134615633 11.397662257686104 -5.5258674544594175
-8.333035771899898 10.756838018479668 -6.10873559370724
-8.426342026933137 10.154167129839704 -6.761260371024742
-8.421392217568533 9.565889799250561 -7.450983824280861
-8.3190083346363 8.982443078682982 -8.158315946336739
-8.105720896181053 8.408967138029483 -8.87694625949852
-7.778637895630714 7.852816464529739 -9.578700424793547
-7.3516244734692116 7.311943491554011 -10.231763841404426
-6.855059847504968 6.78526441390662 -10.802700880131995
-6.3228274114408585 6.2681095634516515 -11.263918924881885
-5.793610166504817 5.741987000886885 -11.586954345052327
-5.314433124224837 5.201086153626273 -11.730183542713805
-4.9237973772557435 4.665440692232691 -11.670145268224417
-4.659458199563974 4.148176263497845 -11.378872377612035
-4.564147096501333 3.6860412738196398 -10.862552780948683
-4.632840773665304 3.333055688967215 -10.176030001194546
-4.8180728444486105 3.1023301321935817 -9.418388736755059
-5.074663178640125 2.973268760748671 -8.657929949683197
-5.37430327186325 2.9254697829460534 -7.914177150663787
-5.68986344106231 2.943307601347003 -7.1849913412061905
-5.988471936685539 3.0001608879775947 -6.460749953432325
-6.238301229585367 3.0529634338911897 -5.726089633675884
-6.410491452327565 3.0524411439189096 -4.973645720357224
-6.4956287588383015 2.965266371685614 -4.216048134512235
-6.495428639595804 2.7712649067360022 -3.46997387492465
-6.414883111481114 2.457814338920312 -2.74881616767267
-6.261365672803141 2.0224829520949843 -2.0681011108361553
-6.037459441885559 1.4729690099601078 -1.4469422581996174
-5.750925696645987 0.8244575689266983 -0.9094501438719504
-5.42224358018689 0.10262814989275196 -0.46937237227012996
-5.066905881404592 -0.6632283678672385 -0.11977572143220593
-4.6913885118896115 -1.4468631902800504 0.15322538053004742
-4.29459135000628 -2.2258248220556283 0.3674285478069947
-3.868438343592653 -2.985678176238136 0.5356456254362258
-3.4189871610799134 -3.718352676877713 0.6674387948391836
-2.9520004768166097 -4.421056103537895 0.7947919000314939
-2.4536458262419836 -5.0918385696540245 0.953004716732649
-1.908641511331538 -5.721602225884051 1.1583207408948084
-1.3097954822296116 -6.29637656890775 1.4189959209417138
-0.6585558751667054 -6.803571813176684 1.7374820411017502
0.03608235209209027 -7.236292023434998 2.113823752463412
0.7619724763969737 -7.589344591227818 2.5465530206611233
1.5107776018988224 -7.855965987609506 3.021921252905798
2.281680023718948 -8.036020540280914 3.5138357692239772
3.0761499391855085 -8.135575052908232 4.003735489854518
3.890950208560165 -8.158036306811411 4.486440860597052
4.718204919845771 -8.106108842929174 4.965099926874749
5.548917357047365 -7.987465879714029 5.4463962552531
6.376144411641525 -7.816365960759007 5.9367543875389135
7.1954456117414285 -7.611289971950207 6.440443601563493
8.004463077251696 -7.392659186232747 6.959207512579057
8.802607304828172 -7.180540259466258 7.492037527928273
9.588698094922567 -6.991713292893746 8.035812666718533
10.358789079759427 -6.839355246711132 8.587281017636425
11.107715212018041 -6.73690632429955 9.144405668821467
11.828805895087159 -6.702035768857249 9.706112168889751
12.509072024043247 -6.753488552124217 10.270853149122944
13.126777497620047 -6.901213488647523 10.83562206323242
13.663286597701086 -7.140080599750784 11.395158773898215
14.119002337424726 -7.460341362286199 11.946230667467693
14.49909686068226 -7.860201046401593 12.491561211944624
14.802742182707252 -8.337849583843923 13.033012432651569
15.032624011677594 -8.883850086686492 13.568813909680497
15.202469329690715 -9.482449431059315 14.097491273192528
15.331350639889727 -10.119150816983998 14.621469797978783
15.431327957659413 -10.788799670081438 15.137831045235183
15.500881367686485 -11.487550902540844 15.637216698221293
15.542129231568403 -12.194698305642369 16.106582717574096
LINES 1 77
76 0 1 2 3 4 5 6 7 8 9 10 11 12 13 14 15 16 17 18 19 20 21 22 23 24 25 26 27 28 29 30 31 32 33 34 35 36 37 38 39 40 41 42 43 44 45 46 47 48 49 50 51 52 53 54 55 56 57 58 59 60 61 62 63 64 65 66 67 68 69 70 71 72 73 74 75
POINT_DATA 76
SCALARS MaximumInscribedSphereRadius float
LOOKUP_TABLE default
1.2
1.2106666666666666
1.2213333333333334
1.232
1.2426666666666666
1.2533333333333334
1.264
1.2746666666666666
1.2853333333333332
1.296
1.3066666666666666
1.3173333333333332
1.3279999999999998
1.3386666666666667
1.3493333333333333
1.3599999999999999
1.3706666666666667
1.3813333333333333
1.392
1.4026666666666667
1.4133333333333333
1.424
1.4346666666666668
1.4453333333333334
1.456
1.4666666666666668
1.4773333333333334
1.488
1.4986666666666666
1.5093333333333332
1.52
1.5306666666666666
1.5413333333333332
1.552
1.5626666666666666
1.5733333333333333
1.584
1.5946666666666667
1.6053333333333333
1.616
1.6266666666666667
1.6373333333333333
1.6480000000000001
1.6586666666666667
1.6693333333333333
1.68
1.6906666666666668
1.7013333333333334
1.712
1.7226666666666666
1.7333333333333334
1.744
1.7546666666666666
1.7653333333333334
1.776
1.7866666666666666
1.7973333333333334
1.808
1.8186666666666667
1.8293333333333335
1.84
1.8506666666666667
1.8613333333333335
1.8719999999999999
1.8826666666666667
1.8933333333333335
1.904
1.9146666666666667
1.9253333333333333
1.936
1.9466666666666668
1.9573333333333334
1.968
1.9786666666666668
1.9893333333333334
2.0
SCALARS Curvature float
LOOKUP_TABLE default
0.0
0.06062005315945788
0.01170817231996412
0.023790460763358667
0.0708768883523264
0.13625008418607557
0.21201758184933064
0.2860084510880224
0.2854113476468018
0.1737971789371854
0.1261599549863395
0.11326060296751408
0.12116316135575202
0.12604947780201278
0.12380768194445818
0.12453627589158954
0.14045499869372272
0.19229420315165122
0.31745172860710463
0.456711052099091
0.5504842438129176
0.49613823897674353
0.36996838636427415
0.2568447796199848
0.18535276690909896
0.14370458459178137
0.1086058377270215
0.0680342417321101
0.08192533038720917
0.15950015027175224
0.20562512094099109
0.2254283678488093
0.22398713325948372
0.2051710555853977
0.18561478122316863
0.17229449589243673
0.15229466951542642
0.12311026460546061
0.09753677946582046
0.07651143400646596
0.07196371851710008
0.06388252333057108
0.0429143733537434
0.07499902395679972
0.10454699722818628
0.12251845840081459
0.128483679969312
0.1244259670310336
0.11909178491540288
0.11356899540126483
0.10355149430068857
0.0942173239050579
0.08796977197313767
0.08107824165670517
0.07007587518973869
0.05470876887940272
0.03785735643733053
0.02325432856612542
0.019411920218124688
0.028677247480754287
0.04125230136465578
0.05788455674109968
0.0833950235376625
0.11722346765889707
0.15268992751797905
0.17790208675279043
0.18248442082174432
0.18070109722003164
0.1743700584336972
0.15294268320108306
0.1152981401505471
0.0752822924038727
0.05611147988149448
0.05914471488185413
0.05624010822211749
0.0
SCALARS Torsion float
LOOKUP_TABLE default
0.0
0.0
0.8449928363264881
0.30693815625301146
0.08264959554902923
0.04825897990201929
0.0417490671395823
0.05969584360234867
0.2063281265179788
0.47904217890005396
0.3155104129798772
0.21631425753275105
0.019203785366221165
0.10932835661460685
0.20260402894264135
0.26532077861111264
0.30192314227169303
0.3557990771021638
0.21148566551145828
0.06805982596557106
0.060279086032366994
0.060945202153656244
-0.0776372885613638
-0.06258043002436786
0.00040422301305743924
-0.07406960232906808
-0.3503721985916986
-0.8441899104579718
-0.7818477558755423
-0.31808186476307226
-0.1986067002342178
-0.15283935879189064
-0.11277328241580081
-0.08038774179713248
-0.005584887225149188
-0.016922451118027912
-0.06767188965675992
-0.007210331513334674
0.11045692487060982
0.31054802121720854
0.3752797901174451
0.16627668930777192
0.8352661584079992
0.4088192282557033
0.025509252081773626
-0.010893739186969478
-0.002151032106562664
0.03778824434584858
0.04932288100631974
-0.08247931661224808
-0.249974091399908
-0.22030148322977727
-0.04642457459406377
0.08812575496361613
0.1614892885134143
0.21973052263690093
0.3440352085625238
0.6562176959951466
0.7627739217267485
0.3865596722441075
0.14483610798228866
0.06095952537511791
0.03216349862406456
-0.009894306687800537
-0.06973217878063367
-0.09020271698499638
-0.02203809178163986
0.00021153487243388142
-0.030849823060280723
-0.02509812014961522
0.006409090266164274
0.03134648160666807
0.21271935889018467
0.08611289049441229
0.05815347501126203
0.0
