# vtk DataFile Version 2.0
Vessel Segment
ASCII
DATASET POLYDATA
POINTS 76 float
-4.299393394175336 17.222363499955712 -5.507277105940697
-4.652354409552287 16.474068587152843 -5.4617285531079816
-5.080933646113884 15.686613621914926 -5.3359553820026395
-5.558765587705468 14.89470044273641 -5.161739161408317
-6.070953871602599 14.116182136645033 -4.983430781563368
-6.608096750378768 13.355120604402835 -4.8543081443355725
-7.1571851532163775 12.615799902079647 -4.845261047437041
-7.683028282070325 11.920681653091762 -5.022387626653191
-8.141696175431443 11.273304342947952 -5.405667152027827
-8.480144053932207 10.672841163884193 -5.975595179810589
-8.695320904904124 10.09861227969047 -6.642372869218536
-8.78690407519399 9.53189372032509 -7.355587473076455
-8.752146022187713 8.965774137493884 -8.076909654252542
-8.584954758105154 8.404843379824902 -8.78952817632557
-8.283653625064511 7.860105391782412 -9.476504401465895
-7.8578963122734775 7.3420587016027135 -10.128729499197206
-7.330358856338429 6.852582609208207 -10.747473660907898
-6.725820045264568 6.366131384993821 -11.333399190317419
-6.086231173625565 5.8378295530478015 -11.8257304757395
-5.47594635130262 5.25649660756675 -12.124047588903503
-4.965847790231035 4.654765799103374 -12.155907053773396
-4.609953505178317 4.080900022744013 -11.899054324722167
-4.436574307965622 3.597854509127572 -11.376311409044272
-4.447052269185056 3.2733620982103058 -10.659784140564135
-4.6000942642323075 3.120082565496076 -9.84881610085724
-4.854833616635314 3.1137525035552622 -9.008126504004272
-5.174586492035571 3.219929088408133 -8.177291784780284
-5.516150072478935 3.3921934662799704 -7.3661201310367375
-5.832745186556364 3.578244481038934 -6.551532133270475
-6.077772363290231 3.7226128015010094 -5.708760665190286
-6.2121302551331326 3.770154022312703 -4.841407012829439
-6.231346829789965 3.689165041749455 -3.981284861750725
-6.150654719781851 3.4662127503032267 -3.161914647882053
-5.989748034471522 3.0991324100588202 -2.4030861960798853
-5.76942387813246 2.5936991706930272 -1.7198963750301866
-5.505472548573617 1.9692411391869118 -1.1263362728267707
-5.211099394118811 1.252772454968146 -0.6312931115137385
-4.901396053117482 0.4716701491102407 -0.2361085699708144
-4.591203080554769 -0.3499541515191906 0.06486666196618289
-4.293055996470704 -1.1923518229035814 0.2797640052715098
-4.00601333630877 -2.0392742949753706 0.42741978809725906
-3.7136340554086624 -2.883680038099742 0.5390659024442214
-3.3961995259414706 -3.723439265021681 0.6454874289892748
-3.035015272839876 -4.550433149975068 0.7703025868942538
-2.6133525710555645 -5.348997141682242 0.9299464764260563
-2.1199071791416793 -6.097997966720261 1.1366603031915723
-1.5506631091985665 -6.773394482380607 1.4006501534468656
-0.9088095533747153 -7.352007191066583 1.72835190535249
-0.2049682318779888 -7.817304777827033 2.118877282197573
0.5451552664660357 -8.163394036440312 2.5633945777640688
1.3258068211892764 -8.392230899167972 3.0471548895730334
2.1251222339459486 -8.51162976740391 3.5510643222191844
2.936780930638462 -8.533557253585075 4.058823683824555
3.7542549627687674 -8.468057136664575 4.563803813280452
4.568909141868778 -8.325110205053871 5.066617134420128
5.3732432147229945 -8.118954072006963 5.571271366186035
6.163970161305204 -7.868244004586531 6.081516636521549
6.941934361953391 -7.592448580238344 6.599243362273888
7.7097246326671005 -7.310174916559697 7.124557989873802
8.470092646530892 -7.039578651855752 7.656279735581871
9.22513283096798 -6.797510784599163 8.192384864339687
9.976093372744998 -6.598594945944993 8.730273296432827
10.723587226391713 -6.457409765357281 9.268365478335737
11.465634416105866 -6.390940604701395 9.807498724575245
12.194732120783678 -6.415599024842324 10.349591407821741
12.898035760901376 -6.543077052315808 10.896477341834123
13.558522445435909 -6.781941926976309 11.449468122611643
14.153946343071144 -7.138831468739493 12.00626993475812
14.660920778347515 -7.614927291401164 12.558360167653724
15.060361346925584 -8.204200521498224 13.091876621367248
15.345172262362205 -8.890528581003371 13.590976051017542
15.525989256021127 -9.650953849271467 14.045172041914233
15.621749670227814 -10.462664323714568 14.454795072115662
15.652172086896083 -11.30393718306511 14.82915339741158
15.640361433107065 -12.147927361249902 15.18378589146639
15.614081217172254 -12.962489703779603 15.5270959993673
LINES 1 77
76 0 1 2 3 4 5 6 7 8 9 10 11 12 13 14 15 16 17 18 19 20 21 22 23 24 25 26 27 28 29 30 31 32 33 34 35 36 37 38 39 40 41 42 43 44 45 46 47 48 49 50 51 52 53 54 55 56 57 58 59 60 61 62 63 64 65 66 67 68 69 70 71 72 73 74 75
POINT_DATA 76
SCALARS MaximumInscribedSphereRadius float
LOOKUP_TABLE default
1.2
1.2106666666666666
1.2213333333333334
1.232
1.2426666666666666
1.2533333333333334
1.264
1.2746666666666666
1.2853333333333332
1.296
1.3066666666666666
1.3173333333333332
1.3279999999999998
1.3386666666666667
1.3493333333333333
1.3599999999999999
1.3706666666666667
1.3813333333333333
1.392
1.4026666666666667
1.4133333333333333
1.424
1.4346666666666668
1.4453333333333334
1.456
1.4666666666666668
1.4773333333333334
1.488
1.4986666666666666
1.5093333333333332
1.52
1.5306666666666666
1.5413333333333332
1.552
1.5626666666666666
1.5733333333333333
1.584
1.5946666666666667
1.6053333333333333
1.616
1.6266666666666667
1.6373333333333333
1.6480000000000001
1.6586666666666667
1.6693333333333333
1.68
1.6906666666666668
1.7013333333333334
1.712
1.7226666666666666
1.7333333333333334
1.744
1.7546666666666666
1.7653333333333334
1.776
1.7866666666666666
1.7973333333333334
1.808
1.8186666666666667
1.8293333333333335
1.84
1.8506666666666667
1.8613333333333335
1.8719999999999999
1.8826666666666667
1.8933333333333335
1.904
1.9146666666666667
1.9253333333333333
1.936
1.9466666666666668
1.9573333333333334
1.968
1.9786666666666668
1.9893333333333334
2.0
SCALARS Curvature float
LOOKUP_TABLE default
0.0
0.10263309420212875
0.06543577884774443
0.04014141573048215
0.06488974868485867
0.1429348729401982
0.23856397552799125
0.2773816151157776
0.27178055242153715
0.18890648760261555
0.15484330617286457
0.1487005469176725
0.1540591880479996
0.15768932931968274
0.14833204467326883
0.12050133009621444
0.08381604651731293
0.11589910151754981
0.24150162881818052
0.41998755468826526
0.5575679356968958
0.5392441577199484
0.43596743850379016
0.31044689860641544
0.2192718746010185
0.15718892824642314
0.08958040162123818
0.035784803143399685
0.11013215822914116
0.19058808308809042
0.22723281109459614
0.240085521673207
0.23218787600826596
0.21046430866254418
0.18382395571924934
0.1586877155269627
0.13683591382959095
0.11826543820270977
0.1052373074129957
0.08202115043357625
0.044525601852649484
0.03146400561805317
0.05830327227034826
0.08871550260196376
0.11601607126722314
0.14005918541851653
0.15809095885527105
0.16356407078208476
0.1550414667745223
0.13999048819085108
0.12298489404006475
0.10622550367731116
0.09368802005850435
0.08212813574238
0.06748052727947697
0.04930338330565708
0.030653301084856366
0.014918290350015177
0.015188550718886968
0.030499312990943595
0.046873028891522284
0.06521098077218648
0.08769527713753932
0.11077688843875001
0.13022412934857505
0.14840655894442578
0.168447681588856
0.18569836835696757
0.19514109691485063
0.18859593743914274
0.16253896063454415
0.12800758670093645
0.09306338814008991
0.05537668430279937
0.01972965765080928
0.0
SCALARS Torsion float
LOOKUP_TABLE default
0.0
0.0
0.22602143369852373
0.8126910519472432
0.5294946929248333
0.18319064358440584
0.10227920585952249
0.15182653431734736
0.21216659466516222
0.3850947738170186
0.3495170474087793
0.24733937273042778
0.05498238139114339
0.013486176012120883
-0.02078341235555896
-0.024560008653006508
0.32105319044635366
0.4929847272060202
0.14544242649522526
0.04033744600789316
0.012733760190833325
-0.0404617189786455
-0.07960625337958885
-0.07855818628747492
-0.03070556286583566
-0.026655220154825177
-0.26612046735939776
-0.9925753911042279
-0.304631451988959
-0.12593100615151426
-0.134492525639532
-0.1468782814636816
-0.12767982357868518
-0.1154242517058583
-0.05308018640923226
-0.019168536559618574
-0.04434438788416118
-0.07622051137702761
-0.09519406614052026
0.03724933187317184
0.6020833351436136
0.8938311235795852
0.3170937268150428
0.07862080143500966
0.03218436835004421
0.03391137130443322
0.03108635641435661
0.02007629208166779
0.004628666646099917
-0.027099839693662624
-0.0855167389074629
-0.1155821012821907
-0.03322376452786936
0.06707967022483627
0.14056482254484978
0.2027161788907147
0.3305530590728345
0.79800378851283
0.7660529828409831
0.2452338889463147
0.10386056883604688
0.04148862536266042
-0.013475952090373888
-0.04979082283157913
-0.07105177126034598
-0.07841201378309559
-0.06684533187281942
-0.03828269818908965
-0.008120503270835279
0.02180119088157377
0.05396328397497359
0.03731124714370399
-0.04217856044286295
-0.2972871292904304
-0.9226634050435398
0.0
