# vtk DataFile Version 2.0
Vessel Segment
ASCII
DATASET POLYDATA
POINTS 76 float
-4.191877915615534 17.14283454491459 -5.468827038343251
-4.621932167919271 16.37761594327152 -5.530035570189759
-5.097012445439375 15.5642948648737 -5.464541052924793
-5.609935652343042 14.738886276675068 -5.3119496314843175
-6.157911420923184 13.931865942241602 -5.129061358142757
-6.736797031171295 13.148330857434372 -4.9789857494762115
-7.333037442478683 12.388951754708247 -4.942899547552086
-7.909591252848445 11.670023483315264 -5.103557029135324
-8.40456648368314 11.014070835642963 -5.505379266434012
-8.747668559713906 10.417139311508954 -6.090770872125803
-8.941108426106384 9.837321627293079 -6.758159412844624
-8.993904261650398 9.26006852828581 -7.461157185082999
-8.90744057390421 8.690154822715094 -8.177588293264948
-8.67199225908521 8.14570433696102 -8.901889442226018
-8.295358025383813 7.638361223201189 -9.605925792838228
-7.800322798820944 7.164270230067886 -10.26536002780604
-7.218615107373608 6.713015674220058 -10.853966695839622
-6.593729265982787 6.26965281598439 -11.326067534791186
-5.975513754376449 5.827148867416528 -11.64056552927471
-5.425165454477674 5.419127416275018 -11.725313591089684
-4.978622424378617 5.0620001135370645 -11.596307466271373
-4.657963796029426 4.7300653356746585 -11.279205730537168
-4.469525442579761 4.438448266218331 -10.79388732478487
-4.399753844044778 4.210898263805215 -10.17622597735559
-4.432298232004319 4.050835326658781 -9.457790864037866
-4.56183585656627 3.9621480458234095 -8.676080569538525
-4.763389169123147 3.932453620289162 -7.870269347666731
-5.0056169669778 3.932155308380614 -7.0590986950764725
-5.256232390350497 3.9195958335903303 -6.245021072067503
-5.484867130382903 3.846985237919114 -5.429467224302123
-5.663075150350506 3.6786469984441252 -4.629208009290495
-5.782529827343307 3.4141765630793213 -3.871962010413996
-5.846191140635584 3.0690686574196278 -3.1690086704795224
-5.855440585418045 2.6474000947447895 -2.512579355432539
-5.807147129795806 2.137454754132916 -1.9011567123942075
-5.695662795415053 1.5315146480241864 -1.3511906741121296
-5.522963831015491 0.8366011404621105 -0.8926797696791892
-5.306590168393646 0.07489000923064695 -0.5456502363451935
-5.058780564781284 -0.7278380689792724 -0.29833512178820115
-4.781568239204507 -1.5503028998036679 -0.12636061209903462
-4.471534932627 -2.373825502936269 -0.0033592152624807256
-4.11959429256939 -3.1851148370295834 0.09702795093738618
-3.7232811657633147 -3.976138969114583 0.19875337377893143
-3.2814045234965175 -4.738891819057382 0.33534467558552816
-2.786294737655014 -5.458838540460921 0.535315432767745
-2.2332235388943906 -6.115594779368586 0.8049409090498282
-1.623903862430753 -6.691756428802028 1.1385717458285547
-0.9648396232222017 -7.177759210521436 1.5271876748183777
-0.2647173219637867 -7.57202878115693 1.962757842014147
0.4682036392132708 -7.875163152228043 2.438799581185322
1.2278880262318803 -8.08645473625803 2.9435607156443697
2.012469012076494 -8.209156864787506 3.4596676426712802
2.8218533205080436 -8.249838289677681 3.975493293201517
3.650773550669333 -8.213400486188908 4.488424347934585
4.488372826565147 -8.106717077558423 5.000940946853485
5.324205831868602 -7.941948326848787 5.517000093705539
6.152417247624087 -7.734941125096264 6.039223107960712
6.971479918881878 -7.502236992745981 6.568744833764395
7.781803170424294 -7.26073968928411 7.10648175363606
8.584393476480075 -7.028235520140026 7.652545302899827
9.380173218036052 -6.822316621766008 8.205509878214679
10.167576168963626 -6.660348196568944 8.762801403891547
10.94053001867347 -6.55973152628123 9.321205292655062
11.68982932505845 -6.535321883217634 9.878044618947692
12.404735742876214 -6.597886439044411 10.432569069089004
13.072081290313713 -6.75452404688025 10.984668321084023
13.678648657039304 -7.00798575765086 11.533282020192518
14.213624236872697 -7.359115329869815 12.077751431477246
14.665924139637228 -7.807092034375408 12.616906639467993
15.027568175471126 -8.345783377627487 13.148009435258531
15.299655243557682 -8.96216971527488 13.667653993144237
15.495716068622562 -9.640625269618647 14.17376548994062
15.630680132764132 -10.367279257762785 14.667241443034156
15.715727067942064 -11.124764774444754 15.150500047535632
15.766016564612329 -11.88788167169512 15.626736276835917
15.7999829117267 -12.624429574318079 16.089418694795135
LINES 1 77
76 0 1 2 3 4 5 6 7 8 9 10 11 12 13 14 15 16 17 18 19 20 21 22 23 24 25 26 27 28 29 30 31 32 33 34 35 36 37 38 39 40 41 42 43 44 45 46 47 48 49 50 51 52 53 54 55 56 57 58 59 60 61 62 63 64 65 66 67 68 69 70 71 72 73 74 75
POINT_DATA 76
SCALARS MaximumInscribedSphereRadius float
LOOKUP_TABLE default
1.2
1.2106666666666666
1.2213333333333334
1.232
1.2426666666666666
1.2533333333333334
1.264
1.2746666666666666
1.2853333333333332
1.296
1.3066666666666666
1.3173333333333332
1.3279999999999998
1.3386666666666667
1.3493333333333333
1.3599999999999999
1.3706666666666667
1.3813333333333333
1.392
1.4026666666666667
1.4133333333333333
1.424
1.4346666666666668
1.4453333333333334
1.456
1.4666666666666668
1.4773333333333334
1.488
1.4986666666666666
1.5093333333333332
1.52
1.5306666666666666
1.5413333333333332
1.552
1.5626666666666666
1.5733333333333333
1.584
1.5946666666666667
1.6053333333333333
1.616
1.6266666666666667
1.6373333333333333
1.6480000000000001
1.6586666666666667
1.6693333333333333
1.68
1.6906666666666668
1.7013333333333334
1.712
1.7226666666666666
1.7333333333333334
1.744
1.7546666666666666
1.7653333333333334
1.776
1.7866666666666666
1.7973333333333334
1.808
1.8186666666666667
1.8293333333333335
1.84
1.8506666666666667
1.8613333333333335
1.8719999999999999
1.8826666666666667
1.8933333333333335
1.904
1.9146666666666667
1.9253333333333333
1.936
1.9466666666666668
1.9573333333333334
1.968
1.9786666666666668
1.9893333333333334
2.0
SCALARS Curvature float
LOOKUP_TABLE default
0.0
0.1368992443880227
0.08795635742000595
0.04953943988898949
0.05196225466432186
0.1248326864485797
0.2263881907953153
0.3029856489758974
0.2906640174425992
0.20535166717838543
0.17175503947293075
0.1626972461502523
0.16793036708662185
0.16154146493622665
0.1427764792367387
0.12785977760964232
0.14644813728594874
0.2087389838549168
0.43000834738180727
0.5935199249406444
0.619145828432873
0.5180407297746935
0.36309797006509886
0.23841324139608602
0.18158501273722186
0.12672880615332316
0.06632795104930601
0.019470500445442122
0.08827621440498143
0.15449928097639376
0.1794795129994892
0.17740448541448467
0.17047280030661846
0.17383160659788235
0.18075223177771121
0.18713815076828583
0.17841498561622207
0.143477135274266
0.1046650627536632
0.07420965068454823
0.061882907873635117
0.06140363110920406
0.08007313069940662
0.11490765986559108
0.1349696957163401
0.1424706072092603
0.14046748875516535
0.13093861227261688
0.12048013246021219
0.11191669926667178
0.10159161428126096
0.0906985651946048
0.08132569670000914
0.0708415309090736
0.057754869994298116
0.04290088388219667
0.027980354497978942
0.014800706175087745
0.014045818121837748
0.027891970426803026
0.04536935893319446
0.0657961874471746
0.08777154067097875
0.10995277211707206
0.13263377185942887
0.15313121368308277
0.16965895919688403
0.18103170974909152
0.17970435246113195
0.16063014394323033
0.1268339932622201
0.0951503703861647
0.07040867445495703
0.044192311277092236
0.020297915632842334
0.0
SCALARS Torsion float
LOOKUP_TABLE default
0.0
0.0
0.26188866392143145
0.7725967728669634
0.7400141753248759
0.2560744576164916
0.12139347120863847
0.12044272088999962
0.29406961205159315
0.5032162517272798
0.2837452478289599
0.0787397276421177
-0.06277685085041376
0.054509708678134816
0.1386294386114481
0.2468752299626543
0.3764453355291833
0.2819344959889999
0.0380406669250786
0.07502612432400321
0.29997531599167565
-0.026899838315773472
-0.17049006698607552
-0.07501120767672628
0.009172247958846746
0.0005161639445701513
0.1971060773404924
0.9992112632358239
0.1967148227600949
0.057677739987280485
-0.0068419739534768195
0.0073812426588081405
0.03454141361645787
-0.019987392794155102
-0.025133374817484885
-0.05259793713482469
-0.10284526037367911
-0.009449004419968515
0.16380633619596924
0.415110418952764
0.6014016049701755
0.5084887538939702
0.4255478748230426
0.14091570964460365
-0.031160938687674722
-0.0631717460447597
-0.04632870569879009
-0.01597276416533862
-0.00320199754196036
-0.06759540737004342
-0.15676023129333488
-0.13231276538273293
-0.0029976771487650877
0.10694769244444216
0.1661272447948462
0.19284292542784778
0.273608572181869
0.7156075266419881
0.7722933912933835
0.2727340772209087
0.10285157971084191
0.02797612463560105
-0.011819767981435265
-0.04180258471599676
-0.06109240904363597
-0.0584407666585813
-0.049235988674386305
-0.04823190313303088
-0.0412112065570118
-0.025405266640453377
0.01740554815472067
0.011575730738643814
-0.09219073453876593
-0.3414440424441415
-0.8026790676718268
0.0
