# vtk DataFile Version 2.0
Vessel Segment
ASCII
DATASET POLYDATA
POINTS 76 float
-4.903647817725705 17.2884702930624 -5.378712665809561
-5.290035973122418 16.57442966516285 -5.340226016401721
-5.71468228749984 15.788795779755175 -5.25119420098736
-6.162100986529375 14.97530297229178 -5.144263098033286
-6.623754779901285 14.167714058120724 -5.043720820692085
-7.097556581934539 13.37094712370557 -4.9757628821822655
-7.577165489031847 12.588822016239096 -4.982230191295676
-8.040481094988847 11.842652666294107 -5.121805650843515
-8.45215218111721 11.16300029375713 -5.445449413444298
-8.758976438308444 10.565971598589044 -5.9367961485262475
-8.959291066144962 9.998576194631733 -6.516346299300199
-9.03781816233764 9.43315278127009 -7.1635374393737425
-8.976682583803722 8.877578653724273 -7.853790281797949
-8.770628748297366 8.353752450521158 -8.563076890732308
-8.437075596542808 7.874537994815669 -9.257402322262728
-7.999231980449048 7.433438257575173 -9.91717395601323
-7.478874636536124 7.023584020974409 -10.523001149058885
-6.901987105122932 6.632345336979422 -11.044049999823356
-6.2979359321948225 6.240276243143524 -11.443392938114206
-5.711706713311771 5.85040634444761 -11.642328269715735
-5.1967775953195385 5.485279825462554 -11.612029497615772
-4.786496784294477 5.136628434233564 -11.354617648848995
-4.5429795840652965 4.819914426863691 -10.862290120826323
-4.470188957190103 4.5770295222312205 -10.211513843620239
-4.517685454505072 4.412128441764181 -9.468556934221443
-4.6517958602624665 4.313617098871589 -8.675984508654423
-4.839161376045513 4.258965217959819 -7.86330420611698
-5.054788820342499 4.218706849781145 -7.0487770807432035
-5.275911590869849 4.161028649904445 -6.238553956207846
-5.474950450915295 4.047363999561057 -5.431805782705502
-5.625432211332673 3.842424902648553 -4.636917829940437
-5.710433404932011 3.527080245768684 -3.870625455280739
-5.722035762245548 3.0930847570963023 -3.1541960438811327
-5.661652325271609 2.5459842700394586 -2.5060689405603047
-5.536792119758298 1.9031845248871768 -1.9343472280676786
-5.355233628567728 1.1837295604464244 -1.4410770554752668
-5.1242681095801546 0.4070497354954678 -1.027988021157487
-4.851367653515521 -0.4056566232332392 -0.6928184403654711
-4.541039854657413 -1.233709004533809 -0.42651911663536657
-4.194145550611607 -2.0576718822394082 -0.2183572022210303
-3.8090807391730457 -2.8609085762734994 -0.05697864422620885
-3.3839201700835795 -3.635002868777203 0.06839861873036515
-2.923103669958377 -4.380181464268485 0.16950664063962398
-2.4306035191667994 -5.099658331104361 0.26864092527269096
-1.9028608524566326 -5.792105189645994 0.38960685602815076
-1.3355370266178903 -6.448997058651877 0.547010810001085
-0.7265979744876697 -7.0581027561336285 0.7522529280140196
-0.07680224838367745 -7.605768453536782 1.0155433507933191
0.6080238299908873 -8.079660248429452 1.3443601203411353
1.3177650873826854 -8.470069701847681 1.7409748289346438
2.043189987834576 -8.76854342765544 2.1974334226579693
2.781784136371846 -8.971829026260776 2.693813863006007
3.537247051685064 -9.083282676575974 3.2100084250075103
4.307229539666831 -9.106492672293312 3.735309691302493
5.079964700830709 -9.046703344900154 4.267689591075147
5.842162237984397 -8.913589297048294 4.810949232678481
6.5849139172307645 -8.719992744307536 5.370385047087098
7.30411921725653 -8.47993816080184 5.949385089125431
7.999151517534034 -8.208922250591291 6.5480912570268135
8.672117324822658 -7.923625060462869 7.164527512886637
9.32606019377877 -7.639424181379584 7.796569910069598
9.962728133260395 -7.3705448333014445 8.443040701343591
10.58194490898417 -7.133234299931567 9.103121106031526
11.181914814124468 -6.946840031810722 9.775276851312254
11.757618523532402 -6.830986276025597 10.457748102602963
12.298235261501688 -6.799772476426282 11.147819240408719
12.792953127139842 -6.855966746347153 11.838745398634332
13.24263637270693 -6.9958894618856755 12.521284551458653
13.653221555210882 -7.220244107045727 13.188068566228646
14.026568431549554 -7.534181973750422 13.832315816288558
14.362632570008651 -7.943277947247803 14.448036196861738
14.66221194602232 -8.44411781477123 15.032546358645984
14.929238128632242 -9.018757045788728 15.589596894583222
15.165689199032048 -9.645850047002954 16.122788490949628
15.364674101313677 -10.30071233727609 16.63111741082244
15.527433634122028 -10.94674480851239 17.105624384929722
LINES 1 77
76 0 1 2 3 4 5 6 7 8 9 10 11 12 13 14 15 16 17 18 19 20 21 22 23 24 25 26 27 28 29 30 31 32 33 34 35 36 37 38 39 40 41 42 43 44 45 46 47 48 49 50 51 52 53 54 55 56 57 58 59 60 61 62 63 64 65 66 67 68 69 70 71 72 73 74 75
POINT_DATA 76
SCALARS MaximumInscribedSphereRadius float
LOOKUP_TABLE default
1.2
1.2106666666666666
1.2213333333333334
1.232
1.2426666666666666
1.2533333333333334
1.264
1.2746666666666666
1.2853333333333332
1.296
1.3066666666666666
1.3173333333333332
1.3279999999999998
1.3386666666666667
1.3493333333333333
1.3599999999999999
1.3706666666666667
1.3813333333333333
1.392
1.4026666666666667
1.4133333333333333
1.424
1.4346666666666668
1.4453333333333334
1.456
1.4666666666666668
1.4773333333333334
1.488
1.4986666666666666
1.5093333333333332
1.52
1.5306666666666666
1.5413333333333332
1.552
1.5626666666666666
1.5733333333333333
1.584
1.5946666666666667
1.6053333333333333
1.616
1.6266666666666667
1.6373333333333333
1.6480000000000001
1.6586666666666667
1.6693333333333333
1.68
1.6906666666666668
1.7013333333333334
1.712
1.7226666666666666
1.7333333333333334
1.744
1.7546666666666666
1.7653333333333334
1.776
1.7866666666666666
1.7973333333333334
1.808
1.8186666666666667
1.8293333333333335
1.84
1.8506666666666667
1.8613333333333335
1.8719999999999999
1.8826666666666667
1.8933333333333335
1.904
1.9146666666666667
1.9253333333333333
1.936
1.9466666666666668
1.9573333333333334
1.968
1.9786666666666668
1.9893333333333334
2.0
SCALARS Curvature float
LOOKUP_TABLE default
0.0
0.05239954304421166
0.01740807931531726
0.01900135196195537
0.04165399394264801
0.08950809511656316
0.17236117862808967
0.26804132028949484
0.3002010803625218
0.1987332722923214
0.17793921793107242
0.17778690456092763
0.17694677020539398
0.16303676685299012
0.14037767706092316
0.12759476428261815
0.1329556507565143
0.17306829315210828
0.3385737394165365
0.5258470868801394
0.605728359026257
0.58795600630147
0.4244506756216397
0.25281856351131354
0.1611320904483215
0.09408224532990894
0.04306232629964735
0.026389021195638598
0.08548659273104155
0.14827319283730048
0.1868823443103114
0.2065814921689612
0.20219057382684044
0.17697631356767696
0.1497267467727134
0.1290258398525897
0.11073534414034027
0.09306927184041719
0.0813967984048863
0.0766870617361462
0.07554020492215087
0.0657430178781388
0.052797779630155216
0.06385951066037085
0.08238610324944683
0.10056177742012275
0.1174971555841468
0.12905129598610765
0.13391353046764634
0.13289760922443744
0.12352777142843867
0.1107047469768465
0.10161479882648138
0.09309030505946886
0.0830881449211704
0.07217074574270999
0.06072253975628285
0.047837478521730474
0.03466414382051885
0.02691594928753997
0.029616517424239527
0.04251912973098715
0.06365642016208956
0.09031999229046221
0.11647104903152133
0.13246313726451525
0.13567839661343373
0.14058950962446473
0.15135092732841546
0.15871183633231678
0.14773862422847236
0.1151926466045516
0.08630680665505723
0.07251784189816213
0.05570019520384472
0.0
SCALARS Torsion float
LOOKUP_TABLE default
0.0
0.0
0.861379153521425
0.7513584240476214
0.31118786509971474
0.14820614882910618
0.08032624553917565
0.06511511247422944
0.19976635087767478
0.5561719082582859
0.3141253220499259
0.10886458862137172
-0.0007432650629463078
0.06390295915581339
0.13850895405323366
0.1810574312652983
0.32407946677196287
0.34483389211526255
0.14102222007302032
0.06532266812836708
0.17065307198961904
0.10425154269488031
-0.08517554533627568
-0.18688029235648224
-0.06370244024410364
-0.0023425010807949648
0.5859265487997087
0.9582649472122621
0.23331919369957987
0.0645614581746104
0.014088006036603568
-0.0191718761679238
-0.029891753256715732
-0.015283365850136297
0.001381052344609444
0.009073076782931299
0.03192205086127318
0.11237606376021941
0.20745342002555053
0.2689070394487366
0.2333354637961644
0.1923523654841217
0.5462622602259056
0.4204742679174507
0.13096232500694638
0.05898139953547782
0.04401956951983842
0.04753639341549708
0.039705898686019946
-0.032216468505965025
-0.1545410069507981
-0.2074666103215338
-0.09108336396980302
0.0673357972189238
0.17262945027671517
0.2118360093684795
0.21613737924639903
0.2502040740011581
0.39747721444624723
0.56531549599981
0.4676523892589074
0.2670999998098018
0.14755473792363583
0.059534052294559825
-0.018276143895511486
-0.037542283062055315
0.058902895159655966
0.11722379229713019
0.07808504467589875
0.04819601154702922
0.019498192230110213
-0.02365271466825726
-0.08657016270781201
-0.2544930392299979
-0.22074293121231534
0.0
