# vtk DataFile Version 2.0
Vessel Segment
ASCII
DATASET POLYDATA
POINTS 76 float
-4.4253158950976434 16.70311476806934 -4.8829421439751926
-4.75586208821058 15.917079729333654 -4.890274303253608
-5.161154667641202 15.09636906143781 -4.829871837106244
-5.6239154386442936 14.292303067381862 -4.727987619683936
-6.131099350381571 13.523301844039013 -4.620800785229742
-6.672686544094043 12.78677085158318 -4.56503622387126
-7.2290423793253415 12.082853086730749 -4.633702821510293
-7.75819964034035 11.427980561946585 -4.887984525637861
-8.215263913031123 10.827693357822248 -5.345850896653467
-8.55650821300506 10.272256302576539 -5.961166814731578
-8.76968910053515 9.732502071759138 -6.661833005049788
-8.848475515954853 9.194952721554865 -7.4018854817230535
-8.789047554688944 8.669337475836818 -8.152475222136099
-8.599934409024554 8.162919298733927 -8.889198429318457
-8.293064417322466 7.678354700303033 -9.605389991446145
-7.882276889406984 7.216924648805214 -10.302219852476764
-7.385928668948497 6.764910113384184 -10.968651150935019
-6.84479643846031 6.291751320924396 -11.549730675822765
-6.303348824951144 5.791276356818056 -11.993002017107749
-5.809575223444827 5.294263484491397 -12.1975908240504
-5.418159390423936 4.856497257159548 -12.121310525223647
-5.140301209127663 4.515348189783194 -11.821119354999851
-4.955640853857766 4.283312232060273 -11.338400194504684
-4.866799646779782 4.172736914555178 -10.700642622309394
-4.873145712212292 4.180042791736139 -9.93995805843497
-4.9623608589361075 4.289625953726064 -9.098900216730781
-5.093850580625637 4.460787200164928 -8.22188872152404
-5.231289609682392 4.6372134171907025 -7.334677527463871
-5.349206799109298 4.763139262502323 -6.44460068838392
-5.425955381898469 4.784818949880713 -5.557195157027905
-5.446348055868831 4.662682445470988 -4.694149419917832
-5.410304569931843 4.384273894580599 -3.8829035329489523
-5.32806756091679 3.9512769467616953 -3.1499641466678434
-5.217416082678944 3.3802451979698733 -2.5116408328762136
-5.094329835970211 2.696801558771992 -1.972740965070114
-4.967299959925253 1.9328743652197382 -1.5286448067803424
-4.836702637226494 1.117590649199167 -1.166520622756744
-4.699145864297854 0.2707316647964028 -0.8707961675942253
-4.550098004838813 -0.5949492958594629 -0.623423558221243
-4.384688421232695 -1.4706779443218256 -0.40811344587634607
-4.196446644154843 -2.349226504020757 -0.21014191682756944
-3.9743440794074525 -3.225479470868225 -0.005478650565672876
-3.695330830223565 -4.09374035851173 0.23237855890539033
-3.338857502259631 -4.940199289076785 0.5100966625192949
-2.9013073836095526 -5.743304215172177 0.8223446550317614
-2.3855007101487793 -6.4808063195867245 1.1664568092935703
-1.7950232494656517 -7.132703068421954 1.5398895776400285
-1.1347230807110371 -7.68080615355498 1.9415986487896346
-0.4135986597247662 -8.110980577665249 2.368535518059381
0.355316491012404 -8.420269350051633 2.812946979467323
1.1588512486169331 -8.61666374740525 3.26820996838472
1.9867312871604768 -8.710724563156178 3.7296889873122314
2.832392694753027 -8.713068658289215 4.1909029718045065
3.6868856954818163 -8.633794835527963 4.649100098783529
4.537488014539946 -8.483136273545249 5.1063470941064235
5.372645114521091 -8.272637793113171 5.56767944795129
6.1853109284500825 -8.014391159924092 6.038557937144759
6.974169416301773 -7.721608937327718 6.522524560236824
7.743571155131335 -7.410990481655453 7.020482819116239
8.501493886856801 -7.103439081683322 7.53160124788016
9.256247732868776 -6.822002286598047 8.054285177802944
10.01277004733752 -6.589233553372792 8.586449600386578
10.769566452865531 -6.425127886012488 9.126457997018392
11.519505547218296 -6.3447190675590655 9.675469726972949
12.252158434008338 -6.35942262192493 10.239076126582873
12.952865314881475 -6.481478500401061 10.823431534257463
13.600748627299387 -6.722838647002434 11.427622105990526
14.172935738402177 -7.087888638138204 12.040268245436499
14.651705438794753 -7.570942715312997 12.644897102659618
15.027079336185523 -8.159242003378772 13.225396841097222
15.301108932793065 -8.835560074257412 13.770432037847492
15.487162385122767 -9.580580674441126 14.276660395753375
15.603637893830921 -10.372199298563709 14.75067271783439
15.674396906930438 -11.1796646214475 15.20979307591684
15.730549161846186 -11.955193409696005 15.671598209161619
15.794134464544431 -12.657221638215875 16.128952317279726
LINES 1 77
76 0 1 2 3 4 5 6 7 8 9 10 11 12 13 14 15 16 17 18 19 20 21 22 23 24 25 26 27 28 29 30 31 32 33 34 35 36 37 38 39 40 41 42 43 44 45 46 47 48 49 50 51 52 53 54 55 56 57 58 59 60 61 62 63 64 65 66 67 68 69 70 71 72 73 74 75
POINT_DATA 76
SCALARS MaximumInscribedSphereRadius float
LOOKUP_TABLE default
1.2
1.2106666666666666
1.2213333333333334
1.232
1.2426666666666666
1.2533333333333334
1.264
1.2746666666666666
1.2853333333333332
1.296
1.3066666666666666
1.3173333333333332
1.3279999999999998
1.3386666666666667
1.3493333333333333
1.3599999999999999
1.3706666666666667
1.3813333333333333
1.392
1.4026666666666667
1.4133333333333333
1.424
1.4346666666666668
1.4453333333333334
1.456
1.4666666666666668
1.4773333333333334
1.488
1.4986666666666666
1.5093333333333332
1.52
1.5306666666666666
1.5413333333333332
1.552
1.5626666666666666
1.5733333333333333
1.584
1.5946666666666667
1.6053333333333333
1.616
1.6266666666666667
1.6373333333333333
1.6480000000000001
1.6586666666666667
1.6693333333333333
1.68
1.6906666666666668
1.7013333333333334
1.712
1.7226666666666666
1.7333333333333334
1.744
1.7546666666666666
1.7653333333333334
1.776
1.7866666666666666
1.7973333333333334
1.808
1.8186666666666667
1.8293333333333335
1.84
1.8506666666666667
1.8613333333333335
1.8719999999999999
1.8826666666666667
1.8933333333333335
1.904
1.9146666666666667
1.9253333333333333
1.936
1.9466666666666668
1.9573333333333334
1.968
1.9786666666666668
1.9893333333333334
2.0
SCALARS Curvature float
LOOKUP_TABLE default
0.0
0.09685290834417935
0.08060721849932453
0.06581600850192586
0.0824244151363296
0.15833112681229827
0.24555015721811507
0.2758539751038873
0.2406478750123736
0.1820959714280805
0.1631845724002712
0.1630432373376407
0.15647216939257969
0.1426693765979594
0.12203629790994688
0.09945943376523743
0.11336294703086519
0.17295899634220163
0.3929899590618043
0.6869440733180648
0.7388953714751326
0.59059381795696
0.4075265455570412
0.25343614852756335
0.15881441641731822
0.07824455851160401
0.006312479046241701
0.06535396944063862
0.13987353276890194
0.20273897474030186
0.23180922473030993
0.2395126268859727
0.2214017403860905
0.18914265034591302
0.1524060819489836
0.11727909869822475
0.08879221617335714
0.06322969746757369
0.04402639293076067
0.03374802208547214
0.03931036896868856
0.07183111148137025
0.09452787685131268
0.10401469331562162
0.1146714000901407
0.1277808229642553
0.14188565869486927
0.15098032490306593
0.14698407025459398
0.1316477538604737
0.11460721073737509
0.09900998096495205
0.08550263202997709
0.0743277409392272
0.06476694064189475
0.056446370139740965
0.04653071941924071
0.031775628577721794
0.018777658401964215
0.030874696266327096
0.05418714401427292
0.07696247710753762
0.09637057119027234
0.11383286057195341
0.1335774645142959
0.15505332076674025
0.1717939710061655
0.17975515424330002
0.17907299553852632
0.16502848051417593
0.13745607585517194
0.10201171704521102
0.05817409497189957
0.027758033932208024
0.054332387784039024
0.0
SCALARS Torsion float
LOOKUP_TABLE default
0.0
0.0
0.33326328157799634
0.5574542912402546
0.6126531744924973
0.276141203591652
0.1499874750439119
0.14621331274704938
0.26565479586687835
0.41913940293638535
0.28958657408983063
0.07189165774654288
0.06324215401078839
0.009437531574413988
-0.02747392134908123
0.22120990668292656
0.5405650248997127
0.2604403911554517
0.004371953457719069
-0.016661371805105976
-0.08463330588220212
-0.18548152765053372
-0.04681374216708484
0.015522844278532753
0.002673688010005384
-0.17432759368784592
0.9997610665735646
0.05904695539907168
0.0009490052049996658
-0.010103508268550221
-0.03847665328825358
-0.06983593671204096
-0.09810366963861883
-0.09100783704281402
-0.04279179767653375
0.036002909593421464
0.10531099793675378
0.19934512566337995
0.35740105713825954
0.5683716137348688
0.6023044782474454
0.18650644130438326
-0.032484515386657475
-0.042500131356007644
0.01124315327035362
0.011317899670011022
0.022770980066782662
0.01988303950142911
-0.002740521488071898
0.00023439054302323804
0.00238282601459269
-0.039907890677475306
0.01283755085642644
0.11404486542222853
0.18864497071505176
0.2187739920456643
0.23104964188074806
0.3879936746927713
0.8669033650909402
0.49909985258415845
0.15977036684973256
0.03407336666056887
-0.04005670620718943
-0.08735190368470573
-0.08742632579572379
-0.053745092601080645
-0.01808809267347438
0.002221723046513805
0.011729875364033816
0.026128377347625596
0.03386288136734326
-0.02496168376374395
-0.3505491953250725
-0.9843177965827388
-0.5126077106911542
0.0
