# vtk DataFile Version 2.0
Vessel Segment
ASCII
DATASET POLYDATA
POINTS 76 float
-3.3336669745407366 16.37934037874707 -6.110400375786426
-3.656178969700858 15.691802070031493 -5.975754903177337
-4.090107583483156 14.953896802018058 -5.778991608323795
-4.586276126398166 14.224613928031804 -5.571584635730465
-5.113765726290218 13.521044616734153 -5.401474445874249
-5.653381512660435 12.837342318968139 -5.311621552214001
-6.183601889542318 12.168472357619796 -5.327621251186663
-6.694515988844918 11.51565111515803 -5.488280337319638
-7.1506635638157325 10.90454818471409 -5.829966535366106
-7.526259534934338 10.332270800595994 -6.306727919512409
-7.8114109751454865 9.798382388832538 -6.880390478546675
-7.988418871105064 9.292584789625788 -7.530019171780569
-8.041929632870552 8.814915611372934 -8.226350681839213
-7.967255278516641 8.350818223907483 -8.923948784966617
-7.765211285119131 7.886889858137124 -9.590449898296194
-7.468601635577189 7.4111992361343475 -10.204036560076037
-7.11919069416481 6.899817946193189 -10.724463327758968
-6.772533531266215 6.341597635030892 -11.080823475006577
-6.492459276971181 5.758365091753396 -11.257763105393577
-6.323503564176715 5.186982791089655 -11.220436300065805
-6.2821619632945325 4.6598834434681295 -11.01641350808815
-6.350272146003072 4.217532695673061 -10.654235431648704
-6.486580896693677 3.9088635823509157 -10.138996467946056
-6.649839512660891 3.7566159599125446 -9.52155603626777
-6.810156162401484 3.7161075167435933 -8.851369439924593
-6.980163710557592 3.755110398260606 -8.153615551078142
-7.164393071660319 3.849815041576708 -7.45782976804148
-7.342090080687771 3.966001933483013 -6.777704205536558
-7.474303522061282 4.061139739908619 -6.093761733548366
-7.522395969141423 4.087960428489006 -5.376336893513778
-7.444516232895384 3.9938389970113115 -4.623703986255039
-7.238765555386764 3.7653056859486784 -3.887808968666168
-6.927603568455352 3.425922320996044 -3.2188036026615054
-6.537687102996916 2.9997788289101504 -2.6258566781473403
-6.098888638507031 2.4919740738580316 -2.102962033540585
-5.635998978595255 1.9027289871798538 -1.6515687042972862
-5.1624970927303915 1.2387402854711373 -1.2866898826580802
-4.69681098985026 0.5194496424386917 -1.0215496102300752
-4.252520665324625 -0.22997443766573147 -0.839083946068145
-3.8355664973272474 -0.9903732476497679 -0.7088330106269632
-3.442603120422596 -1.7481747429281276 -0.5961399050583437
-3.0587714773445374 -2.49767344436288 -0.4599011399557912
-2.670963738169874 -3.2371217991956467 -0.2680169585200362
-2.274003787443831 -3.964422367863903 -0.009174098879522165
-1.8633514402712377 -4.677625468149112 0.31426802034783513
-1.4292085349634764 -5.368216667156981 0.6975724629551919
-0.9620015303355777 -6.019694901831763 1.1328807892864148
-0.4565704594361125 -6.615184570660252 1.6104090329486793
0.09045857573691439 -7.142434690044591 2.1212252589736456
0.6842666794585803 -7.59254347889686 2.6572791193414544
1.3297750871673906 -7.957825728247212 3.2090207618107285
2.0293722106439813 -8.231973518453522 3.7649264472381336
2.780754387156872 -8.409046349525022 4.313952887791466
3.5704812395074828 -8.483890484586688 4.848759329145126
4.37621342989241 -8.458953185552446 5.36698868506803
5.180228176655001 -8.348637919359305 5.8709765564343
5.976818091340875 -8.177244971844797 6.36666238508829
6.768239994004694 -7.9739792919670975 6.863030071060554
7.557218823277677 -7.765943235746881 7.368651487962989
8.344125119556605 -7.572764089414877 7.885951763827713
9.12875151795193 -7.405303899253127 8.409929526931391
9.911524017959243 -7.268053411342782 8.932706658208874
10.6930436841018 -7.164622616824841 9.4490596485025
11.473099583528764 -7.101370591291625 9.958720968582336
12.247058406702369 -7.089353308372849 10.464495999972101
13.00122336862347 -7.14281108572063 10.969037638099318
13.716705139118659 -7.272209886182894 11.47341420475453
14.378888539384544 -7.487650228727646 11.981640083523377
14.967077798767416 -7.806418705509382 12.499395542001151
15.454885271524752 -8.238519028353595 13.025433664486654
15.827734209812313 -8.777671005217417 13.550595800676124
16.090407607622915 -9.408811346401194 14.063580832913415
16.250763330870303 -10.1152044318599 14.555825455142283
16.321542475307584 -10.868350096846687 15.023015027637234
16.329846443239706 -11.626416898558723 15.463950791804752
16.309115851828125 -12.35084057480928 15.86966000686323
LINES 1 77
76 0 1 2 3 4 5 6 7 8 9 10 11 12 13 14 15 16 17 18 19 20 21 22 23 24 25 26 27 28 29 30 31 32 33 34 35 36 37 38 39 40 41 42 43 44 45 46 47 48 49 50 51 52 53 54 55 56 57 58 59 60 61 62 63 64 65 66 67 68 69 70 71 72 73 74 75
POINT_DATA 76
SCALARS MaximumInscribedSphereRadius float
LOOKUP_TABLE default
1.2
1.2106666666666666
1.2213333333333334
1.232
1.2426666666666666
1.2533333333333334
1.264
1.2746666666666666
1.2853333333333332
1.296
1.3066666666666666
1.3173333333333332
1.3279999999999998
1.3386666666666667
1.3493333333333333
1.3599999999999999
1.3706666666666667
1.3813333333333333
1.392
1.4026666666666667
1.4133333333333333
1.424
1.4346666666666668
1.4453333333333334
1.456
1.4666666666666668
1.4773333333333334
1.488
1.4986666666666666
1.5093333333333332
1.52
1.5306666666666666
1.5413333333333332
1.552
1.5626666666666666
1.5733333333333333
1.584
1.5946666666666667
1.6053333333333333
1.616
1.6266666666666667
1.6373333333333333
1.6480000000000001
1.6586666666666667
1.6693333333333333
1.68
1.6906666666666668
1.7013333333333334
1.712
1.7226666666666666
1.7333333333333334
1.744
1.7546666666666666
1.7653333333333334
1.776
1.7866666666666666
1.7973333333333334
1.808
1.8186666666666667
1.8293333333333335
1.84
1.8506666666666667
1.8613333333333335
1.8719999999999999
1.8826666666666667
1.8933333333333335
1.904
1.9146666666666667
1.9253333333333333
1.936
1.9466666666666668
1.9573333333333334
1.968
1.9786666666666668
1.9893333333333334
2.0
SCALARS Curvature float
LOOKUP_TABLE default
0.0
0.10354627796221168
0.06864496578793908
0.06766251617981295
0.10649840421482817
0.14467044276359245
0.2029994807679809
0.2698306182143289
0.22781172954947068
0.19524642670308054
0.18641850936132104
0.18527294530384297
0.18005612229322193
0.18488769169911476
0.15648991773050683
0.169383467770066
0.28656169247696167
0.39038062923516026
0.5869382698278333
0.5832595705257729
0.5495725987362571
0.4840408153846539
0.388335683723943
0.23778232349748435
0.14941135559876084
0.10738822181981057
0.04734200194540141
0.10015023669380779
0.21040380728307492
0.2792867545517852
0.272219779347483
0.2435517800153371
0.19732054190308584
0.1562930163425892
0.13852207813938724
0.1392461492292247
0.14051074522169935
0.11376500685395617
0.07642616249463131
0.03435678048296753
0.03497806998372006
0.07670105674238192
0.08897934720268622
0.0828184355622385
0.08025463918357606
0.08590865521734906
0.09467099616245413
0.10280806936017947
0.11040702519315117
0.11632945360469438
0.11939830022615326
0.12043316426636863
0.11850646899403626
0.11078386940763822
0.0945759316015965
0.06814486005756572
0.035180616020260166
0.010805935034654272
0.02049550967208095
0.02888572956164031
0.0326726990478287
0.037635528739744795
0.04587761015990563
0.059740015736778715
0.08105778091482184
0.1053238143671419
0.1335095697152093
0.1759887933165797
0.21274830066113012
0.21778761324668872
0.19136777952853362
0.16163738294990776
0.12869025983598448
0.08724084659885264
0.048383041331373236
0.0
SCALARS Torsion float
LOOKUP_TABLE default
0.0
0.0
0.5550715115526039
0.6777184803782502
0.3857447681292798
0.22174746764567727
0.04533590862226272
0.049960130301224946
0.22651451074829598
0.16491564462766986
0.22507826593319066
0.17821255364725552
0.3354009210576305
0.25613569867115343
0.33372138521707645
0.5254196261174042
0.3405079642346327
0.3364495419229496
0.08959082838154678
0.2420086703007937
-0.18026172229809517
-0.3339366236332141
-0.2276289869915029
-0.28855958819944283
0.3327322410215433
0.38170390183451036
-0.8148516663480427
-0.5755067684776827
-0.15199246683493695
-0.07221011494412798
-0.05972430224230113
-0.004951603805158501
-0.03058640225972295
-0.22111159583285006
-0.21606388558064502
-0.04162354414655414
-0.030187916962226786
-0.0908986248930282
-0.24537033979976125
-0.7725630401307004
-0.7757276556809953
-0.161911130135314
-0.05551731967777615
-0.09373495093933351
-0.21518221690047357
-0.22168980013179615
-0.15314592282027825
-0.10631668036767303
-0.09784414499586727
-0.09597969482403904
-0.08917183646737051
-0.05542633555140402
0.024867087831077446
0.09598126692733124
0.1162588011128116
0.11533576772527171
0.2986035197554061
0.9941851570628669
0.489887142825303
0.2511456462564334
0.23684296268778135
0.1318396393785977
-0.017385595210621663
-0.10253578833214189
-0.1225036176362309
-0.10846880562875895
-0.08117670292529494
-0.06584388953237155
-0.0488290349365147
-0.01571005718868037
0.03539634088114487
0.028430813401274617
-0.03843243395228824
-0.13934430260007002
0.14130013511751616
0.0
