# vtk DataFile Version 2.0
Vessel Segment
ASCII
DATASET POLYDATA
POINTS 76 float
-4.391963699106177 16.240617895497387 -4.55342035336218
-4.687678668482811 15.405912711091318 -4.609220800571537
-5.065251444766791 14.559852244143121 -4.5972973964985675
-5.51294882032723 13.759369562097762 -4.533304513279645
-6.0216738153664995 13.014134584654434 -4.451519499416802
-6.581075112924168 12.317610346066726 -4.4139105403017656
-7.169459429209241 11.667271288683233 -4.501465395146878
-7.739660131587259 11.076187287036898 -4.7792068434147925
-8.248113167166926 10.5339286516536 -5.257995029980714
-8.653369857813917 10.020937176799725 -5.887814446440792
-8.924868368460361 9.512730489090401 -6.610584843820543
-9.044560736175097 9.00084473910653 -7.373678535747076
-9.006445192445005 8.504350478774322 -8.14365405656864
-8.829816054050843 8.031371633542117 -8.887406044978995
-8.533712509946751 7.582363103643683 -9.608857376883982
-8.131832804722434 7.160420106352826 -10.325246629854634
-7.636533077120885 6.745847473553734 -11.036509437656274
-7.091900643863494 6.29533172361424 -11.674626582482691
-6.545271064981944 5.808555747308937 -12.175473608877214
-6.04534014357078 5.333719536168386 -12.40922865420709
-5.654744981385927 4.943834336598904 -12.324468828348875
-5.3714678016792945 4.688657768514931 -12.019207238140432
-5.144214837115662 4.569251268634923 -11.551832175149393
-4.979259468198979 4.5774860315477115 -10.936755284641748
-4.898960813311646 4.7011418408202434 -10.173685730038155
-4.907159286396819 4.926810674810438 -9.292659732596501
-4.95723513089898 5.2041091518890195 -8.350227044487921
-5.0082606835840675 5.457149004151893 -7.385887302464204
-5.038301054715784 5.616112847989678 -6.415403499500749
-5.030622095725627 5.622220327442938 -5.454564780204301
-4.976657186029262 5.440827855450347 -4.539155878761283
-4.880877486737179 5.069739528748241 -3.703696712612113
-4.7576855410359205 4.521329142417612 -2.9793485156732644
-4.631135985517662 3.82633292440695 -2.3836880862335907
-4.521504107878932 3.02392423436231 -1.9161467205945337
-4.440308891273817 2.157630467610455 -1.5604204860019713
-4.384496183219758 1.2631244579002345 -1.2855886701970805
-4.339126836016936 0.35716808258757227 -1.0617757915557644
-4.289907098699789 -0.5555859054185911 -0.8655881674502385
-4.226400354615732 -1.4748829842368292 -0.6796663561022874
-4.13947410674673 -2.4008964720546873 -0.4908853883153942
-4.016690887257377 -3.3331275756008245 -0.26983283095653476
-3.8209010682826405 -4.267085062527077 0.018292411304496485
-3.51870582543979 -5.183403497430292 0.36795743882015697
-3.1113869172449933 -6.050799456132169 0.7541059590223713
-2.610554779397387 -6.840583523798581 1.16486694003284
-2.025024431212811 -7.529804988914546 1.5924331465456496
-1.361298772475622 -8.097559296513735 2.0340795942883685
-0.628374886654487 -8.526182970545811 2.4852983445371883
0.16032622263303736 -8.813774513584175 2.935268961930976
0.9893110448873634 -8.975555479823372 3.3807470933177064
1.8436689697481339 -9.02743218335675 3.827464867980317
2.712906382353945 -8.98231158600799 4.274781354624258
3.5853196443674746 -8.853562611345387 4.721069166899641
4.44587380505827 -8.65507131605585 5.167803719309498
5.281805803133413 -8.400241559161127 5.6191837223864605
6.08603085243676 -8.1000801723226 6.080212530705723
6.858748105062546 -7.765197589970936 6.554122248447171
7.6075650507825845 -7.410432228974063 7.041458649536313
8.344624499901403 -7.057044694262903 7.541510815259369
9.082859915040064 -6.731089369107944 8.053434425356125
9.83155137560883 -6.4596402971334665 8.575699258294277
10.591013843883466 -6.2658473660060565 9.106846818243293
11.353891575259892 -6.163448863978067 9.64914104471728
12.110980204096274 -6.160306269807599 10.211696166107918
12.851070159907556 -6.269792446963224 10.805131766393128
13.552256400716635 -6.512189620698865 11.430546134731083
14.180423782612467 -6.8987619085009335 12.072445712224402
14.706774629531752 -7.421869030431912 12.704973438560003
15.116914878252677 -8.063346358948841 13.303315916280859
15.412589774909124 -8.802141761705588 13.851537965128768
15.606961545594126 -9.617225383246929 14.3454146950948
15.718035545698461 -10.482849277024192 14.793597959175736
15.775257560447155 -11.35593248113276 15.22343215005879
15.825389415452124 -12.16744200453781 15.665950246147638
15.900061253462678 -12.865708617501317 16.11708514805459
LINES 1 77
76 0 1 2 3 4 5 6 7 8 9 10 11 12 13 14 15 16 17 18 19 20 21 22 23 24 25 26 27 28 29 30 31 32 33 34 35 36 37 38 39 40 41 42 43 44 45 46 47 48 49 50 51 52 53 54 55 56 57 58 59 60 61 62 63 64 65 66 67 68 69 70 71 72 73 74 75
POINT_DATA 76
SCALARS MaximumInscribedSphereRadius float
LOOKUP_TABLE default
1.2
1.2106666666666666
1.2213333333333334
1.232
1.2426666666666666
1.2533333333333334
1.264
1.2746666666666666
1.2853333333333332
1.296
1.3066666666666666
1.3173333333333332
1.3279999999999998
1.3386666666666667
1.3493333333333333
1.3599999999999999
1.3706666666666667
1.3813333333333333
1.392
1.4026666666666667
1.4133333333333333
1.424
1.4346666666666668
1.4453333333333334
1.456
1.4666666666666668
1.4773333333333334
1.488
1.4986666666666666
1.5093333333333332
1.52
1.5306666666666666
1.5413333333333332
1.552
1.5626666666666666
1.5733333333333333
1.584
1.5946666666666667
1.6053333333333333
1.616
1.6266666666666667
1.6373333333333333
1.6480000000000001
1.6586666666666667
1.6693333333333333
1.68
1.6906666666666668
1.7013333333333334
1.712
1.7226666666666666
1.7333333333333334
1.744
1.7546666666666666
1.7653333333333334
1.776
1.7866666666666666
1.7973333333333334
1.808
1.8186666666666667
1.8293333333333335
1.84
1.8506666666666667
1.8613333333333335
1.8719999999999999
1.8826666666666667
1.8933333333333335
1.904
1.9146666666666667
1.9253333333333333
1.936
1.9466666666666668
1.9573333333333334
1.968
1.9786666666666668
1.9893333333333334
2.0
SCALARS Curvature float
LOOKUP_TABLE default
0.0
0.1126148187138668
0.11600274513950572
0.10158453119715036
0.10297976009225636
0.1739407693920762
0.25978659222865097
0.26411359204181356
0.21546215430339305
0.18513785747270767
0.18008083210994325
0.1864830286014164
0.17484865541455283
0.15135907184936395
0.12271673563791237
0.09110434873427228
0.1045937680517149
0.16417139429303698
0.42510523069855255
0.792504555756402
0.8251400233436003
0.6072976416755043
0.37497249219900974
0.22081388853199765
0.13406397651707266
0.051493918285539855
0.02911622305239248
0.09893792342146569
0.16884065011352878
0.22315289863113222
0.24344762352137256
0.24463531293844573
0.22237850268682466
0.18757895486679077
0.14731834313402553
0.10131140870650011
0.060979964933452126
0.032812811600043214
0.020361901675629904
0.025211769653113194
0.04841776510558175
0.09296657538913856
0.11220585064942783
0.11264065124115218
0.11821885746622933
0.13110564573045472
0.14993836937960148
0.16674737812089663
0.16560272335358958
0.143407552722045
0.11904029518401615
0.10039750277647974
0.0843991794323257
0.0719903583619317
0.06349933306549488
0.05852957318094103
0.051504550477804806
0.03630991276429665
0.018650479113476413
0.032661894032708506
0.06213850423574442
0.08775169734635695
0.10354922951513897
0.1132839348974876
0.12705373704603065
0.1473836966077635
0.16692411787860365
0.17706097433507587
0.1784776367434808
0.167611090101096
0.14383702846986518
0.11036410898619603
0.06011517650550032
0.04764909573507584
0.10866702742297898
0.0
SCALARS Torsion float
LOOKUP_TABLE default
0.0
0.0
0.2098004223088089
0.39486961235678775
0.6622991784209359
0.37820599473086147
0.20022870280594482
0.19885570956578577
0.30673907661749034
0.3663866352155671
0.2542752365684752
0.01980337273083027
0.08080776839226497
-0.03391147315848961
-0.15085941687623705
0.19883032462828498
0.6029332201868802
0.20931336957166602
-0.06424268388410734
-0.057182157899305225
-0.3103250335120247
-0.4633959997076557
0.06583427984534335
0.22138677861141226
0.0679391265631975
-0.06288112982621558
0.8674853751458664
0.06673500315410885
0.015048491022764454
0.0014489693443891071
-0.022650288026107128
-0.05664709461999017
-0.10652823883749667
-0.11881583288661754
-0.12499238918477171
-0.08446617581583438
0.17179583821785466
0.5679990162338665
0.8219671600922267
0.5134642599136983
0.3073261290562919
0.010314040396757262
-0.15368148656249447
-0.12239200019765775
0.0003756363538012092
0.009811584754619088
0.02923633644830209
0.01947118749253192
-0.023038092304213664
0.010609037040366712
0.09595377047258104
0.03613232099379133
0.04334203053070663
0.12980307124069823
0.19798913182754294
0.2026622378975202
0.17491101623295668
0.2779979160612708
0.8915295383638991
0.513716166763412
0.14398615231675982
0.02265081842217645
-0.05843287147088802
-0.11502220643240015
-0.0947351553472204
-0.04429313611769229
-0.018322581176625018
0.005552859282835058
0.026483119659512208
0.040931766634652283
0.037161718555486
-0.03495803886935915
-0.49404964467637363
-0.8989982060408892
-0.32818086535829805
0.0
