# vtk DataFile Version 2.0
Vessel Segment
ASCII
DATASET POLYDATA
POINTS 76 float
-3.4821533209282287 16.835935748225086 -5.781316550997104
-3.822703736001925 16.268250068336194 -5.644895547214561
-4.231869170742155 15.630432327081794 -5.489079694924755
-4.693941948551683 14.963002338093741 -5.3092983655411565
-5.19117400169912 14.307984514475732 -5.099964789348239
-5.724545194022947 13.676376771703678 -4.888473992486246
-6.307907354615431 13.076211805143139 -4.700206320691043
-6.943052697564093 12.499844252509961 -4.611282434058506
-7.58319075184185 11.973779717711501 -4.74301395456951
-8.155643472108641 11.485832450322036 -5.071971670170018
-8.661686492737354 10.982964397971386 -5.507821775352629
-9.095184223139976 10.440825416859438 -6.030362952938764
-9.432229043186783 9.864527200499479 -6.622884845981909
-9.639654758922584 9.274373292339424 -7.256931856426179
-9.692676046362815 8.692779282221066 -7.898121798976173
-9.579999100381814 8.144453863750977 -8.52830243225446
-9.31933114321497 7.655591283491166 -9.149430121070425
-8.926935974002367 7.21880351852635 -9.801157923896131
-8.406931860937014 6.782578581213485 -10.48265093142803
-7.781971892359001 6.315337875313695 -11.159586459413743
-7.073344122136086 5.7776193689415525 -11.792623063892066
-6.316252527946925 5.1563382228221 -12.285281878849531
-5.559990952760797 4.472713018364097 -12.522265305683328
-4.873161864690482 3.807441236228402 -12.422423116788261
-4.31035681410359 3.222001700891997 -12.015440276196973
-3.899023217668005 2.7346567587249804 -11.387619313070193
-3.6331109640447306 2.331041149918618 -10.612665733618325
-3.5049167105584127 2.002343903055376 -9.751827504722222
-3.4959102823772987 1.7318788338296296 -8.872526266340737
-3.578181293929895 1.4918865206638643 -8.02035158764066
-3.7347548916301516 1.270896493559167 -7.210953436169789
-3.937794352446524 1.06033787364117 -6.427331930430051
-4.155309172637046 0.844559983721628 -5.65146382823195
-4.363441099135466 0.600812175217393 -4.876792932682951
-4.545454891577634 0.29909247650379395 -4.106030112368534
-4.692214456245779 -0.08449324787782621 -3.3477685424324117
-4.795984089573366 -0.5519533197997111 -2.595555367405194
-4.834283804894985 -1.0920544317459593 -1.835917618672672
-4.794059055463551 -1.6833782565148336 -1.0739933538592048
-4.671195983141936 -2.300346075170417 -0.3109546849421441
-4.463710348432538 -2.9265506536063697 0.4496863632935964
-4.179659857614164 -3.54993772792142 1.1857866461440318
-3.8261591132141506 -4.157110490132095 1.8706199732326678
-3.4018650912822763 -4.736343495004095 2.4812991082647278
-2.902405360732761 -5.2789345714252 3.004699019857292
-2.329073264141251 -5.778113144583257 3.4427466508745095
-1.6928801129141968 -6.228142397297979 3.8120596785314773
-1.0108904525690436 -6.625722355924511 4.136685644946662
-0.29759393673076096 -6.9698113725539095 4.438666945983717
0.4396299468869319 -7.257110470295837 4.733490783069343
1.1946442944561817 -7.480628832237135 5.029544656073496
1.9618638674794322 -7.636949687785927 5.327717912953369
2.7425383748804366 -7.7273964422223935 5.625884754023852
3.537336901407219 -7.753112739026738 5.9229129590131135
4.339897858770707 -7.721041063842642 6.220524755352422
5.140284535203601 -7.64472982860499 6.526286810006233
5.930228424922007 -7.537605096270322 6.848865928938746
6.705565527181393 -7.4103009963131905 7.193175449669936
7.465530167844865 -7.272538415307942 7.560643673838933
8.211152166062408 -7.135223388810314 7.949156791197367
8.946266584117792 -7.010313271298891 8.353062822603658
9.674920284988175 -6.910339002771067 8.76654214711468
10.394291737720918 -6.849027323818241 9.186686156002573
11.09457046684416 -6.837137333748247 9.612338162078412
11.765903410532173 -6.877181091284736 10.042775353973667
12.402789618632836 -6.964062035567045 10.479042356392325
13.00447167667871 -7.093123053963383 10.925346851964768
13.5696973303002 -7.269633669832591 11.387004863225748
14.09224562253348 -7.506266935145937 11.863576228828537
14.568024546702963 -7.8140202847817335 12.348555313800663
14.996532142550853 -8.20193800215997 12.834963896780572
15.37066687354047 -8.671303296229894 13.317822394032888
15.68528047128164 -9.2080475302579 13.796107790692602
15.938675362700186 -9.792255252767019 14.272006241089475
16.12360708012912 -10.39124635583037 14.746753787647755
16.24914499356567 -10.958081482141095 15.203501400242995
LINES 1 77
76 0 1 2 3 4 5 6 7 8 9 10 11 12 13 14 15 16 17 18 19 20 21 22 23 24 25 26 27 28 29 30 31 32 33 34 35 36 37 38 39 40 41 42 43 44 45 46 47 48 49 50 51 52 53 54 55 56 57 58 59 60 61 62 63 64 65 66 67 68 69 70 71 72 73 74 75
POINT_DATA 76
SCALARS MaximumInscribedSphereRadius float
LOOKUP_TABLE default
1.2
1.2106666666666666
1.2213333333333334
1.232
1.2426666666666666
1.2533333333333334
1.264
1.2746666666666666
1.2853333333333332
1.296
1.3066666666666666
1.3173333333333332
1.3279999999999998
1.3386666666666667
1.3493333333333333
1.3599999999999999
1.3706666666666667
1.3813333333333333
1.392
1.4026666666666667
1.4133333333333333
1.424
1.4346666666666668
1.4453333333333334
1.456
1.4666666666666668
1.4773333333333334
1.488
1.4986666666666666
1.5093333333333332
1.52
1.5306666666666666
1.5413333333333332
1.552
1.5626666666666666
1.5733333333333333
1.584
1.5946666666666667
1.6053333333333333
1.616
1.6266666666666667
1.6373333333333333
1.6480000000000001
1.6586666666666667
1.6693333333333333
1.68
1.6906666666666668
1.7013333333333334
1.712
1.7226666666666666
1.7333333333333334
1.744
1.7546666666666666
1.7653333333333334
1.776
1.7866666666666666
1.7973333333333334
1.808
1.8186666666666667
1.8293333333333335
1.84
1.8506666666666667
1.8613333333333335
1.8719999999999999
1.8826666666666667
1.8933333333333335
1.904
1.9146666666666667
1.9253333333333333
1.936
1.9466666666666668
1.9573333333333334
1.968
1.9786666666666668
1.9893333333333334
2.0
SCALARS Curvature float
LOOKUP_TABLE default
0.0
0.033217052904101124
0.042024681503360244
0.06090457050330852
0.05860477952857962
0.08550637803805036
0.15200374812431694
0.3108248904187785
0.3042540851684941
0.17603799813373283
0.14809807985156018
0.14915519342516637
0.17043681493386734
0.20254701185962742
0.23372789433564917
0.22650780487218689
0.17210874643895285
0.10276086215136847
0.07507420816250125
0.0830856827564784
0.14008194491453665
0.23520485594611132
0.35524429045533573
0.39082907723320315
0.3398094289802085
0.2560900834490944
0.20002640571366825
0.1569265522384236
0.12158594405963014
0.11186745937759954
0.07402788021065873
0.024574858930229322
0.04145065058210977
0.0870228170985066
0.11763664205333017
0.11042953559730478
0.09955474095336214
0.09246510278930634
0.08382513624678876
0.08113612546288472
0.07937476220923435
0.08841742759895889
0.11307226773042352
0.14189694009837786
0.15392009362780623
0.14020456591740255
0.11288297998211519
0.09147287954718814
0.08678736975186138
0.09331092133867866
0.0970300944859773
0.09456864770237018
0.0904641685196869
0.07821958885209054
0.06044550840050607
0.049476649063045774
0.04484505904179258
0.040480070811757494
0.03483390196739736
0.03071638127020614
0.038204167865724704
0.05671389688517695
0.07629457432614259
0.08837026909311636
0.09088455753500631
0.09292029290381043
0.1084735377036256
0.13441279712844656
0.1523056918774576
0.15950737733979634
0.15991179111035494
0.14176714422714948
0.12004760407371574
0.11244986403476155
0.09630746641363182
0.0
SCALARS Torsion float
LOOKUP_TABLE default
0.0
0.0
-0.33446567850930004
-0.1743460773135158
0.5907698399682946
0.3077625952844861
0.3784330116424168
0.1714492239221679
0.3137562410650323
0.6317956309623387
0.3165658082740907
0.10368798838711729
0.06322379820447335
0.06026667595376863
-0.03562582461800213
-0.1801522616676955
-0.23623593502478082
0.4105976611599734
0.5107032314176907
0.3709101961450156
0.08737032395912675
-0.0033890550283262877
-0.05918776095806138
-0.013777855357003252
0.06423026281334146
0.1029533509881789
0.09766274473544585
0.18543403925120153
0.36126686000131
0.19616541519219288
0.04146581132032373
0.9374324863020731
0.6036356827133077
0.04780304093447918
-0.03539844186311625
0.1019201572637625
0.32619353651421973
0.21826921819836423
0.24208954904904675
0.1301656642389755
-0.06378407881336703
-0.07726266791769977
-0.03307373428059481
0.006218420218807662
0.058122678986399265
0.14938927215525366
0.2809669744165333
0.3740390208305077
0.31805690264740566
0.18633919127177875
0.051274593230998394
-0.04464757836187162
-0.025113531022639333
0.07238570119568444
0.3216421992813504
0.4744410020238816
0.39587922794774644
0.35840019884603513
0.46126158308753346
0.6238510965501195
0.46941793973660983
0.137555370337892
-0.021630355007829505
-0.07504260862455925
-0.13039598400601157
-0.14252763968923124
-0.031237463117475744
0.06933666109048335
0.11697978744768409
0.11626638473085993
0.0036210463003820137
-0.10562803280150866
-0.1918075817711033
-0.36824229022539284
-0.43606730650785075
0.0
