# vtk DataFile Version 2.0
Vessel Segment
ASCII
DATASET POLYDATA
POINTS 76 float
-3.0145249331600144 17.769893450966578 -5.520815926179781
-3.4382956645822857 17.03546365318389 -5.344701668366735
-3.9104473465842573 16.25439779707421 -5.104833760197888
-4.415574743113379 15.44328933499371 -4.8417295313971564
-4.954272581289113 14.624394014678495 -4.594218546961705
-5.526441463015007 13.809067827234845 -4.396045998918353
-6.1246172348638295 13.002114922548065 -4.309094228737561
-6.719407135598012 12.23450261141029 -4.414500815983962
-7.260396000553161 11.52907156768587 -4.742561671098493
-7.713769794191091 10.86790615258203 -5.261378252057605
-8.06086345524325 10.24147290309144 -5.903152685290976
-8.286245354146754 9.623064722783463 -6.611373295677484
-8.37694783123141 8.99423245013598 -7.3380755306099275
-8.306780899226586 8.364948353582683 -8.08067596017515
-8.071204440730776 7.760450754824486 -8.816088361757718
-7.700058108847779 7.19211157131407 -9.532897635785218
-7.240692940774674 6.656525911774816 -10.211460332918064
-6.733205933755826 6.144936115030795 -10.841911390638158
-6.193028207898149 5.596117605733552 -11.400753158918556
-5.689959867074144 4.998489633946485 -11.754479227548629
-5.293444271567133 4.401238462537224 -11.835577342467989
-5.039204640382881 3.853069967749232 -11.642351143845298
-4.927462048717711 3.4128802711135493 -11.17864529167827
-4.97323649992017 3.1373077797195488 -10.487686826959596
-5.142803164347656 3.0446025704125326 -9.690495385514224
-5.376950991415259 3.094364171175367 -8.874661249101969
-5.6399098804855665 3.2274748520110688 -8.060679335781726
-5.906336610751071 3.393899344829717 -7.250702279515666
-6.147576444404883 3.5384658442892802 -6.441313499811676
-6.352111864806499 3.60733242892757 -5.632656252403373
-6.521918798762623 3.5765168479082328 -4.826723007742623
-6.6355491103657 3.4105754524853755 -4.026963959512567
-6.669674781162626 3.0705256633273708 -3.2733207635852537
-6.629971964786743 2.5598173290198303 -2.609589336161932
-6.534512617954127 1.90856481091559 -2.0568880985913434
-6.394275315846117 1.143956994867785 -1.6229866947788145
-6.21510227789776 0.2923635861335757 -1.30179090146263
-5.9970310350210205 -0.6175653464485727 -1.072184806572206
-5.748313146339475 -1.5570674113807366 -0.9094802182179147
-5.4764585847767275 -2.49991384268857 -0.7805836220557918
-5.171492394226825 -3.4242664942436334 -0.6519819796931167
-4.815923751560535 -4.313938389151789 -0.49866318673386556
-4.394961350303489 -5.155558254559859 -0.3022311529931674
-3.9005596238759335 -5.937358316842017 -0.05825335802544802
-3.330771977577544 -6.6522433402671926 0.2259092479079628
-2.6848673587302367 -7.293862668348867 0.5442324905365634
-1.9634290187075976 -7.847743220855727 0.8981972326132719
-1.1739661013666511 -8.290228532665399 1.2924375116732543
-0.3361201832292214 -8.601372551106923 1.7277944045035567
0.5238074525923276 -8.778303438588637 2.1992839164856792
1.3863554312215467 -8.832551060225232 2.697541331212881
2.2460842019359504 -8.782307371083855 3.207996556046368
3.1074718148005234 -8.649906721138047 3.7149027212851418
3.9717287894706965 -8.455432682414566 4.211452860098729
4.832330642572997 -8.212268106071857 4.702554516911592
5.6793725597543085 -7.927515885595048 5.200253361325296
6.503654179450422 -7.604653430176955 5.715101348348484
7.300791161551816 -7.2482288342218935 6.250327385452482
8.074010544769951 -6.86848215607058 6.802478528175335
8.832885887784851 -6.481407252442056 7.365053511081845
9.58964914992717 -6.10751926358929 7.9310333905907315
10.354683840160563 -5.772523285446424 8.495753098292704
11.13068022302922 -5.508263321924612 9.061462973894306
11.908106640330345 -5.3493026596482744 9.63762438584367
12.664620169733922 -5.325419785191157 10.234632049583741
13.366698462373202 -5.454383205003829 10.85635673654724
13.97827148963549 -5.735405973552448 11.494771913806765
14.480377128105445 -6.150947910834795 12.133390410634052
14.869447307988194 -6.678936618901245 12.758365085102541
15.148245972646004 -7.294302340409747 13.358578099453052
15.33076289184615 -7.974679233700382 13.930287998606307
15.43720025658623 -8.70610855120082 14.47909337876055
15.495924904899152 -9.476748211717494 15.010178583597597
15.542477296681133 -10.27624533391384 15.520322381606055
15.619548284204221 -11.089880786316193 16.00150002146225
15.755483061117474 -11.882565944060056 16.448290240985546
LINES 1 77
76 0 1 2 3 4 5 6 7 8 9 10 11 12 13 14 15 16 17 18 19 20 21 22 23 24 25 26 27 28 29 30 31 32 33 34 35 36 37 38 39 40 41 42 43 44 45 46 47 48 49 50 51 52 53 54 55 56 57 58 59 60 61 62 63 64 65 66 67 68 69 70 71 72 73 74 75
POINT_DATA 76
SCALARS MaximumInscribedSphereRadius float
LOOKUP_TABLE default
1.2
1.2106666666666666
1.2213333333333334
1.232
1.2426666666666666
1.2533333333333334
1.264
1.2746666666666666
1.2853333333333332
1.296
1.3066666666666666
1.3173333333333332
1.3279999999999998
1.3386666666666667
1.3493333333333333
1.3599999999999999
1.3706666666666667
1.3813333333333333
1.392
1.4026666666666667
1.4133333333333333
1.424
1.4346666666666668
1.4453333333333334
1.456
1.4666666666666668
1.4773333333333334
1.488
1.4986666666666666
1.5093333333333332
1.52
1.5306666666666666
1.5413333333333332
1.552
1.5626666666666666
1.5733333333333333
1.584
1.5946666666666667
1.6053333333333333
1.616
1.6266666666666667
1.6373333333333333
1.6480000000000001
1.6586666666666667
1.6693333333333333
1.68
1.6906666666666668
1.7013333333333334
1.712
1.7226666666666666
1.7333333333333334
1.744
1.7546666666666666
1.7653333333333334
1.776
1.7866666666666666
1.7973333333333334
1.808
1.8186666666666667
1.8293333333333335
1.84
1.8506666666666667
1.8613333333333335
1.8719999999999999
1.8826666666666667
1.8933333333333335
1.904
1.9146666666666667
1.9253333333333333
1.936
1.9466666666666668
1.9573333333333334
1.968
1.9786666666666668
1.9893333333333334
2.0
SCALARS Curvature float
LOOKUP_TABLE default
0.0
0.05423596363970977
0.016657233166907252
0.03116932508192134
0.05751519434392286
0.11218566135756394
0.20257304270715473
0.25834445505191395
0.2286224193776914
0.17639925927563674
0.14663454573090606
0.14504167761105877
0.16630387312898148
0.1712336326852564
0.14323009199172787
0.10555476414175276
0.07578597728566847
0.09586560960643999
0.2673365065634686
0.48950530986039964
0.6506688333497144
0.6264239498494176
0.4646102406986562
0.315637930602226
0.20623622516253087
0.11418747797580513
0.04439334012764069
0.042699286341149986
0.11739284787690094
0.15394929587728565
0.21123412149169138
0.27746911606978714
0.28145213596775437
0.24276387136032163
0.20368397766566848
0.1606599626653444
0.11518862624545693
0.07739579728259666
0.041611108198913234
0.038617287126721696
0.06943413137554265
0.09898600297041284
0.11528449567432633
0.11762403935994428
0.11792814056992434
0.12494476887306091
0.13769781213834348
0.14547891057727455
0.14024075639049582
0.12522105526318178
0.10423689290123357
0.08009326072135499
0.060345764664902324
0.046822347121042794
0.042118973427265165
0.04529012295492567
0.04546120252763528
0.03575348124794221
0.018292275857302913
0.012602889749311147
0.03844637728635144
0.07137991364870122
0.1091409847040653
0.14751970326472116
0.18109731145067623
0.2036370916809328
0.20533104128110297
0.19232986719829348
0.1728244421027819
0.14366811636886898
0.10893159970186145
0.06961037159322242
0.039419252100273375
0.04930895921684717
0.07827281810192921
0.0
SCALARS Torsion float
LOOKUP_TABLE default
0.0
0.0
0.870410021830627
0.4659086421941619
0.162885950851756
0.14468002466844634
0.07070236175800879
0.11146301104653661
0.20669427279950534
0.2570126614378496
0.40120604857949677
0.33409408725873485
-0.02733417050207082
-0.022797156729926382
-0.03161024834560198
0.141255211263471
0.26854285201805
0.5621574408092744
0.15174990668793198
0.05256080136820496
0.021970957148102335
-0.1336844451781759
-0.01668582830615005
-0.0485086605461857
-0.13429548609908346
-0.11683696089715667
-0.5199771949008928
-0.6857612392263982
-0.18350897728717275
-0.11276395192310998
0.04746561789612211
-0.006319442517978495
-0.07133960379422337
-0.07854503992228674
-0.032867026686894334
0.014664431684373182
0.1211209702853911
0.10727242712687872
0.4396291220843426
0.7459427545024696
0.22882625771723852
0.08170063062984623
-0.009405457774688653
-0.07250661879454617
-0.052933053910144995
0.014676560955510856
0.05020155778330346
0.058443466273934444
0.060303395345120754
0.03051401703029912
-0.07313218495862785
-0.2021088032820363
-0.15104324653612922
0.13482587213030084
0.3506362665234532
0.25921832737735667
0.12679776751476254
0.10504580284470845
0.44757133960776646
0.88988779162211
0.1473151257226406
-0.038985773438593774
-0.10436898186844865
-0.11396187259318735
-0.10782068096677976
-0.08935025989446972
-0.039583067534018045
-0.013654353142410515
-0.016497419702948483
-0.002915369051623113
0.0018838101850259898
0.14648433311208126
0.74633697073706
0.6437768531024758
0.34111693420028527
0.0
