# vtk DataFile Version 2.0
Vessel Segment
ASCII
DATASET POLYDATA
POINTS 76 float
-4.515008711008182 18.014762856886584 -5.918522974276341
-4.948364234710919 17.388267624984586 -5.776151305835832
-5.434349900984915 16.65493830979153 -5.565428100767405
-5.939054584226657 15.847724110186583 -5.345234960711484
-6.437209029723051 15.011854769550935 -5.157989997607473
-6.919743372467233 14.157241643769295 -5.043963018704652
-7.373333197233059 13.292743179892947 -5.051011845833498
-7.772304695281025 12.445383801911206 -5.228030092313285
-8.067953207554725 11.669649145454253 -5.6157695605560285
-8.20956541993103 10.986008817434138 -6.181038992890866
-8.241272443734232 10.352089436720467 -6.8079297778814665
-8.193306348841752 9.738892256789102 -7.4707947916010715
-8.068939627217116 9.126968405755388 -8.154657646268227
-7.843565613624731 8.520196265153542 -8.862518143859614
-7.506633000045636 7.928417044180561 -9.555320210370319
-7.07188331332341 7.348098728336166 -10.184397590390391
-6.575678361536442 6.784798853581703 -10.704950183132691
-6.048340861735294 6.246925717095497 -11.10362803347843
-5.525623796241995 5.709577257734537 -11.364229589857207
-5.054281341862106 5.147892849188259 -11.475256677172277
-4.664614535287507 4.563444628038516 -11.422691940091845
-4.407619533633201 3.9575018446529073 -11.1349590993833
-4.358063481239516 3.3794817036710136 -10.60020579692577
-4.507107813700809 2.904328227928293 -9.887511986627137
-4.783685307921554 2.553062893459888 -9.13034503935662
-5.126006087407756 2.3023202595086323 -8.41014347781653
-5.511939106123006 2.1423177238518787 -7.7337452296967175
-5.918890551552266 2.0784744809377353 -7.08497253299905
-6.31010217824679 2.0992311761560014 -6.445746128181022
-6.648457443256911 2.1671809438431016 -5.790126994252579
-6.898053170381673 2.2283108888950727 -5.095869570953174
-7.044716448071152 2.2387344839696697 -4.3678899697695845
-7.085808707442936 2.167170450775208 -3.617695285912679
-7.019811801212129 1.9860960915496892 -2.857020286285542
-6.849771043132742 1.6786765573266078 -2.1066912471441652
-6.575385239335913 1.2400665450883162 -1.3977850838903778
-6.208368937436351 0.6780986424109571 -0.7731395139478683
-5.781491113872153 0.021323253640681175 -0.2614222819249241
-5.320471315027074 -0.6925647120224737 0.13856479606996738
-4.8375522179926955 -1.4284063619264569 0.4393774362369985
-4.334331828058143 -2.1559673547102207 0.6602686429893432
-3.804272505468744 -2.8561300574978987 0.8082355820750707
-3.2683631785328053 -3.519640899097113 0.8842479907387971
-2.7457279177245475 -4.149107775426472 0.9333488791983584
-2.2172098035244967 -4.752381542999809 1.0116505242830918
-1.6582529735152944 -5.327041103652452 1.145061283514149
-1.0561454830639514 -5.862195838457624 1.347345721898061
-0.41060458239438996 -6.34813902285805 1.6227612953615052
0.26937765713255496 -6.781678126188721 1.9729787845371862
0.9721502027831715 -7.156455760711637 2.399725512527706
1.69185808384078 -7.458238057089725 2.885514257510534
2.4324518463170017 -7.681584556204129 3.393217016368482
3.1994668419115535 -7.830326390057645 3.8980660514217087
3.9925986503679325 -7.904476137782012 4.393580984644512
4.806488737787786 -7.902892689194676 4.883385214063339
5.633484653693923 -7.8312570963911226 5.374954991392593
6.466710408929003 -7.704910743936804 5.8752107557508335
7.300129046254184 -7.544986977884937 6.388835861164278
8.127954522902192 -7.373752973922455 6.918053900570645
8.945223334077143 -7.210790978493461 7.4617966503417685
9.745918662958463 -7.069628850296871 8.01616307438101
10.521581819573033 -6.95860613838575 8.577280115779589
11.265200060548061 -6.8877814602094 9.142876460980041
11.970338242139082 -6.87616239536909 9.710750434996426
12.622671267027746 -6.946252555022749 10.275766366212192
13.196842004680462 -7.1068490272178035 10.83025339812469
13.67540987073015 -7.344122873900833 11.366619259586487
14.070749605328384 -7.641123236912735 11.885623704163779
14.399809821110214 -7.9979881342033075 12.399741316390658
14.666498788650607 -8.418416793763868 12.920057183750519
14.873848613250438 -8.896909486519519 13.449738326157966
15.035748164338182 -9.4195548740915 13.98828395625783
15.17154694690429 -9.97580307490893 14.53603202717051
15.28710598549792 -10.573693550633626 15.079929534729496
15.364001462131803 -11.231935708170095 15.597267951395706
15.394070064973949 -11.940498553989503 16.07221971593166
LINES 1 77
76 0 1 2 3 4 5 6 7 8 9 10 11 12 13 14 15 16 17 18 19 20 21 22 23 24 25 26 27 28 29 30 31 32 33 34 35 36 37 38 39 40 41 42 43 44 45 46 47 48 49 50 51 52 53 54 55 56 57 58 59 60 61 62 63 64 65 66 67 68 69 70 71 72 73 74 75
POINT_DATA 76
SCALARS MaximumInscribedSphereRadius float
LOOKUP_TABLE default
1.2
1.2106666666666666
1.2213333333333334
1.232
1.2426666666666666
1.2533333333333334
1.264
1.2746666666666666
1.2853333333333332
1.296
1.3066666666666666
1.3173333333333332
1.3279999999999998
1.3386666666666667
1.3493333333333333
1.3599999999999999
1.3706666666666667
1.3813333333333333
1.392
1.4026666666666667
1.4133333333333333
1.424
1.4346666666666668
1.4453333333333334
1.456
1.4666666666666668
1.4773333333333334
1.488
1.4986666666666666
1.5093333333333332
1.52
1.5306666666666666
1.5413333333333332
1.552
1.5626666666666666
1.5733333333333333
1.584
1.5946666666666667
1.6053333333333333
1.616
1.6266666666666667
1.6373333333333333
1.6480000000000001
1.6586666666666667
1.6693333333333333
1.68
1.6906666666666668
1.7013333333333334
1.712
1.7226666666666666
1.7333333333333334
1.744
1.7546666666666666
1.7653333333333334
1.776
1.7866666666666666
1.7973333333333334
1.808
1.8186666666666667
1.8293333333333335
1.84
1.8506666666666667
1.8613333333333335
1.8719999999999999
1.8826666666666667
1.8933333333333335
1.904
1.9146666666666667
1.9253333333333333
1.936
1.9466666666666668
1.9573333333333334
1.968
1.9786666666666668
1.9893333333333334
2.0
SCALARS Curvature float
LOOKUP_TABLE default
0.0
0.05102836541499148
0.025511297176153303
0.042394686255284676
0.07889310751420095
0.130212569355831
0.19475578989424328
0.2841830093542391
0.3023397477954898
0.1685043445413722
0.10757290502852127
0.0874891727477365
0.10469737113617712
0.11812134325873914
0.1265245455076224
0.1424559153047467
0.1590496027840227
0.20239707479172303
0.27588652876991404
0.35422445869300634
0.46967666170852485
0.44103275197623604
0.3282396710316087
0.2298903844237555
0.17100824533426923
0.16350137741982373
0.16808623237529893
0.15084212004338665
0.1313762259450615
0.1749506368880856
0.21244593601604048
0.22990866547912012
0.23422319112245402
0.21937385023039518
0.20489349855496175
0.19591073268738393
0.176187050821824
0.1456774184366066
0.11946848485577033
0.09777596353463108
0.10112431907167259
0.10158279122644855
0.04067279610984089
0.05768906907889174
0.10329004828315384
0.1261573165755426
0.1283719047093473
0.11934285966061477
0.11541304436099432
0.10981223146152325
0.09722554807936229
0.0907684855960131
0.08927689617717531
0.08545637033682023
0.07416229327278885
0.05528918271028973
0.03445066693801737
0.019369148225953165
0.019852121200759486
0.028270126751941647
0.03716816988533437
0.05088390646565554
0.07825403858717518
0.12053390424841265
0.16665724604945764
0.19582213752992195
0.18895021198695802
0.1768356653637279
0.1668238682240505
0.14182731645696545
0.09833925217627203
0.05615983746447073
0.05861372793793607
0.10062615553777328
0.10807295182269093
0.0
SCALARS Torsion float
LOOKUP_TABLE default
0.0
0.0
-0.9413767930876682
-0.3858303446007467
-0.11088404162821047
-0.03410565849670892
-0.008457763400097448
0.02638475415645533
0.18465444161207062
0.4886802040350949
0.2572251969478013
0.3225297859825009
0.0005084476690668249
0.16579624086768482
0.2862836491926864
0.27331681456796336
0.14483013455520688
0.3935854930645018
0.37117757637294246
0.11652517345332386
0.018962613709519252
0.07933493657234636
-0.04853287040159132
0.03963702360738371
0.16037871938950032
-0.06713032538847197
-0.3487321380284538
-0.5725722542399809
-0.7930518922692188
-0.6138066348557367
-0.36726106106968437
-0.23950834370994342
-0.16702468019214906
-0.11519691121290017
-0.03462324035413475
-0.04493361772268881
-0.08145303415967857
-0.012511962002428031
0.10785785976967735
0.2859302906038888
0.2579131635194644
-0.1358370929255776
0.1929302809585799
0.6553483901491964
-0.02214888482827082
-0.05324000912027748
-0.020298583699772728
0.0627432649797345
0.059035975798183885
-0.15999555906037555
-0.4011695784195625
-0.32001716009744274
-0.07039415950978001
0.0812366463765935
0.1473042648948963
0.20128889865338423
0.3821138852267569
0.789779908259037
0.6784435065926238
0.2897497914497572
0.0821177106210087
0.06651132504510887
0.09424704497968571
0.04171024710507662
-0.05965491093937024
-0.12502357326537009
-0.04131687149812133
0.003727295485191892
-0.058926297322604904
-0.06734015778409408
-0.03966478653907626
0.11028946006844118
0.41611085272945547
0.03387774321370579
-0.02229040757490154
0.0
