# vtk DataFile Version 2.0
Vessel Segment
ASCII
DATASET POLYDATA
POINTS 76 float
-4.018758411370822 16.979010274549804 -5.043858068333064
-4.362834391763935 16.220923821300172 -5.001336558941252
-4.8014492015625425 15.420436353780703 -4.873160723205646
-5.304602412008192 14.623984137646788 -4.7010746978287825
-5.848066246438095 13.851023920243508 -4.537002585484821
-6.416352271124649 13.097580246226354 -4.457459333325921
-6.9821862568953925 12.36360161376861 -4.550626702621821
-7.494323158852965 11.666770013652416 -4.872913222938812
-7.894616581721026 11.020963535501972 -5.424157006938789
-8.143648522560389 10.412859342905309 -6.135280124736161
-8.25421231206791 9.828805228471431 -6.913846377526414
-8.250931360429629 9.26182704626623 -7.701438499147738
-8.149105086352627 8.70557562698511 -8.4726355780424
-7.9508808420088 8.15047694855426 -9.219225963699829
-7.649929603935881 7.591671089828614 -9.940624139120695
-7.250868045285929 7.033742094640651 -10.627031850034056
-6.780542001399081 6.46879941608647 -11.253408125158908
-6.287310114438064 5.875485163247963 -11.766855483137121
-5.82426481909748 5.249618369742157 -12.123078011104877
-5.441351886054783 4.613123479602702 -12.258425401854586
-5.177250594492208 4.019131944227574 -12.13752140744388
-5.046291308555066 3.524423517729821 -11.790761095529373
-5.010352133362835 3.156640877923015 -11.277440114497022
-5.061311622410268 2.9419824596420865 -10.602927151999198
-5.201204110418883 2.8881036192649057 -9.829748818171598
-5.407392262159456 2.9703467191002195 -9.025121754992037
-5.644818888759234 3.1498244389415726 -8.22318405410107
-5.8749872896357065 3.3836966621765208 -7.42945934603493
-6.062543207365243 3.621279510191836 -6.6353974524069095
-6.182034094223719 3.8046587218293584 -5.831470917362422
-6.216426708367596 3.8808091875299358 -5.023023419335616
-6.173476624473403 3.8239133036468838 -4.232567376213201
-6.072995451350436 3.6248154476475323 -3.481264301129615
-5.936238067689133 3.2830577303103756 -2.7796959686350253
-5.779478378589846 2.804892171286122 -2.139462722290037
-5.606260291849397 2.2107143621848167 -1.5730325069067246
-5.41737114513082 1.5251643114409958 -1.0900451933153008
-5.222193058875856 0.7724905367906026 -0.6907233377129995
-5.02683897479659 -0.0258073263529869 -0.3589694876276707
-4.831909175040922 -0.8540210624392909 -0.07514227930166052
-4.631325826848654 -1.6990870507383178 0.18194680357385698
-4.40741035229006 -2.5499586150618567 0.4379016362991815
-4.1377328474562205 -3.393203962510803 0.7158291790492846
-3.802982429839886 -4.210129850520474 1.0303640913113095
-3.3894453562042095 -4.979511739872371 1.386415147965328
-2.8892882809684255 -5.679102874235475 1.7823376621348628
-2.3013396675592626 -6.2876601464918105 2.2121943953102394
-1.6317022774097054 -6.788442824603785 2.667303689097653
-0.8932669178442149 -7.173035100953157 3.137548889029063
-0.10196647654998886 -7.443274158152413 3.6119850908037128
0.7291438518739302 -7.608911700909317 4.079018196660289
1.5912812754179706 -7.6830575458949015 4.528755889978389
2.475914896850759 -7.678067269743367 4.957023438212337
3.3734522144100176 -7.603211227338662 5.367015368670943
4.275213190386089 -7.4660948373661045 5.765914050803515
5.174003197158831 -7.27643347207346 6.161378736746943
6.064738685156145 -7.0478530230934595 6.559820851491627
6.945709536732405 -6.798049949052872 6.965613163124057
7.819481995356473 -6.548658196075977 7.381259261924296
8.691245850530677 -6.324002561748879 7.806970882589281
9.564869385271681 -6.14860377947846 8.240396453173968
10.439349895809139 -6.044030473934943 8.677695650130655
11.308174341872748 -6.02738078956478 9.116227415045932
12.159714546808358 -6.111572016572037 9.55767691822761
12.976256764981242 -6.306425431191788 10.007904948266535
13.732869952369601 -6.619319634734366 10.473019948992214
14.401114931949163 -7.053631373640262 10.95423532467261
14.957617720144867 -7.606858869172295 11.447003750191216
15.384126979746727 -8.270014474983915 11.94525872375703
15.668769613315666 -9.022996097719895 12.44097034927844
15.817533939026694 -9.83390637156761 12.92551760453237
15.857569632306683 -10.672024758014805 13.395042734127292
15.822345903606143 -11.519558122721593 13.853922047814196
15.745824214871105 -12.362509944054965 14.3122370962396
15.665072141611507 -13.174726294461243 14.777743306790843
15.602672688320816 -13.931090317822692 15.2389484621713
LINES 1 77
76 0 1 2 3 4 5 6 7 8 9 10 11 12 13 14 15 16 17 18 19 20 21 22 23 24 25 26 27 28 29 30 31 32 33 34 35 36 37 38 39 40 41 42 43 44 45 46 47 48 49 50 51 52 53 54 55 56 57 58 59 60 61 62 63 64 65 66 67 68 69 70 71 72 73 74 75
POINT_DATA 76
SCALARS MaximumInscribedSphereRadius float
LOOKUP_TABLE default
1.2
1.2106666666666666
1.2213333333333334
1.232
1.2426666666666666
1.2533333333333334
1.264
1.2746666666666666
1.2853333333333332
1.296
1.3066666666666666
1.3173333333333332
1.3279999999999998
1.3386666666666667
1.3493333333333333
1.3599999999999999
1.3706666666666667
1.3813333333333333
1.392
1.4026666666666667
1.4133333333333333
1.424
1.4346666666666668
1.4453333333333334
1.456
1.4666666666666668
1.4773333333333334
1.488
1.4986666666666666
1.5093333333333332
1.52
1.5306666666666666
1.5413333333333332
1.552
1.5626666666666666
1.5733333333333333
1.584
1.5946666666666667
1.6053333333333333
1.616
1.6266666666666667
1.6373333333333333
1.6480000000000001
1.6586666666666667
1.6693333333333333
1.68
1.6906666666666668
1.7013333333333334
1.712
1.7226666666666666
1.7333333333333334
1.744
1.7546666666666666
1.7653333333333334
1.776
1.7866666666666666
1.7973333333333334
1.808
1.8186666666666667
1.8293333333333335
1.84
1.8506666666666667
1.8613333333333335
1.8719999999999999
1.8826666666666667
1.8933333333333335
1.904
1.9146666666666667
1.9253333333333333
1.936
1.9466666666666668
1.9573333333333334
1.968
1.9786666666666668
1.9893333333333334
2.0
SCALARS Curvature float
LOOKUP_TABLE default
0.0
0.11295390105061329
0.07407186464804749
0.05135145073610056
0.09989621925639466
0.1977144733465838
0.271518204639882
0.281244716191218
0.22687392628131087
0.15921952879378085
0.1219763615967907
0.10899110489606864
0.10952014792452168
0.11292734608510747
0.10901483776498508
0.0998500323933894
0.13219569203475307
0.20542215470389624
0.3741042636555472
0.5698418373809598
0.6242592894984144
0.5061450248741034
0.3946998419316381
0.285420925685337
0.20170289535169245
0.13402004917868382
0.0747395982583453
0.05810781883661691
0.12427144942326443
0.20398282979179608
0.24104847556324846
0.2520312807445487
0.23985444085709148
0.217551505969821
0.1878150539437048
0.16257349862361312
0.1370506437420332
0.10146392033439493
0.06841914635009644
0.0374065732206977
0.025628878637524905
0.057626124375376994
0.088749265229716
0.11225840195135252
0.13052600499979125
0.1438083319873801
0.14998909096696006
0.14676749454870835
0.13477647477622878
0.11846552587561167
0.10200180274038281
0.08701759637931793
0.07415709796159133
0.06336051003274883
0.05234789297430704
0.03955405120824411
0.024405769640000657
0.012009880672220872
0.02682543186734796
0.05063099922930788
0.07304990931811581
0.09252083204373795
0.10981939921485503
0.12752517360586063
0.14910868669868527
0.17249941747812522
0.1879143542008556
0.19180247274377865
0.18326986411405052
0.1587780999455244
0.12104825666301187
0.08190998992487712
0.044809953409279235
0.025362145222670284
0.03726163378086205
0.0
SCALARS Torsion float
LOOKUP_TABLE default
0.0
0.0
0.37420160877952807
0.775301075419013
0.4419292559502595
0.16349669477505774
0.11172450080589064
0.14101162292213337
0.27834230428029816
0.33974884053841353
0.30410236907943217
0.20738513735798736
0.13366886872693995
0.03199188539141365
0.025425993226188253
0.3009172059879566
0.4452278110344225
0.26237455188061315
0.06873112862404676
-0.010632740978711377
-0.020051086360374937
-0.2238168581302176
-0.10291224282234446
0.07516506626628938
0.018001633572302722
-0.16075788149881456
-0.6696510090632442
-0.9051877091510426
-0.38830599572647184
-0.17322531744797784
-0.1570081468901331
-0.1702463915364912
-0.16261300329292905
-0.11326637045379802
0.01517470476268147
0.051345895686488535
-0.04517541993943472
-0.05536031786458593
-0.002251522135834412
0.34958891469167325
0.9068385924936067
0.2608543803306138
0.060139059207468204
-0.005040716308382098
-0.021971981156277687
-0.021341829827340827
-0.01563681539994405
-0.010661055497336034
-0.020953767199807703
-0.06046191027469404
-0.09198290232326195
-0.05176542266961417
0.05474055791509778
0.13667580770175564
0.18062487218284612
0.24050418261065762
0.4461934696442293
0.9488582551396916
0.39845631507446055
0.13706989020943694
0.05607207760205593
0.0014972932046163068
-0.05478562173643102
-0.09710612038771625
-0.10284989812564765
-0.07210363869000545
-0.03459010420299928
-0.02935009416586494
-0.036164645938012746
-0.04080247652843419
-0.04319971819792186
-0.0832045340282793
-0.398836025713344
-0.9537635825953498
-0.5502809400241037
0.0
