# vtk DataFile Version 2.0
Vessel Segment
ASCII
DATASET POLYDATA
POINTS 76 float
-4.449214023379252 17.06249670833738 -4.844937287106331
-4.7698305929300835 16.27669024338173 -4.8074608180362635
-5.176516634295761 15.443558663629624 -4.695873859507875
-5.64743222808311 14.614291635821923 -4.534276424743105
-6.162892172451892 13.80866569641438 -4.360531876332601
-6.708762805708113 13.019019178368328 -4.227248439746918
-7.268259398589841 12.240135609235443 -4.206898020760003
-7.80995075782713 11.493335670665793 -4.367896951649573
-8.284748440887881 10.813505084299427 -4.769045197637022
-8.629635126749912 10.216534921517432 -5.375488792435353
-8.858047485345017 9.647063947344487 -6.07358898183741
-8.970683639208161 9.079185825856205 -6.818551286633236
-8.957858545338045 8.516725939586767 -7.5875704968787225
-8.816947393358125 7.9661869897631465 -8.35951332121152
-8.551706709147593 7.4363124890630425 -9.121291475777687
-8.174657370293668 6.93219371862288 -9.868902120515227
-7.700975876154054 6.450971072273899 -10.584645991780922
-7.1584053310452465 5.98276959980338 -11.2312282490558
-6.57595256976051 5.505443123586631 -11.773735149102261
-5.993795384418703 5.010285982597542 -12.137886469506645
-5.460517044455434 4.524076117848725 -12.264355665688166
-5.014228732845636 4.070158159652013 -12.131367874499265
-4.701555885345499 3.680835140200714 -11.731269067449585
-4.561771230138163 3.411872333918066 -11.097742205287243
-4.582240561387884 3.2823223061175466 -10.323901304853864
-4.728712678097946 3.2824233939442773 -9.492656489661737
-4.951300599751834 3.386748496541644 -8.65295320691195
-5.203305177921089 3.559406737002794 -7.820373456502912
-5.44174923438991 3.7500724441259017 -6.989867934318623
-5.633323071424724 3.896430888148985 -6.15771473171555
-5.760199961543739 3.9478587469542457 -5.333825077473134
-5.820243662381983 3.8803052284911277 -4.53161569856225
-5.8154167375873005 3.680580691127256 -3.7622076790014227
-5.750180120746002 3.3373970951588987 -3.032523435770754
-5.632520224490758 2.846746066071362 -2.3587583846600158
-5.467359916039011 2.225120210771202 -1.7626978386547778
-5.260624425143842 1.5008325251530645 -1.2608780058935034
-5.022614876173164 0.7065229319653884 -0.8562286189789863
-4.75959898228501 -0.12663743228319943 -0.5365704007928429
-4.4718243539242355 -0.9747810208478178 -0.28552855692992757
-4.156337818942161 -1.820872955150352 -0.08692178813415986
-3.80746619040519 -2.6548085761376536 0.07682451987674366
-3.4196361424856554 -3.4698751083923955 0.22583181331306051
-2.9848447602682695 -4.257500157592355 0.38386228856770466
-2.491772241451603 -5.004344791252619 0.5715924473171339
-1.932100285426081 -5.692149312387133 0.8028559509300883
-1.303427695264627 -6.301169303943778 1.0875298644469735
-0.6106410321725672 -6.814266743951224 1.430609717370382
0.13238457361268977 -7.222263153655902 1.8295501485359447
0.9084172413367648 -7.527297314421419 2.2732324491809166
1.7076405315627208 -7.736990935260532 2.7454119320798127
2.527659984805707 -7.8568522775477705 3.2303459096876685
3.365222145265785 -7.889547839765205 3.717934025376807
4.212540381194819 -7.837864090595357 4.205196298700418
5.059669761377237 -7.709925824267722 4.694885300547848
5.8979413686599695 -7.521968849293752 5.1935227597378715
6.7215135375936175 -7.295038194588475 5.708956402186965
7.527547943232954 -7.051194184231708 6.247254311805691
8.316510250893689 -6.813575897020413 6.811286119315476
9.091024497457134 -6.606366688570135 7.400436539268641
9.851629477715184 -6.451688818297757 8.010370718686595
10.593531987767028 -6.366516851876613 8.63361175395366
11.308367718946931 -6.363096295210716 9.26230026448042
11.985135920616054 -6.451576910771901 9.89224785529211
12.608353849016313 -6.63920243093189 10.524193344866102
13.157670896466556 -6.927296918824239 11.160587632856313
13.615775087563083 -7.308906905471181 11.79955407800678
13.981132708260372 -7.773810314476949 12.434500562386205
14.259823836835075 -8.316133694918758 13.059183586134155
14.455898815561675 -8.92977307805029 13.665672910993036
14.578234505585993 -9.60345399815326 14.244895729061067
14.643843555960641 -10.322392315644626 14.791296190220507
14.674597687719029 -11.071521087499878 15.307219080660639
14.69638590344455 -11.837614784389299 15.800778829995783
14.735120352382555 -12.600714430511722 16.275053630780985
14.798211606627314 -13.336092127176647 16.717943665374616
LINES 1 77
76 0 1 2 3 4 5 6 7 8 9 10 11 12 13 14 15 16 17 18 19 20 21 22 23 24 25 26 27 28 29 30 31 32 33 34 35 36 37 38 39 40 41 42 43 44 45 46 47 48 49 50 51 52 53 54 55 56 57 58 59 60 61 62 63 64 65 66 67 68 69 70 71 72 73 74 75
POINT_DATA 76
SCALARS MaximumInscribedSphereRadius float
LOOKUP_TABLE default
1.2
1.2106666666666666
1.2213333333333334
1.232
1.2426666666666666
1.2533333333333334
1.264
1.2746666666666666
1.2853333333333332
1.296
1.3066666666666666
1.3173333333333332
1.3279999999999998
1.3386666666666667
1.3493333333333333
1.3599999999999999
1.3706666666666667
1.3813333333333333
1.392
1.4026666666666667
1.4133333333333333
1.424
1.4346666666666668
1.4453333333333334
1.456
1.4666666666666668
1.4773333333333334
1.488
1.4986666666666666
1.5093333333333332
1.52
1.5306666666666666
1.5413333333333332
1.552
1.5626666666666666
1.5733333333333333
1.584
1.5946666666666667
1.6053333333333333
1.616
1.6266666666666667
1.6373333333333333
1.6480000000000001
1.6586666666666667
1.6693333333333333
1.68
1.6906666666666668
1.7013333333333334
1.712
1.7226666666666666
1.7333333333333334
1.744
1.7546666666666666
1.7653333333333334
1.776
1.7866666666666666
1.7973333333333334
1.808
1.8186666666666667
1.8293333333333335
1.84
1.8506666666666667
1.8613333333333335
1.8719999999999999
1.8826666666666667
1.8933333333333335
1.904
1.9146666666666667
1.9253333333333333
1.936
1.9466666666666668
1.9573333333333334
1.968
1.9786666666666668
1.9893333333333334
2.0
SCALARS Curvature float
LOOKUP_TABLE default
0.0
0.09764887241925324
0.07782498498944475
0.054447906143091356
0.056427729070035425
0.12349889513575268
0.20781943943295175
0.29426956209070565
0.29309169013253195
0.17071061571967966
0.13721755469431374
0.1385452562323791
0.1382741341178405
0.1340093623595253
0.11881564194919383
0.10657785759959208
0.10426294062313657
0.12405259972339205
0.22816668287365388
0.40149213537338135
0.570260398253926
0.6234433470380041
0.5229465262197133
0.34949819990554243
0.2378008417298656
0.15933579312515933
0.09282798993715423
0.028821573381624915
0.08298816527465702
0.1601576418015788
0.20744215409438954
0.23426091979082986
0.23660458226462794
0.2206531208341415
0.19490725136249404
0.16924976732343958
0.14127863346388678
0.11035651939542261
0.08580107735577733
0.06917477854291831
0.05866093540248209
0.05448735432857695
0.06598253793757651
0.0917920713121747
0.11711417806048494
0.13723030745051654
0.14789849403310568
0.14475613465967818
0.12936968219116596
0.11148786922974473
0.09964593156624935
0.093223592591797
0.08743540320026154
0.07738373576372777
0.061494088045822876
0.04476002185120354
0.0333574426984742
0.0315826804573702
0.0423196572111922
0.059305643032846224
0.07620346820434612
0.09307308637098236
0.11290254742331089
0.13491673702428375
0.15623557788142148
0.16929537452916033
0.1641482786108088
0.15096977295226005
0.1384171506569588
0.12047912183753316
0.09575412455205719
0.0661854490954674
0.035369488772978526
0.028309927253596063
0.04045037389662138
0.0
SCALARS Torsion float
LOOKUP_TABLE default
0.0
0.0
0.21399238205990823
0.540944781909193
0.7096345392767017
0.24559137416236004
0.08454389025552692
0.06425846365386746
0.18489564597641125
0.538190802196033
0.3741543942603197
0.09688958567201456
0.06075008728291511
0.0029545000023630877
-0.027360919565411056
0.11878718063200688
0.3204841986761473
0.3721675819466962
0.195373594325992
0.042986511245784786
0.03566691292798626
0.037798295860550606
-0.03629429607263399
-0.05462545252222423
-0.05533865251404418
-0.17074115191909617
-0.35843807187027754
-0.9959438520187708
-0.39087629404098645
-0.15069490737859487
-0.09814162496120525
-0.07013100582046111
-0.06939541142496637
-0.07338485114645944
-0.0065162166571898356
0.017791938420062527
0.004569687646044198
0.06942731162868772
0.18113490371693533
0.2899686539445838
0.40694659179204784
0.4811965831317625
0.40868772102244655
0.18530508465623474
0.06874591993687897
0.04284745338320274
0.03437243391476371
0.03130977393687245
0.0054051080436326275
-0.0778254706252744
-0.13811930105629702
-0.08530710350750159
0.014015337160261723
0.10116805213109566
0.21028466565694195
0.39378038544553895
0.578937957889013
0.6057109733658704
0.40615289049692144
0.2172717946797874
0.10614765057862224
0.043854089122204905
-0.013203302523639507
-0.07417326904033467
-0.11380354421055716
-0.09839891278430893
-0.01589664229850446
0.0443888761350449
0.048216031934402326
0.07136361181506806
0.1250579719469704
0.20523756672180943
0.6439271189138913
0.8668339893808736
0.23262944217389747
0.0
