# vtk DataFile Version 2.0
Vessel Segment
ASCII
DATASET POLYDATA
POINTS 76 float
-5.329960306943842 17.087818906583898 -4.631519287362651
-5.702973256858085 16.206331822394404 -4.693014573968168
-6.144297371459005 15.276255308255557 -4.638667041879995
-6.622437091503063 14.350065082672367 -4.545585175624526
-7.118280602809237 13.442699286365972 -4.495797065489783
-7.6101074182858675 12.548137967870149 -4.563595786020324
-8.047365937894744 11.668154258005025 -4.850488930698848
-8.358359694019402 10.849907821614536 -5.390226844457905
-8.502988354257395 10.103355673282083 -6.112891303391786
-8.464016460815033 9.4383976582953 -6.959501794383487
-8.253423807442552 8.841268616218892 -7.847989819991096
-7.889701910572704 8.297676073713758 -8.721152755348696
-7.3936003822238545 7.801372969909917 -9.549284940164824
-6.791825353039297 7.344029963500508 -10.332687811677545
-6.116257725321578 6.9130257351668005 -11.073852164163315
-5.404102321201445 6.482074306271881 -11.763698867899171
-4.685442180801878 6.0085074300478984 -12.358930251302544
-4.021571372103332 5.45855860653765 -12.73991734699223
-3.4944532478761468 4.855109933330236 -12.826722669202308
-3.1790780057547994 4.251501915238343 -12.510705881457602
-3.1497572127876596 3.7616782336380794 -11.762360225196284
-3.416185760519801 3.456172281937135 -10.703860363776906
-3.944194223982775 3.3731325805011805 -9.494709901681157
-4.654775369207534 3.508999887141231 -8.295730399399266
-5.441790803183221 3.818314999349254 -7.205797454553101
-6.2212073780697414 4.247903042041712 -6.247814095288055
-6.932467956898367 4.7497817107780556 -5.411477529323144
-7.521944231916387 5.258889252871492 -4.659857412166372
-7.952963266918907 5.705980883794587 -3.9247762838912865
-8.202248776215518 6.019321782138727 -3.1527870251351695
-8.242253190446013 6.122050413582981 -2.344608132540644
-8.088857698184476 5.978805801771947 -1.5590513134202877
-7.784116151189203 5.587753363314238 -0.8584475378614228
-7.374464651077414 4.975331690501217 -0.27909434144047335
-6.901247406479004 4.19370947950893 0.16269194280081736
-6.3866065612640925 3.3053401519504453 0.46321401975096693
-5.846607683403987 2.3565440938134556 0.6060518168625281
-5.320080929375565 1.380511972124426 0.5788951114924079
-4.831472801542018 0.39536016516491795 0.4105947212302439
-4.386745498229095 -0.5911699335225966 0.1313842741622323
-3.981239937209597 -1.5674144347625656 -0.22313347750002874
-3.5899194322833465 -2.5279073097174787 -0.593687949579455
-3.1905318977035213 -3.47456059772524 -0.9176433545216747
-2.771502523530415 -4.4051631394079385 -1.1343413118166223
-2.3215461857781783 -5.306766625710869 -1.2011508763325014
-1.8278318355249557 -6.155014782501517 -1.1057980993452987
-1.2757470795873833 -6.920473070828675 -0.8578325424360939
-0.6539358116609018 -7.573733254454506 -0.47826374312406367
0.03501012958993494 -8.09313962376432 0.008904534630746907
0.7745496050739699 -8.472818633705185 0.5789230662537366
1.5508166111498096 -8.719956760671824 1.202755099430607
2.3595578583441785 -8.847165805653125 1.8488822496700337
3.1952462713459635 -8.869132733113107 2.4941797283699323
4.045490206104458 -8.798250900713667 3.131300204056853
4.896096415278107 -8.640678398817174 3.7635829862478563
5.736453118215652 -8.401831977459794 4.395390527552767
6.561040350850296 -8.094117411550776 5.029974996254963
7.368608991701248 -7.738109027619384 5.66990683548143
8.162340874916161 -7.360727484091828 6.315896327966083
8.94893383863103 -6.991613270486596 6.967758907358253
9.73185774958357 -6.658557966901363 7.625954627583378
10.50817540806561 -6.384900924404461 8.290500857810592
11.274153881816654 -6.190203119154406 8.960493217012926
12.026049733613998 -6.095996465273674 9.637021504090658
12.750982582770833 -6.1297584952080815 10.32397681699741
13.41925142335899 -6.319083737444083 11.021847753041982
13.993234703450092 -6.6758541987893425 11.718997634758578
14.451904554178618 -7.189275991384419 12.39579332361093
14.788250607556956 -7.838955204075422 13.040063765903247
14.994631205318363 -8.599561124705293 13.64514781945298
15.075052616498693 -9.435626418651971 14.206510538974104
15.062308727779163 -10.310388432828331 14.726591050610878
14.99817828032401 -11.200797885140586 15.216803854771324
14.920031131719323 -12.090263333436639 15.690106614091558
14.865118219499013 -12.958904627854121 16.154035263646062
14.84915995861762 -13.791958019668849 16.604321689877047
LINES 1 77
76 0 1 2 3 4 5 6 7 8 9 10 11 12 13 14 15 16 17 18 19 20 21 22 23 24 25 26 27 28 29 30 31 32 33 34 35 36 37 38 39 40 41 42 43 44 45 46 47 48 49 50 51 52 53 54 55 56 57 58 59 60 61 62 63 64 65 66 67 68 69 70 71 72 73 74 75
POINT_DATA 76
SCALARS MaximumInscribedSphereRadius float
LOOKUP_TABLE default
1.2
1.2106666666666666
1.2213333333333334
1.232
1.2426666666666666
1.2533333333333334
1.264
1.2746666666666666
1.2853333333333332
1.296
1.3066666666666666
1.3173333333333332
1.3279999999999998
1.3386666666666667
1.3493333333333333
1.3599999999999999
1.3706666666666667
1.3813333333333333
1.392
1.4026666666666667
1.4133333333333333
1.424
1.4346666666666668
1.4453333333333334
1.456
1.4666666666666668
1.4773333333333334
1.488
1.4986666666666666
1.5093333333333332
1.52
1.5306666666666666
1.5413333333333332
1.552
1.5626666666666666
1.5733333333333333
1.584
1.5946666666666667
1.6053333333333333
1.616
1.6266666666666667
1.6373333333333333
1.6480000000000001
1.6586666666666667
1.6693333333333333
1.68
1.6906666666666668
1.7013333333333334
1.712
1.7226666666666666
1.7333333333333334
1.744
1.7546666666666666
1.7653333333333334
1.776
1.7866666666666666
1.7973333333333334
1.808
1.8186666666666667
1.8293333333333335
1.84
1.8506666666666667
1.8613333333333335
1.8719999999999999
1.8826666666666667
1.8933333333333335
1.904
1.9146666666666667
1.9253333333333333
1.936
1.9466666666666668
1.9573333333333334
1.968
1.9786666666666668
1.9893333333333334
2.0
SCALARS Curvature float
LOOKUP_TABLE default
0.0
0.1115659835550188
0.046417994485983716
0.04606176335349896
0.1124736758455248
0.21130618878410273
0.2637631692787493
0.22517876313918636
0.1955507550896484
0.15567292956029172
0.13568108078494484
0.12457032482556708
0.10157286975720811
0.07436459516053907
0.05336137844363128
0.09064357296284864
0.24232136408756455
0.4546687292975404
0.6609782391176503
0.5043795527407083
0.26521947831210047
0.1685848319657829
0.13438861116522152
0.11438879975378591
0.0977795970404695
0.08593980381950958
0.07248512828792539
0.13820192912024024
0.28106662517361475
0.42155162120641304
0.4352317277788845
0.37040146197156554
0.27472147372890005
0.19542101161665132
0.1460055686767468
0.13526302622198652
0.1383203374403971
0.11732715469031117
0.09477683490365478
0.06868915128457438
0.01893124079160155
0.03744674477162182
0.09744471280335205
0.15006584316674992
0.1790870621441274
0.18989647367546605
0.19119134453155123
0.18331919694953663
0.16312513372190998
0.13676311322678616
0.1133796644174202
0.09567589378034297
0.08223155542326674
0.07496075019578324
0.06985875871160573
0.059477878221249225
0.04296827727146292
0.021981162562615033
0.009809238276060976
0.030601489465085868
0.05166139474778908
0.07209961728563288
0.09709665561786118
0.13038540229405368
0.16949597117570633
0.2009841116977242
0.20628035194345107
0.19122962595201856
0.1724456006906059
0.14649800334064422
0.10406102661361229
0.059134458751992726
0.020172231515574665
0.022594992469835252
0.043036348792615066
0.0
SCALARS Torsion float
LOOKUP_TABLE default
0.0
0.0
0.6937416807551957
0.7394679961643648
0.19264220625214523
0.10409616690789594
0.08621886527979603
0.19820709284921206
0.1378577222346314
0.24836778901454826
0.22385414389952907
0.12120993935839493
0.03604062658664667
0.09397840829993717
0.5141990754062148
0.3516573642936108
0.07993956698568094
0.04248231385787865
-0.05307597253044513
-0.04928872857746567
0.02296909350949187
0.02295044845384131
0.007150961648381218
-0.05268302540644869
-0.14742428371340657
-0.28866781956038545
-0.7234764799312802
-0.5352684001116652
-0.25247294615714266
-0.13872340068562003
-0.12700558653982233
-0.13030581215857454
-0.10211442413678376
-0.05083424714703111
0.05843134751763557
0.0517936773015917
-0.08541917040272229
-0.121029677636514
-0.08502838392388688
-0.037025218130075345
0.23411312421619399
-0.007620881822998082
0.023755048990180484
-0.027138156315906107
-0.09593486158785544
-0.15312928497234804
-0.1660026195323967
-0.11123742482965147
-0.048726823578108994
-0.08056130249700728
-0.17106179181708456
-0.15052181278462812
-0.0033652951290316646
0.11754464969915564
0.11491266254276139
0.10152690101812882
0.14874550176527837
0.4044774790811928
0.9682618663553922
0.19195081867514474
0.025531263527426684
0.010620348779102106
-0.002565464874101999
-0.04526873703483776
-0.07206375439403041
-0.06073481311784471
-0.017417828978564386
-0.01935248663234769
-0.05874040910946562
-0.06737373734274871
-0.012698053823953184
0.0755209048114968
0.521685278729809
0.5503780293311235
0.03466547077771842
0.0
