# vtk DataFile Version 2.0
Vessel Segment
ASCII
DATASET POLYDATA
POINTS 76 float
-4.515955434519067 17.135598971319673 -3.961551052768572
-4.924705171239221 16.340931504573273 -3.944441310890927
-5.365544379356051 15.47418976570697 -3.8581337081999623
-5.831710011675302 14.592525508427682 -3.7245288517116295
-6.317908177355278 13.718931234319758 -3.5844567745141007
-6.8185565760869515 12.859202314017347 -3.503637530829405
-7.3184588820463885 12.020997889087742 -3.5546039624108348
-7.784489958982083 11.22729432244906 -3.8045369868914047
-8.168250476445508 10.525327968360335 -4.299586318446804
-8.443567508489885 9.91680422107234 -4.968422311807708
-8.600920749013572 9.356265269888024 -5.730299601650246
-8.636988398605196 8.812054828702848 -6.53329352654726
-8.549574757252126 8.275953551360692 -7.348833138712951
-8.326174232263746 7.760590240664431 -8.166007432598768
-7.966062754457394 7.281737438359532 -8.962306284876925
-7.481647857744692 6.84455589949623 -9.728959879615477
-6.892746199435916 6.439661575141503 -10.462466106900234
-6.23699450781343 6.035890003095625 -11.138122072264165
-5.560818054639163 5.606685921390617 -11.7269032727572
-4.8992379876287275 5.121511022731404 -12.181505788413121
-4.303472385728072 4.579355542311368 -12.427583268001834
-3.8371719324326397 4.005622274270923 -12.404539752900089
-3.552776337817405 3.4677123404878776 -12.096792676360165
-3.464548879889865 3.0491335683434144 -11.547362271395311
-3.5600051054282407 2.7922817126708845 -10.831771648444223
-3.813221897876766 2.7035950051003628 -10.03117195979944
-4.173586474879957 2.763118470633619 -9.205986405027783
-4.596101432599461 2.9454040446583916 -8.378909931764817
-5.035764843338121 3.2099988504429278 -7.551767116772976
-5.444145986510224 3.4966556632691823 -6.7086723358251925
-5.77438152188268 3.7378145031668737 -5.8348373037877606
-6.001173920810779 3.8821631485798846 -4.937714759407422
-6.117408890430422 3.8907588814855685 -4.0381700803593725
-6.1264582103872565 3.73546022048182 -3.162305561012977
-6.037568026681507 3.4064849712871346 -2.342059954980255
-5.859704436985707 2.9161378318893707 -1.6104548153761877
-5.610243965132316 2.289184830661648 -0.9988721918685165
-5.320334733654547 1.5592822951925185 -0.5247550980931454
-5.016521131553545 0.7612299759889084 -0.18124275772463644
-4.714791653796176 -0.07779013078711271 0.04926925921635193
-4.41888901554146 -0.9391951517652868 0.19160213849248367
-4.1192909058169755 -1.814503208357439 0.27404482985956485
-3.8114911696296514 -2.7015145655299264 0.32679682690894224
-3.489622305995809 -3.5971256805400986 0.39465976421639354
-3.136379063774371 -4.491657090952505 0.5173006202731097
-2.7345358698209847 -5.3680613980708225 0.7103447723973247
-2.2689944387658847 -6.204851193334481 0.9763878575191453
-1.7282480720447855 -6.977258232151342 1.3114097457126779
-1.1110777841519315 -7.662494238349726 1.7090213980849482
-0.4272421445703023 -8.24383120090295 2.161541984785563
0.3117093789326881 -8.709646614214188 2.6532230692178405
1.1002201771527023 -9.057038521339985 3.1599154574697925
1.9355550940938924 -9.289656935094209 3.6653199790299666
2.8068143673721018 -9.408726487666382 4.1671894560988125
3.6942482670882946 -9.416993478494776 4.669897356015035
4.578124258131824 -9.324548498445258 5.178609574799192
5.446308418963738 -9.147303183880162 5.696830654851977
6.295194226514901 -8.903206717509235 6.2254899973371405
7.127130333012006 -8.61125098909116 6.763033550817488
7.947952501199892 -8.290628047866976 7.306959222852221
8.764104713459485 -7.9588283188048905 7.855452504280309
9.579959262077535 -7.631140451830518 8.408515063971805
10.395856481436661 -7.322506198044339 8.969289224928685
11.208232853228116 -7.049387598232731 9.54405576494201
12.011402965393282 -6.8302648955199095 10.140110409763874
12.798309086124648 -6.685585792238174 10.762618671365697
13.557776861050055 -6.636838436700273 11.410921969439089
14.273285457455605 -6.700224655295297 12.075846476054908
14.928015137487321 -6.88349548932436 12.744422281144265
15.503916876405679 -7.190332381479865 13.404221820038552
15.985891881147936 -7.619956109819916 14.041711449170407
16.369999025205068 -8.164497899212781 14.643109084142456
16.660273036747434 -8.807440155818247 15.202521973037202
16.8671226597105 -9.522490091844364 15.727749079304353
17.005448384201078 -10.274104861899946 16.233883752024994
17.092612909385107 -11.023728680678165 16.724288762145225
LINES 1 77
76 0 1 2 3 4 5 6 7 8 9 10 11 12 13 14 15 16 17 18 19 20 21 22 23 24 25 26 27 28 29 30 31 32 33 34 35 36 37 38 39 40 41 42 43 44 45 46 47 48 49 50 51 52 53 54 55 56 57 58 59 60 61 62 63 64 65 66 67 68 69 70 71 72 73 74 75
POINT_DATA 76
SCALARS MaximumInscribedSphereRadius float
LOOKUP_TABLE default
1.2
1.2106666666666666
1.2213333333333334
1.232
1.2426666666666666
1.2533333333333334
1.264
1.2746666666666666
1.2853333333333332
1.296
1.3066666666666666
1.3173333333333332
1.3279999999999998
1.3386666666666667
1.3493333333333333
1.3599999999999999
1.3706666666666667
1.3813333333333333
1.392
1.4026666666666667
1.4133333333333333
1.424
1.4346666666666668
1.4453333333333334
1.456
1.4666666666666668
1.4773333333333334
1.488
1.4986666666666666
1.5093333333333332
1.52
1.5306666666666666
1.5413333333333332
1.552
1.5626666666666666
1.5733333333333333
1.584
1.5946666666666667
1.6053333333333333
1.616
1.6266666666666667
1.6373333333333333
1.6480000000000001
1.6586666666666667
1.6693333333333333
1.68
1.6906666666666668
1.7013333333333334
1.712
1.7226666666666666
1.7333333333333334
1.744
1.7546666666666666
1.7653333333333334
1.776
1.7866666666666666
1.7973333333333334
1.808
1.8186666666666667
1.8293333333333335
1.84
1.8506666666666667
1.8613333333333335
1.8719999999999999
1.8826666666666667
1.8933333333333335
1.904
1.9146666666666667
1.9253333333333333
1.936
1.9466666666666668
1.9573333333333334
1.968
1.9786666666666668
1.9893333333333334
2.0
SCALARS Curvature float
LOOKUP_TABLE default
0.0
0.06506317983818846
0.04560049594553289
0.02183898531870788
0.06197031683662568
0.13835748665869835
0.2233768191174347
0.29903426741634187
0.24451377065402802
0.16750408137401301
0.1344798954523119
0.12762541747353032
0.13736187275443276
0.14224727507324034
0.13051614263371608
0.10621348194164941
0.08394577902284363
0.08973694863150664
0.15621052208672068
0.2935846954763458
0.49419345167247913
0.6223672863227149
0.578081272238606
0.428067117446147
0.298676914295146
0.2041084339341566
0.14080630690296428
0.08263585513941246
0.042537562217722216
0.10165998458898226
0.1610399634971758
0.20908923527763007
0.24418086108676998
0.25503433145348936
0.24479240951105927
0.22816339067919922
0.2048214290748457
0.17204025089165528
0.14046391694302118
0.10667272051576726
0.07051503403999332
0.03466333848292171
0.0192515558026225
0.06448556869413676
0.08838187725093016
0.1043394690198302
0.11912233150935121
0.1293335739149378
0.13257261524385408
0.13229443497230617
0.12852382329099354
0.12190153160096494
0.11469200643830622
0.10643960908079364
0.09560068590689348
0.08194717562609102
0.06611239263299659
0.04811642437921578
0.02909926019000595
0.01182546367815493
0.005642626098976074
0.01906263394244371
0.03574738444776013
0.055665245056001386
0.07803349954008948
0.10237807992770995
0.12544312094988277
0.1457668945821938
0.16808540769284366
0.18727279063036356
0.1902179458977244
0.1729577919334611
0.1365514261083677
0.09429087145664297
0.06332559931135201
0.0
SCALARS Torsion float
LOOKUP_TABLE default
0.0
0.0
0.48160990590706315
0.9323743776122616
0.34551405969499893
0.11348909505278981
0.07352382104478516
0.04722736361610042
0.15783868105399548
0.43382083251840275
0.4085476646204704
0.18709337101227466
-0.01987344679115416
-0.00259990117150485
-0.008243567657592172
0.06957505474861563
0.4652386231227752
0.47763861148702885
0.209552887355759
0.04408080988954055
0.0234064464136914
-0.03720825223642636
-0.10694068549699177
-0.05066649836880854
0.006713115386087307
-0.07274628700659791
-0.1609736012621293
-0.39432979501196447
-0.9507620087214548
-0.35815938636141775
-0.15611829039807937
-0.13175929987750354
-0.1166142331678345
-0.08532751352137256
-0.028793561543585852
-0.04133645627933255
-0.10275875192860782
-0.10349151976771545
-0.08192274619148804
-0.01644547629421353
0.19673233451280128
0.2956511458984381
0.8510901518518671
0.036963942384632964
-0.0935918192017896
-0.11879008816346863
-0.10631190727080561
-0.05530170293618278
-0.010715245155865083
-0.05024461808336585
-0.13540134223232098
-0.10860027464583383
0.025088902905724658
0.11698736237745594
0.14363602548820487
0.13118243207862681
0.0988988944763841
0.06730933573478014
0.06661592145134297
0.33507974225831244
0.9562922230842898
0.1084279541157861
-0.026601414591205297
-0.02621145469506041
-0.001785659822165983
0.013406447241626492
0.015260885311299474
0.009820569381001561
-0.008825041694495966
-0.0008889005985704707
0.03292904303351719
0.011631424881318398
-0.08309863515825634
-0.2759449395320253
-0.38005144627463017
0.0
