# vtk DataFile Version 2.0
Vessel Segment
ASCII
DATASET POLYDATA
POINTS 76 float
-3.94807813979481 17.041482083638833 -5.538056177969131
-4.304723820480288 16.38921815283998 -5.444657864165088
-4.729183906584281 15.67309191658053 -5.307558944563504
-5.202291870462358 14.935797001424314 -5.143142487421845
-5.706966820028234 14.211699758677248 -4.9675924108746505
-6.239189481257532 13.506695800215521 -4.820306838832552
-6.797596270301363 12.825635922721686 -4.746564308551084
-7.364634117064436 12.174307895848246 -4.813739483586583
-7.893189252582318 11.5773874743731 -5.095607755145314
-8.323405730702174 11.029169118020727 -5.559452248393872
-8.658951682208018 10.486303898080253 -6.116697968286929
-8.899377112558103 9.927551449217276 -6.737529247644197
-9.03180775062852 9.355778767257267 -7.4013147489411555
-9.03843682794495 8.784450065750015 -8.085779236068555
-8.909243151416934 8.227413979424682 -8.764658753813196
-8.64564059358235 7.697022901178804 -9.42088524667944
-8.268751360958932 7.20294773550285 -10.044048829263895
-7.8049277651666955 6.7335359287627785 -10.633084016564569
-7.276483841721106 6.257417680497729 -11.167312543602202
-6.717908641676561 5.765668668193615 -11.593935064659208
-6.162661076660551 5.2577792439494235 -11.877131345106534
-5.641097943525759 4.738944113028917 -11.976117911397468
-5.184266712652708 4.230885405535001 -11.845085822367594
-4.827042628161953 3.789435544295347 -11.463777239434412
-4.585493328491008 3.4471619244014726 -10.879798108719944
-4.459221750756475 3.204011848589234 -10.164282379527865
-4.42796844921487 3.0373456885977386 -9.370405351436355
-4.472015361420412 2.9247283293556556 -8.534825463666792
-4.567356559190245 2.8374655426529536 -7.690718043741143
-4.686573350110962 2.737679627965609 -6.85836083202733
-4.810420001340953 2.5973730465796643 -6.048989038970634
-4.92291494182957 2.4006525266929772 -5.263828901676789
-5.011217771852456 2.1349784025799634 -4.5044270050169954
-5.0690808102100595 1.789978005295655 -3.7748666805371007
-5.093783676661273 1.3564967024019392 -3.0817150284909154
-5.08322601055722 0.832546096118405 -2.4331673841820995
-5.035404300842879 0.2282072273941363 -1.828905755661524
-4.943171933918014 -0.43940683315895546 -1.2615888094639018
-4.802483187539285 -1.1487814156458842 -0.7274623725138126
-4.6115375979310755 -1.878163246319145 -0.21951089843546617
-4.367282300952317 -2.6117588263945053 0.26860316551205354
-4.068704756628464 -3.3383978193591064 0.734864973850682
-3.7147818024323946 -4.047626802043802 1.1747902011717293
-3.300800279702776 -4.729105448195401 1.5863942664402602
-2.8199803464262896 -5.372379018977068 1.9703609159643658
-2.2697637680606566 -5.966202886690668 2.330838182014739
-1.6547923856658564 -6.499390718264761 2.677371180890278
-0.9852685498773452 -6.962857783810101 3.022169273489225
-0.27304089352036925 -7.351030161957829 3.375420456190729
0.4717647485432031 -7.660339781483859 3.742630104391195
1.2405036062092885 -7.88770822504936 4.123066348017555
2.0274086943831082 -8.034147850825805 4.509647219905552
2.831696676471306 -8.104547134459771 4.895178802920212
3.650592189079689 -8.102823835938382 5.277235875484246
4.47574424658208 -8.035643513824237 5.658058359282316
5.297017501189808 -7.91459538172073 6.044405919241586
6.10672880056823 -7.753005234041939 6.443640425126979
6.901296103010229 -7.564128815421904 6.860245147859594
7.680763351654077 -7.362136023709647 7.2956784650555555
8.447424631897707 -7.162768194636358 7.7485001671050275
9.204943281580915 -6.98198630559253 8.21478600060982
9.955570075668971 -6.834997075281651 8.690379346482096
10.69618525093604 -6.737050529892885 9.172972300633056
11.418361871560577 -6.701709462875497 9.662071127805227
12.111242101678487 -6.737695825587967 10.15846667971624
12.76288660558758 -6.8478841546241584 10.663721635095236
13.362918555353291 -7.031588235044513 11.178661095269916
13.90496763491303 -7.290177041027808 11.702366512502483
14.38273263011705 -7.628217825304632 12.23105635703685
14.791502074818798 -8.047603922031325 12.757747688541047
15.132311815120204 -8.546244664759756 13.27545447979668
15.408478884130034 -9.116142846850051 13.780176768262567
15.626873374977624 -9.741173128910466 14.27342287340178
15.795757705050084 -10.402362616768485 14.759709612656295
15.919053756483015 -11.07039252497966 15.241509644988392
16.007414445689744 -11.706074362178978 15.705286974690068
LINES 1 77
76 0 1 2 3 4 5 6 7 8 9 10 11 12 13 14 15 16 17 18 19 20 21 22 23 24 25 26 27 28 29 30 31 32 33 34 35 36 37 38 39 40 41 42 43 44 45 46 47 48 49 50 51 52 53 54 55 56 57 58 59 60 61 62 63 64 65 66 67 68 69 70 71 72 73 74 75
POINT_DATA 76
SCALARS MaximumInscribedSphereRadius float
LOOKUP_TABLE default
1.2
1.2106666666666666
1.2213333333333334
1.232
1.2426666666666666
1.2533333333333334
1.264
1.2746666666666666
1.2853333333333332
1.296
1.3066666666666666
1.3173333333333332
1.3279999999999998
1.3386666666666667
1.3493333333333333
1.3599999999999999
1.3706666666666667
1.3813333333333333
1.392
1.4026666666666667
1.4133333333333333
1.424
1.4346666666666668
1.4453333333333334
1.456
1.4666666666666668
1.4773333333333334
1.488
1.4986666666666666
1.5093333333333332
1.52
1.5306666666666666
1.5413333333333332
1.552
1.5626666666666666
1.5733333333333333
1.584
1.5946666666666667
1.6053333333333333
1.616
1.6266666666666667
1.6373333333333333
1.6480000000000001
1.6586666666666667
1.6693333333333333
1.68
1.6906666666666668
1.7013333333333334
1.712
1.7226666666666666
1.7333333333333334
1.744
1.7546666666666666
1.7653333333333334
1.776
1.7866666666666666
1.7973333333333334
1.808
1.8186666666666667
1.8293333333333335
1.84
1.8506666666666667
1.8613333333333335
1.8719999999999999
1.8826666666666667
1.8933333333333335
1.904
1.9146666666666667
1.9253333333333333
1.936
1.9466666666666668
1.9573333333333334
1.968
1.9786666666666668
1.9893333333333334
2.0
SCALARS Curvature float
LOOKUP_TABLE default
0.0
0.05400900455157102
0.04395789982395877
0.042908347218285695
0.05445985781210202
0.10365625236587406
0.18981680762067119
0.30414992089060794
0.29323247482189085
0.1811831589781426
0.14683263578647773
0.14465683635983995
0.15797785723838303
0.17157969823159325
0.1756454441818028
0.15797618582423417
0.12220636543743385
0.10639256560004715
0.14844449249404276
0.2101927693023319
0.3206490544971606
0.45738938256242606
0.5265647364799234
0.4355508835151445
0.30905397365199017
0.19939824511362686
0.13148658922426013
0.07757411211892658
0.039914488551651015
0.06424103478385966
0.0916957657985181
0.11756126195244808
0.13651631202823775
0.14858290655164766
0.14909252670651452
0.12913390074880438
0.10360085741291879
0.0851520293096279
0.0711296607503841
0.06759588225228025
0.07052523407469526
0.07715973028270413
0.08879214437584365
0.10277025314499082
0.11208131076700946
0.11418865898019352
0.11263381425677531
0.1104984113349831
0.1094317609969235
0.10905817152514206
0.10465538804904836
0.09647422154481959
0.08879809042490475
0.07812194506156271
0.0642708692684993
0.0522753182053051
0.042461638241284363
0.032747011826755434
0.025920525583974213
0.029492034717601732
0.04330721505055254
0.06256557662368935
0.08385003970210779
0.10359628484046714
0.12024551638151781
0.13428990064409627
0.14797156311164364
0.16300805698469129
0.17001030012498508
0.16249612263657903
0.14385334377471395
0.11430930241981575
0.08520112427284574
0.06644705299432267
0.049315681637953496
0.0
SCALARS Torsion float
LOOKUP_TABLE default
0.0
0.0
0.31327643054580645
0.30006005907922073
0.6241374806804626
0.24141703034019818
0.17154936382026412
0.11368399828872083
0.2821445469346558
0.5591951714683039
0.3352819493122655
0.12521716410171363
0.051367677934307715
0.05541711340068451
0.011019061816478624
-0.017899067690426013
0.12066015404896716
0.5147022717981993
0.32726425726440705
0.1808255894394866
0.08135349932258493
-0.002735687875320761
-0.07909865147971795
-0.03345686336814116
0.05166761036547465
0.08393475506624885
0.1233512623625358
0.3722354754576428
0.9597203601083908
0.5436745481329791
0.2618231642324624
0.13660605360004396
0.028670558871910473
-0.015078371798929471
-0.002329551786370848
0.06102906254424236
0.21377532372850716
0.24194711483209275
0.31894130181923236
0.28307264645202346
0.09790022346462526
0.048064862517112346
0.07476866113322143
0.08862116796398392
0.11367979302443017
0.1720492240774813
0.20891461400998873
0.18744049302252305
0.12279377045131597
0.04134805042534191
-0.052585976791300414
-0.09603822892607128
-0.023095743040675215
0.08704536601963564
0.23180150970231753
0.333170984368763
0.3612278912550075
0.4679205673498512
0.6650422122293055
0.576964457775839
0.287472293722747
0.08133046385986317
-0.016614924406834763
-0.060060027067913725
-0.09110890977207148
-0.08420147252798148
-0.02394915944721878
0.021152828954745052
0.041994651355303
0.05944955483203465
0.02325798609559364
-0.061149751053609466
-0.16735138150930975
-0.43050786070036473
-0.5228439671399839
0.0
