# vtk DataFile Version 2.0
Vessel Segment
ASCII
DATASET POLYDATA
POINTS 76 float
-4.966330660588785 17.160144482410956 -4.72238236330945
-5.201403208322436 16.486186298294502 -4.480048220932796
-5.549170546337538 15.732967531372534 -4.284796197390898
-5.955960514978777 14.964211762236383 -4.1689555107140475
-6.376417469196478 14.201054184459501 -4.1343342903855005
-6.789798469757049 13.437991183002502 -4.209196129177332
-7.170408780645845 12.682647730153235 -4.4262865650128855
-7.481938257002665 11.962373204073426 -4.7926832872863745
-7.708679753550329 11.297783740082867 -5.2959336036020375
-7.8524553096682475 10.697359420603958 -5.924169932107226
-7.927916190315724 10.143219372018306 -6.620822236855387
-7.934266386227862 9.608708258707146 -7.360743373116277
-7.86424739859127 9.084972223059047 -8.115704578407685
-7.729779224914194 8.555306574701923 -8.850509396603492
-7.529519195887333 8.011328302309618 -9.568834954636484
-7.260054075618144 7.459029697470747 -10.273647716484952
-6.9313342193928476 6.89644095098761 -10.950935686734097
-6.568767880560922 6.300432017956281 -11.567615693509447
-6.197742859801901 5.648442267077453 -12.084331528527981
-5.838894979412646 4.912091426544963 -12.431047041931658
-5.558606538516558 4.1728853663641825 -12.479396213667659
-5.385226501526243 3.555753950918893 -12.224107711931456
-5.338915192692269 3.1031875672867675 -11.69719864588932
-5.442808547300961 2.8666412063014204 -10.949487965400687
-5.658708396331485 2.8532402395542262 -10.1123393774153
-5.9127809855785705 3.0015518712409754 -9.27596554326999
-6.152046740114193 3.2450536046098253 -8.458282743297186
-6.344043707520583 3.5347561504783482 -7.657506612004826
-6.465830964602661 3.830067300908212 -6.865395239958644
-6.497878087074044 4.081311646729346 -6.064690793534764
-6.430908321347133 4.227148293172302 -5.243840440527364
-6.267439335821462 4.2009584964217215 -4.407663754148862
-6.019951319230969 3.9450802835010514 -3.5977283724703897
-5.719952475658113 3.4574500949166076 -2.873204697024761
-5.408016606431841 2.795788713788016 -2.2673401741882757
-5.110968317240871 2.034654884357719 -1.769470596607485
-4.8360522941602895 1.226703762260737 -1.3373846435645746
-4.573408163193845 0.39603317297980517 -0.928990213398438
-4.3150960662534885 -0.4459278570397009 -0.5302334695851404
-4.0596450620146625 -1.2894573540815857 -0.14406818809573382
-3.8027890340042005 -2.1276374826211564 0.22607195779233824
-3.5342072042080996 -2.957774447192997 0.5832932335193248
-3.233308010001025 -3.775426599676985 0.9340468327204061
-2.8805771640674 -4.5721558413386365 1.269246155080069
-2.4657605363880144 -5.341914399033869 1.576839464090071
-1.9800025535679722 -6.078184840451293 1.8644573631832142
-1.4146184870109835 -6.764661032986832 2.1514617095113855
-0.7659676801235598 -7.374353294097605 2.4574035374389585
-0.04341401425891441 -7.879033661034375 2.7933530008607947
0.7320197110995378 -8.265441321780404 3.1583087807826553
1.5402798873445727 -8.536804184251773 3.5454582964116796
2.3685707831898153 -8.702051430084182 3.943832770898073
3.209435991524409 -8.772938231727256 4.3394350666794015
4.055029563247591 -8.759913415244293 4.72578965181971
4.896063817083686 -8.668750930688997 5.105785710339243
5.7226145170884335 -8.504089266564087 5.488966790129108
6.525552940130346 -8.273784214985017 5.887718787203908
7.299465327937249 -7.992212204632647 6.311321869917822
8.046577050882004 -7.681164050191099 6.761843160144388
8.775903931024871 -7.366501365893523 7.23630091268694
9.496252344789436 -7.072832762475932 7.730512304637923
10.212240223682649 -6.819164553219158 8.241624938128428
10.925975950155546 -6.620977081659437 8.770465815939199
11.635114207259335 -6.497498316690461 9.32239597022827
12.326112518862775 -6.4720855785816855 9.904987028781065
12.971002083857798 -6.56356722842093 10.523369655661075
13.537105238317949 -6.776773099368473 11.170779417430854
14.011940336211385 -7.102378945496442 11.826898018480584
14.398258591640277 -7.531093228570688 12.473356719653406
14.695497155787532 -8.053439003660161 13.094110317490697
14.908444885242716 -8.655505661675447 13.67624078356079
15.050711544943114 -9.315979749871367 14.21660488737489
15.148649244430095 -10.007737113823657 14.72665050422564
15.23388354660655 -10.711281284175618 15.222876475007123
15.321113732101525 -11.39896968244272 15.71112387451156
15.410198562570217 -12.041496517582605 16.174341940385833
LINES 1 77
76 0 1 2 3 4 5 6 7 8 9 10 11 12 13 14 15 16 17 18 19 20 21 22 23 24 25 26 27 28 29 30 31 32 33 34 35 36 37 38 39 40 41 42 43 44 45 46 47 48 49 50 51 52 53 54 55 56 57 58 59 60 61 62 63 64 65 66 67 68 69 70 71 72 73 74 75
POINT_DATA 76
SCALARS MaximumInscribedSphereRadius float
LOOKUP_TABLE default
1.2
1.2106666666666666
1.2213333333333334
1.232
1.2426666666666666
1.2533333333333334
1.264
1.2746666666666666
1.2853333333333332
1.296
1.3066666666666666
1.3173333333333332
1.3279999999999998
1.3386666666666667
1.3493333333333333
1.3599999999999999
1.3706666666666667
1.3813333333333333
1.392
1.4026666666666667
1.4133333333333333
1.424
1.4346666666666668
1.4453333333333334
1.456
1.4666666666666668
1.4773333333333334
1.488
1.4986666666666666
1.5093333333333332
1.52
1.5306666666666666
1.5413333333333332
1.552
1.5626666666666666
1.5733333333333333
1.584
1.5946666666666667
1.6053333333333333
1.616
1.6266666666666667
1.6373333333333333
1.6480000000000001
1.6586666666666667
1.6693333333333333
1.68
1.6906666666666668
1.7013333333333334
1.712
1.7226666666666666
1.7333333333333334
1.744
1.7546666666666666
1.7653333333333334
1.776
1.7866666666666666
1.7973333333333334
1.808
1.8186666666666667
1.8293333333333335
1.84
1.8506666666666667
1.8613333333333335
1.8719999999999999
1.8826666666666667
1.8933333333333335
1.904
1.9146666666666667
1.9253333333333333
1.936
1.9466666666666668
1.9573333333333334
1.968
1.9786666666666668
1.9893333333333334
2.0
SCALARS Curvature float
LOOKUP_TABLE default
0.0
0.13762722930726376
0.12328654652378603
0.10812114821302439
0.14338540110550319
0.1884626355725734
0.22025040323502867
0.22355858408749035
0.20337393591330727
0.13144632448769544
0.09646039277058864
0.09119603516298258
0.08056767388181957
0.08035337957789192
0.07928000330958984
0.07431712820707656
0.08840175897105819
0.13667989781517476
0.23582963023955728
0.45180800343998506
0.6177939753997551
0.5921133975697798
0.4481617666678689
0.3114231364298135
0.203130780509525
0.1241836798572682
0.08821912049615632
0.09445885600700961
0.1408329338032104
0.2053432995957157
0.26081739639737606
0.29384293515175747
0.2763099325750558
0.22349453620600995
0.15861402361989893
0.09115968298165138
0.03723707653539198
0.01576113387004985
0.013204367300886824
0.014639457930344614
0.01930396230329964
0.039793774864714304
0.0663249121844249
0.08476467916856811
0.09363197693065085
0.10634362210396313
0.12795873696839055
0.1466346180663403
0.1489351239033002
0.13780950111661278
0.12378435941210547
0.1091536188579414
0.09747933525921591
0.09104781615654606
0.08723970298650799
0.08318231559431902
0.07434818702710418
0.05596291624206987
0.035070653991582657
0.03534149815228749
0.05166910043646764
0.07011895256735763
0.09491817195824451
0.12687777783770596
0.1605190056065399
0.18616121969366792
0.18808682735837903
0.17936363309563208
0.1744197500366074
0.16190010291937312
0.13350132714634252
0.08282316721291284
0.029599742898360246
0.006452074028781882
0.015311755554621291
0.0
SCALARS Torsion float
LOOKUP_TABLE default
0.0
0.0
0.29645432639595126
0.3835493340155291
0.19868389262106878
0.10021827969120178
0.10042368493325032
0.041552053531733545
-0.016249975689345136
0.20624959308085772
0.40489227566487435
0.3321108578023044
0.5149265932978037
0.06894253523881289
-0.1100612483575378
0.191327043501676
0.48325693570888084
0.24685821838492678
0.07152818734138153
0.01001379194855255
-0.07158363052370845
0.04629159481812381
0.05766923976259494
-0.027348665838085345
-0.2299313823589406
-0.5251483728810699
-0.7134570650056068
-0.6245063623575734
-0.4269436978072307
-0.2829789308804797
-0.19658816688259179
-0.11852339874489923
-0.08269007610275383
-0.0885053269842061
-0.10808930225824899
-0.21240127929254968
-0.32025848101648235
0.08183657938806294
0.31641768834679096
0.424723387141716
0.4850044380495124
0.24525348416571696
-0.049406866956722306
-0.08565329881990699
0.13498408117640515
0.240463901966681
0.18830078415979684
0.11753452364437848
0.06350590244997462
0.025959384110337783
-0.04127031925003388
-0.11788304826839924
-0.04925936906505163
0.08490840249600376
0.18765848424399548
0.24614032599859786
0.27209471722542
0.3627833616271371
0.717949756497664
0.6930529477949425
0.28698926891582377
0.08935065034104106
-0.004110769914306214
-0.062017061378224804
-0.09902261417647887
-0.08527527702150636
0.012862577158685107
0.08073181570611376
0.05422228789894107
0.05758269008431026
0.038385099768295704
0.018806252236270922
0.5522357582372597
0.9547693922499213
0.038004451730015765
0.0
