# vtk DataFile Version 2.0
Vessel Segment
ASCII
DATASET POLYDATA
POINTS 76 float
-4.137463795325345 15.844773986728292 -3.675133331986508
-4.458535983426994 15.134254473035126 -3.684760028532947
-4.893960760528642 14.34291907531282 -3.676084215085296
-5.40135182109152 13.551511456875861 -3.69232964139055
-5.946304387585918 12.788132888520428 -3.7550390888866283
-6.509967965298778 12.062801510934309 -3.9004659816429377
-7.067866183262413 11.395281279439267 -4.149803638478253
-7.594555356287752 10.802224319056373 -4.55826548211891
-8.042922715452635 10.326146088833413 -5.187022694294762
-8.363891158266373 9.9502022413775 -5.977681604850218
-8.57377902071158 9.607776175061035 -6.8399672659147885
-8.664115689812473 9.282572291375716 -7.739792814887483
-8.617327468939362 8.973022361020734 -8.640209342613483
-8.42399380295758 8.667469410645205 -9.51265688509813
-8.080870995173354 8.356977274356286 -10.337067338371662
-7.609052205512939 8.043872026043099 -11.099137687191764
-7.045489823041581 7.721173883460909 -11.796406218702526
-6.427059629384334 7.3430882913732995 -12.41170131378966
-5.804626103202142 6.8805909719182425 -12.875553518693502
-5.248226433025349 6.349344470881482 -13.09410259964006
-4.82436334486519 5.824421688511281 -13.006657096339222
-4.562632420046217 5.355665102866567 -12.620261528853119
-4.485129268454912 4.9715213780513645 -11.976486833121355
-4.555183787890212 4.695973086764358 -11.17145974879683
-4.742420196069201 4.523236674110629 -10.266147168417705
-5.027425891425647 4.4206454510767195 -9.323150284426717
-5.37260995715884 4.3470736377535735 -8.389792580722508
-5.742806426613774 4.276676565656035 -7.481700550942062
-6.104386780997178 4.1888244648532025 -6.587750900352907
-6.421074371941452 4.047100653805704 -5.690231602182172
-6.667770014699864 3.809242877186316 -4.795581353507127
-6.83002705538563 3.4466142460394265 -3.9282409529259463
-6.900304047104068 2.954021119977674 -3.1304682028697166
-6.889347470750952 2.3745309364647436 -2.4264537602534646
-6.801597238582702 1.7521564729519543 -1.7944989527808661
-6.636277793685965 1.0821384576778963 -1.2146066565167803
-6.402154147115457 0.3562755794336781 -0.6875306167923863
-6.107730193008746 -0.4139974337415341 -0.21614029721887915
-5.759815079855086 -1.2067606741347037 0.19776784462134944
-5.358889551832958 -1.9964636583070758 0.5589624067852413
-4.897150550564676 -2.7637343512819537 0.8711436419278995
-4.367836236454773 -3.497286902963396 1.1246230210853836
-3.778659323327171 -4.19221084625002 1.3110135361838868
-3.1391440689823478 -4.848085861702671 1.4488944609352727
-2.4503991433149275 -5.4619513821517796 1.5670420113382486
-1.7198118714778343 -6.027616477158423 1.683076399492716
-0.9616574934547684 -6.5425545294379095 1.813385342612466
-0.18912024823808002 -7.008250810612847 1.9763179537936097
0.5891307054143711 -7.425755294439995 2.1920409055107983
1.3674158759298305 -7.789740044173992 2.4765551426984658
2.144096361530789 -8.086504292786769 2.8296217757646307
2.923441304553967 -8.299261429195996 3.2352749527768907
3.7104568478037603 -8.413007332073171 3.675983024019586
4.503533635221516 -8.418467173553115 4.139193619515382
5.292594515209149 -8.31986406302868 4.619909940857528
6.066548472315967 -8.138111413700255 5.119759687141475
6.819461270969462 -7.901460507444663 5.64323401434682
7.551122153950331 -7.635752336303892 6.194228694540479
8.264109456310365 -7.365381985119018 6.7733660904755135
8.961497684898289 -7.115528390768395 7.374633297425618
9.645020931057028 -6.906577000654461 7.9855589539489245
10.313106308262471 -6.749260336254299 8.592643364662129
10.962924006521972 -6.64797359735536 9.187589934019337
11.59082359832055 -6.609418826796539 9.770319035706018
12.18806386017785 -6.645426918617354 10.345202080027507
12.74009109880546 -6.765935921583363 10.915044375847334
13.236645178086754 -6.970014466606009 11.478017075879201
13.680829166057253 -7.249864122327644 12.030879694472176
14.081406179619316 -7.599990068243396 12.571030006843369
14.45022583242098 -8.020106020991662 13.09593595452669
14.80205197624006 -8.518139552699285 13.603269680436675
15.141478172337022 -9.102000387898837 14.087856965992637
15.461283186453258 -9.762685143271286 14.544373870511958
15.761054571759232 -10.468365103467182 14.982015012272472
16.047185155980845 -11.163611120580155 15.423686772302515
16.311487765377827 -11.803137091753468 15.87088923789162
LINES 1 77
76 0 1 2 3 4 5 6 7 8 9 10 11 12 13 14 15 16 17 18 19 20 21 22 23 24 25 26 27 28 29 30 31 32 33 34 35 36 37 38 39 40 41 42 43 44 45 46 47 48 49 50 51 52 53 54 55 56 57 58 59 60 61 62 63 64 65 66 67 68 69 70 71 72 73 74 75
POINT_DATA 76
SCALARS MaximumInscribedSphereRadius float
LOOKUP_TABLE default
1.2
1.2106666666666666
1.2213333333333334
1.232
1.2426666666666666
1.2533333333333334
1.264
1.2746666666666666
1.2853333333333332
1.296
1.3066666666666666
1.3173333333333332
1.3279999999999998
1.3386666666666667
1.3493333333333333
1.3599999999999999
1.3706666666666667
1.3813333333333333
1.392
1.4026666666666667
1.4133333333333333
1.424
1.4346666666666668
1.4453333333333334
1.456
1.4666666666666668
1.4773333333333334
1.488
1.4986666666666666
1.5093333333333332
1.52
1.5306666666666666
1.5413333333333332
1.552
1.5626666666666666
1.5733333333333333
1.584
1.5946666666666667
1.6053333333333333
1.616
1.6266666666666667
1.6373333333333333
1.6480000000000001
1.6586666666666667
1.6693333333333333
1.68
1.6906666666666668
1.7013333333333334
1.712
1.7226666666666666
1.7333333333333334
1.744
1.7546666666666666
1.7653333333333334
1.776
1.7866666666666666
1.7973333333333334
1.808
1.8186666666666667
1.8293333333333335
1.84
1.8506666666666667
1.8613333333333335
1.8719999999999999
1.8826666666666667
1.8933333333333335
1.904
1.9146666666666667
1.9253333333333333
1.936
1.9466666666666668
1.9573333333333334
1.968
1.9786666666666668
1.9893333333333334
2.0
SCALARS Curvature float
LOOKUP_TABLE default
0.0
0.07775665328281905
0.07364097759025741
0.07450821271419228
0.10687017569802343
0.14278561911127163
0.2204141623370267
0.3014938742734783
0.2508113656243425
0.14634223030798568
0.13471590050355367
0.1506977392086421
0.16575728144057786
0.17359848051323726
0.15652179116150475
0.12303860375192102
0.12438835325569682
0.205825231068847
0.3780664666067984
0.6125845991101476
0.6475467305383528
0.4664404589787325
0.27674807847627636
0.1739533307817247
0.11428146381118637
0.06699324354453523
0.03388954942285962
0.020321026290334332
0.07559444627970843
0.12883154699211716
0.16642967660621752
0.19404154808199353
0.17914302676101657
0.14115628876099126
0.12683820814680832
0.11395387259551806
0.09866917240424618
0.08731440847186682
0.08160432332454358
0.08996336225316383
0.10786359155717848
0.11256777093477624
0.0930394025269717
0.07771591860361338
0.07341347890112541
0.06916062947705348
0.07173571992019628
0.08635454084076605
0.10599988911403764
0.11707241777365417
0.12050243840143861
0.12601055255974827
0.1292133757535788
0.12018425663135814
0.09669258823533372
0.06963745323847544
0.0490591071658802
0.03685436580946136
0.03717123727266448
0.047848918995023644
0.05834684158595734
0.06766120697502062
0.08392872915585126
0.11177792585979271
0.14405080325152061
0.16188006610758576
0.15716095148418796
0.14455262744387434
0.13074863069514542
0.12003791601199808
0.11416532151158693
0.10098798850340193
0.06264311227478318
0.018389670477057626
0.054652747984401645
0.0
SCALARS Torsion float
LOOKUP_TABLE default
0.0
0.0
0.5581552877411238
0.38977002041339126
0.27035673099827406
0.12946732833564553
0.10663239192589
0.05627426046671543
0.2355572926944667
0.5214596784336021
0.22511773216095388
0.11733006453617312
0.14039776236778806
0.09481856416528071
0.03922382358936964
0.15435047671440394
0.4796657863674239
0.20046003008815055
0.03343346339555597
-0.07815140782289379
-0.036147164799398133
0.045157585435287535
-0.08845819567017137
-0.020625305768638358
0.25032492012923563
0.44727083600671674
0.6668840462604667
0.9399980774661783
0.14007108503601007
-0.053931528451840294
-0.07072262741217615
-0.06048296389339489
0.007965267909793641
0.2924809763365331
0.07724707334665243
-0.12210272347996054
-0.017511913757105063
0.08136248198515926
0.23292541970752062
0.2090457024050903
0.015407306254654779
-0.07185797148962754
0.15176501525865538
0.4186727949612571
0.3045842669278062
0.3325612043338384
0.3618485916816248
0.26032081550612873
0.09774294315621274
-0.08989578411350872
-0.23513006745814657
-0.21538728251404485
-0.11170941510607829
0.015009638481966459
0.1536273638842655
0.3186928589677261
0.4718991360877319
0.6267369270820059
0.6116382162862518
0.3975235566719894
0.22276120860067228
0.09327085412544164
-0.03356077639137009
-0.10265075189453209
-0.11118074615969334
-0.07201450933849071
0.02119423248039909
0.09492239473625022
0.1709782519205784
0.22133791643343245
0.0980783555929214
-0.04367203177028624
-0.19430628524496124
-0.9993240689516778
-0.28471736774402534
0.0
