# vtk DataFile Version 2.0
Vessel Segment
ASCII
DATASET POLYDATA
POINTS 76 float
-4.713236460556011 17.160156648546568 -4.973578835144803
-5.013456659651587 16.455604308981073 -4.8302704070575615
-5.403761615352927 15.68225109664353 -4.677061958051873
-5.845792761510132 14.89478901363237 -4.548554907710364
-6.308277765005631 14.117390705477105 -4.464588453388497
-6.775992068898627 13.347984385825534 -4.464892376091578
-7.2273432656989085 12.591821632564868 -4.598127512091349
-7.625942408914397 11.87246573667997 -4.896264074820542
-7.940995599529445 11.21097321870452 -5.365672806958679
-8.15050782337113 10.611721885964569 -5.979566928601572
-8.264983113904695 10.049004394987648 -6.666506481560265
-8.286792377474638 9.500200643451437 -7.394340037451434
-8.211508144296054 8.960940817940571 -8.13682719248862
-8.04393962805922 8.425885279427078 -8.868622466626265
-7.7856526449027434 7.893309948344529 -9.582962695162172
-7.441809573983807 7.366054581501879 -10.273765111495248
-7.0295213844715905 6.839418553876252 -10.922934172072981
-6.580131378005526 6.293003293881438 -11.493197962558364
-6.127068418506717 5.709393254282965 -11.944577175824897
-5.704240091222543 5.080670644421086 -12.206329100464847
-5.368412583898835 4.4666774935624725 -12.197456401156368
-5.146137625414199 3.942804797187377 -11.92257921808748
-5.0530264418050015 3.5425905939438307 -11.409705750671282
-5.100138783661438 3.3083860089937023 -10.704788926126547
-5.256246560767274 3.2463092282601274 -9.906373185577314
-5.4698382104506615 3.3165658060458876 -9.087361021978635
-5.69710584554537 3.470390217040224 -8.272727266512954
-5.905964281819578 3.6650983976000084 -7.467481697383943
-6.07041994160347 3.8596830104445283 -6.666916600703254
-6.167414603512112 4.0050055857895925 -5.85993906458523
-6.181390178240648 4.048056532974192 -5.04439353788563
-6.111254707971587 3.943915615464079 -4.232779576549271
-5.966202307144416 3.659009247301512 -3.4568696489031083
-5.767708806367633 3.1933713442677725 -2.753900390267097
-5.54202669985158 2.5818949422166066 -2.145646457255725
-5.305487866173664 1.871993155458086 -1.6302704350909354
-5.063819533113062 1.1011821816480007 -1.1892288618583566
-4.816297799462007 0.29286226400464427 -0.8007946374704418
-4.561596975744081 -0.5367822674441548 -0.4516503206713564
-4.299320342901216 -1.3741621716836554 -0.1357772899438925
-4.025397092628742 -2.2084264280076877 0.15317242911037457
-3.7298434305330685 -3.033346021796866 0.42593896640392714
-3.3979796056118103 -3.8432337723070873 0.69476486163473
-3.0162187128418827 -4.629677321435558 0.9646172234047061
-2.5750486387395655 -5.383748924001805 1.2367699932522744
-2.0669434417110133 -6.0943598066263505 1.5183870685199838
-1.4866790458650003 -6.744865836846767 1.820622931735574
-0.8340292856061201 -7.3140372538762755 2.1536853884359024
-0.11821345312255063 -7.782439484945962 2.522411806598475
0.6439051404541191 -8.14139340422461 2.9239983262211275
1.4368705225723726 -8.392863603517851 3.349969239670971
2.2514702484804223 -8.54394605333829 3.787210569588415
3.0826789127243237 -8.604701882271987 4.22247403527327
3.9235122662846367 -8.583754091472507 4.650537051557926
4.764159765766521 -8.487236561737468 5.074163751687573
5.594497130998859 -8.322271394374884 5.501084446865108
6.4064342842887605 -8.09936801936573 5.940491810387442
7.195810974004934 -7.833641917982578 6.398990459867788
7.964257170136122 -7.545286069456687 6.87826717298117
8.718171456784448 -7.257500892378556 7.376360045675324
9.46378208922848 -6.992582308479022 7.8899967593938145
10.203674168964442 -6.768996671172314 8.416427093891356
10.937252188269676 -6.602859202307586 8.955171187952995
11.659901215055681 -6.511971756230639 9.508955705230951
12.358996120505966 -6.515577368661451 10.082589671881909
13.011431678563135 -6.628683431636581 10.679430126165903
13.59093224613237 -6.855454863508386 11.294544597496952
14.085582482775612 -7.189874504938571 11.91409321680705
14.493602485808774 -7.625383242281911 12.525404097473848
14.812007426170549 -8.153566246401091 13.116826893999887
15.04438860871401 -8.760777830745443 13.678579651069775
15.204327525036495 -9.427565618563795 14.2078819399728
15.314390537807762 -10.131158195978953 14.71276186801441
15.399463746690603 -10.85274726296102 15.205132471129058
15.47440355271493 -11.565485742637158 15.689962619851904
15.545212040489925 -12.23910904174041 16.153605465096074
LINES 1 77
76 0 1 2 3 4 5 6 7 8 9 10 11 12 13 14 15 16 17 18 19 20 21 22 23 24 25 26 27 28 29 30 31 32 33 34 35 36 37 38 39 40 41 42 43 44 45 46 47 48 49 50 51 52 53 54 55 56 57 58 59 60 61 62 63 64 65 66 67 68 69 70 71 72 73 74 75
POINT_DATA 76
SCALARS MaximumInscribedSphereRadius float
LOOKUP_TABLE default
1.2
1.2106666666666666
1.2213333333333334
1.232
1.2426666666666666
1.2533333333333334
1.264
1.2746666666666666
1.2853333333333332
1.296
1.3066666666666666
1.3173333333333332
1.3279999999999998
1.3386666666666667
1.3493333333333333
1.3599999999999999
1.3706666666666667
1.3813333333333333
1.392
1.4026666666666667
1.4133333333333333
1.424
1.4346666666666668
1.4453333333333334
1.456
1.4666666666666668
1.4773333333333334
1.488
1.4986666666666666
1.5093333333333332
1.52
1.5306666666666666
1.5413333333333332
1.552
1.5626666666666666
1.5733333333333333
1.584
1.5946666666666667
1.6053333333333333
1.616
1.6266666666666667
1.6373333333333333
1.6480000000000001
1.6586666666666667
1.6693333333333333
1.68
1.6906666666666668
1.7013333333333334
1.712
1.7226666666666666
1.7333333333333334
1.744
1.7546666666666666
1.7653333333333334
1.776
1.7866666666666666
1.7973333333333334
1.808
1.8186666666666667
1.8293333333333335
1.84
1.8506666666666667
1.8613333333333335
1.8719999999999999
1.8826666666666667
1.8933333333333335
1.904
1.9146666666666667
1.9253333333333333
1.936
1.9466666666666668
1.9573333333333334
1.968
1.9786666666666668
1.9893333333333334
2.0
SCALARS Curvature float
LOOKUP_TABLE default
0.0
0.06460905134452931
0.05813254656644613
0.06048823883261119
0.10410764063534005
0.16805579227911113
0.2272526010314397
0.25609676297077766
0.2347091483150079
0.15291085962232637
0.11950391409330595
0.11466042426182096
0.10877373289258224
0.10629714302547923
0.10064027162373304
0.09195257759868007
0.10534002022457255
0.15822206971555655
0.2910905389788074
0.5165353127427897
0.6401795967499189
0.5753193542419182
0.43001484928022077
0.2930810893676052
0.18972526306327925
0.11259774774484843
0.06243207786241945
0.06036618813773814
0.1213511291738775
0.19529994855591776
0.244258026629122
0.2694580378221598
0.25511141287712835
0.21171005650656666
0.15978019381288405
0.11141738716704191
0.07348762745431645
0.05120708788261603
0.04012686460568665
0.03328816228170846
0.03310727068229505
0.0470529984857452
0.06576831821051077
0.08061040593561684
0.0948159152696952
0.11190171865044657
0.12996206603272767
0.14146175580544665
0.1401871291095882
0.12993830030516856
0.11684132742099813
0.10315406902187665
0.09211203435647819
0.0841100639681206
0.07678473451043433
0.0685745009698649
0.05743311687142088
0.04112494006019595
0.026358475632645345
0.0320284844977255
0.04917950937316237
0.06826686242353792
0.091950981148723
0.12076766891170586
0.1513128831850803
0.1759825388425026
0.18307846693509128
0.18065923767431727
0.17625331268271974
0.16086119606129193
0.1304427338639988
0.08636252707972128
0.04255829612197772
0.01226192627394617
0.0070257530043662236
0.0
SCALARS Torsion float
LOOKUP_TABLE default
0.0
0.0
0.4911161122698622
0.42069532757178774
0.23238987954295376
0.10888458194621761
0.08540437962561358
0.0713082275601004
0.1345786205866816
0.3676494007691895
0.35694108793982104
0.21551477904823632
0.221925670855453
0.06362443347577995
0.020570906770639663
0.2315373465626934
0.47908756020491
0.294911067360583
0.09704182466599653
0.0007526493956546698
-0.06186854241712799
0.018418542491828845
-0.003971837610640891
-0.05947451028635123
-0.14656791343368827
-0.3690422520183964
-0.7836667737655204
-0.8204980706924555
-0.36869606406320393
-0.19505648529904646
-0.1523693512820612
-0.1251286700067141
-0.10556703449288254
-0.09332917054564635
-0.04288214878655231
0.010143581383700057
0.08524848236235545
0.14808617392062415
0.1764259599100859
0.3732907872876189
0.5397201321362618
0.34609136422562703
0.09889010752206645
0.028767705573130686
0.09438520331850671
0.11650767169316179
0.09487636930270243
0.07119416110214531
0.04585165625733545
0.0023250654786051844
-0.07473342077279893
-0.12099767181587212
-0.033183728867790196
0.09212492171215944
0.18251652468597065
0.23937872551387934
0.28192935703131994
0.4185256748792907
0.7781882897582428
0.5994514088736994
0.22715294142856246
0.06826242347881387
-0.008611005690292634
-0.05883467360374569
-0.09074172889502577
-0.07670699506332199
0.0016634868092624266
0.04307150232470396
0.024902610433591082
0.032963926235672056
0.03272492072426118
-0.005834784247366706
0.000827041466294128
-0.9711031389172616
-0.9821961219983792
0.0
