# vtk DataFile Version 2.0
Vessel Segment
ASCII
DATASET POLYDATA
POINTS 76 float
-4.455309128289801 17.154385333506927 -5.222331336433006
-4.8205641905341805 16.419371373103495 -5.180248459769694
-5.253325490677101 15.625955208717304 -5.070322198980188
-5.730740880635349 14.819591429353125 -4.929573730577868
-6.235734763572334 14.027566190090882 -4.796177543776924
-6.758618175918529 13.251342073219742 -4.7214833394033215
-7.2818488038692495 12.49384987528723 -4.770301278517742
-7.768797963049474 11.774962232231902 -4.999836457755404
-8.173272719340648 11.116367342954325 -5.4354277317302
-8.449228199374485 10.518296349898963 -6.035042595009146
-8.603020082361954 9.94703042751812 -6.712234030578705
-8.640290453980189 9.383987602442957 -7.4277678482937155
-8.559493941997824 8.829342400731733 -8.157422115177404
-8.358221563934334 8.28936576271206 -8.885736709704293
-8.04108466524869 7.769015350838578 -9.595339946083941
-7.621981344817722 7.267851067059628 -10.271040614364367
-7.125284742947116 6.778358394883629 -10.890667739134793
-6.5883674535769154 6.282870077603459 -11.412749071292437
-6.052814328524697 5.769148508930026 -11.796725267449206
-5.566054650471466 5.249953086958326 -11.971152026733145
-5.174719544529444 4.763400894544369 -11.903172010638427
-4.90328635672196 4.334645003000722 -11.607710826048285
-4.762759951891535 3.9880958478439985 -11.108728532571552
-4.7519678067878255 3.7568646586516445 -10.447194280234163
-4.84696031725105 3.6458455493850845 -9.688370963745982
-5.019061819806793 3.637037917647051 -8.887580962933104
-5.233797094159131 3.6997328686237076 -8.076888957645037
-5.459453036615483 3.7977131195136007 -7.2681503052219325
-5.666918990861548 3.889615589731004 -6.46022413079306
-5.829522333921966 3.926928873006223 -5.648250925463525
-5.925311043068905 3.8651985383531704 -4.83952431923589
-5.94957236674642 3.6815824857561457 -4.054186337305797
-5.908317280184767 3.366905068758904 -3.3139158328636045
-5.812969279893139 2.9232522498391265 -2.6336307799652503
-5.675208315930549 2.362362938068616 -2.0235120811917824
-5.500544728935895 1.7042098866247768 -1.4907611963454608
-5.292956823432091 0.9710856060272334 -1.0409119037095989
-5.0608626166334405 0.18574553132782123 -0.6729493452502919
-4.809665272287509 -0.6308393636246393 -0.37431757624794126
-4.540134677226149 -1.4612231009962064 -0.12988495642206405
-4.248480549761446 -2.2906301890746827 0.07663411140740578
-3.925128850593598 -3.1092957441466313 0.2637336881780378
-3.561443577100447 -3.910333078554415 0.4494940487954896
-3.1499464428757467 -4.685469704285122 0.6530951087055554
-2.681985153605917 -5.422944306215995 0.8893388598085755
-2.1514101000210846 -6.10704377357906 1.1649374895844538
-1.5564668350588227 -6.720759340976974 1.4827063723311151
-0.9003159104903231 -7.248673935221828 1.8433281337102154
-0.1919544030230041 -7.680242932036482 2.245272507391168
0.5560090774212766 -8.011410070896037 2.6839075519793947
1.3327934422647352 -8.24282875941646 3.1491086866045164
2.132831137442926 -8.379703169763085 3.6256245890890826
2.953552945959934 -8.430365030411005 4.100996191371597
3.7888350758234384 -8.40158750134366 4.571288084689328
4.628343495173758 -8.299871560680664 5.039127831850264
5.461779360741076 -8.134848562167436 5.5103827348307926
6.282143256619259 -7.919694178945337 5.99098888838107
7.086570688749702 -7.6702470533072695 6.484833992692933
7.87608675834532 -7.405070564714355 6.9932205239837275
8.654420461860266 -7.14467155275423 7.515217776586703
9.425172137951808 -6.90900549844962 8.048472661589178
10.188865126856813 -6.715991213922497 8.590327810586148
10.942175655973701 -6.582384571372654 9.138956088632009
11.6782009822443 -6.524529867885323 9.694403653077462
12.385251420949364 -6.5574729292588065 10.258702994949095
13.045157841463242 -6.692311282125207 10.833461185733919
13.638134678691985 -6.932517429345518 11.415645838648029
14.152823708834926 -7.275463439926146 11.997973024715877
14.582832304311642 -7.717412631117899 12.573507468202001
14.922703184669299 -8.251063752434337 13.13503679505423
15.174798177404718 -8.86306696196561 13.675951159887145
15.352672475307472 -9.53586605984841 14.193826798879698
15.47508160714757 -10.251109173732143 14.693175797032481
15.56009174206626 -10.99069807522398 15.181218314909522
15.622711308084954 -11.728600348677764 15.662042105677122
15.675136970178302 -12.433586006348138 16.12550739505291
LINES 1 77
76 0 1 2 3 4 5 6 7 8 9 10 11 12 13 14 15 16 17 18 19 20 21 22 23 24 25 26 27 28 29 30 31 32 33 34 35 36 37 38 39 40 41 42 43 44 45 46 47 48 49 50 51 52 53 54 55 56 57 58 59 60 61 62 63 64 65 66 67 68 69 70 71 72 73 74 75
POINT_DATA 76
SCALARS MaximumInscribedSphereRadius float
LOOKUP_TABLE default
1.2
1.2106666666666666
1.2213333333333334
1.232
1.2426666666666666
1.2533333333333334
1.264
1.2746666666666666
1.2853333333333332
1.296
1.3066666666666666
1.3173333333333332
1.3279999999999998
1.3386666666666667
1.3493333333333333
1.3599999999999999
1.3706666666666667
1.3813333333333333
1.392
1.4026666666666667
1.4133333333333333
1.424
1.4346666666666668
1.4453333333333334
1.456
1.4666666666666668
1.4773333333333334
1.488
1.4986666666666666
1.5093333333333332
1.52
1.5306666666666666
1.5413333333333332
1.552
1.5626666666666666
1.5733333333333333
1.584
1.5946666666666667
1.6053333333333333
1.616
1.6266666666666667
1.6373333333333333
1.6480000000000001
1.6586666666666667
1.6693333333333333
1.68
1.6906666666666668
1.7013333333333334
1.712
1.7226666666666666
1.7333333333333334
1.744
1.7546666666666666
1.7653333333333334
1.776
1.7866666666666666
1.7973333333333334
1.808
1.8186666666666667
1.8293333333333335
1.84
1.8506666666666667
1.8613333333333335
1.8719999999999999
1.8826666666666667
1.8933333333333335
1.904
1.9146666666666667
1.9253333333333333
1.936
1.9466666666666668
1.9573333333333334
1.968
1.9786666666666668
1.9893333333333334
2.0
SCALARS Curvature float
LOOKUP_TABLE default
0.0
0.0785587829734824
0.04534953378139358
0.03542160962095226
0.0712235611735115
0.14558470135831272
0.2292636535743077
0.28326441438005634
0.2644432408049035
0.17831483147818547
0.14500038852501027
0.13855814076095602
0.1385104826184282
0.13423084306164948
0.12233427105144083
0.11034565503057465
0.12524296101553314
0.18239295029641125
0.35687065369175336
0.5708588522923581
0.6427332381522398
0.5493121849038627
0.4015964342271812
0.2673641917395581
0.18055686260192108
0.11232317094570045
0.0512159307087613
0.025911726359265287
0.10209428351698654
0.17720915555851555
0.21649588329822986
0.23118280424515994
0.22045063686210933
0.19428615391252796
0.1658854670123848
0.14356502766029658
0.12153722331017972
0.09456148421237423
0.07136081093540222
0.0536986789663768
0.04765405277799111
0.05441779556051622
0.07025707591335353
0.09133879356732891
0.10958742496227836
0.12425892595965356
0.1340838819454233
0.13614265837256592
0.13064678213704545
0.12127920178918301
0.10940908698413257
0.09696645186451097
0.08670084974812862
0.0773534174319328
0.06693969342527924
0.055125094050541355
0.04193642172563136
0.02740507552232411
0.019040313605758002
0.029538529714271056
0.04708380876825589
0.06683291973325828
0.08956025913835254
0.1150763503258808
0.14192577511640667
0.16487664639121574
0.17693147303941428
0.18124702311143517
0.17800708865403986
0.16038438874958025
0.12816950610338354
0.09049149890895931
0.05651664967648949
0.028910460995087515
0.012106741609078573
0.0
SCALARS Torsion float
LOOKUP_TABLE default
0.0
0.0
0.567972282810421
0.7875779716312342
0.4104101987902445
0.15924351836262152
0.0959659332988874
0.09969668066939398
0.2327617728005878
0.4567900000093849
0.3150826828166539
0.135560815344129
0.04195044086767413
0.05718358156901113
0.09481041918957636
0.24622467323496128
0.4388147100760039
0.3103271264487009
0.09302374664085744
0.024542225276801305
0.037474403945570375
-0.011373836631631364
-0.08622345667943153
-0.07983430044626207
-0.036288529714988964
-0.12689225461039894
-0.4736168258733051
-0.9613425266821851
-0.16805780472289866
-0.07599125684058601
-0.08388885907275295
-0.09619292948884141
-0.09241565406715076
-0.07006596590637397
0.0037475939843670536
0.028946445770662927
-0.007448392662085652
0.04565841222652546
0.1641080157291686
0.39390853714336593
0.5779649591700299
0.4377672342692698
0.29057729765827467
0.1230273670708594
0.02417113196148886
0.007315620211339639
0.012695742908301316
0.02454896311038097
0.0234587737545842
-0.028361845897838817
-0.1131487095840365
-0.12589369553080765
-0.017850695518444898
0.09951895269451536
0.17589939535031296
0.2253989489152201
0.28986843604468654
0.5167762141026727
0.8252365811829169
0.457578347342403
0.16485899152209638
0.0476779479917747
-0.01131115766940377
-0.052700097051646536
-0.07905163161138243
-0.06796725128552171
-0.01816303063848096
1.3183813627661717e-05
-0.007154883433229967
0.0050014133432891425
0.025607500466049128
-0.00599636204534864
-0.10128165047901129
-0.5888313873567812
-0.954528560101131
0.0
