# vtk DataFile Version 2.0
Vessel Segment
ASCII
DATASET POLYDATA
POINTS 76 float
-5.184947946722015 16.81394463249553 -5.059180935593691
-5.519107018099512 16.08009459492921 -5.085328947794898
-5.930273675036031 15.281967527951203 -5.041895375231972
-6.391971526752789 14.47937243310535 -4.963893033119881
-6.878293082169606 13.702048118942846 -4.888999497915069
-7.374664972256299 12.946558278579575 -4.877352299332529
-7.85844609120825 12.21490015404007 -4.995133901063278
-8.289435158308523 11.521290299661162 -5.287451881304441
-8.623538056474132 10.887023241872336 -5.777009183581413
-8.808710610917753 10.321503552474464 -6.4164790281858455
-8.8639745008969 9.778724072555825 -7.110495366464291
-8.805450852513282 9.244341219352336 -7.828641044167893
-8.637271227951999 8.728055427657171 -8.558568038303237
-8.369129476678582 8.234222234807474 -9.278385005302317
-8.010321270831952 7.757583322257002 -9.973692982006883
-7.566740619719094 7.291736327503743 -10.627399515584658
-7.0511823488268215 6.827117495685139 -11.21599434486694
-6.49967402131813 6.341535462711561 -11.682169605827514
-5.966795187926864 5.8474309177515575 -11.976769266050361
-5.488296009479874 5.370036582699803 -12.059611944164407
-5.099139267759774 4.941818892300906 -11.91544128608014
-4.818240021486538 4.575764584137408 -11.567740363017489
-4.662267732907768 4.278530842542185 -11.050892052837451
-4.6221391574303174 4.071096358929669 -10.404714473099475
-4.679055915949331 3.9514711990095015 -9.66633507351977
-4.8197678430780675 3.9129873012364587 -8.874686664453161
-5.01035999144729 3.93950308804605 -8.067396532738082
-5.215864182846794 4.0019704375794065 -7.261043393533771
-5.406890515316153 4.066163397772979 -6.455546670002491
-5.549110226208975 4.086393480279534 -5.643467705149389
-5.608531525111902 4.008021546052108 -4.834771509330695
-5.588808910393128 3.81467138884435 -4.057956461604704
-5.510733318858879 3.51213174676615 -3.3254460976512625
-5.388624774176187 3.1017165317199145 -2.6376682752489353
-5.230853201082777 2.5859151861633114 -1.9993996986994924
-5.040087774454552 1.9810938481096885 -1.4175769794012527
-4.819308399447843 1.3075321560808306 -0.9035722318267476
-4.581103199344797 0.5850792578084582 -0.46650010081017407
-4.329447378329875 -0.16920306855365036 -0.09990776000138053
-4.061715013086208 -0.9422580804843861 0.20229717233202912
-3.7772095339089344 -1.7228240706226754 0.4476682009307451
-3.4703408730748357 -2.5043645846818796 0.6513190849721439
-3.1355884300226613 -3.2832886942144364 0.8310613498302459
-2.7658470487442024 -4.053195322082445 1.013427960559421
-2.3492159947918134 -4.800121009102227 1.2244013905159539
-1.8769094580072305 -5.503746452953895 1.4771752797134874
-1.3460529569565303 -6.145846286809677 1.7752801736895159
-0.7576547562111208 -6.715185068759231 2.117413880811446
-0.11536742250590641 -7.205985200659078 2.5008581888673724
0.5751122170910203 -7.613622200749246 2.921210425086965
1.3074118454016268 -7.9332690564726915 3.3680603282927897
2.0759287368519166 -8.163562762100726 3.8259127611571837
2.8745485825443806 -8.305771394878944 4.284039294348463
3.6934609632751294 -8.359969891130305 4.739994587018743
4.520451328742014 -8.329189464355876 5.19525124214047
5.3450767070292295 -8.224312585199376 5.652506270548132
6.161482972602279 -8.063373542608884 6.11528918905025
6.9675785218074715 -7.867880674164597 6.587738652334836
7.763269681615746 -7.6605763696979645 7.073481945518127
8.549329818069447 -7.464221331046694 7.574336560544127
9.325008426977426 -7.2984648378678605 8.090261397591018
10.085879712520695 -7.177274441201339 8.619603884860576
10.82563896635241 -7.109762396516526 9.158523579849135
11.53877572148634 -7.103042330083214 9.702407738951637
12.219020877918505 -7.164696536125803 10.24917881764724
12.855960313200892 -7.302446608423593 10.799401659592723
13.437999354125333 -7.521921828714931 11.352628730633441
13.957583157611126 -7.8280149727407835 11.906208352993499
14.406897114929626 -8.226211387568354 12.456613536769254
14.776375716856174 -8.718147099156187 12.998481733209767
15.06258602662972 -9.294998981540388 13.523647410309241
15.27579003649821 -9.937394750098463 14.025603264885076
15.429888913926842 -10.623733146053416 14.508501478882811
15.534087490978278 -11.332082429170763 14.984785666176032
15.589410263266917 -12.03079326784676 15.464586443039071
15.599905008720027 -12.690595015975001 15.935356891214422
LINES 1 77
76 0 1 2 3 4 5 6 7 8 9 10 11 12 13 14 15 16 17 18 19 20 21 22 23 24 25 26 27 28 29 30 31 32 33 34 35 36 37 38 39 40 41 42 43 44 45 46 47 48 49 50 51 52 53 54 55 56 57 58 59 60 61 62 63 64 65 66 67 68 69 70 71 72 73 74 75
POINT_DATA 76
SCALARS MaximumInscribedSphereRadius float
LOOKUP_TABLE default
1.2
1.2106666666666666
1.2213333333333334
1.232
1.2426666666666666
1.2533333333333334
1.264
1.2746666666666666
1.2853333333333332
1.296
1.3066666666666666
1.3173333333333332
1.3279999999999998
1.3386666666666667
1.3493333333333333
1.3599999999999999
1.3706666666666667
1.3813333333333333
1.392
1.4026666666666667
1.4133333333333333
1.424
1.4346666666666668
1.4453333333333334
1.456
1.4666666666666668
1.4773333333333334
1.488
1.4986666666666666
1.5093333333333332
1.52
1.5306666666666666
1.5413333333333332
1.552
1.5626666666666666
1.5733333333333333
1.584
1.5946666666666667
1.6053333333333333
1.616
1.6266666666666667
1.6373333333333333
1.6480000000000001
1.6586666666666667
1.6693333333333333
1.68
1.6906666666666668
1.7013333333333334
1.712
1.7226666666666666
1.7333333333333334
1.744
1.7546666666666666
1.7653333333333334
1.776
1.7866666666666666
1.7973333333333334
1.808
1.8186666666666667
1.8293333333333335
1.84
1.8506666666666667
1.8613333333333335
1.8719999999999999
1.8826666666666667
1.8933333333333335
1.904
1.9146666666666667
1.9253333333333333
1.936
1.9466666666666668
1.9573333333333334
1.968
1.9786666666666668
1.9893333333333334
2.0
SCALARS Curvature float
LOOKUP_TABLE default
0.0
0.0935962170659639
0.06069202701466644
0.040579452344220994
0.08093317313682107
0.1667963110555481
0.24265118482491582
0.29068370300732976
0.2801731121504076
0.1792259026776681
0.14142565269834118
0.13219892333653716
0.12234096230141406
0.11287311859584201
0.11230802263476534
0.11665577337657008
0.1642311249257962
0.25021863618331064
0.41676346740806813
0.5988351544376748
0.6103337398549792
0.4975801215129237
0.36000944571825166
0.2374310646246943
0.17054222027843782
0.11320089337315148
0.05530196497366815
0.020360161244477183
0.09666336646399701
0.19167368657832418
0.2196467264513042
0.20417709235713336
0.18465501459454517
0.16591208477448793
0.14187048053210785
0.12841381865555898
0.11968241974576285
0.1020028481830644
0.09042051634562481
0.07926618806639973
0.06332897854739244
0.048771194201848264
0.04645944912511265
0.07559269826468322
0.10404921861325227
0.12212624904498438
0.12923620791844007
0.12792976372477757
0.12337371919796578
0.11844638178154697
0.11217664645758334
0.1058871981088705
0.10130436100166038
0.09480708057121848
0.08183145442087773
0.062460924008992946
0.04080092154481244
0.0225746471520367
0.023007047984385874
0.0392972924161477
0.05459901472516342
0.06689036592505775
0.07926386226603854
0.09575650962660394
0.11739696707555962
0.13959424491200775
0.15768611293170043
0.17283390281644118
0.18034231705903364
0.16991149583729614
0.13888108415457925
0.102384663606123
0.07328581437948443
0.06795132412673772
0.07124785408668627
0.0
SCALARS Torsion float
LOOKUP_TABLE default
0.0
0.0
0.5111748406143757
0.800011316192997
0.48661715408333667
0.16248037632895862
0.11871543100610792
0.08945770756706056
0.23784921796464747
0.568558397469771
0.2511551404891225
-0.010001846729199904
0.08861824390917927
0.14198058648806614
0.17038804073436345
0.23953219051387384
0.3749564995213144
0.19613816076714516
0.020347868291531818
0.003189656800099496
0.05908350495989052
0.1056841820056567
-0.11617131834365153
-0.06478859231243154
0.01042391232947601
-0.17514783022961947
-0.48938081576061754
-0.9967442790835073
-0.1950154967716431
-0.09518544773791024
-0.13142556331908525
-0.1619698909205809
-0.12903903633315128
-0.07411258518896457
0.028986886706360585
0.04227460114427799
-0.0699855054341152
0.03023992202278164
0.131698847952378
0.12807147110536915
0.32095826229870844
0.49620231166903395
0.689188470776869
0.2962180953298105
0.060682738617765936
-0.0012197374862692387
-0.01429854477523601
-0.006937119291199692
-0.00928456859480761
-0.060960072694123846
-0.11851670604652965
-0.07714706827450878
0.030056511939027405
0.08747037788753304
0.11101666638217214
0.1574900305440274
0.3256848384693037
0.7732155317777244
0.738374665199171
0.2824387651640455
0.0968103571579014
0.04800177552580824
0.04410986017280389
0.004552246471184143
-0.04868600878923495
-0.047003468842153895
-0.00280577818698885
0.004826222833585902
-0.006348709837652293
0.006279308918689641
0.03895828588705351
-0.0668901753342915
-0.3653733674242112
-0.5582055705149626
-0.2040130732281129
0.0
