# vtk DataFile Version 2.0
Vessel Segment
ASCII
DATASET POLYDATA
POINTS 76 float
-4.4318235429090675 16.92393819903235 -4.47114232819242
-4.706682242725849 16.090538395309512 -4.4372464938317675
-5.086288544692214 15.220564783380132 -4.323218090074041
-5.550249966081741 14.370446923014732 -4.140185323224185
-6.076193800197292 13.552428889199492 -3.925770992653898
-6.6454221822122985 12.749835053988617 -3.7338372677458027
-7.241666948664642 11.949450142945055 -3.644557928234141
-7.838582625929469 11.174096641292246 -3.737513161810393
-8.383852030434948 10.472506845863585 -4.104455003412304
-8.79775955163555 9.876623578212298 -4.717071554146771
-9.100906065761796 9.30893173552255 -5.435465841664438
-9.28903845398059 8.736253707472585 -6.209428372901355
-9.344385319122342 8.166232421308129 -7.017361162467258
-9.264202001100653 7.605463758080966 -7.832538919075849
-9.0513030239241 7.066600908501911 -8.646069549956815
-8.716643312505768 6.56056550868957 -9.464926557484622
-8.266169179637691 6.089453928368632 -10.275547542987232
-7.717989712541467 5.651519152091937 -11.044425819612119
-7.088169895355927 5.215199212471558 -11.742228289700908
-6.409161167423046 4.750542199896679 -12.292265731849637
-5.731711209144863 4.272371292370667 -12.609195190996964
-5.108173195685096 3.801136447491478 -12.63500758956457
-4.621365251364235 3.375628834803681 -12.3311693782619
-4.351438731889282 3.0731238611960165 -11.72450804366799
-4.296807084250206 2.9270995645863738 -10.93572271402932
-4.41735113704747 2.936705991240574 -10.074774908552133
-4.647714143006571 3.0824458072289453 -9.20688228304767
-4.926325299047386 3.329146065684181 -8.350961691814913
-5.196427569714221 3.617781643908657 -7.497958293358551
-5.41791028070907 3.872534350125049 -6.645443691648966
-5.576965603329886 4.036699122880435 -5.80614469679343
-5.674203057140078 4.084832871342811 -4.986826048039223
-5.707744395257305 3.9995674315157763 -4.188048397059126
-5.675056128553037 3.756222745685354 -3.4088735751538017
-5.580011356802115 3.335297239577519 -2.6717161345090226
-5.426552513163239 2.7501278310223225 -2.0129186392507994
-5.222406028158654 2.035189370281533 -1.459863742563836
-4.979816457038298 1.2329743587236957 -1.0192322256573318
-4.706052379713385 0.38477110337989456 -0.6790468178583889
-4.400952338728086 -0.4792022163897132 -0.42158504532352165
-4.062407282119143 -1.3396885264351508 -0.2307882918842066
-3.6886031901701126 -2.1862967177889088 -0.09013020867524604
-3.2770507931023003 -3.0125765649366474 0.022434669623999075
-2.8193074171480643 -3.809734417135188 0.1352110280748513
-2.3015352933735036 -4.562955567983227 0.2747711897352013
-1.7134494438617434 -5.25160831068649 0.46210239260828134
-1.0521933257019704 -5.85342385551342 0.7141501118568151
-0.32447058079200186 -6.349724713221347 1.04017187534529
0.45107561300933957 -6.732780378506864 1.4364546998385375
1.2529136763819124 -7.01083171858435 1.8851814880004993
2.0724748312956325 -7.198279504865052 2.363901095694037
2.910523604648184 -7.300878175974022 2.8564787706987524
3.7629415138637223 -7.3157291576179455 3.3552977204006593
4.6201910679115175 -7.241692408261888 3.8583948455147627
5.4727636302309906 -7.088474658200767 4.368635668422255
6.313745485053669 -6.878827245336163 4.893099599475274
7.138565196965324 -6.641604649709197 5.4414015393013235
7.944477072050181 -6.405065542971001 6.021653748805004
8.73142559273362 -6.196905814728193 6.638184226554715
9.500973565174126 -6.0449511966858385 7.2905982992341345
10.250676380258753 -5.97344782202453 7.972482783870501
10.970527545034408 -5.998375341230719 8.671475716810798
11.647191801233445 -6.127402733564784 9.373715305947437
12.265567365199837 -6.36445247455069 10.07086215376484
12.80628445418151 -6.709006635112063 10.762475950170645
13.246636705902967 -7.152694390970637 11.452042882041507
13.571573092051878 -7.678162561924264 12.13915975889942
13.789183527638347 -8.267486177511246 12.818347464850444
13.917901795661667 -8.91247159805577 13.484412727895604
13.97127491588056 -9.608030893514364 14.128938915963705
13.964740419216744 -10.344802664846844 14.74053884733969
13.918843400307013 -11.110662361704977 15.31056486015832
13.858643133364792 -11.893744731015332 15.83917595526537
13.817869808169004 -12.685590233425911 16.335409397716617
13.833415307798179 -13.472112846000767 16.80142733145337
13.908090551630401 -14.235173110703244 17.22290051740422
LINES 1 77
76 0 1 2 3 4 5 6 7 8 9 10 11 12 13 14 15 16 17 18 19 20 21 22 23 24 25 26 27 28 29 30 31 32 33 34 35 36 37 38 39 40 41 42 43 44 45 46 47 48 49 50 51 52 53 54 55 56 57 58 59 60 61 62 63 64 65 66 67 68 69 70 71 72 73 74 75
POINT_DATA 76
SCALARS MaximumInscribedSphereRadius float
LOOKUP_TABLE default
1.2
1.2106666666666666
1.2213333333333334
1.232
1.2426666666666666
1.2533333333333334
1.264
1.2746666666666666
1.2853333333333332
1.296
1.3066666666666666
1.3173333333333332
1.3279999999999998
1.3386666666666667
1.3493333333333333
1.3599999999999999
1.3706666666666667
1.3813333333333333
1.392
1.4026666666666667
1.4133333333333333
1.424
1.4346666666666668
1.4453333333333334
1.456
1.4666666666666668
1.4773333333333334
1.488
1.4986666666666666
1.5093333333333332
1.52
1.5306666666666666
1.5413333333333332
1.552
1.5626666666666666
1.5733333333333333
1.584
1.5946666666666667
1.6053333333333333
1.616
1.6266666666666667
1.6373333333333333
1.6480000000000001
1.6586666666666667
1.6693333333333333
1.68
1.6906666666666668
1.7013333333333334
1.712
1.7226666666666666
1.7333333333333334
1.744
1.7546666666666666
1.7653333333333334
1.776
1.7866666666666666
1.7973333333333334
1.808
1.8186666666666667
1.8293333333333335
1.84
1.8506666666666667
1.8613333333333335
1.8719999999999999
1.8826666666666667
1.8933333333333335
1.904
1.9146666666666667
1.9253333333333333
1.936
1.9466666666666668
1.9573333333333334
1.968
1.9786666666666668
1.9893333333333334
2.0
SCALARS Curvature float
LOOKUP_TABLE default
0.0
0.1173106910761533
0.10763520238306767
0.07587903078054047
0.050242855014430494
0.10522380949698372
0.18811732601397183
0.30152484918593125
0.31688431884424223
0.16332017838559484
0.12959486990297397
0.1375857517624144
0.13668373846069604
0.13320247279914962
0.11795852182469901
0.10861722715211423
0.10219154529847473
0.10045497615592251
0.15629903776012347
0.2726093939429053
0.44246567392731656
0.6068554871073267
0.6050747485760097
0.4240313529297682
0.28915685954302345
0.19766989693614867
0.1238407937058901
0.04768186203800387
0.06554131631567171
0.13507640926969414
0.18608321464061078
0.22646614604110052
0.24892105542642862
0.24678955655089768
0.22311327453852456
0.19334236351212694
0.15927562883401764
0.12452979126336763
0.09884861265198443
0.083399939300774
0.07127210426528133
0.058948572097473194
0.06352637161506476
0.09219528645400966
0.12396616187108794
0.14952904080503066
0.16113771318467254
0.15318255170287673
0.12862638828195244
0.10251162976390381
0.09062464791160404
0.08994319018802083
0.08852826720549589
0.07778046991417475
0.057023898002900836
0.03796068566616283
0.035493389838721565
0.047711594161747375
0.06609456034753254
0.08500214324001927
0.10104267582492034
0.11513657699957106
0.1311749118369876
0.14778026853142867
0.16142679284041675
0.16412574815307504
0.14474069544314327
0.1185388798770647
0.10106064386404974
0.08599641178218621
0.07017559418621552
0.05172298304919091
0.04258706751070325
0.07312950236421092
0.08905030845386042
0.0
SCALARS Torsion float
LOOKUP_TABLE default
0.0
0.0
0.05278241561343386
0.3174560429535863
0.8210991728804424
0.34117237916993176
0.07734339639108484
0.04750880746042628
0.15070286692701942
0.5835306193898
0.4197627984635832
0.06512657432318031
0.07487476251497441
-0.04154293414525975
-0.12015571577167498
0.040045570027680485
0.1545158837114557
0.36155755778479814
0.28444017074453953
0.07030226185908187
0.04383683682885631
0.05379389056334792
-0.030876132232041373
-0.06303714323126389
-0.0873181988620265
-0.20915579483294525
-0.33992037596943997
-0.9280140564468022
-0.6517498007579979
-0.2312958198815026
-0.11917812856908715
-0.04693002746621651
-0.0496510422276348
-0.07123331723051507
-0.009861203498686417
0.01256873604030237
0.012844937678901306
0.08496775555635126
0.19095418854979568
0.2297779181467588
0.25624993178268873
0.4264367919426227
0.5095759307410772
0.24936520320978728
0.10694819557634314
0.06866186313133348
0.04914108882447916
0.03784451431685172
-0.004013894595819349
-0.12495673462780885
-0.16458937786269792
-0.05096703608299344
0.03535017575955518
0.1035174559643493
0.2627169247510745
0.6024445540268778
0.6255916429702602
0.37982639747976493
0.2316934763165287
0.13720336594110924
0.06909669023832198
0.027540602728889613
-0.0244293765134701
-0.09373769471444135
-0.14127503134980748
-0.1276937893154939
-0.034835372730233405
0.07355102581151679
0.11437339346537097
0.15889084996772257
0.24664820104804222
0.4436419335969654
0.7643103706192709
0.38076934889726843
-0.025578667758679174
0.0
