# vtk DataFile Version 2.0
Vessel Segment
ASCII
DATASET POLYDATA
POINTS 76 float
-5.246674956706918 17.386331774816316 -5.614646809502937
-5.652639995870684 16.693532656872282 -5.582203351007037
-6.067093401349594 15.919347844668795 -5.513816559852533
-6.481087834745677 15.104911647865 -5.439268954453856
-6.895211661790714 14.288825662371528 -5.369948531534686
-7.316850655601196 13.477140098182545 -5.307383366166311
-7.7520281234128925 12.67213016311958 -5.27166135712482
-8.193919595453217 11.895323721049081 -5.32316686332581
-8.61957554802761 11.186591182727053 -5.536210140566717
-8.96685325120385 10.580071772327198 -5.919767236177145
-9.22429835236016 10.004913263586511 -6.401905634529455
-9.354480536380088 9.427077104575524 -6.9793118186613805
-9.3242871448898 8.863202692558644 -7.625082443171946
-9.127533572500083 8.35040168332803 -8.305310478243184
-8.794895173893549 7.907707606909548 -8.970833922955453
-8.357909987315493 7.521878544273818 -9.599341721115097
-7.8348176052328595 7.187156768066989 -10.174729279628913
-7.239412958899535 6.89755829803232 -10.67608418036902
-6.589752109060644 6.627731761524972 -11.068059348659643
-5.930486660206295 6.371014412758078 -11.262807795526024
-5.322623381816511 6.134514952981703 -11.234632614010241
-4.804453547023319 5.87572436444551 -10.97742854597649
-4.485690108388167 5.59626913324713 -10.459923059153718
-4.370012618065764 5.3484622917532425 -9.797258870936604
-4.37845691996195 5.1372309236524725 -9.057075184505539
-4.47367701996172 4.956605486177872 -8.268684019613621
-4.625179895251932 4.791620196093384 -7.457938604938899
-4.815538147784782 4.619287798509175 -6.648952322849216
-5.030373343622983 4.417188392510017 -5.853379070658582
-5.243133500777851 4.156855009051733 -5.072494185900461
-5.423642853551664 3.812355945569917 -4.31486637617772
-5.543390665768783 3.368654738033121 -3.592841185687434
-5.58107140229087 2.8191351345668343 -2.925990778534993
-5.5290665490735185 2.173505197445333 -2.3345201069695958
-5.392522153551838 1.4548252561042367 -1.8226340575404638
-5.182973358346752 0.6806451711566298 -1.3862732425152653
-4.911888587340506 -0.1329805863332359 -1.0229709279369568
-4.585980205011574 -0.9664121091078619 -0.7290049327223218
-4.208267198916268 -1.7988826321158056 -0.49902787098057727
-3.7788824541640818 -2.608593216352589 -0.3271402356750351
-3.297684992528901 -3.3767813705282346 -0.2073697161280243
-2.7697585552080346 -4.0962982322376424 -0.13717465008989518
-2.2115268069416447 -4.774764803901331 -0.11249307879743686
-1.6370848822091035 -5.427546531660305 -0.10992192794313198
-1.04737909041124 -6.064436293278603 -0.09799793359447588
-0.44000463822551866 -6.684635452952269 -0.05468071964788896
0.18692046366462395 -7.281197385937116 0.039897722715272005
0.8344169418031274 -7.842690244647161 0.20558613268307446
1.4991994775372368 -8.355372202189859 0.45906478953098806
2.1731420270399786 -8.80417998349242 0.8096713118390891
2.848039197234619 -9.17167380915816 1.2520173213201957
3.523942595966996 -9.445808913724383 1.7623857329959742
4.210720776716766 -9.624204640163738 2.3139460617779317
4.910150323519031 -9.706616615579728 2.8895613170401906
5.609671214194893 -9.696767891703779 3.482201744864868
6.293613638475502 -9.604350635980559 4.093014549955992
6.95150734491142 -9.4418976282596 4.726258650326527
7.5780523601352545 -9.22165276632865 5.384715441903419
8.170817703858386 -8.956096434904367 6.0674329180844
8.72997702435524 -8.658155919163699 6.771585373623052
9.25749267469972 -8.338726915285202 7.495653771393555
9.755833563243545 -8.00838767200453 8.2403416555553
10.227895845657972 -7.682728829226365 9.00602133221591
10.677380269555883 -7.383628161408918 9.789648158591266
11.106428975866878 -7.134570311986471 10.585906323366855
11.511817771658778 -6.951890839197929 11.38830390171213
11.89154576606921 -6.836873271719391 12.18736543053405
12.25833696036922 -6.7839218594045505 12.97313426877342
12.630504446527315 -6.797355834880802 13.73859764637844
13.018003710867633 -6.894262742455867 14.477199621843214
13.41979523868469 -7.099222073503149 15.182190431062626
13.825221763223025 -7.423694556121353 15.84871020661713
14.22382132161334 -7.8510407600441185 16.4784684106424
14.601850669531762 -8.357449676774094 17.07034644612959
14.9314586049932 -8.920600723675372 17.61642193445284
15.202513329120888 -9.499378123522911 18.10856540412686
LINES 1 77
76 0 1 2 3 4 5 6 7 8 9 10 11 12 13 14 15 16 17 18 19 20 21 22 23 24 25 26 27 28 29 30 31 32 33 34 35 36 37 38 39 40 41 42 43 44 45 46 47 48 49 50 51 52 53 54 55 56 57 58 59 60 61 62 63 64 65 66 67 68 69 70 71 72 73 74 75
POINT_DATA 76
SCALARS MaximumInscribedSphereRadius float
LOOKUP_TABLE default
1.2
1.2106666666666666
1.2213333333333334
1.232
1.2426666666666666
1.2533333333333334
1.264
1.2746666666666666
1.2853333333333332
1.296
1.3066666666666666
1.3173333333333332
1.3279999999999998
1.3386666666666667
1.3493333333333333
1.3599999999999999
1.3706666666666667
1.3813333333333333
1.392
1.4026666666666667
1.4133333333333333
1.424
1.4346666666666668
1.4453333333333334
1.456
1.4666666666666668
1.4773333333333334
1.488
1.4986666666666666
1.5093333333333332
1.52
1.5306666666666666
1.5413333333333332
1.552
1.5626666666666666
1.5733333333333333
1.584
1.5946666666666667
1.6053333333333333
1.616
1.6266666666666667
1.6373333333333333
1.6480000000000001
1.6586666666666667
1.6693333333333333
1.68
1.6906666666666668
1.7013333333333334
1.712
1.7226666666666666
1.7333333333333334
1.744
1.7546666666666666
1.7653333333333334
1.776
1.7866666666666666
1.7973333333333334
1.808
1.8186666666666667
1.8293333333333335
1.84
1.8506666666666667
1.8613333333333335
1.8719999999999999
1.8826666666666667
1.8933333333333335
1.904
1.9146666666666667
1.9253333333333333
1.936
1.9466666666666668
1.9573333333333334
1.968
1.9786666666666668
1.9893333333333334
2.0
SCALARS Curvature float
LOOKUP_TABLE default
0.0
0.05543950450074311
0.022522428106551737
0.006369439362994299
0.013068084010043177
0.03669820856794047
0.11244577622991914
0.23475929499373585
0.32114086572628175
0.21390532298726245
0.2178178552730752
0.2246703026672377
0.22407810357181882
0.20200809436527253
0.16777672541147182
0.15678400338541237
0.16177675385903487
0.18688165264302772
0.3420431649788077
0.4839473288461668
0.5446637638049361
0.5965288005056495
0.42754518216196946
0.22508860835567826
0.1364063465240755
0.07844986885015034
0.053604120327874746
0.05661048842933954
0.08277951861906138
0.12733658517816548
0.16365831526558294
0.1892297542190167
0.19180245678037897
0.1673440285079117
0.1376907946533043
0.11539668589162827
0.10037488983430172
0.0922724138114063
0.09257864731429105
0.09915036482125829
0.10233034024262856
0.08648841562327221
0.0483165291962941
0.031719651192986587
0.05244142148343077
0.07853063465668374
0.10678275616296913
0.13114347517812278
0.14773919135881597
0.15384676081254878
0.14409277660970274
0.12777297734952633
0.11840873316537905
0.11022596321424424
0.10034299672338327
0.08983276842847834
0.07946458627399879
0.06839326974520919
0.05674697756978318
0.04733822044484787
0.040619720130742644
0.03700791369608518
0.04301593783871287
0.06152386647282473
0.08101325821608164
0.08624444743061331
0.08089094494445215
0.0936014259991988
0.12521092364514996
0.16125705743497304
0.17252340130396548
0.1445078045410142
0.11859672826098273
0.11944428192396217
0.10684371046096032
0.0
SCALARS Torsion float
LOOKUP_TABLE default
0.0
0.0
-0.8836928304924558
-0.9990736559624004
-0.4279214935571989
0.15085500482552516
0.1089058161493136
0.06215327921482954
0.19790323891994832
0.6347749936000286
0.3179803025059921
0.11146613548705497
-0.016897419347381357
0.05980735819331706
0.16182247855218476
0.12196399886049011
0.16596715658493702
0.36260294062505827
0.19907682418570763
0.10522490796792405
0.31436208746953465
0.10706384506095831
-0.08225923731977894
-0.1888614405987843
-0.05460594015687836
0.19595151634835417
0.7154784961786367
0.6173993277886821
0.4727688310945276
0.22261597019737372
0.13145795334917368
0.05466188010381248
0.016761212154953617
0.0379023009736706
0.00586195874159387
-0.008215959139366305
0.06756780521043286
0.13594111067482811
0.18080253448920544
0.16266329473612476
0.03635226196748512
-0.14699283862577223
0.19022683286848868
0.9103073960607178
0.3259303008223222
0.09394635185977765
0.028691916681274382
0.017161398466856895
0.003722757181123833
-0.06819381143571318
-0.19355948849029395
-0.27583589231671735
-0.15743343509333152
0.037786328879556325
0.1663473044096066
0.19723154121216815
0.17227986902539325
0.14885309314876477
0.16096963867319125
0.18650708376734504
0.26922599861688534
0.4434935426256175
0.455417859424499
0.26003729904194284
0.08179324195806448
0.03521104422829244
0.27637314316484884
0.305437110211566
0.08454701033948192
-0.04314922966714889
-0.08655098040835706
-0.08725390497347618
-0.13467844662788858
-0.26270333774754007
-0.2077461462212542
0.0
