# vtk DataFile Version 2.0
Vessel Segment
ASCII
DATASET POLYDATA
POINTS 76 float
-4.5997674861047155 17.765498596683862 -6.016222999562338
-4.986915412743525 17.021125366699277 -5.946285518488913
-5.4168572759995826 16.229779380810218 -5.784672915982407
-5.877135142684271 15.41959072106651 -5.564393218895321
-6.359669932811377 14.617374112547969 -5.331697061311144
-6.859802241704924 13.820142738140499 -5.145172352264243
-7.364452901735639 13.0216504664074 -5.091051778662614
-7.83143324488739 12.243058690778314 -5.227728593733506
-8.214964334805249 11.496212164021996 -5.562208184974574
-8.470429355117446 10.789697144586984 -6.061048970026114
-8.59857728471103 10.106150648845631 -6.640550036596008
-8.61206742867139 9.426255478431752 -7.258701739981436
-8.517517355382429 8.751144895032219 -7.897518847917928
-8.315876304547492 8.095972360433832 -8.548379413899255
-8.01545038552473 7.472779903601238 -9.19543508182859
-7.626538169555299 6.879652253472289 -9.823083821224927
-7.166907267723603 6.308967297969502 -10.399415720787637
-6.673252133427513 5.757700926368763 -10.87127590021418
-6.182481571499534 5.2214242699919815 -11.213033588817838
-5.730923890913788 4.7106574973455055 -11.364775300783567
-5.3561651566841295 4.244119437520565 -11.307172656758121
-5.080612102361365 3.834351038610364 -11.058649160065162
-4.90952703351607 3.5038266199639936 -10.634360483278783
-4.858713951228936 3.2917486158994946 -10.047307838445956
-4.907418074072318 3.208309275573033 -9.364991692196673
-5.022042346184953 3.2427914484473543 -8.639442101366008
-5.169371936549761 3.370031730477494 -7.895225524322042
-5.319624891600314 3.5487610690303577 -7.1420893145356015
-5.446504088393514 3.727167426244484 -6.383483871297315
-5.528582950813642 3.8506786988983746 -5.6206686734977644
-5.545603118495479 3.873818904427291 -4.861273925463481
-5.497634834489229 3.776908320935388 -4.123217871029469
-5.397317559872346 3.5493893535836345 -3.4175506874392236
-5.257043817989224 3.1729607585875197 -2.753728520104973
-5.093144387391913 2.642706973851565 -2.1572045939098508
-4.914209032557258 1.9905940016880277 -1.6491865251349482
-4.721344338789535 1.2539943175383588 -1.2382158267871337
-4.522664484049221 0.4613894516194975 -0.9215204415092704
-4.322656890250509 -0.3664927332901107 -0.6793550196691249
-4.122212234942718 -1.2160794980420628 -0.49125935078145544
-3.9194358483830407 -2.0745970313474094 -0.33453029035198567
-3.7029627570725374 -2.932576699607245 -0.17658677139342854
-3.4555343845378608 -3.7819390477754915 0.013653476075625203
-3.1609419922765465 -4.610737760043724 0.25527663331996775
-2.805618196976059 -5.4032139835430675 0.5557413179823912
-2.3765730838871755 -6.139342543472203 0.9158957070433824
-1.8639192524700097 -6.795425717068329 1.3312361484515984
-1.2657122297129206 -7.348110923452535 1.7931123607300485
-0.5911840046235014 -7.781452102609139 2.2888865742405335
0.14329404390400602 -8.092290126327695 2.8036926688431385
0.9219623215864917 -8.288502742723624 3.322843356942277
1.7339091056764888 -8.386147970744247 3.8319999884678366
2.572391297697058 -8.405036725061827 4.3217978293518415
3.428849024895654 -8.359742142263526 4.792994887067493
4.292897385087293 -8.257744011915559 5.2521043831399075
5.154908322589204 -8.10292751461184 5.706917950837888
6.0076412081660955 -7.900836306608094 6.163846895465796
6.847073373471886 -7.662219350990889 6.626637524618856
7.6735511979525075 -7.402648863811801 7.096857928510185
8.491267535261974 -7.14018195339654 7.57604338442145
9.304888642610457 -6.894383287066831 8.066895560506756
10.115998414936959 -6.686593388420603 8.572312694228167
10.920887785335117 -6.539618502266007 9.093957727246258
11.710851832801984 -6.474555160219146 9.632171060468082
12.47263788813756 -6.508028378323211 10.18792607007734
13.186238003705206 -6.651654873671145 10.762322994775632
13.827003766441381 -6.910957168344679 11.351965102528803
14.376173557226169 -7.285713518988008 11.94785617388531
14.819657813437496 -7.77287303808917 12.541143140911776
15.14337848989527 -8.361385434876372 13.12239114484622
15.343791112443999 -9.027090901221934 13.682632260941944
15.439421967058006 -9.739804403830727 14.22022836674104
15.462342462150719 -10.476812743855557 14.7440869770315
15.439611976296373 -11.227299133205623 15.260412689310467
15.389785711008725 -11.980500225853618 15.764246005028317
15.33487986094894 -12.712866449192965 16.239585201252453
LINES 1 77
76 0 1 2 3 4 5 6 7 8 9 10 11 12 13 14 15 16 17 18 19 20 21 22 23 24 25 26 27 28 29 30 31 32 33 34 35 36 37 38 39 40 41 42 43 44 45 46 47 48 49 50 51 52 53 54 55 56 57 58 59 60 61 62 63 64 65 66 67 68 69 70 71 72 73 74 75
POINT_DATA 76
SCALARS MaximumInscribedSphereRadius float
LOOKUP_TABLE default
1.2
1.2106666666666666
1.2213333333333334
1.232
1.2426666666666666
1.2533333333333334
1.264
1.2746666666666666
1.2853333333333332
1.296
1.3066666666666666
1.3173333333333332
1.3279999999999998
1.3386666666666667
1.3493333333333333
1.3599999999999999
1.3706666666666667
1.3813333333333333
1.392
1.4026666666666667
1.4133333333333333
1.424
1.4346666666666668
1.4453333333333334
1.456
1.4666666666666668
1.4773333333333334
1.488
1.4986666666666666
1.5093333333333332
1.52
1.5306666666666666
1.5413333333333332
1.552
1.5626666666666666
1.5733333333333333
1.584
1.5946666666666667
1.6053333333333333
1.616
1.6266666666666667
1.6373333333333333
1.6480000000000001
1.6586666666666667
1.6693333333333333
1.68
1.6906666666666668
1.7013333333333334
1.712
1.7226666666666666
1.7333333333333334
1.744
1.7546666666666666
1.7653333333333334
1.776
1.7866666666666666
1.7973333333333334
1.808
1.8186666666666667
1.8293333333333335
1.84
1.8506666666666667
1.8613333333333335
1.8719999999999999
1.8826666666666667
1.8933333333333335
1.904
1.9146666666666667
1.9253333333333333
1.936
1.9466666666666668
1.9573333333333334
1.968
1.9786666666666668
1.9893333333333334
2.0
SCALARS Curvature float
LOOKUP_TABLE default
0.0
0.09618307012731284
0.05743847043389782
0.027535456603861752
0.05372884134994344
0.14685825133985211
0.22767917667428153
0.2592769631190791
0.25375172466956486
0.18289826783802168
0.14010230663290554
0.12306873999365509
0.1205242974576924
0.1149652178593207
0.10588411204473715
0.10271728528676949
0.1292682169130288
0.1725928362986555
0.34613914044906935
0.5406261779575686
0.621776081785576
0.5831156633022248
0.49109768257883507
0.3394033740858645
0.2345477731717613
0.15409265220377244
0.07712967837094618
0.038422755613508136
0.11599814057908606
0.20385078975566678
0.2433282532970761
0.25083611524174493
0.24985019726748697
0.23671241073419216
0.19973568377840217
0.1669173229941665
0.14014182435662081
0.10351693631664624
0.07199918238039313
0.04046184700384775
0.01662141558419835
0.05489074511402154
0.08631809583567604
0.10771331929457617
0.1274005895963563
0.1461402316212266
0.15954742322500554
0.16130843945059548
0.1505537272740201
0.13267360450912927
0.11130960569594064
0.08937868718938846
0.07142170559813985
0.05992538250287613
0.05420202704910176
0.04925551618249551
0.04026545346495306
0.026413138045497008
0.013115686509938879
0.021464933086720244
0.04252044373229545
0.06680715768109106
0.09175051186895064
0.1158351244192789
0.14023606170134856
0.164787109991994
0.18291139683455457
0.19363428683729178
0.19588782255163603
0.18116314812956286
0.14337043509725228
0.09412879689369506
0.05717645788768572
0.036152046044641055
0.018873426608040124
0.0
SCALARS Torsion float
LOOKUP_TABLE default
0.0
0.0
0.21489723877592673
0.9089710554424011
0.49156823104269304
0.1304023946211778
0.09969401252195483
0.14671108939504976
0.21354103935336619
0.42073821919904175
0.3435610824084306
0.11075897395291068
-0.038170412843935145
0.019953536823850253
0.12764156608957572
0.33084322282041323
0.42329844908547787
0.3315470179276954
0.13369685863720082
0.10624648930895332
0.10285194221002647
-0.06050375333596941
-0.0684208302615717
-0.12258151772372418
-0.19456190375933605
-0.2798049287305148
-0.6029236761446506
-0.9875613830731179
-0.31474628629178236
-0.08519989343045781
-0.0920147894218933
-0.14384304672773005
-0.1368412420338666
-0.11003037698642139
-0.0015081263999151134
0.0710134554247225
-0.0202283837119437
-0.02252457899548297
0.008437168999012153
0.16815124517726004
0.9908071566974643
0.21659829688548526
0.01070869529170268
-0.05211519242681046
-0.07272903289274603
-0.06860303635680688
-0.04663865444696723
-0.0276983794076616
-0.02564570069598744
-0.047050764779610954
-0.10571520877167095
-0.1391948332354654
-0.010780857919190229
0.14997529321795317
0.21158373137560363
0.19922530608108213
0.20158327949469482
0.3310062878898079
0.8874091763874316
0.5291755517861111
0.142060288818268
0.04426106824825024
0.00469499157886577
-0.03237587116676933
-0.06546887423474344
-0.06269809257095908
-0.02194806363332428
-0.013285541643926192
-0.035177001521456065
-0.05261035170991937
-0.06750340167544161
-0.12380814129232466
-0.06718246420597988
0.1982909939629227
0.8879345999556613
0.0
