# vtk DataFile Version 2.0
Vessel Segment
ASCII
DATASET POLYDATA
POINTS 76 float
-4.471031253290399 17.20120238885245 -5.5772966570887625
-4.878475239702702 16.518964001675613 -5.531534747462372
-5.335079724872117 15.766853623739172 -5.424578592225321
-5.817497902027807 14.984199424177419 -5.306106746219179
-6.311184209572875 14.205766568216507 -5.214617848024141
-6.810700776021256 13.442235176576194 -5.20020971153792
-7.297437548253037 12.70483106661456 -5.320140419843483
-7.729391174261416 12.012166475088229 -5.620402349963253
-8.06276853322363 11.373693023333063 -6.092466055245497
-8.268690052714593 10.774551555502343 -6.68639514158015
-8.34667134286962 10.201848561540407 -7.343778847854114
-8.30724333170552 9.644327520325026 -8.03107668923796
-8.157029879942726 9.0987189738223 -8.722393519275906
-7.894027152742384 8.570909864949975 -9.407909874376498
-7.5236934139065115 8.06214376180329 -10.065889765520863
-7.061102165010317 7.566726189801359 -10.669858349421945
-6.5397252537440425 7.072777639263484 -11.192897536543795
-6.006491856947305 6.555173717634604 -11.58903583364913
-5.5150716136470415 6.011952369793219 -11.81213346970981
-5.119673139471243 5.4772549347127715 -11.79410019951219
-4.865337615692359 4.99967863443685 -11.528886123611437
-4.7638018452298825 4.604876463971424 -11.068397795437653
-4.791543700442539 4.307725183727023 -10.468782949830683
-4.907742248310273 4.117713014912697 -9.77859262525024
-5.076785901645076 4.026136607077669 -9.035089480952962
-5.275054997716314 4.007663501466785 -8.265633638987326
-5.483159797041204 4.027154437013056 -7.484885676065569
-5.684285403232325 4.048571960472312 -6.700587553638743
-5.863105561023631 4.039802115023382 -5.915380427674654
-5.999295803202171 3.966392848845789 -5.123467364567226
-6.066632561835585 3.7901364614910085 -4.3297823784427765
-6.057971172220453 3.4892543013429638 -3.56123343241137
-5.983504834703148 3.05845418571468 -2.849988963350086
-5.861495325621957 2.5131313619558626 -2.219063630582003
-5.706819275440323 1.8809353330416836 -1.6729060147040857
-5.525124928504106 1.185635821511084 -1.204225921610507
-5.318288582904917 0.4437005722576069 -0.8074664664847692
-5.0929456726567475 -0.3319681602101356 -0.4774672959192733
-4.8538391617908685 -1.1306345211319713 -0.20107362764146797
-4.602442611944665 -1.9413292734094374 0.03576650188882902
-4.334201582043218 -2.7515871867917596 0.249460358507181
-4.035661500246579 -3.5520598320588372 0.45929844497461436
-3.6951926892057196 -4.335818598147658 0.6811998851309544
-3.3059694902894323 -5.095028521143188 0.9297395195313506
-2.86219353528074 -5.819632186079562 1.2139256424063058
-2.360122418598671 -6.496625072622382 1.5334716615266226
-1.7988926685006117 -7.111927024620585 1.8842372209372673
-1.1800983314751063 -7.652017338963251 2.2626174651204107
-0.5078228897216474 -8.105097685430382 2.667957282437894
0.2102249279698585 -8.460895195147263 3.1018460551616602
0.9625974372408871 -8.71295388546494 3.560146630247608
1.740588550397014 -8.866074456703704 4.02821033735928
2.5421522557694742 -8.934267971646959 4.491379040732525
3.362736761952613 -8.928317806479646 4.944829420309288
4.1916725390117495 -8.85309918391187 5.391020027402779
5.017173555728135 -8.71164017887573 5.835017502760721
5.8312112684420185 -8.50927978592622 6.280661802272746
6.630974293931407 -8.255677686352112 6.729495727005317
7.418102768156716 -7.964842754808559 7.181120228833655
8.197494492556478 -7.653595128394086 7.634165248472832
8.975897019335978 -7.339691844157595 8.088122593005625
9.759246060987017 -7.041938717850422 8.545029990431543
10.549326664493401 -6.781508397236934 9.009051531598688
11.343337993682896 -6.580870690368953 9.484487289180777
12.13329388495289 -6.462868096314735 9.974733610723355
12.9030397519378 -6.448388781780567 10.48072430766991
13.630139337656049 -6.5512740959687745 10.998593633304568
14.29330139575258 -6.776286412191339 11.520816390467697
14.873661594879618 -7.121584475587001 12.040143007797251
15.3563531286994 -7.578475134413606 12.5502879730624
15.73736277380923 -8.131375656035868 13.047201562081883
16.026918895384146 -8.75986123012141 13.53158733345335
16.240743834011397 -9.442231827353769 14.010108183617447
16.38912460519815 -10.155433927317702 14.489164994571551
16.476295910442907 -10.867194968425832 14.973977429500243
16.519345968067025 -11.539905952239083 15.456137887968987
LINES 1 77
76 0 1 2 3 4 5 6 7 8 9 10 11 12 13 14 15 16 17 18 19 20 21 22 23 24 25 26 27 28 29 30 31 32 33 34 35 36 37 38 39 40 41 42 43 44 45 46 47 48 49 50 51 52 53 54 55 56 57 58 59 60 61 62 63 64 65 66 67 68 69 70 71 72 73 74 75
POINT_DATA 76
SCALARS MaximumInscribedSphereRadius float
LOOKUP_TABLE default
1.2
1.2106666666666666
1.2213333333333334
1.232
1.2426666666666666
1.2533333333333334
1.264
1.2746666666666666
1.2853333333333332
1.296
1.3066666666666666
1.3173333333333332
1.3279999999999998
1.3386666666666667
1.3493333333333333
1.3599999999999999
1.3706666666666667
1.3813333333333333
1.392
1.4026666666666667
1.4133333333333333
1.424
1.4346666666666668
1.4453333333333334
1.456
1.4666666666666668
1.4773333333333334
1.488
1.4986666666666666
1.5093333333333332
1.52
1.5306666666666666
1.5413333333333332
1.552
1.5626666666666666
1.5733333333333333
1.584
1.5946666666666667
1.6053333333333333
1.616
1.6266666666666667
1.6373333333333333
1.6480000000000001
1.6586666666666667
1.6693333333333333
1.68
1.6906666666666668
1.7013333333333334
1.712
1.7226666666666666
1.7333333333333334
1.744
1.7546666666666666
1.7653333333333334
1.776
1.7866666666666666
1.7973333333333334
1.808
1.8186666666666667
1.8293333333333335
1.84
1.8506666666666667
1.8613333333333335
1.8719999999999999
1.8826666666666667
1.8933333333333335
1.904
1.9146666666666667
1.9253333333333333
1.936
1.9466666666666668
1.9573333333333334
1.968
1.9786666666666668
1.9893333333333334
2.0
SCALARS Curvature float
LOOKUP_TABLE default
0.0
0.06456040768065638
0.010139186119037732
0.034417385511713576
0.09342335523075074
0.1706877991704407
0.25059378783700714
0.26926223244860203
0.23274484781262073
0.18574751207630558
0.15252755316207753
0.13763081573458597
0.1372062842874646
0.13389984165851465
0.12989453998111372
0.12483261127958062
0.1731489272138577
0.28187152302671237
0.5170224488903101
0.663674739189319
0.58329230218173
0.4096190842923946
0.2764086680732946
0.18858435525117295
0.12128304563932991
0.05841358133122851
0.011996294076774397
0.05753490836456378
0.11854094126761465
0.18190302580103068
0.21157368093769885
0.21828955342777173
0.20304305346577597
0.17099257777381102
0.13833339101448783
0.11719048203957627
0.10009724401557166
0.07687841382251649
0.05525416934198089
0.03694852170587483
0.041414082892039114
0.05960980205962595
0.07612771852418654
0.09075841224736722
0.10136502280262692
0.11065891820029844
0.11983586986490778
0.12748830421722945
0.1324287496153879
0.1318261241454614
0.11992354068526413
0.1011963148693655
0.08641897608426201
0.07778114076735825
0.07343322120828479
0.06846737326239559
0.058685721040614404
0.04330719784370611
0.024020135979534476
0.003223117744347484
0.018812075608742526
0.04248111644748846
0.06779701504341139
0.09515721341119457
0.12446402597238841
0.15313296770592505
0.17782018581594566
0.19817641436490266
0.20854806237301557
0.19820851329259997
0.16387677092943237
0.12205120283573342
0.09300184954987369
0.0817102150582802
0.06842973888467663
0.0
SCALARS Torsion float
LOOKUP_TABLE default
0.0
0.0
0.9988702876136155
0.2842037287165218
0.09884309823619614
0.08943983747648815
0.11220274788911694
0.1696475513979645
0.30858430262258474
0.3236479564234873
0.242431390240854
0.1815467725640203
0.017717718441011082
0.12014203720642772
0.21780649856161763
0.3669188768574373
0.4318143301611767
0.2248799705928872
0.014683728818985803
0.02635611877195769
0.0717998149185284
-0.06638126618524508
-0.2328823037323401
-0.22571010178014442
-0.12991019701697984
-0.27603164073586367
-0.9999871844014678
-0.2376159633188849
-0.024258844957163378
-0.005432260642049394
-0.07692477666523354
-0.12323871494807803
-0.11672547522750763
-0.060482533413633244
0.028142975661061928
0.0552828396807579
-0.02464519641077032
0.0064264673204241125
0.12985827521651086
0.593603715725318
0.6435942907573581
0.28623954348644604
0.17709888636281418
0.06629501888139996
-0.027619355714839047
-0.042195310270222684
-0.018567055985521486
0.019933035877438592
0.05249911029266847
0.02295889395365509
-0.08903425853369015
-0.17251242465988506
-0.06242080234977625
0.09892411166777128
0.15880831491128825
0.12927024799852982
0.08478154136702191
0.05065318948073415
0.021531559444748757
0.932845546013441
0.07899364270723597
-0.03184452019401951
-0.03965791633434572
-0.039658217480390064
-0.047743488758821576
-0.044954188173770004
-0.03109510011692803
-0.036304546108583226
-0.044127242848314804
-0.040376145223766174
-0.0434217140116212
-0.11608389835121508
-0.23239959798625873
-0.40769344886244013
-0.5075822050701656
0.0
