# vtk DataFile Version 2.0
Vessel Segment
ASCII
DATASET POLYDATA
POINTS 76 float
-3.7320033823868566 17.472746812158224 -5.376109762884125
-4.127067487720082 16.73756993306152 -5.26658375697797
-4.580077447707967 15.949868410659745 -5.091175893974605
-5.071893655025737 15.140669208982658 -4.888731883762271
-5.594290446943667 14.334763694783575 -4.6978025211550865
-6.142400756413237 13.53855938193671 -4.560929590840434
-6.703742915289891 12.755927479932787 -4.541488380361982
-7.24529166272851 12.012331768333478 -4.708710821883197
-7.718735655557705 11.329994773419823 -5.090460207102383
-8.084126706019509 10.700037902473246 -5.649832367568991
-8.335240104190557 10.100894735697024 -6.3096050745201415
-8.467180472547849 9.50986023216476 -7.021840152999237
-8.472697162496518 8.917722168212942 -7.750420563166294
-8.337416022033839 8.332615210918517 -8.486330993540902
-8.061332027150277 7.769670201399559 -9.209304932353366
-7.666333924725989 7.234381925175981 -9.906043464037321
-7.188327744399032 6.7212987022269415 -10.55565769388161
-6.666047223473926 6.217233227024177 -11.132508243619034
-6.128019971508517 5.685356983575658 -11.604596283778234
-5.633020341437931 5.126166469583096 -11.86932671595897
-5.239173082370876 4.583363878796501 -11.87641133615272
-4.9765673618521795 4.094003908333457 -11.63239035163989
-4.850729121757127 3.6998953241881405 -11.151059806768057
-4.868541817766551 3.446035622989094 -10.474530243787688
-5.001085571548774 3.3440603009652614 -9.696064018803794
-5.204354876351889 3.3647048129002086 -8.887219005593538
-5.4432530349556565 3.462934638979395 -8.074326864036566
-5.689274914376932 3.595543059300043 -7.264417516317888
-5.913550958715148 3.714187356865018 -6.455229812752434
-6.097016175333942 3.7676459702339353 -5.644428101683493
-6.229711954460691 3.7217071170166065 -4.836643713013158
-6.298547771241577 3.547166475850174 -4.043658314104616
-6.2948229629294365 3.219894943281206 -3.2963336045868186
-6.227077434669104 2.7426849255126164 -2.6240654734347637
-6.110216766554347 2.136498858970755 -2.0424960059338937
-5.9525155230765705 1.424927738875669 -1.5591067826012635
-5.758901932787781 0.6323023824939743 -1.1736019859422901
-5.533601484461968 -0.2156806714696161 -0.8748784053683636
-5.283443552900323 -1.0941418313864646 -0.6442920281037097
-5.012578218635898 -1.9812336360173104 -0.45769747813989486
-4.714114788685598 -2.858648819483568 -0.2901481296124586
-4.374504026747076 -3.71340315963783 -0.1198519884285495
-3.98201366105805 -4.535349608884193 0.07145984159667712
-3.5288557250354335 -5.314431931950295 0.295588220111544
-3.0097099654869903 -6.041187857359814 0.5562104573218188
-2.421124456868461 -6.70457015356137 0.8536305779472646
-1.7625041427995094 -7.288824221089593 1.189983185113222
-1.039180139711808 -7.774387598702253 1.5679327489759651
-0.2654850646835777 -8.145985684167885 1.9871377469254496
0.5390952168872192 -8.400144647878342 2.4427759413690517
1.3594089480891742 -8.542973677906007 2.9250776587639535
2.1899398352270905 -8.586201279955512 3.41910566366915
3.0316485834611635 -8.545191198303971 3.910729865889111
3.8820845108631463 -8.433397042661865 4.394561413670077
4.732811990561306 -8.260776230763918 4.874373156105071
5.573715916819117 -8.035698965639973 5.359148070528355
6.396685815026582 -7.76648247024306 5.857160536802022
7.198096431394448 -7.463305813497913 6.371989614067695
7.980083522471319 -7.140562010833105 6.902570359859179
8.749314185376088 -6.816502367027317 7.445191833409698
9.513721416456118 -6.511374310688965 7.995169240037818
10.278769562544166 -6.247016396511593 8.548838716124445
11.044135030350462 -6.04777095391093 9.10640764679971
11.801571680925543 -5.939139869495786 9.672624225300932
12.534023839166231 -5.9435715235985365 10.253690515114954
13.215608257671162 -6.075511464851388 10.85232454330728
13.818369946416711 -6.336286784535077 11.462970395109553
14.327145763719706 -6.715780814313692 12.073727103244385
14.736966080469314 -7.201059429001665 12.674209949652138
15.046496513676642 -7.775909739803797 13.255276606917382
15.263921826677796 -8.422463491100343 13.811783854336587
15.406119544342209 -9.124971159962312 14.345342958620702
15.496671581837163 -9.868340972252296 14.860808316488212
15.562427105989693 -10.638346917374633 15.360169825570626
15.632293175000347 -11.414617658608726 15.841451425161505
15.726575316160957 -12.163984172841555 16.296888057260478
LINES 1 77
76 0 1 2 3 4 5 6 7 8 9 10 11 12 13 14 15 16 17 18 19 20 21 22 23 24 25 26 27 28 29 30 31 32 33 34 35 36 37 38 39 40 41 42 43 44 45 46 47 48 49 50 51 52 53 54 55 56 57 58 59 60 61 62 63 64 65 66 67 68 69 70 71 72 73 74 75
POINT_DATA 76
SCALARS MaximumInscribedSphereRadius float
LOOKUP_TABLE default
1.2
1.2106666666666666
1.2213333333333334
1.232
1.2426666666666666
1.2533333333333334
1.264
1.2746666666666666
1.2853333333333332
1.296
1.3066666666666666
1.3173333333333332
1.3279999999999998
1.3386666666666667
1.3493333333333333
1.3599999999999999
1.3706666666666667
1.3813333333333333
1.392
1.4026666666666667
1.4133333333333333
1.424
1.4346666666666668
1.4453333333333334
1.456
1.4666666666666668
1.4773333333333334
1.488
1.4986666666666666
1.5093333333333332
1.52
1.5306666666666666
1.5413333333333332
1.552
1.5626666666666666
1.5733333333333333
1.584
1.5946666666666667
1.6053333333333333
1.616
1.6266666666666667
1.6373333333333333
1.6480000000000001
1.6586666666666667
1.6693333333333333
1.68
1.6906666666666668
1.7013333333333334
1.712
1.7226666666666666
1.7333333333333334
1.744
1.7546666666666666
1.7653333333333334
1.776
1.7866666666666666
1.7973333333333334
1.808
1.8186666666666667
1.8293333333333335
1.84
1.8506666666666667
1.8613333333333335
1.8719999999999999
1.8826666666666667
1.8933333333333335
1.904
1.9146666666666667
1.9253333333333333
1.936
1.9466666666666668
1.9573333333333334
1.968
1.9786666666666668
1.9893333333333334
2.0
SCALARS Curvature float
LOOKUP_TABLE default
0.0
0.06530034485324798
0.03056351096746447
0.03212731304017929
0.06353025671854047
0.12733968451264158
0.21563563477314038
0.2719927577528289
0.24668250785162632
0.17753055138705634
0.14676927986729604
0.14292242213674283
0.15343362446126688
0.15383167996776634
0.13287326259400736
0.10680967897358441
0.0949297141632918
0.13191373462861206
0.3070717127877799
0.5322077186236555
0.6547346393909088
0.5923324193029136
0.4361348988983919
0.2935314038983915
0.1929211767899156
0.11275553387691475
0.047563110653432925
0.033989099254392426
0.10915041591981164
0.16437759101174662
0.21371830709450226
0.2556554059016958
0.25281953065389684
0.2201572388047435
0.186811674804721
0.15440066279210635
0.11970149533888327
0.08599525724257281
0.054789022183024366
0.039109081172517594
0.05339169396018022
0.07563167168135203
0.09385423685492661
0.10540074949002368
0.11426195839659004
0.12516635219934424
0.13683450967326752
0.1419960904828382
0.13638719611951944
0.12366987082402708
0.10676090495267308
0.08819040265585745
0.07284921585306818
0.06122729738830839
0.05360034239309489
0.049377978576815376
0.04357322140266288
0.03182785251082147
0.017508740995524862
0.020555443469970115
0.04164004812643025
0.06857390401785422
0.09970311327709516
0.1322941258605743
0.16295636649653622
0.1859864463276169
0.19267497716645512
0.18769110343652823
0.17548537240061482
0.15160782134879794
0.11814093573573994
0.07953983177578702
0.04487018900602635
0.022857504505483465
0.037667295247408375
0.0
SCALARS Torsion float
LOOKUP_TABLE default
0.0
0.0
0.682492793983384
0.7022460008879898
0.30085077205227584
0.1534866850711829
0.08047833636865957
0.10708194206931528
0.22127378970899966
0.3476777942733413
0.36536618486801675
0.24965262040374933
0.0029884254323984394
0.007371318087428494
0.025572995434165528
0.2109599019818166
0.4442713694742159
0.43285135825501997
0.13323092808301423
0.04001680685799072
0.025749280002121722
-0.0872029466676485
-0.05070947469729949
-0.06997133699626244
-0.09024552229592372
-0.10950949255371444
-0.48210831019411676
-0.8349396816885116
-0.16735914740445257
-0.07882316877024183
-0.022901796485085106
-0.04485122312298299
-0.0761194754150779
-0.0720880211438941
-0.01636524992854782
0.02028150329543516
0.05714313947093495
0.0720465367508302
0.25529970056559614
0.7195409642286289
0.45070934873865276
0.2039223574805129
0.08774839841854518
0.006343699027342539
-0.015311900321763137
0.012288625363303758
0.033802341414555945
0.04524730979892139
0.04617036117042021
0.0036164264560231973
-0.09672352180222527
-0.1690442293076527
-0.07786173183983482
0.1145457205775927
0.25578716850460176
0.2635497391628819
0.21582012408279178
0.2819852641384709
0.7601418623129456
0.6788585088135994
0.19032485059809784
0.011876160994218177
-0.06319559682604141
-0.08967723402081113
-0.09677062061782661
-0.0808621274450444
-0.03017880036585134
-0.00656699091903367
-0.010785075931192559
0.0020771325542581695
0.013557238808853553
0.06473121741861404
0.37867083653077227
0.9460072707455465
0.5695287397472478
0.0
