# vtk DataFile Version 2.0
Vessel Segment
ASCII
DATASET POLYDATA
POINTS 76 float
-4.15276067309653 17.276610227717136 -5.782001475461217
-4.493223661266625 16.515174800064784 -5.733574763020614
-4.916860938659959 15.733800432725966 -5.592925632979535
-5.393951314094598 14.95658570961447 -5.386533661020444
-5.911958359237563 14.192035697050596 -5.164669518175605
-6.461743607972892 13.446778322513586 -4.982514930633849
-7.034818943282703 12.726440605035652 -4.916888122610995
-7.597472818488989 12.055988431855766 -5.042640059879721
-8.108188188518474 11.421217370810963 -5.374156392968232
-8.507346690477513 10.819891075545344 -5.914219457509457
-8.782404761756174 10.244082295186958 -6.570062008251697
-8.927017543396204 9.674979338006725 -7.280340377091662
-8.93718536386377 9.09882987032383 -7.992740250918319
-8.803211540506043 8.518535051787069 -8.689121706514104
-8.517171023067934 7.950952477248062 -9.353114631818327
-8.084466666080985 7.41722679888791 -9.981800088316108
-7.526247709646259 6.9281983636288755 -10.599721462624025
-6.8554455959927525 6.449882710174048 -11.2491958660545
-6.114528299517059 5.905433328849957 -11.849155584712351
-5.384482316792281 5.260589005692382 -12.27017084973898
-4.759693817463235 4.5432997344268005 -12.400445278892802
-4.322592952981898 3.825355551883671 -12.181019720422418
-4.118097585817407 3.207877674594082 -11.633865815305148
-4.149988663654861 2.792405273466795 -10.862137313019229
-4.360189669634701 2.598651628532139 -9.999034934459187
-4.695996735995846 2.595949969731199 -9.118577894015308
-5.118669479714749 2.7461231441415346 -8.267707151944373
-5.5737751358741345 2.992612505510097 -7.4542073782231215
-5.99697949498214 3.2724020790450776 -6.633427148818418
-6.3218694531147035 3.5231771066391095 -5.76111281684934
-6.492509758664694 3.679103694354617 -4.837295591946792
-6.504903364865651 3.6996300971065246 -3.905186594925161
-6.3835550843885525 3.5671243990306194 -3.009822509708001
-6.156405600885872 3.275294523134692 -2.175650333853962
-5.853355463471445 2.8241060667563986 -1.4224395002476375
-5.500400226494749 2.2323167149296275 -0.7707538942197941
-5.1198098713276625 1.5316846636143853 -0.2327388017482974
-4.7332264081366695 0.7541973625818243 0.1879636686524259
-4.36485546830059 -0.07291021035787495 0.49026484326407826
-4.0389129847984835 -0.9275647693499284 0.6755045348977534
-3.7572375519517154 -1.7920135830277713 0.7650524233037084
-3.496509489444004 -2.6618488731495575 0.8026545790580294
-3.2259937277683224 -3.5396425433412784 0.8315412840512897
-2.915896711262381 -4.417552876592954 0.8795625573248596
-2.5414759570285193 -5.276177064889246 0.9646209768684533
-2.0862229463335407 -6.089050143379883 1.1042933895960179
-1.543723146318358 -6.825145586794019 1.3159737219004501
-0.9170332267028405 -7.45356556455227 1.6116892302635273
-0.21829840323481003 -7.951851222006542 1.9911406981894408
0.5336875906416151 -8.312312836070921 2.441377880254895
1.3181875770390792 -8.538178789845638 2.9431790134715805
2.1170491790594457 -8.639786207945608 3.473780641353343
2.9201623588145167 -8.632668677942872 4.013194563320815
3.7205262805066 -8.530120421657573 4.5521817934371045
4.511116051046515 -8.345608423068919 5.089379906056799
5.287119558919015 -8.097980925968178 5.626967208873292
6.048826330563227 -7.811375145898638 6.166542573538413
6.800678653556131 -7.5089083110971835 6.70801400160222
7.546801471059103 -7.209256821857276 7.250281298900234
8.28901723588234 -6.928236086100113 7.791893080686304
9.027985034022786 -6.679599429191728 8.331126389932635
9.765716429815033 -6.474719470537657 8.865386747205479
10.5067443130783 -6.32607041419187 9.393262218372811
11.25395329824717 -6.251321677460337 9.916313884984346
12.003962090660103 -6.268284020803487 10.43630767197701
12.749187070194399 -6.3892984678738 10.955240585989644
13.475331262869192 -6.627940268146334 11.478735372710057
14.14936172447557 -6.9997855503066875 12.009655065466857
14.731059076082666 -7.510663814220468 12.53816165452026
15.187816592614281 -8.1557046284372 13.043996971599258
15.503150353824735 -8.916042203576918 13.502271941707361
15.684797484394524 -9.763455467722336 13.894503018232143
15.751874892740165 -10.670793936750995 14.216835540512774
15.725781949816541 -11.612769167346332 14.480579780774612
15.63772923788473 -12.561726019279297 14.712478012000517
15.531041298520025 -13.484614481459577 14.939060794047952
LINES 1 77
76 0 1 2 3 4 5 6 7 8 9 10 11 12 13 14 15 16 17 18 19 20 21 22 23 24 25 26 27 28 29 30 31 32 33 34 35 36 37 38 39 40 41 42 43 44 45 46 47 48 49 50 51 52 53 54 55 56 57 58 59 60 61 62 63 64 65 66 67 68 69 70 71 72 73 74 75
POINT_DATA 76
SCALARS MaximumInscribedSphereRadius float
LOOKUP_TABLE default
1.2
1.2106666666666666
1.2213333333333334
1.232
1.2426666666666666
1.2533333333333334
1.264
1.2746666666666666
1.2853333333333332
1.296
1.3066666666666666
1.3173333333333332
1.3279999999999998
1.3386666666666667
1.3493333333333333
1.3599999999999999
1.3706666666666667
1.3813333333333333
1.392
1.4026666666666667
1.4133333333333333
1.424
1.4346666666666668
1.4453333333333334
1.456
1.4666666666666668
1.4773333333333334
1.488
1.4986666666666666
1.5093333333333332
1.52
1.5306666666666666
1.5413333333333332
1.552
1.5626666666666666
1.5733333333333333
1.584
1.5946666666666667
1.6053333333333333
1.616
1.6266666666666667
1.6373333333333333
1.6480000000000001
1.6586666666666667
1.6693333333333333
1.68
1.6906666666666668
1.7013333333333334
1.712
1.7226666666666666
1.7333333333333334
1.744
1.7546666666666666
1.7653333333333334
1.776
1.7866666666666666
1.7973333333333334
1.808
1.8186666666666667
1.8293333333333335
1.84
1.8506666666666667
1.8613333333333335
1.8719999999999999
1.8826666666666667
1.8933333333333335
1.904
1.9146666666666667
1.9253333333333333
1.936
1.9466666666666668
1.9573333333333334
1.968
1.9786666666666668
1.9893333333333334
2.0
SCALARS Curvature float
LOOKUP_TABLE default
0.0
0.12760974534311126
0.08634866444306694
0.04733886961385212
0.06078655665663906
0.14077796794889597
0.2471072898081584
0.2698861929196406
0.27896447586413137
0.19919544116358845
0.1638712825564377
0.15892434982364004
0.17056867970768
0.18162215748134897
0.1741326493754594
0.1348758424696044
0.07187624899908161
0.07822505173746286
0.1798339126857266
0.32705383219836576
0.48221597327423277
0.5094806355227461
0.4442423551586121
0.33465171022209844
0.24407230037558947
0.18657006554559355
0.11560606964184893
0.05006126827822652
0.12266340208982314
0.20453192812880905
0.23522526468721103
0.24266896815928293
0.23531545982084504
0.21754038064089237
0.19398178543259945
0.16866125326415435
0.1490062423500927
0.14133921365783877
0.1446492166626158
0.12513365416559624
0.06791954097482321
0.013545081857599686
0.047808725000129934
0.08552374500309756
0.12050557355413714
0.15379116237920806
0.18093237839199844
0.1903804477255823
0.17860134656394808
0.1578029487328239
0.13625892191338315
0.11568838011358895
0.10072909135666892
0.08662670136772871
0.06773281206069573
0.043541130214239186
0.019680927178354176
0.0045146279395512755
0.018275099802429192
0.03358660391740214
0.048101534152623665
0.06554642228484837
0.08839120252919593
0.1097072478068192
0.12299635986855476
0.1365073200105054
0.16083665780892617
0.18674345293815833
0.20566801601754778
0.20784802366738991
0.18661725147649152
0.15421687157184905
0.11811153408380132
0.07247797512215397
0.02351876753418991
0.0
SCALARS Torsion float
LOOKUP_TABLE default
0.0
0.0
0.01966153088615169
0.7770222220409226
0.631333982669608
0.2142921771910694
0.11104996013914396
0.2067261628662083
0.19547129721362555
0.3194400144165915
0.3754436361437803
0.3385416559045622
0.06207626664164834
-0.022839628114505427
-0.09943286722427003
-0.22997724659325475
-0.15817656738795563
0.6315051191422422
0.1408818454334423
0.026347540225152552
-0.010164518738858801
-0.04516340856293289
-0.05831792067287647
-0.05819919986720057
-0.020281292404296332
0.01801869555901476
-0.18548072526303822
-0.9767124963957519
-0.3545615081499345
-0.14261279769924004
-0.14236575487531353
-0.1569780164584612
-0.14140176743828817
-0.13948497497077386
-0.0798658707488921
-0.04193712094833735
-0.05774801762245443
-0.1079082299136119
-0.13736040442618835
-0.06753322301764758
0.09789265498013516
0.9998165228168813
0.28144167587943913
0.025088408888425506
0.031537846965731
0.04612019412999059
0.03782044840121294
0.014529423736700808
-0.007198179039539444
-0.022985456564768275
-0.05837452453147937
-0.09704727014178499
-0.03899240400896968
0.04243723782411073
0.10792282982434431
0.1631329242773221
0.3445806122002684
0.9997675222708677
0.2326878406470455
0.06201391544660964
0.06108183288364383
0.041205756259943
-0.021081805019782587
-0.04977203967199943
-0.0603112316896661
-0.09942739878980983
-0.11585576076467587
-0.06056336966272421
-0.0024555541371711204
0.037736375079788144
0.07337178947897369
0.05737529043340496
-0.02151131225482976
-0.21742401251420534
-0.9389817590963201
0.0
