# vtk DataFile Version 2.0
Vessel Segment
ASCII
DATASET POLYDATA
POINTS 76 float
-5.53737387614692 17.78332270452718 -4.456704424585561
-5.923624912110895 17.00563307376818 -4.524461772173029
-6.327989058910677 16.16421951096928 -4.52167582511572
-6.753658561831544 15.288392986643258 -4.47369256561258
-7.200348975471689 14.413943441297963 -4.407579162090746
-7.671381273444303 13.54928290199316 -4.379710006105883
-8.15236098313212 12.706480766759965 -4.493181707909152
-8.5830241670796 11.92589950866368 -4.818366129317975
-8.91700848447619 11.225640445006423 -5.358844455200773
-9.085445763375436 10.6101646703747 -6.078154151709287
-9.110710849202517 10.010013560616844 -6.845071789265512
-9.023275145634186 9.396627910122934 -7.60264214088598
-8.835877131142391 8.770146829514996 -8.331457851748127
-8.545594378304292 8.158983244065098 -9.047248357546334
-8.158728927745369 7.586907290436138 -9.749154904200859
-7.668737928554876 7.066242313667404 -10.428826410419505
-7.0791799962777615 6.6074774802306555 -11.083840223300877
-6.4021916525131495 6.1889781353444295 -11.706452019330314
-5.658984241633696 5.765604880691553 -12.228294912511615
-4.9057755758522275 5.325532323241747 -12.536500087994964
-4.231724757578833 4.908597988278876 -12.510217196716464
-3.6951798407946264 4.522766006766052 -12.181094067865468
-3.3449550970553563 4.165362968082831 -11.608412317013356
-3.208362148380692 3.87498079101659 -10.839292640756616
-3.264208914518154 3.7046514801761123 -9.958969442507698
-3.4411592963916946 3.6533800235056164 -9.051094554699084
-3.6699323938098525 3.685445120863323 -8.144224031681635
-3.913075593607261 3.7631982811305775 -7.242807656463231
-4.1568054376724515 3.847447233182202 -6.357685061875653
-4.389772896827505 3.889560643096167 -5.504372752820022
-4.612975780577039 3.8526629791617006 -4.696792177964091
-4.822616982679465 3.702972304003867 -3.9213749743289847
-5.008535105939196 3.397933078421727 -3.1718040477096174
-5.16533106957383 2.918748680148828 -2.469007811788513
-5.287648517494041 2.285702944491356 -1.8360570063577821
-5.364869322256269 1.5398937918973152 -1.2812772544108668
-5.394873020438615 0.719247441831077 -0.7973264234265871
-5.377693854607995 -0.15025871942380134 -0.36751421069715545
-5.308455050443251 -1.0511121799065097 0.014890635933020112
-5.17895611756514 -1.9666017641030387 0.3470171429237319
-4.9812746443214495 -2.8798726929061678 0.6241278190915008
-4.708018441680555 -3.776252260214609 0.8400061858797959
-4.353578337129166 -4.643088872139384 0.9979274341017657
-3.909536058576862 -5.465854917028879 1.1261803263787553
-3.3660978097805776 -6.223330709156886 1.2590924911929777
-2.723200777175855 -6.893219917899015 1.4165187541463817
-1.9885687854938823 -7.458880703102003 1.6126575527167533
-1.174748574148297 -7.90732502351397 1.858707776282301
-0.3038661621840247 -8.230732616739074 2.16026990349965
0.5931841468150307 -8.43094415638567 2.515596685518745
1.4901403469390948 -8.517780066271504 2.913013160814028
2.3745035963324694 -8.508326189001275 3.3322636556410936
3.244916084502849 -8.42523281576251 3.758022958111207
4.104363828007788 -8.287029726481508 4.188137984593691
4.956118189223055 -8.103912357742969 4.628940341390638
5.798196345856795 -7.880561972190134 5.089062554590917
6.622385701394535 -7.6191435841692945 5.574203618347662
7.420502497009241 -7.322189569991737 6.083288539213464
8.191964127044345 -6.9994816810813285 6.610513821200873
8.944053006802022 -6.672052904529802 7.15172804518468
9.683992712474717 -6.368794981493755 7.7074925465251045
10.412143156747534 -6.121172719472954 8.280426946850282
11.121620159837041 -5.959370852816446 8.871398749355611
11.79965197833146 -5.910028161854702 9.479611988782965
12.427937785652333 -5.9924331821108625 10.10561301136057
12.98373691684151 -6.2146442330516525 10.749970315637698
13.446429692605474 -6.572972712620182 11.40574506178425
13.808569695639955 -7.05144831536575 12.054489052249652
14.07886403316737 -7.624172526867679 12.677172369962063
14.273375160949227 -8.265372386335892 13.261315980918644
14.41131759458712 -8.954038610040328 13.803567774419236
14.514038444209161 -9.670271183877533 14.31115289415655
14.610086045692125 -10.394300827845651 14.802425818495676
14.722807463154101 -11.118698728799867 15.295785953447147
14.85543018709596 -11.834001314954763 15.799480984039858
14.996963774629425 -12.517139596740726 16.30336569136865
LINES 1 77
76 0 1 2 3 4 5 6 7 8 9 10 11 12 13 14 15 16 17 18 19 20 21 22 23 24 25 26 27 28 29 30 31 32 33 34 35 36 37 38 39 40 41 42 43 44 45 46 47 48 49 50 51 52 53 54 55 56 57 58 59 60 61 62 63 64 65 66 67 68 69 70 71 72 73 74 75
POINT_DATA 76
SCALARS MaximumInscribedSphereRadius float
LOOKUP_TABLE default
1.2
1.2106666666666666
1.2213333333333334
1.232
1.2426666666666666
1.2533333333333334
1.264
1.2746666666666666
1.2853333333333332
1.296
1.3066666666666666
1.3173333333333332
1.3279999999999998
1.3386666666666667
1.3493333333333333
1.3599999999999999
1.3706666666666667
1.3813333333333333
1.392
1.4026666666666667
1.4133333333333333
1.424
1.4346666666666668
1.4453333333333334
1.456
1.4666666666666668
1.4773333333333334
1.488
1.4986666666666666
1.5093333333333332
1.52
1.5306666666666666
1.5413333333333332
1.552
1.5626666666666666
1.5733333333333333
1.584
1.5946666666666667
1.6053333333333333
1.616
1.6266666666666667
1.6373333333333333
1.6480000000000001
1.6586666666666667
1.6693333333333333
1.68
1.6906666666666668
1.7013333333333334
1.712
1.7226666666666666
1.7333333333333334
1.744
1.7546666666666666
1.7653333333333334
1.776
1.7866666666666666
1.7973333333333334
1.808
1.8186666666666667
1.8293333333333335
1.84
1.8506666666666667
1.8613333333333335
1.8719999999999999
1.8826666666666667
1.8933333333333335
1.904
1.9146666666666667
1.9253333333333333
1.936
1.9466666666666668
1.9573333333333334
1.968
1.9786666666666668
1.9893333333333334
2.0
SCALARS Curvature float
LOOKUP_TABLE default
0.0
0.08157010055822464
0.04558008659821015
0.026947310368164442
0.047719694302908906
0.14905469583510805
0.2461656454286202
0.2700337443744564
0.26703282826087177
0.15644482244276206
0.11775811514077651
0.1087281555896467
0.10701085456959915
0.10784702026168211
0.11968181828167371
0.11993124340004964
0.0968139533557904
0.11962359064215182
0.23758639722404584
0.49065459324434213
0.5454489737020255
0.4716391570143268
0.3719105744014988
0.2806469897060396
0.1915555716996012
0.11037090946326909
0.05480400351097129
0.010921571207587709
0.05165485178858162
0.11470398425939782
0.17393201375561673
0.2234463191889691
0.22941015596115935
0.19790134987163152
0.15820328305563
0.12057348029747399
0.08941393673505704
0.07858055171737935
0.08238842110229612
0.09190663365481859
0.10600216313302639
0.11462033986974657
0.11643729404114564
0.13327006511284278
0.1504268908784291
0.15804973884093929
0.15870455623262344
0.1516764861592693
0.13887306772064612
0.12383312684745472
0.10352372861327376
0.07929767454581038
0.05970982171853528
0.048577050001944164
0.04590202958376564
0.04917340670360092
0.0508740102979818
0.04210889461590395
0.024552753460950028
0.031129044516727693
0.06292504997946742
0.09971733893779448
0.1392955508187559
0.17655506633633106
0.2021187527298005
0.20993475115096472
0.19678734086520924
0.16747706109130442
0.13695999138976303
0.10737298400617118
0.07228168860816399
0.024474459400382426
0.021023913598978938
0.03083711631368473
0.031369602559369554
0.0
SCALARS Torsion float
LOOKUP_TABLE default
0.0
0.0
0.39985513475330464
0.8129892808177789
0.5128281174622787
0.14637671157054505
0.12848611905235346
0.1200362240233961
0.23712318951915834
0.6900237803085055
0.5035122599264836
0.1426069663490866
-0.2990379207324444
-0.16701649880709396
-0.013983153740097926
-0.05303874934873605
0.19725145932014732
0.47594175041558295
0.17724009299696697
0.01840727508949
0.11350227013086642
0.17387559598670163
-0.03751911392109217
-0.17941281276883014
-0.2243107378265203
-0.35418394005668097
-0.44603996943524493
0.858998952364414
0.12452213427364955
-0.049811417524789625
0.06209620777507312
0.05542152075596424
-0.014382837825384395
0.004117749359859832
0.10172945050525063
0.11636433788048722
0.18004031174923307
0.1743232975848135
0.11490518287350128
0.08192316340883728
0.046188935770306035
0.09660492931408361
0.31539228471316977
0.30219498523877464
0.15088616511906064
0.1070175633397928
0.09052296212049253
0.08367169905291601
0.08667247482580619
0.032746689776682776
-0.08464694777542531
-0.1294303961525319
-0.005833396793303108
0.1550889117752468
0.22229257491122775
0.15813251433188602
0.05375743663155083
0.0684745320764069
0.6439263505414343
0.6400340881135107
0.16689640025493574
0.04412397899856406
-0.00036143807485542606
-0.04485931046403418
-0.07960803749907906
-0.0635521624121059
0.004418965820022422
0.05895190066430711
0.09195333763969388
0.11906885296154025
0.13563152844487242
0.8051856401000135
0.8294961913899439
0.3571023395521274
0.4106614114749966
0.0
