# vtk DataFile Version 2.0
Vessel Segment
ASCII
DATASET POLYDATA
POINTS 76 float
-5.922782126050285 16.44908371398462 -4.886862284022771
-6.224191565922817 15.717622321373868 -4.981995605853822
-6.611971704823453 14.915988742561394 -5.006125368623404
-7.056214792591511 14.118193887872632 -4.9920200049508345
-7.522262890993535 13.356391710430673 -4.976697502758585
-7.990574266100425 12.622357164089578 -5.029022393072397
-8.43337476937176 11.917184005850558 -5.2164753832459105
-8.806920516058502 11.249390264695936 -5.572050269320699
-9.069156260457316 10.640095829107809 -6.115666302598801
-9.162227436184402 10.107932896986613 -6.794463886554845
-9.117829618871681 9.594425297619303 -7.504617685856436
-8.96243010315292 9.089583225086468 -8.224629189836005
-8.705798792698552 8.612770005328684 -8.953918258815921
-8.369869323313209 8.16632162633518 -9.664217721260806
-7.968666468344683 7.734737046844647 -10.3441965685966
-7.500090205968669 7.305659939886886 -10.974849538585822
-6.965357969607785 6.867531630381008 -11.531235506926105
-6.399187386296645 6.3935825936863235 -11.940276011595847
-5.8690949415432465 5.9208798827796985 -12.144211623241757
-5.398788377292223 5.4874107514248385 -12.134075694447924
-5.01135786849171 5.119995730620922 -11.912340593787983
-4.720214267813975 4.819174554490652 -11.511262964556282
-4.547872912735376 4.573421209309532 -10.97599960749322
-4.477553454412758 4.39132958476947 -10.345227050196433
-4.495821322150892 4.263831918068519 -9.627929464648107
-4.604941902385894 4.195566523486724 -8.84655874458663
-4.771501468894367 4.185216487422395 -8.044039792322945
-4.95723055576418 4.211121779190269 -7.241499347162227
-5.132411672002953 4.246370489206915 -6.439817243984609
-5.255025048778938 4.248248647384271 -5.6288919174239975
-5.278989464209571 4.152090351905105 -4.821339650326475
-5.216285077600627 3.9480729019469503 -4.053974133759229
-5.1025611623070075 3.656838821826736 -3.3299299533545965
-4.95504703947693 3.2788304626175924 -2.6352102729994855
-4.778676142493359 2.807315439709733 -1.969294671036659
-4.573171507257885 2.255107145498422 -1.338878126697532
-4.34044399000312 1.6405351348231323 -0.7611537857214444
-4.097189381463552 0.980610342128546 -0.25537280019907294
-3.845949893179994 0.2885192340436804 0.17883273982992473
-3.5806855974438196 -0.4270122349775044 0.5385381184091825
-3.3037525981112457 -1.1581928969018656 0.8225141161893506
-3.013518469167017 -1.901717620873611 1.0423973808069946
-2.7075702423130528 -2.6573310777962713 1.2156190337117183
-2.379254300584651 -3.420621282105885 1.3759907453521654
-2.0135652553343935 -4.175565795781004 1.5606990499897517
-1.5991997185270175 -4.897339506823163 1.7894904831569427
-1.1322314936388256 -5.5665521206927275 2.0666561988904184
-0.6115438326023165 -6.176167412185444 2.3889173005315136
-0.035451547450781606 -6.725183466642604 2.752380071228457
0.5972607566001407 -7.208410745817185 3.15293150982815
1.2846324957239317 -7.615524357244201 3.579977810996758
2.0210212639261793 -7.938569373016858 4.017877468070395
2.7967380475061394 -8.17175497024507 4.457701947538597
3.5982603806917326 -8.308481380892772 4.898534712436067
4.411515177034396 -8.348317912877617 5.340682009803358
5.225977134440503 -8.303381382838866 5.7836088164012205
6.036997829751954 -8.196540784049123 6.228355889936352
6.843292218876799 -8.054962915266504 6.679231876932851
7.643658168752742 -7.905571102083999 7.142115917430572
8.435914447520396 -7.773383442901304 7.621511117918376
9.214958264301542 -7.677745306192013 8.119644202525842
9.971417277866664 -7.628670092355889 8.635854966314891
10.69602437385017 -7.627599625739398 9.164326923269229
11.38469313692928 -7.672362311829012 9.695875452659413
12.036596741634645 -7.763018349570355 10.224425575884775
12.649075105515944 -7.9038728939790355 10.74961160277936
13.218709639152179 -8.102694374478686 11.27365164414463
13.741746369968288 -8.371889462944235 11.79852484903826
14.208988136067928 -8.726152950348363 12.324031129497051
14.606836047970809 -9.176053933060118 12.846524677824554
14.926156114236582 -9.717291946317337 13.3561532164802
15.173981504929168 -10.328675353241842 13.842269265924491
15.359342121831007 -10.985394262271864 14.308635911391073
15.482506605367815 -11.661781557043163 14.772875414584384
15.530448599713942 -12.320697479458659 15.25108585305837
15.499058742078965 -12.934857613932754 15.728271919656619
LINES 1 77
76 0 1 2 3 4 5 6 7 8 9 10 11 12 13 14 15 16 17 18 19 20 21 22 23 24 25 26 27 28 29 30 31 32 33 34 35 36 37 38 39 40 41 42 43 44 45 46 47 48 49 50 51 52 53 54 55 56 57 58 59 60 61 62 63 64 65 66 67 68 69 70 71 72 73 74 75
POINT_DATA 76
SCALARS MaximumInscribedSphereRadius float
LOOKUP_TABLE default
1.2
1.2106666666666666
1.2213333333333334
1.232
1.2426666666666666
1.2533333333333334
1.264
1.2746666666666666
1.2853333333333332
1.296
1.3066666666666666
1.3173333333333332
1.3279999999999998
1.3386666666666667
1.3493333333333333
1.3599999999999999
1.3706666666666667
1.3813333333333333
1.392
1.4026666666666667
1.4133333333333333
1.424
1.4346666666666668
1.4453333333333334
1.456
1.4666666666666668
1.4773333333333334
1.488
1.4986666666666666
1.5093333333333332
1.52
1.5306666666666666
1.5413333333333332
1.552
1.5626666666666666
1.5733333333333333
1.584
1.5946666666666667
1.6053333333333333
1.616
1.6266666666666667
1.6373333333333333
1.6480000000000001
1.6586666666666667
1.6693333333333333
1.68
1.6906666666666668
1.7013333333333334
1.712
1.7226666666666666
1.7333333333333334
1.744
1.7546666666666666
1.7653333333333334
1.776
1.7866666666666666
1.7973333333333334
1.808
1.8186666666666667
1.8293333333333335
1.84
1.8506666666666667
1.8613333333333335
1.8719999999999999
1.8826666666666667
1.8933333333333335
1.904
1.9146666666666667
1.9253333333333333
1.936
1.9466666666666668
1.9573333333333334
1.968
1.9786666666666668
1.9893333333333334
2.0
SCALARS Curvature float
LOOKUP_TABLE default
0.0
0.1098432931722161
0.07619821841509655
0.046865317287569666
0.09289807676190806
0.19026756416108304
0.2545947809265383
0.29294517955395505
0.291944579981481
0.1806083034629852
0.13647708425575308
0.12451296175631403
0.10613771986270316
0.09051824910323109
0.10386077034338272
0.1261193291772806
0.21000730410783214
0.3359970900023243
0.4827800149550948
0.6083505025584591
0.5548129261949686
0.4383482246404626
0.3107924015949084
0.20548613592462223
0.16480511337521184
0.11571570041744705
0.05976545153859101
0.020540730165461964
0.0932940158249936
0.20697375264313936
0.22319530681821936
0.1749344439939112
0.14602397539772732
0.13614660505709866
0.11620568340630838
0.10993948449878527
0.11353588391831158
0.1069910309817931
0.11053836029206077
0.11192359186333149
0.0968628844595209
0.07216314452117356
0.032766624930375035
0.05851367865274776
0.09795143028726282
0.11879727619853671
0.12229101691851943
0.11773821686359873
0.11528898502875327
0.11568230332090984
0.11491477811246453
0.114214022332071
0.1157740532638033
0.11294200915390436
0.09788553202774865
0.07119271456167234
0.04044672413497145
0.017508981780205813
0.028762097797370365
0.049576390271207534
0.06377401731978219
0.06938408040063952
0.06983232802895722
0.07444871170907831
0.0886678830889085
0.10931066930234486
0.13460142849307055
0.16239794804430424
0.18242924943949315
0.17998974256373035
0.1500199859618341
0.1150210851894622
0.0942069478072097
0.11642530320503003
0.13938367483386463
0.0
SCALARS Torsion float
LOOKUP_TABLE default
0.0
0.0
0.49078830189853434
0.7884818947982585
0.5322471736085803
0.1640642807958439
0.14948227364606975
0.0768626123878778
0.23415357590499952
0.6616048511200993
0.17792286305657223
-0.17922493881404125
0.1374859551584634
0.28996666534731
0.23534385550071577
0.19276379859052706
0.3016475292067795
0.09145375878082007
-0.08950783162406678
-0.029311979807159244
0.09010884145547275
0.2720537998103463
-0.11985345840101141
-0.00030849683925200655
0.014990963037119387
-0.25411128488281903
-0.521239624222271
-0.9979297441695482
-0.25372200470861117
-0.12691972919292996
-0.16341402339165817
-0.2415160311944824
-0.20464603825447844
-0.08469803127710379
0.06243059607912052
0.06286030193550682
-0.12824235805643877
0.02676784692379164
0.12944633048050122
0.010302318972693736
0.07445094819568332
0.134519420016475
0.9087763490526338
0.5396192799750612
0.08562917387678137
-0.014256512357489787
-0.048428117480420585
-0.053059907467022716
-0.05079587079881185
-0.0871828976892025
-0.1117879940132721
-0.027932891231530935
0.06751443580271127
0.07720690828126114
0.058171111790008743
0.07483582762312894
0.2974422927489796
0.9489179153748906
0.552979872270741
0.15426431184769068
0.017555042859465048
0.0015856416038426864
0.0745238471475299
0.09055727924979683
0.009287001679261275
-0.00873890969374284
0.016657924378673895
0.005944144598287519
-0.00864480218304044
0.00676954243085107
0.054635246525148576
-0.11925293670317315
-0.47835611453941307
-0.4431252770812278
-0.04494672310616704
0.0
