# vtk DataFile Version 2.0
Vessel Segment
ASCII
DATASET POLYDATA
POINTS 76 float
-4.937433553987952 17.1656138367195 -4.902594044956587
-5.306544315134417 16.353508797406914 -4.914320749699912
-5.743441125386696 15.487900221230516 -4.8341465113829925
-6.221144419637272 14.617608962900187 -4.719336538832638
-6.721790794603867 13.763527503298205 -4.630108128471517
-7.2296227165302005 12.923275773284187 -4.629495541952084
-7.710444575221878 12.098999858295832 -4.801087638177525
-8.109509137288903 11.324618842943446 -5.190647014658726
-8.383113257609192 10.616881214450657 -5.775271045870019
-8.499632161399205 9.98114819899818 -6.504071914675484
-8.468262330139337 9.393498281907975 -7.292830768203409
-8.301049446483843 8.837575104266536 -8.093178476045265
-8.007756745265798 8.310425773011037 -8.877872569548504
-7.600895601186222 7.810949778618826 -9.639059004701215
-7.099094220858242 7.335166791525515 -10.369070251277877
-6.528195104411964 6.869635835174069 -11.055481021493417
-5.915554527187141 6.389240680914258 -11.665191896654983
-5.310392792585708 5.868636192559294 -12.117141959662533
-4.774434732940627 5.313530540765535 -12.350976903829691
-4.368877879153484 4.757319452115971 -12.2765572472216
-4.154231587603418 4.276278090086135 -11.863107211266577
-4.147943671624776 3.917560955575846 -11.18011211751186
-4.338989132132556 3.711279980112317 -10.320279085849783
-4.687813260487653 3.6709470345803754 -9.385182547358813
-5.129367536213432 3.775572499195413 -8.457201653068061
-5.606894773999826 3.9895268772440375 -7.575440574050558
-6.07236651489516 4.273763010969085 -6.750633377533637
-6.482659910993966 4.577864904630855 -5.969981754631168
-6.804408605111856 4.846878793643242 -5.198436310292102
-7.012288753160078 5.020936023162406 -4.406508883062536
-7.081444457991628 5.0392661977561435 -3.5980479847675255
-7.017701847693776 4.872548449773489 -2.81256140732276
-6.845370853533804 4.515191863792334 -2.092155495029863
-6.593484648870382 3.9815931879440694 -1.4625773760424956
-6.2884998535078935 3.3040167927327513 -0.9372602485154176
-5.944123244489869 2.52401626218073 -0.5218233695498047
-5.570430929285263 1.6760286740259747 -0.22735035744363097
-5.191275899579188 0.7881412021070332 -0.05941194170752315
-4.821684971144685 -0.11990274949774148 0.00295233779524874
-4.465087387803504 -1.035408184420471 -0.017345096464419344
-4.117222289807144 -1.945031381590341 -0.09419901752462818
-3.7605693412789116 -2.8409702480743193 -0.18855103613320753
-3.3794838903559334 -3.720543807197135 -0.25981197561782543
-2.9643015790423752 -4.578282532650392 -0.26779312798266125
-2.5049660782675622 -5.401644786550617 -0.1835954583649504
-1.9919536351681155 -6.1705243905638305 0.0022801484629152826
-1.4170882085679348 -6.861749021209806 0.2863288275250172
-0.7763162951478689 -7.45302364839317 0.6581812834869181
-0.0755275405747692 -7.928368547171227 1.1048973273485996
0.6705527493499537 -8.282937925798691 1.61170167980417
1.449451334719289 -8.520803624432938 2.1589565683137377
2.256170403152639 -8.651020884304193 2.7231986228162546
3.0865997641748626 -8.685188145079804 3.286602710689826
3.931414420192971 -8.632939836719093 3.843546469905532
4.77832481896934 -8.50064389368577 4.396989768771675
5.616878759399965 -8.295890658380321 4.951965042884756
6.440820032968216 -8.031561212903043 5.512999472938309
7.248094367494755 -7.725950009735179 6.083306079435232
8.040817221546877 -7.4018845567938785 6.66390274913628
8.82423503228644 -7.084514005065612 7.254247909112591
9.601919101710838 -6.797752640442148 7.853423859066056
10.372684810682035 -6.562250835776689 8.460134515123617
11.133030015395594 -6.396214475550615 9.072989581563009
11.877645829960432 -6.318663068178557 9.692533267655074
12.594191694401546 -6.350946418093142 10.32178925666556
13.258586552873885 -6.512482645720827 10.961933410789186
13.841966660516466 -6.810990949430942 11.60568482009415
14.328100824010466 -7.239769899537852 12.239459597506313
14.710367356346977 -7.7867031937895 12.853522509982193
14.982318804604699 -8.435364027292378 13.440784209003855
15.147288581752365 -9.161208036023845 13.995491697318583
15.228668632708471 -9.936992617388215 14.517455208138646
15.256861405964255 -10.742001381251875 15.014584465207445
15.259620190561916 -11.558908296103017 15.497006414703888
15.263052429036884 -12.364808092338329 15.970595137375422
15.281024340563146 -13.136631812763367 16.428361685787728
LINES 1 77
76 0 1 2 3 4 5 6 7 8 9 10 11 12 13 14 15 16 17 18 19 20 21 22 23 24 25 26 27 28 29 30 31 32 33 34 35 36 37 38 39 40 41 42 43 44 45 46 47 48 49 50 51 52 53 54 55 56 57 58 59 60 61 62 63 64 65 66 67 68 69 70 71 72 73 74 75
POINT_DATA 76
SCALARS MaximumInscribedSphereRadius float
LOOKUP_TABLE default
1.2
1.2106666666666666
1.2213333333333334
1.232
1.2426666666666666
1.2533333333333334
1.264
1.2746666666666666
1.2853333333333332
1.296
1.3066666666666666
1.3173333333333332
1.3279999999999998
1.3386666666666667
1.3493333333333333
1.3599999999999999
1.3706666666666667
1.3813333333333333
1.392
1.4026666666666667
1.4133333333333333
1.424
1.4346666666666668
1.4453333333333334
1.456
1.4666666666666668
1.4773333333333334
1.488
1.4986666666666666
1.5093333333333332
1.52
1.5306666666666666
1.5413333333333332
1.552
1.5626666666666666
1.5733333333333333
1.584
1.5946666666666667
1.6053333333333333
1.616
1.6266666666666667
1.6373333333333333
1.6480000000000001
1.6586666666666667
1.6693333333333333
1.68
1.6906666666666668
1.7013333333333334
1.712
1.7226666666666666
1.7333333333333334
1.744
1.7546666666666666
1.7653333333333334
1.776
1.7866666666666666
1.7973333333333334
1.808
1.8186666666666667
1.8293333333333335
1.84
1.8506666666666667
1.8613333333333335
1.8719999999999999
1.8826666666666667
1.8933333333333335
1.904
1.9146666666666667
1.9253333333333333
1.936
1.9466666666666668
1.9573333333333334
1.968
1.9786666666666668
1.9893333333333334
2.0
SCALARS Curvature float
LOOKUP_TABLE default
0.0
0.09750731487594363
0.04614333021304221
0.038143262825839325
0.09269117256144008
0.1840422659347188
0.25519664453626734
0.2546513584478057
0.22886259565987058
0.16866616849009522
0.1414643816643255
0.13183582441822236
0.11844870910218142
0.10034671679787106
0.0809126332812748
0.08917388393735891
0.1782207245371293
0.3192344633186066
0.5996361509169814
0.6954553459153101
0.48354300013911944
0.29705191621775245
0.207130760917927
0.15379781235664905
0.11743087561506674
0.08681014700765875
0.05614381105939524
0.10443414698912623
0.20660625557620044
0.3073281802408288
0.3368627337631011
0.31908063210415294
0.2663438531171679
0.20689401946902364
0.1618457694121914
0.144631211968421
0.1363410201177364
0.11102258274285434
0.08667642194890493
0.060052731597108326
0.02407758631173574
0.039730192273175126
0.08232697315388679
0.11977189396009902
0.14206275448425607
0.15536244082216336
0.16274460363421206
0.16110775631047655
0.1485619991245703
0.13031133486869861
0.11209276349226897
0.09655902867377147
0.08443511252835481
0.07621389464176917
0.06870009147944034
0.057532684172649326
0.042270553952280444
0.023957607182724668
0.013756055209098093
0.03003141643993589
0.049778708588948554
0.06990487838628767
0.0938547405530104
0.12375367781721416
0.15780999292496684
0.1863563927471285
0.1955991164570615
0.18970840549726198
0.17773162370868956
0.15436830756120606
0.11471951023624993
0.0721640400380307
0.035075299125827714
0.002476446052479528
0.019541489185127867
0.0
SCALARS Torsion float
LOOKUP_TABLE default
0.0
0.0
0.6604149638446654
0.8415177131345867
0.2653073981833828
0.12237395406937956
0.0831785416831192
0.13718062035263817
0.18144722340462496
0.34641593460627756
0.2712850933507644
0.1326636899930555
0.03753320311533295
0.06952961066283403
0.2550758950104459
0.42998973679728697
0.252117646505913
0.13103991884260233
-0.01116002357956461
-0.032377425787366534
0.02545497093240725
0.010394969736499629
-0.031233888024852503
-0.08380503286801157
-0.14584874153647243
-0.3424812279839607
-0.8757223662801881
-0.5630206149841895
-0.23755788684414103
-0.13035916986020263
-0.1298115007871447
-0.13674539173505304
-0.11425847469765321
-0.07330200369275583
0.02678378725635014
0.034831196409210716
-0.08433608526698612
-0.09275685886452964
-0.03159824902596939
0.1073697358426409
0.9408711923874606
0.5648792038672136
0.1692778928412283
0.022088539646779898
-0.07167264258817913
-0.1122179886285157
-0.10885582822116523
-0.06459345254470299
-0.02475954878362841
-0.06298003852349807
-0.14916049733405626
-0.14223728329079205
-0.010844730803927172
0.10955710829008823
0.13948721929407987
0.15137321722257416
0.21400654913195052
0.4959412971097149
0.9247445843760855
0.3188831132779586
0.08267910653263738
0.02582961857758488
-0.006555135957920202
-0.048266998122237205
-0.07426428663815682
-0.06251192109825905
-0.0166702652261633
-0.011730058221941963
-0.038637436558379666
-0.03761909682568588
0.011130307230012834
0.045477716448569606
0.07793615157726941
0.9999999999997934
0.15120023778004554
0.0
