# vtk DataFile Version 2.0
Vessel Segment
ASCII
DATASET POLYDATA
POINTS 76 float
-5.009165862492202 17.484567080530017 -4.820210077969755
-5.384954756237968 16.726971545906103 -4.834216772399233
-5.803503897742158 15.907895017297822 -4.779434260142989
-6.255076416053041 15.064959813749834 -4.686720428724809
-6.730895088624538 14.22992449499277 -4.588586723064106
-7.227719334319592 13.407862357085948 -4.538858596763406
-7.729696311036448 12.606202781020661 -4.621551728743631
-8.188262800246076 11.855014383423779 -4.9006766199087375
-8.557002466102473 11.174452759875294 -5.390546365150152
-8.778506218564297 10.566696534804422 -6.052004073613762
-8.867112886783525 9.980302987528852 -6.775943634146342
-8.840855530400148 9.391859999665591 -7.514080349267744
-8.705395065751459 8.801557928682191 -8.244503515327004
-8.458170595590298 8.226591743991563 -8.967454112708854
-8.104686147238873 7.681239449447151 -9.673889830586782
-7.648599229248988 7.171281956213854 -10.352228258425903
-7.103891483294941 6.697974673592303 -10.990420230956849
-6.4955232540228796 6.241285173871759 -11.564069365556994
-5.854889303331452 5.772444034390192 -12.018709032975773
-5.233725309215871 5.292067140432527 -12.26201998805058
-4.699496407852241 4.839687794096257 -12.21687608444664
-4.293937648556549 4.431800759294523 -11.906345695658679
-4.0474642854468845 4.07915540683011 -11.371735637312185
-3.9732636737950964 3.8177259951516103 -10.656897595561249
-4.048594295838045 3.6765313462156914 -9.837282843030328
-4.2233989089528245 3.645839191708662 -8.982729336877362
-4.445674270043491 3.6923844245944784 -8.123706163501428
-4.680725368963206 3.7793160500907805 -7.268369058035806
-4.907107279568858 3.8664390887241753 -6.421492854956436
-5.10586922152502 3.905201804120411 -5.588346948551171
-5.2664777503770805 3.8550686753018963 -4.779473442218414
-5.3844793627597785 3.6879208508630716 -3.998099666989826
-5.457752810131621 3.3779390882797156 -3.2518452353494527
-5.48939832732037 2.9166521967204657 -2.5586722704274116
-5.482548763994234 2.319954157265713 -1.9353917512559076
-5.434505034598175 1.6183430314125067 -1.389972023053635
-5.346029496253937 0.841997575809508 -0.9216004240951573
-5.221258157303537 0.01531700946687233 -0.5214600286569953
-5.060548268889496 -0.8425662941184069 -0.1799292203289892
-4.860337925666041 -1.7147376466987367 0.10908467592701752
-4.61492318268957 -2.5855298349303037 0.35132662919105295
-4.315970934656578 -3.442845500879255 0.5529235618072444
-3.9564401201537365 -4.276989324494426 0.7245399960166117
-3.5283303680823077 -5.076548536607998 0.8898964046199076
-3.022292032376846 -5.824949230138672 1.0735529379547608
-2.435145150296282 -6.503078861352903 1.288845063539386
-1.7698495777819212 -7.0939970296863795 1.544382816969844
-1.034247751595094 -7.583393928072849 1.8462135399133375
-0.2439091031885337 -7.961983515269543 2.196486750268854
0.5793679879067974 -8.228555413262345 2.592157661023986
1.416985819546299 -8.388274580787177 3.0224631492175513
2.2598250131106594 -8.45226563557529 3.469742102884415
3.105843207524453 -8.436041073420729 3.920157186629334
3.9534265924354233 -8.352313981913152 4.370659236574009
4.799056378654704 -8.209518768794275 4.825645306332954
5.636650243808616 -8.014870071491307 5.292260010758535
6.4586758100848245 -7.776047259547009 5.7762397253562865
7.259668448085307 -7.502233690647198 6.278923931437945
8.039879282661223 -7.2076263325665995 6.79799781617642
8.804823836202932 -6.913030851608251 7.330877993058426
9.559912889336424 -6.642881620232938 7.876676504222633
10.305566794466076 -6.42185573608505 8.43543164833943
11.036637494028941 -6.273410440915553 9.00673545998538
11.743234742516812 -6.219033520017325 9.590276038044255
12.410335762174844 -6.275885459722538 10.187378111965371
13.017498950681288 -6.453539279351521 10.799116213729302
13.544544992285253 -6.751906710306353 11.42044479221803
13.982096442974095 -7.161755070777126 12.038373014206934
14.331391804024232 -7.668387650619993 12.639681973109438
14.597840750778019 -8.255393202005031 13.21427469234231
14.792324392774672 -8.905652659612798 13.757018048295702
14.932379622632823 -9.600411791296617 14.270268928162839
15.04174565660992 -10.320577558322572 14.765435009592819
15.141110379065317 -11.053362731175467 15.255398382615653
15.239468166808553 -11.780945978244294 15.746532655253429
15.337315973776084 -12.476029531901132 16.228932277049072
LINES 1 77
76 0 1 2 3 4 5 6 7 8 9 10 11 12 13 14 15 16 17 18 19 20 21 22 23 24 25 26 27 28 29 30 31 32 33 34 35 36 37 38 39 40 41 42 43 44 45 46 47 48 49 50 51 52 53 54 55 56 57 58 59 60 61 62 63 64 65 66 67 68 69 70 71 72 73 74 75
POINT_DATA 76
SCALARS MaximumInscribedSphereRadius float
LOOKUP_TABLE default
1.2
1.2106666666666666
1.2213333333333334
1.232
1.2426666666666666
1.2533333333333334
1.264
1.2746666666666666
1.2853333333333332
1.296
1.3066666666666666
1.3173333333333332
1.3279999999999998
1.3386666666666667
1.3493333333333333
1.3599999999999999
1.3706666666666667
1.3813333333333333
1.392
1.4026666666666667
1.4133333333333333
1.424
1.4346666666666668
1.4453333333333334
1.456
1.4666666666666668
1.4773333333333334
1.488
1.4986666666666666
1.5093333333333332
1.52
1.5306666666666666
1.5413333333333332
1.552
1.5626666666666666
1.5733333333333333
1.584
1.5946666666666667
1.6053333333333333
1.616
1.6266666666666667
1.6373333333333333
1.6480000000000001
1.6586666666666667
1.6693333333333333
1.68
1.6906666666666668
1.7013333333333334
1.712
1.7226666666666666
1.7333333333333334
1.744
1.7546666666666666
1.7653333333333334
1.776
1.7866666666666666
1.7973333333333334
1.808
1.8186666666666667
1.8293333333333335
1.84
1.8506666666666667
1.8613333333333335
1.8719999999999999
1.8826666666666667
1.8933333333333335
1.904
1.9146666666666667
1.9253333333333333
1.936
1.9466666666666668
1.9573333333333334
1.968
1.9786666666666668
1.9893333333333334
2.0
SCALARS Curvature float
LOOKUP_TABLE default
0.0
0.07645772460670772
0.041785118808005596
0.02725893157746808
0.0585960981492739
0.1476139349114558
0.2385802280002415
0.27683690313973264
0.2669907671721556
0.1659586529897888
0.12791677696249032
0.12043146304242466
0.12208018087274403
0.11996908588327503
0.11972076904748603
0.11140729530923904
0.10095898070726106
0.14256716916741224
0.28826999681911086
0.5371918596675727
0.6022879875690436
0.5112384822331311
0.3837266398093817
0.2744302746277779
0.1871057272893735
0.11160917685303354
0.05326156916868273
0.008129900736282135
0.07197210230514181
0.14021739371716432
0.19259465238425666
0.2278042926145497
0.22815295778594516
0.20012190315236006
0.1649304109592832
0.13323018793339406
0.10433954423462517
0.0843898167019961
0.07564680877485186
0.07401386183641284
0.07895360186508929
0.08335515915079489
0.09041700279188114
0.11116691658817747
0.1304462216315618
0.14285068315952515
0.14888927924290704
0.14638677636344452
0.13637679183094925
0.12298472545197094
0.10585081906439317
0.08699601859339381
0.07218107642438228
0.06206322228996684
0.05530353444880546
0.05120525876588783
0.04624386468174185
0.034826614986921085
0.021027098820093616
0.030227780092626406
0.054968560324216896
0.08309823523282198
0.11406027892503011
0.1456580719040988
0.1731729683005386
0.19050809005376074
0.19043498264789013
0.1760403394311237
0.1568469419503225
0.13206989248989898
0.09849701337790728
0.055656909721747784
0.019888077587529966
0.005031600223420883
0.016235198538283875
0.0
SCALARS Torsion float
LOOKUP_TABLE default
0.0
0.0
0.5058671984619754
0.8410602625949917
0.4368361685466959
0.14867998866498672
0.11328804406443813
0.11072938265298664
0.23671152322888783
0.5903442848427967
0.41018772452028246
0.1325397895327982
-0.12278344214984344
-0.05291095982392531
0.024289243891227406
0.05853229688044904
0.3688970029560614
0.3876408177216828
0.1387680524976461
0.017749620027168983
0.09097172681480523
0.10627104295031875
-0.05349163870703508
-0.13405794188181802
-0.15342289669587378
-0.2623278530878355
-0.4589067588371659
-0.9999994588635396
-0.13299734328881374
-0.07771621985972993
-0.04586342472225548
-0.04764832510074159
-0.058780524345992353
-0.022170028614939698
0.06608316316583868
0.07049842430967007
0.06529809299478417
0.13152603153708398
0.1844780874663832
0.21483953417110652
0.20705985986749004
0.2215274606857568
0.34335784204057324
0.247806990695079
0.10764501951906219
0.07037454088297894
0.059909482035535686
0.061454008007397906
0.06379801005154208
0.007584042082911205
-0.10354869362153327
-0.14232557676904387
-0.031787556015884635
0.1086449437600047
0.2026156425342731
0.2182853934124304
0.17662256311157415
0.25248053219669536
0.7759615250748781
0.5534164227657887
0.1612838582461789
0.04360957361509413
-0.0046466366644249135
-0.04698630803258673
-0.07805024060389906
-0.06411255914462467
-0.0030206665266018437
0.033159124484196334
0.036379894732752355
0.0446489975671551
0.04777357221849887
0.0493831272547802
0.2054108312062443
-0.9984106952614177
-0.15908834880660694
0.0
