# vtk DataFile Version 2.0
Vessel Segment
ASCII
DATASET POLYDATA
POINTS 76 float
-4.78459919647967 16.972679274155453 -4.634819611298038
-5.174307176200356 16.265010114452608 -4.600517829317724
-5.613502469474991 15.46073239729317 -4.524170296373732
-6.086844864572091 14.62717160951853 -4.453070950465711
-6.573549432305503 13.810608794042125 -4.412277158276142
-7.0633037363274696 13.007177655222431 -4.4492347237847865
-7.529541392971216 12.217018956025836 -4.616163774500138
-7.932958128622223 11.454464637274814 -4.952143201967232
-8.223455371316465 10.7785476893464 -5.492450208545248
-8.370272221816215 10.19034426293157 -6.149510724518487
-8.398117648669093 9.629333860282134 -6.844797991919377
-8.324303826124462 9.077454083090869 -7.562125056751293
-8.149511185938835 8.549842177664543 -8.305741888227994
-7.878889216407911 8.056078496483945 -9.062996040876001
-7.529613214680063 7.588475933786058 -9.816150814963688
-7.123941082755039 7.123871103873486 -10.53829352261599
-6.690156242156441 6.634566673257677 -11.160065087750358
-6.2932079969712715 6.116572905173495 -11.554561399098594
-5.9745590510697975 5.624914762558837 -11.721076505344696
-5.747070410649897 5.223019360486321 -11.64554658111478
-5.606635482732386 4.962839516890297 -11.37450160996765
-5.515073349160497 4.8252530089956975 -10.99830390350507
-5.446416631392017 4.756895711202089 -10.544127123469273
-5.394098994984878 4.719174390895319 -9.990814837238887
-5.370522626336798 4.698959782050138 -9.33520769573518
-5.372511263869644 4.6901136354155994 -8.61366253265943
-5.370573215058885 4.669226612788141 -7.842834603119145
-5.3567895336909706 4.620503104412085 -7.038762672048863
-5.337644008305597 4.5250782707152775 -6.245199501837115
-5.326535193765736 4.348655410559538 -5.498322248645506
-5.336745134402852 4.067997455754079 -4.813196604043906
-5.363930579375932 3.677853381446651 -4.18581751843803
-5.395981137621133 3.1776535218396433 -3.613189788760958
-5.4278411849908 2.5783212726461855 -3.0997865803553815
-5.453063972225803 1.903947460586437 -2.6451565380375306
-5.456499572791219 1.1760067547981994 -2.2422349615460497
-5.4232401598646565 0.4074669673809993 -1.8895409724620722
-5.347999075258253 -0.3881378992997854 -1.581176593974406
-5.217128508631395 -1.1961386201950024 -1.2902835550001324
-5.00766903176469 -2.003591210521506 -0.9871079246259669
-4.709895831166552 -2.7985205879714874 -0.6605098836492829
-4.327843286922336 -3.565404573735922 -0.31809984914975914
-3.875137425653926 -4.287658073130357 0.03205469320827969
-3.3669558817326273 -4.957067274164735 0.399593930523615
-2.810857102571123 -5.5701589761353745 0.7954766002483996
-2.2107307965483503 -6.12227469439291 1.2147319896665567
-1.56882086724656 -6.610523176837456 1.644767048008057
-0.8876527122390188 -7.0350513199917994 2.074256650764703
-0.17262038043606812 -7.397409877236659 2.5002013139082693
0.5698796946921459 -7.697335745039255 2.9265858298995826
1.338926836683564 -7.932808134052076 3.3529875045332225
2.1414810419643886 -8.103578613206832 3.7723835269922685
2.9822782292237835 -8.210555218826505 4.180464099597132
3.855756695650651 -8.253950548466282 4.578935637461857
4.747898677180871 -8.233358203630699 4.974582754445379
5.642451317818548 -8.149249579350679 5.377098209207406
6.524549800452586 -8.00390554443765 5.796907269412679
7.383557336643581 -7.806012209172328 6.241936683327214
8.217280847877111 -7.574136868106876 6.715845631659267
9.031543587235078 -7.333502834581934 7.218146194349883
9.833170616231714 -7.1102657963475195 7.74574516675037
10.621371114474412 -6.929049861360942 8.295701247107708
11.384933085309784 -6.811185967172163 8.86542711589094
12.106956046032906 -6.771885014216934 9.45317502105037
12.767187529991919 -6.823588779780442 10.061085709798194
13.336640040488184 -6.976395961977442 10.690107893598354
13.78987908555941 -7.223344997340357 11.328473722374092
14.13748846412727 -7.542260935231726 11.959582351655323
14.407377936750013 -7.91871113020105 12.58062626159995
14.621518942697117 -8.34248647982566 13.198522089499008
14.801304165196102 -8.805862089785178 13.825695344002606
14.966169923171384 -9.302501342946995 14.475994598924876
15.13452663033099 -9.82333571259219 15.162228467260974
15.321290557143241 -10.357656020943793 15.887149943516457
15.525445568258025 -10.881005348370762 16.631198822532593
15.728253035064922 -11.363965784719426 17.345881543204015
LINES 1 77
76 0 1 2 3 4 5 6 7 8 9 10 11 12 13 14 15 16 17 18 19 20 21 22 23 24 25 26 27 28 29 30 31 32 33 34 35 36 37 38 39 40 41 42 43 44 45 46 47 48 49 50 51 52 53 54 55 56 57 58 59 60 61 62 63 64 65 66 67 68 69 70 71 72 73 74 75
POINT_DATA 76
SCALARS MaximumInscribedSphereRadius float
LOOKUP_TABLE default
1.2
1.2106666666666666
1.2213333333333334
1.232
1.2426666666666666
1.2533333333333334
1.264
1.2746666666666666
1.2853333333333332
1.296
1.3066666666666666
1.3173333333333332
1.3279999999999998
1.3386666666666667
1.3493333333333333
1.3599999999999999
1.3706666666666667
1.3813333333333333
1.392
1.4026666666666667
1.4133333333333333
1.424
1.4346666666666668
1.4453333333333334
1.456
1.4666666666666668
1.4773333333333334
1.488
1.4986666666666666
1.5093333333333332
1.52
1.5306666666666666
1.5413333333333332
1.552
1.5626666666666666
1.5733333333333333
1.584
1.5946666666666667
1.6053333333333333
1.616
1.6266666666666667
1.6373333333333333
1.6480000000000001
1.6586666666666667
1.6693333333333333
1.68
1.6906666666666668
1.7013333333333334
1.712
1.7226666666666666
1.7333333333333334
1.744
1.7546666666666666
1.7653333333333334
1.776
1.7866666666666666
1.7973333333333334
1.808
1.8186666666666667
1.8293333333333335
1.84
1.8506666666666667
1.8613333333333335
1.8719999999999999
1.8826666666666667
1.8933333333333335
1.904
1.9146666666666667
1.9253333333333333
1.936
1.9466666666666668
1.9573333333333334
1.968
1.9786666666666668
1.9893333333333334
2.0
SCALARS Curvature float
LOOKUP_TABLE default
0.0
0.03902581488412845
0.018807709788091948
0.03986584302347701
0.08845144394136904
0.1514789898823064
0.20931599767986797
0.28931354378102525
0.25078698026705193
0.15833476400317506
0.12362580282390355
0.119918917900887
0.11230511484362973
0.0900815469114079
0.07130784089088628
0.12031304995881725
0.3313018754750629
0.5085805659404359
0.8313123567039071
0.9208153422751797
0.7462052337889045
0.38056418872612985
0.14435670762628516
0.08890768943618246
0.05401360494021627
0.019097184634367576
0.04329766370187951
0.07485141791961863
0.15141714486155114
0.2185477825078776
0.22408004530376802
0.20256828611995842
0.17373029363501793
0.13657263027478184
0.10715953155853608
0.10050248898390589
0.0890767261950247
0.076617247222946
0.09664410549100105
0.1064173695430698
0.10360057843158155
0.0984604681058652
0.0930922567579049
0.0936917053414524
0.09334341345678018
0.09200759517142477
0.0900712859196017
0.0858108367846446
0.08264599784056914
0.08363181323634625
0.08440973739790307
0.08111788670707057
0.07393948918335388
0.0675256283868368
0.06498131866941238
0.06615476358234408
0.0641805599113396
0.05261197080242177
0.03647443939552841
0.03417949409124346
0.05127094540650905
0.07478215216016083
0.10032521112746606
0.13363463336108292
0.17952652912541017
0.21487580725883634
0.20003446804206243
0.1601336318093786
0.11925927990082269
0.07521952024727661
0.036535083603000534
0.00707529071746104
0.018610289096637686
0.028682802573427292
0.024781134270149385
0.0
SCALARS Torsion float
LOOKUP_TABLE default
0.0
0.0
0.928126094596923
0.22703935452760526
0.21843405135835778
0.13816873950170502
0.09521638422245012
0.0068978599470130575
0.2907726505782255
0.6118163383327982
0.21413111673507945
-0.1424385539326839
-0.012464699833641374
0.15839368235371912
0.5369002736603105
0.4399025389222162
0.2037507100566069
0.07238511551463436
-0.186621263640629
-0.2665397413531443
-0.4526408748829233
-0.12393434602876507
0.59629957643585
0.6061945854172078
0.2228947742447328
0.9787027253728765
0.035255133099379776
-0.21066081481127447
-0.13551629780422933
-0.09203488845450954
0.05249481911253813
0.13351018893761457
0.05378860673044966
0.09372199566273157
0.3016781311592083
0.26604066233720547
0.19911359720509839
0.5797044594829361
0.3979015960744578
0.1330512095997471
-0.019726205665365315
0.01115175497951203
0.2239832418917838
0.1832010073883725
-0.025422906466380707
-0.13375220354768397
-0.1315764204903232
-0.014620060331505688
0.10201593771482784
0.006141396512120728
-0.13166570392703536
-0.08477076508050485
0.05343061076716793
0.1859367462463311
0.24326042718920668
0.2345038153152333
0.22263667992824188
0.30834192940806393
0.593313525930214
0.6559367030830701
0.28856948328503323
0.07006494661482426
-0.019107285540316363
-0.06300401564975162
-0.08258609141731107
-0.08046401809957293
0.005834011091681371
0.10090702519199407
0.029076938137049937
-0.01760366088181085
-0.1471946376661727
-0.9997024450397659
-0.3509530646677941
0.03253364886862081
0.18724552460604743
0.0
