# vtk DataFile Version 2.0
Vessel Segment
ASCII
DATASET POLYDATA
POINTS 76 float
-4.510067399546188 17.20959794829173 -5.886654593335077
-4.952853095869324 16.578799408870967 -5.8451966044878825
-5.426794243159657 15.866407237792604 -5.749495768207178
-5.908658052230886 15.10548437560333 -5.661259570615603
-6.386215678421052 14.338141177206952 -5.619485803916876
-6.857915459423791 13.584228762018006 -5.6732497545652585
-7.303380611974032 12.863148683855922 -5.873002860719942
-7.675316242712496 12.1926295807845 -6.25318332709815
-7.932931310898611 11.571451777275668 -6.769548279926448
-8.06479674983603 10.970381353994556 -7.36330895003164
-8.06420325798396 10.396600969385577 -8.004271113205089
-7.947208588132671 9.846498512115549 -8.663620518143318
-7.728805686335719 9.313661927187072 -9.313245405937078
-7.407136590582892 8.803226421763927 -9.94955237214761
-6.987750518438323 8.312324526096912 -10.547591632640625
-6.486162414213746 7.8299170941353164 -11.070477132041102
-5.944223990083479 7.339679087171034 -11.487232226774346
-5.417630045632372 6.808959205956015 -11.748173083552244
-4.9717073868063135 6.246259993279249 -11.801637790753645
-4.667171518776733 5.7067855517108725 -11.583247207357978
-4.549110130011473 5.2493617789414095 -11.112062253412397
-4.6175645282095275 4.899027680630878 -10.476807818369025
-4.814348990340225 4.658987570113347 -9.768221503939042
-5.059482079725426 4.514348823297763 -9.043214556433597
-5.304882859154003 4.443264031999157 -8.311766707819409
-5.530735798098637 4.413624380797508 -7.574118263802678
-5.732340542511508 4.38672197077808 -6.82707379961764
-5.907980427206553 4.327406110165709 -6.073311414842267
-6.056609698221772 4.2133973433225345 -5.318091630713447
-6.164520172726594 4.024749216217761 -4.554017922810226
-6.201536927731374 3.729791676707897 -3.7832604609926865
-6.158556436859514 3.307934701959477 -3.03892561926675
-6.050150508959198 2.7577750022897307 -2.3633038979794647
-5.901313578368486 2.1079347332787313 -1.7874339792596219
-5.729644214922968 1.401966630809909 -1.310366255300947
-5.540371771260429 0.6675632696434063 -0.9107537417134297
-5.333030951901483 -0.08449973823477845 -0.572115620482963
-5.112626313859675 -0.8510641428241755 -0.28491579413938034
-4.8834764243335265 -1.6315871412676493 -0.03514371413534803
-4.647867726242941 -2.4216380211882056 0.19023076722775994
-4.400494275459068 -3.2111602589128685 0.40763054558269135
-4.1240163338230165 -3.991340783399466 0.6369226755394091
-3.803913031555214 -4.755346991509174 0.8917644144601697
-3.434273665477472 -5.49587292539151 1.1823069695164397
-3.0124724716483127 -6.2046068729018415 1.512099371159177
-2.537478416158915 -6.871318068504044 1.8741757974194444
-2.009565012280984 -7.48497708194718 2.257642535713699
-1.428869312950477 -8.034122211358824 2.6545969216616694
-0.7945076162493884 -8.50585926815162 3.065026874775541
-0.1090205996965783 -8.883798819417635 3.4963403115020273
0.615868175899262 -9.15439460093135 3.9500262604447083
1.3684280905276123 -9.321954246575581 4.412083282905024
2.1468934820738057 -9.406019742300959 4.866023464757098
2.948165886411848 -9.421333650939507 5.306270269413464
3.761418969964255 -9.371244127709135 5.734860358828156
4.573705596485609 -9.252365792895372 6.155604250124139
5.3762257543804095 -9.062389739852737 6.569848620427981
6.16636843529867 -8.804930725698892 6.976520862187946
6.946490656763198 -8.489518970466694 7.373319854662394
7.722739991388651 -8.1293088112268 7.758282027967118
8.50504064345155 -7.7398194754321175 8.13265173900889
9.304740415340826 -7.340650775311298 8.503097607525087
10.128747159540033 -6.957262967220722 8.879724848453465
10.978300624024095 -6.618113408107494 9.271145298280219
11.848909947855969 -6.353702537356648 9.682349460167258
12.726172069558972 -6.1945722321883725 10.113935593994983
13.58481446987118 -6.164754331831745 10.561606081916231
14.393595215064552 -6.276147484836987 11.01802624354733
15.121335083601394 -6.528603478826544 11.47589449212891
15.744010327253502 -6.911934104286906 11.929888865239546
16.251529049883214 -7.408284664910965 12.378392389008683
16.6511107558447 -7.9944140114235545 12.824927895260684
16.95575721496202 -8.645386642592934 13.277929753147154
17.16828345357362 -9.333301986636785 13.742704280771882
17.282595027946304 -10.019730781137977 14.225286195687616
17.320443160037744 -10.660706899741989 14.719201770073404
LINES 1 77
76 0 1 2 3 4 5 6 7 8 9 10 11 12 13 14 15 16 17 18 19 20 21 22 23 24 25 26 27 28 29 30 31 32 33 34 35 36 37 38 39 40 41 42 43 44 45 46 47 48 49 50 51 52 53 54 55 56 57 58 59 60 61 62 63 64 65 66 67 68 69 70 71 72 73 74 75
POINT_DATA 76
SCALARS MaximumInscribedSphereRadius float
LOOKUP_TABLE default
1.2
1.2106666666666666
1.2213333333333334
1.232
1.2426666666666666
1.2533333333333334
1.264
1.2746666666666666
1.2853333333333332
1.296
1.3066666666666666
1.3173333333333332
1.3279999999999998
1.3386666666666667
1.3493333333333333
1.3599999999999999
1.3706666666666667
1.3813333333333333
1.392
1.4026666666666667
1.4133333333333333
1.424
1.4346666666666668
1.4453333333333334
1.456
1.4666666666666668
1.4773333333333334
1.488
1.4986666666666666
1.5093333333333332
1.52
1.5306666666666666
1.5413333333333332
1.552
1.5626666666666666
1.5733333333333333
1.584
1.5946666666666667
1.6053333333333333
1.616
1.6266666666666667
1.6373333333333333
1.6480000000000001
1.6586666666666667
1.6693333333333333
1.68
1.6906666666666668
1.7013333333333334
1.712
1.7226666666666666
1.7333333333333334
1.744
1.7546666666666666
1.7653333333333334
1.776
1.7866666666666666
1.7973333333333334
1.808
1.8186666666666667
1.8293333333333335
1.84
1.8506666666666667
1.8613333333333335
1.8719999999999999
1.8826666666666667
1.8933333333333335
1.904
1.9146666666666667
1.9253333333333333
1.936
1.9466666666666668
1.9573333333333334
1.968
1.9786666666666668
1.9893333333333334
2.0
SCALARS Curvature float
LOOKUP_TABLE default
0.0
0.06523991271274053
0.027609671214431336
0.05746011959387368
0.12068055257569682
0.1974914128937038
0.26786113210209533
0.2506859655895135
0.19921290410314263
0.18984583898181492
0.1575241750411236
0.13588436848331287
0.13624794127285444
0.13639970480265812
0.14632523853404655
0.15648095288019478
0.2467888347780484
0.40266397328819764
0.6119911446094138
0.6051102088324906
0.43513669693867985
0.2803117142830711
0.17528986134564242
0.12237994479617308
0.07739456484968049
0.04336857765481712
0.069518547903586
0.10019520570374053
0.13067718301980724
0.17575739448129543
0.1963179408600422
0.19908671390260246
0.18583497171699948
0.15213379611802832
0.11381161747866507
0.0908140960468108
0.07639254011515388
0.05611820251273402
0.036473034249806774
0.019394855782159583
0.04409101046216242
0.06944803252500441
0.08316754473193132
0.090063594145887
0.09261350135402767
0.09669569372937459
0.10563496997148566
0.11927851788627304
0.13490941743417323
0.1432138655274904
0.13129965006757865
0.10601919405341319
0.08672829928483095
0.07881504738827746
0.0810230373144501
0.08431795183949732
0.08026289279585624
0.06831361287549526
0.05173148325716526
0.032096101984417674
0.012045017751203875
0.025373706532041435
0.05215689570566907
0.07991934115205498
0.10904553396542845
0.13865866998973295
0.1680030290537706
0.19750716021534134
0.22131904492355148
0.22491404484485422
0.19670551841377354
0.1560397764266671
0.13408866955550292
0.13818236044635895
0.12659739013575858
0.0
SCALARS Torsion float
LOOKUP_TABLE default
0.0
0.0
-0.9817229212384574
-0.3845797211215394
-0.09404390749392333
0.03999427060941778
0.13073927379792166
0.28651529519277585
0.4354166273452319
0.131818827980681
0.16510928389542065
0.24139710609514692
-0.015244869896974933
0.186772179241466
0.30760904608690404
0.42543960153359694
0.38082650030892284
0.15277426020084642
-0.03724198189642822
0.03395865889698454
0.1152794982591073
-0.05911586277452209
-0.46537757707838073
-0.6359541428708891
-0.7043643410055641
-0.9591480224800647
-0.5830967042180424
-0.20875985903224714
0.05423290797977329
0.06184090947427951
-0.07817634484036207
-0.15006884793411537
-0.13940565700483298
-0.047271877714052876
0.07794358117000556
0.1236279009343806
-0.04847495264325337
-0.07044997154126553
0.03885577598063815
0.9186753340311989
0.4034182437303623
0.0985310854883672
0.08591766002996641
0.020868124287235182
-0.08628298464134218
-0.11279477393652625
-0.06511492215927422
0.019400328696594818
0.09229262225220135
0.07338893279925493
-0.06553490650556998
-0.22045594212022251
-0.11844429505442525
0.09658206458775967
0.1515030443007903
0.07960036889937984
0.003130199067045994
-0.06853714666459451
-0.16486427669242024
-0.36118134559013154
-0.9657430031191412
-0.43419339366418574
-0.11204178211721894
-0.03974530154647821
-0.026370903381293342
-0.029062884556604853
-0.03890183764458929
-0.053430795081399016
-0.061922288743555154
-0.06671082461503708
-0.08352134112669467
-0.15791661921072975
-0.22059819805241454
-0.3023864058198696
-0.41455697065358155
0.0
