# vtk DataFile Version 2.0
Vessel Segment
ASCII
DATASET POLYDATA
POINTS 76 float
-3.90091818288247 16.788823897567166 -5.643890518814284
-4.250222306312046 16.07817308779267 -5.5494226390494585
-4.691013480885048 15.313097650256095 -5.387991985516368
-5.187277536618551 14.546225012043537 -5.2034607554150805
-5.714033248605252 13.799833023935316 -5.039782872524713
-6.255288297601174 13.07145868311498 -4.945933014158362
-6.7909614511673375 12.359688926347161 -4.968048371821373
-7.296779820835528 11.674527721577174 -5.155693272411277
-7.729305786210998 11.039053973739 -5.542906948263833
-8.054325284108751 10.452166066361169 -6.083778576163179
-8.270260668983306 9.897276619450391 -6.7152693109390444
-8.37153032373269 9.36036938474401 -7.406410907290444
-8.3498064863959 8.841614116971966 -8.130265706360527
-8.20183662333471 8.336637294436473 -8.856313822485465
-7.930361779980756 7.8411322250442135 -9.559732180918157
-7.558976338293075 7.3487745671193165 -10.221910289884079
-7.121745716524984 6.843808557858209 -10.810685304128336
-6.66703386761694 6.311761208076701 -11.268044991698215
-6.24705502490744 5.757144046487429 -11.56678286551776
-5.9057026894439995 5.204446317988143 -11.656107814302553
-5.671538165122576 4.689096643007381 -11.546166965777404
-5.550163524250345 4.244730256154978 -11.24547488502276
-5.528895265231189 3.9088692663703175 -10.765306860227808
-5.590640674821324 3.7110947223380704 -10.14588400393747
-5.710382883635867 3.6321379057745924 -9.442073041363024
-5.880323263894924 3.6464074109411073 -8.69439195264669
-6.084262348446378 3.7260917509696276 -7.935416354750274
-6.294565497956245 3.8356188336223487 -7.179646001029927
-6.475458456282139 3.9324929539417823 -6.4190185303627025
-6.593208598916018 3.9683950125812193 -5.637748943562124
-6.61522263851229 3.894764010254012 -4.839319639145207
-6.537490981503823 3.693601366322437 -4.06032883845125
-6.374351091372559 3.3722213593565735 -3.3365049851107824
-6.145218044236131 2.94355590877603 -2.679715679268369
-5.870371230840224 2.415577670902732 -2.093009806718263
-5.563906067074512 1.797933194733923 -1.582214894138427
-5.2335479528110405 1.1049183818691417 -1.158795903072176
-4.892382481782612 0.3575995153615605 -0.8292232427789997
-4.550567826072582 -0.42094125757602524 -0.5780151098824661
-4.212576890192442 -1.2123434093832508 -0.3812134575440618
-3.875896938000169 -2.0023797735863824 -0.2122485698175461
-3.529063561777051 -2.7833428488204746 -0.04059453708112779
-3.1614644888633934 -3.550989290348112 0.1590405780252708
-2.7663668392051806 -4.300204336348633 0.4014546132556985
-2.3363396377926557 -5.024214189667764 0.6919797445556546
-1.8625879559366398 -5.710967569476555 1.0307385598861774
-1.3387493311353795 -6.343711377224769 1.4145206214979786
-0.7632877330981863 -6.906249998386973 1.8382946750597842
-0.13860873052686373 -7.387095857955008 2.296516456172692
0.5318512085855086 -7.779642527632449 2.782693966665643
1.2451963923837772 -8.080243511793025 3.2870780833823754
1.999579395361218 -8.28825377823827 3.7966156562844096
2.792051189219832 -8.404777808394197 4.300140184117225
3.6121655041972693 -8.430520861207004 4.792767954391914
4.442991429599499 -8.369880155483463 5.275299211012244
5.2701448530181265 -8.234801922767756 5.752282190695067
6.087157439785604 -8.043960535199012 6.22984201752512
6.893739781409506 -7.8198614743927735 6.714426839562501
7.69175225225289 -7.585376943295323 7.210956435157593
8.483225298857226 -7.360634654696105 7.72014057332511
9.269955892322061 -7.161095070492398 8.23815254747924
10.052547991004632 -6.997972289087496 8.759586903214883
10.829546206754125 -6.881379757653774 9.281079338232368
11.597089324885937 -6.822547948893305 9.802941205144732
12.346765095761064 -6.83442483617514 10.327943808194723
13.062528798846396 -6.929628256688344 10.858378199196878
13.724831646028951 -7.115104264034901 11.393486506822486
14.32016781455136 -7.3945825416688775 11.932140764792836
14.834332197134973 -7.7748813630346465 12.47431195772332
15.250852129898062 -8.257414717374436 13.016240929448461
15.563450214427348 -8.832412078029853 13.5501589470226
15.7816024215702 -9.483584781055118 14.06887934145985
15.919021928638934 -10.19342634880527 14.569945190541425
15.99131705488455 -10.938640227382932 15.054611712157259
16.019813293957693 -11.685238942966254 15.524117148046143
16.02819725839499 -12.398391038972878 15.967981489301716
LINES 1 77
76 0 1 2 3 4 5 6 7 8 9 10 11 12 13 14 15 16 17 18 19 20 21 22 23 24 25 26 27 28 29 30 31 32 33 34 35 36 37 38 39 40 41 42 43 44 45 46 47 48 49 50 51 52 53 54 55 56 57 58 59 60 61 62 63 64 65 66 67 68 69 70 71 72 73 74 75
POINT_DATA 76
SCALARS MaximumInscribedSphereRadius float
LOOKUP_TABLE default
1.2
1.2106666666666666
1.2213333333333334
1.232
1.2426666666666666
1.2533333333333334
1.264
1.2746666666666666
1.2853333333333332
1.296
1.3066666666666666
1.3173333333333332
1.3279999999999998
1.3386666666666667
1.3493333333333333
1.3599999999999999
1.3706666666666667
1.3813333333333333
1.392
1.4026666666666667
1.4133333333333333
1.424
1.4346666666666668
1.4453333333333334
1.456
1.4666666666666668
1.4773333333333334
1.488
1.4986666666666666
1.5093333333333332
1.52
1.5306666666666666
1.5413333333333332
1.552
1.5626666666666666
1.5733333333333333
1.584
1.5946666666666667
1.6053333333333333
1.616
1.6266666666666667
1.6373333333333333
1.6480000000000001
1.6586666666666667
1.6693333333333333
1.68
1.6906666666666668
1.7013333333333334
1.712
1.7226666666666666
1.7333333333333334
1.744
1.7546666666666666
1.7653333333333334
1.776
1.7866666666666666
1.7973333333333334
1.808
1.8186666666666667
1.8293333333333335
1.84
1.8506666666666667
1.8613333333333335
1.8719999999999999
1.8826666666666667
1.8933333333333335
1.904
1.9146666666666667
1.9253333333333333
1.936
1.9466666666666668
1.9573333333333334
1.968
1.9786666666666668
1.9893333333333334
2.0
SCALARS Curvature float
LOOKUP_TABLE default
0.0
0.08868844929286984
0.05572985857853228
0.04888622352415522
0.08677745172095087
0.14563921572841085
0.22022474557722466
0.28570944840287155
0.25340918524730294
0.18914052027561337
0.164074656412047
0.1588659239448772
0.15561210382892768
0.15248447083155248
0.13083509391862844
0.1242236230983129
0.1804815418932172
0.2564588177853986
0.4568255251310288
0.5913194523107191
0.6443050205456193
0.5603396083345031
0.4161840072888181
0.25645592240943216
0.16875344018467778
0.11142709142851384
0.048665461862145584
0.051801449633519236
0.14257054064266675
0.2207677531698542
0.24227153753243255
0.23514080710776758
0.2083174577926322
0.17939221026998384
0.1585568583522356
0.14830618115853678
0.1368709646203877
0.10668321462610454
0.07173543463836815
0.03520422474066115
0.017657976252908634
0.048563788448099214
0.06872913747001878
0.07977589637284574
0.09091425114742997
0.10388943454222169
0.1150083331491543
0.12099578998559225
0.12175426354479917
0.11919679799832479
0.1144535753827521
0.10875673319488091
0.10251869955010835
0.09370369949541649
0.08004496391348552
0.060671590450257315
0.03788820597100351
0.019105935568788028
0.018402970475469897
0.02886815037307761
0.039483226282311525
0.05135928082168425
0.06631226275257761
0.08575367711422326
0.11025321768200325
0.1352863288413842
0.15732723216747443
0.18213030691839294
0.19875104271360605
0.19102312325138976
0.16034382824164545
0.12635078273494235
0.09317292360129203
0.05851952821747892
0.028495641796754935
0.0
SCALARS Torsion float
LOOKUP_TABLE default
0.0
0.0
0.5516734619857285
0.7309074712855723
0.4055739652641381
0.18175792816009897
0.07395711041887694
0.08079341901193915
0.22444380867322633
0.30631793370407584
0.2514123695858898
0.15199882764088238
0.18869839086174173
0.15540701312784433
0.19546960151788714
0.42481421924688406
0.3976340943768048
0.2928434662220692
0.06814806195576001
0.08525442893249066
-0.059766916643222895
-0.1831128737280321
-0.1431006994696385
-0.06710669659205748
0.141944358818021
0.06900361417022009
-0.5437006754221201
-0.7540680476006405
-0.15568656382318535
-0.07097118312669864
-0.08100006546081344
-0.0785836830438945
-0.09078463288520361
-0.13783119899750387
-0.0859890088864804
-0.0060579931261973835
-0.0366759243864279
-0.04212210176509253
-0.023216855114022952
0.2950505196188844
0.9763126960553381
0.228038098924781
0.05158109596844915
-0.060056377147516604
-0.11089780601153741
-0.09554450191685501
-0.059249990256225266
-0.03204611848371551
-0.032957007403813715
-0.06530126507556054
-0.10495815710299966
-0.08769525726247088
0.009991222137291048
0.10112071536827691
0.14768867687713916
0.1858417038612444
0.3525721714951206
0.8332663499730503
0.7646991270848921
0.35187338155742565
0.1814449142066453
0.06130921931056421
-0.025052314526489768
-0.07064917715946532
-0.08949694528562044
-0.0804672995476523
-0.04668863819590009
-0.037551189544747926
-0.03610294808367836
-0.012348518956942778
0.026862916603367523
0.009345391053834227
-0.07120641317285734
-0.28189963368020127
-0.25548443595235243
0.0
