# vtk DataFile Version 2.0
Vessel Segment
ASCII
DATASET POLYDATA
POINTS 76 float
-3.65600460960834 16.77018234094626 -4.7791074825043625
-3.9755921118220807 15.985462294327252 -4.743953106841022
-4.414720435197233 15.175698859593473 -4.605947601551468
-4.9366367247524385 14.38794280267108 -4.411377808233602
-5.511046171570297 13.633157194051194 -4.225369850841882
-6.117854065252927 12.90085509434184 -4.149166922075041
-6.721041815740739 12.186860551734277 -4.294144393545955
-7.254657069316521 11.50654068614524 -4.716133166551069
-7.647835045762036 10.867238564547147 -5.389443065670021
-7.867512176014472 10.243880508055375 -6.21710826922608
-7.931876108165381 9.642883174754079 -7.10180430501301
-7.882910358358119 9.070439690231154 -7.966060011231931
-7.753005893265187 8.514592412178565 -8.78215802465287
-7.550173534099535 7.949989299255719 -9.54791078283355
-7.258855699771216 7.360548840497197 -10.279276847242697
-6.8746421029004905 6.754886074095881 -10.97254766456067
-6.426735104946508 6.124760646488312 -11.599949224020873
-5.9740236410939165 5.4458257733163755 -12.097082403260172
-5.5805225550485344 4.722095262630118 -12.416270653878627
-5.298972364897859 3.9836687965606794 -12.502233131927918
-5.159671490657119 3.2975916396180436 -12.318415733607605
-5.166320918468242 2.750145856880198 -11.912615320881091
-5.234137518002372 2.367662738662919 -11.381324723780418
-5.34682040447834 2.171015336395816 -10.69434159244397
-5.531512729630828 2.17248912763769 -9.91012230685013
-5.772021800241092 2.3410796823744224 -9.106899429514847
-6.032747419744241 2.6302641698494904 -8.32041838804224
-6.268175830616658 2.9910343712263683 -7.549952338428281
-6.436614619445461 3.3638783922127566 -6.779532021589441
-6.513798360488658 3.682190289054079 -5.994601906002144
-6.487553175060679 3.8851461956643885 -5.198028293641236
-6.377864451325407 3.9447519016337536 -4.414021404497715
-6.217854954963356 3.852721226583883 -3.662686866347705
-6.038185100464821 3.606830297254532 -2.9498374618952354
-5.859868827461611 3.2080901985231494 -2.2880343789170086
-5.684705378970157 2.6769780597671087 -1.6950058856787766
-5.510438075739236 2.0400908381115688 -1.1846252421485872
-5.347496345789682 1.3230507985825481 -0.7583027138861697
-5.202723385053303 0.5479327687639731 -0.3963641472464116
-5.076670834089956 -0.27120721235899253 -0.07455467694633405
-4.961099926818459 -1.1229944012207225 0.23322868699340324
-4.830145674677723 -1.995261463916378 0.5592667789764264
-4.647378694431003 -2.8686711948398935 0.9307137166652147
-4.381741769267209 -3.715189847293387 1.3567102575700363
-4.014768358673234 -4.505039421930758 1.8318298399673087
-3.53721033066767 -5.209995297444389 2.3459461203192817
-2.9488111669587553 -5.8049904429271235 2.884465939490175
-2.2590696362351843 -6.272245895936092 3.4296844577804837
-1.4853218556143384 -6.605662559094451 3.9633964846230256
-0.647433389594434 -6.81306518331987 4.468915987314063
0.2387835750910274 -6.913156071375066 4.9337649940458315
1.1613647020828575 -6.926370324310936 5.3538597053960855
2.106242221571967 -6.868264835091824 5.733634052404495
3.0606740324117117 -6.750091596501016 6.083532186526518
4.017785580798661 -6.580545704358514 6.41507659096891
4.973550914186298 -6.369643704756053 6.7373797612057
5.924834118404444 -6.13162102794166 7.057087733499382
6.871080923625469 -5.886067111170544 7.378952382955888
7.81639338565692 -5.657642224913499 7.706626045856099
8.767390513237968 -5.474402397063233 8.041467132966739
9.728094267693889 -5.365320832932441 8.381255029169889
10.69585914311426 -5.355499010064754 8.721153120780226
11.661062197305942 -5.462243649500321 9.057775164090598
12.607753646803744 -5.694801023132407 9.394338005203524
13.51281612000939 -6.057399770903129 9.740348464494454
14.345159658253623 -6.553268229892478 10.10631829402284
15.068143402776519 -7.185145228769491 10.497872445371401
15.64678516016852 -7.950000349537365 10.913563612516826
16.051542250874853 -8.833088821524708 11.348327089917733
16.26489794799627 -9.801459430267167 11.792872945010984
16.297298167780983 -10.805232773118233 12.235464180106426
16.189872040821193 -11.80143581682179 12.669618625386123
15.990432964102341 -12.773549512824474 13.099089012003928
15.748318159370708 -13.71229621917455 13.536472205860488
15.5222313146952 -14.592383816927823 13.992413333303562
15.344413602378296 -15.395200352062341 14.45430916524408
LINES 1 77
76 0 1 2 3 4 5 6 7 8 9 10 11 12 13 14 15 16 17 18 19 20 21 22 23 24 25 26 27 28 29 30 31 32 33 34 35 36 37 38 39 40 41 42 43 44 45 46 47 48 49 50 51 52 53 54 55 56 57 58 59 60 61 62 63 64 65 66 67 68 69 70 71 72 73 74 75
POINT_DATA 76
SCALARS MaximumInscribedSphereRadius float
LOOKUP_TABLE default
1.2
1.2106666666666666
1.2213333333333334
1.232
1.2426666666666666
1.2533333333333334
1.264
1.2746666666666666
1.2853333333333332
1.296
1.3066666666666666
1.3173333333333332
1.3279999999999998
1.3386666666666667
1.3493333333333333
1.3599999999999999
1.3706666666666667
1.3813333333333333
1.392
1.4026666666666667
1.4133333333333333
1.424
1.4346666666666668
1.4453333333333334
1.456
1.4666666666666668
1.4773333333333334
1.488
1.4986666666666666
1.5093333333333332
1.52
1.5306666666666666
1.5413333333333332
1.552
1.5626666666666666
1.5733333333333333
1.584
1.5946666666666667
1.6053333333333333
1.616
1.6266666666666667
1.6373333333333333
1.6480000000000001
1.6586666666666667
1.6693333333333333
1.68
1.6906666666666668
1.7013333333333334
1.712
1.7226666666666666
1.7333333333333334
1.744
1.7546666666666666
1.7653333333333334
1.776
1.7866666666666666
1.7973333333333334
1.808
1.8186666666666667
1.8293333333333335
1.84
1.8506666666666667
1.8613333333333335
1.8719999999999999
1.8826666666666667
1.8933333333333335
1.904
1.9146666666666667
1.9253333333333333
1.936
1.9466666666666668
1.9573333333333334
1.968
1.9786666666666668
1.9893333333333334
2.0
SCALARS Curvature float
LOOKUP_TABLE default
0.0
0.14819822872344673
0.10199692596523897
0.06675815761291336
0.12733660728717525
0.24238797923772656
0.29502366360201204
0.2663455124964692
0.19386053339555484
0.14277887586935273
0.10676823589974142
0.08817660593378877
0.09159885598941385
0.09984345181383761
0.10004461233825684
0.0953408686901033
0.14758309252383586
0.2328128005278818
0.38161854578973337
0.5302124292525989
0.5672532195172015
0.4606747110977904
0.4027112524672811
0.3037734042414508
0.22088249708899252
0.15396489001242175
0.09865684546291531
0.08863009063807693
0.1457573664333614
0.2248702744173909
0.2573645634948127
0.26583975456958847
0.25828712770921924
0.24543089419875447
0.21470103496562948
0.18568594773681507
0.156975085392045
0.11351144601521179
0.07311618739337072
0.03342459203813432
0.01732685969298809
0.06715628265711984
0.1030986415253493
0.12638307408336005
0.1447022715318373
0.15771716370449948
0.16256580719292826
0.15731605458304687
0.14249652734623744
0.12181562458372032
0.10027044693509775
0.0808990323592497
0.06438872291973306
0.05151666380716962
0.03969882017013343
0.02591917902739909
0.008552315973506468
0.016985946635233104
0.04387229672579608
0.0711920639048126
0.09413677809918403
0.10967563130937455
0.11852743670973591
0.12667084041575916
0.14133566042464343
0.16189875256845165
0.1773836152038731
0.1810486802106302
0.17223372357495284
0.15038165551453253
0.11706852773234158
0.08107546277638601
0.04612001606704719
0.04241594289390647
0.0630940021154778
0.0
SCALARS Torsion float
LOOKUP_TABLE default
0.0
0.0
0.275180994344414
0.7636468174163247
0.45619182478109593
0.1648250466620338
0.12218288471253622
0.1746970653661018
0.32269351902115695
0.22188978568197268
0.2702183220708752
0.3282744119507999
0.278115000623992
-0.012444900471699882
-0.06505085501733808
0.32887871586143547
0.3895204806545676
0.2231761531883105
0.06524868295249361
-0.033383803221647926
-0.011135854459915197
-0.4103507930506235
-0.14284758947235165
0.21484718248551024
0.07760855464592742
-0.15249714486305843
-0.6461459760899052
-0.8069784829824642
-0.4599157139016788
-0.22900105609003704
-0.20452528270731926
-0.23646614933223484
-0.23113623326972652
-0.13980360434493505
0.031680302294695206
0.07326339692131444
-0.07689935945898148
-0.1551715556044444
-0.20321890041799315
-0.2545532949970777
0.5857905705037199
0.001486202877419296
-0.05134200144949256
-0.05606232819997105
-0.03785437882989
-0.032120698993672356
-0.030773291169982845
-0.03614603936707666
-0.06164906136382326
-0.10387219252163689
-0.0957571520898044
-0.0023467287305493634
0.11285302011567531
0.17118672155282474
0.1781662721033466
0.23402691763800854
0.860240180836305
0.32339961647343596
0.08354791695238084
0.05192086783528059
0.03062418224218126
-0.0027178075971240265
-0.05944621456942989
-0.10650873904872804
-0.10425139207955277
-0.0642123916263198
-0.029589545778363237
-0.025238408146695573
-0.029682399050708692
-0.04139951087911801
-0.06510137355938417
-0.12245993119901889
-0.5367070502369282
-0.8078325753642693
-0.39862608116175713
0.0
