# vtk DataFile Version 2.0
Vessel Segment
ASCII
DATASET POLYDATA
POINTS 76 float
-4.618178012229177 17.071398459042502 -4.930292785586552
-4.995632287643147 16.34989090115658 -4.892050174590154
-5.431884834841892 15.550805670625834 -4.798704914558793
-5.907759618619006 14.730479703096819 -4.6924482692291365
-6.404212890606139 13.925685838809075 -4.605019651380088
-6.9112497387182845 13.13524671119052 -4.585822810564865
-7.406802743424934 12.36071689481243 -4.693441602413672
-7.8528665886709845 11.619267933202842 -4.976067353313062
-8.20118047082306 10.951105581389632 -5.464138538908745
-8.413134148101362 10.357106609069614 -6.092912359852
-8.504350091511146 9.790257218419097 -6.779699955329664
-8.486353338671366 9.232190495281747 -7.496682258175364
-8.358742006544757 8.6904286671301 -8.233838748805697
-8.122858768797348 8.172908165119946 -8.977092106085097
-7.789609868709629 7.67835143138075 -9.708799226168901
-7.377103552896359 7.195091689497501 -10.40782752561163
-6.911585329680395 6.705757705689544 -11.028448035044564
-6.443817561173752 6.199889410881188 -11.486642613687268
-6.0152105554918975 5.698555867794293 -11.761898799349789
-5.656012711315583 5.239379016757914 -11.811590002046907
-5.387848503755162 4.866889962712644 -11.642554006292462
-5.20446320901472 4.583733036885446 -11.307287551279662
-5.098782846978606 4.375507379224505 -10.831201589799075
-5.06701135480595 4.239875914449257 -10.224148115413856
-5.103106784214386 4.17315528127013 -9.517190824475652
-5.190956219046088 4.163403375000864 -8.756188038840554
-5.298474717073919 4.183602862925998 -7.965557863243666
-5.405709492750929 4.207757337416031 -7.15923055881445
-5.501308713028578 4.205654777913403 -6.3583513859416
-5.578606494756209 4.135844855751259 -5.578382419264471
-5.633114554146286 3.9645204108106853 -4.830438283800842
-5.660154896363213 3.6776695139073046 -4.122717127792207
-5.656612759758334 3.2704120207837057 -3.4647236894453526
-5.625651611510534 2.749201250340102 -2.8662722966190115
-5.5698590334500215 2.1318867012186757 -2.3323635562820852
-5.4844221492488545 1.4391593790582653 -1.8631808390889937
-5.363942377339729 0.6886272978650916 -1.46080275153186
-5.210043154549345 -0.10157211328623991 -1.121800925649156
-5.018629119715308 -0.9136176255650574 -0.8265466576589855
-4.7786349576037965 -1.7323337598420046 -0.5526980231879107
-4.483344641146265 -2.5443732195305317 -0.2865353044008793
-4.130014948279044 -3.3371468424148736 -0.022516732398725176
-3.721131751099045 -4.09895131641759 0.24448155560009227
-3.2605179716878903 -4.8214856440788 0.5289807528179516
-2.747627704585996 -5.497056052314596 0.8439613835201343
-2.181384331321462 -6.115445994378345 1.1903997208858499
-1.5621267014790403 -6.666703555224987 1.5635107873302216
-0.8927992232877819 -7.143194162989823 1.9580564012942396
-0.18065938602849002 -7.540405045960468 2.3718039278627985
0.5647871041466835 -7.85615718017876 2.8043964459079858
1.3377067876078654 -8.089776264780525 3.2504867800626145
2.1388132115956524 -8.243775016642168 3.6988477707915495
2.9692280850291244 -8.322794138922962 4.141017598449059
3.8231515932401683 -8.330326602658927 4.575840205201544
4.6884559075198915 -8.269409154781211 5.008000335622497
5.551925443773954 -8.145082215623903 5.445259067954081
6.4027027461079875 -7.965059719592167 5.895776589142829
7.234096958769548 -7.741582981073454 6.365452565665543
8.045539810333755 -7.493201426237211 6.856773518654979
8.841785323571967 -7.24277920493209 7.369038823976682
9.628011653369937 -7.013375434939283 7.8995379926241345
10.404061626021004 -6.826244182196839 8.44550010503286
11.162667279831659 -6.7003929634149255 9.004762749816168
11.89195044648283 -6.6515739822529625 9.576510110152723
12.575970624203475 -6.693508497204623 10.162848524234393
13.191175759841812 -6.836761833507984 10.765090142923336
13.714977545140275 -7.079628326158732 11.375838815142293
14.146972234815662 -7.409874305433671 11.983031962145377
14.497879943932476 -7.818558208331867 12.581632339216068
14.775939625391029 -8.296985089143964 13.171351218600172
14.993016443942688 -8.834604783157022 13.755002419399228
15.16560067813307 -9.419402331043683 14.338277308353264
15.312270132760796 -10.037608344580134 14.929851039538754
15.449485229645317 -10.67479929339688 15.53476028040161
15.584204233340209 -11.305743664348617 16.14539112100387
15.713108297946373 -11.900124851343389 16.73263591259848
LINES 1 77
76 0 1 2 3 4 5 6 7 8 9 10 11 12 13 14 15 16 17 18 19 20 21 22 23 24 25 26 27 28 29 30 31 32 33 34 35 36 37 38 39 40 41 42 43 44 45 46 47 48 49 50 51 52 53 54 55 56 57 58 59 60 61 62 63 64 65 66 67 68 69 70 71 72 73 74 75
POINT_DATA 76
SCALARS MaximumInscribedSphereRadius float
LOOKUP_TABLE default
1.2
1.2106666666666666
1.2213333333333334
1.232
1.2426666666666666
1.2533333333333334
1.264
1.2746666666666666
1.2853333333333332
1.296
1.3066666666666666
1.3173333333333332
1.3279999999999998
1.3386666666666667
1.3493333333333333
1.3599999999999999
1.3706666666666667
1.3813333333333333
1.392
1.4026666666666667
1.4133333333333333
1.424
1.4346666666666668
1.4453333333333334
1.456
1.4666666666666668
1.4773333333333334
1.488
1.4986666666666666
1.5093333333333332
1.52
1.5306666666666666
1.5413333333333332
1.552
1.5626666666666666
1.5733333333333333
1.584
1.5946666666666667
1.6053333333333333
1.616
1.6266666666666667
1.6373333333333333
1.6480000000000001
1.6586666666666667
1.6693333333333333
1.68
1.6906666666666668
1.7013333333333334
1.712
1.7226666666666666
1.7333333333333334
1.744
1.7546666666666666
1.7653333333333334
1.776
1.7866666666666666
1.7973333333333334
1.808
1.8186666666666667
1.8293333333333335
1.84
1.8506666666666667
1.8613333333333335
1.8719999999999999
1.8826666666666667
1.8933333333333335
1.904
1.9146666666666667
1.9253333333333333
1.936
1.9466666666666668
1.9573333333333334
1.968
1.9786666666666668
1.9893333333333334
2.0
SCALARS Curvature float
LOOKUP_TABLE default
0.0
0.05635968383162471
0.02757908403212437
0.03508836405712734
0.0792844028781907
0.14852017980667984
0.21943312100377932
0.2872875129008006
0.25732081007049745
0.16792632154180148
0.13452126855310723
0.128835751718329
0.12440229045826386
0.11154573824965056
0.09646261834092401
0.10895719607102575
0.2060728722987758
0.30330751089593927
0.5670458278398315
0.7782646266766406
0.7182500092632064
0.5083347180675595
0.3168701801894623
0.19583021709991097
0.1242795520080121
0.05174975351024713
0.006356860868892242
0.04370252015990634
0.11464185014428835
0.1811406095166624
0.21131182661294556
0.2171181224612801
0.19982086163057025
0.1686641867737086
0.13984512787852593
0.12364372986158936
0.10455994275008329
0.07660911488090769
0.06468614451754429
0.06762557572646435
0.07394925662238654
0.07760461924709415
0.08232769474600934
0.0930826776514472
0.10177424615380612
0.10771043875447674
0.11058267897923306
0.1093684248479098
0.10600849105204484
0.10212952455234015
0.09619220825206785
0.0884167027572384
0.08004359573966943
0.0724429052737851
0.06610329731500622
0.06081023304987277
0.053212002620020314
0.04007489104535218
0.027041316566181847
0.03087753925506225
0.04862284179309565
0.07014152345606274
0.09387172911675327
0.12275825641731541
0.15846159388142536
0.18699946870501158
0.18710993321000527
0.17270120429273608
0.15288287670285294
0.12234006790579799
0.08477726642264043
0.046467715394794405
0.01684744447314432
0.011134664659244784
0.01271740254312333
0.0
SCALARS Torsion float
LOOKUP_TABLE default
0.0
0.0
0.9146862319968193
0.5977456584303827
0.3017682079061417
0.14418816694194975
0.09331265376971488
0.05120556936618466
0.25873048399104326
0.5333696601174642
0.270459139685031
0.00351934339945581
0.0203247567869126
0.10768627899733198
0.27174720271803576
0.44036284441114104
0.32986195453859307
0.1487253670105309
-0.033848671680078934
-0.07706285688493937
-0.02507824903099016
0.07107418862267972
-0.007014835120351115
0.009192593577323414
-0.01291334335504948
-0.4515580646009024
-0.9999999172468901
-0.15180668300068367
-0.08354990591174456
-0.03691593557809088
0.009724246567904153
0.009228135151636686
-0.029300747272789855
0.0017499036221733759
0.11159035784908568
0.11877118114805414
0.07118630567474955
0.34995422297874235
0.5512494021099064
0.3444295225083393
0.15746233151864836
0.13983470196159856
0.2524818160332894
0.15724616668151487
0.004884052323646276
-0.04431730130972284
-0.032374032417673004
0.020943006867342857
0.05412601974444724
-0.021689711736948544
-0.13418385833187463
-0.119300047069766
0.010347959795041314
0.1395752078554242
0.2111010123081141
0.23485809634634897
0.2531379920558375
0.3813916532188483
0.7121229509569431
0.6001307992784197
0.23043595715458098
0.0579839234561339
-0.013817704555450866
-0.05755983744807775
-0.08282833843539826
-0.06964192564915132
0.012935244316639463
0.05290957308053652
0.005641692312960536
-0.0088325352882134
-0.01843136708186069
-0.1474530533268875
-0.6261397113665972
-0.9362430076340095
-0.37942661594312066
0.0
