# vtk DataFile Version 2.0
Vessel Segment
ASCII
DATASET POLYDATA
POINTS 76 float
-3.9221313394327066 17.12544132410671 -5.713497924280708
-4.416675225021887 16.330398888634853 -5.879867843140869
-4.933912560921794 15.497425593905298 -5.85981902350076
-5.482461414464052 14.652903951354196 -5.695719100479525
-6.073883122270453 13.830574028795924 -5.4632650323304235
-6.709588347896326 13.039261483026495 -5.237450427980758
-7.379942285605419 12.277441342878882 -5.116015505833977
-8.047315628820426 11.557952668888545 -5.207546519992695
-8.633837702654755 10.904362925765161 -5.575634476442755
-9.044795298315778 10.308496169469645 -6.1468220117491645
-9.27826074684476 9.7200937279535 -6.804310549785451
-9.346730004755488 9.128628655448674 -7.494496288139732
-9.25456062452602 8.543527614448212 -8.197274771888798
-8.984623261053889 7.994999986536145 -8.916972901832004
-8.548044348469615 7.501366203820027 -9.61455476430807
-7.97663438244517 7.055217987378573 -10.25651898489243
-7.309560905428103 6.64315038559641 -10.812617157537744
-6.59652852720481 6.252926521149271 -11.232963944517689
-5.895747596874534 5.88274216710637 -11.475964254983193
-5.282417624331542 5.587246908146607 -11.468761690766662
-4.7812076706426945 5.361237263388911 -11.276847847016397
-4.411443176430034 5.127629652484941 -10.9370376473052
-4.174722668125825 4.892128128007443 -10.46510034782101
-4.044970732576707 4.669012422162508 -9.89171085593626
-4.013756289336343 4.459955504969943 -9.21438595155903
-4.099616502273738 4.290776578136218 -8.452586839940585
-4.287238119443392 4.1676537180257265 -7.652608742349071
-4.545657354330849 4.067752249716164 -6.840110801563587
-4.839359914462199 3.949181106251689 -6.021159814716559
-5.134209326265514 3.7649663585197555 -5.203522256857361
-5.395180573241772 3.488424648306345 -4.413453110536062
-5.610355765669906 3.14192176634308 -3.6861594740192123
-5.7797966163787 2.7658563758721613 -3.0222173954623117
-5.894878204022016 2.366221296704767 -2.390826474093314
-5.9374388154579325 1.9075708324780825 -1.7786812420086209
-5.890339948013659 1.3542872633795453 -1.2116807844360182
-5.753293109981288 0.6981052314462814 -0.7446468521493245
-5.552919782027249 -0.0393041239031434 -0.4189518855836683
-5.308390427325165 -0.827334009616317 -0.2236476025204616
-5.023097859277274 -1.6409018117187988 -0.12500274919410306
-4.694088822522121 -2.4574557058664217 -0.0864380422710695
-4.312843959256503 -3.2601966162735327 -0.07363018832510178
-3.88318791835532 -4.040006189781012 -0.056731309991595626
-3.4103868669991817 -4.7892771675791606 0.012244381096477797
-2.887875470612132 -5.490770682099235 0.17568376028233945
-2.312387934333876 -6.119390358720879 0.4394381616615066
-1.6890924883528784 -6.657303043030571 0.7892754312037137
-1.0277810754256482 -7.100825375952847 1.2063024765489363
-0.3367346694071461 -7.4574178848509325 1.6758600839380708
0.38022798402440583 -7.732355535465235 2.1895956250040225
1.1218812730779792 -7.923520145780667 2.7341561619121473
1.8901082713448758 -8.032156998677774 3.2900666909424663
2.687306241247993 -8.063041009578146 3.8465759907957704
3.5090581644915138 -8.019182273712154 4.402427545211364
4.343986141219542 -7.907830450175629 4.959944537495237
5.18152756252993 -7.743688136023338 5.521130559469077
6.017023764335419 -7.545271400582547 6.085240703869388
6.850324204994694 -7.329800947404864 6.650627150753369
7.681210064298699 -7.112492892503231 7.2178210224260955
8.507912750942806 -6.90839094893099 7.787986484043146
9.328627270839592 -6.73270530124395 8.360633360121538
10.139671269358018 -6.602242510243539 8.933261730544384
10.93220724558659 -6.535052453212626 9.501231019477233
11.69471516705374 -6.544469994196323 10.059103054161788
12.41742176441895 -6.636905139786606 10.603345191830334
13.092217550804044 -6.815371776031324 11.132169023259143
13.71252147058106 -7.081870490813098 11.646559906279078
14.268049456976597 -7.4407975103863 12.152545560122567
14.742952181239716 -7.894341926090476 12.65474074800133
15.126677108295707 -8.437596936763224 13.154911391282344
15.41902587588432 -9.057909727352305 13.652883781705318
15.633505748418797 -9.741618126260377 14.14692339565414
15.781213212567236 -10.479387950128872 14.634215040666328
15.866388570613864 -11.254603116080114 15.112266076919415
15.904346802031311 -12.04291169366982 15.583363872545116
15.919795890707206 -12.811140570116692 16.04468147081617
LINES 1 77
76 0 1 2 3 4 5 6 7 8 9 10 11 12 13 14 15 16 17 18 19 20 21 22 23 24 25 26 27 28 29 30 31 32 33 34 35 36 37 38 39 40 41 42 43 44 45 46 47 48 49 50 51 52 53 54 55 56 57 58 59 60 61 62 63 64 65 66 67 68 69 70 71 72 73 74 75
POINT_DATA 76
SCALARS MaximumInscribedSphereRadius float
LOOKUP_TABLE default
1.2
1.2106666666666666
1.2213333333333334
1.232
1.2426666666666666
1.2533333333333334
1.264
1.2746666666666666
1.2853333333333332
1.296
1.3066666666666666
1.3173333333333332
1.3279999999999998
1.3386666666666667
1.3493333333333333
1.3599999999999999
1.3706666666666667
1.3813333333333333
1.392
1.4026666666666667
1.4133333333333333
1.424
1.4346666666666668
1.4453333333333334
1.456
1.4666666666666668
1.4773333333333334
1.488
1.4986666666666666
1.5093333333333332
1.52
1.5306666666666666
1.5413333333333332
1.552
1.5626666666666666
1.5733333333333333
1.584
1.5946666666666667
1.6053333333333333
1.616
1.6266666666666667
1.6373333333333333
1.6480000000000001
1.6586666666666667
1.6693333333333333
1.68
1.6906666666666668
1.7013333333333334
1.712
1.7226666666666666
1.7333333333333334
1.744
1.7546666666666666
1.7653333333333334
1.776
1.7866666666666666
1.7973333333333334
1.808
1.8186666666666667
1.8293333333333335
1.84
1.8506666666666667
1.8613333333333335
1.8719999999999999
1.8826666666666667
1.8933333333333335
1.904
1.9146666666666667
1.9253333333333333
1.936
1.9466666666666668
1.9573333333333334
1.968
1.9786666666666668
1.9893333333333334
2.0
SCALARS Curvature float
LOOKUP_TABLE default
0.0
0.19049253858675405
0.13302688639672686
0.07458473662015228
0.05029947406439401
0.10801959647945586
0.21949905244800155
0.3146813969419747
0.31199661131743367
0.232336873212477
0.19904539185957543
0.18693783951558826
0.19621046495155303
0.18674079793595608
0.16066519862344397
0.1429189409517764
0.16619291759797647
0.23433043221830108
0.4974775624467279
0.5671724639157398
0.5684039113648914
0.490821667659763
0.32285006861938054
0.2182942129802928
0.19617513593211452
0.15167430062766482
0.09355068862510443
0.04529653268887369
0.08141366309996699
0.1318672616642392
0.13945723609285632
0.10970153029870297
0.11075524622470902
0.1590119508747659
0.20704761235148195
0.24142657798257777
0.2441542978526763
0.19716451832617315
0.13815257524742713
0.09311985576400066
0.07466488237985675
0.06751284167560534
0.09367419581470243
0.14621494143662828
0.167098103889845
0.16505340448203426
0.14900197870622856
0.1261663009857892
0.10992867431331095
0.1019638812463133
0.09350962687785862
0.08446666043545988
0.0760678852558521
0.06463280743784433
0.0492743907240471
0.03203514028347652
0.01608637320766158
0.0032911127513543127
0.012838141509083316
0.027042015293360692
0.04401044333597305
0.0651244136730151
0.08659438187222766
0.10556106949872632
0.1238332566247926
0.14121728052552224
0.16132846970474968
0.17992991610429265
0.18136658140402895
0.1617455997369861
0.1265706515833996
0.1002793630855701
0.0839138269010608
0.05812376599371929
0.027641722981588717
0.0
SCALARS Torsion float
LOOKUP_TABLE default
0.0
0.0
0.18747177396192494
0.645511897986316
0.846406999703027
0.37975477585793965
0.1504288495069567
0.13246628724363935
0.3311380553993392
0.5271969093031456
0.26149102120254036
0.036913132380377134
-0.12714047821751842
0.05500875462840188
0.16565225695422445
0.24030843961511497
0.30850973414146676
0.22076839262224657
-0.04597236798103027
0.08228264131146638
0.6592226282696229
0.0011984231159849479
-0.1653462618782705
-0.06845145660900749
-0.0900770699164138
-0.014932440104488784
0.2638916299234383
0.9402917022710435
0.4896297364724383
0.17591850575471785
0.03316894877891144
0.2738794125378575
0.46940305338707056
-0.048452372429544144
-0.15367254379067177
-0.15887195189118006
-0.17832257634179904
-0.04541861864018987
0.16682467539135648
0.43416641328752625
0.6135648648366488
0.5549341558320355
0.48399479846912363
0.12372760743001482
-0.06450104038370681
-0.09994445214845492
-0.07774175844747429
-0.04159559307654712
-0.03233978442304548
-0.1172564480210492
-0.20562447856648325
-0.1397966211619665
0.011685628688763633
0.1141922782480427
0.15015726974097673
0.10910447766841176
0.0547192963476921
0.9981376040827709
0.2400009005288951
0.07920289450102896
0.04395760959412758
0.009495171130306027
-0.00997982632548625
-0.024122260043300238
-0.032498131790839914
-0.04671747516026412
-0.09459501177989889
-0.10111283668508507
-0.07623552768762104
-0.056877055924858026
0.008698077054953894
0.04077529507123157
-0.059901780559813635
-0.21370637512757581
-0.6883465336965269
0.0
