# vtk DataFile Version 2.0
Vessel Segment
ASCII
DATASET POLYDATA
POINTS 74 float
-4.9182689668848445 16.51964346626009 -5.141368434377796
-5.380463300089166 15.838673113167747 -4.944752906399886
-5.9157640505099565 15.082278949134624 -4.652202231585142
-6.489775666718401 14.314075320233652 -4.3351687246864845
-7.076993782453529 13.581922231996604 -4.070453343233673
-7.652378670016835 12.921584570913552 -3.9382413261640687
-8.191000654854205 12.348114755044417 -4.001579366062087
-8.677098950409224 11.848540962707068 -4.291436007472293
-9.10300377872934 11.38177283144685 -4.794894253526162
-9.446739836108655 10.888515587584628 -5.465754144076558
-9.680212461136549 10.336938668323528 -6.2176712989687
-9.779482524961535 9.72645872909986 -6.991881880054212
-9.707669794857871 9.079685305108983 -7.826113536519375
-9.459822484198936 8.459272524291631 -8.672561911809645
-9.068263530771478 7.860079957485417 -9.526180106807372
-8.529365844128423 7.269358618813037 -10.402198989257307
-7.824724036874881 6.653326545644829 -11.322968957152572
-6.969933581719405 5.98093427456543 -12.236048596934607
-6.040008832421145 5.236916455065811 -13.011924499703152
-5.16918815874362 4.443440796778361 -13.488845771322419
-4.488518301613681 3.6895909775524567 -13.537923015473577
-4.064357140321094 3.0757783806981958 -13.168540032808233
-3.8684178015362476 2.615461258857834 -12.487337210748038
-3.8588287827096988 2.3042712490131936 -11.567153065634807
-4.0039163868173056 2.1524100592906605 -10.498050016430492
-4.258817710617665 2.1514123188685836 -9.3755545614754
-4.575085628929345 2.272980621339374 -8.265892967611318
-4.91102865957785 2.4761249422244496 -7.197586470834332
-5.224057615783053 2.704780126424332 -6.174074979342091
-5.478436694170422 2.899210804369458 -5.196061915659076
-5.6543566929521205 3.01304149687685 -4.260721352098881
-5.748561205790577 3.013575639485919 -3.360403663347365
-5.764479135561987 2.8760682742303905 -2.4893915034519614
-5.701378462860933 2.5780087440140327 -1.6472111577813642
-5.563704460721949 2.1045419842875077 -0.8534253498890209
-5.372181262481747 1.478958996099481 -0.1401938829548433
-5.147224956679448 0.7496225990840019 0.47604487963452924
-4.897403537683433 -0.04275735494893758 0.9985245101696196
-4.618803851966296 -0.8690000726772447 1.4360496935882374
-4.299622492636241 -1.706319323012829 1.787735220089201
-3.9342744907286242 -2.5402009192369377 2.0352726721834737
-3.5403184394092184 -3.349613266295671 2.1835739148548665
-3.098717400702973 -4.131471538700452 2.2868658574803207
-2.586948738347636 -4.878587680620546 2.3799276185887326
-1.9956126402189664 -5.573688557320856 2.489501872917818
-1.3294789269009786 -6.197327992146122 2.6391149420859557
-0.6049573844094662 -6.737586858162457 2.846650997199032
0.163754516296482 -7.192318754951258 3.1234520514780417
0.9682456565228852 -7.5522260440232065 3.466487043724471
1.797428818689141 -7.808459036071865 3.8474807140421086
2.637465973830759 -7.9614209609293285 4.239204443325631
3.4783478159510564 -8.015113233282817 4.627657012788814
4.320972739073463 -7.977584753848567 5.011766745313691
5.173150524963269 -7.8609568419791005 5.399514602656433
6.039038217595988 -7.683550839315679 5.803100147156282
6.915334028434469 -7.468839016564878 6.233422990831066
7.793429097310576 -7.240853960914389 6.696069565100991
8.662683482192394 -7.0226208893393975 7.18987960600763
9.512982942047449 -6.834411195415475 7.706130692474447
10.334006716146765 -6.691665615697355 8.229627221726178
11.11496148873044 -6.604478841106242 8.743233935686677
11.846657989725985 -6.580220495939716 9.234408397365822
12.521547124479564 -6.627264437385831 9.69946983122093
13.133807717841616 -6.754133832041 10.142668296241663
13.68192392562071 -6.965817217488636 10.572378678387267
14.170331271910722 -7.263674706542462 10.996922018848613
14.6059212642346 -7.646422112955363 11.421472109617683
14.996969308015354 -8.11012682736362 11.846608405192558
15.352421344704485 -8.648788589672668 12.269431645821065
15.674559202351272 -9.25543005400301 12.685478670810946
15.952755992357085 -9.92112292271392 13.091020708353975
16.1688537691996 -10.637093957768084 13.490686821713213
16.305562531397236 -11.39572541488842 13.898930725775566
16.346534249093633 -12.180498021058462 14.326002171200743
LINES 1 75
74 0 1 2 3 4 5 6 7 8 9 10 11 12 13 14 15 16 17 18 19 20 21 22 23 24 25 26 27 28 29 30 31 32 33 34 35 36 37 38 39 40 41 42 43 44 45 46 47 48 49 50 51 52 53 54 55 56 57 58 59 60 61 62 63 64 65 66 67 68 69 70 71 72 73
POINT_DATA 74
SCALARS Curvature float
LOOKUP_TABLE default
0.0
0.06593485005197684
0.02670034797516105
0.05849477373189099
0.161269039390795
0.3171610602123042
0.40370884005127206
0.3091837300767092
0.1880498594608813
0.1410431382870935
0.14428384605452357
0.1473509353341143
0.14934789828337766
0.11109514126353635
0.08967033724764793
0.06511270212913794
0.05693230559202557
0.08475619333640343
0.1738322654661997
0.39762069489346497
0.6249514451186422
0.5075608049450088
0.29586817315959524
0.18726045815739692
0.13389549672394074
0.10111213093866035
0.07068212885621918
0.030362284605828835
0.04773157257132466
0.10931445813347151
0.16602309144036714
0.20424993747352566
0.21885197848249374
0.21166544355572492
0.18302179685598155
0.14848015705363402
0.11928849563509718
0.10039173457180696
0.1024111753199018
0.12659061855651263
0.1231561034211201
0.08652954879747826
0.09424923855417605
0.11254613143285552
0.1282384579109716
0.13487709495310646
0.13371513003540364
0.13300599012335906
0.12489267438273471
0.11770530935147151
0.11463908277144695
0.10586275278674338
0.08654776406626193
0.06020984594339304
0.037352795189997845
0.028192720387751592
0.031875624157679035
0.039767842755854425
0.048814302039079695
0.0606357157422078
0.07968755563853355
0.11152922279758937
0.15410752583212317
0.19092723525480668
0.20335591884684426
0.189564558100767
0.15940697776681406
0.12603501857020347
0.10465188142202773
0.10045952188649858
0.10596717631431266
0.11238202291795485
0.12089630759449861
0.0
SCALARS Torsion float
LOOKUP_TABLE default
0.0
0.0
0.9263216278118915
0.4593771825396422
0.15283351864789857
0.11194613919999437
0.11875798506038605
0.20999922383272487
0.4908409376195081
0.5435347137197356
0.21921471770447848
-0.2193419538671883
-0.0970183159399798
0.015484595276029009
0.007614369792444392
0.10454561957833043
0.2954892295638205
0.2194392137050507
0.11723290629552341
0.009708418323123982
-0.033177342732176575
-0.016976130764918985
-0.05088426114045086
-0.056220033973855166
-0.07066176610553232
-0.10119429897753292
-0.17127989660746532
-0.8568514376843783
-0.5939808898319128
-0.17409585903862917
-0.12133995172499698
-0.10006709202722033
-0.05584060296959128
-0.06226619847844755
-0.07743862984007797
-0.03584966155793096
0.04486376380641371
0.17171570619300303
0.212878021263857
0.04117147843580096
-0.031012282980134115
0.6760408963872198
0.4747490861780351
0.26870977252885775
0.1980718722012259
0.17632055487384213
0.13711640465772923
-0.013853443265407828
-0.19514658521810754
-0.1874199380016112
-0.09400329343524215
-0.020786696968254012
0.053723673235166
0.21625194396542552
0.5241518941571464
0.6670226922237186
0.47855863201714466
0.32626053121891374
0.25953661769753694
0.2012455858209961
0.11334883225598583
0.00026325001939818404
-0.06963145631666198
-0.08291264965502874
-0.05356472075500548
-0.01505044323155999
0.04140350382834136
0.1006803260978876
0.06088666640972896
-0.08901669756805511
-0.21167091853709244
-0.2443459957301789
-0.18451052621348907
0.0
