# vtk DataFile Version 2.0
Vessel Segment
ASCII
DATASET POLYDATA
POINTS 74 float
-4.865748245427334 16.77806077271587 -5.348513839365963
-5.322330313151624 15.905000220901291 -5.1683908651992585
-5.801910579680366 15.005720438278074 -4.943716140379855
-6.284848060021543 14.130726351274957 -4.740886720690041
-6.753256019781612 13.309675545861115 -4.623707052482879
-7.18503706470914 12.559245511710557 -4.6524043864257125
-7.555479574185994 11.880724727659983 -4.8670461259807665
-7.844650161496697 11.254617182706943 -5.278073176083027
-8.036753900542609 10.655040083190157 -5.859265912518978
-8.122859563314833 10.054937472988192 -6.5544094351412445
-8.098622814448158 9.437131550454444 -7.299902768954031
-7.959992177621056 8.800712468131895 -8.04767233531414
-7.697718972813523 8.162633519075378 -8.790935002312118
-7.31720298195501 7.548870162933987 -9.512864751488312
-6.835218577692127 6.958603706956271 -10.213324544169701
-6.273911255452239 6.387797342835165 -10.884307882096303
-5.6683575890870035 5.827329039869741 -11.494748514168391
-5.063823333555856 5.2679635321035425 -11.986528056996065
-4.5159800090208915 4.703497893507664 -12.285162715938919
-4.08699217135506 4.148517114000775 -12.320985559172493
-3.8266157727194097 3.632702593697883 -12.050586566654996
-3.7576192490662312 3.214884230453199 -11.51236517804915
-3.8550044651966706 2.935994230579618 -10.799661553093793
-4.082269031337138 2.815069752753643 -9.989883821733255
-4.405971578987605 2.849829989458951 -9.141115860899053
-4.78915708785267 3.0183668703829087 -8.285833773475408
-5.192775185728049 3.288867344142636 -7.440835004123836
-5.574415581984394 3.6145636582172194 -6.6184754068323075
-5.89349425927371 3.9340987670210557 -5.812819120988962
-6.120421607526129 4.182153965369813 -5.01706626870905
-6.2419708084450445 4.304048967324038 -4.237931791300844
-6.261391856095691 4.265132728206788 -3.4891630656043833
-6.1904037317892415 4.049234303111657 -2.783936655589677
-6.04187156345263 3.652560552496578 -2.1332107191140826
-5.832765182887255 3.0886790441462613 -1.5540418301555383
-5.58460971797305 2.3957892030726065 -1.0606636454521279
-5.317007798932444 1.6176934314128941 -0.6569242295829668
-5.045461292372105 0.7895964487199353 -0.3410759656067421
-4.777282816233169 -0.06884969748247362 -0.10442547276134803
-4.508204538585665 -0.9523581688788265 0.0641040906584776
-4.227700482301327 -1.8630043930785702 0.17645988248051125
-3.9336495845509196 -2.7970451770418143 0.26240385220769014
-3.610943912688686 -3.746880016987908 0.3735665434374236
-3.2400891404674206 -4.697614706793393 0.5423072554629054
-2.804535578732154 -5.625184021812659 0.7850930855536066
-2.2918748517992196 -6.497975099041671 1.107715781491989
-1.6981677151154935 -7.279589832173192 1.5079164837522248
-1.0294973802492364 -7.939186864614158 1.9783206592971163
-0.2975910947370753 -8.456204670528587 2.5049855754725163
0.48548081025635376 -8.828183558249707 3.0621739049994168
1.3125757503918543 -9.070430952259725 3.626927748708448
2.178095771363754 -9.202009058857191 4.185758618978333
3.073060741924871 -9.237967050683014 4.733927692955686
3.9827696548554816 -9.187107650456984 5.273684122187437
4.890235641959866 -9.054114765525075 5.811326099340004
5.783410425447731 -8.845233297433818 6.352773064204306
6.659371994982215 -8.571878921895905 6.900040337980549
7.523851066709451 -8.250685925842317 7.452261425713097
8.38674144654436 -7.901224599399954 8.009187443581341
9.257240292556185 -7.543802108592949 8.573243104914454
10.13970129295614 -7.1997420425775704 9.149324274355282
11.031734356764296 -6.8924850510708175 9.743998703271842
11.92507982910868 -6.647363280229171 10.364366687867406
12.805389271728718 -6.490747977535571 11.014850962527905
13.64993328258061 -6.449153090355886 11.691087484426157
14.427990530741093 -6.545139325400645 12.3761751064477
15.109298231787214 -6.789646301370571 13.04780181359523
15.671708642381711 -7.178847037798624 13.687582555179288
16.10572401526729 -7.695869957139281 14.285344948152252
16.417282404281696 -8.31518574268646 14.840625873776935
16.622832008650626 -9.011902273841912 15.362607822259177
16.739043032607395 -9.763609003301905 15.864967405246462
16.780752341682682 -10.539629695880002 16.35735911042854
16.76415339486223 -11.290219400905325 16.83259219369401
LINES 1 75
74 0 1 2 3 4 5 6 7 8 9 10 11 12 13 14 15 16 17 18 19 20 21 22 23 24 25 26 27 28 29 30 31 32 33 34 35 36 37 38 39 40 41 42 43 44 45 46 47 48 49 50 51 52 53 54 55 56 57 58 59 60 61 62 63 64 65 66 67 68 69 70 71 72 73
POINT_DATA 74
SCALARS Curvature float
LOOKUP_TABLE default
0.0
0.03401309588557745
0.021958747790645675
0.08752268753391786
0.19531222584626573
0.3078958728942408
0.32419070383622056
0.24405874139569209
0.1580827914717445
0.11737622183967834
0.11346381259576803
0.11627184322972711
0.11623188121780668
0.0972987457797591
0.07851439069783633
0.07020794121911147
0.10944258926149336
0.2404004053850621
0.5031076139895209
0.696938413185507
0.5892756494536378
0.3898120357316962
0.270990237158059
0.2037972691794111
0.14935698479471876
0.10561495502196018
0.06765839781224149
0.0615429979985518
0.138360284786394
0.24166612743025087
0.3275769649217563
0.35312075204280546
0.3120719557677031
0.2457619415627233
0.1843109282833001
0.1408555265550975
0.11579280508729033
0.09750974061617242
0.08111918668021843
0.06431670904635867
0.030228795739622415
0.030848290236966898
0.06519383869680144
0.08837501676429665
0.1082649407004716
0.1277949835538802
0.14351707942216757
0.15226904579990294
0.1465504468889648
0.12824308780405336
0.10745181108016733
0.08980171849887184
0.07792242031413141
0.07230711671250901
0.06790864099163385
0.05842439844157043
0.042259953613133325
0.022773009901631766
0.003798964313790374
0.014805721637122514
0.03349233934926671
0.054033575116370004
0.07693834434631391
0.1037814194472303
0.13737347873273348
0.175989381957334
0.21010922802338666
0.2240085148430876
0.20627215438979205
0.1664201627720538
0.1247312664478064
0.09202946436450073
0.07443735765421539
0.0
SCALARS Torsion float
LOOKUP_TABLE default
0.0
0.0
0.8518966280557403
0.14785995881593816
0.09504162768948915
0.10305794535524647
0.13989791805723464
0.22240898622385538
0.3900167137783788
0.4648407529444138
0.2687692419132729
-0.07292192167397415
-0.06948104986154562
0.0011026026476239348
0.1010231068258692
0.40942455446630843
0.3689987815774415
0.1905064940024342
0.085494357522636
0.02665896783961759
-0.012435677898262314
-0.06306905690031404
-0.09209743379080633
-0.06144088589046756
-0.105553724999726
-0.22372108947789937
-0.5614888378188932
-0.8412252337217015
-0.3643721225450314
-0.19644815565111284
-0.15045900583017752
-0.1212583719881883
-0.08981213979805704
-0.07653058284648402
-0.0611463674001005
-0.051755917331169354
-0.05900783274513956
-0.03937329026704892
0.06766868194980458
0.1738961876291728
0.30719078058726335
0.643453527223173
0.04007357218918217
-0.044181380392021324
-0.06109017221405007
-0.04880141270139615
-0.024787206866477618
-0.02864718640619903
-0.0874790239746478
-0.12281424140090201
-0.10406083089054512
-0.030323047713688767
0.08511263810095995
0.16004174014281164
0.14317465838034826
0.07599397602022924
-0.0016645705123576882
-0.057805208515221855
0.8456855320571361
0.12947219325013015
-0.02108329669669648
-0.03664705589475975
-0.02821694379386764
-0.008978401703734193
0.009470096283681213
0.009472304157060673
-0.0065302990140531075
-0.0243517479167229
-0.03971611600026204
-0.06805083481799275
-0.13815940003323093
-0.2624890089156129
-0.369664983825464
0.0
