# vtk DataFile Version 2.0
Vessel Segment
ASCII
DATASET POLYDATA
POINTS 74 float
-4.773203482021176 17.446457903604713 -5.278396618475396
-5.262357396043971 16.62942232387913 -5.3058600734197565
-5.886382895102066 15.807072319524995 -5.301965715189995
-6.575424328142101 15.024569650981425 -5.302861167467836
-7.277297383347703 14.297886116485147 -5.350867694856227
-7.945143768844649 13.6364689851349 -5.4870264542799285
-8.540231524792121 13.041464988203433 -5.746221691832777
-9.04203362302779 12.511130885046613 -6.1493992275570255
-9.45038852846227 12.032030517718562 -6.701073772844082
-9.759871234588681 11.58413070456959 -7.382155775565477
-9.967430396552844 11.147300584662071 -8.155018182084547
-10.059299020426401 10.715259460807818 -8.980905636194555
-10.02224721870795 10.28811972194788 -9.803983285859266
-9.856345444022018 9.851654198703557 -10.583587536443664
-9.5738763612574 9.396730229740854 -11.281231447548752
-9.209992922896207 8.929101468117784 -11.861644234504896
-8.809402102641313 8.46260460802751 -12.310559058242088
-8.412775186325145 8.004427931676982 -12.622754536247292
-8.059988997106277 7.578437708707229 -12.792621068933343
-7.762713130211028 7.203989980414454 -12.829421013893255
-7.517846922153261 6.884108877181814 -12.73823856911426
-7.308974435766388 6.6023776132346335 -12.511371657394477
-7.132085237794132 6.350151523683544 -12.127403238126375
-6.985148057603746 6.120739821791379 -11.56961797706309
-6.867441868877194 5.903660931610025 -10.847670865866581
-6.778902429971177 5.684854123659841 -10.005099434033443
-6.711306476555433 5.438408597253666 -9.089253284991324
-6.652062260122971 5.130772327499722 -8.139301049945452
-6.588813522677727 4.730110490712089 -7.182886702328773
-6.514201158960421 4.21504165970091 -6.242139840672385
-6.426871327363593 3.5812922334605752 -5.344454473986334
-6.333291543655249 2.85762085249725 -4.519780858355485
-6.238358148879346 2.090348363202829 -3.7773369589460075
-6.1386386860848425 1.3124075696619022 -3.112825895494478
-6.024388552709316 0.5318717184097328 -2.515546392038159
-5.885564009118663 -0.26611593515385756 -1.974887720827821
-5.715076525759965 -1.0922926013414536 -1.4813380354876722
-5.502749352685171 -1.9429033729932994 -1.018391874950882
-5.231728767591216 -2.8023915119370253 -0.5627172695138144
-4.882814850191288 -3.650947395195999 -0.09429811643647933
-4.439577655679705 -4.469709188701834 0.39479961479379705
-3.8873599083458963 -5.2430050991507615 0.8946582985002322
-3.23345621349367 -5.944083639474276 1.3752184174639144
-2.4847568104702384 -6.553021390991373 1.8233696176067964
-1.645035428339949 -7.056587264370187 2.2413843220579595
-0.7261221957403472 -7.4468037599568415 2.6412897900123102
0.24619384615500778 -7.725679881326832 3.038338843913954
1.2396426409821861 -7.908137804647781 3.4435699215992686
2.2296893768069337 -8.017191181623792 3.862871104796752
3.2080994104915685 -8.068198106158087 4.30049732679908
4.1744160517357916 -8.06243869051783 4.755009913801385
5.130736113688572 -7.992218103481691 5.222304643002372
6.079564727423031 -7.848104756049138 5.700675723478718
7.0196875113902095 -7.6298751968013425 6.192503748164986
7.9457543855761505 -7.354659954594744 6.70310111234578
8.853130137418928 -7.053924816925885 7.23898475600655
9.741496462783068 -6.7659268858646096 7.807000033929513
10.614168724295606 -6.530032381669795 8.411664827278617
11.474979408592947 -6.382211674399319 9.051757147936307
12.322991837753541 -6.352593410320762 9.718584025388234
13.148210070717589 -6.464999726874714 10.397157073536933
13.93066235403286 -6.735877382584509 11.07043428068622
14.640470349164161 -7.17234943311499 11.725381660548532
15.238851184661874 -7.7669806050973875 12.354432015099727
15.691148114870828 -8.488119433904483 12.952268782002168
15.993809161810937 -9.290140075318169 13.520795144522218
16.169697111494774 -10.140045755254967 14.071977865715018
16.251234495556364 -11.016973204337658 14.616230459886124
16.279237020536304 -11.89951644700131 15.155461820171487
16.298869471519673 -12.76770292115253 15.685451194108857
16.343992822589236 -13.613134667618821 16.20127997283968
16.435287437382122 -14.431061850976803 16.702027446964685
16.589751026002908 -15.19877987474409 17.185294109094215
16.807206035676856 -15.877291609885608 17.62633939296105
LINES 1 75
74 0 1 2 3 4 5 6 7 8 9 10 11 12 13 14 15 16 17 18 19 20 21 22 23 24 25 26 27 28 29 30 31 32 33 34 35 36 37 38 39 40 41 42 43 44 45 46 47 48 49 50 51 52 53 54 55 56 57 58 59 60 61 62 63 64 65 66 67 68 69 70 71 72 73
POINT_DATA 74
SCALARS Curvature float
LOOKUP_TABLE default
0.0
0.10169422782633535
0.06913892842693585
0.06663753619077105
0.11023784315339741
0.18688354845175095
0.25481921698598575
0.25318387754844734
0.20502150979666584
0.15333757246776633
0.13925236153123854
0.14871681801711
0.16320060341494938
0.18224760334920587
0.19771946140544333
0.2093498307780067
0.247585438752479
0.3472474029721939
0.5036904200580433
0.6807247575241415
0.6728328474119678
0.49592334496853807
0.27514735721449507
0.13502604720592137
0.06509976346430586
0.030425879959015974
0.04897728521109892
0.07704500422581319
0.09334309885396426
0.1002316122871739
0.09528865104979517
0.07772922395696964
0.06311239196551148
0.05930780024099124
0.06599465495500063
0.06599373480017494
0.05603201801991081
0.05520111621940723
0.07171831763578788
0.08801994132942012
0.09955140256870731
0.10917315093275583
0.11964339588978824
0.12472201202953528
0.11878734914983959
0.1030986274710911
0.08326616636245318
0.06382842002183767
0.05352816655870248
0.0528699817830879
0.058348011268185326
0.06481915062730792
0.06351052632305694
0.050702378014396324
0.033552401445218455
0.03295671732807485
0.05532997738157578
0.08140892289100415
0.10421680391866008
0.12433751507037562
0.14312468382188046
0.16024663933505987
0.17421976598762576
0.1788760084120655
0.16167803538034853
0.128276741471681
0.0908763435864166
0.050457448192101004
0.007776932107997812
0.027143742762661054
0.05270006124682556
0.0847844994638404
0.12357916230326281
0.0
SCALARS Torsion float
LOOKUP_TABLE default
0.0
0.0
0.44523857544768625
0.6204916295298686
0.3623961968899706
0.19341929712957834
0.08458901797950696
0.06137834038612475
0.16894745678029346
0.26378900785660947
0.21676049702069836
0.2135302893706068
0.24120143546217765
0.21364764602533884
0.21455505636799058
0.22510104085663657
0.3117617714060191
0.22702958182882058
-0.031108804390354655
-0.0683140874957345
-0.05284928873303497
0.019249551145717324
0.025628502920354637
0.11992090326051229
0.3869336905217654
0.9027690768637054
0.4532859646903175
0.14273990353009397
0.04852464897327849
0.009889480884542452
-0.02210400398914804
-0.0033361469535258745
0.1275836628078746
0.23055047769950737
0.11139807796900353
0.0847937377602409
0.31639818425175265
0.49119561155383834
0.2730598244908181
0.08493867866343702
-0.050944325926916764
-0.09618474208775925
-0.008716792461493428
0.05466350673563012
0.1112680388953863
0.1658096732803629
0.20463521168298493
0.23695959793087124
0.1826741537743449
-0.009475434900135526
-0.08872473617666266
-0.05285612913456612
0.03172070178863572
0.19141201144978862
0.5662675579669351
0.6569959513016296
0.3010303376777902
0.15679418101574571
0.09997246601981848
0.060077396351496115
0.018133664340727447
-0.034766932529851774
-0.08640811365532144
-0.11666487190900432
-0.1262084737521039
-0.13426743790698206
-0.12357753258511739
-0.12748153177002172
-0.4991028950448536
0.018104300084831437
0.022271944691764814
0.0988845843253029
-0.017592203131087142
0.0
