# vtk DataFile Version 2.0
Vessel Segment
ASCII
DATASET POLYDATA
POINTS 74 float
-3.918008340131489 16.348220451626577 -3.0564915724383486
-4.42030888329741 15.447017030364535 -2.9965655415611594
-4.987010927457568 14.537345184222499 -2.870082854634645
-5.577154396497877 13.665100515185745 -2.7452898393761505
-6.157939475806957 12.854425208165742 -2.6939863248379994
-6.697999385748765 12.118811106988115 -2.7801598083473733
-7.1729542261708366 11.454727197558848 -3.05142211980973
-7.56514192223116 10.847431908486785 -3.5439009026493067
-7.856844277437643 10.284720800448834 -4.241650921146534
-8.041445098201232 9.737754681530376 -5.081819903664239
-8.110787236168239 9.191857857994943 -5.9884599515680526
-8.056969747937785 8.647837808099897 -6.9036356381595025
-7.870638244174629 8.115159638111875 -7.798666531422382
-7.555047823777647 7.5984865639112735 -8.654574631863444
-7.126944839302366 7.091069083372504 -9.458967467226621
-6.610612968075009 6.587607568236421 -10.193626623877668
-6.044307664643783 6.084376554837524 -10.841805080386775
-5.471076296270674 5.574924609811039 -11.384634318750583
-4.930019508065424 5.049879934228644 -11.795711658803784
-4.460884056300052 4.5085478755700255 -12.026738488324058
-4.119554721830345 3.9846852064250373 -12.014554656022383
-3.928704886820731 3.5346675190397194 -11.776623330119973
-3.8661198025971317 3.182378860670587 -11.35767098032841
-3.9222930429645313 2.9467659082326074 -10.781233839567683
-4.090126013942255 2.8407949469859424 -10.074168104877756
-4.354433082582821 2.867918445416796 -9.274122438044609
-4.688387738143744 3.0199220808129783 -8.421331394595384
-5.047478437561226 3.2614064401296607 -7.561661593394526
-5.385700458420701 3.5332086542680607 -6.705553057152124
-5.6673974960947975 3.7726164737556025 -5.847739455921024
-5.87112675114094 3.9283299953075157 -4.995293289091734
-5.993035788452252 3.9727595514632292 -4.15978458501773
-6.0335086726361045 3.888483975553537 -3.3494961242548498
-5.991715837793948 3.6583919444048214 -2.579373367489137
-5.874020743804167 3.2776231743029887 -1.877266983112721
-5.697205014005064 2.764205687551921 -1.2696459179430895
-5.480176335753098 2.144055666714533 -0.773045382259025
-5.240575127158392 1.44156923938972 -0.39520872573084903
-4.988335246531013 0.6747105908790371 -0.12776921976648747
-4.721275967543013 -0.14813442894053772 0.043595416114649864
-4.434701061432843 -1.0233131400607545 0.12846026159891455
-4.140133529816676 -1.9351014532165431 0.15844887055374224
-3.8248833061617837 -2.869926006040124 0.20268046093370218
-3.468451003575429 -3.810329223159957 0.30418550109020337
-3.053415140150931 -4.732377968188193 0.48599917454812164
-2.5663820753290163 -5.6084974478562435 0.7584954095135553
-2.0021978424573623 -6.409524176314623 1.121345997663616
-1.3645099929697084 -7.111316449492783 1.5662281094938901
-0.6613929047065225 -7.692908379091272 2.0740232542437864
0.09944293405397743 -8.147610381262247 2.609727406458832
0.91613086892231 -8.48414720279812 3.1474021865987862
1.7884103797856175 -8.709309578020703 3.6771021459528757
2.7104363240276905 -8.823540254854432 4.199964900796226
3.665796990903583 -8.825813288880937 4.722603404480839
4.6317219395776545 -8.722295806840885 5.252863645334988
5.591097934516375 -8.530884228803156 5.796955260365606
6.538061211934693 -8.27913678567996 6.3577550900463
7.475250115838709 -7.99903816993972 6.934660119927344
8.40884233225628 -7.720483101234687 7.5247856129988735
9.343563185369986 -7.467369574909385 8.124058274250867
10.278467480428263 -7.2588134852938015 8.728425164493277
11.205049279973364 -7.111646555230129 9.335887414975302
12.107228552598007 -7.041440935166519 9.947921281599795
12.962612954087357 -7.061026163880331 10.56705068414275
13.747312834869595 -7.1777946055834505 11.191300216190688
14.4443177368688 -7.394530782758073 11.812821339240193
15.043872191743983 -7.7133643572043225 12.422533162491384
15.53891130776972 -8.135744922419676 13.012780314740912
15.92698855354088 -8.659022504447536 13.577907355190671
16.21715989101984 -9.275419857685845 14.11651904580437
16.42702994350331 -9.975851843291373 14.634379723885354
16.576420666692854 -10.741997089331555 15.14079568703281
16.68753723662828 -11.537141311507789 15.64208021268987
16.777670493161953 -12.304944480670901 16.12799051809477
LINES 1 75
74 0 1 2 3 4 5 6 7 8 9 10 11 12 13 14 15 16 17 18 19 20 21 22 23 24 25 26 27 28 29 30 31 32 33 34 35 36 37 38 39 40 41 42 43 44 45 46 47 48 49 50 51 52 53 54 55 56 57 58 59 60 61 62 63 64 65 66 67 68 69 70 71 72 73
POINT_DATA 74
SCALARS Curvature float
LOOKUP_TABLE default
0.0
0.06789398195659775
0.03589830920748373
0.07605826718598975
0.17121079329955372
0.2716513892050974
0.3015478699361944
0.2351494529200312
0.14794408128062989
0.10962926648241865
0.10766442540693023
0.11957584739937485
0.12309962390448335
0.11356979196258309
0.10555240721833478
0.09616319424211321
0.10312870714941177
0.1544944435213791
0.29677068298432735
0.5874958073956847
0.7397715661436417
0.648849040628549
0.4711655140997796
0.30447639811218147
0.19923103657372002
0.1383423228257901
0.09162592481972458
0.04006420525357535
0.06943111806568665
0.13564308375290696
0.1864140172434367
0.22680981555159976
0.2594655917605628
0.26999228945417664
0.25238896830401314
0.2278964011120685
0.20548169040839556
0.17184869572106684
0.13485562633854037
0.10632847310895058
0.06100473837315375
0.018271208195882578
0.06452990070529659
0.09333734676087288
0.1136242817245578
0.12728147430656878
0.13379985416998258
0.137076080688228
0.13176881899392215
0.1214772855873109
0.11248597529944893
0.10393330828327887
0.09515415181799654
0.0848064541676974
0.06990900038475306
0.04923736546560234
0.02580802251676254
0.010273532526997161
0.020861668673917252
0.034698875719334825
0.048460400058224266
0.06498292130204669
0.08612360259648524
0.11066742635844905
0.13612567032767134
0.16292774197279028
0.18785191659321684
0.197859498613282
0.17921683643114394
0.1395833590463937
0.09391541104617594
0.05034843210330642
0.021421774899146744
0.0
SCALARS Torsion float
LOOKUP_TABLE default
0.0
0.0
0.8880513766486601
0.4587793526969436
0.16771942123280087
0.10761701823275857
0.0858751348019389
0.12049629309139004
0.2905195964097656
0.369044626688595
0.22071362832542565
0.04546065263500007
0.03987740009927714
0.10880814753072016
0.16047152316280874
0.2552269006810259
0.3707486481369325
0.2831151985779278
0.10659444509070182
0.015650551914933017
-0.03471436366610326
-0.12683283695228165
-0.08349535257879001
-0.037775281235929305
-0.03650057841261371
-0.08412623882687874
-0.2166610279723969
-0.9272536155885575
-0.5718167796725034
-0.19970815112427692
-0.12160806994204465
-0.08093337591784489
-0.06272792948544927
-0.06806870604609706
-0.0717446858041464
-0.07082227075292669
-0.07490121385056223
-0.044354137752966726
0.04502986494833259
0.06905287356503641
-0.1513966269686976
0.966335957104499
0.04600140458620894
-0.04564924190115634
-0.06239452864006784
-0.05710564175316651
-0.04420997464103128
-0.07224976039843799
-0.1650670732279907
-0.16949420587588324
-0.07941653642565473
0.02772280266221308
0.11054395172941935
0.15411939964643911
0.16491991165192968
0.19149951760502348
0.4051353204085481
0.9643363747646827
0.37030259718312686
0.09074217500425685
-0.016671833658249688
-0.07843408955909612
-0.09525881356403418
-0.06968732105209519
-0.015406731400489038
0.019561897116134236
0.01900761474276744
0.014022008182783232
0.026536775481095506
0.025240560200843247
-0.0380111339813022
-0.2583057680333042
-0.8930068859702742
0.0
