# vtk DataFile Version 2.0
Vessel Segment
ASCII
DATASET POLYDATA
POINTS 74 float
-4.934688378649251 15.961517486833287 -4.776921231336605
-5.405443783997358 15.246435542513144 -4.6788104839806826
-5.920922506317584 14.544310473734955 -4.615062298847319
-6.426394901294927 13.905888062062182 -4.608907875911029
-6.895034192395737 13.339030985166431 -4.682474851675515
-7.312442051058396 12.83355129471129 -4.853411591680317
-7.667289945481909 12.373298352733848 -5.13151898793382
-7.9516936641917 11.951830570461903 -5.506998961896268
-8.166050475958246 11.560259570331219 -5.96344187335332
-8.306763805204959 11.190087030615059 -6.48976342309354
-8.362889597334783 10.834334996181974 -7.083174549909162
-8.315343818077999 10.490381187463614 -7.738964449214612
-8.133575119245636 10.158990067325226 -8.478207905413122
-7.817860570294793 9.843782334454403 -9.244667809457155
-7.386268380098186 9.506519177303371 -10.016535391948267
-6.852962793331588 9.117465223546574 -10.787056040259099
-6.246156871097179 8.653611128632942 -11.521098427229846
-5.626859255960174 8.110868979485918 -12.132333979123047
-5.079079174544906 7.533534040085406 -12.550497811170693
-4.633349203154804 6.954464224417988 -12.758299844960066
-4.315386360886002 6.422690246697934 -12.729594175923376
-4.152572760868967 5.994166718467483 -12.474650810932332
-4.137325463245187 5.685735888308634 -12.071629335434883
-4.239639410262164 5.481238694592149 -11.535835304765607
-4.456913293681489 5.383274298968903 -10.850798958192227
-4.765936966550698 5.39141395749553 -10.042572057577832
-5.119624270810314 5.476869425784737 -9.151224180195475
-5.477702908776932 5.599155969279367 -8.199865211845907
-5.794888375901278 5.708028647233671 -7.209862008012025
-6.027725321264552 5.744975245489672 -6.20054349590856
-6.150009481229936 5.655371001092424 -5.203429308577638
-6.164460000071176 5.4134453222745815 -4.258145204341884
-6.087716881008296 5.023744924419777 -3.3908658410267325
-5.936449803418078 4.5034708767477465 -2.6162388492035307
-5.734751119737648 3.876755548490246 -1.9406194997715693
-5.511298738201162 3.1662540429506927 -1.3546358305803121
-5.291075350021832 2.3909654075680304 -0.8439396772319614
-5.089024589463874 1.5675830369736568 -0.40113379992438575
-4.904328052714302 0.7054169042265355 -0.02117276788437173
-4.721867273982409 -0.19719843406357696 0.2996338044808759
-4.518810580358896 -1.1489469114862534 0.5734672109763226
-4.266193877593399 -2.162307737370743 0.8172582772068225
-3.953617833723669 -3.2244060799636713 1.0433264511472724
-3.574500172542726 -4.310341876764262 1.2767282778736608
-3.1211741759020946 -5.393898545622054 1.5420541917264234
-2.5870807832945473 -6.449795432187757 1.859187204874467
-1.9692556315937024 -7.4498859683537155 2.237458282273078
-1.269015112538646 -8.364464796636039 2.6686778735645045
-0.490453194535738 -9.172333324440684 3.1348586004957046
0.3591932141564223 -9.857783513102925 3.621170123739062
1.2638967014212954 -10.407535121706921 4.114712462083588
2.2020272664597806 -10.81405425329361 4.607219267530615
3.152882305273926 -11.074902200860715 5.096447131458007
4.099892020974661 -11.193936373434154 5.584132984695211
5.032785858506963 -11.18537712058188 6.073773550906997
5.948119176182997 -11.071954312461353 6.5694940623434315
6.844640972655267 -10.880972231632256 7.0746236804691485
7.720870839680798 -10.64178465841645 7.592673234054907
8.577769998861008 -10.380563125098682 8.128277875799482
9.420080038231804 -10.115712641128846 8.68732936163328
10.255275013265718 -9.858758721509242 9.276429452163228
11.092783495790755 -9.619407643123468 9.90132801286895
11.944243995392064 -9.411819216674031 10.566172616232723
12.82157205003158 -9.258740725069135 11.273302986124262
13.726520473191965 -9.192846480487113 12.020927213187628
14.630832519345299 -9.250447121579123 12.79351384089622
15.483252894427292 -9.45387944439103 13.560114552985299
16.23539745119206 -9.807087927683598 14.288167365823982
16.858571231904584 -10.298714005677926 14.95512764474865
17.34932175661799 -10.907546844831964 15.555267311238428
17.720650308882554 -11.60666618152358 16.099222591796327
17.993374933468942 -12.35241715261845 16.604839487653816
18.193439514766645 -13.075890688072096 17.08562982918605
18.342472241187476 -13.70834007327522 17.532357291485685
LINES 1 75
74 0 1 2 3 4 5 6 7 8 9 10 11 12 13 14 15 16 17 18 19 20 21 22 23 24 25 26 27 28 29 30 31 32 33 34 35 36 37 38 39 40 41 42 43 44 45 46 47 48 49 50 51 52 53 54 55 56 57 58 59 60 61 62 63 64 65 66 67 68 69 70 71 72 73
POINT_DATA 74
SCALARS Curvature float
LOOKUP_TABLE default
0.0
0.07364980665284536
0.09825709701115488
0.16117476862618618
0.24420739420475113
0.3043734574926607
0.30598001270890307
0.2634799765043119
0.22623693508501255
0.20464968813870874
0.1932112133487643
0.1781095960312729
0.15274191423307035
0.1095266381120857
0.08559357479968821
0.08829962184105954
0.1365676882672396
0.21523061660812454
0.3378297646702339
0.5816929309573506
0.7864966505503247
0.7269210410789061
0.4765052552886198
0.2681876661189457
0.1493933488770542
0.0748877221288271
0.03262712939429509
0.04861736383969222
0.10432805812216601
0.1635556244542201
0.20012056046081522
0.20617903645969396
0.19490324137605816
0.1708020699179443
0.13717403041124257
0.10799191077913105
0.09257849950612637
0.0817979500330344
0.07297007197503197
0.058847882240746476
0.0489748030799761
0.04157455247455001
0.0399006928636353
0.05088727717356153
0.0643705548827864
0.07639462675292429
0.08573707545126293
0.09234947822481833
0.09945886054535578
0.10623899014089762
0.1121835970008342
0.1183947773799152
0.12167380545017856
0.11475296558187935
0.09682075292524589
0.07319427813316591
0.04923263644379053
0.031328497773472415
0.025448788783675555
0.027461303487570764
0.030698313394629
0.03658058234869901
0.04834278234363766
0.06553639843446628
0.0873052395990203
0.11313065679990005
0.14524764481744787
0.1768457295345869
0.18904060608700288
0.17112104155822844
0.12901344524192548
0.0804999050930421
0.06535538891134925
0.0
SCALARS Torsion float
LOOKUP_TABLE default
0.0
0.0
0.37479351161749835
0.29663629699314964
0.22235948121298604
0.20527966477745874
0.1510757297349319
0.15396097404534465
0.1861812065262068
0.1670832842083958
0.1396126353111758
0.007427286119682158
0.19815184518653753
0.45337497731141563
0.3575865470227626
0.2960595275817177
0.16763399495798556
0.11777942845004943
0.013083308605547156
-0.07850721484448939
-0.016540949918368526
0.11353814541575627
-0.10964763427902295
-0.08296180874283629
-0.11688546401140057
-0.3558129586588888
-0.846028305102652
-0.5373666345005645
-0.1691908646311333
-0.11820486316149463
-0.11636103584078679
-0.08729401572113295
-0.05510158188863892
-0.09450941774765939
-0.1807119116358358
-0.24753203816315955
-0.18590479358118195
-0.001625070259076905
0.20426330174365626
0.3402837488313151
0.4248904748876192
0.30957459142351695
0.42414256347083584
0.23222198895169277
0.10788504696272827
0.0330792757690041
-0.04068813699941221
-0.07655794648252193
-0.05028636858012131
-0.01949416412160304
0.015673963876453284
0.046161109426971346
0.06066288944762357
0.06496320839866684
0.07267345745965972
0.1099321123622604
0.25829034844250853
0.540860920748887
0.5916852500748022
0.3675689580215946
0.2552216687457934
0.2350099378779997
0.16503025026725254
0.06900845347581687
-0.003788367249904001
-0.026235382989801482
-0.024147428024266653
-0.017176497556900153
-0.017329651116399093
-0.054636325601112395
-0.1834332336670289
-0.6491913125062773
-0.8889643072110774
0.0
