# vtk DataFile Version 2.0
Vessel Segment
ASCII
DATASET POLYDATA
POINTS 74 float
-4.043290289322411 17.10988369903545 -5.613160013456093
-4.427500010506405 16.275629999892733 -5.475656282591573
-4.892625520414985 15.422308545029372 -5.364720644385758
-5.3788046421848605 14.605493492028474 -5.336363798278951
-5.841902156201179 13.843962943823657 -5.427627533329328
-6.245120957612077 13.142817513885435 -5.661692899750963
-6.562689801278327 12.49636774960456 -6.03915609763503
-6.780553843099286 11.88707745288959 -6.547529312366669
-6.888948430395484 11.298745669047928 -7.1657621004693235
-6.877433753235643 10.72002492864945 -7.865658673006617
-6.7404676194792685 10.152893656531186 -8.617214318743843
-6.47499259653571 9.604483821912387 -9.403972901560357
-6.103490483272037 9.072056865732304 -10.191392018005656
-5.652517235831007 8.53101062568481 -10.98060863338717
-5.161946409954448 7.976319687019349 -11.722904464091402
-4.6715501369817 7.40759817439195 -12.349404301481277
-4.214205207401088 6.834207707262439 -12.80783532688261
-3.823867104318462 6.269951789542863 -13.050537935926956
-3.5333508428989817 5.728935603215671 -13.036357911571393
-3.3698286618998163 5.227609181843001 -12.732131258189892
-3.357028297293261 4.789610439301791 -12.113353870583413
-3.534645451517143 4.470572927897192 -11.199164510888554
-3.896450325599708 4.33367801322232 -10.153218690533496
-4.370731545310817 4.383487068124754 -9.131545692811212
-4.876813844588436 4.593021093856461 -8.222769635363429
-5.340501188856686 4.9077844370884485 -7.431576383233308
-5.710216646831388 5.253864992426232 -6.709889819962657
-5.976414301469818 5.579390083981045 -5.976685737071767
-6.129055831097146 5.830682836356472 -5.184713249546988
-6.157675137552891 5.934583715144039 -4.327284894310835
-6.074987858640314 5.828857334016809 -3.452358616961112
-5.921713984134324 5.498182764519024 -2.623415612494088
-5.731335372461503 4.9591656341891195 -1.8758923785616393
-5.517269393717644 4.238965656260054 -1.2220986132335037
-5.285209808262797 3.3830510680485086 -0.6730734067834788
-5.041629987455176 2.4619278703779406 -0.23532682662660967
-4.790363530299723 1.5363093558454106 0.09485754175817036
-4.532750863598989 0.636226777790759 0.3230224131263104
-4.267118233861364 -0.23452817971416892 0.4606593578615213
-3.983691282023404 -1.0880901097436544 0.5174111425858398
-3.668874828114703 -1.9446713960666442 0.5030977078629891
-3.3196357238263565 -2.819808135790252 0.44347858599163387
-2.9314074632701814 -3.7112421990481788 0.39025163169822047
-2.497738386847156 -4.594591627883596 0.3897959479331102
-2.013736223270571 -5.427704660873263 0.47783749115001534
-1.4756339009500583 -6.169791482204056 0.6741672687699186
-0.881915208082071 -6.795838659516807 0.985891265553637
-0.23386192516537108 -7.298198740373187 1.4107630872450576
0.4635895722143268 -7.678147483493457 1.9345995088864394
1.2026218360267575 -7.943430833335742 2.5275050732287223
1.9740119014470716 -8.105609634597991 3.1561545384765357
2.7670204738878135 -8.174477647065032 3.7939246930008697
3.571719010953477 -8.159130750525124 4.42739906762252
4.381756650223251 -8.070364189387828 5.056720859248392
5.194173773012821 -7.921885497919264 5.690260847608463
6.006619880929922 -7.731626783328898 6.336714319237444
6.815743698237471 -7.52420396599163 7.000431462382666
7.618849264169872 -7.33135980897823 7.683531558706891
8.412228155858179 -7.1883746816089475 8.387425366860132
9.185204720048402 -7.130456672484376 9.109216489282163
9.920601129631015 -7.1882054608470485 9.839399192125597
10.602380024857684 -7.383999281602916 10.566674537438717
11.215069729117195 -7.733625937824295 11.28412206415001
11.735005615091506 -8.244103221575777 11.987060616125143
12.132813974498156 -8.905581663301849 12.666307368333756
12.393720243779976 -9.691918718211879 13.30853961410395
12.526302832772123 -10.573799510451675 13.904948370651695
12.554154414748592 -11.521658864350144 14.45265511204278
12.5102880871848 -12.494405593237014 14.951041183234123
12.43824317026479 -13.439607674768398 15.403737413819917
12.380546153693333 -14.324662049004202 15.825064000939937
12.361541927188615 -15.151061455282388 16.237439315055767
12.387628798578104 -15.91997563645757 16.65541126878727
12.451657208506957 -16.610602968623546 17.06453708119062
LINES 1 75
74 0 1 2 3 4 5 6 7 8 9 10 11 12 13 14 15 16 17 18 19 20 21 22 23 24 25 26 27 28 29 30 31 32 33 34 35 36 37 38 39 40 41 42 43 44 45 46 47 48 49 50 51 52 53 54 55 56 57 58 59 60 61 62 63 64 65 66 67 68 69 70 71 72 73
POINT_DATA 74
SCALARS Curvature float
LOOKUP_TABLE default
0.0
0.07304984778223422
0.09896945499610278
0.15490661395367128
0.22393497312330873
0.2592850458316851
0.2410894850922179
0.19737237144081735
0.16006345002845404
0.13814993892227653
0.12475509474540863
0.09830458987140987
0.0619820817304294
0.05674453455193098
0.10014097493938204
0.18058136558782859
0.35183624201307034
0.6135106308304681
0.683038889390361
0.45169724468711564
0.25661829640345263
0.19214476744987033
0.16885412367990282
0.1686869423314536
0.14917220102130405
0.11157869541274541
0.14137519631927634
0.20354293518836392
0.2601194311325932
0.28782872171847923
0.278442229244567
0.2413715687806459
0.19053508622459112
0.1474003048920759
0.11660563322793203
0.10069432738869134
0.10156203432840356
0.10249216830709837
0.10196896343470596
0.09137290982786667
0.05610535121442875
0.03197251875531871
0.07107069426538075
0.1202225182767797
0.16942990831902455
0.20247869917871963
0.2020513763078064
0.17450261306979073
0.1372871126726884
0.10746830374338008
0.09090960798102449
0.08063341376952583
0.0690316866091609
0.05393626332569195
0.03669745712609784
0.019046570967025594
0.02126923860493245
0.04788676258013444
0.07915888931458549
0.11190888591845749
0.14211696352832107
0.1652733145852537
0.17832719004442832
0.18021823916264423
0.16705737177615723
0.14000209389574897
0.10762909976335786
0.07548424226401154
0.0387518279774356
0.011025505538140454
0.04882132704650705
0.07376917757144871
0.083394867802849
0.0
SCALARS Torsion float
LOOKUP_TABLE default
0.0
0.0
0.4645438599962124
0.26766906811734786
0.18340813435120742
0.162702192100473
0.18080815343071355
0.2040036233715643
0.2324835484088618
0.15361843102259085
0.04523168870357544
0.18812112354817104
0.29377658913163324
0.5162525436717771
0.27674945037703735
0.1112124197111983
0.07400407364379874
0.056611311998890274
0.02725720807564931
0.006690879136493577
0.045579073222802864
0.0610681164035231
-0.023442401054125324
-0.11362145947394395
-0.3791613032470207
-0.8606393005762984
-0.6857251491178907
-0.3342168319056665
-0.21929703535910486
-0.18762608047688623
-0.18649622547193634
-0.12448604491517581
-0.03473854670557136
0.02808752916676737
0.07949722027829569
0.12787775091896794
0.0941892953782686
0.06049211382271334
0.10098873952901703
0.13081216343926402
0.2252509222457404
0.9273483339645133
0.24787220356407125
0.03054234058710098
-0.027665840339655468
-0.028145248449104526
-0.018639865313704044
-0.0398783275782639
-0.11406547349870202
-0.16933508072007147
-0.15142884500214474
-0.06295691228102337
0.040651629762745306
0.14452752147648987
0.28211831033635315
0.7218375993780377
0.6772665013448986
0.18015995215876002
0.05914298315874139
0.02628940510213402
0.017373087210565023
-0.008791208289648963
-0.052338413201790404
-0.07389322217116473
-0.04747055614569433
-0.00401249006462559
0.028647002898916852
0.048763228945025994
0.19167134687292647
0.9978843471347079
0.17317647164478245
0.1305431726572088
0.036281325428450445
0.0
