# vtk DataFile Version 2.0
Vessel Segment
ASCII
DATASET POLYDATA
POINTS 74 float
-5.034666384205559 17.027007893084757 -5.3854633412341215
-5.570599708071767 16.159484425078066 -5.270203682007447
-6.148704627396771 15.281299027447796 -5.080594499423692
-6.746503209522878 14.432122084111437 -4.871719452694804
-7.346002067559621 13.634619301703552 -4.709072935696193
-7.923465135495665 12.904981313400166 -4.6643562914026955
-8.447840343745385 12.249499934103184 -4.798498854311998
-8.895099705621623 11.658484305452877 -5.137948407480436
-9.254311607650967 11.106204327923704 -5.668201961807398
-9.517682168495126 10.560498512077004 -6.339075840794602
-9.679271942210093 9.994320376822596 -7.082129669132576
-9.727455664069364 9.401533903229621 -7.836740924718722
-9.636729341845262 8.801951967910462 -8.586703855749217
-9.398962586318486 8.226909628344337 -9.296057683981347
-9.020803986413174 7.670512132157047 -9.970928992091341
-8.522398426973233 7.130229518029831 -10.619108360059872
-7.942959134649969 6.600769409616765 -11.228888618472228
-7.328257863444425 6.069399778146658 -11.768518171003262
-6.735700789526924 5.529994412798873 -12.182639028109486
-6.2220722546701355 4.996624985539954 -12.410893398269433
-5.832320533472505 4.500573329583986 -12.411092136094043
-5.571151881234428 4.0754431876416 -12.202375800662304
-5.41318430736404 3.7328125117305038 -11.800025444748973
-5.3459712653763845 3.4823826701491525 -11.209661552127326
-5.366529026940643 3.321719006495564 -10.4526377347176
-5.4715845952726125 3.2409019922244506 -9.578321476057107
-5.647515961769259 3.2283599451892737 -8.654885072936965
-5.858981367209578 3.252080574202881 -7.759087394279771
-6.06823517941794 3.268888861704866 -6.915420761068753
-6.247262213765683 3.2431008573440776 -6.118654784515211
-6.373101245114489 3.1452796351571 -5.3551118997440454
-6.428344747466778 2.9522728429549474 -4.618662584915136
-6.408061018057823 2.6515381861509333 -3.912054757145576
-6.317027840884318 2.236974719641844 -3.2442238135840817
-6.166969941503185 1.707663584905542 -2.626938237478163
-5.972975073051811 1.0683487014025488 -2.06737542625138
-5.749415292159794 0.33205090403431475 -1.5647171042502441
-5.505390643679182 -0.47911228718421794 -1.1104592650602005
-5.24014886572415 -1.3399332243382458 -0.6906867428376477
-4.944485419798255 -2.2278709417020077 -0.2903803947451058
-4.606315260542306 -3.123349158284236 0.09997503896052755
-4.217391460405741 -4.006285253910254 0.48973702865338653
-3.7674340981707126 -4.857884736685004 0.8896983528769157
-3.2452334618467926 -5.6637409367917275 1.3022299344013082
-2.6428620801451306 -6.41210401561371 1.7256698948288907
-1.9591646020313584 -7.09000851965107 2.16006429388392
-1.202680405209252 -7.6816939771785275 2.6067285974244103
-0.38873711098770863 -8.17365674527226 3.0675092439149987
0.46799572677781787 -8.556652357420216 3.5427013004924137
1.3580320826016663 -8.828624277790952 4.025911167244197
2.278019934734981 -8.996128909778554 4.5093143969252925
3.226913726841681 -9.067420876286318 4.988740764544208
4.199869512767552 -9.047472342616846 5.463992907184782
5.183073301272086 -8.939190940595086 5.938310841291057
6.157593207518823 -8.748435259188286 6.41717899980306
7.110148268844268 -8.487568738953453 6.90619581361799
8.03881348775411 -8.174652108946736 7.408810844062336
8.950611942324814 -7.8309121796144225 7.924846476665017
9.856878132582333 -7.477632288034595 8.451665903059085
10.770255319239313 -7.133268650997369 8.987516201519009
11.699029688799772 -6.815144141301184 9.53374793784495
12.640212643701776 -6.5428891390749735 10.09430919898776
13.579661759220208 -6.337719460161066 10.67428659830465
14.496528439366264 -6.220096460098434 11.27780528405185
15.366829345657255 -6.207216113624452 11.904251214507868
16.16697491449598 -6.312715229637752 12.547413325724085
16.873483988384613 -6.546284575773905 13.19741087668534
17.466495234100243 -6.909103550918263 13.842253831562648
17.938592319540287 -7.393522991091516 14.471847023446287
18.295782625835656 -7.987248901883086 15.080762407651411
18.54964497365303 -8.674498560961611 15.6678104280789
18.714195210997463 -9.429160517717317 16.233771562097434
18.810506722557697 -10.20802306732443 16.777101326932044
18.861819336918593 -10.94961731109013 17.280947334432483
LINES 1 75
74 0 1 2 3 4 5 6 7 8 9 10 11 12 13 14 15 16 17 18 19 20 21 22 23 24 25 26 27 28 29 30 31 32 33 34 35 36 37 38 39 40 41 42 43 44 45 46 47 48 49 50 51 52 53 54 55 56 57 58 59 60 61 62 63 64 65 66 67 68 69 70 71 72 73
POINT_DATA 74
SCALARS Curvature float
LOOKUP_TABLE default
0.0
0.06438186197716886
0.034855493332043685
0.04969154724689484
0.13428363386511594
0.25839449983892715
0.3309794859919603
0.2802563910009198
0.18637865982577342
0.1278068153048056
0.1243268465146262
0.14778514919581012
0.1715546176872144
0.15761893750090855
0.12358100110090432
0.08937137761144345
0.08073884470786816
0.13255962885913852
0.273727839938117
0.5389310743584163
0.6981508550517102
0.6318282309838734
0.4270595352541067
0.24268380351178284
0.1457696054142838
0.1034803029784856
0.06478676411634232
0.0158365134660298
0.07210879010377846
0.14679703909630668
0.20531335222573044
0.22302613883903455
0.21239618576813168
0.18868666482149735
0.15729030282180215
0.12142927230363647
0.08567292796695183
0.05486520416461497
0.03639123560202596
0.03838823842317156
0.047667866413924544
0.06354277887950407
0.07878369552932546
0.08940729210493414
0.0960548681434193
0.1005113890921258
0.10339060747559457
0.10618721157905447
0.10523125288935854
0.09737692518782667
0.08698088555291542
0.07826089508393176
0.07232813665108848
0.06786663786601224
0.060966212872951134
0.04848535352771369
0.030884388310219894
0.012246319842584345
0.010090106160220994
0.024108137422859128
0.03860777899102032
0.055265842761587955
0.07549306553227397
0.09884591248847391
0.12599427533282315
0.1579577892314285
0.18712713123160002
0.19869189555416736
0.18525255501333623
0.15585235512683854
0.12048984881902929
0.08306655894224664
0.05389146850133348
0.0
SCALARS Torsion float
LOOKUP_TABLE default
0.0
0.0
0.7486705997415252
0.6387764949981274
0.20982624984713127
0.13428961010156118
0.11874423886090228
0.15835126839722002
0.31961988052433365
0.5060373481090035
0.35267494022549883
-0.052297300777944755
-0.017400150205853025
0.0083272100813407
-0.01885362216213567
0.19053423888397478
0.5006721251014206
0.35483387889974577
0.12279185604917037
0.01423796765375078
-0.08314881554365866
-0.19114214518160308
-0.12057367556903935
0.016006712318470326
0.10653629437766848
0.08967856175405749
0.21452707774140875
0.9999114899630055
0.2932156119044257
0.09320043952592294
0.030058275846232718
-0.029652754025743203
-0.08032793412199861
-0.11526142124681617
-0.1231655154297058
-0.10471526107799106
-0.03679175286445416
0.1917189618467847
0.5672083916769556
0.44972843866326995
0.2799584228357057
0.16501909418587243
0.025156052338189183
-0.008670043838034651
0.024950024880246783
0.0625454802005608
0.08084241050499187
0.06143827188283621
-0.009551476712283027
-0.055058710127616095
-0.04372962506620489
0.011685994099961954
0.09168683971505301
0.14738739947419882
0.16015803279914728
0.16035103541439075
0.20637321669991865
0.6808674773610783
0.7744548638597141
0.10898953385657306
-0.046647165707322136
-0.08404581486195782
-0.07315726144170166
-0.04545631568126779
-0.01663470394106854
-0.0072211026949313
-0.007560536939446192
0.0008329918569409279
0.013237737405821293
0.003117067891898419
-0.047107332922703846
-0.14651042493212418
-0.31333456589737585
0.0
