# vtk DataFile Version 2.0
Vessel Segment
ASCII
DATASET POLYDATA
POINTS 74 float
-5.073305830410812 17.644287730509788 -5.283685370040372
-5.545231478265743 16.670497300879443 -5.223860763836995
-6.06976223094228 15.713493345957733 -5.149960662017032
-6.608730031760615 14.810875682766358 -5.110691634217457
-7.1318116332266195 13.97286979928088 -5.1541996061822575
-7.607117098374748 13.201659205804315 -5.323780393860274
-8.003026976135693 12.49232867457015 -5.646202476656572
-8.29807740075426 11.831830611390128 -6.1235319326779365
-8.482256156836385 11.208399570080868 -6.7365056925814715
-8.554722360030885 10.61635859635044 -7.442474412858935
-8.520391264060375 10.044248551010154 -8.202071636678589
-8.379101766307693 9.487681905602617 -8.977471312280171
-8.136339331682269 8.950012409381966 -9.718150198044292
-7.7964528999298714 8.417093876087709 -10.414190594037628
-7.365946178072959 7.884472070975431 -11.049353485792437
-6.88645357248173 7.356435283935351 -11.590889093058852
-6.420202808300568 6.8457380759044835 -11.996010564866648
-6.015805303511651 6.356516884594599 -12.23425189640537
-5.711004085121938 5.894758552795519 -12.278992154514027
-5.5251337130176195 5.4807769142997795 -12.11644996273725
-5.460480830346147 5.130805841154804 -11.763185713332225
-5.495791335934836 4.8575833922460685 -11.272006054253263
-5.601469019112987 4.674962070774081 -10.686764246052636
-5.755251456872291 4.590406497477959 -10.040839284121587
-5.941344079424145 4.591561393781963 -9.356171542427228
-6.143965189425832 4.653658765267828 -8.646371170626706
-6.343159045606292 4.744949382944527 -7.9225264643336395
-6.515012596018244 4.825608726694381 -7.198109636828644
-6.636968044146685 4.850994669801407 -6.471284783249523
-6.693388643160279 4.776338239237354 -5.736249936073641
-6.676672942752379 4.562890735335758 -5.0045259386970296
-6.590045984270033 4.194282262803226 -4.302826248877703
-6.443694964338686 3.678425599093376 -3.6555504451853333
-6.251320760638449 3.0375225029959494 -3.0807494491779086
-6.02743082013429 2.3039539408719425 -2.5870092588667735
-5.78087142370758 1.5043199960999116 -2.1694616543581318
-5.517978410343494 0.6561153909969676 -1.8193316048108554
-5.245016510156876 -0.22220384298674828 -1.528503457637503
-4.963777811249664 -1.1157031403043915 -1.2816548819100058
-4.667848819151501 -2.0180837684198423 -1.0573382092153696
-4.342667552324994 -2.928297859011369 -0.8283311516570643
-3.9689782195896255 -3.848446682645432 -0.5685983181942394
-3.540938208144339 -4.7627964274939005 -0.2662184865548567
-3.0520715784791483 -5.650444249347042 0.08675324466658665
-2.493224966816114 -6.487676933490212 0.4924605833355717
-1.857391033156647 -7.2474936445374 0.9490909838292253
-1.14541027582723 -7.9014463616517725 1.4529391891099142
-0.36949588021794005 -8.428605799101469 1.9974881385247545
0.4545736657745938 -8.82512926725092 2.5750176471588326
1.3182079884601574 -9.099866922869895 3.177972566913692
2.2204551753875115 -9.266782974546395 3.796349189213259
3.1601478308121242 -9.338164362965436 4.420526018130842
4.127063082956493 -9.32016226172982 5.043853210873184
5.0999629082210785 -9.215228957720434 5.663906959655041
6.056068353625865 -9.026870120216618 6.282150396713601
6.982791480071741 -8.76477047296218 6.902069537199765
7.881412188503759 -8.447558800442796 7.526823224641805
8.763273342211763 -8.101101031164408 8.158637706473838
9.642451345760097 -7.754660924229945 8.800468013063233
10.529697763188759 -7.4377378136913155 9.45704889738583
11.42763659816046 -7.1797640737817945 10.133541618512035
12.32831288739638 -7.008971738791394 10.83377142225691
13.214034931318281 -6.949174165212381 11.560044275197777
14.056820055088245 -7.017398074821266 12.310900375191155
14.821324914022519 -7.220659748861488 13.075601034081306
15.478633702079335 -7.557046291103584 13.836255240965594
16.012018282778943 -8.022919431113825 14.577109756516972
16.413245251184616 -8.61091814280745 15.286976507021329
16.68562605351199 -9.302930861759663 15.958960483046935
16.850680477323163 -10.070131281675522 16.591823695043278
16.94294149929353 -10.885016514693067 17.19153373244469
16.99875083110074 -11.719404879740352 17.765372016396995
17.05356365485969 -12.525300931914062 18.310620211843425
17.132844257479565 -13.23584569469959 18.800265904379046
LINES 1 75
74 0 1 2 3 4 5 6 7 8 9 10 11 12 13 14 15 16 17 18 19 20 21 22 23 24 25 26 27 28 29 30 31 32 33 34 35 36 37 38 39 40 41 42 43 44 45 46 47 48 49 50 51 52 53 54 55 56 57 58 59 60 61 62 63 64 65 66 67 68 69 70 71 72 73
POINT_DATA 74
SCALARS Curvature float
LOOKUP_TABLE default
0.0
0.04661563232542215
0.04709350115833695
0.08971654798692806
0.16231735367812128
0.23208559672672566
0.2485502251094396
0.2139634605857677
0.16541528731611843
0.1275078730900498
0.11495492254151501
0.12014874208620674
0.12044739952546966
0.12448115243741215
0.12460775417619734
0.16465565867417145
0.29697311718614283
0.5679900060336137
0.7803763641193346
0.7096174811920577
0.4756780106124421
0.3207171726209582
0.24297848571466313
0.17339281900866127
0.10712923975425433
0.04950977971551128
0.050820202859851046
0.1354209208897349
0.21366543770262197
0.25637950787957187
0.2531445643975435
0.2190558950627532
0.18032348351643443
0.14459021836761868
0.11313849327349927
0.08922933983767294
0.0709335634136953
0.05001249868415965
0.02868233791914539
0.025249859522749524
0.044649664255626074
0.056518963181450894
0.06977617658064209
0.08442482127750581
0.10036161080176338
0.11597920700207093
0.12484569981081625
0.12157944540712169
0.1090396851463393
0.0920971991231094
0.07717339785875284
0.06814912600383244
0.06435362947141784
0.0638164012765547
0.06027867997913054
0.04764486291722464
0.0265485915828074
0.007463753122249634
0.025274491845497505
0.04713896339463438
0.06777201268104648
0.08718068357647368
0.10674436437100494
0.12770364463218303
0.14908514004362353
0.16897940187991428
0.17870488403182522
0.16712114215242058
0.1329435638765225
0.08921912219737077
0.04737381159001048
0.008224316313502997
0.047142379207941905
0.0
SCALARS Torsion float
LOOKUP_TABLE default
0.0
0.0
0.6717745502194914
0.3454335510967617
0.18595198207795582
0.14474359448600602
0.13869465893006006
0.13923734841536212
0.18632933888366762
0.24991110551157397
0.2451701655707761
0.2544497648951037
0.1749968505792949
0.1308702848187276
0.30703672042813174
0.4127514875461991
0.3026548834885251
0.1629423829457894
0.005664043987636425
-0.004563018520650511
-0.06783097156967687
-0.23392365976690516
-0.1872593409940436
-0.10001956131948767
-0.17582279035334547
-0.7928616390275922
-0.8667485737548863
-0.2348496346189346
-0.12456193126077218
-0.1070776783469243
-0.09051687340638688
-0.0636289775046157
-0.05246616119704224
-0.037260190768448234
-0.0026118446412689775
-0.008325567714832489
-0.005731787044698341
0.08960568151292583
0.5445333354700593
0.7698160765035544
0.23861960125478954
0.08082990154129022
0.015099910725012947
-0.036808624282439674
-0.0373726559344342
-0.011320526895472239
0.012172552451446637
0.017598718810904756
-0.010168670622550623
-0.07084511155493849
-0.08315528209239535
-0.010285824722390466
0.09255679045701602
0.13743449925072565
0.12418890888617744
0.11015657299671075
0.20723317099534347
0.9940403251318372
0.23585808186347423
0.027472865728779633
-0.02491708260569899
-0.050003282612429395
-0.06569618623807616
-0.06066117409111125
-0.028337341615317292
-0.001694104706904214
-0.0013424590025540076
-0.008762090874561791
0.000816834054604601
0.04810974828118943
0.1672725831052041
0.9999595244304805
0.2483773891582114
0.0
