# vtk DataFile Version 2.0
Vessel Segment
ASCII
DATASET POLYDATA
POINTS 74 float
-0.7436740825586281 18.5426490102683 -5.715992502937894
-1.4358595191960666 17.784897864660092 -5.470786787555639
-2.1519806046702357 17.02201651127826 -5.169689986500774
-2.888480522110814 16.272620736151428 -4.853776234229697
-3.636424260905516 15.55992338657707 -4.575376224479335
-4.3791920567535225 14.906950256804256 -4.394103772204105
-5.092829975174112 14.322093658488766 -4.370623563329793
-5.756857657369504 13.794475163972567 -4.547797057288463
-6.368340775488019 13.293088162673596 -4.919712393518617
-6.93409298037501 12.76194468948861 -5.451422800084733
-7.433495348002397 12.162400222220352 -6.098703254026031
-7.824841847007813 11.48597850367338 -6.8162074379935484
-8.060655271310534 10.759868480663519 -7.5857755372880105
-8.119670215146447 10.044581533295245 -8.359078820536318
-8.019118697582634 9.364050254040167 -9.11882728957325
-7.77060012419333 8.722321163693064 -9.87023917901199
-7.381252901858902 8.101912094897878 -10.62850902121626
-6.857312282436728 7.4758916959262836 -11.383006013487714
-6.213170422295044 6.816688516164043 -12.073019125062306
-5.510518847113227 6.133992244167323 -12.589893374921942
-4.84121714106729 5.465936442219666 -12.820520259086074
-4.312538086004112 4.918653664878277 -12.705226940322465
-3.941943830402455 4.531497219850664 -12.331928926883219
-3.69124905663428 4.286682892697019 -11.744220429460237
-3.552703462777826 4.175955485581195 -10.969430280563541
-3.520893261133917 4.174940950614759 -10.066937052359634
-3.583876795363989 4.2483477664931435 -9.111539916115802
-3.7192077231710647 4.354502876317026 -8.160913580336917
-3.899019208038727 4.448535511258718 -7.230206876699931
-4.097402248703873 4.486293550196632 -6.314155024618016
-4.2916214890951085 4.427135129996472 -5.405372047315063
-4.463568448555664 4.240142335336093 -4.507007243844732
-4.600448235965186 3.9107035906237946 -3.6359295637942517
-4.692279933908197 3.437996527693246 -2.8156241556191497
-4.735807480815156 2.8265759545346265 -2.0690595623039507
-4.738129626944427 2.095367293062686 -1.41730353048067
-4.707693234300731 1.277477094388306 -0.862708389075358
-4.644505888952452 0.4027201610249413 -0.38719579630774886
-4.543179677858436 -0.5045670442496285 0.02967061837293206
-4.398332507616459 -1.4236622914435724 0.40098176009576914
-4.207971130117403 -2.345122516081225 0.7241427876688195
-3.9844948996030984 -3.2618912543472076 0.9980418848405835
-3.7220190226478556 -4.178793945773706 1.2438383743646793
-3.4065882484948644 -5.096187159774563 1.4725496059739307
-3.025915431581967 -6.001946881181889 1.697138398410982
-2.573792153659925 -6.874597099203028 1.94013580663607
-2.0561537023343677 -7.684357928242252 2.2281011157323043
-1.4885079834271566 -8.403306389189057 2.5806595130494
-0.8827242626729581 -9.009624023266422 3.0004250617604
-0.2429200743912544 -9.497901424233888 3.4667058961751525
0.43788020898866814 -9.882082584276404 3.957777669368652
1.1714019112324427 -10.177641513194644 4.461113259703028
1.9625964001250318 -10.393313460997359 4.96962503593341
2.8027862225320597 -10.53214192078851 5.481213090237388
3.6746315118933315 -10.594274950582037 5.997414020839202
4.560621759006994 -10.580809716254999 6.5191039986808885
5.445717115087298 -10.497952659685291 7.045050894287106
6.3187168982213935 -10.35994150007526 7.574442241853499
7.1746105761422205 -10.187372026417403 8.108613082590129
8.012685109323781 -10.004268983937115 8.650922691082966
8.832018143880301 -9.836351500668178 9.205526706382493
9.62834396999482 -9.706197596779818 9.777304901166794
10.395794359371788 -9.62691082536797 10.372129526611191
11.128491532912468 -9.599393879984689 10.993911186041421
11.821679344694592 -9.61505585013033 11.638891316489643
12.473198215458517 -9.666617654956164 12.294471998404978
13.08137079184122 -9.758929775579698 12.94386713911925
13.64327683221821 -9.90909992734307 13.572835157133913
14.154998354147734 -10.141188359113345 14.174350598258275
14.611747547123409 -10.475365097686485 14.747834025904469
15.009620074503491 -10.919317333140226 15.297760329831398
15.347350468139439 -11.466794470422307 15.829718184211378
15.622758257869942 -12.0916882913612 16.34189525552694
15.832777033079536 -12.733140760142556 16.809656817693742
LINES 1 75
74 0 1 2 3 4 5 6 7 8 9 10 11 12 13 14 15 16 17 18 19 20 21 22 23 24 25 26 27 28 29 30 31 32 33 34 35 36 37 38 39 40 41 42 43 44 45 46 47 48 49 50 51 52 53 54 55 56 57 58 59 60 61 62 63 64 65 66 67 68 69 70 71 72 73
POINT_DATA 74
SCALARS Curvature float
LOOKUP_TABLE default
0.0
0.04225683462871244
0.02259931551364046
0.04093041340168934
0.0956770688486757
0.18538774723702606
0.2752456395232276
0.25732692201632834
0.1666993242268195
0.12163713697513799
0.12283556336937515
0.1415564999847239
0.1573142091770373
0.15387778036819869
0.14640569828585925
0.12132016761761148
0.09566657585098796
0.09930073191981031
0.14720382893234718
0.27786905097177683
0.5544493855647101
0.662795181593411
0.5194918189861533
0.3229737586991352
0.18933191031113553
0.12375438236704824
0.08449147178673638
0.053621254215336214
0.06776509203977688
0.11169921701549505
0.14768662616126463
0.16542730625541882
0.17163689209060898
0.17172839891848737
0.16121058546876696
0.13525893402806227
0.10189774600651012
0.07593989293759985
0.0637834422757168
0.06671431336663153
0.06061958562184049
0.04938382470141421
0.05433925168020981
0.06396353019967634
0.07837319225070315
0.10025674074413823
0.1252418836598836
0.1476048857541089
0.14966657262118394
0.13365575089198142
0.11546633301804167
0.09984656479711145
0.08619661831504069
0.07680631897255216
0.07122501183470954
0.06475079449841785
0.053235501393787535
0.036628566793335586
0.019966693368449532
0.024538353892881924
0.046445670322988804
0.06475922669654498
0.07248460183900843
0.06872021783356883
0.06106050911556466
0.06475936798314569
0.09281096757762858
0.14054847979904958
0.18123166641973748
0.18902510931558175
0.16598025953475704
0.1340632851600299
0.1112606101759908
0.0
SCALARS Torsion float
LOOKUP_TABLE default
0.0
0.0
0.8316952790165519
0.47056192084187926
0.1744938733375168
0.14376795267814604
0.13037759993734788
0.15033576235333607
0.35978092879639995
0.4406707824968847
0.23696288554853345
-0.04079507087684403
-0.05672299904840869
-0.046299685559842714
-0.05256230933934628
0.010812922774843671
0.20945451281302255
0.32845356182281354
0.220765825952523
0.12682774699921304
-0.001361779553729403
-0.06333694551542987
-0.09573888330647846
-0.007167035292083027
0.08560458853328258
0.17185319970059149
0.32947077429753346
0.7677473830448619
0.6176365488333476
0.24560651051963422
0.09992292877167658
0.040568323501063173
0.025912045643016527
-0.007504045379832219
-0.05059316335838846
-0.02513081934883376
0.1029939565211597
0.2532032052064894
0.28792464742773705
0.04796099535608639
-0.1311585290236939
0.354357718287819
0.2521807898636835
0.23593589492506833
0.2626941067107052
0.23448342664586888
0.16788585753907753
0.0445463715497615
-0.11233894162975681
-0.20696953019470415
-0.19956457630601812
-0.11834441323224854
0.017630282309833545
0.12213570723584041
0.12320298254564178
0.0964806477914525
0.12168044164000037
0.25595754292395206
0.7653402946484673
0.6510145587121188
0.1820380540565688
0.014671524423884585
-0.07214744539797587
-0.10874245579368806
0.009762406329591813
0.25258093404258875
0.21507350553208113
0.0875643564839623
0.009809692824843966
-0.039529242007728865
-0.06558769561509886
-0.09847659562143633
-0.07454881671184826
0.0
