# vtk DataFile Version 2.0
Vessel Segment
ASCII
DATASET POLYDATA
POINTS 74 float
-5.019533866107632 18.135811283247243 -6.212187137574371
-5.473012380867484 17.13651243154654 -6.056375950745611
-5.991145788929894 16.084972337861796 -5.772754086011834
-6.563701260747457 15.015595561817236 -5.448449420875219
-7.16612397748824 13.967801059013112 -5.1812520846794925
-7.755303273936485 12.987776987158918 -5.076251380655904
-8.282735791313813 12.10576308560643 -5.208922465266442
-8.716961418405786 11.300435719983987 -5.611695713488383
-9.036367040718394 10.528172908172222 -6.267438161494654
-9.22326303537135 9.743020645422847 -7.099680405686365
-9.27564173258452 8.918936920117599 -7.990683583656041
-9.198221200820122 8.058337638658713 -8.849603401907583
-9.000572387263109 7.189534498573922 -9.617422134409132
-8.686414548387306 6.331970292504974 -10.311101523440927
-8.269406612062989 5.531300097126498 -10.922983168766816
-7.792243504206711 4.822660841995043 -11.423090568368487
-7.308512843199651 4.221388147961714 -11.793601960567083
-6.849435812053383 3.7122399192025135 -12.035338559319037
-6.428832176297763 3.2534641575320244 -12.114247824974365
-6.095236093564632 2.844833303038776 -11.965036820459408
-5.886102567494663 2.4913646394912257 -11.559038046107174
-5.7994976433612395 2.209955936149213 -10.93532739039604
-5.800600926749829 2.022392778453919 -10.124637697438526
-5.872887526952048 1.957352460548826 -9.215597290333893
-5.98088978303109 1.992019235084675 -8.32543757527149
-6.101257180444405 2.0849859404870243 -7.495910242732373
-6.224623435534584 2.2094274519397517 -6.733337464804739
-6.331918390313413 2.3294760969180595 -6.0458940732627084
-6.406823087749391 2.404259074387253 -5.4119085714087
-6.44419169756216 2.3992319570430007 -4.80843248986396
-6.444283887409687 2.2911512752754017 -4.223028794086797
-6.406112015772121 2.06506014523962 -3.649996713852653
-6.3287751252627364 1.710264863737629 -3.090193036604332
-6.2119948259859985 1.21981677555144 -2.549622114266453
-6.052677319134325 0.5966229246569498 -2.0444990591939725
-5.847779413842285 -0.1340447723327708 -1.598854813151309
-5.5946442412848105 -0.9364386455314363 -1.226662288080109
-5.291686863159086 -1.7766537651480698 -0.923545053396176
-4.938464429218925 -2.6250936982832647 -0.6695008771797324
-4.53366765866896 -3.456221076507003 -0.44116615739770415
-4.078966598866212 -4.250232941136646 -0.22924322535713637
-3.594101680465548 -4.980598719022537 -0.018359180075923662
-3.0666586472305872 -5.638545516443558 0.2280949086075817
-2.4767074201333137 -6.2193054375087 0.5194828256775125
-1.8106356837297357 -6.709408623541503 0.8549253962468711
-1.063900873286395 -7.088789886563706 1.232565632478234
-0.24466935888123129 -7.3389269948728595 1.6547792185695225
0.6279952043146573 -7.451796794458906 2.1315741303597124
1.5319580432953381 -7.426900115817869 2.6693863763763095
2.4463421951155864 -7.279139296370858 3.249998789015194
3.362873733898141 -7.038713823795927 3.847367670222459
4.283049283317299 -6.734816290494382 4.4414658752273
5.207551696964499 -6.389582575421827 5.022598449131268
6.130103387861226 -6.018232094251104 5.592921269429295
7.039928194054789 -5.629105781849694 6.163236418614896
7.928442226251126 -5.229752463133667 6.744692287957159
8.79654944658878 -4.832727230920826 7.343180350604127
9.654560772156147 -4.4571904175116694 7.95735214672589
10.51342377807566 -4.128676807575998 8.580486297481059
11.376453494972413 -3.8772459688119536 9.203484368914964
12.23442588360565 -3.734594479121821 9.817520756490763
13.064528458017818 -3.729076801306093 10.41771823531217
13.831006413033357 -3.879365977750854 11.005161526725079
14.486995701305753 -4.1883593085897335 11.582733575328835
14.990059779185515 -4.638000261499088 12.147894052484874
15.3322731911602 -5.200275169274134 12.699062901963993
15.533060274397315 -5.85771640303311 13.244422651534446
15.617831819663454 -6.594405960599558 13.791958367701797
15.617749670330603 -7.382711578553733 14.34285140055274
15.571260818051867 -8.187817027758067 14.892193809400807
15.512869052895988 -8.989561028384387 15.434621922526652
15.460279802595393 -9.795209646687626 15.9701457456861
15.42000925821317 -10.617060203427204 16.49739592308822
15.395601446529744 -11.431615808213978 16.99703522617324
LINES 1 75
74 0 1 2 3 4 5 6 7 8 9 10 11 12 13 14 15 16 17 18 19 20 21 22 23 24 25 26 27 28 29 30 31 32 33 34 35 36 37 38 39 40 41 42 43 44 45 46 47 48 49 50 51 52 53 54 55 56 57 58 59 60 61 62 63 64 65 66 67 68 69 70 71 72 73
POINT_DATA 74
SCALARS Curvature float
LOOKUP_TABLE default
0.0
0.07688530707925316
0.030955125261306685
0.04307464683051148
0.11877281945523788
0.229206054528352
0.2876195420288888
0.22826327250296388
0.13998038577031738
0.09314469069254461
0.092789179967656
0.10612615366961972
0.10371007063963067
0.11285015989150805
0.12783755990374432
0.14859392755953185
0.19213232083580636
0.37177979410474277
0.6772513127604842
0.6730948203359769
0.4163846682706702
0.2266169732786311
0.1707919710406206
0.13217361289465487
0.09487795365855828
0.07125439339426437
0.01948411301807533
0.11151699282630863
0.23519221125626721
0.30353238193786697
0.3047918107870236
0.2635677038556166
0.21006455291201762
0.16897407868626932
0.1422575612805698
0.12182812580786201
0.09975396981772766
0.07634829893284414
0.06625703240817148
0.0717357859772691
0.07463952183231042
0.11517594701493579
0.14039642753731799
0.15456551599207932
0.16253639574552253
0.1599134812571633
0.14507020215644997
0.12680776284559325
0.10119982865834284
0.07088584219248999
0.04717793353808866
0.032404043694416775
0.02152366930392077
0.016462765688893988
0.019474628844891043
0.02016996955825935
0.022109799535284195
0.0382078386856719
0.06330070994351786
0.09380064434955519
0.1298798125150069
0.17145373555716967
0.21872920327439965
0.26079764227863633
0.2609191813812011
0.2133868007887531
0.1515177873945847
0.09591498392038668
0.04930270112810819
0.013683795474945422
0.010427541542115528
0.021141706461826483
0.02733061038741054
0.0
SCALARS Torsion float
LOOKUP_TABLE default
0.0
0.0
0.786305786875914
0.5348611919948401
0.15280358124116167
0.09688074715644938
0.11120382671895578
0.1640049924967962
0.33847837207527665
0.5292214338494141
0.33578680020398655
0.12460410328434737
-0.1438669363745402
-0.1469620082526791
0.06933690389227945
0.22741041401433515
0.36509326755060095
0.39012902431882945
0.19697594719326258
0.1121713225385805
-0.03363660082165751
-0.2709491244379495
-0.13744619470849354
-0.1380145269421865
-0.08845315717769517
0.001933896883973038
-0.9997307064399044
-0.27707502199046197
-0.14910014940734576
-0.10781116582913425
-0.04411651618465988
-0.02792265534642999
-0.02180491086030237
0.030725924053988687
0.08669394106174207
0.13629919110024707
0.2047449021063875
0.36944060701172465
0.4887953445285123
0.24168177929094511
0.39219149430585565
0.2902874210485019
-0.026461420503503752
-0.06880728800181596
-0.030531392652927654
0.0365657665632517
0.11357178469989992
0.107681322150329
-0.009560089425270188
-0.13461604342019878
-0.27489283844402046
-0.2855907102784064
0.03550308743120001
0.5792921356761197
0.4353836864966836
0.4293516092023924
0.547328296133358
0.28659665255241457
0.10034456071646536
0.0052537597726081825
-0.05942795217233774
-0.11300736291002775
-0.1478068414803244
-0.14101977377909988
-0.09424369264378653
-0.054136020765315235
-0.048087270909520724
-0.07727339332543341
-0.1453913713245767
0.26501585889044477
0.8580060930363046
0.02423550734138291
-0.016191218048321642
0.0
