# vtk DataFile Version 2.0
Vessel Segment
ASCII
DATASET POLYDATA
POINTS 74 float
-4.8485584309978815 18.652525779068586 -0.9359173198714386
-5.276093436090573 17.82606258712824 -0.9443281516168098
-5.770690972782011 16.993091398164132 -0.9612589629665362
-6.283075502308774 16.201730583803894 -1.0128289296089368
-6.783149667630897 15.47185124548125 -1.1368034795114998
-7.252448839751818 14.809331318192632 -1.374823992555868
-7.68100449939344 14.206892029418631 -1.7639785841337805
-8.068577273127469 13.642031397876975 -2.326475604865666
-8.418097869481423 13.078801200292208 -3.077512599466978
-8.717569506873131 12.48820720551739 -3.99385859565792
-8.932353969733507 11.883618463059346 -4.997519428386438
-9.028600670227554 11.29931130464067 -6.007628795343514
-8.999610663005091 10.750122396686425 -6.9524120952824475
-8.841473836395597 10.207433390911685 -7.872208368118454
-8.544805747381202 9.659153370244706 -8.790548088184787
-8.095647523724493 9.083560432170849 -9.703202924610611
-7.497887843951174 8.44994730640637 -10.60589414324837
-6.802293400470647 7.744043919053812 -11.445301770437924
-6.086011012581285 6.977639944141948 -12.139042124664652
-5.441453122789484 6.204443929894531 -12.601387970149048
-4.932094802837251 5.4974018828615625 -12.81120815276255
-4.556316135108937 4.874453581178742 -12.807122321312782
-4.304885979438072 4.361396443086924 -12.569003924234329
-4.184328910101715 3.9932533800980936 -12.107646107914869
-4.1789923835980405 3.7668886593197457 -11.456410108412383
-4.2673607735479875 3.666433988436265 -10.652773429095165
-4.422874950467012 3.67397271359134 -9.752897510359631
-4.604855407264208 3.746842088612027 -8.819505827294273
-4.776533565451957 3.821569951696118 -7.886797855525385
-4.91727758662388 3.8351882136746402 -6.97772534588995
-5.019710400099066 3.7452469204431353 -6.102710463951594
-5.083112092348459 3.530094637594983 -5.265612240003976
-5.111785164063204 3.1829409143729914 -4.4767955738701595
-5.110634830855815 2.7111965872964188 -3.753129310914641
-5.079807880307077 2.1366853170902758 -3.1099577156058826
-5.013434067612566 1.4872045833409755 -2.5497878685834228
-4.90799500824118 0.7867295975076871 -2.0588689102972833
-4.76304800225049 0.04777922461733304 -1.6056104676777907
-4.579882796689805 -0.7273057225322339 -1.1558853646957343
-4.360484944881967 -1.5399364646027884 -0.6895479433033105
-4.102871336630114 -2.394036624206048 -0.20049238485615695
-3.794332926286869 -3.293624137738263 0.3022386169826178
-3.4294176105262526 -4.218354061725977 0.790081307787018
-2.99508373614518 -5.13406417019593 1.2486271082112
-2.476579052602993 -6.000236589113432 1.676744369373766
-1.8665963346848489 -6.7790520705299695 2.0818084016646825
-1.1688442691652359 -7.446467761261273 2.475310978012898
-0.3979548008761667 -7.994604994404091 2.868303512515083
0.4265351683272342 -8.427930467508618 3.2660238657487994
1.2874335207455943 -8.754373010735248 3.6682537619967066
2.1730137224684616 -8.981497797734345 4.069330688389874
3.075869183825024 -9.116849899617142 4.464798471641646
3.9886515281809096 -9.167261104332804 4.8551289776911215
4.898685477958645 -9.14111074271853 5.245938001373288
5.78868336072033 -9.049673911661172 5.64627900799073
6.64489505901702 -8.909106488029915 6.065629005669841
7.464881086876688 -8.740391560447819 6.511038149067623
8.255916846214209 -8.566282286178456 6.984547806845586
9.027745395250516 -8.410578513355292 7.48385443926533
9.790296591751698 -8.296001365815291 8.004325252947808
10.551182561699767 -8.243051664088215 8.540133059743434
11.311617328634346 -8.269610830884524 9.08576223979804
12.063886891012324 -8.389130352289376 9.636712546759535
12.793940218629102 -8.608939148612466 10.191209880378565
13.484809302745214 -8.933792292016856 10.750928696055187
14.113607448989239 -9.369665484478146 11.314854662900993
14.656006952753824 -9.920371050702919 11.873964115330304
15.097023694766088 -10.581965915836653 12.414364917187651
15.436637621788874 -11.342406445465794 12.923672890957143
15.684016020242344 -12.182721391922898 13.394758817053914
15.85036565344182 -13.076648335366373 13.828264668027751
15.947352251822204 -13.989809031544574 14.231729159206367
15.98634584676818 -14.864746954977099 14.609587310357655
15.97710080277413 -15.633479244343027 14.948216068310797
LINES 1 75
74 0 1 2 3 4 5 6 7 8 9 10 11 12 13 14 15 16 17 18 19 20 21 22 23 24 25 26 27 28 29 30 31 32 33 34 35 36 37 38 39 40 41 42 43 44 45 46 47 48 49 50 51 52 53 54 55 56 57 58 59 60 61 62 63 64 65 66 67 68 69 70 71 72 73
POINT_DATA 74
SCALARS Curvature float
LOOKUP_TABLE default
0.0
0.05841609822538468
0.058258573065703874
0.1041303884341917
0.1805039380376377
0.23552559078312169
0.21161188816084686
0.1428378007547938
0.08672403444096972
0.07281725981097363
0.08700119133945677
0.10602304596671312
0.11241568165521705
0.10768008486762443
0.10176911219662751
0.08244569966848977
0.0753678541011508
0.09824119431592389
0.16332365241987493
0.2740055600270043
0.4029774792074546
0.6270869979250094
0.6653881117255417
0.44611187029541816
0.24195187829233605
0.14068032222283477
0.07159918038572387
0.01128848328949996
0.07829284660765083
0.14212135431932238
0.17947048748712052
0.19201322174009608
0.18943199413114875
0.17741836528165167
0.1571157977100015
0.12616287418006988
0.0825135855812158
0.04539027078361253
0.028414975449833894
0.024163792685590695
0.03190645065516501
0.04420414956367538
0.06094062727772951
0.08436464197798335
0.11066580431712218
0.12922887988400109
0.13230440013355926
0.12293844355516106
0.11146233295721167
0.10231803032832379
0.09422549132221068
0.08644520519938703
0.07789151018949808
0.0711414590270538
0.06543930427743978
0.05648574972742866
0.045007522552506014
0.04218892854985301
0.054442534025599676
0.07284809599727449
0.09072057506768351
0.1049499468034904
0.11476364979267899
0.1240521207802054
0.1392979176944941
0.15592271069440133
0.16107181282593133
0.14865073794225003
0.12578676238254022
0.10077273360684698
0.07736317915222668
0.062254732861198266
0.07067655855675668
0.0
SCALARS Torsion float
LOOKUP_TABLE default
0.0
0.0
0.5729807822427362
0.3280595313910003
0.14634630479960178
0.09018810793473772
0.08325255264511416
0.13150726603736054
0.27834321581520666
0.2683775719923157
0.10866477013525555
0.16444600376899512
0.03043116406863078
-0.011920161960645572
0.11253603197669071
0.17790449007784515
0.28932233308021776
0.209832351078814
0.10848929178955455
0.04462638630442413
0.012010500507561049
-0.14189452907275144
-0.056909146161377
-0.04180558308422114
-0.04237514129311069
-0.07143391975014676
-0.24366218218631375
-0.9999968342927896
-0.16187233962395364
-0.07382142733922396
-0.045650962992925745
-0.05534067856137331
-0.043655769616835
0.018163496361034676
0.11977725225561849
0.17943005961639902
0.32368441499204975
0.5811833341937193
0.554254741228737
0.1311545214338643
-0.15024243582205085
-0.11453024271272146
0.11931385703361523
0.1644990895157711
0.1467919354506879
0.12490888391988672
0.11537801655523945
0.08908626745748652
0.050887395005573294
-0.014210948163531426
-0.023801394205466637
0.030364349924714897
0.13515000567629193
0.25319083977894874
0.33070685462159843
0.4099372038795248
0.5490544046830875
0.6241902685754925
0.416302779388074
0.22178924868841535
0.0936715044047692
0.005651120957163927
-0.05596556055196233
-0.08827288637197031
-0.07353234132069289
-0.024735825737942252
0.01651650377441442
0.04501219655044742
0.044404625419363096
-0.01625163217900078
-0.15289662451044342
-0.42546855304972364
-0.3646288358857607
0.0
