# vtk DataFile Version 2.0
Vessel Segment
ASCII
DATASET POLYDATA
POINTS 74 float
-4.154035960023976 14.071051921439523 -4.378425662738548
-4.52093496263591 13.166665284443203 -4.35036247300915
-4.943604552324461 12.328115041531278 -4.268907224240124
-5.389890105230995 11.572218082979024 -4.206317676716718
-5.832368166251139 10.902035829728879 -4.234204739183938
-6.243396653506266 10.312914754349038 -4.420018099574259
-6.601414529775484 9.780570870056259 -4.82545659705698
-6.889730408211984 9.266166841244438 -5.52080491824279
-7.0749158006454405 8.729234758156267 -6.56092160345968
-7.108479773519797 8.123516674328465 -7.8650804567228025
-6.975623194849012 7.451316757196544 -9.210782141514054
-6.691693388597145 6.752044125763737 -10.468093969714158
-6.289979229262442 6.058461983509522 -11.575289062832155
-5.795564900896607 5.3689169951010784 -12.59369344219383
-5.268041891905084 4.714968208814957 -13.505768207887396
-4.735923115869364 4.1119643853891334 -14.268936261917396
-4.209259351238038 3.5639404008771067 -14.888112252544174
-3.731787087869689 3.0727709907963034 -15.329318206028093
-3.350279080246811 2.6512897363604178 -15.548864702763995
-3.08349992955461 2.302418173195557 -15.521332620699805
-2.946953051159853 2.033151525073588 -15.21848181242719
-2.9314432796872034 1.869785684416652 -14.649629412207444
-3.030199242385892 1.8502129017957423 -13.8292499092114
-3.2447139560776597 2.005815884946933 -12.80425754597833
-3.567987234628641 2.3221619822458113 -11.654471719753358
-3.969380511476577 2.7435439940130077 -10.452052763170792
-4.407402912498014 3.2037794703625795 -9.238380804610337
-4.8339897489250765 3.6315226674368777 -8.04951901644694
-5.203982903472398 3.9615962016201407 -6.8950203622515245
-5.485887601867795 4.142862624611154 -5.771481476601926
-5.667158697985824 4.139587288041219 -4.691508008104539
-5.75470225210744 3.9446093576324275 -3.680372512327548
-5.766104946965854 3.577119976660239 -2.7573287616555175
-5.722503831135135 3.068576681126284 -1.9326470118350125
-5.641622407177991 2.4564722137851183 -1.2095147144833898
-5.531815607894576 1.7774770572868537 -0.5891704005582413
-5.394283096677638 1.0631812585632692 -0.0733653698866616
-5.228596466894284 0.32988173239483554 0.34980956790132817
-5.034302061997097 -0.4164270219234294 0.7062535235905728
-4.804829408852968 -1.168431452583354 1.0177479540269254
-4.5277509330928 -1.9197080136545552 1.302626374691926
-4.192627091034102 -2.6662541940166022 1.5804127662038294
-3.796408882979372 -3.398291304506337 1.8663956776436634
-3.3370100168096934 -4.105614597269945 2.1713251511600538
-2.808238137600542 -4.773851325827219 2.5022401964290406
-2.2046558215631706 -5.379554785266432 2.864088000194568
-1.5308891781540925 -5.895685880393284 3.2605231129528778
-0.8043418905747026 -6.302292405066235 3.6938949199882494
-0.04653896204159201 -6.592500837835838 4.164808338103355
0.7282668278220024 -6.770937375008501 4.668723363184592
1.5168079813449682 -6.849303727499681 5.19696068967805
2.3197834811972107 -6.837620715227082 5.740925975879525
3.133783384751823 -6.740665440119098 6.294086006998488
3.948831059302339 -6.561538282505411 6.853410869563756
4.752345092458962 -6.308243904961832 7.418566722964306
5.535613998726179 -5.997536966723976 7.988713143502894
6.298752938126405 -5.654849777811706 8.559953816188502
7.051025891269343 -5.311147777750229 9.126736171370574
7.804946630599909 -4.9978638643121025 9.685502741826248
8.569343521286287 -4.742130473613249 10.23669036609436
9.343536120213471 -4.565133775669017 10.783410298129319
10.115293039762955 -4.482847130612726 11.330465867697402
10.863237434565471 -4.507722779162939 11.884843204586423
11.557735590543778 -4.649924758578738 12.451868695300028
12.165671462360244 -4.912986260774728 13.02749597276104
12.665711878576426 -5.291971561480324 13.599023109337303
13.051753198574769 -5.7791810417374885 14.15402706551043
13.325346552800362 -6.363042009957762 14.683032031396571
13.495307103149143 -7.02275122557066 15.180394606163244
13.580708501166898 -7.728146520218903 15.646303971781716
13.608591259088028 -8.448623120856068 16.09057307891762
13.610346115303507 -9.152463043567328 16.530944197353616
13.616912089012967 -9.797012766149406 16.983497910526776
13.647091064128775 -10.329664199061327 17.44086646095103
LINES 1 75
74 0 1 2 3 4 5 6 7 8 9 10 11 12 13 14 15 16 17 18 19 20 21 22 23 24 25 26 27 28 29 30 31 32 33 34 35 36 37 38 39 40 41 42 43 44 45 46 47 48 49 50 51 52 53 54 55 56 57 58 59 60 61 62 63 64 65 66 67 68 69 70 71 72 73
POINT_DATA 74
SCALARS Curvature float
LOOKUP_TABLE default
0.0
0.10902487484944572
0.08250907601262399
0.15800040841362895
0.30801416380598595
0.3748655495234808
0.27136086255994607
0.14487381039927916
0.07969484301068072
0.07224781154359645
0.08068768915640044
0.08990010158991804
0.07008893702512203
0.05356460083635955
0.07444659194610563
0.09427815304493813
0.16282046233197373
0.42107326257295086
0.8709175418466026
0.9255151603542247
0.5491999106316771
0.24604735955671847
0.1395720292958293
0.0894330952464593
0.053386647794155036
0.022423234323645767
0.012468745007581052
0.058203392650750564
0.11543591641660395
0.17041464386220534
0.20381169807678481
0.20692698530278955
0.18947334613716085
0.16394063092063288
0.1446023197310398
0.13781481372504245
0.12791880805542422
0.10089997985498196
0.07998716925239668
0.07492025371731631
0.0753828330803994
0.07817819118520737
0.08401818630261519
0.09673989634987604
0.11586456720946804
0.13353699934904686
0.14275575050727585
0.1421432243447084
0.13162105098291688
0.11259563813822754
0.0952958595157732
0.08514531388037387
0.07930418033752477
0.07198765153890184
0.0587635022992741
0.03664526399487417
0.005659467302350663
0.02935034628031482
0.060671363645908645
0.08471868965443533
0.10411141349323758
0.12543399362401456
0.15494124255836
0.18960023533421916
0.2155637667004193
0.2237516534489138
0.21216938164220636
0.1817690991143062
0.13816650678872647
0.08799473088126701
0.038672550059657966
0.07136278679140386
0.16297993618838943
0.0
SCALARS Torsion float
LOOKUP_TABLE default
0.0
0.0
0.857712231044582
0.5409733714774748
0.24976613862388775
0.16569004678927404
0.1267313799940942
0.1524937132882469
0.3487941011530532
0.33309475277374134
0.08779872666685895
0.04133304603358977
-0.08882699109972249
0.018632127437626336
0.13980028241587392
0.003904617927727755
0.3301674227789475
0.2129764581358916
0.0714037020928383
0.018603496862659205
-0.16330171558180487
-0.15796960345363176
-0.043428752239709115
0.05610164288010637
0.09417635674600647
0.25897209299336216
0.7279416902453443
0.07346343721245008
0.0161040152838271
-0.02985431196645395
-0.056657597464278016
-0.06162589176849186
-0.07103902384204294
-0.05710208079681125
0.009474068628739264
0.0792686921302873
0.10012648757237286
0.16731855922438185
0.37879848077222134
0.4539450776472645
0.3950675299872539
0.2989802627365183
0.17866653387027898
0.07567031700717487
0.044087760421194486
0.059137696704466114
0.08794764190598084
0.09838771822706416
0.0457617390870764
-0.039368676067963945
-0.0795112485871867
-0.041370488020103555
0.039860656448513235
0.10153367147402538
0.12630690505717307
0.12985925786049607
0.8621022323268026
0.056594571829107876
-0.022288216614570623
-0.07074493422219429
-0.11922896295953031
-0.15276142951500774
-0.14510824332968242
-0.09746037195843685
-0.027057489677024038
0.020474037099816846
0.023646117488226877
0.0012121823090516341
-0.03985197441342616
-0.19645510834863297
-0.9356019022466194
-0.6413826971224466
-0.17253148644100513
0.0
