# vtk DataFile Version 2.0
Vessel Segment
ASCII
DATASET POLYDATA
POINTS 74 float
-5.416399010685736 17.852194164206423 -5.509438799625901
-5.8546515894907545 16.956581256851504 -5.294195358898642
-6.366929398880305 16.027688764935984 -5.041266526239178
-6.915735123945585 15.124672624956132 -4.800619310793572
-7.471028998480937 14.275571893014249 -4.623906577246324
-8.00216742244012 13.498036196581541 -4.565344406451578
-8.478515724262758 12.799473506017558 -4.66721235778257
-8.876733099463447 12.170408627563939 -4.951968825865699
-9.175537471150683 11.59228224061419 -5.416590908263003
-9.35798157761719 11.039736627452136 -6.019491687294676
-9.43171821195564 10.47999900643566 -6.707570568736026
-9.399583047264706 9.899574827876636 -7.442963276487561
-9.256311450507946 9.311782529083965 -8.196836900729718
-9.005539131872709 8.735481140394944 -8.937461138322195
-8.648480078144036 8.173968965030529 -9.659459238956368
-8.189210272696222 7.6323423457801125 -10.361724301276894
-7.640611360973475 7.1089224600607945 -11.033844494861059
-7.0228597466530385 6.589746519089255 -11.64674753833801
-6.376532262824446 6.060180028601532 -12.14855797453947
-5.755322290635769 5.517900776670597 -12.482520017226207
-5.218410012068699 4.9799320782000125 -12.599137802597122
-4.813525177703305 4.489305399503359 -12.490688629145595
-4.5466384248034855 4.079067365593177 -12.176107007334357
-4.412873033465254 3.7706876934813773 -11.678194120475464
-4.401889503650539 3.5680336942130033 -11.037921040481308
-4.495203311695282 3.458804026200944 -10.294661212179998
-4.6708608940657665 3.4324861132794426 -9.481843294464843
-4.891307008831159 3.4604001881444457 -8.647038701658039
-5.116163124905733 3.496646601139406 -7.811099259289359
-5.313735238445508 3.4959150357102633 -6.98406441955637
-5.464121261660355 3.422795656352482 -6.17575729108342
-5.5586488066616475 3.2565132876747143 -5.394199979091456
-5.5950770281015005 2.9842867121239864 -4.644518850256511
-5.575592862516317 2.5946298894953386 -3.9288394648793727
-5.50649279877639 2.081838476582949 -3.254283948323409
-5.395749808136121 1.4549144771293065 -2.628161410532729
-5.250493148695662 0.7311458600210237 -2.0519498309378608
-5.073888659544905 -0.06677412450214944 -1.5245525811871825
-4.861520900980411 -0.9154462276471955 -1.045537751588373
-4.604124460669257 -1.7929142956540598 -0.6172386895161978
-4.2918954105209135 -2.681852796300404 -0.23827328496086828
-3.921733698836612 -3.5679550770058412 0.10366167283517434
-3.4921976837593576 -4.433017459666632 0.43104278598666673
-2.998348036030828 -5.25848644909589 0.7665789619552398
-2.433620376005112 -6.026006603602969 1.130516708294109
-1.7937544760807396 -6.718041609515207 1.5382540039963553
-1.0813810744928014 -7.318320366204811 1.9972012075644427
-0.30658143356563305 -7.81592857573524 2.5053600436312315
0.5182679193895303 -8.206240231625747 3.0523266702093497
1.3839198961156485 -8.489887421472622 3.6207179906868774
2.28441518677357 -8.669969674212373 4.194275082672733
3.2132232232724087 -8.749066627612736 4.76327906815248
4.161430433734643 -8.730954061587537 5.325801731918253
5.117392540361508 -8.624886009881534 5.886046864625035
6.06869283430698 -8.447328314574388 6.451211642769997
7.006096820803049 -8.220328547399538 7.027818184404447
7.9262372155487 -7.9678243616195665 7.619325896083893
8.831538526287266 -7.713360392163723 8.227252855200092
9.72590577641112 -7.479739691230559 8.852523137177613
10.610188660069694 -7.288765477683212 9.49462903213645
11.4788870973988 -7.160936252905351 10.150263317195336
12.320402514512898 -7.113850401761233 10.813986226998171
13.120777961241458 -7.160755056260001 11.48193387709921
13.864341126299008 -7.31029169301496 12.153023921102337
14.532927567493308 -7.5658599901995 12.825246352350932
15.111102165977899 -7.9271473649063955 13.494105550350843
15.589260796773118 -8.394288626105231 14.155905072026696
15.96124593285288 -8.964353389241424 14.806674386294777
16.227620941668828 -9.622335759909781 15.440016684336761
16.402076853050616 -10.339536921545543 16.04952776945825
16.507893044373652 -11.088073250363939 16.63422577728743
16.56616077562647 -11.85153914585367 17.200229899841215
16.593274789059127 -12.608220496181467 17.75100087630408
16.60439432521263 -13.313664311820496 18.267825526528014
LINES 1 75
74 0 1 2 3 4 5 6 7 8 9 10 11 12 13 14 15 16 17 18 19 20 21 22 23 24 25 26 27 28 29 30 31 32 33 34 35 36 37 38 39 40 41 42 43 44 45 46 47 48 49 50 51 52 53 54 55 56 57 58 59 60 61 62 63 64 65 66 67 68 69 70 71 72 73
POINT_DATA 74
SCALARS Curvature float
LOOKUP_TABLE default
0.0
0.044808388070579304
0.039192210061129544
0.062039727302181075
0.12874219999185124
0.23120779754269105
0.3171790623797214
0.316436663599125
0.24194302947767943
0.1551742903685654
0.11883010944710949
0.11425337120091954
0.11436540152343885
0.11120916963526072
0.10349018406094605
0.09142729840332897
0.08843732701274515
0.11576204767770557
0.1919521950035204
0.34541875601706007
0.5416019030284733
0.6469086142283017
0.5786146843621621
0.3981824864776974
0.24254646436964744
0.15468153140035268
0.08708622093095365
0.012169839835959845
0.06126447246319802
0.12555906792984328
0.16990747747875196
0.19348524313906815
0.19546997654813097
0.1796382301801543
0.1497379365257866
0.1169290043381308
0.0898227159538766
0.07397886734451316
0.0706324712301222
0.07178607342687199
0.0658639417594337
0.062038185547672445
0.07304079511847858
0.09170362187831242
0.10804175513282029
0.116485120112544
0.11529686182090405
0.10830761613602224
0.09948906000238034
0.09222906331126228
0.08696519501497434
0.08059350884568557
0.07028508812915187
0.05657682859144699
0.041508092642331504
0.027136687508321513
0.0175918830885121
0.02331079532408727
0.03785040430908688
0.054413800830312435
0.07220278648476644
0.09129193564395838
0.11143778121110973
0.13184668224201906
0.15024141194220986
0.16326323194749617
0.1650594031735954
0.1503590480324921
0.12078091792453184
0.08672243274992263
0.058598410149221555
0.03629241761129856
0.020243519941792004
0.0
SCALARS Torsion float
LOOKUP_TABLE default
0.0
0.0
0.5722071299109064
0.4354727052442883
0.2202529857677184
0.1429457814187137
0.12810513845365692
0.16587756970904505
0.2969000078842998
0.42958993335767626
0.3282553520583936
0.07437903091425013
0.044169358803479435
0.006620195281138039
-0.033052102642143415
0.08389908687968756
0.3165701283422775
0.35449004239656795
0.2162918095380106
0.10918114798684976
0.02356833369525363
-0.08379452603936564
-0.08986258366511728
-0.02062060778154355
0.011773356764906838
-0.04772734609830419
-0.07392270712162978
-0.8805716437592499
-0.03287845696158742
-0.03965018780339042
-0.041234193182959525
-0.04473992571335143
-0.06264926764999683
-0.07881849395537373
-0.054313508015893325
-0.021740953014390677
0.04899779391555893
0.17180629171380302
0.21550215660237465
0.20202050386184187
0.24537310964616305
0.39894560739185153
0.303604838994846
0.17268215647596183
0.09608477063005365
0.05505148085365122
0.02653900194885421
-0.013509476818275162
-0.07793742038136964
-0.09450160989423144
-0.04748871334854179
0.02106202464788922
0.0916356541143041
0.1724202380473608
0.273663200215901
0.4457660939527655
0.7385291825506801
0.48893671628968677
0.1884763527438426
0.07537649988177356
0.02180865694775644
-0.01538553073826256
-0.04664735934089139
-0.05920532787658025
-0.04061207204520292
-0.01788123474674112
-0.012877131482606512
-0.01774070208844519
-0.02399625306575994
-0.023132302222721498
-0.06690705022485796
-0.3423416463318485
-0.7731935887012092
0.0
