# vtk DataFile Version 2.0
Vessel Segment
ASCII
DATASET POLYDATA
POINTS 74 float
-6.037758115490506 17.92735647712268 -7.444431562080421
-6.479467611285706 17.091455914786685 -7.281655117370097
-6.973096571319572 16.23019844386238 -7.102546779657188
-7.48646248504161 15.393117306212874 -6.953848486798872
-7.9954816796720785 14.603977231957318 -6.878114025458674
-8.474074217735618 13.87704050908051 -6.920001114362377
-8.891372817436228 13.219473400504738 -7.109801626460408
-9.226711767507316 12.620606591110302 -7.4423186518436015
-9.473784216689328 12.050930417252507 -7.903124164469829
-9.620313420454192 11.489850536611426 -8.464990502502863
-9.663534940778941 10.914396092411877 -9.089737217088764
-9.595795367034858 10.317453873017154 -9.742754833601733
-9.406370503319293 9.711540118834897 -10.408132265193837
-9.098673983141653 9.114641904415278 -11.057912390520029
-8.686337819965027 8.525718125301804 -11.677748025651114
-8.20008936233428 7.9501593039171095 -12.246061010222355
-7.681862116935662 7.391473986692727 -12.723781825060302
-7.176365368947309 6.849613705544873 -13.051189751860354
-6.740311779577571 6.337483282872273 -13.159615658848445
-6.418947664908568 5.881564401196515 -13.011502041615383
-6.22547092611346 5.497633644203329 -12.60824413644846
-6.162975073717941 5.204704756163912 -11.975460677944566
-6.2178092563139264 5.02411899717272 -11.18341895769518
-6.3494021825511116 4.9526019606080816 -10.309556664099507
-6.519393184168943 4.962669292574349 -9.4199647949442
-6.691912516231194 5.010959281469252 -8.551353626346256
-6.83927339850032 5.051850477168733 -7.712542348882878
-6.946761661573508 5.046879722613995 -6.89120951537604
-6.999294879403505 4.958171142911929 -6.076949486655865
-6.984644190363683 4.745816176732985 -5.269250836072689
-6.897018425614096 4.373121718899686 -4.4790988874724915
-6.739385721993319 3.8188105139884407 -3.730928707416049
-6.526000495985156 3.0928768057982214 -3.0526892032278976
-6.276351178009783 2.230859689031707 -2.4611652350033855
-6.008442672984499 1.2779826666786045 -1.9569403446607885
-5.733733372390945 0.2753262878480696 -1.5264883822470783
-5.457399964594668 -0.7409658521250853 -1.1470109141812053
-5.175138392121225 -1.7429403686254874 -0.7915385784846056
-4.873131048118897 -2.7161575824475532 -0.43771685386888476
-4.534063504549082 -3.653848595589397 -0.07234648605954717
-4.137735840395858 -4.553706128202492 0.3152541833884073
-3.6597189052516015 -5.418539348774873 0.7283107474074083
-3.0969550929310765 -6.232309266606827 1.1491008963544331
-2.4488293058646855 -6.977066027358405 1.5697276048145732
-1.7145472302849616 -7.635042510403005 1.9901249226523934
-0.8993506574230185 -8.188515874593435 2.4158241149728985
-0.017518947507789807 -8.62334981893225 2.856071104269956
0.910270513305727 -8.933970275186851 3.3188373341809525
1.8634726346211552 -9.126057694434296 3.8089608076764487
2.8275666365523207 -9.209024259618593 4.32793717680578
3.7917423941697064 -9.193816291479424 4.867498409188034
4.746661031016429 -9.094750685710085 5.414734409431382
5.685021421579596 -8.926805202439526 5.959893983587749
6.601621672627688 -8.703573786466357 6.500844364573322
7.4937596234346575 -8.436366617752457 7.042426983497485
8.360799705875381 -8.135906617114532 7.591599959205248
9.204503990410016 -7.815440346953588 8.153069810854655
10.029666777541378 -7.493034019707537 8.72851743166768
10.841748894092879 -7.1914332535410805 9.317790083048292
11.643494363963383 -6.935814876589938 9.920089502104068
12.432291124173377 -6.751502835153188 10.534004395390177
13.199831414045798 -6.662006469941192 11.157575952729527
13.933311773470585 -6.6872055163041315 11.789680315881206
14.614405428043964 -6.841642597477738 12.42963390793359
15.220668400857406 -7.130829297675286 13.073789077469065
15.734946528693055 -7.552061449627017 13.715869086001954
16.14848758674314 -8.099379909524126 14.350045047504269
16.46060792057799 -8.759079079969867 14.96921821440165
16.682829916907757 -9.503458025838814 15.56530832353335
16.83728630164711 -10.295042832813879 16.13236052018797
16.94659126469266 -11.10172383481962 16.669253355244305
17.026011042149985 -11.90456632016805 17.18078749060431
17.086379204303054 -12.67791033230114 17.668121715609477
17.135092269037372 -13.377590954302834 18.11088045558218
LINES 1 75
74 0 1 2 3 4 5 6 7 8 9 10 11 12 13 14 15 16 17 18 19 20 21 22 23 24 25 26 27 28 29 30 31 32 33 34 35 36 37 38 39 40 41 42 43 44 45 46 47 48 49 50 51 52 53 54 55 56 57 58 59 60 61 62 63 64 65 66 67 68 69 70 71 72 73
POINT_DATA 74
SCALARS Curvature float
LOOKUP_TABLE default
0.0
0.03272552798776427
0.04155413072367802
0.08184825904895153
0.15817106856191268
0.25273596013441507
0.2898889042708624
0.2553920203793572
0.2044013276629728
0.15192948799702163
0.136295114446801
0.13625987375154183
0.1337948322911852
0.11830625481721767
0.10190015833008487
0.10944134556061066
0.1940942833816443
0.4206134096600876
0.6915463953538987
0.6698365741976979
0.4388693930152841
0.2663248072391065
0.16697022851243007
0.10739598405951643
0.05056209509850697
0.02812851778336211
0.08606144675737133
0.14794352670685423
0.19581101336711357
0.2129518370062547
0.19918281654748035
0.16557298284972244
0.12904379324922208
0.09689093207707723
0.06897329504496123
0.04194722778556727
0.017427246949276616
0.024003348661384677
0.044543884017052414
0.06445022927170946
0.07889595762165558
0.08531058627746099
0.09497681947360403
0.1059299566354206
0.1140056378054473
0.11688066197270851
0.11362078479235777
0.10380111424304188
0.09295884894376047
0.08143404971280482
0.06920933661648661
0.058576796178402314
0.04973500636253208
0.04263100128014179
0.036487161404710554
0.028810634446862608
0.020104735371482777
0.024530598023196216
0.04428482856133084
0.06923656169774119
0.09685752917748149
0.12585470030753762
0.15391948277259698
0.17611032557195322
0.18601397779754256
0.1810811723144034
0.1603027378824178
0.12658462176381252
0.08916566163891854
0.05840729048101766
0.0376072136844985
0.020473889025595
0.009885563226892326
0.0
SCALARS Torsion float
LOOKUP_TABLE default
0.0
0.0
0.5950940265406308
0.27279891935874095
0.16187096056912936
0.14242697839813057
0.1763519329851713
0.22272256960183337
0.3029402725132348
0.4145698717890755
0.29243264509298617
0.015676382803720634
0.04923654953380679
0.11412519596857526
0.18392326785372815
0.3865479786808549
0.309348784293094
0.1718248287365813
0.06532824399910633
0.004813413369385677
-0.0239515276410994
-0.06820933575277541
-0.1710317908334015
-0.15786506888698323
-0.5311390429520806
-0.9676740953874129
-0.23216272919885772
-0.08029943563413033
-0.06908589333689076
-0.07197913767802384
-0.0682470456581524
-0.06378462314309251
-0.05571650407613104
-0.04753835500327051
-0.024054469047536324
0.054211972976915136
0.805236766006178
0.5886513340434545
0.09467701379266252
0.007083823846236417
-0.07089989050584956
-0.11581154292868909
-0.0163491842593151
0.03555222525484622
0.07474293284323857
0.10654601126366682
0.11263299028436739
0.10732391726799446
0.08020148256861855
0.0002798569805216172
-0.051008516304801424
-0.045506503483690154
0.03648728694855601
0.15403329114452283
0.2370464608880075
0.3316309853776079
0.6442735971416925
0.5757658747921129
0.21713876309581515
0.07331344215611862
0.01395894367380774
-0.02099289329767543
-0.04955861250858839
-0.06135802518632386
-0.04331284541150725
-0.021247464155111934
-0.006313593238273962
0.009108120076380021
0.026167345543742178
0.035231996945925534
-0.07812872960022833
-0.5921554095333498
-0.914772480183893
0.0
