# vtk DataFile Version 2.0
Vessel Segment
ASCII
DATASET POLYDATA
POINTS 74 float
-5.126228201398395 18.067454202735213 -5.620359753845537
-5.60790369429115 17.2209197694342 -5.500693839716474
-6.148199095312094 16.320223927995826 -5.376122239137595
-6.703433028582235 15.438781528625158 -5.2974404803876505
-7.243964539300349 14.612942895635427 -5.312423789138754
-7.741612957739993 13.862328258735182 -5.463329183439204
-8.17118190725528 13.18785719470586 -5.778503558911528
-8.511133183577476 12.576106536787913 -6.268739700505685
-8.746548418524219 12.00770913310117 -6.902655704658999
-8.875476234455661 11.451947223031981 -7.625397679016027
-8.901184359828608 10.88499317206788 -8.390636835470689
-8.819258038118804 10.303214533263521 -9.165521791756332
-8.628100217495243 9.715850222570221 -9.92229004528621
-8.323418640795895 9.121548362015748 -10.660827407904769
-7.905827583202161 8.522851741096469 -11.365820036295398
-7.40267125967383 7.927730155272299 -12.005364924893476
-6.862509379017012 7.347368615191809 -12.537571150238014
-6.334654465206071 6.784548003061126 -12.918127427284151
-5.872245595516148 6.245538913437712 -13.100736289470543
-5.516583488648182 5.7434071200114465 -13.04913659663173
-5.296924316100673 5.301011784261986 -12.740087102273288
-5.214705433855078 4.955614128698538 -12.208971572496615
-5.2327824702324435 4.718836759478687 -11.536635094437756
-5.311199848326959 4.578683942205771 -10.771635051085074
-5.431700642432661 4.518004610355029 -9.948758252702433
-5.579333477012138 4.511795562400704 -9.092940727351655
-5.7381500481681025 4.534068454882553 -8.224476504048665
-5.8852338145343674 4.546903964093434 -7.370698308696958
-6.001429837485922 4.505641467244777 -6.533321495987883
-6.073688212514554 4.368683704887862 -5.704050778557831
-6.094239747980792 4.100126490207693 -4.88858546545646
-6.066400876702175 3.680733337740186 -4.105967440907266
-5.999767503386819 3.1135608125555017 -3.3784211385995264
-5.901331477825035 2.4212234479379946 -2.7185466466412898
-5.7736734006981365 1.6322041930757132 -2.1270425382201847
-5.619106496257982 0.7759436639428732 -1.5993494533966037
-5.4393765318964675 -0.120896547683348 -1.1266322707860117
-5.231852893351236 -1.037419442874664 -0.6992640031710722
-4.9880738245984615 -1.958709988532379 -0.31008862287521227
-4.695933292397153 -2.872048500691452 0.04400447509802981
-4.3450395742535814 -3.767329943176318 0.36111023358282934
-3.940182845590899 -4.630845833236529 0.65098765500778
-3.4756280282161707 -5.455297063970716 0.9438701442313487
-2.9459163472746974 -6.232519374044454 1.2541111033765884
-2.351207494016795 -6.951693514891792 1.5894491331203005
-1.6951334322086087 -7.600938066167296 1.9570484383118445
-0.9857019637975312 -8.166713763058683 2.363902478133516
-0.23374292601128535 -8.636713173321773 2.81663489006796
0.5517656902458501 -8.999083135276637 3.3151689791236754
1.366131867383943 -9.251587748382793 3.8435754785940874
2.21232706887962 -9.404865275210986 4.385143889970676
3.094593317201589 -9.470427579343227 4.929680591070316
4.011067213117427 -9.454824033006611 5.473578036609481
4.9501448671097235 -9.360901928514314 6.019187251099477
5.893550355267587 -9.192286688187485 6.572624345418099
6.82527872856021 -8.958795064692229 7.139876161789676
7.738580471835981 -8.678724965072472 7.723504045586947
8.63707239554589 -8.377240516128701 8.322788456353004
9.529483602897779 -8.081035128655225 8.93527060177183
10.42209086292285 -7.813522530837002 9.557852266802088
11.312360247061603 -7.595023689590489 10.187551657677803
12.186606471784179 -7.444239439057939 10.822093838209382
13.02228425560064 -7.377448211060436 11.46052084314006
13.791912846594274 -7.405956727054592 12.102087892061117
14.471080878842503 -7.533026467179811 12.740922748540346
15.053530135418734 -7.754766908718587 13.367530665139087
15.550546188416654 -8.068170189234198 13.977713045963545
15.978076058577482 -8.472600542951195 14.573016922072798
16.351384827787474 -8.966714467003856 15.15827869441031
16.684277713130648 -9.544042200151685 15.740380422313379
16.984774787774935 -10.193258113387135 16.328404835096595
17.251155249820204 -10.896099914983159 16.933764349166424
17.474998860211873 -11.611027364571932 17.562309022759887
17.644516083075892 -12.269563792843368 18.193227310010247
LINES 1 75
74 0 1 2 3 4 5 6 7 8 9 10 11 12 13 14 15 16 17 18 19 20 21 22 23 24 25 26 27 28 29 30 31 32 33 34 35 36 37 38 39 40 41 42 43 44 45 46 47 48 49 50 51 52 53 54 55 56 57 58 59 60 61 62 63 64 65 66 67 68 69 70 71 72 73
POINT_DATA 74
SCALARS Curvature float
LOOKUP_TABLE default
0.0
0.020368406098442874
0.0463380281824662
0.09841733019744194
0.17616628121307157
0.25229794149581114
0.2742081406018343
0.22259773414832612
0.1532990667070091
0.11576345048269947
0.11165472025236742
0.11512639996718788
0.11284678487647008
0.11122740788702806
0.1056510170580996
0.11357424765882451
0.16946195064878228
0.3225808669877429
0.5752538483896936
0.7001635017146342
0.5527117079047886
0.33739455178290667
0.19944386910640532
0.12903564094276596
0.07763336721538289
0.037717643016495814
0.01719905514513929
0.08619109582905879
0.14722587914215476
0.18693889793543988
0.19482569249872592
0.17865679401556203
0.14821559537841766
0.11607980620537205
0.08909216768205809
0.0672122824520268
0.053013853534493
0.04983525751268582
0.05738396707005779
0.069507443819302
0.06725995609454324
0.07254515078882429
0.08366542999013851
0.09180208212367683
0.09919748144269035
0.1071312751868383
0.1146268681221755
0.12104166090069918
0.11565318701076946
0.09976405140958663
0.08418435744699261
0.07268485780855677
0.06462495051615144
0.059364832865700774
0.05336495294562177
0.041826549943329086
0.02409209118837749
0.012252259576349171
0.02420044794851376
0.03960996284951392
0.056261779244382186
0.07747856006908524
0.10558664262376813
0.13746253763782829
0.1610351461642281
0.17005604799229476
0.16329680240833003
0.14104536485940183
0.10793817179503051
0.07673631350544069
0.055721010237451206
0.05007512219990633
0.07151363059521453
0.0
SCALARS Torsion float
LOOKUP_TABLE default
0.0
0.0
0.32913855892510535
0.14584947269359172
0.10640794137634488
0.10911508401018745
0.12891397850544806
0.20684455856814865
0.38969169561854955
0.42444012844087564
0.21227752176756542
0.08004929045963927
0.0047787539576749916
0.05742805925217538
0.16663105447677215
0.29586558261782053
0.30747819923639325
0.215907112717977
0.09661363924820858
0.01783574153954523
-0.06896063190691708
-0.1608841306044729
-0.2344681744255062
-0.06382653354245035
-0.013991163132276732
-0.15133557243559773
-0.8365776853600679
-0.07356152192806886
-0.04209556544421839
-0.05120608757910187
-0.07767595323255021
-0.07353708042205459
-0.022819509025226017
0.03397325783530407
0.06284689297489696
0.10995798405007708
0.22557277032694223
0.2929987969036587
0.22114342934731956
0.09387651965606536
0.19458642337367374
0.3932437049597183
0.15280574397270527
0.0877786193187645
0.08379139721698355
0.08844434241008525
0.08689544587972357
0.02695097879974752
-0.09095076576023363
-0.15413537396043683
-0.13463357701180464
-0.03984346723470347
0.08958597577283309
0.17925416479139636
0.1986522161089014
0.21286394494142485
0.4301026869325105
0.9234697133979614
0.34443748203748037
0.0689162257451495
-0.0373386618358308
-0.08418815484434922
-0.09758013643371069
-0.06781027491780932
0.01040881472677653
0.07883629802850228
0.08905954345345714
0.07088543331497457
0.0349875157178209
-0.08427898808857104
-0.35500615344847636
-0.5767248366581542
-0.4015625916611206
0.0
