# vtk DataFile Version 2.0
Vessel Segment
ASCII
DATASET POLYDATA
POINTS 74 float
-4.554841261433529 15.852387523822916 -5.336939763141022
-4.978927589217706 15.010566504147995 -5.1036873161629055
-5.391986332635103 14.132829132558205 -4.825345877063608
-5.79186845864716 13.270723097687249 -4.573855190367412
-6.171824637487951 12.45976268903215 -4.416683064381201
-6.517285885306462 11.720120765719303 -4.41617499276073
-6.807798757246971 11.052699362309355 -4.610819026876806
-7.023364030383101 10.43171563713878 -5.008190766515467
-7.143571413840206 9.828377261690939 -5.5749966584154045
-7.159280203879628 9.214562204055088 -6.245676197765909
-7.066924026094641 8.573709205364828 -6.952349613485959
-6.865790344942166 7.905852456427747 -7.646795271579378
-6.547606670339331 7.233628760892002 -8.335401854090355
-6.120810596907164 6.597360125972424 -9.007061642337895
-5.604277692454136 5.999966422848287 -9.673097086637009
-5.014090449476619 5.433658803968692 -10.337902202788198
-4.378567078724347 4.880450734491228 -10.9707262937037
-3.7418215923005516 4.324312900399701 -11.499191889976986
-3.1629257277559932 3.749442766131143 -11.827494307956371
-2.717030531037593 3.1689132521695482 -11.863853428246298
-2.465388218253392 2.615041653342068 -11.551188562590811
-2.4449670730119686 2.1669522775915566 -10.935571510318093
-2.6290994165200203 1.885172976525405 -10.141881264671584
-2.9711976635918975 1.7993571628804996 -9.274269324416919
-3.429087564941093 1.910600299067885 -8.399541280918232
-3.9586944838974145 2.1978400640867575 -7.54197624752883
-4.514208323993182 2.631394397861215 -6.706655067513788
-5.041458563950197 3.159437557898819 -5.898142291691757
-5.485757733870825 3.704726831640789 -5.104850963218465
-5.806406626773955 4.179705797371766 -4.319480738472034
-5.9872987757203795 4.5111686673754114 -3.5535817929950233
-6.03653284917614 4.653811022568069 -2.8260583843776472
-5.974386494389016 4.588539987770577 -2.151984882355271
-5.820810832362046 4.311525836716811 -1.53817808532972
-5.5985677306452315 3.837024336996047 -1.000195419178879
-5.335950429586851 3.2117228241989513 -0.5542809630893536
-5.059214857390178 2.490312130044132 -0.20660422124302882
-4.790583956109857 1.7140462969173869 0.04091414366904736
-4.543229204953015 0.9002144142723119 0.19264746642420383
-4.316464734210983 0.04513332217689916 0.2556349944631856
-4.101865475964033 -0.863543142648705 0.2405940402244063
-3.9015558798379653 -1.8262090845220322 0.18774835703482262
-3.6957256382367256 -2.837946615011776 0.17161742806056324
-3.4577896408082482 -3.8851263722692044 0.23880859347769057
-3.1638649427773746 -4.941220742118549 0.4120005797833567
-2.7922374331977893 -5.965650387939463 0.6963626234807524
-2.329721248424796 -6.904906430600393 1.0833220463076263
-1.77742659478316 -7.7094451869285505 1.5569257284775724
-1.1474376817631509 -8.345047801019398 2.0941667727125153
-0.45521285645296883 -8.807272258151583 2.6594911717800374
0.2903460127384709 -9.119766032586455 3.225211202304212
1.0831410206367211 -9.312002635876409 3.777420565594249
1.9130464229977049 -9.40701255719333 4.312121428626363
2.7631074251734873 -9.416122697674657 4.8320616148529085
3.61359311283462 -9.340169884824023 5.343461453601832
4.450563706790664 -9.177975535193262 5.8515266700645725
5.271346469071915 -8.932417652237458 6.357098975444559
6.084673693340588 -8.611128996902838 6.859136378077102
6.905519825571268 -8.224828072623634 7.359753063411466
7.749503553755449 -7.786401097093523 7.866664550438722
8.628058729713903 -7.312965198135332 8.392348183316455
9.545837613311623 -6.82885640045909 8.951831612160644
10.501594616186752 -6.36627763379547 9.559162894220353
11.487126209080536 -5.96535065844953 10.222065465839709
12.478640524178395 -5.67559729833781 10.933516779770063
13.427889577804255 -5.546260038753276 11.66465122772512
14.278807500730046 -5.6033250590864 12.375982982693678
14.987921170670075 -5.843064819036582 13.036287520674891
15.532905249888964 -6.241052766956374 13.631171911203982
15.91581768942353 -6.763454588675593 14.164000490437502
16.15562312604672 -7.3801855539785715 14.652440028620758
16.270963760880708 -8.068428265723139 15.118266131348717
16.274460102820555 -8.803408581192139 15.578345980581192
16.182249092057262 -9.54234741813638 16.035922387257216
LINES 1 75
74 0 1 2 3 4 5 6 7 8 9 10 11 12 13 14 15 16 17 18 19 20 21 22 23 24 25 26 27 28 29 30 31 32 33 34 35 36 37 38 39 40 41 42 43 44 45 46 47 48 49 50 51 52 53 54 55 56 57 58 59 60 61 62 63 64 65 66 67 68 69 70 71 72 73
POINT_DATA 74
SCALARS Curvature float
LOOKUP_TABLE default
0.0
0.04289571536330092
0.022338525005827555
0.10067253250826852
0.2307833266924964
0.3575830268525019
0.3508292325138079
0.243763764280744
0.1476055841391322
0.11200890093851201
0.11115759014311112
0.10832324743235268
0.11037046603291441
0.08983926106504468
0.0686073426505428
0.0512814243796856
0.09030823506172848
0.23284353066478475
0.5174490129101047
0.6878052008642427
0.5442191886400114
0.3584323536546335
0.26589462878873427
0.21304007627201288
0.16006977201096043
0.1167898717798166
0.083640121533325
0.0689170237762561
0.12297152090654363
0.23295511946264838
0.3759953414373946
0.47814689386045545
0.452453100592783
0.3452268206985461
0.2428877958003067
0.17943622658468467
0.15237074534434952
0.13884020819152834
0.12138298763566173
0.09252859353358275
0.04438075806465461
0.035374037499070934
0.07234562060850329
0.09181613211622143
0.10761788121260402
0.12880250162194506
0.15419595058225982
0.1772328395123174
0.18086260517941877
0.1616798586836772
0.13288302920481165
0.10614967483326895
0.08942015463706889
0.08605151141370682
0.08845448686250391
0.08543141211638991
0.07304485809905603
0.0543719256569297
0.03337740439146602
0.01207706230167066
0.01011960484192879
0.030937336785903255
0.05196916680954762
0.07693830559299059
0.11145066058302751
0.158074080738267
0.2161372695085093
0.2719699258909174
0.29061151988865885
0.2558991601871999
0.1995572532838153
0.1528777944325164
0.12378830910481037
0.0
SCALARS Torsion float
LOOKUP_TABLE default
0.0
0.0
-0.9175906463418761
-0.08282122749349252
0.033120360106439636
0.0890497223137342
0.16195362774091004
0.28772971245335077
0.49316119349040394
0.527611334678156
0.2768219088169591
-0.18636069875830757
-0.17347034338782755
-0.14519575730024875
-0.030571234241503903
0.539226629257203
0.42129362459478903
0.16996153468384612
0.07448788505895926
0.024569838623760623
0.004777935801025611
-0.029046095424373884
-0.06253441146370795
-0.04828887685564567
-0.10439394389335956
-0.19678382763230143
-0.3850524086005062
-0.7362120022762965
-0.46209951125187526
-0.25426103038425907
-0.1930654521567761
-0.15990932288967574
-0.12046260420460257
-0.09837257548293256
-0.07551154965680977
-0.0722833740501532
-0.10195086695724533
-0.10599154147721722
-0.028344496352714174
0.024489927666140058
-0.5307082823272837
-0.6300291327178035
-0.16094910489972575
-0.1208798211897551
-0.12429353559413975
-0.10539967603393784
-0.062307281554132725
-0.0467841027994438
-0.1006282749544711
-0.14175914698035605
-0.13075927009174068
-0.057196357710755596
0.08809798734871974
0.17975278516524468
0.13236743256335404
0.027131732098099007
-0.07129505379951065
-0.1199220548711553
-0.108961855467306
0.1387615023189205
0.44368556420211835
0.046771383845439995
0.031031762811112664
0.03208914664452446
0.023393892435929053
0.00769715945627273
-0.018521975741587798
-0.04881680407282478
-0.0755722835595229
-0.11032973087386201
-0.16638327045926146
-0.2277000694352251
-0.28891109707308527
0.0
