# vtk DataFile Version 2.0
Vessel Segment
ASCII
DATASET POLYDATA
POINTS 74 float
-5.137858650581137 18.68161008393261 -5.8234940002054945
-5.614613708421949 17.883366820861426 -5.706214700886915
-6.148754219608089 16.993069191531536 -5.62203391586687
-6.691771555636906 16.105745196308398 -5.613626845271825
-7.213920425827021 15.27056622643852 -5.717837772191425
-7.688046865270894 14.51535181030823 -5.963105318887631
-8.092064593875705 13.842838389531403 -6.365374803327908
-8.40295774755542 13.23994308469853 -6.931183104818431
-8.602354297047519 12.690202100885566 -7.612452078904953
-8.695861455500983 12.157085967791737 -8.344760324591487
-8.695001585137428 11.610631663621653 -9.094894237267473
-8.598509619216077 11.045432055232162 -9.845030451650063
-8.413581352629373 10.468281555308586 -10.56254019187967
-8.12873796426904 9.863987400195779 -11.271062389907286
-7.7300905982604995 9.241464178390489 -11.953322453167807
-7.243982321703815 8.617261680289612 -12.565762287111124
-6.72614496640631 8.01447562152541 -13.053920034693245
-6.22909507617522 7.440929155131849 -13.371121682120636
-5.807106263509713 6.904267963201724 -13.475312276401851
-5.496882241795749 6.414583592038144 -13.336045443254651
-5.323359441606573 5.9953042346142915 -12.934206915512881
-5.280498424050325 5.687277907251534 -12.316753777025284
-5.312720884395622 5.490001162566788 -11.592499503739738
-5.365002707218331 5.3672633101571545 -10.810018533786094
-5.425517831357287 5.289499110474733 -9.988907619109996
-5.492495600940606 5.228662314968407 -9.136239904125931
-5.56412737835088 5.164845430419795 -8.262842482428697
-5.625935270845462 5.063518421420773 -7.402588089931358
-5.66828043517517 4.882971337176301 -6.558710631778467
-5.685442036004821 4.586644752832081 -5.719925562961612
-5.672703161224195 4.141252373164486 -4.892556330593172
-5.636712726349675 3.5295420854724435 -4.101306497447248
-5.590771367225576 2.7634789286541466 -3.3781597203934584
-5.541305955744819 1.8877236094062484 -2.737383953249237
-5.482689761732692 0.9485951265744534 -2.1666022624123267
-5.40607586028253 -0.01932240782366627 -1.6465409028678288
-5.302878244262725 -0.9925732417159653 -1.1580563267029051
-5.15987831703607 -1.958181956748196 -0.6875195092066638
-4.95966247924791 -2.90858946742632 -0.23426382503542176
-4.686384131762317 -3.8319706974938836 0.19270674312728742
-4.331943722351469 -4.715461914887793 0.5773471430815408
-3.9128203750584833 -5.5402856210556415 0.9214582821046732
-3.4266838690709176 -6.305352874706765 1.2597709675042654
-2.874508406488687 -7.010455289450321 1.6037267538075137
-2.2666183810534584 -7.653818176733307 1.9578815870516404
-1.6145922383979159 -8.233919270227373 2.3291462035152053
-0.9293687593285996 -8.745207457412619 2.727310897860845
-0.21972597879437905 -9.177707391514776 3.1654938276878823
0.5106398808664923 -9.514723029182829 3.649789836008915
1.262702709004981 -9.750029345230947 4.164341233018041
2.0476446454110095 -9.895636112386155 4.692745849520675
2.8779742223140072 -9.965160422928522 5.2263147775422
3.7567657757165542 -9.965112858240648 5.762461111597196
4.672652315659211 -9.895365349183816 6.303827569507041
5.60305777447238 -9.75411965536456 6.8562508854885555
6.5258460262406714 -9.5459983847575 7.424958094460921
7.430094996055112 -9.286363301141758 8.011290426840377
8.319281616174628 -8.99961352171939 8.613524651202688
9.20471175428929 -8.711836062680543 9.228551477921132
10.095029830690192 -8.444182266173893 9.852828946416212
10.987273959438028 -8.213777685078322 10.483312897582346
11.863322464490746 -8.036740372176215 11.117599945232111
12.6936681162207 -7.927505156205664 11.75373077029736
13.445100879944908 -7.8956247716301 12.389432185343045
14.093300711264648 -7.942844204415454 13.015944441936274
14.642892504746507 -8.063385326211815 13.62151368649947
15.123912982253032 -8.254264265646967 14.204989982260253
15.570125314688132 -8.520038052717723 14.776318893610334
16.00740057459887 -8.871974418733759 15.351825028115465
16.450249451612358 -9.31919975031607 15.949949485594
16.89756159015329 -9.8604799496383 16.588441584432356
17.328917152283687 -10.478506905252114 17.284297697768178
17.708621844399723 -11.120964534390257 18.045998039290357
17.997290160797164 -11.70138237377707 18.8490947574887
LINES 1 75
74 0 1 2 3 4 5 6 7 8 9 10 11 12 13 14 15 16 17 18 19 20 21 22 23 24 25 26 27 28 29 30 31 32 33 34 35 36 37 38 39 40 41 42 43 44 45 46 47 48 49 50 51 52 53 54 55 56 57 58 59 60 61 62 63 64 65 66 67 68 69 70 71 72 73
POINT_DATA 74
SCALARS Curvature float
LOOKUP_TABLE default
0.0
0.03850224431184859
0.07041513357867808
0.11993509781127198
0.18576201319423713
0.2388695680691109
0.24984298855166473
0.20347420136985953
0.14010091596798332
0.10910220763379429
0.10634550549317345
0.1072997298287182
0.10100745647649034
0.10997554312045858
0.11134482386256267
0.13111238483256182
0.20966946371273146
0.40071999795965146
0.6392708266540341
0.6608326405101339
0.4642730307350506
0.2643580304320709
0.13313977835800297
0.07115958020885822
0.026597931559240007
0.004247300828930694
0.05280948040320116
0.1109947520501361
0.1428065462818185
0.15691863281161827
0.15358197967393325
0.13906847549862533
0.11078243552487324
0.07670614388042858
0.05022119704311763
0.03429775627258652
0.036881558815783505
0.052909186982367
0.072655859883582
0.09209887022175771
0.09150542109550959
0.09437490675068239
0.09671030517899583
0.09188934900025779
0.08759560063053475
0.09078959132885951
0.10349318331260274
0.12178430651218283
0.12130948580826315
0.10245081403494877
0.08287618934966808
0.06904521286077066
0.060454190805480604
0.057530875796325494
0.055501818835655234
0.046491772044519264
0.028055719603760278
0.010159818208308045
0.01776683564107948
0.030246232089480105
0.04363019769715702
0.06335939608312471
0.09334566599360013
0.1289505309314609
0.14960525309233305
0.14960488751097192
0.13900796012980834
0.12158654877998275
0.09413004728525771
0.06672406080912814
0.05439102913566654
0.06641338882132916
0.10687097966674235
0.0
SCALARS Torsion float
LOOKUP_TABLE default
0.0
0.0
-0.03990624829080064
0.023478430194061276
0.05802373895371764
0.09292681831392645
0.13820158518516754
0.25844970030026915
0.5061328885151324
0.4623784542436474
0.15979989033603248
0.16404518818393904
-0.04713003352566503
-0.006885566766773252
0.1635542188164876
0.2881840797257357
0.2887979022795104
0.21787043232320139
0.09587254747077203
0.007490664372389058
-0.10193328176578724
-0.2665775887089101
-0.5593787688525902
-0.16794695333182302
0.2674681602359862
0.999996108755194
0.09190747685983092
-0.0010567688261468172
-0.009575459919523304
-0.01709608595268431
-0.06491576108772322
-0.07677629609218281
-0.02946171094630716
0.1011954607281841
0.2841421931655817
0.5163148247314433
0.423601236658129
0.0999645667722478
-0.0025373483729156238
-0.060389917808795865
0.08440143587900438
0.361236149363826
0.12736540965116436
0.1018858587003932
0.15147714923366692
0.17793366404093316
0.15384703568593786
0.029343667742391277
-0.1370201496894734
-0.2251112481213165
-0.2070330109597967
-0.07492562501866085
0.1089281115538742
0.21591907747167532
0.20955596510424365
0.18713409884111543
0.3101506276318903
0.9585347530870735
0.4576066957445658
0.05787455376440548
-0.09084418940543179
-0.13437092908710932
-0.12815473907807562
-0.0681911548657991
0.07598418099344897
0.2536017401922226
0.28045510487337005
0.16158040581496982
0.002361273351783183
-0.23023653726512672
-0.4599680664237544
-0.4160195370048068
-0.25269155707326124
0.0
