# vtk DataFile Version 2.0
Vessel Segment
ASCII
DATASET POLYDATA
POINTS 74 float
-4.96705196302438 16.701805454886703 -5.031605718378866
-5.450736540419871 15.90034983808881 -4.922749648607775
-5.987443254978356 15.097682110750684 -4.812683804322932
-6.529392316637122 14.345227197630924 -4.742132573909037
-7.047805962080041 13.65884203159516 -4.750115230450152
-7.520944121811895 13.038870227078428 -4.871250462162838
-7.929430213426194 12.476619159663242 -5.129080353160487
-8.259244469617144 11.962748510521498 -5.52567122082457
-8.504384850399154 11.48253927816494 -6.044938251983264
-8.658495089940514 11.019478434484144 -6.660294118701804
-8.713637768579446 10.560847224059986 -7.343962650759504
-8.656391508403749 10.103642591536406 -8.071024960302543
-8.4663139216586 9.65281199423819 -8.840492141749214
-8.145816050463061 9.215692327108203 -9.610375696941638
-7.711163330794554 8.76925894210183 -10.363981830818984
-7.182578829315093 8.297568527378024 -11.088375120038299
-6.59436499102526 7.789513412988819 -11.751014852142548
-5.999769045923902 7.242957055016488 -12.28778613929616
-5.467095441242651 6.682797028445862 -12.638281009088347
-5.034849506471407 6.13345003455122 -12.773075140457852
-4.732489486629945 5.630234142668121 -12.666762753366102
-4.580418716462272 5.218880170838414 -12.3336914833597
-4.567628567854542 4.920460752243123 -11.838647088228836
-4.667345529195385 4.732025218798738 -11.209924227162286
-4.866825027315007 4.653591124074409 -10.459655789661477
-5.139352724035519 4.675241794389837 -9.622992085822975
-5.4447675544170115 4.766542156157048 -8.736985275867433
-5.7462414261860095 4.886238613051051 -7.825341976231258
-6.005959967716689 4.984121098278699 -6.900630717931347
-6.191501290697742 5.0059307522306025 -5.971529682605476
-6.284539795063767 4.90420961284303 -5.057660053379047
-6.287057966105836 4.655672309079867 -4.186391341925216
-6.21084554897726 4.260952921147149 -3.377548607663062
-6.067852157576092 3.7314006915978695 -2.6442464889500505
-5.874996788320065 3.0865521072835898 -1.9961612142772096
-5.653084306055464 2.3506160343806473 -1.432604564758847
-5.420736354749629 1.5475921371638153 -0.9460189618635955
-5.189431376984901 0.6992636139979775 -0.5294121776026596
-4.958640265682562 -0.17957443980773372 -0.17387320648446053
-4.716156059096072 -1.08350632101931 0.1292007320548337
-4.443987034070115 -2.0133379782938863 0.3915661325429417
-4.123817609635446 -2.9716394878197616 0.6304355167601107
-3.7461586908062516 -3.9454439953472282 0.86523673785368
-3.302470534311741 -4.9135415990872024 1.1175685583800348
-2.784774522613017 -5.85206454677452 1.4053963586790519
-2.188535467248379 -6.736746022371142 1.7424280874304872
-1.5155378560282413 -7.54304988269988 2.1353773930417006
-0.7732151803233673 -8.249922433208939 2.58008558561688
0.02940834780988719 -8.844352061515167 3.0642626023671293
0.884406932487519 -9.320280997327908 3.5726094385895433
1.782327116422051 -9.676519143841288 4.090595287405684
2.7114526531073992 -9.914248275373392 4.608830564893314
3.658929315356422 -10.035081171232918 5.124494367343901
4.610895707129715 -10.042793107795305 5.6398473391862725
5.554807471707596 -9.947883077010987 6.159710091246223
6.483241930705267 -9.768549149381426 6.689144257262105
7.393590333811019 -9.528876012349626 7.2314556620687
8.286463379587389 -9.256515360631834 7.788567208997054
9.165031084419576 -8.978169712532255 8.362061122148829
10.033370083348585 -8.715777004560174 8.953648483563803
10.894057529433656 -8.48682551232961 9.564995705665437
11.747178883338238 -8.30708361559469 10.197335673818483
12.59084485401548 -8.193385812174085 10.85190443389251
13.42019142326141 -8.164598310625053 11.529430786194546
14.223575700898591 -8.240178493369578 12.227030457103902
14.978038103541648 -8.43680907715947 12.933479953299708
15.654725632336762 -8.762635239963203 13.630439949345133
16.229907944839628 -9.215663616181383 14.299426161423176
16.69309727125223 -9.783727736291137 14.927178085532487
17.05001759944212 -10.447046643896748 15.509599652910484
17.315876970231983 -11.183067052606411 16.052879722710355
17.509137687676457 -11.959879900375348 16.56876076856031
17.651219914091367 -12.725415125625544 17.065155828312463
17.75948311011872 -13.418038714339403 17.52882991503658
LINES 1 75
74 0 1 2 3 4 5 6 7 8 9 10 11 12 13 14 15 16 17 18 19 20 21 22 23 24 25 26 27 28 29 30 31 32 33 34 35 36 37 38 39 40 41 42 43 44 45 46 47 48 49 50 51 52 53 54 55 56 57 58 59 60 61 62 63 64 65 66 67 68 69 70 71 72 73
POINT_DATA 74
SCALARS Curvature float
LOOKUP_TABLE default
0.0
0.045985262549667096
0.05733445315966711
0.11023454987312388
0.19679762717998583
0.2810340996965736
0.3042887158115224
0.25909808785608557
0.19960613934051513
0.16097802197429292
0.15055715441780204
0.15024356124414173
0.14051816707272044
0.11207786188434847
0.090730951758471
0.08834670101162459
0.1313066572998035
0.22546689333922107
0.39413457014648695
0.6414830834744064
0.7364015630756164
0.5946610778440703
0.37402835814930746
0.2258748950677552
0.1365023478100255
0.07374442719783872
0.02982203641798361
0.05239141554827319
0.11711144218372559
0.17916016420053058
0.21310696934399043
0.21335530831691732
0.1954408885111842
0.16863597268212016
0.13641600812885937
0.1072921723615078
0.0872909419254357
0.07138428233649051
0.0603866059147936
0.05201417528968277
0.04536034403193534
0.04307731932723079
0.05299154492361394
0.06907497090777291
0.08468115551273682
0.09733266975491844
0.10513671094722221
0.10798451342124092
0.1079645670085092
0.1057363148913239
0.10275800122692982
0.10010512265060507
0.09627227335249018
0.08775010645419613
0.07325999385275522
0.054281694198487496
0.033738021738422073
0.019106324035309274
0.022258531376983463
0.03386920404374291
0.04651896183012169
0.06090285932484768
0.07748720259822893
0.09585776682762955
0.11752648182127202
0.14207360969780325
0.16515845748670288
0.1756078472650622
0.1636734987636236
0.13430586908383355
0.09627785001109838
0.05690026483335693
0.03811660234261527
0.0
SCALARS Torsion float
LOOKUP_TABLE default
0.0
0.0
0.5762682624419649
0.3160089230093082
0.18473309706605334
0.15112481967201538
0.13091096867075525
0.16579316264607227
0.26128969208716424
0.2845877781249655
0.18999580970206287
0.006504232294345436
0.12957922206299924
0.2778053360287747
0.2596486419456861
0.3281138994449273
0.2488212675994606
0.15080817852903713
0.047521540127652154
-0.02490173690176818
-0.02630644325939211
-0.0025693167103859466
-0.1088809335529687
-0.06808753941598136
-0.10348812312266113
-0.3035566412384779
-0.9045575738313478
-0.5311243677891825
-0.15796141807287012
-0.10999024508404225
-0.10514692918895902
-0.07970055107722704
-0.05151924866778954
-0.06922640577799216
-0.10654068333767824
-0.1320856933880756
-0.09731093373264263
0.039232920264743065
0.23643723873657385
0.35529749292408336
0.40965895836793975
0.4167294545281425
0.294392383050963
0.13984760426415005
0.07369056092231732
0.03805697529907491
-0.003227023361005381
-0.03997815651127237
-0.06273402972011391
-0.05875201038854797
-0.022529029618288197
0.026233045715861516
0.06929432618316039
0.09829396742888097
0.11870188381718998
0.16168599862998473
0.351945070243629
0.7781687661627172
0.5686532934335473
0.215048111147979
0.09161068726887375
0.0466012952423762
0.022840405418769173
0.006143335856705814
-0.005421503656257842
-0.00971448109691132
-0.008358350191511304
-0.0029808599377553376
0.0006590023267172419
-0.027590867422765484
-0.14266670180875385
-0.5612326186037483
-0.8928077979049073
0.0
