# vtk DataFile Version 2.0
Vessel Segment
ASCII
DATASET POLYDATA
POINTS 74 float
-4.9656567471547 18.06063518317058 -3.0763149625314705
-5.425494587891677 17.20835527918435 -3.020498239819788
-5.948236836166658 16.346478405484643 -2.9497044934703442
-6.490246292819832 15.522577135915112 -2.905390955987707
-7.0220684385193275 14.757834587814132 -2.934712408264192
-7.520310775065437 14.06104227637292 -3.0854214196247858
-7.966403414698684 13.428153720271611 -3.3955585879313674
-8.350568013430747 12.840080137148727 -3.8842462624336953
-8.667200610069278 12.267606350895358 -4.552876954807938
-8.903930240400337 11.684504189208198 -5.3682087206392115
-9.040824277454655 11.08969821885182 -6.2616865907485995
-9.058353951512261 10.500261184805968 -7.168535825774415
-8.949192170303084 9.92946154577364 -8.042114559044322
-8.711520307471336 9.368227096374486 -8.890495130792887
-8.347008248994698 8.808522552509118 -9.718806487506255
-7.86108903988414 8.239063550968705 -10.515014570961979
-7.276231270239043 7.645230730664517 -11.261088701727862
-6.642406948214071 7.020355552383967 -11.908640424586
-6.025252792164968 6.374407183130469 -12.392052835058934
-5.493467223161302 5.742019499121917 -12.652169913661607
-5.093624428560418 5.1687529766477995 -12.671515006379066
-4.828617737159955 4.678803312460155 -12.482926543143682
-4.684089787469644 4.289670524250644 -12.093740634757058
-4.655983139801582 4.023964401491855 -11.519807862971275
-4.72958777211293 3.8831715513920826 -10.797003138194187
-4.8811903013376075 3.852179716566314 -9.967871366936608
-5.080875570268797 3.9069079041767725 -9.079694995931494
-5.290540644770561 4.004684774790728 -8.177455698483188
-5.475519569127293 4.088289176189812 -7.2806888486812
-5.614046551534593 4.101011923462947 -6.400430808349114
-5.697112065936252 4.001286631331266 -5.546224398511218
-5.725148324242151 3.7677905280309263 -4.7277989299439565
-5.704050293889119 3.395553458023333 -3.9571248667690346
-5.640300248355647 2.8912193997467277 -3.2482790278979548
-5.538928010881285 2.2733460701698385 -2.615072407499772
-5.4026372870406325 1.568774572004142 -2.062410028586219
-5.23464697316543 0.8039028274410736 -1.5828003116853446
-5.037942609918597 -0.0019474934217383218 -1.1567243949075827
-4.813154077270996 -0.8377102573695574 -0.7605768553270955
-4.557384295239083 -1.6980019126183439 -0.3778602168463048
-4.263695121624525 -2.581652468217774 -0.0005926912297050482
-3.9215825414116927 -3.4872723169688635 0.3744823706064581
-3.5227687472796694 -4.398574788657328 0.7458033808759069
-3.054756515729317 -5.289621956996353 1.1152784050140636
-2.5057445638108145 -6.128750860269319 1.488282350769454
-1.870670216174788 -6.884586544000946 1.8723928744562415
-1.1543876250366067 -7.533819398306894 2.2753455660679163
-0.37073001778850523 -8.065539969842328 2.702544074016577
0.46358870519092543 -8.479333980735202 3.153312629650423
1.3349182455702806 -8.78082323370342 3.6197938927935938
2.2345720703415446 -8.978708477430539 4.090925440155115
3.1565964003909968 -9.081564168234184 4.558903325370943
4.0938922053413656 -9.096197785603172 5.021979256751507
5.034232373185267 -9.029834176776824 5.484275390718267
5.961812684409911 -8.89272060912523 5.953698952070638
6.864421646096721 -8.700520310037108 6.438518557167326
7.739134865625933 -8.474405283599243 6.944392224271591
8.591161359585328 -8.23863462979103 7.472722866293011
9.428264706286868 -8.018604685077095 8.021555990165021
10.257505026797697 -7.838212013165359 8.58723397085505
11.082155536972785 -7.71894889740672 9.165334207687879
11.898824801964686 -7.679861579645323 9.751994533489311
12.69636661444953 -7.736444718043766 10.344949744225872
13.457310886407457 -7.898932216759978 10.943766706376131
14.161129921489389 -8.172585766700323 11.548001130302145
14.787239402724213 -8.560227406487874 12.153609452961009
15.318532203880373 -9.062643994590292 12.752211316350802
15.745653848110928 -9.674614427943341 13.333190817498387
16.07103485979157 -10.382511623600033 13.887031674868425
16.307060264744628 -11.165676110602638 14.408181389900397
16.46940198454006 -12.000697324591739 14.897761341671057
16.5728564819078 -12.86080103078233 15.362681697372336
16.631430952296146 -13.701165727899241 15.806458078814135
16.65607917445231 -14.461675983225197 16.213523468817435
LINES 1 75
74 0 1 2 3 4 5 6 7 8 9 10 11 12 13 14 15 16 17 18 19 20 21 22 23 24 25 26 27 28 29 30 31 32 33 34 35 36 37 38 39 40 41 42 43 44 45 46 47 48 49 50 51 52 53 54 55 56 57 58 59 60 61 62 63 64 65 66 67 68 69 70 71 72 73
POINT_DATA 74
SCALARS Curvature float
LOOKUP_TABLE default
0.0
0.04920176029542556
0.04605229340407148
0.09125865339776276
0.17412083866083544
0.2513280541840965
0.2529446962087063
0.18868583972424338
0.1231731119810821
0.0963614608792197
0.10224903249813899
0.1175321848228837
0.11970654426409111
0.11043596789021103
0.10079992721755673
0.08703353096621853
0.09354851249362461
0.1429679869987334
0.2622488403952591
0.4688464179825982
0.6251161513201005
0.6517239398829798
0.5093423571436027
0.3096789651588723
0.17774030068177496
0.10573188921088221
0.04797392583003443
0.031415560100570006
0.10385292649268954
0.1682056495407035
0.20264577675517637
0.20657804253983145
0.19350937838258508
0.17284906230064997
0.14655957140095383
0.11601700410871607
0.08177877979099309
0.05127069573103138
0.035491898583743325
0.03340794178499138
0.037711734621999005
0.04557156376496109
0.06168016186270502
0.0838892428706348
0.10672766421052479
0.12271211960806479
0.1268059100430835
0.12124425041496387
0.11113899113177807
0.09988343162823966
0.0898371165385419
0.0813041468524123
0.07308517098195311
0.06559952545069594
0.0572327678859269
0.045059945377697336
0.031071728079913544
0.028070021499426175
0.041883195707664155
0.06062687815461919
0.0797149919220351
0.0981558010850391
0.11562701937055128
0.13276713579544244
0.15055703097817036
0.1653216814113996
0.1679236859629344
0.1530262860241732
0.1262609292018849
0.09736608791879175
0.07071609145223234
0.04865405446796656
0.04274855393950743
0.0
SCALARS Torsion float
LOOKUP_TABLE default
0.0
0.0
0.6899311160666082
0.3475932398166132
0.15849505533622005
0.10868599696181393
0.10480408803728009
0.14516048740020124
0.2769446749043005
0.3219569367370059
0.17303150941976994
0.10345408868912406
0.022970305275679004
0.030955086589038963
0.1246188390418192
0.22327265573835453
0.32263066617940966
0.22196164394540563
0.10945944836421637
0.03956955939313486
-0.00736998034986093
-0.13415277468934933
-0.08245104394309581
-0.052548895706377295
-0.059503533158796855
-0.11544938275554711
-0.49009853282392274
-0.8698127747433297
-0.17057920575185492
-0.09410675645810976
-0.07139196681863709
-0.06421174022067051
-0.045262009989071865
-0.011470249410250245
0.03877944231930028
0.0684166843019747
0.12457503179871847
0.28299890518034787
0.4141006877554487
0.2762784835372329
0.14044518027587272
0.11224793154661222
0.12845578169115732
0.1080477986946466
0.09253770814709765
0.08519177519621819
0.08156149975982856
0.05332681827992942
-0.006389514997422879
-0.06005396721258132
-0.05414801190599812
0.007509124249168483
0.10491064746912926
0.20136753070133734
0.2659818362598285
0.3544530848813809
0.5864756192451729
0.6845889444454132
0.3555659524664621
0.15302380079480177
0.04725090815095373
-0.021146453062738928
-0.06476784442439304
-0.07556219088800806
-0.04995363333343905
-0.014301959682885501
0.009749552859890851
0.028133178668095612
0.03632982814625526
0.0009432651645736728
-0.11995971090924112
-0.44240199194169394
-0.5386355502808757
0.0
