# vtk DataFile Version 2.0
Vessel Segment
ASCII
DATASET POLYDATA
POINTS 74 float
-4.990852069449248 17.84667300133056 -5.755801093998014
-5.467149416881763 16.899145136448684 -5.615811346088028
-6.0084069667508615 15.916679573931413 -5.390072669825552
-6.589613243727396 14.942537886972085 -5.152938501367982
-7.182329439184982 14.008925922121204 -4.98305997156139
-7.748547668875087 13.145121627449775 -4.960695589577056
-8.248442163533241 12.36588728635534 -5.143835391942069
-8.655618816806818 11.654041528141986 -5.557003026770398
-8.953604723318385 10.97735889806319 -6.183436639759965
-9.130082705183694 10.300301090181904 -6.961726026822295
-9.182767959569693 9.600221491916228 -7.8039006246721
-9.110797085071546 8.876789230508574 -8.640328864775748
-8.914263576823053 8.149650622342838 -9.428911242727914
-8.59645764238022 7.4345425857008545 -10.165887209352556
-8.17100568410389 6.750027305995543 -10.841492292872656
-7.672598574630542 6.112750479726115 -11.430592631944734
-7.147755595283801 5.531285979671405 -11.910066674796965
-6.633307200651148 4.998366969755637 -12.261886479102966
-6.161312664665828 4.49530079130925 -12.445181101988293
-5.781940622230376 4.029861479836727 -12.403291671037943
-5.533874114561858 3.6156461037003957 -12.105120060072815
-5.420782199794199 3.2783115493099424 -11.581568853430154
-5.417053851722565 3.040781664669276 -10.874712121185434
-5.502591598059411 2.9235587360512785 -10.050432729010405
-5.646798417736373 2.9143035954193355 -9.190474241860164
-5.823174154502911 2.9819944812040298 -8.338312105331665
-6.01091500690153 3.09676804117682 -7.51408095509932
-6.183332234391312 3.219232792126706 -6.735037037061685
-6.31770346702578 3.3036860564440933 -5.991470531271129
-6.401947801591398 3.3080890909784646 -5.26937271640888
-6.4318889591224035 3.2009862566691027 -4.56487725008995
-6.407754782551037 2.9644416939237574 -3.8817464277329745
-6.332207385785935 2.591084132029912 -3.226953249939192
-6.208374122682597 2.0797353231282827 -2.6094334373996486
-6.038996423740883 1.4389542719416788 -2.0443891279451254
-5.828217904980989 0.6943111373458677 -1.5488686183340383
-5.58015944482724 -0.12154132402205357 -1.1302466270797153
-5.29786913574388 -0.9779190476637717 -0.7830244567053074
-4.981335202689541 -1.8495563788616631 -0.4902661456163813
-4.625736183005206 -2.7171084646723216 -0.23300479694789408
-4.225680726478731 -3.566780648742279 -0.0009931987439295658
-3.787908578218029 -4.380996385384621 0.22258060942879232
-3.3022908915709963 -5.148951473264483 0.46996896321757786
-2.753569828884282 -5.859933437066899 0.7544654210844769
-2.1307506182816094 -6.4969721223253 1.0805839315278514
-1.4302738543331148 -7.039116012601413 1.4505167404306358
-0.6593102203943779 -7.467557664067635 1.8671917338520463
0.16630692731790014 -7.772873782734824 2.335739636722272
1.0291255614776702 -7.952734374421565 2.856316056719665
1.9149994221851148 -8.015474308774808 3.4121389225507928
2.8186136284563177 -7.979835129221799 3.982443132239231
3.7397097218670883 -7.863979402110307 4.55201592238163
4.675903374700204 -7.681375022678801 5.1140280042464
5.61816099570525 -7.441969190797098 5.670660137797539
6.553269779067571 -7.154253389826662 6.230445707357612
7.470890888563787 -6.829542464784638 6.802219004896273
8.369506346092452 -6.484905321693015 7.390623464083598
9.256031518925385 -6.143067303757444 7.9948257006079535
10.139125914381212 -5.83057419145134 8.61016066743973
11.022460442870923 -5.575423833509916 9.230217314250874
11.900143330896428 -5.40538053932096 9.848509814271784
12.75543942129962 -5.345410224474379 10.461017476473955
13.561692038388596 -5.413966682836047 11.068046287927546
14.283750024954266 -5.618956566120768 11.671408814956706
14.887836378825579 -5.953365107038619 12.268504771589313
15.362307394548349 -6.4012952809141375 12.85566057823399
15.714829836585478 -6.951791266314672 13.43480629175504
15.958419231537336 -7.594436721381707 14.008315097889035
16.111208496717833 -8.309892493414333 14.5750177083529
16.198815222350476 -9.07128558614829 15.131261195473103
16.24722022533862 -9.85861743406938 15.67522187942574
16.273924022095294 -10.665236553355387 16.2095798606876
16.290946183902367 -11.480245969883937 16.734509701580258
16.306714599648664 -12.265032714171001 17.231303188798524
LINES 1 75
74 0 1 2 3 4 5 6 7 8 9 10 11 12 13 14 15 16 17 18 19 20 21 22 23 24 25 26 27 28 29 30 31 32 33 34 35 36 37 38 39 40 41 42 43 44 45 46 47 48 49 50 51 52 53 54 55 56 57 58 59 60 61 62 63 64 65 66 67 68 69 70 71 72 73
POINT_DATA 74
SCALARS Curvature float
LOOKUP_TABLE default
0.0
0.06274081625879771
0.029389972364422937
0.055630065877483766
0.13667614788009338
0.24484725271545926
0.295469542262647
0.2387825010619291
0.1548500190564562
0.10674367725174916
0.10185210234853274
0.11148698894948114
0.11385135156462399
0.11401406251574911
0.11353008480303838
0.11701756061451629
0.14865048673020806
0.2865589358219267
0.5720080350296939
0.7162002208368473
0.5457871880473775
0.3265278577174963
0.220167681417145
0.15682611665680624
0.10932085534357003
0.07253663575559191
0.02406391726716156
0.0785010108591593
0.17386543698782483
0.24133815419033597
0.26113066150736575
0.24072121018267884
0.20328656361661604
0.1686072372937965
0.14008532252183323
0.1157287172669908
0.09250302733079709
0.06923822554575067
0.05593208802904701
0.05770098521615253
0.055510608926244126
0.07917437614169867
0.10399134570996452
0.1236473207301461
0.13874427606138667
0.1454075712483339
0.14063283848987657
0.12925818608733566
0.10933635070430427
0.0851851601189871
0.06635884241792339
0.053716019686312094
0.0441920450082013
0.03798435192987514
0.03338919912104275
0.02527319344962183
0.015773565831467957
0.02484057533068745
0.0459865778283897
0.07029884488106482
0.09784546708350197
0.12972952461126427
0.16682710569096532
0.20324356147270067
0.21905006155835013
0.2057785716659851
0.17170076163860548
0.12833822818105595
0.0851190233761525
0.05113126725704319
0.030771601862285083
0.016812820926217407
0.008840610972021344
0.0
SCALARS Torsion float
LOOKUP_TABLE default
0.0
0.0
0.871407326159457
0.45381731246080803
0.15914025385400804
0.10729424885594932
0.114203227276034
0.16259651326240182
0.3203591552466052
0.4720121697582883
0.3087669618661209
0.07912792215737285
-0.0609867237475354
-0.03928019690941277
0.09724403548606596
0.2537469438270239
0.37362833432639647
0.302365672864014
0.14841548284318845
0.0739993787608667
-0.037374892379769306
-0.18183794769316078
-0.12733894476089958
-0.08843057194556955
-0.06806814280474376
-0.13958550761151423
-0.9888797544170304
-0.3830628386108407
-0.14324352613818148
-0.10185928832061787
-0.07115379833153108
-0.05194468910714563
-0.035854632956403294
-0.008436921651623953
0.02664611657724576
0.06606734626876615
0.12107988863998301
0.2670706005654993
0.44058533125992144
0.2962905708098759
0.410695293067868
0.3514344397447285
0.044137540582581514
-0.014696122690151428
-0.0008262648723087272
0.03802729865015366
0.08146851228172076
0.06481093511354144
-0.04138179622606289
-0.135234784088906
-0.1711692063042545
-0.0982733783359951
0.08434650727327718
0.2660074679306108
0.32012246332239297
0.4068803327884986
0.7813838753993494
0.46700362961239905
0.14435593743573255
0.027383320172637948
-0.04020798050176503
-0.09049119060523222
-0.12092764095276055
-0.1151361437947313
-0.06831206706984874
-0.023419977608428497
-0.007812133498071165
-0.004737625780277193
0.019968308878067578
0.12846914197739281
0.24178594101531348
0.36641976440027313
0.8445936018050114
0.0
