# vtk DataFile Version 2.0
Vessel Segment
ASCII
DATASET POLYDATA
POINTS 74 float
-4.993712185068523 17.35444330175112 -5.33762396047005
-5.473420673824709 16.47260590419031 -5.221866221383947
-6.013504389448796 15.57319049798655 -5.0639553644240864
-6.576229155684467 14.70522683379794 -4.922188402302478
-7.132040485004702 13.89291228156962 -4.854894323339538
-7.650736321041627 13.14995933378857 -4.9180341158708964
-8.10286714987454 12.478009833786492 -5.151658019308276
-8.468274042075944 11.864097295910359 -5.569461320237192
-8.736293035184774 11.285919089951001 -6.154197311067494
-8.898706297485145 10.718012352393366 -6.861032100598879
-8.950792150247098 10.142241026484099 -7.6330830325189805
-8.884975151859171 9.556261753547505 -8.4238270468913
-8.691035473201675 8.971523260219124 -9.211047758022323
-8.37201243153213 8.399531638986813 -9.970834411990364
-7.9428140027819545 7.836024511141884 -10.690183844723922
-7.4309894733633035 7.280609997129016 -11.349353472835057
-6.876875862637621 6.732939629953967 -11.919914184023698
-6.3255188895797705 6.190172236467265 -12.360851249290281
-5.828084493597894 5.656212748665873 -12.621349285446254
-5.430910526759847 5.147154088008539 -12.657374827556474
-5.168315083102127 4.686447171754942 -12.44110545342598
-5.048864452091294 4.308799062737 -11.998267862161885
-5.05235263655677 4.0364718368005486 -11.385360955807922
-5.154053583479214 3.8788325969210766 -10.649183883120688
-5.331610779143065 3.8311767684416296 -9.835124519396008
-5.558579329981918 3.8735321882213274 -8.982797004475922
-5.8048737235560415 3.9752093412063463 -8.121310688427169
-6.038998331134734 4.0953662681178296 -7.271696172207327
-6.231345190615595 4.185298597441394 -6.435429506480075
-6.360631292479368 4.19631540944041 -5.609302498346139
-6.416408512265699 4.088787455073294 -4.800421247326808
-6.400057012494257 3.8420381134147674 -4.023675396895647
-6.318749660113585 3.452634479696811 -3.2922366329741894
-6.179918777613414 2.925688407202873 -2.6172299012599627
-5.9932218062290294 2.2754673661085434 -2.0114069973131676
-5.7709589419600285 1.5271940260841468 -1.483270425439791
-5.524382993874628 0.7094946483693119 -1.0329554109799093
-5.260881316164983 -0.15108981188746765 -0.6541698581488185
-4.980538714674343 -1.0342845888832177 -0.3335788582091099
-4.675039295292005 -1.9275013687468983 -0.05695832657380016
-4.332454212058177 -2.8238971979367813 0.18696497545855073
-3.9467230400782265 -3.715798079647957 0.41565906649096157
-3.5086871898252467 -4.5909496578374736 0.6555452082103824
-3.0068282230147503 -5.432999765524 0.9240688618228439
-2.4318957942445167 -6.221331444030105 1.2320862420287755
-1.7801798335026486 -6.933362293956353 1.5869599729827397
-1.0567133719254909 -7.548000498781525 1.9929901874115683
-0.2736948779220223 -8.051277323775412 2.450499909992211
0.5554160868735977 -8.436627581503148 2.953458225978739
1.420513210467592 -8.705749660398174 3.486149401092509
2.3158311407832533 -8.86756854104114 4.031706534869073
3.2368472037270415 -8.931367794717673 4.5785196293483565
4.176907624893686 -8.903884760749701 5.122052418672938
5.12475749700856 -8.791059617188752 5.6643739328962806
6.06689793981746 -8.601791125622617 6.21172391787746
6.993608883609575 -8.350730553018343 6.7705960601578985
7.902312213204429 -8.058707013094262 7.344563086315147
8.796705123964564 -7.75126269487991 7.933790671850805
9.682847581280758 -7.4553171979458055 8.536379019908518
10.564667298509198 -7.196107369324434 9.149596896618718
11.440282859709914 -6.9966097507028575 9.770534351274602
12.300796546220091 -6.877646659601331 10.397171995133672
13.131083530985386 -6.857280769287642 11.029728354770594
13.910101003626508 -6.949093438373757 11.669163056399254
14.614150971900742 -7.158933132820892 12.31267608812513
15.226114996418818 -7.485867579000539 12.953256918603229
15.737297253541918 -7.9271008977231565 13.583771128659981
16.144642586063394 -8.476333138566414 14.197549527687517
16.452998065500804 -9.119168813272687 14.788510851017115
16.677364827683164 -9.833954254044146 15.35328153119036
16.83712470368324 -10.60017793324591 15.893971105379343
16.949695863013364 -11.398132030947888 16.417327268406225
17.03178977282457 -12.195167074665983 16.926912229708435
17.095995380335243 -12.939669940017259 17.40667322493189
LINES 1 75
74 0 1 2 3 4 5 6 7 8 9 10 11 12 13 14 15 16 17 18 19 20 21 22 23 24 25 26 27 28 29 30 31 32 33 34 35 36 37 38 39 40 41 42 43 44 45 46 47 48 49 50 51 52 53 54 55 56 57 58 59 60 61 62 63 64 65 66 67 68 69 70 71 72 73
POINT_DATA 74
SCALARS Curvature float
LOOKUP_TABLE default
0.0
0.04891590761672422
0.03553797031411992
0.0773346123899865
0.16321052599530111
0.2626145866570577
0.29914297551896996
0.2455847747441214
0.17087745918271674
0.12602433917157682
0.1189326275109156
0.12581027661561978
0.12667629765602675
0.11421037615351151
0.10166375599566438
0.09937674130422403
0.13777032059182037
0.25875347707922247
0.4981023860770521
0.708448592412126
0.6383564090009979
0.4277917042297331
0.2731105659849756
0.1826338772324831
0.1217084706449903
0.07311305094116917
0.027842771802904134
0.06280734377465058
0.1411450410435163
0.20684721118915977
0.23557061877740695
0.22642565399150402
0.19894133561636537
0.16804902566314078
0.13742588545488202
0.1102167885079616
0.0876969369463015
0.06685498804312742
0.05310726450901138
0.04988635919917749
0.04517608364382236
0.05410646718311461
0.07392679575171011
0.09356738140124728
0.11049190710872982
0.12204096969487464
0.1254751927580924
0.12216134495499562
0.11211161226487018
0.09840552526745101
0.08657344122465671
0.07757587620193926
0.06991266789310452
0.062118159872465266
0.05209778833714838
0.03792629366363514
0.020917783360167683
0.015626354683947602
0.031106888678841916
0.049810213696168615
0.06978650490476854
0.09226061437353816
0.1175844639246578
0.14310978048310796
0.16390573245874193
0.17679582628458523
0.17647087500920505
0.1584422882667938
0.1266236840798675
0.09293565176193902
0.06311100188199077
0.035105313630043294
0.01762415204602107
0.0
SCALARS Torsion float
LOOKUP_TABLE default
0.0
0.0
0.828010964320166
0.3720170158912802
0.16713129732741763
0.1229112411341654
0.11941894952504976
0.16295750838782067
0.3009053455516198
0.3945613669383774
0.2543330007209599
0.031073747323421802
0.038226552330022236
0.10832826203450602
0.16832677158667703
0.31012296365707515
0.3331676027266073
0.2126175316087461
0.09416274856771094
0.02682373148189489
-0.03806579533962938
-0.10432511611088222
-0.12242844032797731
-0.07004694656791421
-0.08325178496309234
-0.23791790076513325
-0.955528940188719
-0.4863103135363835
-0.15190468589670902
-0.1057842270662281
-0.09202147491188233
-0.06948614933155102
-0.04597725089877395
-0.04092771164707823
-0.03606784957210626
-0.02071170408937521
0.017338378471971425
0.1369664741830073
0.3316054479864511
0.35055909620907105
0.41747858904983143
0.41892907389545975
0.14653425914237872
0.050977346757664715
0.03227257191929956
0.03749948329783357
0.04001159331806897
0.01243772530001824
-0.05932914720657341
-0.10027012048169785
-0.08193714233753888
-0.014777289926405701
0.07626766659902984
0.15115456465039095
0.19079614978329487
0.25003493303005137
0.5766108710271055
0.8198766669439532
0.27020218983807975
0.07579976293116347
-0.002651082531333407
-0.047669809409540485
-0.07101922053041457
-0.06671723666898785
-0.03299868565755196
-0.004759296552580415
0.004418373573335089
0.009990736080916633
0.022388893718784757
0.021323220412455424
-0.062359400129337036
-0.39791734370171233
-0.8973910014392088
0.0
