# vtk DataFile Version 2.0
Vessel Segment
ASCII
DATASET POLYDATA
POINTS 74 float
-4.60985067532389 15.770315203863698 -4.846977128562553
-5.03607514722916 14.868362882765368 -4.775084732916623
-5.520479511169102 13.991399403757574 -4.6561230438595915
-6.027888367165068 13.173528254771341 -4.555716200719452
-6.529112740388065 12.428992972948244 -4.5397021605798225
-6.994214779402031 11.762939643698749 -4.669758680328847
-7.397285590963496 11.163566077763823 -4.993796196569041
-7.721565938376047 10.601889145035942 -5.548876330243218
-7.9470553681829745 10.043317091226335 -6.352105132714072
-8.045525428384405 9.452705944420003 -7.345448379171545
-8.005025163627506 8.824465535766679 -8.397735678745992
-7.8275830414404295 8.177544938611751 -9.422214376439243
-7.523358528203597 7.534230891134968 -10.37609650586521
-7.107534577894936 6.899332254730364 -11.274123147640166
-6.617631944174045 6.286735142825679 -12.100438362473396
-6.083374183898496 5.704490405176638 -12.8227749526671
-5.530816547596355 5.154596356601423 -13.428547768885839
-5.005298232995409 4.636993011231625 -13.879920974633459
-4.556686416003583 4.161075985433867 -14.129226523133225
-4.2167783863265 3.7370236523521387 -14.14224708919088
-4.009554028897397 3.3792262031064713 -13.893321802940529
-3.9350019566952716 3.1148556828082716 -13.399943695937122
-3.9815554902854147 2.9717294405640953 -12.696118349702601
-4.138587652748315 2.9689180871262693 -11.828264085050835
-4.39108765011884 3.0972760575868854 -10.856831284582446
-4.709769576235869 3.3216588072015423 -9.835889505443781
-5.058277375227199 3.596080057384391 -8.800553080573986
-5.396413372137103 3.8659655331158485 -7.779869225342044
-5.686386693160139 4.074260104647805 -6.779967369384511
-5.901268268627296 4.169904902039409 -5.798181958311737
-6.028954853775666 4.114067895247111 -4.844920912093577
-6.07313367267935 3.8920128292562444 -3.9408881394788913
-6.045966756657089 3.5113268289606125 -3.1031163244224382
-5.961793894334426 2.9906882342062953 -2.3432181998260053
-5.83455816827526 2.35681541618947 -1.6697649050285102
-5.674748193879594 1.6411784948053716 -1.0875507333053331
-5.488449748330102 0.8738399684083747 -0.5971519924875209
-5.278662916634602 0.07575843482024788 -0.18936922662182892
-5.044884098023495 -0.7402488336258034 0.1552971358493036
-4.779530609986633 -1.5641625407517605 0.4547854228991117
-4.470332301072562 -2.3890998687819343 0.7240803038376608
-4.108845535070331 -3.20934844307921 0.9816865180323424
-3.689158831633998 -4.014094935588422 1.2482078637956733
-3.2048980293796556 -4.790255601540618 1.537829811078401
-2.648566453574804 -5.520475189079424 1.8597809816062036
-2.015693177611063 -6.181529387454374 2.2205897055733606
-1.311320614284919 -6.748879804250337 2.624521908424999
-0.5506638230989798 -7.205072273905748 3.0729965663839667
0.24828338850274162 -7.543137071773133 3.563302741927241
1.0730167565365178 -7.766188641785539 4.085345797876968
1.9190981465345207 -7.884701561618188 4.626297660273077
2.7848450818479047 -7.908513156442778 5.175993871910815
3.6653035098453426 -7.843442949793213 5.72886187754164
4.549762672717854 -7.6940281414974105 6.284401223752663
5.425087683882445 -7.468817356829572 6.845523348371969
6.282071894168314 -7.183692737696133 7.415006271945584
7.119657900871655 -6.862019141495857 7.992718287383533
7.944644495725581 -6.532362871305626 8.576098760997594
8.766585440357055 -6.22432671857356 9.162559974246294
9.59189907022182 -5.964546691628118 9.751016769151224
10.419082239346574 -5.77536444722416 10.341530081961706
11.237239556206344 -5.675162681430551 10.93539973779124
12.02784766607391 -5.679065440475621 11.536120376927048
12.765264782824785 -5.798882253765036 12.146599879292008
13.420685899165765 -6.03922714164945 12.762969413651753
13.974690457692821 -6.396937618465278 13.374918316468493
14.420050778674508 -6.866488138789369 13.972403537320531
14.75631243323069 -7.4386630269883165 14.547268265723098
14.990582517577609 -8.095516458449945 15.093695619948228
15.14018253291648 -8.810718043640605 15.610246036988553
15.228691260495987 -9.558367556197195 16.10325334142677
15.28103286997085 -10.312400141197976 16.5855976942264
15.32178743534572 -11.034096483577049 17.067642059901463
15.367497840446681 -11.6692344212436 17.537286991386008
LINES 1 75
74 0 1 2 3 4 5 6 7 8 9 10 11 12 13 14 15 16 17 18 19 20 21 22 23 24 25 26 27 28 29 30 31 32 33 34 35 36 37 38 39 40 41 42 43 44 45 46 47 48 49 50 51 52 53 54 55 56 57 58 59 60 61 62 63 64 65 66 67 68 69 70 71 72 73
POINT_DATA 74
SCALARS Curvature float
LOOKUP_TABLE default
0.0
0.07649696582211925
0.05625297480764848
0.11197930312170078
0.2298649089452057
0.32918014330988893
0.3027822502851269
0.19787994382010574
0.11690682326171782
0.0905986623081284
0.09364140950876279
0.10047703218673774
0.09005886468438978
0.0772443712822887
0.08499264984699968
0.0952987664684787
0.1458983260476249
0.318315727524457
0.6696694179489162
0.8581573428722856
0.6563759217972861
0.35836450845247264
0.2050352017915656
0.12839775757917696
0.07830624275145587
0.03859499670018026
0.004265569500340474
0.059682256798945496
0.1261040735561301
0.18568524677332435
0.21757216190767925
0.21598755918072318
0.1947952400734456
0.16755919149227458
0.14304387860886036
0.12509134179008713
0.10712664083011413
0.08302134554503154
0.06625149806665658
0.06214657133515667
0.05995077493323377
0.06581037930479054
0.07852867189530793
0.09449989668066017
0.11207873575926475
0.1263477685122879
0.1325951129871784
0.13072230419196593
0.12057040170901062
0.10446696834062313
0.09024780974180112
0.08089772829602118
0.0742544355044538
0.06677201445504617
0.055164141886493434
0.03702933201992137
0.013628238988554003
0.018769833920081237
0.043552172386771365
0.06531659840779569
0.08542719657464325
0.10759701508789112
0.1348823427186415
0.16466288192723727
0.1880505167147447
0.19904142091753732
0.1935635525767914
0.16950036559353307
0.13160233481746397
0.08943594977838734
0.04743213351459866
0.02713813490631593
0.06785060548958537
0.0
SCALARS Torsion float
LOOKUP_TABLE default
0.0
0.0
0.8339563627076636
0.4629838656289037
0.209485510167983
0.1462385402130393
0.125671719750073
0.15819551244258778
0.3402646121243055
0.4041509197333709
0.1574224229155305
0.027327867102910436
-0.05869068308658194
0.03904024334099375
0.16312773455089125
0.15940849118101605
0.3283518391834871
0.21200013417521005
0.08171720022009904
0.024895575618660765
-0.08870291594188567
-0.13486269864195863
-0.078387065050888
0.008785165970107617
0.01202256535267837
-0.0739507903826174
-0.9999989036379813
-0.05626010905118439
-0.03456642982484758
-0.05562657849546995
-0.06891136595062933
-0.06285754894268147
-0.05664217692043103
-0.04584869382726255
-0.012703837105145353
0.0309240615570399
0.06272050613872533
0.1512933820596136
0.3480373337859337
0.39613916597134124
0.3972834297274544
0.35627807735124273
0.17174044177928335
0.06873741456966329
0.04004237453668533
0.04799884945297505
0.06250327514217051
0.05333738353867073
-0.00924334535611742
-0.07300181053871808
-0.08178373899096981
-0.026120743308858753
0.060335787809560594
0.12686127547243692
0.15997621474723492
0.21259723090660473
0.8039392889295676
0.5500086189007432
0.08832501687924366
-0.010241409398777906
-0.06488010461310538
-0.09926932102432111
-0.10618270260097644
-0.08122345869799086
-0.02965282556076366
0.008283790996597665
0.014201909178108731
0.006078508480934736
-0.004666463528137426
-0.05644446771628722
-0.41605333216672813
-0.9706372555057918
-0.3934468510586062
0.0
