# vtk DataFile Version 2.0
Vessel Segment
ASCII
DATASET POLYDATA
POINTS 74 float
-4.182165405110396 15.44846902587228 -10.550961764851236
-4.710881985590406 14.521361617519059 -10.257131676252564
-5.293519328466395 13.548251017520567 -9.858114525256944
-5.905611857612382 12.583050193610966 -9.451741774753723
-6.519112354077363 11.657397983187057 -9.123488943049171
-7.091199985414834 10.797969998221703 -8.94922834516683
-7.571286839603942 10.02464561364708 -8.9733772399199
-7.919221008275451 9.348323047918154 -9.193502106686344
-8.118754820832635 8.762185673245801 -9.550921828849983
-8.17475997464095 8.234287778733021 -9.982392661936226
-8.107492644778985 7.706986297589646 -10.456818404050908
-7.923082225574343 7.136278921180697 -10.960904324699618
-7.601654651500885 6.531204376950854 -11.51239177268558
-7.163090325449812 5.943448725513445 -12.035305506842983
-6.65217502119489 5.375083476025832 -12.485706786010129
-6.1432289890442435 4.848915003993118 -12.834101767663935
-5.702009450074466 4.385159511920542 -13.044871774946019
-5.348087346449995 3.9761667424055998 -13.09214328384802
-5.096939547806533 3.604431361011902 -12.932172987978003
-4.9612243523487445 3.2661144670628026 -12.507172446993039
-4.965633046178659 2.969842106059392 -11.73804189071597
-5.160076528261169 2.790916600954255 -10.618374637637425
-5.518294524672566 2.7813124631952415 -9.38845380477945
-5.933107740402734 2.897470474550261 -8.231301441216656
-6.344224695888246 3.0894248462735563 -7.212100106877998
-6.718255305952692 3.315491106752715 -6.337233515704426
-7.033599122521362 3.5338964547839162 -5.575419336094733
-7.284492698505264 3.7154797163336366 -4.885387369429911
-7.460187760836207 3.835629549521378 -4.227645523623396
-7.5445832844478 3.866271435518375 -3.569258914311247
-7.524842974807282 3.7744885908748316 -2.9092809082746243
-7.403309199776885 3.541355295145216 -2.269277787951408
-7.188416909650908 3.1654967991467116 -1.6629079459143647
-6.88795282368864 2.647684356888849 -1.0945707287405586
-6.521118870164929 1.9919125944392366 -0.5743090750307822
-6.123448876948613 1.2184511388700525 -0.11783506194104226
-5.726594988653634 0.3587696022738078 0.25941599934459886
-5.348405467032274 -0.5476798449483593 0.5363946967545286
-4.985088617530103 -1.4640055098320381 0.7047811611787238
-4.613468036765421 -2.3643253441587873 0.7735574228846361
-4.210478722497631 -3.2299607279531717 0.7613830521459094
-3.7815332677008318 -4.0382070694377585 0.7166234463484007
-3.317879908631464 -4.780777581519158 0.7193005708860828
-2.809624342228205 -5.461139224987326 0.8099513386305477
-2.249576737443986 -6.084772130847703 1.0023065460042633
-1.6327298995818802 -6.65250239130586 1.3001340418555913
-0.9609200729252205 -7.152808638539771 1.7028192097327681
-0.2406141315552471 -7.566899362756838 2.20403531591435
0.5218614282668672 -7.87339907499877 2.789978948282498
1.321542015956374 -8.06223150656979 3.430227837741851
2.1564095497336826 -8.140397571973223 4.096141701925494
3.0235987453132473 -8.117796285727326 4.768179985417452
3.9169899980402136 -8.000895801770337 5.436023588210315
4.827837502607547 -7.792554262643041 6.0976587988108095
5.748700641716422 -7.497651804514866 6.755917725357658
6.676612581068031 -7.126722984955564 7.413576693342248
7.610826833787234 -6.697684087328796 8.070264060207837
8.551792639112358 -6.237210486415862 8.724870405729291
9.500804982646542 -5.774403237649483 9.377664771153563
10.453222825250828 -5.337283685509033 10.030001599608582
11.394111190185722 -4.953111934501645 10.683898026808121
12.30188637077401 -4.648007365313499 11.341911848671998
13.153995737732947 -4.4464611737339865 12.008618539507225
13.92477278754383 -4.369531842495576 12.68582514258157
14.587875660962954 -4.424241114799916 13.36458247265875
15.136053241511497 -4.600580383980166 14.033226115448727
15.578371284140118 -4.887012560976939 14.689920299298539
15.92419312555109 -5.275557107683021 15.338447339497227
16.182153508553395 -5.753062799443269 15.98158075470869
16.37045021071972 -6.2985791020984685 16.621428210413644
16.51396251575387 -6.897072880327137 17.2616471364264
16.63497947385291 -7.539698819092738 17.9070829521071
16.757826565450017 -8.213875286760972 18.560157799026907
16.903125252866072 -8.885522977161408 19.204312416062255
LINES 1 75
74 0 1 2 3 4 5 6 7 8 9 10 11 12 13 14 15 16 17 18 19 20 21 22 23 24 25 26 27 28 29 30 31 32 33 34 35 36 37 38 39 40 41 42 43 44 45 46 47 48 49 50 51 52 53 54 55 56 57 58 59 60 61 62 63 64 65 66 67 68 69 70 71 72 73
POINT_DATA 74
SCALARS Curvature float
LOOKUP_TABLE default
0.0
0.05541685316921018
0.019957130719899095
0.05193323755000015
0.12600016433050418
0.24144113493201708
0.3657516836167382
0.3997563113869961
0.35070180416260566
0.24012762729706208
0.16431295434078366
0.1377591279768346
0.14476678895048248
0.13136665589055344
0.12606950266036884
0.22121616877679817
0.48795315927028876
0.7743495705892726
0.6581717345336616
0.3047624971635623
0.1618659862598143
0.12859359063407572
0.09897603753979074
0.08673905544810183
0.07404439442204806
0.03763065861877366
0.06765303149077587
0.17097298066421823
0.2798822620399145
0.3438387225783483
0.3388761607361803
0.27787464970331854
0.20502077137837002
0.15072169941325222
0.11838597928025403
0.10442451697741596
0.10709820639078249
0.10864090849287461
0.10398832644928226
0.10043905020430717
0.0720425286152661
0.1038929167221191
0.1574444958426386
0.16943153110624037
0.15823448145677338
0.14617727453559842
0.13753474840111832
0.131644145525231
0.11793726854687117
0.09872449474307705
0.08388851167173803
0.0744460261603561
0.0680397285478294
0.06033268020253356
0.04939735407399187
0.03557818734385865
0.01841412252403394
0.00392846743048594
0.01642716891595616
0.03293759030656812
0.054387423017541965
0.08508694492511563
0.12689989485410524
0.17158559253749975
0.20072256656963108
0.20944462816711187
0.20084378073371964
0.17282951203252073
0.1259952056059927
0.07988933332616244
0.04560560272864244
0.018483487790117104
0.026912553270295906
0.0
SCALARS Torsion float
LOOKUP_TABLE default
0.0
0.0
0.9673109032903912
0.3415475366533808
0.149737157439884
0.1324174468508161
0.14397807036528462
0.2623064374690726
0.4336198820145524
0.5419627581182355
0.46101076132149904
-0.18082445196564817
0.1870667366874081
0.3948714361147349
0.4707516978156503
0.4428417718765589
0.16946938801990313
0.09810555532812325
-0.018401000518468713
-0.028937086424020767
-0.025322369040806356
0.01405777245557762
-0.11372804803451378
-0.10464145197972421
-0.2153439068247222
-0.9664709501501032
-0.7320958987503472
-0.1869230908043925
-0.08176587214939551
-0.1077173410049034
-0.11972619156437073
-0.07056202114140551
-0.05420789335013559
-0.12609037985766938
-0.19444325540530255
-0.13450226313942948
0.012800749687901847
0.15753947016052303
0.32150273846269434
0.3705015835178735
0.6410632542132682
0.6744843748203854
0.2021085325460153
0.050868960826110726
-0.00728531474615924
-0.03256801803672181
-0.053330290467104434
-0.08614447486645076
-0.15752083398989866
-0.17313727786529878
-0.1338233500336054
-0.052954344310836704
0.03162454969680403
0.0642544240221872
0.039469350855606995
-0.019349613816584843
-0.17184570599275661
-0.99866172017825
-0.19283623201261046
-0.10957933850370413
-0.08766088546433433
-0.06633009248669508
-0.05269995819253636
-0.044999633692308263
-0.015453999846200502
0.005618076114529967
-0.007487266738906806
-0.035881379225577874
-0.030973732620807944
0.08901769661185996
0.2576013633686788
0.9079955157903321
0.6252930042096286
0.0
