# vtk DataFile Version 2.0
Vessel Segment
ASCII
DATASET POLYDATA
POINTS 74 float
-7.954533658112993 15.06375973593001 -4.712075894780176
-8.246620045739656 14.178768474938353 -4.664124907466988
-8.620981931275375 13.275991188443113 -4.594058466769565
-9.0201615277608 12.41904316212082 -4.568193166470785
-9.404148506394545 11.618181750288333 -4.644674160690082
-9.737327021801693 10.863408669224203 -4.8780056304280555
-9.982482898935025 10.144005640083826 -5.301783471623655
-10.103956089394924 9.454470504140618 -5.910987662292404
-10.072943224881394 8.790947408844191 -6.674261362513694
-9.871055085585228 8.16236545895989 -7.5332809443865285
-9.514202431220431 7.575476829712397 -8.414942004460405
-9.03077613782356 7.038297312944352 -9.26705515453638
-8.448315585174027 6.552613938723111 -10.056185329177632
-7.7888295660859 6.0911468644528615 -10.776250906982309
-7.070245365768589 5.62365113498225 -11.417076318927084
-6.349329216237388 5.1410490912237625 -11.939230609460223
-5.700287994973758 4.652569264942918 -12.291613528960005
-5.1777044519229465 4.170344220504042 -12.435317563671271
-4.826306022083611 3.711904224983864 -12.338820216547411
-4.667000597980047 3.29307073725992 -11.972555320417202
-4.720994496816728 2.9522833411481777 -11.339126052038612
-4.958892346706678 2.7038829563427274 -10.560368631175228
-5.324243363967374 2.548522820978603 -9.700827524560722
-5.778401980756896 2.504392154371737 -8.82757285014869
-6.25879718295679 2.5576479175700118 -8.00993137643505
-6.710601834281115 2.6842804727636898 -7.2618266454732305
-7.09353382628908 2.8531737118690326 -6.564372361815873
-7.3799260195355485 3.0232427287984907 -5.900036161106124
-7.5518660927917995 3.14817525047446 -5.250309152085026
-7.600925289178325 3.1829947729252814 -4.603423471771669
-7.529671719987265 3.092199328623153 -3.9689703006111814
-7.354116181707013 2.8618302047708672 -3.367826407225149
-7.094908855710448 2.4949272161450353 -2.8129457929948525
-6.772901151450106 2.0012115861208875 -2.31016934580129
-6.411499303394389 1.4055730380926914 -1.8655919894908293
-6.0294957853929265 0.7399943599007537 -1.4753128764716619
-5.641125064795288 0.027361557379962667 -1.1355010963806402
-5.261436527666428 -0.7111452825761921 -0.85061411328265
-4.894204786495466 -1.460794126244127 -0.6162217005436418
-4.525692047247951 -2.218344203065492 -0.4199545171473549
-4.1336513391044845 -2.9802922555833202 -0.23955924659311184
-3.6913671802878913 -3.7399887639726943 -0.04182179589583781
-3.1850583380840933 -4.471501308664726 0.20211709783208015
-2.6044207118095577 -5.146852306649712 0.5146585584058874
-1.9395843264265387 -5.742271794629442 0.9052497583959014
-1.1851341466347707 -6.235204930393389 1.3680758557001922
-0.3431084113708821 -6.607888438120848 1.885464863324224
0.576903637758645 -6.853148068330766 2.4348796837908804
1.557131557324561 -6.976779764260012 2.995486006112309
2.5790220424891115 -6.989762709522738 3.553878722467418
3.621230167476393 -6.90026318785679 4.099231816722702
4.660163106985822 -6.71536476601143 4.6236363621196634
5.677348570843362 -6.441763912793836 5.128269341052164
6.661080650376073 -6.087660779309384 5.621577212801374
7.602704273325669 -5.669101333345923 6.114950762298889
8.498622543184867 -5.213226897781342 6.619572067028414
9.355623957918263 -4.754184423559894 7.142770252630453
10.189765903028167 -4.325801612979692 7.68608273204102
11.017490882445307 -3.9566824876163 8.246762263675828
11.848575474375187 -3.668076956015332 8.819529340832876
12.682392711047793 -3.475545419084031 9.397739699161676
13.508080038205177 -3.3943752712244017 9.974737482313397
14.30502976138519 -3.444588228426599 10.546809348693118
15.04285732505842 -3.650866024819281 11.114759870729891
15.686155272086292 -4.0361577680436165 11.682083286402806
16.20656077559544 -4.616678098617171 12.254220881137389
16.582091196798906 -5.399246808062998 12.83799246276337
16.79345653267984 -6.365926507930277 13.432847846997907
16.83925149957608 -7.456772258400872 14.026060802025263
16.752967802826845 -8.584928376564005 14.601212512774323
16.589191157577346 -9.67849382624344 15.15017804515397
16.3987204677841 -10.692929058006722 15.676661712406137
16.227088934016198 -11.591447392683426 16.1860648807257
16.103259427828682 -12.3487036835882 16.669214501093027
LINES 1 75
74 0 1 2 3 4 5 6 7 8 9 10 11 12 13 14 15 16 17 18 19 20 21 22 23 24 25 26 27 28 29 30 31 32 33 34 35 36 37 38 39 40 41 42 43 44 45 46 47 48 49 50 51 52 53 54 55 56 57 58 59 60 61 62 63 64 65 66 67 68 69 70 71 72 73
POINT_DATA 74
SCALARS Curvature float
LOOKUP_TABLE default
0.0
0.07449401007342776
0.0672558766970441
0.13432145030967987
0.22758174675979262
0.26946703844096215
0.2378512435021445
0.1854151193295288
0.15107504493114077
0.1238987492888232
0.11081579683529041
0.10580552310570787
0.09049316925197391
0.08612021324974733
0.10456281328924645
0.17989030334940678
0.366498723921202
0.6800716101333927
0.7440556772390311
0.4887034807558059
0.2649885562624411
0.15617042905474982
0.13782710538113624
0.12288782226714452
0.10737858014373429
0.10210205977606482
0.1392319587467834
0.2370942438302155
0.344201019831556
0.39431965778955813
0.3670479810408665
0.2926427301923243
0.21627204726683422
0.15771890159246424
0.11058780624938551
0.08491588877011823
0.07940962802646853
0.06955009446228612
0.05199552053836043
0.034534836780275795
0.056709808813089194
0.09375418215960962
0.12526540675086473
0.14034231292062674
0.14112830305281623
0.13270556400993044
0.1180788011001419
0.09947518025192775
0.0832591119917632
0.07418614606803538
0.07023557976731841
0.06821660515707406
0.06536514715455662
0.05830730904628584
0.04567875691173973
0.031403051250444555
0.03276361589977052
0.05268387335610178
0.0728802244949806
0.0892305071976968
0.10775009432728558
0.1371361792086655
0.1808496783284867
0.2248675106179623
0.23540597102200486
0.20309247585516302
0.15628345678929856
0.11606814188874225
0.08311183462563823
0.05430338116458918
0.03192796139065131
0.03858012709988586
0.07434330838328837
0.0
SCALARS Torsion float
LOOKUP_TABLE default
0.0
0.0
0.8002946547154567
0.3719770685373744
0.18489790843787146
0.14146905835551635
0.1623863921223652
0.18697675625417104
0.18967214781015795
0.1982159762752445
0.1268328287726404
0.10938506730500235
0.25354713731144335
0.329716701514761
0.3324058412312923
0.21820959841450777
0.0969982863612052
0.037774514582329055
-0.0381253915816836
-0.03628328711716808
0.1244392607838258
-0.10061989183143996
-0.08068995207985828
-0.12032744168171228
-0.4598994819485349
-0.7486229752849066
-0.675648846147494
-0.45883605185224313
-0.3074657754654961
-0.23308029069072878
-0.18235215531708954
-0.1384327649069059
-0.12747906450484284
-0.10273228078711018
-0.06409451168281129
-0.08726014870423983
-0.08933788872522881
0.008695054439390601
0.3698265593654673
0.8540329079287153
0.5020513613114117
0.18174015876199978
0.0652037201669962
-0.014232826877897772
-0.066329469204974
-0.08904968681523652
-0.08956916636112137
-0.07158584723119636
-0.037824516661136565
-0.008075700602607656
0.02572879818883709
0.08240705923368168
0.1287954898842092
0.19559360416818822
0.35194879164032433
0.666133023826704
0.6565735023179804
0.3073984800833389
0.14143897267519567
0.056179496327014855
-0.0026388270637886443
-0.05309045099121851
-0.08200942376765012
-0.08034715362165802
-0.06045513444943299
-0.05530759865212451
-0.06098230535845583
-0.07219558944037235
-0.10093870909809778
-0.1986584512460003
-0.6539196985704799
-0.7147984908261099
-0.333605484210085
0.0
