# vtk DataFile Version 2.0
Vessel Segment
ASCII
DATASET POLYDATA
POINTS 74 float
-4.76345640176715 16.51416429243732 -7.815010134369576
-5.260206475570264 15.600920474690056 -7.629383785076599
-5.814046177698038 14.657140833696088 -7.3724101485473215
-6.393482438394647 13.73443981674575 -7.1212480650128835
-6.969480137787284 12.861063179910618 -6.946635122964853
-7.505840079997665 12.057392985224942 -6.91289807197192
-7.963253096662176 11.333688379324133 -7.060637852484891
-8.312108325109955 10.68716071951118 -7.394786395309726
-8.538345823499204 10.103007171521066 -7.87734724881087
-8.639114109248274 9.553833746524264 -8.454082661664012
-8.622475047467061 9.002002046238285 -9.082560263417419
-8.488773567254807 8.424106289243085 -9.735269323440109
-8.22297774161286 7.829948552529491 -10.412127383167661
-7.836232469090109 7.251597961269461 -11.059831397096293
-7.358963754728356 6.688386429506256 -11.647778945441345
-6.843016432534434 6.151579177715059 -12.14898092986847
-6.344426316540738 5.652707635233596 -12.52838382955138
-5.8987097023547985 5.1889763010659005 -12.752534326766078
-5.53916150652261 4.754638712931224 -12.779950253770876
-5.289638530890181 4.35087696614607 -12.570490424030929
-5.173726141885945 3.986931488747975 -12.078599042820247
-5.216185834937171 3.713132786602065 -11.315874359556359
-5.3942592980562925 3.565130106582873 -10.41419705504675
-5.648793908541384 3.532127355519592 -9.477846196292047
-5.9419113863409585 3.592355040369055 -8.563091441535265
-6.2434735009725335 3.716767841387891 -7.697871861792699
-6.526368058768925 3.8687190699217466 -6.884423069812122
-6.77133138085692 4.012271785906245 -6.112806531737643
-6.95722954706016 4.109800617548073 -5.363761737110232
-7.064500219069155 4.122196846783244 -4.6191590578148745
-7.081073675329613 4.0127156357416505 -3.882809224781747
-7.009006042644251 3.761613235803045 -3.1735695367373937
-6.856672692315658 3.3668205192068563 -2.504752596925283
-6.632093008591887 2.831452400053668 -1.883986801569619
-6.349678589753607 2.1647612309149658 -1.322799637624249
-6.032819578224507 1.3896879318600757 -0.8334786137982461
-5.7023453235840345 0.5365234864818886 -0.4241835361302619
-5.370565646353323 -0.3613035813515863 -0.1026529571530546
-5.036157817320227 -1.274509129402421 0.13381890210320446
-4.68411535786356 -2.1832966702847187 0.2974071998166926
-4.297321380361439 -3.0747626574206457 0.40346923559844255
-3.87536457221065 -3.9341484419088246 0.48467242145761064
-3.409143850136931 -4.752275591218016 0.5947991795935597
-2.8881600216767707 -5.522949655196649 0.7645879492939988
-2.3047968014405327 -6.23826377901694 1.008050812311682
-1.6554337619314128 -6.886584697901944 1.3314322492641613
-0.9441664616988078 -7.450742800847848 1.7362077157395583
-0.18066880822406942 -7.914008922212933 2.2186092331338703
0.6251741479260274 -8.262638566126197 2.7681257723742485
1.4662950634921794 -8.492916835282113 3.3614247169521123
2.3392663455349973 -8.61308808547814 3.975734923590207
3.2405818316796657 -8.632799458058539 4.595568334702361
4.163876775862698 -8.558661325013642 5.213520351930437
5.09917697613228 -8.395235866208116 5.82940421766064
6.036103173654827 -8.149782699550098 6.447347920002105
6.968372400793946 -7.835382972339464 7.071588197261998
7.894263632084777 -7.471852913263466 7.7034749983984465
8.815764040230667 -7.085567305940198 8.34239550501914
9.736541585821673 -6.704680767922351 8.987406296707181
10.656341462021404 -6.355804224862553 9.637679531943206
11.566996269839432 -6.063880310690608 10.29253596550405
12.453558240859943 -5.852207909526208 10.951894479861716
13.29734551067197 -5.7420182344808115 11.617855069198473
14.074922529066761 -5.7506869399011045 12.291626688926524
14.760968555268816 -5.884775143161281 12.967046204248026
15.343139561637889 -6.1390876443821565 13.634217789809144
15.821847492780982 -6.506755595500561 14.288006611211253
16.200607903644773 -6.9806812102593145 14.926363693649511
16.486473335904922 -7.546709795911931 15.547199016438435
16.696351367615833 -8.18305337870439 16.14979442208776
16.852617476488888 -8.871948913609874 16.73733996202939
16.97515635091204 -9.599696833922177 17.316122855604753
17.08415874990263 -10.344515545869637 17.889593129840154
17.1951700210513 -11.063364648167298 18.44188826773726
LINES 1 75
74 0 1 2 3 4 5 6 7 8 9 10 11 12 13 14 15 16 17 18 19 20 21 22 23 24 25 26 27 28 29 30 31 32 33 34 35 36 37 38 39 40 41 42 43 44 45 46 47 48 49 50 51 52 53 54 55 56 57 58 59 60 61 62 63 64 65 66 67 68 69 70 71 72 73
POINT_DATA 74
SCALARS Curvature float
LOOKUP_TABLE default
0.0
0.05227882763352144
0.026567242444231764
0.06443844381038315
0.1466998207820534
0.25764664367359663
0.33493986550690086
0.31247690146034224
0.24080945581843885
0.17110578351221092
0.1409733556323337
0.133665625487276
0.13621646656140374
0.12234518403699535
0.11026200918270225
0.13928588670476297
0.2670148971355524
0.5532093169544534
0.7506558859326468
0.5884615478283123
0.33465847041893393
0.2089402127938295
0.1406602659430679
0.11088801886129106
0.08591172900956712
0.047930744360795995
0.03475721384917218
0.108983868913795
0.19991959419320585
0.26738151669121946
0.2835855871445343
0.25150321535040954
0.20260592297677868
0.15950331433518827
0.1264657244947813
0.10505847213083903
0.09555921020405227
0.08596349224412962
0.07610627418878277
0.0719870247942609
0.05568105353603
0.07356868435012862
0.104557633058898
0.12035375465105141
0.12677494215155777
0.12990055206319745
0.1295819708739999
0.1262374343307141
0.11475629330984471
0.09820794934329073
0.08465826499044243
0.07528416467479263
0.06818331625959506
0.06023748144861225
0.049270831276946245
0.03459576746270652
0.01630201058803116
0.005754231765213617
0.022731296554018714
0.04067905239822828
0.061393833932863434
0.08793745664078545
0.12125924132012367
0.1556393948127512
0.17992614352012182
0.1907704752995387
0.18687917590024244
0.16474752717179983
0.12645863846635183
0.08711109302483276
0.05459001475149095
0.023096052850359997
0.007363794151397662
0.0
SCALARS Torsion float
LOOKUP_TABLE default
0.0
0.0
0.9272941084158212
0.36369658724237475
0.15883201128974855
0.12720264618812757
0.13048113595020638
0.20076664157066815
0.35509982709642357
0.47424611530945443
0.3513415765691675
-0.0609903238124771
0.09025718260489934
0.23772388457161409
0.2929224735904341
0.42181600593647445
0.27875654188916227
0.16541353239250217
0.04643401650448821
-0.0010725794689408485
-0.04087399159307177
-0.03160014605341512
-0.1445160778333307
-0.09776952597014618
-0.15024540038186288
-0.6602981392353867
-0.9558732283893122
-0.2826533944406505
-0.1181260425027432
-0.10895760721354435
-0.10856878739889408
-0.07334231943940395
-0.04941755686957494
-0.07800726519607988
-0.11400871756318752
-0.08865950871480771
-0.005518554872181225
0.12676459446098234
0.3143714054302512
0.3694830955347516
0.5839685447174061
0.5856003794426256
0.17040361523201558
0.03197088960684891
-0.005994848669429086
-0.005852400776589409
-0.007144862148940742
-0.034958717569614634
-0.10909794725140515
-0.13629920943368332
-0.10598465120662537
-0.033263715565263086
0.050380924021916317
0.10046457196976617
0.1066333976948233
0.1035389467971037
0.27345086709375105
0.9718278085453202
0.11747549589183381
-0.007132589221072516
-0.043935312243866334
-0.05836606863328954
-0.06274346087681579
-0.05389527624587891
-0.019625806195941377
0.004639149843951758
0.0019375872549666218
-0.00794632734432679
0.005048888325870424
0.05683796853749853
0.0673036149704207
0.20547696110743174
0.9949109415335793
0.0
