# vtk DataFile Version 2.0
Vessel Segment
ASCII
DATASET POLYDATA
POINTS 74 float
-4.305938697978199 15.688980121001041 -4.74660318984213
-4.78070001709156 14.780368745382756 -4.638983881480931
-5.319909688789768 13.916955352362534 -4.420132472886424
-5.900685985868339 13.09626227914465 -4.159796747963988
-6.494414204084165 12.321825461429166 -3.934424601831315
-7.065042390216866 11.601779169515844 -3.826628085411996
-7.571880939369232 10.945440381682467 -3.8989335843755297
-7.99611595929508 10.343121515735323 -4.168316766430871
-8.334023015502627 9.76831373082879 -4.639779247849469
-8.56703702544053 9.204173072636353 -5.288972314598956
-8.676885316891457 8.641096090280465 -6.044964051363932
-8.651242331764594 8.077278955897368 -6.838273001874562
-8.464660661656247 7.527576116144366 -7.658386279127811
-8.134449999812963 7.024105479723396 -8.435990218222067
-7.701575316661698 6.549762988360321 -9.163290931822852
-7.191443948675884 6.090207146531335 -9.845263864671322
-6.626579220072365 5.625805091450049 -10.481289275373843
-6.040801142787116 5.142354728092855 -11.040250698230507
-5.477938471409051 4.636325812545431 -11.46452602521557
-4.992873726531286 4.128112355016799 -11.691785034870062
-4.631689233666371 3.645015404345288 -11.682543252107832
-4.423322600021214 3.2211583129408816 -11.440048858377649
-4.381133067033351 2.8965722973129715 -10.97819858972392
-4.508436421798955 2.7118172225775288 -10.335671350514387
-4.780064718015365 2.6842166170138206 -9.567487608283521
-5.151534352908494 2.809588491864583 -8.735599792667031
-5.565771391532452 3.053912797865257 -7.886443488221652
-5.974233652103915 3.37324569876865 -7.030430859534188
-6.3233396066265115 3.708389367518853 -6.1711319649019
-6.571716558950181 3.990110164683202 -5.319689772139823
-6.703297891802382 4.1663723422116705 -4.4908354606894045
-6.718323362045951 4.2128648613158175 -3.695957200264944
-6.622530387785784 4.118569105369252 -2.934325838740637
-6.425683860766376 3.865163646437202 -2.218116630499671
-6.15125117887607 3.449355795321783 -1.5831889593028037
-5.829520963730946 2.8933712774940434 -1.0583174993118178
-5.487596394171279 2.2292298834046447 -0.6550429993984846
-5.148846654654747 1.4899728991940464 -0.3700116545504926
-4.826957665528952 0.7012378357430694 -0.17894064716031238
-4.520483112604341 -0.12745997003722792 -0.04977025037164419
-4.216840911664802 -0.9971345995987876 0.05091494034760739
-3.8916186833462345 -1.9141081026997087 0.1535754094765211
-3.5283393718613194 -2.860345811626802 0.27855491561914775
-3.1043464804347165 -3.803888510655468 0.45015952940618226
-2.593947261478561 -4.703810675830429 0.6858311298571047
-1.9810697702096633 -5.516714931369594 0.9938062456189982
-1.2652942733846557 -6.208915566087421 1.3737270242094397
-0.4595042986487665 -6.765236387123519 1.8143567687521838
0.41691803844512526 -7.189819695360764 2.2985284795317256
1.3445488263948115 -7.491445135560254 2.811293839387843
2.3000506271044805 -7.674888223309121 3.3360451544024547
3.2612707127386096 -7.7447944258855435 3.8591383026065076
4.212836098217206 -7.7084412863056615 4.37489297073715
5.145297954452142 -7.577619135041658 4.885107583599455
6.054839883080637 -7.37052196981012 5.395868850433798
6.943410622668035 -7.1098857019472 5.9138983109670376
7.815715053393023 -6.820271636367199 6.444266890702142
8.674861029840333 -6.5269305043555015 6.988984315521974
9.52108659785272 -6.2561398759789455 7.547577804728996
10.353461734571344 -6.035250099667405 8.118242744739609
11.171542818763239 -5.890678769396566 8.698391678532142
11.97613385161846 -5.846116810724736 9.28668068779558
12.767245222322574 -5.923203565936815 9.885497113327652
13.53798850165186 -6.141678246414589 10.498657910923821
14.26833913725464 -6.515497037483279 11.12884647602035
14.920708073933783 -7.052059606475262 11.774216513784923
15.445073697611369 -7.749105398843482 12.423128921997012
15.798460528193566 -8.588388834155056 13.054754013893646
15.964461442085295 -9.530513430821433 13.64406296758056
15.961818483748898 -10.527523440586124 14.170185869524508
15.834211856815235 -11.545133050316863 14.623063955550414
15.639091832156272 -12.560090052095855 14.999691285911123
15.444012961896679 -13.552697933883538 15.2976868544976
15.307506598741021 -14.503700193391937 15.50870749022102
LINES 1 75
74 0 1 2 3 4 5 6 7 8 9 10 11 12 13 14 15 16 17 18 19 20 21 22 23 24 25 26 27 28 29 30 31 32 33 34 35 36 37 38 39 40 41 42 43 44 45 46 47 48 49 50 51 52 53 54 55 56 57 58 59 60 61 62 63 64 65 66 67 68 69 70 71 72 73
POINT_DATA 74
SCALARS Curvature float
LOOKUP_TABLE default
0.0
0.12379203374366876
0.06722617949586669
0.047116800323713084
0.12927721738002781
0.2642457984552873
0.3425152460665052
0.30860091764934383
0.2269146196632917
0.1619345996180414
0.14277149091856395
0.15497722509480255
0.16040994347523285
0.12450908782374848
0.09661845775833074
0.07598805758745225
0.08840771075272327
0.15918726930073993
0.32010961368784835
0.6002075874914742
0.7663237837493597
0.6891830450913538
0.4631748373388675
0.2755394358005195
0.17859334727190132
0.11599059093401838
0.07015595984553416
0.06178957870212446
0.1179821050782371
0.19678754897533526
0.2651124445572979
0.29555177210879063
0.30001469107120066
0.2865641446642832
0.2549399953617332
0.21872976679118686
0.1837956237204762
0.13820025050884324
0.08971263956068165
0.042171164108323174
0.005960393691919398
0.029085604387261856
0.06410782161641844
0.10138414667550447
0.13360396509706887
0.15148642484936237
0.14853122475883948
0.12921082173967902
0.11015324681700661
0.0991738200041968
0.09423671238508906
0.09065910689659462
0.0837068582969351
0.07019148793668578
0.05142791361425946
0.03146243386776008
0.01756693627614672
0.02550721399980608
0.0477185066116712
0.07422849971316128
0.10081012345811048
0.1233031757049054
0.1382245468414407
0.14553301751519654
0.15433078857510155
0.16819378864489662
0.17630335874645883
0.16855914197639119
0.14629627173495904
0.11584748969415412
0.08288045165044004
0.06228594504373606
0.09351928970507241
0.0
SCALARS Torsion float
LOOKUP_TABLE default
0.0
0.0
0.48921994771007044
0.8961931644432425
0.31941752440422533
0.1428323265174802
0.10329107731468219
0.10460380896519264
0.1928975627998784
0.34573702606757944
0.31560095778098846
-0.010313569838103664
0.07502891451435174
0.1695435218275485
0.14745769552089735
0.35032282102596984
0.4081257406381494
0.2008372949909397
0.07851739197341019
0.039137364671355764
0.022868118448366635
-0.05034672380809647
-0.04704514201785348
-0.08016442115305566
-0.11674184229203884
-0.22862902934383644
-0.5421602426732683
-0.7782416072244459
-0.39797443783154846
-0.21442097621214776
-0.11767890675088635
-0.08041174733722463
-0.11762311858501442
-0.12455763283373511
-0.09912051765311193
-0.08128784160741992
-0.09462627016219576
-0.13463603952665387
-0.13542693784100415
-0.12613693186725258
0.9999941865656322
0.17334612859221155
0.020836321888641568
-0.034222232537950883
-0.030705922310424523
-0.015061787234291267
-0.021181069782150518
-0.031697420219158993
-0.024705435829141052
-0.0263882041443993
-0.013049632568672238
0.019175434682141147
0.06386369539273407
0.11435358882200353
0.1830476605889513
0.384211593172774
0.827671437994302
0.5268285450997314
0.18936842243585428
0.09328348094427875
0.0493129847795712
0.008270601067621557
-0.026647276895978587
-0.06252297714397757
-0.08350185470709859
-0.06836422235102045
-0.039211653576258144
-0.015036866566886319
0.021648820619176855
0.0984170501890071
0.2906401217971506
0.6894539683823779
0.4556880173641023
0.0
