# vtk DataFile Version 2.0
Vessel Segment
ASCII
DATASET POLYDATA
POINTS 74 float
-5.2749813246488575 18.757647658366345 -5.8416833923741045
-5.806866544161243 17.918462041317852 -5.674142935945616
-6.398465441553977 17.018721348389214 -5.470303746951387
-7.0109088106815705 16.119192555703464 -5.279960698495422
-7.617002728560677 15.25264618240318 -5.150802210094036
-8.19066554417475 14.439934434790043 -5.130240952222924
-8.702801149541672 13.695786773750374 -5.253332537504584
-9.127673297885355 13.027334741831252 -5.522461927467428
-9.454180285064403 12.431281547065552 -5.899813223998035
-9.685654152282055 11.893434765577668 -6.350002111085087
-9.827685344813714 11.379881571325392 -6.866782029493649
-9.86958070117483 10.865575017754923 -7.43565997400551
-9.786341241845504 10.350578523088497 -8.054429749052495
-9.568774613169408 9.852229610503617 -8.67029249059959
-9.211639017092123 9.34837086284204 -9.273234910682843
-8.737331801315772 8.828972433368174 -9.856866137304747
-8.198770861174587 8.29171165998661 -10.377243075615333
-7.639672278832002 7.730277895733092 -10.789206993655492
-7.109313562050281 7.140398073987134 -11.040559023070438
-6.663094463275217 6.5402846973030915 -11.083789283915253
-6.339443309275283 5.960620250954667 -10.89353363058868
-6.163385373888472 5.451463613174319 -10.49509442295018
-6.111684519739263 5.035276155259976 -9.961602435463506
-6.146802873037314 4.71631453089979 -9.338704623882574
-6.2407301904283825 4.496928873848115 -8.660413107870655
-6.369161743281444 4.368320584209272 -7.958644576203065
-6.508189342428084 4.309021422327776 -7.2580620965646405
-6.635357479631806 4.287119560232584 -6.570184540355581
-6.728215482650694 4.261198776597456 -5.891790812082938
-6.769944555850398 4.186834428492488 -5.219646402991464
-6.751109544355224 4.025986282658107 -4.55828099229151
-6.670839167277945 3.754109635191699 -3.9167333852796586
-6.531654449033233 3.357974491773932 -3.303156425999997
-6.334169330127618 2.828914397019082 -2.7264084439418266
-6.083709623031608 2.16744950298716 -2.201551301042505
-5.794787393297798 1.391757637643775 -1.739843980391237
-5.484971827196937 0.529471330188103 -1.3406760361996877
-5.167242805548864 -0.3865242596801704 -1.0004062432725236
-4.842289357638235 -1.3285924461103282 -0.7120544649577658
-4.500755446523742 -2.282227080607377 -0.4655352717322516
-4.13135620276526 -3.241340443738802 -0.25342148956376986
-3.729908925529608 -4.19646170127938 -0.06007330092447174
-3.282417357758367 -5.133752977526082 0.1456897783931253
-2.7715949710641223 -6.033288027210172 0.38429592980980687
-2.186597838913989 -6.8709155722637405 0.6681077204245452
-1.5250565126173996 -7.624974954249792 1.005337971017925
-0.792329551838938 -8.278605865406307 1.400541530122348
0.002861122088135289 -8.82232722021283 1.8530973873121053
0.8525306732975741 -9.250743522200978 2.3536658379552358
1.7494892434638785 -9.56449505500491 2.8811210526988154
2.686621172953437 -9.770729641343678 3.414798189632651
3.6561703660390426 -9.877724063476549 3.9419488099060627
4.649428465072473 -9.892822534714213 4.459446617496148
5.654584383473312 -9.823167377743836 4.9721157420482704
6.658069098697441 -9.67773824919893 5.489326935945742
7.649850869038714 -9.469551199945439 6.020917425048925
8.625342628155714 -9.21627564280388 6.574044678804134
9.583884218026174 -8.939505177309304 7.151949684169636
10.52674774992817 -8.662318722781034 7.754140652885963
11.454686345268591 -8.407433725364367 8.377170528926944
12.365617876356078 -8.197815998459518 9.015938576908848
13.253530766067417 -8.05676292083085 9.665240926711315
14.1079559600972 -8.005711487238651 10.321456581835523
14.913991488039898 -8.060410675727606 10.982930613716452
15.654676781877852 -8.228301361174626 11.647723241383467
16.31615222265911 -8.511166053833593 12.31227745256448
16.88837035637095 -8.909470815039485 12.972353343489695
17.36542471106304 -9.420400331688448 13.622529825350068
17.749517435375203 -10.033824251321006 14.256191616715851
18.05287465016062 -10.733604959654594 14.867680133926248
18.290152327599323 -11.505268424908222 15.45402018008699
18.470620959878516 -12.336090445005834 16.0142978117414
18.602443738606986 -13.201901350544343 16.54378264290835
18.693512728373143 -14.059239332946978 17.022485968147407
LINES 1 75
74 0 1 2 3 4 5 6 7 8 9 10 11 12 13 14 15 16 17 18 19 20 21 22 23 24 25 26 27 28 29 30 31 32 33 34 35 36 37 38 39 40 41 42 43 44 45 46 47 48 49 50 51 52 53 54 55 56 57 58 59 60 61 62 63 64 65 66 67 68 69 70 71 72 73
POINT_DATA 74
SCALARS Curvature float
LOOKUP_TABLE default
0.0
0.021748211830886717
0.018943129153443518
0.051620815623133934
0.1080351077902442
0.18449077006688255
0.24767545047580702
0.2542107660059181
0.234244615618826
0.2030391405901302
0.18066357468535943
0.1878166714005251
0.19505639366391053
0.1731508652784913
0.12523002959098756
0.10682899804356749
0.13804908999727922
0.22555912625356753
0.3703088099074742
0.5036038560158355
0.5266492446366627
0.41238885116212637
0.30197003799153027
0.23675142641114905
0.18636632287223168
0.1353577287218665
0.0775989554246008
0.07021602212229135
0.15258558759630245
0.2236844278055035
0.24760927191913532
0.23001885165966224
0.19628551484942613
0.16184878420101034
0.12611156446650096
0.09303893613947513
0.06991363434669524
0.05328561120664116
0.04235133823813985
0.039851710987805246
0.0332930271577586
0.04505671302520898
0.07130710480877064
0.09451338852661696
0.11130025586259913
0.12060440704347487
0.12124179386036697
0.11613760706426025
0.10584095297238937
0.09400473997407624
0.08393068793172037
0.07490808797398152
0.06612556101014094
0.0579991538681159
0.04955910698740044
0.03944151633880553
0.028512806508547345
0.021758549890971642
0.025479192971402827
0.03829895840194383
0.056864431893322076
0.07938077839580324
0.10316582909989237
0.12492690867461315
0.1430006519380571
0.1568131005447411
0.16061597139918318
0.14832198918887554
0.12293810131820829
0.09777488047081735
0.07958619331884384
0.06384794017527992
0.05655373127461284
0.0
SCALARS Torsion float
LOOKUP_TABLE default
0.0
0.0
0.7708009759926464
0.20917300760258584
0.10496090177145845
0.08908942103411409
0.10742926218786283
0.17147817018468806
0.20886079191790263
0.2607010395032624
0.3509315971598987
0.07559825274907495
0.19419144651616332
0.20269110733139342
0.16593583628557462
0.46394393167320314
0.3377778314578982
0.20749248182224728
0.10086937535482605
0.020474171095303306
0.005298795624493344
-0.035779624641100544
-0.18407041173328123
-0.19103002857183252
-0.17668243911189693
-0.287305741950648
-0.7719500921756179
-0.9319986141174035
-0.3895225490994796
-0.19369671096555593
-0.1319188412570642
-0.08604225586916193
-0.04149625586990225
-0.044961953987195755
-0.0673497897796727
-0.09128513336677432
-0.0466250629660501
0.13268435188909067
0.328350082199548
0.31064966938717986
0.43341319165769737
0.4627255147140296
0.11695059080091169
0.03790320023461104
0.03187555332166582
0.034894920582389105
0.02159572120937639
-0.027616226311989324
-0.1066481896829991
-0.12439044469101851
-0.08076081915052438
-0.003068942918837303
0.09214495599912817
0.17364282514683954
0.21513548754969783
0.2619170343940448
0.4032555407181208
0.589919852349101
0.45468982024196597
0.22378150438099337
0.09747025779423701
0.02488897445463807
-0.023164437616756
-0.044429341550321015
-0.03366206707803508
-0.016670154981005596
-0.0034438277492866865
0.01528973366450565
0.046130121501305126
0.06627902699271013
0.030429406697047495
0.013943231667048719
0.11739771612278639
0.0
