# vtk DataFile Version 2.0
Vessel Segment
ASCII
DATASET POLYDATA
POINTS 74 float
-4.910129231316954 16.968439540449122 -5.329769598158324
-5.390485950575871 16.187663832381 -5.162253889265371
-5.9376450353813786 15.358202579941388 -4.925447442930413
-6.515234846097271 14.537745596155998 -4.685333870159789
-7.095655358699075 13.763191867551535 -4.509599419657347
-7.651620593619972 13.059690981635928 -4.465888726641417
-8.15660927558738 12.435723500897998 -4.605591546156024
-8.592534644187193 11.878225457441228 -4.9520235821646015
-8.948617637503169 11.354663520703076 -5.491307466358425
-9.208493498625437 10.821357086001287 -6.178838267656214
-9.355718939969837 10.253320864199061 -6.942556852953458
-9.374558911739166 9.649490006501377 -7.728918960734902
-9.24035676404204 9.027589925844012 -8.545759133038226
-8.953362044746092 8.425301435156324 -9.355863442134371
-8.537479072684341 7.838163965985048 -10.149667832736002
-8.00485730311906 7.259874976410089 -10.92371714567997
-7.368658052131644 6.6741839719628056 -11.671164286804151
-6.663028971823497 6.066188146485026 -12.342735824585459
-5.952242246392432 5.432904919835572 -12.852158070599076
-5.320863255919161 4.792189903439635 -13.107481514794232
-4.844208571605398 4.191969370398816 -13.035976387768333
-4.562756658064238 3.696506994633648 -12.64425942938329
-4.4588936712822775 3.328521150596064 -12.006416137570637
-4.50159913628171 3.093495304822586 -11.182288279185517
-4.663274072636795 2.994286902474959 -10.240396785954923
-4.906877913080458 3.0161595674166795 -9.24914686171331
-5.192195808310146 3.129350843587941 -8.257030045162274
-5.4819682114382 3.292488627790579 -7.290045993135808
-5.739629589682599 3.452791670484461 -6.3516543503968546
-5.936571529829726 3.556193913165213 -5.441364542860487
-6.057806979668637 3.5602213743590054 -4.561917195779486
-6.102520359174134 3.4386862048618343 -3.7168095724947636
-6.07587380660455 3.1774271002492744 -2.9089736511619373
-5.980719725440348 2.7667993054361903 -2.143017937231705
-5.823542827726432 2.205311527004214 -1.4349655323965531
-5.620808835722874 1.517012595165021 -0.8054478211462245
-5.388692011506572 0.7408617146268311 -0.2628905325647425
-5.135297456475044 -0.08916668104058523 0.1972603733110543
-4.85841114755442 -0.9481153669808094 0.585670044268826
-4.54750741825196 -1.8179688380501635 0.9085031356605542
-4.193549813018909 -2.6874730826340647 1.1613881648897173
-3.802690679776323 -3.541272105797351 1.3543789994046704
-3.3610464164478913 -4.3714248708334535 1.5280313246737578
-2.851761736687843 -5.166181584761606 1.7090410329869636
-2.265704913418786 -5.9069901837642735 1.9168017230008605
-1.603378804468582 -6.573641275293545 2.1674043563298704
-0.8752820017175709 -7.150455512056359 2.4725852219655597
-0.09434377855545492 -7.629746843948323 2.838745485724701
0.7285431719125988 -8.00317370819103 3.2613723301608553
1.5824937544867947 -8.26655110557195 3.71771414200099
2.457432949911868 -8.424282326100892 4.185037039877594
3.3458266621893213 -8.482861420528941 4.650287713702461
4.244717721357388 -8.44964113584025 5.110915516786519
5.152656072427275 -8.333792064419908 5.572547849219613
6.065317336895145 -8.149187759865931 6.044996464978337
6.97616795708547 -7.915115372130173 6.537247922339836
7.879149413834036 -7.654178182304725 7.053906010139793
8.770175770764453 -7.390856671509881 7.594426788983442
9.646716168863602 -7.148927702404689 8.15344140379714
10.505240715246753 -6.948820697579378 8.72185508276733
11.339187321149966 -6.806980794967813 9.289377028687548
12.139375104780067 -6.737230723626709 9.84829850703958
12.894479396738387 -6.752495004301852 10.396394622482061
13.591406996728228 -6.863574584818746 10.936030416558483
14.21827438632622 -7.075706057526514 11.470407352141894
14.769431818308327 -7.3890815424465 12.001120658487386
15.244262070872919 -7.801690156350412 12.52799701125114
15.645342705709137 -8.308381664587463 13.048315922204125
15.979398456204205 -8.898861629298601 13.557401997224817
16.254869694703583 -9.558878327486706 14.050831203538735
16.475978330822542 -10.274198361363466 14.527328476742758
16.642003366647955 -11.03164522483348 14.992560848066043
16.752048195276625 -11.81221713174698 15.455739930524384
16.804569969345994 -12.58143055108729 15.91331582719523
LINES 1 75
74 0 1 2 3 4 5 6 7 8 9 10 11 12 13 14 15 16 17 18 19 20 21 22 23 24 25 26 27 28 29 30 31 32 33 34 35 36 37 38 39 40 41 42 43 44 45 46 47 48 49 50 51 52 53 54 55 56 57 58 59 60 61 62 63 64 65 66 67 68 69 70 71 72 73
POINT_DATA 74
SCALARS Curvature float
LOOKUP_TABLE default
0.0
0.054864831955088345
0.028250770576053612
0.066442072134781
0.1608889743219339
0.28843109919701754
0.35129172882010157
0.28095756093306157
0.18244021065931273
0.13403491366675357
0.1313792020945526
0.13649912464058875
0.1372262007594849
0.11053132224618183
0.09218395488644687
0.07466340789713116
0.07927683624027987
0.13091614061402923
0.2665224727680467
0.5311918944365992
0.6709191795145747
0.5019877051891695
0.2986210080735916
0.19057232672634233
0.13112749663126178
0.09052828516280781
0.05176340588914755
0.024252757773458297
0.0847657064416713
0.15339134585441308
0.20192093780992848
0.21944559841461936
0.21204055312365236
0.19133158327230368
0.1609732719065031
0.12950516179568214
0.10322920593478108
0.08346870942992778
0.0778208988334765
0.08662294551715861
0.07736169939300362
0.0647213819854167
0.08238906586714917
0.10327810992723671
0.11997735838397149
0.12828018338497857
0.12810366792557307
0.12563011651525222
0.11717143786309192
0.10670618427901231
0.09872213159936069
0.08978505386194167
0.07711524293528065
0.060891614656692336
0.0443362282414246
0.03063972332970484
0.0230717626538949
0.027183074901141427
0.03908637820935394
0.054243686972046005
0.0736561769241883
0.10016193232413116
0.13288727131720163
0.1635840717893843
0.18174990309556807
0.18384542306949558
0.17034478840240677
0.14478825742327214
0.11696413105335457
0.09655043157941216
0.08239476779108752
0.07095113774590824
0.07041277090794532
0.0
SCALARS Torsion float
LOOKUP_TABLE default
0.0
0.0
0.9153624248659281
0.4017667717225101
0.15388585239556565
0.11252013779352737
0.11644680379865577
0.19090691031859616
0.4030726961018846
0.48499478226777715
0.24018263757370006
-0.11847427587007398
-0.04337135630023084
0.06497037520351387
0.060967489047271714
0.17405844904740037
0.32529233120931655
0.23267903067375445
0.12600118197441718
0.022581834856107458
-0.030174293143162185
-0.045008263629558745
-0.07841072001044516
-0.06158013058196697
-0.07553523610813148
-0.13276299870044747
-0.3482605421368206
-0.9808977851141567
-0.257554634731085
-0.11849936155775292
-0.09836088677590106
-0.08044175141130795
-0.04749987516282607
-0.05189109897133541
-0.06250867135799261
-0.032616576607265656
0.03162398189074426
0.1597582960697384
0.2501132067904715
0.12273939622519059
0.11767792504618245
0.64045235141284
0.32448617300948956
0.1620805653536179
0.11693578261243646
0.10438327429931908
0.08285655279049566
0.0008587258896659428
-0.12256225091114893
-0.1402300704494293
-0.08569968117551291
-0.017394415177988967
0.06363056755605861
0.173645820989384
0.31002972738427875
0.48468422121459426
0.662892562498811
0.5119959851674797
0.2760896745972758
0.1402836249524962
0.04761474418444951
-0.02570426325127581
-0.06672671958826294
-0.07028753484528505
-0.0397830112775281
-0.009172791527815551
0.016056844563417765
0.04225404349922496
0.04744724196237182
-0.019164340911010783
-0.16197610998877265
-0.30374315148205533
-0.27925811794147676
0.0
