# vtk DataFile Version 2.0
Vessel Segment
ASCII
DATASET POLYDATA
POINTS 74 float
-4.903128455511269 16.459139280560628 -5.439958814632993
-5.480512981992229 15.626891254962656 -5.34163590273663
-6.079674356291247 14.793781221256035 -5.140190708873705
-6.6947716263647195 13.988139931418191 -4.88503351721815
-7.320080692716472 13.22917044059132 -4.645901926384444
-7.938326179055874 12.534097484878615 -4.509152576680142
-8.515616628190092 11.913328968521178 -4.5572966225666285
-9.023494222697465 11.360668538614863 -4.828460855979824
-9.453551973500957 10.847834196498843 -5.307811952537597
-9.801189535755382 10.337290076353021 -5.938950897925784
-10.05994081524102 9.794402340976562 -6.643116610908619
-10.213450889650458 9.209653760248163 -7.347984160677443
-10.221481376244133 8.610905954242199 -8.04303128734444
-10.064500636352244 8.048418619269924 -8.68303786390379
-9.744690506079019 7.513004879828849 -9.29212834676022
-9.275084840658403 6.997985909927549 -9.904304146875901
-8.69006599309099 6.493015941434354 -10.527065866176677
-8.033318551938613 5.975443443961199 -11.141674913232874
-7.367618255462656 5.426925487981873 -11.689601954086726
-6.762415915063439 4.858135002211194 -12.0868171701057
-6.2781187685277695 4.312560016659018 -12.265005740177426
-5.914430254717037 3.826044888274809 -12.237877459984704
-5.638005138057399 3.4061818066333625 -11.994960535563102
-5.4407453943255915 3.0639598827867083 -11.51680833911851
-5.330977085510156 2.794325554028757 -10.804255151260287
-5.3283281564516525 2.5937879964076225 -9.90906546248338
-5.439739485644522 2.469609832676117 -8.934287718217881
-5.630352225358716 2.4002877929051047 -8.009448083967769
-5.855233297899917 2.3485081130415875 -7.17732630310332
-6.0793302944305605 2.2904038230682797 -6.427011828616243
-6.267778049139191 2.2050844703932513 -5.724520669894265
-6.386475419601659 2.066682198778011 -5.0456417264424145
-6.420527587947686 1.8541947230492486 -4.383620181688599
-6.373076570507585 1.550989980564502 -3.7441700238966558
-6.258059898277545 1.1425544007913213 -3.1371611783330344
-6.0931427507828015 0.6162215815466989 -2.567902782695682
-5.895017109011913 -0.028889646717278426 -2.0338433649423915
-5.673589521990964 -0.7761621942689153 -1.5232448556100173
-5.426924460825799 -1.5978053543097908 -1.0205999028479937
-5.144576116543914 -2.46358667396559 -0.5096007027783417
-4.813670445583311 -3.3428298591735977 0.016895631697011994
-4.423896650731009 -4.203765009561762 0.5589273256916659
-3.9652777969501485 -5.020900504737806 1.1110610564923282
-3.4287584216123457 -5.780823018002038 1.6600838617905644
-2.810003138478365 -6.479428399409137 2.1914598728040167
-2.1118156168448494 -7.113336105570109 2.6977222282872955
-1.3458586818242124 -7.673646413131783 3.177390725986848
-0.5286865294138012 -8.149039018124085 3.6347869980414846
0.3258770214389887 -8.52819613220111 4.0776865141144745
1.2101529870969743 -8.804917612751215 4.50949698548794
2.123389544219444 -8.982745435208221 4.931190197967739
3.0679069261583094 -9.06847056208346 5.345295493614387
4.040839455060089 -9.065159992563306 5.755173865977106
5.026405160495674 -8.972610139430081 6.164700561281432
6.000990379934684 -8.793450321056486 6.578353692007466
6.948410055990055 -8.537508522160126 7.000651804889225
7.867945075601688 -8.219829023956613 7.434541749147278
8.770535275180126 -7.857021998709637 7.879028855607236
9.673536010277092 -7.46426582552314 8.330295652168452
10.599337542606042 -7.052375245089067 8.78694316605285
11.567853547600984 -6.631574379989214 9.253899325953174
12.583525622668516 -6.218910135564944 9.741183747755223
13.634006026529168 -5.838429404695659 10.259986108946807
14.698199281890801 -5.5185129753210385 10.819205140900737
15.749939874182726 -5.2897048531764845 11.421571985752195
16.755602802682887 -5.182599353802972 12.061991498198939
17.671853230222002 -5.221207109000609 12.72699338832427
18.457565360933376 -5.4136367244385095 13.397107766381186
19.091903343096455 -5.754954729722538 14.055768807888581
19.574284791761112 -6.236237717623708 14.694463245729969
19.912343627976806 -6.842556326079941 15.309994216885455
20.119424523454676 -7.542377057430744 15.899902563937141
20.221555499662596 -8.285946766907912 16.460245950111894
20.25192633212583 -9.00621925388297 16.97550812135794
LINES 1 75
74 0 1 2 3 4 5 6 7 8 9 10 11 12 13 14 15 16 17 18 19 20 21 22 23 24 25 26 27 28 29 30 31 32 33 34 35 36 37 38 39 40 41 42 43 44 45 46 47 48 49 50 51 52 53 54 55 56 57 58 59 60 61 62 63 64 65 66 67 68 69 70 71 72 73
POINT_DATA 74
SCALARS Curvature float
LOOKUP_TABLE default
0.0
0.0912663988348729
0.057039410365187206
0.03760042124997952
0.11350551414981176
0.25810359414047346
0.3637685931784395
0.31208029740701165
0.19709736938289532
0.12607670749717495
0.13014016495638725
0.17230277140124556
0.22817327658957978
0.21572276042746494
0.15648852374926073
0.0943777834040284
0.05227619495767339
0.06964949569346296
0.1581416046089998
0.3465930809923465
0.5319348464848982
0.6508428410572075
0.5430709805207666
0.3089016244970061
0.17865583657977405
0.13817534061207853
0.11336661736271106
0.0785015532936143
0.0416581011991358
0.07461595731034504
0.17527561722340926
0.23045557251970644
0.23730257717837133
0.2191686840752443
0.1862973533479827
0.13971478591398737
0.08871268679140636
0.047126667539600514
0.025242934810048693
0.0350926991424121
0.05213963226655892
0.06938767185854498
0.08264904009554123
0.09000269508168045
0.09180319170993712
0.09128157590989101
0.09158332439811172
0.09661224905547307
0.10205933121469386
0.0988137182346522
0.08931971361832496
0.08075081301883487
0.07658390618778559
0.07547423852491797
0.07160359009678771
0.060487942711769396
0.04286104224442274
0.023279940438242715
0.008657633506201825
0.008873879051746029
0.017626839139416935
0.030552066996760812
0.04693813038543235
0.06653311713576884
0.09212811135780326
0.12742462242639307
0.1710755222028061
0.21256685013142892
0.2325133937381491
0.21927040992559607
0.18089117452671638
0.13296964450441795
0.0938094523739792
0.0
SCALARS Torsion float
LOOKUP_TABLE default
0.0
0.0
0.43781534431076125
0.9121838971413418
0.3214374296441772
0.16388464607431016
0.12473102219107368
0.1523868411350678
0.33657014002571206
0.6227916453660576
0.4370177779710502
-0.13893878706000756
-0.062981119365729
-0.06206178552361032
-0.15809959633863213
-0.023423672161156345
0.563820653864898
0.5397777852348135
0.12038127810683896
-0.01900666554682777
-0.12956081264903177
-0.23446806999373374
-0.09967160689145751
0.0666188781510214
0.17173017722797435
0.1198271183626984
0.23104310806908215
0.5660878370095788
0.9559590919629607
0.7023804147909498
0.15059241634787246
-0.038667753609692906
-0.1603213409924622
-0.22526811095397398
-0.2243794111769229
-0.1803283189384951
-0.09007178812826806
0.24137574129986572
0.8137465431725119
0.40059925877573965
0.1273946696560403
0.014064586575451968
-0.07825999140653218
-0.09974509791690431
-0.03693273677129827
0.046929710661708084
0.11819579234016403
0.1372853814291764
0.06616928286628963
0.004190311026469662
0.0003242329318429104
0.03825698975305014
0.10242044903572776
0.14029132068584402
0.13539833042359084
0.10271639874435647
0.021781766673357045
-0.22542846155588026
-0.9106761938957195
-0.6491010830753349
-0.2760927090251221
-0.15765444125743405
-0.07284279445497284
-0.021298227679270802
-0.0034138984112044753
-0.009934967888002537
-0.015324946101090633
-0.003979232520687824
0.009660206889891412
-0.0031473440824244976
-0.04464913909033279
-0.10228747002707925
-0.21075978203151668
0.0
