# vtk DataFile Version 2.0
Vessel Segment
ASCII
DATASET POLYDATA
POINTS 74 float
-4.73064416040096 16.557906963156604 -5.016612569935842
-5.203682747058243 15.654933191970276 -4.909867620808319
-5.739096287796379 14.76782649988438 -4.725397158195252
-6.306082685985272 13.91989323496727 -4.527932051411892
-6.875314228452404 13.12432351340154 -4.3855265560565435
-7.41374899016458 12.391131192817396 -4.367741409511298
-7.886652699349661 11.724947546160738 -4.525979272345046
-8.275014142938089 11.114099016486636 -4.875670710512634
-8.572802503998423 10.533866655673656 -5.410809834443425
-8.766913939855012 9.963485459504776 -6.096211014578331
-8.84532778479687 9.389631977244418 -6.866908827854842
-8.797510535774705 8.81054617241708 -7.664431391428273
-8.60515028199744 8.239574945479221 -8.472463080409856
-8.2783377122899 7.699420291089014 -9.244133500719014
-7.845505655863295 7.179093501197434 -9.969054834965561
-7.333700580131965 6.670657427396986 -10.639691681799434
-6.774465353601671 6.163338948555473 -11.241480316519501
-6.207761194092295 5.648517885054592 -11.73763640207945
-5.681980992697557 5.126798101523378 -12.073020948835392
-5.2485994010114245 4.6168679837676 -12.194193443016808
-4.9476365496909915 4.143731165658117 -12.067972831236338
-4.794486563379685 3.7407450849803774 -11.712182863626735
-4.783818716756101 3.4393105336271326 -11.163326629205452
-4.905205945939511 3.266376380598903 -10.465207292012176
-5.1346718097286885 3.2290054494673304 -9.669102435394706
-5.436809486317281 3.314379644086738 -8.825759863399266
-5.768196080344428 3.489159654805093 -7.972337318042884
-6.088907686880617 3.7104686081159906 -7.123937321394446
-6.357922003207843 3.9246906247064626 -6.282634778814343
-6.5446456484402225 4.073899856247826 -5.451730313921005
-6.636047855436637 4.113170830356038 -4.64134293190713
-6.632678056530053 4.020295931327253 -3.8637764348618195
-6.540527324811024 3.7873426676804423 -3.1244274580984173
-6.3678608252471145 3.406072882722395 -2.434033407408625
-6.131093688131411 2.880283043066485 -1.8168660268056331
-5.851689566590691 2.2326292571819355 -1.2925996691658683
-5.549302640340762 1.4932572392283157 -0.8684030827806571
-5.240101388953017 0.6925469802483981 -0.5402211089104534
-4.931732076774705 -0.14575691510484343 -0.2889458269270565
-4.619510378990874 -1.010195017562189 -0.09060631625074136
-4.2907442585142945 -1.8976807419389337 0.0778693489843134
-3.9296725034439675 -2.807307336216662 0.2410541762472444
-3.523736193969693 -3.7232364738100365 0.4223083467764472
-3.055753516767001 -4.621079414133065 0.6424423454121619
-2.5078851746860606 -5.470055878113848 0.9155208293520516
-1.8698124436782386 -6.2369608135419785 1.2491907941589289
-1.1436881093393474 -6.893917088081793 1.6452499067741877
-0.34240379281278593 -7.42599692848883 2.098080716499179
0.5170357754670833 -7.832041887182119 2.5960227764453325
1.4195536370227662 -8.117458428924078 3.1237463181827927
2.3505008306366317 -8.289193668255459 3.6644067414330466
3.2964831396492866 -8.354237620224684 4.205162851040135
4.246387940020873 -8.319605153558307 4.740675371858746
5.1898154815829605 -8.194275984865826 5.2727187198713565
6.118239388950211 -7.992059040079355 5.807453855990904
7.028050411794361 -7.731937615331396 6.35158167018948
7.9206145164801365 -7.436831334699115 6.909436133637732
8.799602684876715 -7.132308377592172 7.481933294956629
9.668385576521372 -6.84515700668583 8.067636913300806
10.528605669186549 -6.601945954894026 8.664091564099973
11.379159269722974 -6.4276914445436875 9.268458587587503
12.21601266383182 -6.344856016286725 9.879088167674453
13.031543408026316 -6.37325378582489 10.4974866257223
13.811523088536937 -6.529264626074681 11.126363473735664
14.533678742544792 -6.822342934419389 11.765942845331413
15.1704202864331 -7.255426508716888 12.41173640001999
15.692526089096543 -7.826052043885492 13.053925856912311
16.077216893279672 -8.52201129824118 13.678172792060987
16.31881491290671 -9.31605701657252 14.268390487868574
16.43417087660403 -10.172520600179537 14.812200330362185
16.45479224214202 -11.063138087511796 15.305836699326552
16.417689776893216 -11.966448862642805 15.751749681602305
16.364258386148283 -12.856890495793987 16.15121438462468
16.32975047560382 -13.699033941875543 16.49302752755012
LINES 1 75
74 0 1 2 3 4 5 6 7 8 9 10 11 12 13 14 15 16 17 18 19 20 21 22 23 24 25 26 27 28 29 30 31 32 33 34 35 36 37 38 39 40 41 42 43 44 45 46 47 48 49 50 51 52 53 54 55 56 57 58 59 60 61 62 63 64 65 66 67 68 69 70 71 72 73
POINT_DATA 74
SCALARS Curvature float
LOOKUP_TABLE default
0.0
0.08619546619735552
0.04674354796633697
0.05958881191063604
0.14850694793379984
0.2690025875125992
0.32299006124438495
0.27174181763066
0.192165766151644
0.13925510892176604
0.1280967283728862
0.13859228386489866
0.1425256804417088
0.11893581433925299
0.09918131309553672
0.08779708313709576
0.11292560366922665
0.20949708974531925
0.422025832335372
0.6887585937169299
0.7088699784519429
0.5316285425161338
0.3515847213109205
0.22924073006374449
0.15555337817408543
0.1001887444867183
0.05492260677675505
0.05696403991699639
0.13023645804470788
0.21040466486200643
0.26285976936140454
0.27107724190416077
0.2546956163429114
0.22792898193901445
0.1938702682270799
0.16111439284069626
0.13198128627282463
0.09798572594801827
0.06488797704307558
0.037868474683025975
0.024655863772839025
0.0393111957409491
0.06747537240482318
0.09680425795900273
0.1217872142740916
0.1365194934830878
0.13658210977653068
0.12492380633823726
0.11039023042500812
0.0982948764930418
0.0900058823889909
0.08365816761108996
0.0763463946332653
0.06579792287980435
0.05154649262436848
0.0345331254355662
0.018494154567878448
0.019841939689096928
0.03872676737298651
0.06117009776160811
0.08450491699561757
0.10751870618081516
0.12852234428492978
0.14560177390224205
0.1607661883904839
0.17466690313941338
0.17947835533164744
0.16742715326251237
0.1407055752029806
0.1079850015370374
0.07424201653732074
0.0431425576218923
0.04696320677313532
0.0
SCALARS Torsion float
LOOKUP_TABLE default
0.0
0.0
0.7405655886042688
0.6871146128002181
0.23803657326613975
0.13352828136741146
0.10980740886469882
0.12682451100249256
0.23798790449251764
0.372044846402017
0.288915462480097
0.0034343133475685517
0.05970210230196525
0.1469880668528381
0.16653420893735915
0.3314295130300831
0.36696187080473036
0.20748797893936252
0.08846983701929646
0.03408897072130323
-0.010403915514466247
-0.07538718858830742
-0.07456272711735212
-0.07444688273672137
-0.10318930850718393
-0.23763535681304715
-0.6851049370302276
-0.8028419433981946
-0.30310566519333415
-0.16851656689839917
-0.10729830928181497
-0.07215328672369602
-0.0840692620577914
-0.09527227068669698
-0.08096812494713042
-0.06461709974461408
-0.06149358341091924
-0.03919842342848945
0.10958943477351582
0.4773543065855851
0.8164733454523059
0.394802555185722
0.09818167999492566
0.005578405047141799
-0.005760736269528328
0.005294216178290828
0.005891167416540575
-0.00710668658323627
-0.037515042849650446
-0.0584426932843001
-0.04293416598794264
0.0034321143833002665
0.0671484543118296
0.12945936786994475
0.18547076945344976
0.30324303332685276
0.7268672781066339
0.6759625441888694
0.21969099163999178
0.08136870395907117
0.022420408964886257
-0.02036664098421694
-0.04971090871662155
-0.06570174217093397
-0.061927923866124966
-0.045714418602884645
-0.027508846437268506
-0.0109873551468956
0.018096948891255814
0.0735867197646533
0.1852525888755023
0.6464317480015964
0.7174795333310305
0.0
