# vtk DataFile Version 2.0
Vessel Segment
ASCII
DATASET POLYDATA
POINTS 74 float
-2.941907249509619 18.139128098171877 -5.615425186737991
-3.538492981800678 17.30613636867808 -5.429625814976205
-4.178552983899724 16.461051736146732 -5.19382555587514
-4.839707170151186 15.638156932246822 -4.959105499219164
-5.501594074964623 14.862490431652654 -4.781729636105565
-6.13980994261654 14.154151512055599 -4.719448464976207
-6.72764867451704 13.519235718632954 -4.820997130607925
-7.246360383401396 12.94514475719104 -5.113079102074895
-7.689637845960674 12.403686330158088 -5.585269460208576
-8.055224060540493 11.853038345922696 -6.199863912655072
-8.329768077197086 11.264457688634296 -6.9073392603279515
-8.488869785039654 10.63244322758434 -7.661865979284023
-8.504391718185275 9.975842618040689 -8.443574084968235
-8.369114454594351 9.329952906734405 -9.215959202510676
-8.09879583700865 8.70430772206212 -9.964281609630135
-7.710351680229838 8.101281127615247 -10.681778162993307
-7.225709238710247 7.513493203427828 -11.360029580176295
-6.672244969050817 6.927556977914846 -11.969348285412352
-6.087053462499921 6.333687044319253 -12.451577606474387
-5.52695504170137 5.745900131669314 -12.735369070154048
-5.051700880411169 5.191320482913162 -12.758900598055892
-4.714899639047624 4.733578838920149 -12.502396856089142
-4.516781172685193 4.404389501085551 -12.028583711901325
-4.430311666261646 4.201844242207183 -11.377374317363742
-4.443964355010327 4.120778605470123 -10.583148261801783
-4.541909052874326 4.1396790388242195 -9.697767308782721
-4.701428174358883 4.225761807248591 -8.775632089609587
-4.893825712132826 4.337573930028707 -7.857941979847339
-5.088840806898924 4.427510785034807 -6.954745449034845
-5.261532990686675 4.448165803366494 -6.063627082933042
-5.394298558798782 4.358856072032382 -5.186080653983971
-5.478342921028959 4.133963683133972 -4.33201893008227
-5.5110636454434765 3.7650313292632682 -3.5164267383187755
-5.491553719708353 3.254570411466481 -2.756024483361424
-5.42294932887376 2.611896603271067 -2.068213499085761
-5.314914788958094 1.8590318073259011 -1.4676727405236416
-5.1774677387397166 1.0271522173888372 -0.9555385190880998
-5.014108986717229 0.14469472367696723 -0.5194691533359891
-4.8219013940470505 -0.7658559016314868 -0.14263801882300267
-4.593974662865185 -1.687570657785533 0.1885114326782326
-4.323463780818908 -2.612157354843306 0.4781796891602139
-4.013877440430595 -3.5320065259995728 0.7341025112662635
-3.6574467197957024 -4.4432558358104846 0.9798978550164548
-3.2413617333027553 -5.3374301044836745 1.2298834153593419
-2.755271840209796 -6.19736720121773 1.496296989097987
-2.194941258338232 -7.000628936835185 1.79463437260268
-1.5665691230822467 -7.722250187066538 2.140890338022523
-0.8843392634414583 -8.342253710670374 2.5455738165989423
-0.160661549134978 -8.847030761496615 3.0075603222038
0.597858496048744 -9.234609609079566 3.5087826502312285
1.392689744032436 -9.516020601930263 4.029706499918484
2.2283032253899258 -9.7031556338784 4.558006915653239
3.104102353887539 -9.803342892533 5.087637250422297
4.0097305770086775 -9.82089570949024 5.6184790529976985
4.929348851302099 -9.76029404086265 6.154530538574535
5.849209036854323 -9.629351661353278 6.699747844758161
6.7603966265284265 -9.441553964740628 7.255652506442617
7.6587848144125985 -9.21691224049735 7.822230243474559
8.544294514391803 -8.979487922868968 8.399351601031029
9.417914101282006 -8.754410504010297 8.987312961604703
10.277815345840734 -8.566647860983007 9.58660669529595
11.11721532742942 -8.438452257183503 10.198477895667967
11.925513750746363 -8.385708298102097 10.825679143042464
12.689032517931684 -8.415611833767613 11.470095052256799
13.393074447333527 -8.526300410363858 12.127521896310581
14.027545345536323 -8.712594618006543 12.786999715498926
14.587577600309599 -8.973912880903685 13.435630588158007
15.07173543235241 -9.314408634552136 14.062827433193993
15.48259044417576 -9.739611869122795 14.662936699969213
15.826365194272455 -10.251688407777257 15.235350934032555
16.110319920202322 -10.847627499369686 15.78439043527823
16.341312610063373 -11.516690410534459 16.31657255058333
16.525569848630212 -12.230061800152868 16.83256042550272
16.667592409719255 -12.929784021612088 17.31107472548479
LINES 1 75
74 0 1 2 3 4 5 6 7 8 9 10 11 12 13 14 15 16 17 18 19 20 21 22 23 24 25 26 27 28 29 30 31 32 33 34 35 36 37 38 39 40 41 42 43 44 45 46 47 48 49 50 51 52 53 54 55 56 57 58 59 60 61 62 63 64 65 66 67 68 69 70 71 72 73
POINT_DATA 74
SCALARS Curvature float
LOOKUP_TABLE default
0.0
0.04177581608284191
0.02594205242210385
0.05530136612784907
0.12414092032861947
0.22464955213522741
0.2988375144234296
0.26550248051690095
0.17744570204230942
0.12779174449167452
0.12430287613331718
0.13738523216615514
0.14559781756384038
0.1344046869478793
0.11965459616394865
0.10005568288868207
0.0950185396800633
0.13410090790303278
0.23952973425278468
0.4533544257919015
0.6845260383682966
0.6412027454728649
0.42649529531172947
0.2561902095384887
0.1531168367047235
0.09365221910318326
0.04665699969423717
0.024604912238212956
0.08668274858703275
0.1465838043781586
0.1831525446406103
0.1920974914461012
0.18489467111982644
0.17042066020879595
0.1495435265501287
0.12229309580181792
0.0937772048958586
0.07040573665437795
0.05824472746916508
0.05870926584006551
0.051409736885161074
0.047399394267516146
0.059160143067878736
0.07547874741721029
0.09374616730560488
0.11211169472320427
0.12655816755039329
0.13544881245021914
0.13070572916773648
0.11507210583851617
0.09941767299161193
0.08684258893082694
0.0762774040044909
0.06784009503942777
0.0599508856762815
0.04929084382349309
0.034226314152962435
0.01778999348942525
0.016621164332245298
0.035062435482736534
0.05664376543533985
0.07686102046732698
0.09311905068665442
0.10384728097607084
0.11196171938519318
0.12535596434820973
0.14479044664905583
0.16006992190722857
0.1582548891635755
0.13879689751602506
0.10966748513808727
0.07940283351191488
0.058265485143914456
0.0
SCALARS Torsion float
LOOKUP_TABLE default
0.0
0.0
0.8481297168366518
0.39473027782495484
0.16341158072508333
0.1264547238536
0.12002240044752382
0.1571036985686555
0.3360241428249982
0.4404910095632611
0.26156440446994184
-0.012983091570462346
-0.02246360063637462
0.015209571661089973
0.02228999372273848
0.1261361195317656
0.33561853234126465
0.30918936620949444
0.17464120468170408
0.0916079283984592
-0.016159191021610092
-0.072168256145688
-0.11665775357877266
-0.028605988859881484
0.038990047659722846
0.10302489659214482
0.39568638634379155
0.9611472557397094
0.16793336673411607
0.031024754577683195
-0.010290095996579797
-0.018164945024336916
-0.0084166552128123
-0.022049891898032317
-0.04285953178263232
-0.022197600629867874
0.06209150395301659
0.20156446319818028
0.3038630147695603
0.173224477984821
0.12504893707467524
0.46474963791683965
0.2209902761476867
0.1337841382881106
0.1300446365518782
0.12944356069404875
0.10727423561035132
0.03300369502690137
-0.08583688601833704
-0.15458185898083976
-0.14208370843562798
-0.06734075370070777
0.04879887973662578
0.13636114087047638
0.14657950068386416
0.13646425518173586
0.21179625875039745
0.6559786904490691
0.7516934825221792
0.21370329775162145
0.04656061526535027
-0.024335043176424286
-0.06207408292223478
-0.06444818257607943
-0.009064450253985168
0.06294656043283549
0.08578118644623414
0.07657247443713566
0.05515713747969526
0.012740569349228105
-0.0440343729227914
-0.12521749956053815
-0.13521056607194482
0.0
