# vtk DataFile Version 2.0
Vessel Segment
ASCII
DATASET POLYDATA
POINTS 74 float
-4.94614424004912 17.564867542334397 -5.30564538377438
-5.437015941569528 16.7015438317183 -5.261703050126564
-6.026540692415996 15.827597142015918 -5.180094971865019
-6.659752594287392 14.99028719201425 -5.108750138027684
-7.29544373617933 14.209219326711164 -5.098716564266164
-7.895004945951882 13.495772747305137 -5.199444078290668
-8.424138825008585 12.851656719957552 -5.4491912047697975
-8.86237981167514 12.270042303622983 -5.865206255299633
-9.204390345832518 11.732830265617949 -6.4407246968801894
-9.443168911162381 11.216846845734823 -7.14362079129784
-9.574370594752894 10.702832474622522 -7.925903537341299
-9.587080008397129 10.186558696553744 -8.744175992246623
-9.46985365872414 9.673948040550203 -9.55942605037918
-9.224050050591956 9.162830071199856 -10.339610576224505
-8.86308651034803 8.64606837634511 -11.058548981467938
-8.418906795243487 8.126543933511211 -11.68699319705181
-7.935100932914202 7.611754272191382 -12.202268603725605
-7.4551015191052965 7.1044073497412805 -12.581680878072785
-7.024684391164614 6.618615712462761 -12.798173627331218
-6.672774232133597 6.1721023418620495 -12.834836211397905
-6.415470130692552 5.779019416887661 -12.680393841180598
-6.2480810532427045 5.448093097621524 -12.344421036276835
-6.15780187452481 5.184836453201251 -11.844033099136436
-6.1319133827713825 4.990126386828272 -11.193770334873896
-6.159678794768927 4.856929673020682 -10.42257112028371
-6.227561182401144 4.768620676162187 -9.574205025940534
-6.316123356501711 4.697356605525221 -8.688518934424286
-6.403603318692503 4.607189585203925 -7.795521783004728
-6.469057558404043 4.458644943364193 -6.907599079785911
-6.497921902618784 4.216335521826555 -6.030834878813009
-6.483386718122565 3.8560289117809567 -5.179409283280604
-6.428214270231396 3.377706011512745 -4.374558192453595
-6.338051244054477 2.7998976629975303 -3.628886284850035
-6.215389022657911 2.141673650221356 -2.948394649200375
-6.060907607430595 1.4163789858642983 -2.3360634318207087
-5.875979344845091 0.6313762893543039 -1.7916407285188625
-5.662599755046874 -0.203383260137893 -1.310565129272076
-5.41930410772005 -1.072145156393338 -0.8814460278281968
-5.137923229355342 -1.956027501439413 -0.4860112045047921
-4.805224543567365 -2.837525056058981 -0.10724541082126332
-4.407612693330871 -3.7028100526449266 0.2644163062148722
-3.9350054218718244 -4.540337794693596 0.6329285526930575
-3.385779817456808 -5.3313028850576965 0.9972945106886659
-2.757316595383995 -6.0576836044501965 1.3596998856226326
-2.04725294332491 -6.702734576731165 1.7262953238647356
-1.2598898319882816 -7.252003977384794 2.1067181119560305
-0.40982891393571746 -7.697164597197142 2.5113171607230944
0.4822841515429392 -8.039279605498221 2.946588169858794
1.3986882515809649 -8.286307520723247 3.413030579612295
2.330310260119491 -8.44616025639401 3.904988245622075
3.273324958906554 -8.523286521523229 4.412926152485502
4.225600049691737 -8.518034036325204 4.928502546340339
5.184292304051697 -8.428843017580526 5.448277332291989
6.142731035866371 -8.258576799935373 5.97440298031699
7.091414947411973 -8.020400662844697 6.512814053876907
8.023187179650657 -7.737653239602066 7.070248353886476
8.936382369439182 -7.440470103791781 7.651977374269065
9.833872674309374 -7.162252843893071 8.260009714044779
10.719625251532868 -6.935382395150314 8.891991931280996
11.594098268706173 -6.787995375406502 9.541171036309274
12.450578709837359 -6.743280060806808 10.197667717592218
13.274367750106975 -6.819085600793798 10.851403786130014
14.043307770898789 -7.026968665554649 11.495894657955615
14.728442842377172 -7.369187664039303 12.128213674330205
15.302227348138958 -7.832757177192437 12.745381272074805
15.756353920809314 -8.395110428337041 13.34684980589767
16.099217217327748 -9.039583882123065 13.937078776062485
16.345396086912146 -9.754109154041016 14.519052970643756
16.516511227032318 -10.522013954364072 15.09068850793189
16.641365617519934 -11.322620669410478 15.647316141347936
16.746092515242196 -12.140442417494913 16.18627492179033
16.850081939385007 -12.961573015277281 16.709350991943502
16.970938192364464 -13.75604236924643 17.215973162700873
17.115174511687492 -14.476003157906543 17.684059557747343
LINES 1 75
74 0 1 2 3 4 5 6 7 8 9 10 11 12 13 14 15 16 17 18 19 20 21 22 23 24 25 26 27 28 29 30 31 32 33 34 35 36 37 38 39 40 41 42 43 44 45 46 47 48 49 50 51 52 53 54 55 56 57 58 59 60 61 62 63 64 65 66 67 68 69 70 71 72 73
POINT_DATA 74
SCALARS Curvature float
LOOKUP_TABLE default
0.0
0.07371368331121429
0.05218000995547816
0.07034907426224653
0.13488271439908503
0.22240005015436373
0.27606635533024376
0.24862224220641888
0.18644514336284806
0.1380576066251323
0.12762719974593922
0.13677519168921065
0.14223595234833578
0.14184312521697925
0.13983234808114986
0.14310957055324386
0.18093526031262586
0.2922166922331667
0.5000406333071238
0.711030277114894
0.6759605011941551
0.4665008385512901
0.2720053140357085
0.15405784361453442
0.0855794299423921
0.0329111057136578
0.022351137387056692
0.07659378862513438
0.1206545755634295
0.14644777173354076
0.1481591079861558
0.13247416813381305
0.11762053392872669
0.10773422349131119
0.09902603990574069
0.0856871863276603
0.06740129143433378
0.0510575645393596
0.05167349427751205
0.06373145493048994
0.07463737692344348
0.08439923586903886
0.09668692048066696
0.10868597013059655
0.11498831703613165
0.11281301430656958
0.10348033555913598
0.09112803080417792
0.08024351370746578
0.0729042704162763
0.07011142742896073
0.06924901372535135
0.0651446290352272
0.05500226313521108
0.04040770011354118
0.02680043776935133
0.028655840532218868
0.0465297867377191
0.06741562489694101
0.08852639483187484
0.11064570283549709
0.1343298913856944
0.15846092277695825
0.17592594495119546
0.17429921013490574
0.15584644180328586
0.12848231883172329
0.09469240884594111
0.05923332017922801
0.03270157939804954
0.01582661859857886
0.022955889677868067
0.049819399819268084
0.0
SCALARS Torsion float
LOOKUP_TABLE default
0.0
0.0
0.6291646759547836
0.5371674114592412
0.254230687771083
0.15139744511256087
0.10080644874222101
0.10929819419323127
0.22750518058485758
0.32528649989579034
0.23597160196473382
0.12610760575769836
0.1429346122539382
0.1735768170274836
0.1958760454714518
0.2513647287875825
0.3132667739633531
0.2293971685004718
0.08231786420293954
0.015148284856522101
-0.0681251403222563
-0.11490040519165434
-0.10702088858254115
-0.028516521314905938
0.05514247875456257
0.3353443392516715
0.7177931784950816
0.07976836806821697
0.005080648940387442
-0.026135013852831804
-0.03949165585868394
-0.013325721792887633
0.024762625076309868
0.03252489433271663
0.01193204565418033
0.02602114553811295
0.1512815926973111
0.4389381820757611
0.44491748391672176
0.20642362746516477
0.08374364260420934
0.05387017365430667
0.06317584440928134
0.07525870984962561
0.09816259841316577
0.12258620775928317
0.12686404651475
0.0945853871657555
0.008643851834813629
-0.0665800494288257
-0.07062624022920957
-0.018525704513596516
0.059133791640572586
0.15842942474226307
0.3209788018670982
0.6413315202476222
0.6066758790310457
0.28046181179480684
0.13756063836223548
0.06589956604753303
0.012101889683130591
-0.04113296911784565
-0.08653710540750847
-0.1065184137545341
-0.09157243086049582
-0.0595663895115608
-0.018440967455433492
0.03728616924371779
0.17727000808500595
0.4941321735860571
0.8786339748131522
0.647236922410199
0.12312057178241598
0.0
