# vtk DataFile Version 2.0
Vessel Segment
ASCII
DATASET POLYDATA
POINTS 74 float
-5.10861067602426 17.832345821901857 -5.2144795054619175
-5.568809219252847 16.781820323295555 -5.208663746865795
-6.076524961433112 15.78480904174035 -5.212646510321507
-6.592952232338495 14.864736969507621 -5.265642887100397
-7.086239798386222 14.016710661968126 -5.407504886575784
-7.52116276662563 13.231208147840437 -5.671367989836998
-7.862046904289814 12.496694454872717 -6.071976589006831
-8.085695555691494 11.799306938273196 -6.599633039362441
-8.18479224655699 11.137800006838269 -7.232837007048168
-8.168603682387097 10.528180602358676 -7.9296514314787965
-8.052591135794408 9.966253937132203 -8.66626579602324
-7.844174796546175 9.445198327555566 -9.413240979073358
-7.564796999796088 8.958743502310497 -10.094858068104967
-7.217091470354434 8.468652229322815 -10.716855422698567
-6.798237883746743 7.969585484417452 -11.262007025897178
-6.36007708543518 7.468925631864415 -11.689822624042312
-5.976925461514396 6.988503280291746 -11.953046250836904
-5.692572676842158 6.533104353294525 -12.032870782809221
-5.535649429076484 6.1077130030625595 -11.911936878771428
-5.516209270220281 5.747427844123533 -11.588532555110042
-5.618041463893523 5.477506068468216 -11.11980061698511
-5.787308853800589 5.292329117808801 -10.594161696801551
-5.980584641462198 5.190625123690374 -10.043907430401921
-6.177793193154831 5.1735506660210335 -9.48597111939813
-6.36947912032986 5.221197705477109 -8.921302680892843
-6.5492474097681095 5.3047120056092325 -8.342252019982139
-6.705812690203457 5.391172762999042 -7.745088628800622
-6.821349698150262 5.441458953108718 -7.136959885798948
-6.879572128229129 5.414324776270764 -6.511940033933354
-6.869547198124221 5.267032626771673 -5.86042768877666
-6.785741207755551 4.959460050270713 -5.197261635273962
-6.6332047137211925 4.478326538179552 -4.561282358883669
-6.425992922330668 3.8437589598669657 -3.9892941962783497
-6.185520171917482 3.0973227444649303 -3.506364514641305
-5.932113063421526 2.291334563909015 -3.116062519473278
-5.670864102629035 1.4535449416475055 -2.800109349206115
-5.402383332344447 0.5895040780450786 -2.541657390735459
-5.131071713956106 -0.2909744703646958 -2.3312741148835174
-4.859868662307659 -1.178726045369006 -2.1522757312305685
-4.583788023404294 -2.074284588327554 -1.9771940026249724
-4.285367391578628 -2.9836560015848503 -1.7640759282037881
-3.9329862258919466 -3.9203141394658187 -1.4763313333430728
-3.524839470150121 -4.865643807605646 -1.113506542382639
-3.059810658485563 -5.794301485719378 -0.6759741694526282
-2.5290474839450305 -6.678570861416452 -0.17026911502993075
-1.9223797943806875 -7.485266409253039 0.3912360272861871
-1.2365209508642947 -8.177081620151693 0.9948692977833674
-0.48361697132235776 -8.725838196483346 1.625871997280001
0.3187571620152266 -9.131365588210276 2.2745946362126346
1.1644017902332178 -9.410786863944262 2.9422536437868985
2.0574921952375993 -9.583512890808322 3.626355464153382
3.0004306920518498 -9.664975868461461 4.319670946193206
3.979811501057358 -9.660769807823433 5.0133573339480515
4.964583040902941 -9.569591105964582 5.700024386934861
5.922514165678799 -9.389111117548257 6.376062173505135
6.838092289005792 -9.123772166894748 7.042236069524894
7.716663400976524 -8.78971577825891 7.701931483491725
8.577359024564842 -8.41256902652298 8.359891958397357
9.44226925230527 -8.023285178880522 9.023913735610678
10.328939290779221 -7.655150531164846 9.705852817870595
11.24453977404749 -7.343839006408904 10.418771039663367
12.182183527510105 -7.124959094059001 11.172808131977883
13.121753571892922 -7.0280988700944516 11.973341321788512
14.028281792805167 -7.073855978860815 12.817236745419756
14.854297063379805 -7.270581067865578 13.685650587500037
15.55844066371224 -7.615324688629788 14.549020505048562
16.115573126700003 -8.103388052420156 15.382615501209298
16.51211828377473 -8.72630447127233 16.171362098492285
16.749550883555102 -9.462718899012655 16.90894074747153
16.855144808269095 -10.277212673497448 17.597522143342964
16.877797744951433 -11.13489365174725 18.24733529649491
16.872837021869483 -11.997538943152769 18.865855830332507
16.894539623150965 -12.800931552733866 19.444107832550092
16.979245819407893 -13.465971744601765 19.94589492656973
LINES 1 75
74 0 1 2 3 4 5 6 7 8 9 10 11 12 13 14 15 16 17 18 19 20 21 22 23 24 25 26 27 28 29 30 31 32 33 34 35 36 37 38 39 40 41 42 43 44 45 46 47 48 49 50 51 52 53 54 55 56 57 58 59 60 61 62 63 64 65 66 67 68 69 70 71 72 73
POINT_DATA 74
SCALARS Curvature float
LOOKUP_TABLE default
0.0
0.05375555804804186
0.06175910887370428
0.10127440086970221
0.16070236590414225
0.20866286054547317
0.21275604535253845
0.19069900773217838
0.16257630036198548
0.1329508562825804
0.1156272671527061
0.11629657475687936
0.11944254175544619
0.14410114254136971
0.16947764539301277
0.2932677626936952
0.5556935793616995
0.795152742910065
0.7705667508349786
0.5407337070777524
0.3243433489331015
0.24802738525905582
0.23747461617686916
0.17851008289834738
0.09991927117966865
0.06954776200079711
0.14363734718030874
0.24008113037175982
0.2837396758988762
0.27796921592131346
0.2427501516554498
0.19742853550956518
0.1601717828607122
0.1259536152567042
0.09289831351762742
0.07077328035115914
0.056584193225533326
0.036020655468584815
0.006569118709619168
0.03833197741694532
0.06642238447791142
0.06479154954882775
0.06850535199789104
0.0765902285182195
0.09071926514537118
0.1105205990159781
0.12574276043705707
0.12339194987418992
0.10779361673291692
0.08761737694588637
0.07018748368180376
0.06104995861096606
0.060042001944830566
0.06583507523330497
0.0688823987942201
0.058616743066547836
0.03545960947560111
0.006966063936598672
0.020845206385852345
0.04573640996071425
0.0669578006396039
0.08377414901429235
0.0988346491740222
0.11632112332733273
0.1379612045946523
0.16324207314479944
0.18127832076781616
0.17486259601553453
0.13854801793239888
0.08680228635906341
0.03513363864558702
0.02885364745198849
0.1158618727152349
0.0
SCALARS Torsion float
LOOKUP_TABLE default
0.0
0.0
0.5382874470888921
0.35091737587711297
0.22228774893597059
0.18334052947449958
0.17533276220953625
0.10868826574316033
0.05999014077528429
0.0730578213311006
0.204134312156393
0.5440693354766405
0.3663545239809697
0.10121088605118517
0.39584969526476577
0.40880569538531963
0.25757838281526124
0.11524108929326216
-0.06182923529204598
0.0011656586695196341
-0.10099587775834218
-0.49328711792984165
-0.2585799902957004
-0.27317697627077486
-0.697687257023578
-0.9618334262938008
-0.48705594529826857
-0.18792375707516895
-0.1302335010547683
-0.11492298739083431
-0.0859952262545012
-0.05488375837273355
-0.06085785189148365
-0.04614997214256151
0.036311903756287574
0.013798090060359612
-0.03769768525204425
-0.045723881404887354
0.988897233362407
0.1265711820525267
-0.056550135683787
-0.041213394371107534
-0.037088595613895124
-0.09931115760469787
-0.09889878878764069
-0.05172854939446507
-0.007471283689855307
0.01609769136438943
0.021492539442786996
-0.05476731127260463
-0.0931804278235346
-0.007460453774451939
0.11386129213366239
0.13641432950799787
0.09068644325573935
0.037277943848832436
-0.029241394804351804
0.15935232867254964
0.07435976342042139
-0.02562347246193933
-0.0457431597517661
-0.05607936568610481
-0.06571910313742617
-0.05909982273556206
-0.027496981965056073
-0.002251359645606809
-0.008067094595457939
-0.02483448515911854
-0.024706303233969516
0.03486454410040496
0.4364480213436051
0.7358328327158716
0.08485838542730584
0.0
