# vtk DataFile Version 2.0
Vessel Segment
ASCII
DATASET POLYDATA
POINTS 74 float
-3.0570900868875097 15.466390511009163 -6.261526825092389
-3.643013517542942 14.700979107731028 -6.254276924182957
-4.253451531364056 13.956015934531901 -6.196547376869479
-4.856578672459988 13.25133972532343 -6.161527040691462
-5.430184511654635 12.59532199699178 -6.216708688558982
-5.951756551143417 11.98788238608058 -6.420995849740041
-6.397356546361185 11.41865915764989 -6.816220226653554
-6.745056696351422 10.874651950263639 -7.402478311407502
-6.995165145724767 10.332969835987432 -8.124465332071678
-7.160214349442727 9.765874174212975 -8.928551819989758
-7.216044733087344 9.182100653055162 -9.757429272140431
-7.137383551480258 8.601768110747194 -10.553128555019814
-6.9058956449633175 8.029974402773862 -11.311766623373726
-6.520235412784478 7.464150782776629 -12.028065498739759
-6.02018065423977 6.8874495219971585 -12.673527010756953
-5.475997361413623 6.290018970856125 -13.197532286203833
-4.968573765724188 5.674728463767365 -13.551692406733999
-4.563751834468139 5.054104721042557 -13.691476224727067
-4.307771258988891 4.446530008128282 -13.565363307373254
-4.239400502878754 3.882927672970511 -13.104845612343992
-4.399441507575182 3.4191146503130634 -12.243770076152954
-4.795374433510899 3.148525294741955 -11.032800133822127
-5.358331548719614 3.126462216214846 -9.66638174258754
-5.9753371110893 3.327734959748531 -8.32047125295372
-6.557714083196927 3.6855960254676754 -7.086546685789935
-7.04567306659929 4.121607000837442 -6.002607484200531
-7.401414191570364 4.542913083166638 -5.069937409761153
-7.627938814402867 4.89281474387611 -4.233475229872205
-7.732064952434405 5.132258320349587 -3.443437193174461
-7.717605561791995 5.218120595991684 -2.6628716083431145
-7.589951884658652 5.106017368787507 -1.8853926089084965
-7.364564267771219 4.769723389977098 -1.1340016722690893
-7.063392039934028 4.2156961828900945 -0.4401007230999609
-6.705776246975741 3.477866294858053 0.16281942290864168
-6.312036444401661 2.6108282639016043 0.6491870558097169
-5.90651275772955 1.6740204710576487 1.0103373566413012
-5.510148505727539 0.7192558544410911 1.2526862591941759
-5.137127863130048 -0.21961173441157303 1.39347641712294
-4.793324697433113 -1.1253008796593273 1.466608730141123
-4.469795847621307 -1.999202510210826 1.511280352111896
-4.1493521894751355 -2.8542062224353497 1.5531520458831172
-3.81806598350871 -3.6966372489576247 1.6165991205558412
-3.4503412848408086 -4.52720174783749 1.731470046915277
-3.0217462493964313 -5.337616344705303 1.9041247786143305
-2.5174158830909326 -6.10701421967039 2.1280131051914735
-1.933864217420209 -6.806083157418835 2.395750741198065
-1.2792810343505192 -7.406080723814142 2.7053101857803097
-0.5681911917591789 -7.887928454437275 3.059556647817306
0.18582612019698427 -8.24248930216318 3.4585600944342643
0.9724905532481285 -8.474718807939173 3.8898756956599723
1.7865859954626835 -8.604135929799313 4.336975947514814
2.6267200220216713 -8.651415705903991 4.786250772169864
3.4901958791137817 -8.627812897064146 5.2297356987036006
4.3670574295539675 -8.532054055938453 5.6667153934821926
5.242696297603466 -8.357571769211075 6.102486646374755
6.10729290782971 -8.103333993236348 6.5445008373582345
6.959564085428798 -7.78161159677721 6.998365903319315
7.80355904705004 -7.418813599745938 7.464318549669446
8.646228712198546 -7.047588782140417 7.937795123445817
9.494400633346432 -6.698319757979002 8.413960726406938
10.351010371211997 -6.397285643330941 8.891918843220589
11.211059666739859 -6.16964648140784 9.376296220554197
12.056781650928812 -6.040616115703307 9.874429835918525
12.857590355129005 -6.031011707614483 10.39054153684483
13.581293395097306 -6.149338383349325 10.920645869893502
14.20965588189884 -6.392343559082746 11.454558227692445
14.73665515960361 -6.75156479514504 11.98104812445686
15.164960964853357 -7.215116026458362 12.490800146039179
15.506751687710745 -7.771176217567511 12.979632591371468
15.779251443723364 -8.413122929465297 13.449171586105422
15.995295175380466 -9.136551782958056 13.90508077703914
16.16611140228445 -9.918549532611154 14.352690308906123
16.310069621810612 -10.709606263081442 14.792727107119987
16.437781729650418 -11.449713925285396 15.210464184018925
LINES 1 75
74 0 1 2 3 4 5 6 7 8 9 10 11 12 13 14 15 16 17 18 19 20 21 22 23 24 25 26 27 28 29 30 31 32 33 34 35 36 37 38 39 40 41 42 43 44 45 46 47 48 49 50 51 52 53 54 55 56 57 58 59 60 61 62 63 64 65 66 67 68 69 70 71 72 73
POINT_DATA 74
SCALARS Curvature float
LOOKUP_TABLE default
0.0
0.06400243505569794
0.034462876005063016
0.12276889918060868
0.23313929391921612
0.29668625605091015
0.26099268902562633
0.16744527244651203
0.10108356471514121
0.10696433963961043
0.13982796665360775
0.16323186327793657
0.1593940516864005
0.1331210907265283
0.13688562615647604
0.20261573140298514
0.3684748301414298
0.588682435795569
0.576963142431675
0.3229083467730927
0.17314731444104114
0.12252507251922365
0.1018489182264902
0.09104128301040681
0.08465754526738219
0.07798852293961898
0.11550287739358661
0.2064183851014798
0.3027181277707086
0.33959199418523645
0.30368329166022434
0.2348263924041689
0.17969701819569683
0.1436488976132587
0.12049920780563998
0.10572016250430452
0.09451881664242147
0.07002586346282048
0.03196549698525911
0.005044536207196679
0.03217859514277614
0.07536670990632645
0.09586022895883822
0.10929840693156558
0.12616806818149853
0.14471704027850238
0.158927251403632
0.16427402750371817
0.1503523893344977
0.12017759903014254
0.09191158463174279
0.07640265709207901
0.07406815419858369
0.07864369427992322
0.07887179692959999
0.06524672645863366
0.03916593035862069
0.009345936882613811
0.02128000682476446
0.046125091768938926
0.07102510883620254
0.10060880175878274
0.13737504028063557
0.17580874571338376
0.2050322031924794
0.2203659752679508
0.21616666705311408
0.18953437877326074
0.15058988873368437
0.11376790896148299
0.07636287857473417
0.0349076196745251
0.013066219535409318
0.0
SCALARS Torsion float
LOOKUP_TABLE default
0.0
0.0
0.9706604231947353
0.21924036752101772
0.1054470322917843
0.10417544590241348
0.13322144969434585
0.26604112226040755
0.43729527537662116
0.22710886235328254
0.10368529925817192
-0.023514295007863686
0.03152303489992293
0.2965213883508759
0.45851912680813556
0.36915333900707464
0.17889324713560883
0.035019478729883424
-0.03517982989077405
-0.04117907833574879
-0.02796623394953138
-0.022032296654820795
-0.08531087534224915
-0.14682401826520272
-0.27105118591215666
-0.6847606873777381
-0.6246055139396612
-0.3302083400365637
-0.21096183009199712
-0.15104540937267547
-0.11559523384732079
-0.07243366071779411
-0.010262121918049733
0.02028035319023897
-0.002025081269961943
-0.015099349400999496
-0.04197430766026995
-0.11815250804089016
-0.137353821472507
0.999998636230335
0.17243315615409782
-0.025042225425339626
-0.15920270108050835
-0.16279965411506667
-0.08587664239014571
0.0057144055483200895
0.06132645250532361
0.04451933885730814
-0.04236003136248428
-0.11843532934974826
-0.17148920902397713
-0.11568106787568226
0.057918554530096575
0.14528075719732303
0.13298546590225563
0.11991285280303575
0.17293140501890011
0.937169659199806
0.29332734212561506
0.01727194949102734
-0.07004469221713902
-0.1068889080321128
-0.10524213744475544
-0.07437488859673777
-0.019275211416011892
0.01828362064156722
0.035784379241699055
0.05633345392268999
0.07572352662556815
0.027972507651522593
-0.08762806424395615
-0.4650586520096696
-0.9949743982192956
0.0
