# vtk DataFile Version 2.0
Vessel Segment
ASCII
DATASET POLYDATA
POINTS 74 float
-5.491214071035208 19.963083678508944 -6.239052110837704
-6.053423685483442 19.185357139639493 -6.038421531842527
-6.674049973235075 18.306711254808032 -5.804996729895646
-7.314205161257728 17.395645355206444 -5.579882238369596
-7.950271481519756 16.49153977684664 -5.3988824784781775
-8.562485393022847 15.62010387032943 -5.30003773082793
-9.125343983079066 14.806749196573199 -5.3161025285155405
-9.607953759786144 14.079096375487117 -5.448605757935068
-9.99247128500838 13.457076740226062 -5.65410471200676
-10.284054588001563 12.94361506412969 -5.90629571162561
-10.498902318706211 12.492720229367652 -6.221131785757347
-10.631609633101146 12.056002293033199 -6.599984177789661
-10.650556606912291 11.621689048907468 -7.0559637686773335
-10.534311987915268 11.209211316263701 -7.522118247109071
-10.261706858788655 10.779493461164526 -7.992436104997036
-9.847847742923907 10.31178294414879 -8.473033430544078
-9.351719441380816 9.801166264132943 -8.91016895157908
-8.811767504258286 9.236374003596296 -9.257349927998813
-8.272069098099323 8.601884414293359 -9.462983554459653
-7.795188816558978 7.913659722683548 -9.478253662213433
-7.42362550910953 7.207160356214058 -9.277750389592937
-7.198765262377891 6.552555307890226 -8.888057798469028
-7.0972328405962335 5.976327797940227 -8.397319688451134
-7.070386960663471 5.4826684634630904 -7.84864970878874
-7.085008065932276 5.087287270640873 -7.269691212978042
-7.11916289105167 4.792864274446214 -6.6900871783351015
-7.155183546872773 4.581687423106372 -6.130646399625449
-7.178878553027753 4.4240422877477315 -5.592553845358079
-7.174602492514844 4.283347279125252 -5.066539455350067
-7.129937101004863 4.120723077021234 -4.547644062583891
-7.0364135887796975 3.901949385511772 -4.0376736044872175
-6.890847696526441 3.600838445340957 -3.54053617972075
-6.691346879860323 3.1961273268818524 -3.059025467785425
-6.432380862385685 2.6660622607721502 -2.597605512524338
-6.115427225655078 1.9969320693936112 -2.1708819334831806
-5.757378994153835 1.1993487662313072 -1.79180910329532
-5.382429487569999 0.3003734923489809 -1.4596834595705925
-5.009794252427412 -0.6604015462957477 -1.1737188143960828
-4.6409184988566885 -1.6486611111329494 -0.9331172145452453
-4.265244467909608 -2.648939626000831 -0.7322486759691105
-3.8722974150431813 -3.6567882755820857 -0.5676880131499014
-3.460242982734217 -4.66119409997757 -0.4248810076675684
-3.0104010747612633 -5.646452041035011 -0.26704683068879154
-2.4998943035970895 -6.588890368888236 -0.07031152965189016
-1.916393371223161 -7.460840520603006 0.17889979849083099
-1.2586527407378287 -8.242067682348 0.48858599265109415
-0.5317750727787953 -8.92084902984158 0.8624415267709562
0.25965446906823425 -9.493202852701183 1.2984327066945245
1.1135348587134077 -9.95572780896197 1.7842976301842663
2.0256082723082587 -10.308425558153651 2.2945177520838342
2.9871809258771655 -10.556401559718891 2.8056344239297784
3.9871125957269613 -10.706413301252041 3.304225446325879
5.01483785439541 -10.766062979753324 3.78837551081624
6.058565768159407 -10.743504258425629 4.264889041010281
7.105306385459837 -10.647561096034092 4.745216078494637
8.145119026562087 -10.489250541854632 5.241463187495398
9.17143896429475 -10.282554335982276 5.763290679320498
10.179064751378807 -10.044390245280502 6.316017759847636
11.164478912783109 -9.793142834728416 6.899971172750765
12.125671787786604 -9.548186558559417 7.511056628738595
13.06099819990502 -9.33189666077446 8.142619260682977
13.967725275783987 -9.169826723095392 8.78717895199002
14.840031429879863 -9.086810818885146 9.438238360731958
15.669199543271526 -9.100793443177338 10.092488183846779
16.445430164893992 -9.220841988667482 10.749729645136778
17.158579997554785 -9.45161828006111 11.410343294737624
17.797232049267073 -9.797090640602343 12.073138988307576
18.35215573444822 -10.258228902167378 12.734129994340737
18.82216489275209 -10.829624424198206 13.386583046984754
19.21585880758722 -11.50122485667634 14.022994955615546
19.54221867105494 -12.264973887142007 14.635301671360494
19.80126703774075 -13.11541860606241 15.214445284311351
19.991344133683103 -14.038938537857838 15.747645349443168
20.113995017889142 -15.00606143094394 16.212819904832962
LINES 1 75
74 0 1 2 3 4 5 6 7 8 9 10 11 12 13 14 15 16 17 18 19 20 21 22 23 24 25 26 27 28 29 30 31 32 33 34 35 36 37 38 39 40 41 42 43 44 45 46 47 48 49 50 51 52 53 54 55 56 57 58 59 60 61 62 63 64 65 66 67 68 69 70 71 72 73
POINT_DATA 74
SCALARS Curvature float
LOOKUP_TABLE default
0.0
0.010617946412724564
0.012282594066358198
0.03365155242893506
0.06813801909018467
0.11835598844122311
0.170035194710452
0.19181267475823802
0.24190823598002933
0.3035637455892411
0.2883085544649769
0.3112005362418532
0.3270358742223428
0.28036171241962227
0.16649694251934
0.12553580131416583
0.15007716967497398
0.20984999642991561
0.2875093662116931
0.3400564162041694
0.36965522408921747
0.29506130328031915
0.2245778176350523
0.21398979708273627
0.21580001585794953
0.19509307387042735
0.14701471014659195
0.10439027036277725
0.1546312710329975
0.2226372724034747
0.24073431249928043
0.21679920069786612
0.17866752851516618
0.1434057907023316
0.10772745325161226
0.07561512696982745
0.05633454789467794
0.04385317736036491
0.03519960119251298
0.033547397690723894
0.024292781516508776
0.0374998110773856
0.07046118862140409
0.09781553461097811
0.11527824184942946
0.12267777618497556
0.12019985624631775
0.1128038869630194
0.10182334769108506
0.09124622193947067
0.08228450624772236
0.07294560221559303
0.06300812275875768
0.05445797564045866
0.04735549634118275
0.04074281759538483
0.03457741034650129
0.029435853390476014
0.02668322747789754
0.031023044732666694
0.045951009186072665
0.06805704595187946
0.09089891204928678
0.10990328154107269
0.1258620997411291
0.14042151166907765
0.1479237000375298
0.14116613233380243
0.12212232089283626
0.10480030219717051
0.09669869324862813
0.09093402874769027
0.08993534980305966
0.0
SCALARS Torsion float
LOOKUP_TABLE default
0.0
0.0
-0.5680661889397569
-0.061333574290262316
0.012731118997341064
0.03767789266130889
0.07822660823403702
0.15367880059027436
0.011553576554656192
0.14694037594856324
0.4888973660901079
0.1643732196852633
0.38433141973197604
0.3223568976538086
0.17783064284004604
0.6068053942936011
0.342185046440292
0.20829479704588863
0.11388054359917817
0.017131514779937074
0.03194848267594586
0.0776945665569669
-0.26270346960113783
-0.36745800794248257
-0.2781496348795883
-0.3431715201882488
-0.660547388961786
-0.9733490120106096
-0.763374402650098
-0.36975514083395866
-0.21119496545555294
-0.12791249311009714
-0.05675347339500425
-0.06578029742152582
-0.10773038504205346
-0.17757160771384348
-0.11649616437149764
0.14712275032220729
0.33339990262117697
0.26364438290155895
0.429917813178064
0.5034823077662937
0.07988340978566505
0.01965896121466012
0.025631841126288194
0.028451346354288597
0.002089522332634982
-0.06574579428832418
-0.14809681681832074
-0.14107478998074968
-0.077383359312029
0.004920409863924571
0.10064521157341819
0.1886602282978405
0.22997907207208784
0.2534599792437931
0.29357298676297033
0.34436232774916864
0.4078853070877709
0.38427512102296263
0.23094709104035116
0.10442157381591671
0.02332775340372109
-0.02315506474158896
-0.03540874710834982
-0.029924228577046283
-0.012869090138779671
0.01647138256099472
0.05754059266578246
0.07924287407873
0.0415398891401876
0.03531704081378081
0.0782291974450335
0.0
