# vtk DataFile Version 2.0
Vessel Segment
ASCII
DATASET POLYDATA
POINTS 74 float
-5.655810518540126 18.072918839378335 -5.822029407565069
-6.041392792235176 17.19325819614929 -5.513447642448248
-6.512186940294254 16.269080784176033 -5.1705615323138545
-7.032322645740141 15.366502642760016 -4.834433514313166
-7.572499837050941 14.514843784215076 -4.5490471261681344
-8.102820311520553 13.73314003576197 -4.367218125098704
-8.591958238013238 13.032860751698605 -4.336576345907151
-9.011607786017414 12.409547635493357 -4.490917429079015
-9.329252391422816 11.85130149747075 -4.835670989381725
-9.524119353679396 11.331997885076515 -5.326565198378864
-9.618580312299422 10.804607439043943 -5.913814537326765
-9.62588110037334 10.24523238002919 -6.569394541958583
-9.545162167337452 9.66777171696248 -7.261140136203392
-9.377963945481765 9.098094441749504 -7.95313061747252
-9.112087626225135 8.546190493816725 -8.647420971203609
-8.729989949639092 8.020191846809084 -9.361979211998538
-8.215488945625657 7.514653977328527 -10.109872578018553
-7.556664648819485 7.002614219693395 -10.882459819631597
-6.773357558379861 6.446113866028547 -11.630705872552273
-5.922066960896992 5.817435745894159 -12.273844034882703
-5.0967368671449265 5.127915286652459 -12.712134727250017
-4.403280836409175 4.445529062485604 -12.884068854941019
-3.8864732895666165 3.840522809984763 -12.782779350092106
-3.5542689898929867 3.360143847542388 -12.439694690940346
-3.3901590479686536 3.0091070246831997 -11.917051534263303
-3.3704311390401744 2.7662161691006015 -11.258957359304421
-3.47845645816004 2.629507872952199 -10.497504156125622
-3.6767055827349826 2.5798382574904637 -9.695352053555347
-3.920249322415202 2.576069061334781 -8.884970328220115
-4.170584804045856 2.578589721643481 -8.084837909534809
-4.399613953444846 2.5570164152953745 -7.303798301452984
-4.588630292735174 2.489333803077761 -6.540705208989146
-4.725938865980916 2.3513458418373547 -5.792508229102799
-4.809533232352554 2.1145303384539007 -5.05336489235927
-4.8441511577622 1.7545615860542088 -4.32523705047415
-4.834867432418134 1.2657988934884044 -3.613902534184582
-4.7851517626262785 0.6550638616044289 -2.9215400676022663
-4.6935861385274436 -0.05898246505250987 -2.2520912804299114
-4.551004513081702 -0.8498564975331007 -1.619280576576434
-4.347252835329758 -1.686251163224551 -1.0439209557751756
-4.074827909901728 -2.5412239752745016 -0.5352849039809299
-3.7338175615125855 -3.3948391980287487 -0.08567459888560118
-3.3303316114234325 -4.2238932354402845 0.32365550889458494
-2.8653447713780817 -5.008641739276929 0.7205035021261582
-2.3343152447184625 -5.733578450329136 1.1341462195906462
-1.7319425628262988 -6.386392691080079 1.5875953969601608
-1.0581333172098972 -6.955705560645461 2.091077240048001
-0.320708769239477 -7.43381274118748 2.640140828652118
0.4692606066000604 -7.81838587189002 3.2200912893362226
1.303803229443645 -8.109447947646954 3.8122955681529866
2.177087536475556 -8.304360018938281 4.401518029214753
3.0809314087172996 -8.3987971603028 4.980015667176836
4.004704515797117 -8.39328819333173 5.548344727427037
4.9369045176387125 -8.299942098277409 6.112722459421532
5.866469443829347 -8.142089562595897 6.681326307599742
6.784878031818568 -7.9482556345390085 7.26093826536162
7.688340006905353 -7.744468589460386 7.855110792415992
8.578295230967328 -7.551442203088431 8.466552582209363
9.456613905972507 -7.387284286224405 9.098554886866927
10.321096390459273 -7.269880076562833 9.752462395722231
11.162610771540033 -7.216743375171509 10.42448736099087
11.966708996397719 -7.241806930844157 11.105835495521543
12.720210986335475 -7.353285267354967 11.788610630260393
13.41240424551465 -7.554781948187515 12.469764896105591
14.030752825682853 -7.8470465812870565 13.148382008027875
14.56210424857606 -8.230085959255687 13.822963248478363
14.99646778788963 -8.706699171889811 14.493750902228433
15.324883635916033 -9.277284685250123 15.159990332236141
15.543694713234451 -9.92672402020881 15.815434125343437
15.665117710199581 -10.620408393110221 16.450850847006148
15.715894858004726 -11.324492735658636 17.062085308836664
15.719746916024928 -12.026624667707363 17.654843565778542
15.691366664284127 -12.716107837443102 18.233367420548166
15.647363115214805 -13.356537099916977 18.777471387403736
LINES 1 75
74 0 1 2 3 4 5 6 7 8 9 10 11 12 13 14 15 16 17 18 19 20 21 22 23 24 25 26 27 28 29 30 31 32 33 34 35 36 37 38 39 40 41 42 43 44 45 46 47 48 49 50 51 52 53 54 55 56 57 58 59 60 61 62 63 64 65 66 67 68 69 70 71 72 73
POINT_DATA 74
SCALARS Curvature float
LOOKUP_TABLE default
0.0
0.04713515966556579
0.045177673495692704
0.05423307912167102
0.10224561307716704
0.2003897585337534
0.33098282988722383
0.400691281768851
0.3350628360574365
0.19300662510824532
0.12062029555308149
0.10307817832762436
0.10320671326371457
0.1142568114328919
0.11872584494252564
0.10410391414442388
0.08021629745816003
0.06984976095043235
0.09207204474491752
0.15216894944845802
0.26041957824253703
0.4411904094714782
0.6080669275072363
0.5730786362250403
0.40018008957191287
0.26897330935224156
0.17250713562115128
0.08584542497135837
0.016276642885863404
0.04365820920861504
0.09501406844511755
0.14592007014572858
0.18135451524008722
0.18834729923220353
0.16426011751076136
0.12836396490008242
0.09751867314809808
0.08488101876965758
0.087421506371016
0.09141914585429914
0.0861198487183417
0.07594036296333269
0.07665380921741446
0.09237639870989568
0.10823410322007608
0.11392785414308998
0.10855019157325664
0.09838713782318681
0.09078974519152419
0.08945787257190124
0.09021707758296302
0.08623326596002072
0.07294941938868181
0.05277542434894151
0.03215450099196244
0.018973273885980687
0.020118273614916523
0.031096526965319917
0.04487209944447321
0.06007681692796099
0.07606841091828398
0.0919315350581998
0.10721132532078435
0.12327512514396424
0.14032785198540348
0.15447564158819235
0.15899989778419782
0.14767538460328536
0.12016122041151944
0.08518727923386839
0.05749485423351726
0.04058420983677093
0.027560724705633834
0.0
SCALARS Torsion float
LOOKUP_TABLE default
0.0
0.0
0.25573184747154
0.43680444876655883
0.29990733284272747
0.17998201391199015
0.14913856945789025
0.18739559922265925
0.3256573645641178
0.4641106565714052
0.3960117242142416
0.13373387774921885
0.042296659360957195
-0.07624118989130027
-0.11847716232344364
-0.003358067468368822
0.22916161481019567
0.40587169105385734
0.270732132304843
0.1240228362892275
0.043488189869291455
-0.06488126943510253
-0.08369956311144461
-0.01110960479950883
0.04915293363223895
-0.027883023903341256
-0.010547511146560041
0.045375196754698255
0.9274612638344008
0.2034179484424039
0.04398898491440981
-0.04250824596043637
-0.10958110947726593
-0.1274777403511533
-0.07036456259486683
-0.016948946440551914
0.06966335177969463
0.15565062033138874
0.14169329551254398
0.1405818082046198
0.1696530708257088
0.31424655414703556
0.41415301078444205
0.2954169030099567
0.15903379775916346
0.07016788433609288
0.009350717829482068
-0.04795835663196565
-0.10167883669992013
-0.08202769705380253
-0.01093253212025709
0.0529461524710758
0.10640626089377493
0.20207474201286457
0.43588222439809976
0.7538060659059662
0.5964251848706306
0.24927064379437397
0.11040718213258449
0.058749023354091615
0.03189326697975061
0.007778461260967595
-0.02596373717275667
-0.05481599003939545
-0.05094298871100972
-0.0310444518860168
-0.028084082289787354
-0.04424792445474486
-0.08185843449394427
-0.12058176100172774
-0.12489300253549837
-0.2904150341677887
-0.6213546557593349
0.0
