# vtk DataFile Version 2.0
Vessel Segment
ASCII
DATASET POLYDATA
POINTS 74 float
-7.020253413432101 18.1642994946698 -9.201465814852376
-7.4207404755318995 17.398414553954847 -8.99520372653499
-7.864857151645591 16.602550049875276 -8.794483128647075
-8.326464045084201 15.823892423577172 -8.634652348271816
-8.786646193169965 15.084598788511666 -8.543570786969067
-9.223075887617536 14.398771923443384 -8.555508827023676
-9.604017808572634 13.777903755505687 -8.69295520202034
-9.90866802362787 13.21277673551957 -8.937772256178171
-10.133669502725832 12.669190025479935 -9.280432207745859
-10.263241954258245 12.133132058905348 -9.707556470111294
-10.297541127645545 11.577449046806773 -10.194787539645532
-10.22980411925535 10.990193818987404 -10.717155694404243
-10.049540106627099 10.384413842675183 -11.264088303655313
-9.759951357789188 9.783257074228937 -11.806128017692552
-9.372412193949017 9.188678256973102 -12.329158924996682
-8.918744746207286 8.61147238127363 -12.811884066861364
-8.439358658329521 8.058304181216771 -13.2092809084507
-7.974382755362545 7.53015343142309 -13.449803566059183
-7.5806454292588334 7.044384557125221 -13.451830949217763
-7.302887843757862 6.634871915281159 -13.17611171878586
-7.144482837088762 6.317878392739678 -12.638043339791698
-7.107907396308612 6.103983250111973 -11.860555017907515
-7.188301210818266 6.01333373030695 -10.92812206354874
-7.331143692186202 6.027145566256781 -9.95069003269322
-7.482172190270969 6.092254916012464 -9.016311510207267
-7.598986663353896 6.144547413273014 -8.154757942797861
-7.658981548476128 6.130266324095261 -7.349579647327806
-7.659548700820003 6.0147668318818495 -6.554722570116189
-7.594052954275232 5.765486670368648 -5.748063144553686
-7.454362250230794 5.343809100388428 -4.933671107590241
-7.236230933926283 4.709059493532323 -4.131932217556009
-6.943997354776095 3.8362439250134392 -3.3837595082699905
-6.602167479246049 2.7532738756294393 -2.7382440824768257
-6.24724558706129 1.5366429708201264 -2.2201401199275845
-5.908620408931484 0.27235679383424705 -1.8156199873117709
-5.596813230936964 -0.9782250767516286 -1.4852504949386844
-5.309518040332043 -2.170941357964202 -1.1804190327966169
-5.028831421663052 -3.2805447424965317 -0.8529764542996136
-4.724988513485852 -4.307405275404539 -0.47260757379189294
-4.369998344052856 -5.259074316635769 -0.02788095367476266
-3.933621840920653 -6.142961627112828 0.4917227974401367
-3.37242193902552 -6.971439759693336 1.078099919076719
-2.6923789354061958 -7.720444033454484 1.6691739534021424
-1.9058032110312997 -8.368653761247543 2.231588656565983
-1.0205486781357964 -8.900497295186977 2.755239675854326
-0.04985295938713139 -9.302419341365736 3.2444120652129813
0.9836570770987064 -9.565957838039765 3.7128995730973053
2.0504506602903154 -9.692691728485213 4.175260111449481
3.1208359285719767 -9.699675739092172 4.6455191102913025
4.174388656702122 -9.604260887125465 5.140582038672913
5.195464697536159 -9.421041282383387 5.6603146141151175
6.1708542165875535 -9.170975814049918 6.190845317058022
7.09365784558409 -8.877825759637322 6.717704875875311
7.965260958607363 -8.561945385970832 7.235124144474249
8.793711156000935 -8.235433213984699 7.7472511979328615
9.587489028218908 -7.903886419342268 8.262203443348566
10.353081298949501 -7.572486941882885 8.786232912643966
11.096813441338677 -7.251622999622568 9.322525293863563
11.823948366895895 -6.959402959822636 9.872347179354207
12.536537034683855 -6.719967625033218 10.436333735019698
13.231804255763963 -6.559631627781767 11.014307365675949
13.902414402866228 -6.503266123139064 11.604814102537615
14.537815057122335 -6.571824359881333 12.206457894132134
15.122046625104598 -6.780938732390382 12.818139693127522
15.633491148483984 -7.136834284777731 13.43635729311491
16.054121647931694 -7.636606379121915 14.055965206262918
16.373754660687066 -8.272283178687116 14.672141964068633
16.592747418953756 -9.022752644366657 15.27656640840909
16.728937123933374 -9.846198896096938 15.858384416941417
16.812247464891914 -10.689187763542302 16.40917444491394
16.869078347467468 -11.509443635603512 16.92557159370259
16.91241574663698 -12.290970390739322 17.41138707073445
16.94710780277365 -13.017082444317888 17.86615166750743
16.97574904631248 -13.652955927466744 18.26637752382438
LINES 1 75
74 0 1 2 3 4 5 6 7 8 9 10 11 12 13 14 15 16 17 18 19 20 21 22 23 24 25 26 27 28 29 30 31 32 33 34 35 36 37 38 39 40 41 42 43 44 45 46 47 48 49 50 51 52 53 54 55 56 57 58 59 60 61 62 63 64 65 66 67 68 69 70 71 72 73
POINT_DATA 74
SCALARS Curvature float
LOOKUP_TABLE default
0.0
0.032375693394621465
0.054279030765630155
0.08810393257427035
0.15638156669107756
0.2487546290774624
0.28210199079558884
0.2690529835185626
0.2504383363586615
0.18577524343774365
0.15582549038726093
0.14711630723955982
0.14138588866259688
0.12311712741618346
0.10244460540975207
0.11802414607390142
0.24688392271832016
0.5467253558546546
0.7464862142302761
0.5656779091094213
0.3101972329242324
0.19295043827076816
0.11983381457286206
0.06217316363728456
0.03356043524913024
0.13051817329474652
0.1805176549711704
0.191310030245662
0.18523401996636582
0.16517042438610025
0.14041167843167954
0.11454025846783635
0.0902853489535038
0.06602106266091932
0.03989429471064998
0.008902203148092092
0.03279683539272821
0.06738896042508447
0.08854013488838752
0.10356380273437307
0.1050878390970167
0.10275284375830035
0.10981252833896313
0.11682970353016257
0.1177067413440288
0.1119222665517913
0.1022211569770283
0.08751028794700151
0.07800790598825832
0.0717370444390775
0.06117074760612958
0.04835246126905946
0.035885058031828065
0.02750910897868815
0.025227285838738324
0.024885155615693204
0.025036034701014436
0.03608603947891013
0.061348934424037854
0.09477333029990336
0.13180858102669935
0.1671779017776438
0.19476016662369053
0.20787841919948535
0.20167991366044194
0.17876904241370165
0.14423285545272252
0.10307116251739058
0.06275895581016158
0.03138821892715594
0.014684981477893433
0.009270073607198044
0.004932733162747927
0.0
SCALARS Torsion float
LOOKUP_TABLE default
0.0
0.0
0.273628836170874
0.18851942006585803
0.16494975335359366
0.17563733471455875
0.274632645556325
0.2892137798863469
0.27890685854128494
0.4235560997924733
0.33593968960710135
-0.0013372783395625976
0.06986006357378352
0.11532293913532173
0.18542111866526695
0.46090998166711505
0.2980183284330027
0.1537100607143029
0.042240928766699146
-0.031110447602502506
-0.009074214486022452
-0.03184393445828266
-0.21623467471702107
-0.4487315784277501
-0.9699166918483277
-0.19996335303406498
-0.1228674987483559
-0.060854676092589745
-0.053823288389165364
-0.05443009349954667
-0.04583628980066932
-0.04992966402413346
-0.0634166070524259
-0.08815390914249377
-0.13569910063216012
-0.9490954152519169
-0.12374427172795588
-0.10850393122477811
-0.12148362953897124
-0.09974794672560136
-0.19490225198520028
-0.24789768975968615
-0.08968338204273668
0.0025444534166041977
0.06971057716851067
0.1252329947165205
0.14730732844711839
0.1804684952719826
0.2179652442405607
0.09843111703832022
0.012096869465731658
-0.013442878526380734
0.07770477563625125
0.2755054030283279
0.3334585563056528
0.32381011717069447
0.4784290400752345
0.4015813614909801
0.18557964599148458
0.07289407116748216
0.02373945803618986
-0.006045678157633627
-0.03847826926260702
-0.06168124783713001
-0.05448660589745628
-0.03712413019506434
-0.018543854640171865
0.004344328499292671
0.0180197268281222
0.009863828948282305
-0.3713696619327731
-0.9367915822708307
-0.7206547325849529
0.0
