# vtk DataFile Version 2.0
Vessel Segment
ASCII
DATASET POLYDATA
POINTS 74 float
-4.169834794076725 16.553794568106607 -5.614446193353172
-4.704913672299865 15.718573089836687 -5.563175360533311
-5.283767193052119 14.884754479489784 -5.464978264235935
-5.870281411702923 14.087789960685045 -5.386261829203541
-6.437489551347757 13.344943845802469 -5.390724853931275
-6.958154759764085 12.663564810599308 -5.5357160764719
-7.405498518811804 12.038908078502105 -5.861066261946633
-7.759737193591709 11.456730800459164 -6.373661818011291
-8.016354506045595 10.89322684442897 -7.039714124074073
-8.176625918972034 10.321803086748625 -7.81051939302178
-8.22552319012946 9.738609739530936 -8.627009319351064
-8.146456241087241 9.15293207495892 -9.435133692971428
-7.924781051438044 8.573467684183552 -10.221198574784122
-7.5615812369404285 8.00463052489852 -10.970574591767607
-7.084716505160674 7.434969777841331 -11.662722605198386
-6.5441805835513716 6.858296490285722 -12.261521933172821
-6.003474868748179 6.275336353755392 -12.7262266149314
-5.522466873713289 5.692595997421686 -13.011965441976892
-5.151991751766254 5.1257848614740835 -13.070508179065808
-4.929845986792722 4.601496147319295 -12.856120214796233
-4.882785949356656 4.153772094875937 -12.33392332517831
-5.013004445674514 3.833204421066485 -11.539560336111785
-5.283312155172747 3.674804853689563 -10.582269034324892
-5.633716056975452 3.6771644362597193 -9.562404055318684
-6.012757866561371 3.8124664356147266 -8.545892724235182
-6.37654140299377 4.037312459595925 -7.574792454677239
-6.687209045306792 4.291833739153003 -6.6691412279769
-6.926236422355724 4.524051687559625 -5.81566216427335
-7.080005759966135 4.686562610365955 -4.991853360062121
-7.139408342653245 4.730852745323184 -4.178569690399338
-7.102719196422193 4.614051663630481 -3.377450525865428
-6.979593324815992 4.313674455394994 -2.6083685600681026
-6.785383294145434 3.832792599276159 -1.8932107936604756
-6.533403893126611 3.1918961037778937 -1.2535484909306565
-6.2383394035596735 2.42568999590671 -0.7081488989320339
-5.918356025984471 1.5764873438591964 -0.2657396144311299
-5.589673682299605 0.6846381796397903 0.07645590706423028
-5.2633855551151 -0.219589039208569 0.3301148797648962
-4.942697432479301 -1.1181869503681146 0.519205610493233
-4.619058482396719 -2.006710129545088 0.671230183649872
-4.277899519086897 -2.888736999863643 0.8054078504619848
-3.909363434939658 -3.763646954246959 0.9432830576427526
-3.495919211754974 -4.62554371547959 1.1138337742733793
-3.0193538782871925 -5.46142394802881 1.3290969102164256
-2.4676181106562365 -6.249640555287583 1.5909618902471596
-1.8373783233473726 -6.963450000849945 1.899206012194425
-1.1356573403485695 -7.577433533449281 2.2550305912722335
-0.37617075506036424 -8.074840817814934 2.660416407822285
0.4273053441249982 -8.447612721800109 3.112819287238726
1.2644469325183598 -8.698995269892242 3.5980904257941426
2.1299059640131146 -8.843560080648114 4.099116469181494
3.021020916244618 -8.896741570842906 4.602872269525268
3.933241284745639 -8.86776151596749 5.1028231674780535
4.855729227101807 -8.758891788497234 5.599567993318889
5.774010888306959 -8.571103285648364 6.098964785758794
6.677950488777662 -8.311111925774119 6.608086287889579
7.56549355418436 -7.9957241401434604 7.131477700892138
8.440719390160089 -7.651427171625282 7.669066184045782
9.310565089205973 -7.308444909204345 8.217241430800094
10.180861381129095 -6.994873246436398 8.771925888343148
11.05252078798426 -6.7356061099355955 9.33111122534312
11.918916577694874 -6.554028590025366 9.896165402940936
12.763790918271418 -6.472333275991176 10.47089413497821
13.56127858835882 -6.508355232388339 11.057732343911894
14.283105731476509 -6.669769713786723 11.652990862758292
14.911233503833875 -6.95464696066301 12.247743495718131
15.438088341830078 -7.357204254005065 12.832457739299276
15.863469707489834 -7.8680185553166595 13.398867612031628
16.19608874973058 -8.473761367008892 13.941794296273601
16.45222429616393 -9.160381085000598 14.460529497207915
16.64787667134478 -9.915513608707032 14.959211955767644
16.797168872128903 -10.717300981809922 15.444185694119652
16.917494546389257 -11.523581445944211 15.91802998655717
17.02011636662525 -12.277513590112358 16.365771386967836
LINES 1 75
74 0 1 2 3 4 5 6 7 8 9 10 11 12 13 14 15 16 17 18 19 20 21 22 23 24 25 26 27 28 29 30 31 32 33 34 35 36 37 38 39 40 41 42 43 44 45 46 47 48 49 50 51 52 53 54 55 56 57 58 59 60 61 62 63 64 65 66 67 68 69 70 71 72 73
POINT_DATA 74
SCALARS Curvature float
LOOKUP_TABLE default
0.0
0.0553812628196283
0.03346980157686413
0.09728562181114779
0.19754936948724902
0.2828965278357981
0.27926541518019266
0.1998184154037815
0.12940209758320412
0.11312133594999173
0.127180324363431
0.14265989980394275
0.1421062471823075
0.12198502147542448
0.11325147861186745
0.13849924357991006
0.24123308493877904
0.46964260585600326
0.6894042362644568
0.5859055552183223
0.3366753412729038
0.20520197791701728
0.14503961222003667
0.11166512295609042
0.08652886541556408
0.057959916076316724
0.0654907321703291
0.13453827832112633
0.2208525335664993
0.2777257423579662
0.2786008636516059
0.23719844740693113
0.19131253761690076
0.15504500647222463
0.12743054988535168
0.106463470377237
0.08940249236164904
0.06547400504191725
0.03900511319472964
0.028206262014398614
0.030590619600162627
0.058759254728898
0.08164912656927503
0.09940436084419402
0.11646987990590785
0.13131388078956197
0.13978050436539805
0.14050388398222777
0.12882069629538567
0.10767279904511
0.08833515467473005
0.07628282279310548
0.07113069474105571
0.06924344296882731
0.06422484888326793
0.05052991734161985
0.028882658139019638
0.010156444178436159
0.02555229879285835
0.04702559271852558
0.0694396249426194
0.09545374335265742
0.12629846788044669
0.15774887975013757
0.18209610944004626
0.19577466483929812
0.19352957441382904
0.17160092490583473
0.13669939785553384
0.10208655709627067
0.06909792604732982
0.034715531808335906
0.014910062140533219
0.0
SCALARS Torsion float
LOOKUP_TABLE default
0.0
0.0
0.9406764706991937
0.290407156987731
0.13073096338091145
0.11144345788625383
0.12393078365862195
0.196875909863491
0.34085649936261375
0.3258149053772606
0.17780814906233136
0.0008307251848435615
0.03347810293443156
0.20699925714896947
0.36024421053448463
0.3957258619182025
0.24641246785693602
0.09893797329072532
0.004683024296952193
-0.030077425275228102
-0.04431622166735741
-0.05902506806123217
-0.12184243054121498
-0.1418062905848036
-0.24420997013786425
-0.7147621688573144
-0.7627651799126017
-0.33461204900432295
-0.18290923944320805
-0.13383132231634465
-0.11161721289774562
-0.07801604720581455
-0.03049363578656486
-0.00932644765002378
-0.020006974280622553
-0.02096850949404632
-0.017953613916475958
0.025777657662616818
0.3910889734533477
0.7014428551385823
0.6228155110686097
0.24010878465900926
-0.016051640646902787
-0.05740237230028846
-0.025015419203989718
0.022584510428574605
0.051211743808826565
0.029822549604380695
-0.04936617842540399
-0.10908896811623073
-0.12221118626949198
-0.05757975899635957
0.06609086547344278
0.14342891195286636
0.15115068678795016
0.16199364772890504
0.3276202210973406
0.9824130776384212
0.3398951999203482
0.061911597581708666
-0.03085141759013331
-0.07551139795035139
-0.08763407245983232
-0.0700573226038866
-0.02602099732734895
0.006181034599827426
0.019166269119621417
0.03324634615008966
0.053895454379875994
0.033275626702348876
-0.07193971869107282
-0.43086775107133957
-0.9705274832194446
0.0
