# vtk DataFile Version 2.0
Vessel Segment
ASCII
DATASET POLYDATA
POINTS 74 float
-2.88806136539656 14.853750698965534 -0.8274434318557322
-3.378047825687814 13.962570023427384 -0.8379646804484339
-3.9323461832792326 13.072793886570542 -0.7589721705250058
-4.510122094160351 12.224776206452127 -0.6663534800121922
-5.077702839414269 11.441919704391049 -0.6426788327805627
-5.604157640966177 10.73733145660766 -0.7581269689238582
-6.071283539991878 10.102645134235292 -1.0676518554961183
-6.465969261549214 9.522532568076109 -1.6316679240452419
-6.764764022273996 8.997902225925943 -2.436057521919947
-6.962798536307095 8.498301621784007 -3.3971536493538323
-7.048247955966807 8.010777328435903 -4.420080012460396
-7.012066953903901 7.537392018097376 -5.437422345964728
-6.845617767102586 7.084650168231526 -6.4147853404787085
-6.5514706632990585 6.650846892219582 -7.340106748472678
-6.14763175473045 6.227373038514751 -8.201885426326099
-5.6548402549761265 5.804982795324051 -8.983712513637284
-5.107536416923597 5.377129620552592 -9.682582231186167
-4.544417537056698 4.9335805749408035 -10.304262542049049
-3.989564123830272 4.45013481973822 -10.850406520712374
-3.4738875591956675 3.904687718585615 -11.266312760380883
-3.077413825187949 3.341041031265928 -11.440133091367393
-2.835583293348159 2.8395506079377384 -11.380665870791018
-2.722466518005527 2.427377052573539 -11.131084598629332
-2.7393883480543373 2.131239450091818 -10.704460402257132
-2.890344334262235 1.9745381204709194 -10.116108602530588
-3.1748751159858313 1.980156076848397 -9.394009640272778
-3.578855928676972 2.167494517418773 -8.575999195272752
-4.052918667595505 2.5170330348068184 -7.7225827386041725
-4.536477625332126 2.9653196602585443 -6.849835280244434
-4.976403421366151 3.4352783595974192 -5.949114063530711
-5.334794696458673 3.8579669204592175 -5.026994885810153
-5.5976455047527605 4.190854783421983 -4.093862265488691
-5.754526410113899 4.396025231942294 -3.1624462490855607
-5.795516255172327 4.433899133565985 -2.265978885371045
-5.7279106250870875 4.288232772622944 -1.4576040829782966
-5.579258181090539 3.9803037213079193 -0.7814866881461155
-5.38065117282338 3.542376385831274 -0.26323416257447946
-5.160423654621951 3.001425122191117 0.08815684364873018
-4.933659085197577 2.3687702448546846 0.2865328186593776
-4.70080831238651 1.6388727285206477 0.3449292537169313
-4.464049433225662 0.8030671982746069 0.264472711076174
-4.25260817216348 -0.12044593776261263 0.08767321739128836
-4.052106257854004 -1.1117163437989277 -0.07394938529887936
-3.8335967403637907 -2.1489460453663534 -0.15085913248368008
-3.571206914696013 -3.2044651587781656 -0.10710547733567033
-3.241090214390116 -4.2460390930400544 0.07113849416606431
-2.827079075253521 -5.235790485274654 0.3791888568312212
-2.3245091143246164 -6.137475001915112 0.7999438465162981
-1.7381211003031265 -6.912553370849332 1.300301573210665
-1.0761277474623046 -7.544208057211264 1.825059654676071
-0.3393413189899956 -8.042229328043714 2.339329199218861
0.47405623501161004 -8.413676480323241 2.835065542739636
1.3583170943163383 -8.655738801970443 3.319003910176483
2.292939675261776 -8.76276951550929 3.8022561394011762
3.248346813255016 -8.739342312038675 4.294526449925712
4.202797457266796 -8.606462794669028 4.8020092069301015
5.1492858513309265 -8.397292662194682 5.32686018522408
6.090696707073295 -8.1487396189644 5.867379403562313
7.034031550059067 -7.892262882887255 6.419271905726335
7.985261599638844 -7.6492118352065255 6.976872753418811
8.944932755861569 -7.433688995851362 7.535090506922108
9.905733613534991 -7.2574361017160465 8.092461004725843
10.851505668889207 -7.132751869446541 8.652620525530113
11.759323347934009 -7.071578934159411 9.220809811137613
12.605791151436978 -7.083588612427153 9.796933098650324
13.37412486392729 -7.176861150166527 10.372894230394031
14.052537150135858 -7.360213104058196 10.937522843846947
14.628176043957103 -7.643486154868146 11.480951231399958
15.090296748424 -8.034017831733632 11.996120883840272
15.443071367543201 -8.534447069034037 12.482552698366398
15.70403781544533 -9.144937593059414 12.949783619802604
15.895376067919488 -9.849944158163732 13.410525137023846
16.042979275420425 -10.61180033531001 13.874806734051152
16.16667250691478 -11.372783019540718 14.340097363194618
LINES 1 75
74 0 1 2 3 4 5 6 7 8 9 10 11 12 13 14 15 16 17 18 19 20 21 22 23 24 25 26 27 28 29 30 31 32 33 34 35 36 37 38 39 40 41 42 43 44 45 46 47 48 49 50 51 52 53 54 55 56 57 58 59 60 61 62 63 64 65 66 67 68 69 70 71 72 73
POINT_DATA 74
SCALARS Curvature float
LOOKUP_TABLE default
0.0
0.09286557697674873
0.04295176401721597
0.0787729763516071
0.1882766100955876
0.29019267948886135
0.303357764089671
0.2214332395813857
0.12661118485783301
0.09417929789356534
0.09678584651815866
0.11367172687849902
0.12147513882119262
0.11595388949579594
0.11390101621869603
0.09844676312863813
0.08075181816687486
0.09589471105508073
0.1902131110508405
0.45265056849484503
0.6961485145874495
0.7637264300931038
0.6996746560580485
0.4751000911746165
0.28681614872854505
0.18616924318040146
0.1276689191231153
0.06781611368219098
0.04422610905786294
0.07990555014982065
0.11760360042950346
0.16905870143208204
0.24413866757790476
0.3213503895296708
0.36784409825929315
0.3961333872027738
0.4008027326466425
0.3395103306671441
0.2466240949800988
0.1706821519621817
0.0981680424146258
0.03321469490675065
0.07809610728039423
0.10542231118137722
0.12055017077134016
0.12902709316006108
0.13426149996574674
0.14232465730350113
0.14443935159035526
0.14361642343065836
0.14157002475109007
0.13493947206646303
0.12526433342497045
0.11196693763050496
0.09143032335970055
0.06330359185396577
0.03299639993364304
0.00849086670344577
0.011943843652208073
0.022446227104721446
0.030739002934349294
0.04160470869643523
0.05853366686651747
0.08030987643533834
0.1056478034033353
0.1401378500339136
0.18984386813837095
0.241434588151567
0.2522302459893128
0.20681928210463427
0.13605545431808533
0.07060293505147552
0.029206354581486973
0.0
SCALARS Torsion float
LOOKUP_TABLE default
0.0
0.0
0.8696135677226198
0.5628254839780714
0.17602715396862012
0.09921842007728018
0.062495465290709123
0.08260575054107606
0.276150214510479
0.35685744300560085
0.19696040798865058
0.05912177045706754
0.04524200174219012
0.11152970366901063
0.15936345277156863
0.21617801182274016
0.4402221668520652
0.4046190283457229
0.08082909141000055
-0.014521290490384586
-0.0195340709378941
-0.14786168207370878
-0.049894814705856466
-0.012355845242213455
-0.006228039503209805
-0.04569251270680048
-0.10759572238809946
-0.47335623375532243
-0.8534885846227306
-0.3472392555171889
-0.1595117768240684
-0.10373411535863399
-0.08148658811648614
-0.0826058737083864
-0.09191011832339185
-0.10435445552783562
-0.12588305802039407
-0.1048837257042963
-0.03588073822331535
-0.04127183077602621
-0.4197297682136169
-0.9852585508609024
-0.2737548196576357
-0.13894419059384658
-0.12528362559675088
-0.11864722263543963
-0.09883937589767998
-0.11923909446290665
-0.22717498941225236
-0.20591542505559973
-0.06597945982935932
0.059165014932544516
0.13170837376985578
0.15707019284372417
0.15043672076561104
0.15116986890751813
0.24977864429733868
0.9497262568610836
0.48919791119224176
0.08902195438190513
-0.06282163538547737
-0.15825745686146575
-0.14871407380443116
-0.0763629515344569
0.015581515901157986
0.05823218473158222
0.039021584982022586
0.01857580212321853
0.029041525239113734
0.024200968816167616
-0.03416959263651366
-0.2121652188110354
-0.8803939843392301
0.0
