# vtk DataFile Version 2.0
Vessel Segment
ASCII
DATASET POLYDATA
POINTS 74 float
-4.658363107905284 17.383674409407405 -5.420690727404019
-5.092137244233341 16.514725018601297 -5.292138244838632
-5.600129721629404 15.625423031091712 -5.155408466682157
-6.1315160566770075 14.770442381342885 -5.0692894872400425
-6.647394207628535 13.972744496200688 -5.082416546646233
-7.1128256594440264 13.242214516005197 -5.234200775098164
-7.499915457796681 12.576221722315964 -5.544445641082044
-7.791263734493648 11.958955413954916 -6.0142947103445055
-7.9758248603063775 11.371205620881133 -6.625157085955853
-8.04446160013293 10.794538257625764 -7.339963520406867
-7.993289792228854 10.220736623619846 -8.11445424076494
-7.818228646941043 9.652008768990301 -8.916696976767525
-7.525425101494279 9.092071079382505 -9.717930442701597
-7.129556243473794 8.533365497004771 -10.506972578371421
-6.656690752364219 7.971568950653351 -11.252471473155632
-6.140653301891615 7.406572074319684 -11.909124734536952
-5.619309616266025 6.842882188194547 -12.435150082505215
-5.133263733814655 6.28668985763853 -12.784983925113888
-4.724798058168586 5.748679799822301 -12.913925616926983
-4.430095714416528 5.245417102970879 -12.787581539795612
-4.277746822387633 4.797690500779414 -12.382110243304698
-4.291099063943925 4.447795206751393 -11.719015799612782
-4.459880348966975 4.236893181256549 -10.9012857579843
-4.740497561350447 4.17410951557929 -10.02600021384207
-5.083225561946096 4.246693576010852 -9.162384352104493
-5.436049953398367 4.419508497303411 -8.336386370273555
-5.755034954556589 4.640917602159428 -7.539007908253583
-6.016197698226181 4.862928810026885 -6.73894393854402
-6.198382332168688 5.032679880780917 -5.913769449834715
-6.285663278702367 5.088405025468827 -5.060086736222844
-6.279319371105799 4.979221842753147 -4.206212731704757
-6.200268988822467 4.686956107232836 -3.3908423496401796
-6.068673328219903 4.21788808917699 -2.6384349559011273
-5.89488463161458 3.5883747465105706 -1.9613799468061295
-5.686515840522501 2.8284804692088596 -1.3722455765740755
-5.453100537259564 1.9858492739811613 -0.8793171498809388
-5.20255252762911 1.10543593566063 -0.48161384443350075
-4.939689024620786 0.2165510475327915 -0.17374383480796993
-4.664087095844057 -0.6678688440226165 0.05669933122449246
-4.36695471431769 -1.547109184963363 0.2220007636142887
-4.035633552780091 -2.427918729103758 0.33352555718122534
-3.665807366626941 -3.314843156939332 0.4142278139784546
-3.2503922468759066 -4.201409589354698 0.5042073899234398
-2.779723755723714 -5.068015861999704 0.6356199797533219
-2.2459381055474674 -5.883882389839367 0.8319291994971143
-1.6447338600840462 -6.617078399551643 1.107478787413351
-0.9777865236951617 -7.243327311098945 1.4689712592390363
-0.25238414507713813 -7.750505631889601 1.9155560247047854
0.5215780469941076 -8.135523633439727 2.4361312093106395
1.3348573101937622 -8.40335530301662 3.006721226463758
2.179900413539124 -8.564587336480487 3.601580323479834
3.0489545320752875 -8.629006181986313 4.201367203874327
3.933571118487795 -8.604729431640482 4.797101734026335
4.824843713381209 -8.500317835020777 5.390011290929373
5.714447913626071 -8.327245971507242 5.987607716979689
6.5961554624721686 -8.101982681663165 6.597679492820788
7.46678083372073 -7.847549460571953 7.2242340186752205
8.326699596171048 -7.593041511527812 7.868251138033632
9.17690204579309 -7.370085483854038 8.529168780552066
10.013493695030677 -7.209488431573274 9.203718791097213
10.826098683118541 -7.138475284256226 9.88509396645787
11.601592472992794 -7.17841275405111 10.566001806882703
12.324677470254251 -7.3451653057072175 11.242674694592719
12.973662579144003 -7.647651651911931 11.913312533377539
13.523177637768516 -8.082868382345037 12.57256606418058
13.958791583875092 -8.637189722482299 13.211480092228332
14.281731049661078 -9.295595711034787 13.823609450467696
14.50241628151229 -10.04194020608732 14.405314750502791
14.63847557883263 -10.850346237114517 14.953362508772088
14.717352932243614 -11.684936725034198 15.467068415880354
14.76934705735974 -12.518787139266346 15.953649171478697
14.816234084246766 -13.341127354381577 16.427319186546107
14.870512351254272 -14.134334820175798 16.897187400763492
14.935111359572385 -14.860812463304415 17.347648901160667
LINES 1 75
74 0 1 2 3 4 5 6 7 8 9 10 11 12 13 14 15 16 17 18 19 20 21 22 23 24 25 26 27 28 29 30 31 32 33 34 35 36 37 38 39 40 41 42 43 44 45 46 47 48 49 50 51 52 53 54 55 56 57 58 59 60 61 62 63 64 65 66 67 68 69 70 71 72 73
POINT_DATA 74
SCALARS Curvature float
LOOKUP_TABLE default
0.0
0.05087124558789221
0.060658700902444136
0.11213076121062818
0.19302472465622936
0.26324674523458
0.2715927438412333
0.2223179345136026
0.1657209090974503
0.13140624485586533
0.11992363076641756
0.10968040385706167
0.09100471033225185
0.08050528601418985
0.09103111929088313
0.12558204358791195
0.21866950000909263
0.4198684664409934
0.6561294427824726
0.6482535861101065
0.4362520506177756
0.28388474290063415
0.20633223375207146
0.16840651535214776
0.1271484275450581
0.0767760502589023
0.07376118160150172
0.13106115461254958
0.20094159485713375
0.24885965845750713
0.25609583143776005
0.23104448976163017
0.19165924774332035
0.1549394373909121
0.124672377500464
0.10390236797193106
0.093449731639782
0.08345447103454331
0.07653537697241233
0.07042483985819625
0.0498536333184855
0.04353110242437656
0.07107325180543582
0.10441452273389475
0.13545058851111705
0.15572025376232346
0.1576904496701291
0.14440332986745344
0.12245618557228773
0.1015670455082734
0.08776430234792537
0.07826263199485609
0.06870120652507437
0.057433184881894625
0.04416262166905884
0.02839404818310085
0.016732429092141215
0.03050098315891379
0.05439957548427921
0.08022913306997763
0.10696543463857557
0.1339260119210305
0.15901162762625096
0.17757315111079308
0.18136162140664508
0.16807713585851547
0.14282211101261758
0.11090311104259677
0.07399282145715849
0.03721716790880168
0.007676442796974374
0.017166128059213102
0.032868478516197536
0.0
SCALARS Torsion float
LOOKUP_TABLE default
0.0
0.0
0.5995217963513827
0.28806672868502764
0.1660112831342616
0.13298892626390874
0.13869942488657896
0.17852208145145645
0.2701167617137879
0.27107895315741165
0.14803496810656908
0.11480686417566162
0.1273229456391511
0.2677465921312929
0.31001512825855837
0.24545787062276256
0.18072566952575236
0.11908680804899557
0.06109441545202073
0.023376168531150772
0.010092215217924354
0.0038016559115250856
-0.06848739334712767
-0.11670317624971338
-0.304795416706576
-0.7930918510322993
-0.8073617605287227
-0.37048813267173775
-0.20936993075900737
-0.16975123658112448
-0.1586756407359225
-0.10447143387554479
-0.0351573664951499
0.003663563214451257
0.029974991008414408
0.0559591157328228
0.059335154647448735
0.09370257690712461
0.1830000218848046
0.21633371885660263
0.3736944130688946
0.7239752911330513
0.2450608557377732
0.06241934106561209
0.008484813809803857
0.004227185204812132
0.007144304777242566
-0.019923844220208917
-0.09456121221410682
-0.1406524176095354
-0.11954297210991298
-0.03950821299539524
0.062304948207420545
0.15673867836096722
0.23632754738272246
0.41996821337780643
0.8525799645763925
0.3990948690591992
0.1274058825876716
0.047345215946169195
0.012770307990349228
-0.023143890731780838
-0.061283934389058686
-0.07423243246933374
-0.04412981391546728
-0.005094965173082333
0.015285447744774878
0.021580155313027236
0.046930874376055164
0.17366729621436214
0.7368284094002813
-0.004092890751038802
-0.021209456794088526
0.0
