# vtk DataFile Version 2.0
Vessel Segment
ASCII
DATASET POLYDATA
POINTS 74 float
-6.660345621323245 16.277424300534268 -5.038778418471473
-7.037588713225834 15.380559223706042 -4.968406281085378
-7.4880085385771675 14.464032895364758 -4.865547106280427
-7.962581442940031 13.587395856119059 -4.793083061261136
-8.42547669293308 12.76997769379621 -4.809606226474365
-8.843247502722363 12.015214601282606 -4.9695449583694185
-9.183468912752437 11.31875140944914 -5.307784454085098
-9.420031760430293 10.66974429022161 -5.828283608062496
-9.533943299399754 10.054174117624358 -6.507459342006044
-9.511360640873553 9.46367323747996 -7.293327661101959
-9.357072188241077 8.89173456569903 -8.121040888094766
-9.08107271804592 8.34033444891214 -8.941849128315956
-8.691454379167935 7.815259692544022 -9.728851674445632
-8.200186162414385 7.307247713504776 -10.4686584510583
-7.622832800242052 6.798871088126549 -11.149652710682737
-7.00085200761215 6.2855658638266325 -11.740868329265151
-6.392743623056316 5.771808379242748 -12.199882129495878
-5.85286074021632 5.262955508253526 -12.483653220069932
-5.433909341281282 4.772044661625954 -12.55237732271431
-5.167789827518811 4.3155454232239325 -12.377111261395426
-5.075364530098605 3.9210131048462395 -11.949261287865337
-5.141822089885517 3.608369190997964 -11.336873437319287
-5.330255882660909 3.3901075781060834 -10.597265796435284
-5.611403551768074 3.2825031032777723 -9.78801626418521
-5.944953027834535 3.2780028785730506 -8.967309055154919
-6.290563261581176 3.3556051030269876 -8.162596351888975
-6.611787293850856 3.4849569349731193 -7.378472424157502
-6.877059762557732 3.625183813682504 -6.616147288433111
-7.060579436177459 3.727874920663769 -5.867297411245819
-7.14667465802729 3.7450487726486754 -5.1253542443057665
-7.132201304794752 3.6388515573901663 -4.399944017002074
-7.027404415597738 3.392580793499498 -3.7094332601551456
-6.8473563464863885 3.0065572213140537 -3.0662310453031485
-6.606562714908776 2.4881096816228143 -2.477958275306933
-6.321344411989461 1.8566679710551737 -1.9537723361735986
-6.007024516217346 1.140760859492692 -1.496013019098369
-5.676287651612223 0.3661571322368131 -1.1032023397132953
-5.340504531025873 -0.44301880585682574 -0.7748026884115292
-5.002044640950108 -1.2691016057327844 -0.501709024181312
-4.650192336178736 -2.1041801431705522 -0.27010600972998106
-4.267672856448011 -2.9430820820606196 -0.06259000005587435
-3.8380919031061973 -3.7785151025003194 0.14713270641089254
-3.350386847895705 -4.590737923054685 0.3874443993078606
-2.7939331224962283 -5.3568815523927 0.6784691853499321
-2.1596335449888935 -6.054269745930029 1.0298843091750758
-1.443351632157341 -6.660397334912242 1.4416325325325443
-0.6486186585302743 -7.156489025702193 1.9066579403187112
0.21400945218353987 -7.5325509708621 2.4143269085465056
1.1292915914916306 -7.7882465649186265 2.952055717937139
2.083074617098863 -7.929580198050405 3.505627298325454
3.0617733005368244 -7.96460563785799 4.060961420125867
4.051254207575403 -7.901142355935783 4.607756924042732
5.038780194201097 -7.745893443116845 5.143793139753145
6.012667421788598 -7.506236401654514 5.674017444454187
6.961887514615793 -7.195023973016599 6.207178773650968
7.880186722439825 -6.833437547195153 6.75218498085668
8.770337938870432 -6.449274283014039 7.314549067253485
9.642937897958326 -6.072756190901503 7.894985737248718
10.509732462269097 -5.73238188303377 8.49073907925929
11.377690574123896 -5.452086581553427 9.09720083245223
12.245329120549767 -5.25160303908651 9.709061596857659
13.102308843839392 -5.14931697122711 10.321661465316309
13.930078105462616 -5.164683224629139 10.933032574555435
14.701984984149354 -5.317278940950649 11.54370932887982
15.387484038262123 -5.621404011893273 12.153432718838676
15.963581901684226 -6.083282156213762 12.76078177546207
16.416166880064527 -6.702602464355242 13.365434891320934
16.736207291695962 -7.4658758960649685 13.964236563757728
16.926668238001437 -8.336865555018138 14.548789935391824
17.010905983524157 -9.263730631772356 15.110510157423553
17.023601610026294 -10.20219245798075 15.647458506047021
16.99669920912011 -11.12051725994235 16.165565001329334
16.960147552805807 -11.982864317726408 16.670203539168988
16.935114188461114 -12.74855930866031 17.149645357507616
LINES 1 75
74 0 1 2 3 4 5 6 7 8 9 10 11 12 13 14 15 16 17 18 19 20 21 22 23 24 25 26 27 28 29 30 31 32 33 34 35 36 37 38 39 40 41 42 43 44 45 46 47 48 49 50 51 52 53 54 55 56 57 58 59 60 61 62 63 64 65 66 67 68 69 70 71 72 73
POINT_DATA 74
SCALARS Curvature float
LOOKUP_TABLE default
0.0
0.05993105291788753
0.04937474402366393
0.10381314174438502
0.1990004536998817
0.2762313013457608
0.2736407463544384
0.2159978348503606
0.16293368512680928
0.12715677673903836
0.11576829274038936
0.11541973417310844
0.10771981926817864
0.09803908792022673
0.09745942013537179
0.12927030826366903
0.23494536743993488
0.4782157063945389
0.7316234568458339
0.684699336235299
0.4210211687157993
0.24671649201630558
0.18291388005069265
0.14215856277126218
0.10883745935444475
0.07790592326725662
0.07269361451497584
0.13633423474304537
0.22581749872749082
0.289054171681293
0.2973549148308089
0.2602041521100417
0.20905927090966783
0.16334954975191626
0.12430947945720695
0.09784163809042891
0.08287125605273057
0.06632892977106952
0.050744227687946175
0.04223543269947309
0.046895088379515025
0.0705362058847005
0.09691523765980675
0.11606898262425783
0.126840166215343
0.12898280119121197
0.12233504127606176
0.10961520292055066
0.09582149225760003
0.08461014094472791
0.07695174282267699
0.07157870566310037
0.06643695981109021
0.05900780114942799
0.04732043706980699
0.03151570223850377
0.020480825218873077
0.031885779587612954
0.05033526318214341
0.0676460158171543
0.08653838933542801
0.11199885136602518
0.14652783622055812
0.18399133568666656
0.20678838957708828
0.2025049648982493
0.17589409346375787
0.13915371663577059
0.10037494729439347
0.06536307257293264
0.03665152911806974
0.02032889149392826
0.038211129934416735
0.0
SCALARS Torsion float
LOOKUP_TABLE default
0.0
0.0
0.8071098497142148
0.36863419648693346
0.175777037239975
0.13017029628079807
0.13738855357653493
0.17855435088614138
0.2501424232556547
0.2961790570014436
0.20040748821652818
0.08172129489465357
0.13713849313338083
0.22368925434796263
0.3060294863322216
0.3169315681249265
0.20460694838435878
0.11638541597815219
0.018579183279889958
-0.020360194142172654
0.020962983021861906
-0.11804244348149208
-0.09676203389290881
-0.1108739705308465
-0.2892322823015563
-0.647745740492189
-0.8194839752274771
-0.47766041866727643
-0.25658109834658727
-0.18454687481958265
-0.14853581091145746
-0.11057490514762423
-0.08592371719585178
-0.06676524732712133
-0.03843294717086781
-0.03555574454974705
-0.035432199191920775
0.06577740587994446
0.3567722100415991
0.5917160408201815
0.5550904505385456
0.291362407284724
0.09298087856322831
0.006822556088495996
-0.027942233118684004
-0.033024501192883866
-0.025809566463100415
-0.022007799747638307
-0.04224959963660154
-0.05265417141955461
-0.02714726030263223
0.03485169778938767
0.10280127145080771
0.17187291910623437
0.26373492156897416
0.4771793852264983
0.810748025133693
0.4378388618231736
0.16332371944921464
0.053304246470576716
-0.009829446122638148
-0.0541352330941597
-0.07696651228833078
-0.07258729515302625
-0.04821122325730581
-0.03664799941127117
-0.038960607046958425
-0.045204803112975984
-0.05255739077233575
-0.07787562194763842
-0.3452673569474797
-0.9475003253851371
-0.5104231866609712
0.0
