# vtk DataFile Version 2.0
Vessel Segment
ASCII
DATASET POLYDATA
POINTS 119 float
-0.0032611674463258683 -0.004316663887988802 0.001383310350756946
-0.007158702030028276 -0.009337280583207017 0.003035125865744918
-0.011541565825406913 -0.014902503046598957 0.004836909495641237
-0.016224538282780157 -0.02076958153137043 0.006602996986281362
-0.021039999192465936 -0.026683454100911167 0.008191295333385572
-0.025879617663449657 -0.032485375953626626 0.009517256954861136
-0.030672853228041023 -0.03809490485445464 0.01049910721064483
-0.03535992075275439 -0.04347224460192472 0.011038412140206498
-0.03987743060837778 -0.048602609748620115 0.011029781491382135
-0.04416055056892626 -0.05349887745945363 0.010386895010407378
-0.04814927373557806 -0.058203128978402366 0.009056879262024094
-0.05178970915502427 -0.0627810630122566 0.007024614794865769
-0.05503122943053379 -0.06731531161069257 0.004299881140478527
-0.05781580820820196 -0.07189022942237444 0.0009099119551588724
-0.06005399073155614 -0.07656706639352105 -0.0030796013431465385
-0.06169470007469397 -0.08139589557549629 -0.007527175895831185
-0.06272764186120658 -0.08643232265753313 -0.01233448026003536
-0.06312209500307066 -0.09167566658847677 -0.01740888790666316
-0.06286664054590545 -0.09709232269588591 -0.022653466849642298
-0.06197557681402444 -0.10264072408282834 -0.027987538764221824
-0.06048194647108722 -0.108290688526335 -0.03334793104689142
-0.05843153748754624 -0.11402255103307692 -0.03866707963940511
-0.05589454020409066 -0.11981103015482118 -0.0438408224655015
-0.052980532508321854 -0.12560651742550968 -0.04872003628589947
-0.04983240501668963 -0.13132823549594597 -0.05313541309020691
-0.04659835618060454 -0.13688196893428217 -0.05693360500815542
-0.043413673070204065 -0.14218279028115477 -0.0599791314468135
-0.040410458356328643 -0.14713433280855595 -0.06211496763624383
-0.03775596805845784 -0.15157873529882374 -0.06316336932348783
-0.03560256814718123 -0.15532026040670147 -0.06306744206942072
-0.03397697092465838 -0.15827126385339696 -0.06194884471689749
-0.032774477022820804 -0.1605193670109945 -0.05997599915835308
-0.031884903332495725 -0.16220858271307312 -0.057167302125827615
-0.031255105160289384 -0.16338150284294134 -0.053469376531726065
-0.030864095761406175 -0.1640428434285375 -0.048871476735640705
-0.030706163555163875 -0.16422126720694596 -0.043432874096204305
-0.03077253633695391 -0.1639872051096404 -0.03730667431898411
-0.031029751724374045 -0.16345781086621727 -0.030749185003911314
-0.031411532771624256 -0.16280050677649627 -0.024099088479203307
-0.031822766872993305 -0.16222274253629895 -0.017638219152590267
-0.0321969307757511 -0.1618980978853341 -0.011409426149818432
-0.032501183772153004 -0.16193879032186878 -0.0053448805360890375
-0.032703323410487435 -0.1624396828431536 0.0006427337384161602
-0.032773545985343155 -0.16349174549510365 0.006641778717742295
-0.032686415065625404 -0.16518466075292815 0.012719211953193824
-0.03242365362029014 -0.16760199381635765 0.018904374631427134
-0.03198401479346165 -0.17081453808762487 0.025179933006474677
-0.031390308079282704 -0.17487201984961714 0.03148968246952827
-0.03067658452186975 -0.17981877796081602 0.03776563785500773
-0.029876551324636735 -0.18568880031801516 0.043915700392260254
-0.029028303972560728 -0.19245939001248571 0.04982020964593324
-0.028175568694404945 -0.20004160509084484 0.05537680677152915
-0.027358511670290676 -0.20831771931727086 0.06052615559930727
-0.0266051423262661 -0.2171601072444826 0.06524611458184747
-0.025924331537021852 -0.2264352986174779 0.06954496395073295
-0.025303116751351367 -0.23599510258293935 0.07345625560164856
-0.02470763268810869 -0.24566809973914802 0.07703806378315822
-0.024087900206784123 -0.25527127342621037 0.08037892005315271
-0.02338211545533177 -0.26463982645610246 0.08359867238011957
-0.022515482095001097 -0.2736626625844407 0.08684081005628243
-0.021397442878147436 -0.28230524836193405 0.09024506765106927
-0.01993899761011058 -0.2905878687696203 0.0939085225521118
-0.01806351866777103 -0.29854643162493055 0.09788265983596386
-0.015705516491656996 -0.3062100060153853 0.10217570161336906
-0.012816508688817197 -0.31358737969845124 0.10675617759351494
-0.00936740290111629 -0.32065995582780976 0.11156356029694335
-0.005348383803220053 -0.327383050939222 0.1165163644712505
-0.0007684539799347788 -0.3336946655945627 0.12152283726143533
0.004349892788425974 -0.3395327234897778 0.12649553129618307
0.009981305142016847 -0.3448492817269392 0.13136502007597298
0.016102501421945872 -0.3496078928455503 0.13608572743983957
0.022689586625091865 -0.35378243921058744 0.14063675061856867
0.029713298493231694 -0.35735671211952413 0.1450219084197416
0.03713576091939606 -0.3603238798681601 0.14927141852560427
0.04490997397924716 -0.3626843999490157 0.1534398453346583
0.05297893444087361 -0.36444237819929776 0.15759619175190592
0.061275835732138115 -0.36560581102987455 0.16181023680410594
0.06972683574283711 -0.36618986635054374 0.1661375147000291
0.07825780726511172 -0.36622345066331147 0.17061193758944393
0.08679942217221721 -0.36575034001810286 0.17524411262079886
0.09528914182875967 -0.3648322127432064 0.18002350586514465
0.10366938448619879 -0.3635448479317078 0.18492584640034754
0.11188652286638844 -0.3619760329982997 0.18991373787159566
0.11989373480429535 -0.3602207334291793 0.1949432414745091
0.1276572883019406 -0.3583772977086137 0.19997284414850022
0.13516283861066608 -0.3565366778455352 0.20497240643317152
0.14241910168397307 -0.35477099725885464 0.20993060433941263
0.1494505821777085 -0.35312719838790974 0.21485194150194323
0.1562839834351995 -0.35162909114573804 0.21974745516251418
0.16293963450293347 -0.3502869984026412 0.22462724943310383
0.16943113243278832 -0.349108676739861 0.22949546760443582
0.17576841405540422 -0.3481109660237644 0.23435113103361668
0.18195563231871814 -0.3473279639227852 0.2391902690384345
0.18798834509392923 -0.34681649569216244 0.24400512354050247
0.19385117920047742 -0.34665148373185395 0.24878915853367659
0.19952141413818608 -0.34691603192422465 0.2535371743663182
0.20497285899448797 -0.3476948090434628 0.2582472095735939
0.21018003907426358 -0.3490679065585915 0.262921507306196
0.21511467222184466 -0.3511077184846807 0.2675633844214299
0.21974223594359116 -0.35387467058609096 0.2721781590504685
0.22401276720880134 -0.35740919162279794 0.27676936922407763
0.22785532831088043 -0.3617217380746311 0.2813378886716383
0.23118318758471543 -0.3667845158376039 0.28587756021050864
0.23390980611416226 -0.37252635742892193 0.29037539063446693
0.23597544024327322 -0.37885047823047874 0.29481896012406217
0.23735462045933323 -0.3856552336291634 0.29920474186256685
0.2380536799015953 -0.39284266251729427 0.3035349400114152
0.2381113813675293 -0.4003073669800996 0.3078058866571656
0.2376082848298947 -0.40792489234677387 0.312001867048063
0.2366694581986079 -0.41555069866056915 0.31610084849026815
0.23545034713593893 -0.4230362496369245 0.3200809559520848
0.234106561350394 -0.43025175063312787 0.32392893289968483
0.23276808769273813 -0.43711317257236576 0.32764055272652054
0.23152029271367272 -0.4436042346655204 0.3312278704838172
0.23040613476613842 -0.4497673782419453 0.33472187886813604
0.2294478942490987 -0.45565121048066387 0.3381544495742419
0.22866657413384497 -0.4612420522968697 0.34151685818079675
0.22808355085476373 -0.4664415436683972 0.3447213594729307
0.22770795162077748 -0.47112400567194446 0.34762853072181743
LINES 1 120
119 0 1 2 3 4 5 6 7 8 9 10 11 12 13 14 15 16 17 18 19 20 21 22 23 24 25 26 27 28 29 30 31 32 33 34 35 36 37 38 39 40 41 42 43 44 45 46 47 48 49 50 51 52 53 54 55 56 57 58 59 60 61 62 63 64 65 66 67 68 69 70 71 72 73 74 75 76 77 78 79 80 81 82 83 84 85 86 87 88 89 90 91 92 93 94 95 96 97 98 99 100 101 102 103 104 105 106 107 108 109 110 111 112 113 114 115 116 117 118
POINT_DATA 119
SCALARS Curvature float
LOOKUP_TABLE default
-0.009680902767453588
-0.010662176434213862
-0.003480926346931133
0.0126089135338295
0.037224968082764605
0.0687978097644914
0.10467781534781383
0.14140218535323518
0.17509432472384773
0.20194827240551172
0.21873709145098685
0.22327812909126568
0.21479086720618212
0.19409458722632592
0.16361198269126132
0.1271688635636636
0.08960617601902329
0.056245337327307576
0.03226808607709792
0.022084936195947175
0.02877006497486462
0.05363438425555027
0.09599322675130531
0.15316231660041615
0.22068826134628933
0.29279111570205824
0.3629702420345127
0.42470408182441316
0.47216221212241843
0.5008458022933968
0.5080806619880062
0.4933045242200436
0.4581148881121748
0.4060725841595294
0.3422856212684655
0.27282416046549174
0.20403736563209374
0.14185395394325503
0.09114918230483653
0.05525172760294533
0.03564570437627985
0.03189829107431532
0.041815291588441834
0.06179902247710674
0.08735869990125607
0.11370599680559952
0.13635974588720717
0.15168481644855175
0.1573006695877627
0.15231346866098364
0.13734937378277184
0.11439261549808945
0.08645673210273928
0.057137794425027436
0.03011198735706313
0.00864497645176301
-0.004823388530931035
-0.008967559874496923
-0.0037049780573947867
0.009845748523618704
0.029564844154942198
0.05265652349243176
0.0760506264117127
0.09682340537758631
0.11257949499548135
0.12174433475523859
0.12373026837427416
0.11895814466984811
0.10873684282558062
0.0950228665553482
0.08009829954083993
0.06621583213386403
0.05526292799786744
0.048493168082492946
0.046362085654132794
0.04848900564876115
0.05374782254622162
0.0604709472647302
0.06673446271610954
0.07068110441235737
0.07083258919638437
0.06634471064525153
0.05716717541365479
0.04408410858960013
0.028628495430822548
0.012882074998675152
-0.0008112331649293301
-0.010177747683363037
-0.013344919075957315
-0.009123316998915812
0.0028009506426838787
0.021791551325075223
0.04631663151390171
0.07412638011216692
0.10252962077481467
0.12873163026964954
0.15018671267636396
0.16491692704143965
0.1717530813574095
0.17046501651580592
0.161763783472067
0.14717637567802125
0.12881166988708156
0.10905160393044727
0.09021218968933992
0.07422320038187713
0.062372646225359034
0.05515280548304763
0.05222989279431428
0.052541474355719354
0.05450701592664278
0.05632014376998006
0.05627873856010354
0.05310271106277051
0.046190218058394676
0.035771158245252684
0.022931017536233132
0.009496602619918058
-0.0022046299246081314
