# vtk DataFile Version 2.0
Vessel Segment
ASCII
DATASET POLYDATA
POINTS 119 float
-0.003218260929789058 -0.005422460552537441 0.0002142334651413013
-0.007108662472644898 -0.011271608632815757 0.0009081595548419476
-0.011503100941631827 -0.017292612206726937 0.0019550084826793247
-0.01620907041746129 -0.023262591911914713 0.003174070214670139
-0.021061731618675292 -0.02903559982631235 0.0043807980453421805
-0.025932611603718438 -0.03453594737082232 0.005398849248834166
-0.03071341030956379 -0.03972739889366252 0.006055359283350416
-0.03530060626033456 -0.044589583400600166 0.006189301122247474
-0.03959799041182191 -0.04911331518252648 0.0056772884792460855
-0.043540378021701104 -0.05331894212761143 0.004456556664162024
-0.04710842776586303 -0.05727717029004869 0.0025020826356975247
-0.05029852473190622 -0.06108646685516601 -0.00021149880859965345
-0.05308103532653035 -0.06483286853373321 -0.0036947018633008274
-0.055394505879703286 -0.06857927386691422 -0.007888950278993634
-0.05717709276621221 -0.07237581477125608 -0.01266031299062222
-0.05839404733971113 -0.07625713265826663 -0.017837251244729666
-0.059034801496358494 -0.08024121440411304 -0.023269825692455896
-0.05909510489242401 -0.08432411536017395 -0.028841512513041876
-0.05857759581159374 -0.08849085778118514 -0.03446536187757458
-0.05749542203962243 -0.09272842057717036 -0.04007131330578231
-0.055874160451402 -0.09703453007780558 -0.04560548872246125
-0.05375429583354446 -0.10140782942949608 -0.05101130668318928
-0.051204659265083455 -0.10583929418665206 -0.05620505244201561
-0.048331751937078615 -0.11030301846727339 -0.06106171198430938
-0.04528434138615918 -0.11473946365345127 -0.06541578135307607
-0.04224491841639201 -0.11904582627024804 -0.06909454091104862
-0.039394165881013445 -0.12310450006775409 -0.0719775014334088
-0.03687369735095853 -0.1268270491412946 -0.07402148245256211
-0.03476601660626957 -0.130147344852117 -0.07524422646914188
-0.03310135797041416 -0.13300392960554627 -0.07571379456545964
-0.03185136445506633 -0.13538739112986786 -0.07554431458713416
-0.030944020739416718 -0.1373558875432659 -0.07484632807052168
-0.030305374708703568 -0.13900598990252525 -0.07365538157851216
-0.029894478084811844 -0.14039826551085943 -0.07193919440782198
-0.029694777139855636 -0.14154750636950206 -0.06965114959373529
-0.029706082434364796 -0.1424389203512675 -0.06674707479527799
-0.02994308047582747 -0.14303850461179354 -0.063198715606683
-0.03042679247957804 -0.14330126689562736 -0.05901469929936035
-0.03116603031066971 -0.14318981705829475 -0.054267530920801756
-0.03213893860639209 -0.14270480244604922 -0.04910600249952753
-0.03327640630013929 -0.14191542752528025 -0.043735196451957434
-0.03448545773288684 -0.14094784448947795 -0.03832248405760513
-0.03568274351529481 -0.13994009427449922 -0.03297198622602222
-0.03680038702197539 -0.13902167097306184 -0.027740442441196472
-0.03778670251343139 -0.13830690893913444 -0.022646996181206296
-0.03860558642819014 -0.13789291620799282 -0.017681480499515116
-0.03923321350298681 -0.13786503768208996 -0.012816555582047032
-0.03965507976467176 -0.13830387674880665 -0.00802923194153989
-0.03987004137062152 -0.1392766876352482 -0.003328623508068375
-0.039891957288421875 -0.14081794458882654 0.0012481229268689843
-0.03974131679171219 -0.14292832631084249 0.005662469527927418
-0.03943984530335374 -0.14559466821194605 0.00989040689910023
-0.039007293042842596 -0.14880280641686763 0.013916361014496725
-0.03845962174593835 -0.15253511182511229 0.017727943180231236
-0.03780760711535713 -0.15676824512684906 0.02132264211929988
-0.03705480662783446 -0.16147416765188105 0.024713008176801533
-0.03619687464053868 -0.1666190108758819 0.027921748256485218
-0.035225002321686 -0.17215626082658808 0.0309715580044588
-0.034131377607478856 -0.1780227596019222 0.033873086903936526
-0.032915000571925646 -0.1841405204197717 0.03661963576672894
-0.03158233451806363 -0.19042284468654694 0.03919929218451638
-0.03013254241601203 -0.1967882931317586 0.041614194029716514
-0.028549777583573122 -0.2031640556148195 0.043876997802597975
-0.026808552124300673 -0.20947841817680363 0.0460083655213758
-0.02487990964121515 -0.21566272927129715 0.04803808640353852
-0.022739690625677503 -0.22165680055535994 0.050002237910618086
-0.020372602641105773 -0.22740976690519998 0.051939945121380095
-0.017771521966926208 -0.23288087427090004 0.05389125729274977
-0.014935231267130224 -0.23803948137012493 0.055895342193385864
-0.011865210348872054 -0.24286610313112536 0.05798874966720513
-0.008562877250772535 -0.24735160874528817 0.06020410741959355
-0.005027716047857422 -0.2514960318366496 0.06257066786664485
-0.0012556651988198477 -0.2553070025206262 0.06511449437201157
0.0027594044689725704 -0.25879405369604963 0.06785679251750401
0.007020095980320024 -0.2619641486551211 0.07080945402078169
0.01152049414299388 -0.2648242706957979 0.07397012912916162
0.016249162891209555 -0.2673841411719699 0.07732332731980286
0.021194689999116768 -0.26965458747460375 0.08084395481772756
0.026348847637478096 -0.27164553108619616 0.0844997772019692
0.03170946680170842 -0.2733666496912752 0.08825490595983743
0.03728199614636114 -0.2748286385273527 0.09207694916545432
0.043075751255077156 -0.27604093391859674 0.09594388450977673
0.04909620565819142 -0.27700964700961184 0.09984556852291278
0.05533662560580159 -0.27773838069751017 0.1037826602831346
0.06177081386632647 -0.27823233501333294 0.10776362106799564
0.06834849362874967 -0.2785047820216874 0.11179921138159632
0.07499676974587655 -0.27858478124820835 0.11589717912070953
0.08162914043130325 -0.27852084508025404 0.12005674172455101
0.08815729196529909 -0.2783786179285527 0.12426579023103118
0.09450067878762626 -0.2782325311541337 0.12850265171827138
0.10059190243089663 -0.27815793775823777 0.13273818830206635
0.1063790671674085 -0.27821982577825455 0.13693997896561225
0.11182742132617828 -0.2784658585365829 0.1410760637795241
0.11692219415672794 -0.2789228118835871 0.14511794369840422
0.12167037070338169 -0.27960002876298196 0.14904703530189897
0.1260944180418276 -0.28049794859261495 0.15285601666337592
0.1302229410389635 -0.28161608327661575 0.15654720100526873
0.13408343313057872 -0.2829572914952217 0.16012944134255286
0.13769806251092412 -0.28452936426988146 0.1636161290465196
0.14108111514429536 -0.2863437990192616 0.16702422045720056
0.14423801767993472 -0.28841310364234124 0.17037298410172413
0.1471639275149461 -0.29074777755913644 0.17368092494040105
0.14984501898204067 -0.2933528249348164 0.17695978452042627
0.1522650901719743 -0.2962262161699199 0.18021100871224308
0.15441536992854377 -0.2993625671348134 0.18342765213003914
0.15629713136432646 -0.3027603091325488 0.18660082833329908
0.1579165732478845 -0.30642437224615193 0.18972265241283434
0.1592790056618335 -0.3103646140267091 0.1927857149856924
0.16038636053781016 -0.3145899590121311 0.195782357026465
0.16123883924007057 -0.3191008291621956 0.1987045459933849
0.16184066281381929 -0.3238833201276686 0.20154383188686031
0.1622056695617254 -0.32890904344064525 0.20429629197933735
0.1623583665947247 -0.33414032166719204 0.20696697602978656
0.1623326734661618 -0.33953294499336767 0.2095719185484362
0.1621713417048694 -0.34503303202564467 0.2121367666167448
0.1619277684141111 -0.35056249086982405 0.21468950052923727
0.1616613880796568 -0.3559943290063844 0.21724334688293612
0.1614274483882808 -0.3611488164877124 0.21977186442703495
0.16126507345573027 -0.36585352154201717 0.22221120412107045
LINES 1 120
119 0 1 2 3 4 5 6 7 8 9 10 11 12 13 14 15 16 17 18 19 20 21 22 23 24 25 26 27 28 29 30 31 32 33 34 35 36 37 38 39 40 41 42 43 44 45 46 47 48 49 50 51 52 53 54 55 56 57 58 59 60 61 62 63 64 65 66 67 68 69 70 71 72 73 74 75 76 77 78 79 80 81 82 83 84 85 86 87 88 89 90 91 92 93 94 95 96 97 98 99 100 101 102 103 104 105 106 107 108 109 110 111 112 113 114 115 116 117 118
POINT_DATA 119
SCALARS Curvature float
LOOKUP_TABLE default
0.004929328014894231
0.0040511508455909895
0.011564810584733621
0.02837840703507721
0.05432830124285224
0.08805469492644444
0.1270341572504978
0.16777836155987366
0.20618573067316678
0.23801065665183127
0.25939650573848994
0.2674064204522598
0.26048192505225864
0.2387644359773658
0.20422870066391857
0.1605984781702403
0.11304094939627897
0.06766419182442913
0.030868036286288987
0.008619332672836754
0.0057352560158195585
0.02526091170234475
0.06801950150144026
0.13239538005841076
0.21438443136469867
0.307915345136423
0.40541327987878806
0.4985479969411576
0.5790855061142305
0.639748512878961
0.6749883220855126
0.6815797997268486
0.6589705637618363
0.6093434878817645
0.5373845365632443
0.44978194904943547
0.354513753469549
0.2600047857463855
0.17424890777056498
0.10399525319163216
0.054088765846151195
0.027036158427878983
0.022841117774895392
0.0391205072287064
0.0714804044542292
0.11410105757172237
0.1604567925403625
0.20408322917199842
0.23930132945135926
0.26181591111169483
0.2691240562095782
0.2606938981971874
0.2379033036967797
0.20375728126436918
0.1624289111917838
0.11868807724040481
0.07729307376491376
0.04242120263978511
0.017205974374734173
0.0034319055947088385
0.0014155730376828046
0.010076609927584596
0.02717802115477891
0.04969465916462986
0.0742544555794994
0.09759064820671469
0.11694529018078427
0.1303741609333072
0.13691918913370127
0.13663425327127612
0.1304709330411083
0.12004960132723416
0.1073556847171065
0.09440917473144583
0.08295664529562749
0.07422923250679048
0.06879833055090688
0.06654501061330716
0.06674174490531912
0.06822844905000662
0.06965148473307187
0.0697259165793784
0.06747905728909838
0.06243733261626488
0.05472802139518775
0.04508096462111046
0.03473083069210595
0.025235664354938743
0.018240016126895724
0.015219134404542237
0.01724335332947515
0.024798595270413074
0.03769035686007772
0.05504596702076361
0.07541518032423146
0.0969544889598935
0.1176680750487898
0.13566992322808966
0.14942851262219173
0.15795816822820666
0.1609291866669594
0.15868107882659263
0.152137886958545
0.14263936810279043
0.13171467303964504
0.12083404987676606
0.11117768598229703
0.10345846375736739
0.09782740615187552
0.0938780312872328
0.0907505212119044
0.08732078076863271
0.08244548693354493
0.07522425755258745
0.06523571701302242
0.052706339047090434
0.038579415618763116
0.024465314426122646
0.012471512846552606
