# vtk DataFile Version 2.0
Vessel Segment
ASCII
DATASET POLYDATA
POINTS 119 float
-0.0032340094149845085 -0.0058618624664867666 -0.0001934257500218127
-0.007142546169195666 -0.01202152007803603 0.00018088281027055656
-0.01155238136931093 -0.01820753528111182 0.0009835285611269572
-0.01627090533656631 -0.024217034246688612 0.002028888342245459
-0.0211376344383796 -0.029948278678528346 0.003115611881018823
-0.026019995673522756 -0.035356113842558386 0.004037608785515267
-0.030798802511536473 -0.040419990955328194 0.004593524015891705
-0.035357921126245986 -0.04512705924856828 0.004603388171790731
-0.03959295268253957 -0.049471789376760195 0.003938663424207729
-0.043440808573226825 -0.053478574252443865 0.0025425083603883834
-0.04689513773719063 -0.05722694643877465 0.0003941802746607586
-0.04996602825510961 -0.06082384688977092 -0.0025409368270162638
-0.05262696396645498 -0.06435404599149949 -0.006284142069227366
-0.05481155493245205 -0.06787114819975736 -0.010765390952785857
-0.05646423761760788 -0.07141950307487589 -0.015822220102682444
-0.05755618068127142 -0.07503003495057325 -0.021269094467440602
-0.058078289210111864 -0.0787117010506479 -0.026936260596977204
-0.05803526950839437 -0.08246063339865849 -0.03269803874892233
-0.057434336000282346 -0.08626776446054074 -0.03847076395248264
-0.05628859544027438 -0.09012823758453058 -0.04418769537466945
-0.05462193254970577 -0.09404741685764845 -0.049797867846861146
-0.052473886490943894 -0.0980289855760178 -0.055248457613031696
-0.04991339604386995 -0.10206860346593531 -0.06046260253743652
-0.047046488852468434 -0.10614723286741332 -0.06532302642809534
-0.04402441678308096 -0.11021159695060721 -0.06966520680139228
-0.04104065357741431 -0.11415701956666868 -0.07331031420834846
-0.03828866804947346 -0.11785767237147915 -0.07614305203370564
-0.03590986800212351 -0.12122859285424684 -0.07815482980511196
-0.033958363925138506 -0.12423157044028155 -0.07942036470511377
-0.032426224681014616 -0.12684821815294686 -0.08004311979995685
-0.031266001987485234 -0.12910070518789726 -0.08012870225865036
-0.03041679412162226 -0.1310373094914253 -0.07974916300184876
-0.029824799267545537 -0.13271500932985475 -0.07892479119879975
-0.02945902341489414 -0.13417254931115374 -0.0776393563232022
-0.029301758120690663 -0.1354251913822846 -0.0758633206743937
-0.029349894669295072 -0.1364614827783129 -0.07354832051694124
-0.02962165231971884 -0.13723941541982299 -0.0706338838339136
-0.03015288482508125 -0.13768703115668812 -0.06706862312840435
-0.03097832819859943 -0.13771647260133243 -0.06284513256724877
-0.03210718855081694 -0.13725777346112097 -0.05805083680296532
-0.03347806638258569 -0.13632575866152247 -0.05290597905389939
-0.03498174680947854 -0.1350347405690358 -0.047624620696921666
-0.03651579884275568 -0.1335345928865947 -0.04235228119230936
-0.03799282266702624 -0.13198032124618042 -0.03717844552930521
-0.039342183707489924 -0.1305194388331718 -0.03214476431051534
-0.04051092547434506 -0.12928333660296373 -0.027254764693953167
-0.04146008440611409 -0.12838659882726353 -0.022489191816151763
-0.042162018315603025 -0.12793069418772005 -0.01783375823846317
-0.042609932833264655 -0.1279881452796386 -0.013310272500495147
-0.0428212758075914 -0.12858160207167127 -0.008957245318529216
-0.042822289563889754 -0.12969785723331784 -0.004796544494204886
-0.04263794384205982 -0.13131960413006688 -0.0008301388728379818
-0.04228869765415967 -0.1334373974395479 0.0029439214337069297
-0.04179010611053537 -0.1360449466270125 0.0065254289283244275
-0.041153022444414614 -0.13913612330087946 0.009920419497044754
-0.04038231578923138 -0.14270730068970647 0.013146868908516018
-0.039476756825981014 -0.14675678423015526 0.016227162458127237
-0.038433563039020735 -0.151273582436059 0.019172742950681675
-0.037255835391310645 -0.15622526466268527 0.02196776367754136
-0.035961287173885505 -0.1615515028929179 0.02456435448154936
-0.034583309026374964 -0.1671663203958216 0.02690769519032015
-0.033145459871249804 -0.1729796066157579 0.028974512083965998
-0.031647109285961435 -0.1789071794984095 0.030770266074118653
-0.030070358651453303 -0.18486244741374971 0.03232407826047076
-0.028387334471069756 -0.19075929875069275 0.03368700317502531
-0.026571640959411384 -0.19652154259995214 0.03492362449664
-0.024604944806913255 -0.20208662820715975 0.03610472975108879
-0.022476791473680813 -0.20740788468096644 0.037301760639432385
-0.02018263882471574 -0.2124529018670483 0.038581921551594796
-0.01772116706786743 -0.21720325114380837 0.04000409250689583
-0.01509052843380708 -0.2216553728441928 0.04161698587657282
-0.012284593769309304 -0.2258186464862638 0.04346055276756061
-0.00928991377303354 -0.22971178056601615 0.04556672730393797
-0.006087561610367158 -0.23335335817670874 0.047956726338459606
-0.0026608983169220573 -0.23675482270859477 0.05063474988674481
0.0009978362411196258 -0.23992442041385495 0.05358279148425273
0.004890641885285331 -0.24287131663446623 0.05676438676013132
0.009019968566546258 -0.24560385034658017 0.06013277751982465
0.013391460568428045 -0.24812602053001112 0.06363635461024648
0.018017011378935313 -0.2504388086512405 0.06722437569319163
0.02291663303720832 -0.2525415021713801 0.0708560021994784
0.02811482114011697 -0.2544296256424105 0.07450730238762708
0.03363148477628974 -0.25609191183466706 0.07817290004687114
0.03947074461785988 -0.257510993856306 0.08186299883110178
0.04560945122891654 -0.2586679715960805 0.08559757399583766
0.051989042998723305 -0.2595527938192906 0.08939778496521787
0.05851575984022625 -0.2601779773415436 0.09327760706349156
0.06507374675913503 -0.260587290012162 0.09723716705746138
0.07154397614022602 -0.26085430200481646 0.10126080941753822
0.07781900167742731 -0.2610695288464459 0.10532057060323563
0.0838102368317092 -0.26132661173384214 0.1093800157128043
0.08945008765966059 -0.2617034861690624 0.11339924726800676
0.09469469599890173 -0.2622507652252541 0.11733912191935503
0.09952777605949817 -0.26298597640048316 0.12116511463533267
0.10396297778900233 -0.26390000318156204 0.12485417634735822
0.10803490141053812 -0.2649710174636557 0.12839693637254804
0.1117868762822162 -0.26617636260259186 0.13179591682816127
0.11526163746974717 -0.26749978764817334 0.13506223404340187
0.11849729638565436 -0.26893489471431853 0.13821429484710668
0.12152445930102729 -0.2704852093401558 0.1412759495456018
0.12436608641675909 -0.2721626734970535 0.1442748787518206
0.12703577578377417 -0.27398512529685953 0.1472377745578083
0.12953732605567939 -0.2759722382418345 0.15018315727853596
0.13186913266468214 -0.27814315005396006 0.15311658781591
0.13403077247058565 -0.2805160286941422 0.1560313633052033
0.13602578306031496 -0.28311194832918574 0.15891501340492517
0.13785723682550785 -0.28595650136380807 0.1617542850587677
0.13952169191837296 -0.28908043742474093 0.16453748599792095
0.14100474022205067 -0.2925156965383523 0.1672550736298565
0.14228201062597792 -0.2962884913348575 0.16989854754583028
0.14332750902722735 -0.30041230405147773 0.17245982912786245
0.14412470910107572 -0.30488563625993087 0.1749359983042869
0.14467165903318796 -0.3096914714107318 0.17733432472651273
0.14498393597296724 -0.3147907748065563 0.17967262324002756
0.14509642742817164 -0.32011435527185245 0.18197672408354185
0.14506406278862674 -0.3255546208345208 0.18427590734106666
0.14495276925348666 -0.330953346245081 0.1865921335490583
0.1448255426930014 -0.33610563475407396 0.18891868772820372
0.14472944333521762 -0.34082399036900163 0.19121558552796658
LINES 1 120
119 0 1 2 3 4 5 6 7 8 9 10 11 12 13 14 15 16 17 18 19 20 21 22 23 24 25 26 27 28 29 30 31 32 33 34 35 36 37 38 39 40 41 42 43 44 45 46 47 48 49 50 51 52 53 54 55 56 57 58 59 60 61 62 63 64 65 66 67 68 69 70 71 72 73 74 75 76 77 78 79 80 81 82 83 84 85 86 87 88 89 90 91 92 93 94 95 96 97 98 99 100 101 102 103 104 105 106 107 108 109 110 111 112 113 114 115 116 117 118
POINT_DATA 119
SCALARS Curvature float
LOOKUP_TABLE default
0.018717606473921886
0.01733994072064739
0.02425513887629042
0.040250291862070284
0.06512405475053612
0.09757008891778117
0.13519840172242173
0.17470595623353402
0.21218827476988095
0.24356385400044767
0.26506575245304465
0.2737422097222792
0.2679025683170349
0.24744721724567845
0.2140308662449293
0.17102622457699285
0.12327814813954284
0.076663819710399
0.03749939112393837
0.01185455506162732
0.004850912009200966
0.020025685508392996
0.05883828113100067
0.12038354227306043
0.20135369657113353
0.29626334214470623
0.3979216067319558
0.4981064339867763
0.5883713695497619
0.6608983002945213
0.7093025242993544
0.7293003091616886
0.7191634356811831
0.67990853870061
0.6151986585507973
0.5309668344173679
0.43480297393197676
0.33517189855546903
0.24054923405895226
0.15857048421272718
0.09528620988623761
0.054603090324208806
0.03796841345523551
0.04432695381290985
0.07034771542128404
0.11088741652094107
0.15963148967163435
0.20983478216406168
0.25507512457419945
0.2899343476919511
0.3105327438681916
0.31486275404599806
0.3028932002334877
0.27644342133487876
0.23885373507298305
0.19450148500015763
0.1482279023935313
0.10474841307091855
0.0681172638593952
0.04130700929654499
0.025946117224856093
0.022236168638135597
0.029046767125555734
0.04416435038437787
0.06465332405739753
0.0872763905016748
0.10891681019134916
0.12694879058676803
0.1395124295543116
0.14566497793526112
0.14539835715949292
0.13953132291072728
0.1295009262330539
0.11708991121316216
0.1041329910808852
0.09224498200064116
0.08260784645032106
0.07584291417036006
0.07198064308801391
0.07052535506351876
0.07059859192892148
0.07113400294444976
0.07109040781060252
0.06964860422603043
0.06636156059163391
0.061236067238379224
0.05473532069853175
0.04770450160547478
0.041233271233725936
0.03647850430321952
0.034476154128715034
0.03597216388038903
0.04129874209905827
0.05031474912622055
0.062418616508809616
0.07663076272016967
0.09173164575493647
0.10643306210928977
0.11955535723638146
0.1301825965880931
0.13777153782484367
0.14219784848998226
0.14373324863577738
0.14295853413113496
0.14062799130475181
0.1375088778295016
0.1342240955533144
0.1311261469435529
0.12822585347873447
0.12519073101168962
0.12141659976827947
0.1161636462286432
0.10873665421525264
0.09868031972399155
0.08595595157377689
0.07106635415131907
0.055101473355810435
0.039687860622462635
0.02683884451400682
