# vtk DataFile Version 2.0
Vessel Segment
ASCII
DATASET POLYDATA
POINTS 119 float
-0.0032395822767569927 -0.005978649170523601 -0.0002993697102512398
-0.007153994063928799 -0.012219597381043784 -6.603274061723176e-06
-0.011568523312929947 -0.018448390003547168 0.0007345609795732297
-0.01629058187183615 -0.024468279725578926 0.001736533220299128
-0.021160998888389338 -0.030189332561993392 0.0027933951299479298
-0.026046351788047283 -0.0355743362168324 0.0036915527507032126
-0.030824825991108876 -0.04060677924095939 0.004222565950582732
-0.03537724169031688 -0.04527578622238501 0.00420179588076817
-0.03959732675986649 -0.04957687342309888 0.003499426944468283
-0.043422668384660204 -0.05353554736148037 0.002059918178174175
-0.04685012329824559 -0.05723348227476799 -0.00013680550986939306
-0.04989297464699943 -0.06077953090692679 -0.0031281479762446294
-0.05252517870105326 -0.06425792146135711 -0.006938400798338169
-0.05467884777408054 -0.0677197729080954 -0.011494434318940715
-0.05629989508414325 -0.07120792264334237 -0.016626011846934987
-0.05736106354638036 -0.07475250062697324 -0.022143766181671916
-0.05785374943132355 -0.07836045385751586 -0.02787276289562293
-0.05778494194327942 -0.08202804396104807 -0.03368492398472373
-0.05716299533453822 -0.08574768851927547 -0.0394974208251877
-0.05600101759139672 -0.08951651749835712 -0.04524433174902209
-0.054322513026061406 -0.09334172298031604 -0.05087540693601847
-0.052166835849882985 -0.0972281880516446 -0.0563387809782491
-0.049602991886496015 -0.1011726967763623 -0.06155933675140954
-0.04673693044736038 -0.10515786994869586 -0.06642174114183214
-0.04372057490375664 -0.10913196029720244 -0.0707616984296379
-0.04075015219744859 -0.11298989215290584 -0.07439885734796928
-0.03802219816248559 -0.11660393725323058 -0.07721926007489473
-0.035677819812132125 -0.1198900481612768 -0.07922284930274094
-0.03376392605052071 -0.12281685172405467 -0.08049823581243166
-0.03226312565916048 -0.12537673020678164 -0.08115763874811888
-0.031123090179564317 -0.12760045695862957 -0.08130476328192551
-0.030285637307477343 -0.1295345953439022 -0.08100118208417559
-0.02970254734728347 -0.1312251159163281 -0.08026103795396576
-0.029346016121510412 -0.1327025912674307 -0.07907114839922182
-0.029198072234792274 -0.13398084464069462 -0.07740779577409697
-0.029254457148126523 -0.1350497539436171 -0.07522409033476632
-0.02953380941699774 -0.1358671077314068 -0.07245395399436969
-0.03007537135935294 -0.13635638842529502 -0.06903279828995074
-0.03092047636216453 -0.13641868603178528 -0.06493380084588021
-0.032086804196411356 -0.13596630517610264 -0.060227686720800463
-0.0335158339392871 -0.13499870483764295 -0.05513581408532753
-0.03509487715849713 -0.13362532389390133 -0.04988196171528297
-0.036716903051424464 -0.13199777399413923 -0.044620740024858496
-0.038289418802676715 -0.13027716034427006 -0.039448897324685143
-0.039736429388081015 -0.12862013986132714 -0.03441307471307284
-0.040999750480505096 -0.12716867863446243 -0.029520039705581508
-0.042035363686027755 -0.1260475583855205 -0.024753163527893973
-0.04281115867798995 -0.1253666113436878 -0.02010202444588701
-0.04331842383982269 -0.1252019849313958 -0.01559386884523248
-0.043575884327538984 -0.125573934267307 -0.011269541894751899
-0.04361209046403819 -0.12646473315592996 -0.007148287057043986
-0.04345379971479773 -0.12785402900688184 -0.0032276877880915295
-0.04312252022110877 -0.1297311973729418 0.0004981058867983661
-0.042634340228188634 -0.13209048149480956 0.00403216998034139
-0.042000435920367216 -0.13492806081166342 0.007383463306746024
-0.04122596623140561 -0.1382447693058162 0.010572326670350223
-0.04031018693607815 -0.14204563599191472 0.013622045893939498
-0.0392514156641513 -0.14632765952636773 0.016542126511495454
-0.03805509384384678 -0.15106577443745262 0.019310869619515413
-0.036743262558545764 -0.15620443934818162 0.021870840881915495
-0.035355629622758 -0.16165900523395157 0.024157200835246195
-0.033921401906840204 -0.16733890862314832 0.026140829586880857
-0.03244338786919527 -0.173158970093495 0.027825549653650788
-0.030905337535205624 -0.17903040323360603 0.029242420920716283
-0.029279503208223815 -0.18486351933725073 0.030447478803037296
-0.0275388403949285 -0.19057807952845565 0.031512140181962175
-0.02566422363995464 -0.19610790917156093 0.03251490464154941
-0.023644428598338714 -0.20140380494889618 0.03353486978706764
-0.021474235256162617 -0.20643183942641208 0.034645994097670274
-0.01915180892429503 -0.21117303742116905 0.03591238756003294
-0.01667465872090701 -0.21562486076143866 0.037386345770348675
-0.014035412212309572 -0.2197990864628704 0.03911010091420349
-0.011218448711975873 -0.22371755508523528 0.041116876758479574
-0.008201837363214504 -0.2274015545261398 0.04342803519841896
-0.004965610753697177 -0.23086396160838957 0.04604623852702494
-0.001498742035953795 -0.23411344967584238 0.04894999561021692
0.0022039599646756685 -0.23715897778798745 0.05209788435155477
0.0061481863145847054 -0.2400081058743923 0.05543779752851701
0.010342769938763994 -0.2426631878348026 0.05891316684849088
0.014802782845179236 -0.24512295411875215 0.06246932643823768
0.01955147106386835 -0.2473839224109953 0.06606307400616408
0.024616684793393843 -0.2494383981564167 0.06966974063207827
0.0300215326027074 -0.25127115596969 0.07328486880103306
0.035772552399609 -0.25285999167398454 0.07692078660886553
0.041847218261474826 -0.2541802783530257 0.08060014396107854
0.04818495613971022 -0.25521625718582597 0.0843466283414709
0.05468704643033211 -0.25597625860277196 0.08817587192218646
0.06123068623024401 -0.25650271496765337 0.09208846188754366
0.06768960751726145 -0.2568710137069141 0.09606814434720126
0.07395004995085004 -0.2571755476225721 0.10008565714672739
0.07991849802888987 -0.25751440729278474 0.10410297578312884
0.0855237476850716 -0.2579686585824867 0.10807851751608796
0.09071991532853692 -0.25858958708724744 0.11197147173885466
0.09549046810412931 -0.25939242885077624 0.11574585025837038
0.09985069146869702 -0.2603635893429579 0.11937743585476307
0.10383806405642611 -0.2614759231758851 0.12285623472523895
0.10749940853137314 -0.2627015893803019 0.12618472808770753
0.1108811494461656 -0.2640200265433857 0.12937460663177927
0.11402535545321664 -0.26542185561031967 0.13244566507917074
0.11696675639537822 -0.2669092120586473 0.13542372204148578
0.11973272303293254 -0.2684944247794346 0.13833884550414202
0.12234139059679597 -0.2701974974657498 0.14122003491094468
0.12480075545914078 -0.2720418390008553 0.14408768467236788
0.1271125301148373 -0.2740516644901635 0.14694843880935585
0.12927800695585412 -0.27625064261724347 0.14979558024454626
0.13130093651099778 -0.27866502482244987 0.15261555779632516
0.13318333163060078 -0.28132498600038097 0.15539349212702563
0.13491943409732465 -0.2842656775551555 0.15811620654662045
0.13649088616089028 -0.28752363983882945 0.16077315152607757
0.13786767446381715 -0.2911301402467439 0.16335517474495972
0.1390171198779537 -0.2951042502594565 0.16585393981604588
0.1399161127475486 -0.29945054114807934 0.1682666994606835
0.1405568317417959 -0.3041573595424732 0.17060136509708723
0.14095044128908762 -0.3091878754568915 0.17287636198843576
0.14112953707180814 -0.3144701769799254 0.17511777827657304
0.1411489533451345 -0.3198901125906126 0.17735544009839715
0.14107587745045233 -0.3252820187972034 0.17961364539029115
0.14097504400234434 -0.3304347585361328 0.18189065148010677
0.14089539987335395 -0.335157055718243 0.1841524267774247
LINES 1 120
119 0 1 2 3 4 5 6 7 8 9 10 11 12 13 14 15 16 17 18 19 20 21 22 23 24 25 26 27 28 29 30 31 32 33 34 35 36 37 38 39 40 41 42 43 44 45 46 47 48 49 50 51 52 53 54 55 56 57 58 59 60 61 62 63 64 65 66 67 68 69 70 71 72 73 74 75 76 77 78 79 80 81 82 83 84 85 86 87 88 89 90 91 92 93 94 95 96 97 98 99 100 101 102 103 104 105 106 107 108 109 110 111 112 113 114 115 116 117 118
POINT_DATA 119
SCALARS Curvature float
LOOKUP_TABLE default
0.022290708295977082
0.020848891137372243
0.027695702459282014
0.043557582364666
0.06819595479847693
0.10029763328541447
0.1374970837611531
0.17654185819546872
0.21359387122997117
0.24464014359147274
0.2659697553140008
0.274661454660462
0.2690205772766325
0.24890579257979656
0.2158958979745578
0.17326358804451744
0.1257450413536459
0.07911874051405136
0.03963116785763907
0.013327816918311586
0.005362563539362858
0.019364767392487877
0.05694041372171403
0.11737118659296851
0.1975547894146863
0.2922033463973885
0.3942873734014772
0.4956840719861497
0.5879640560151378
0.6632331186220742
0.7149375282970539
0.7385437427599806
0.7320162254698735
0.6960388597311616
0.6339537937167861
0.5514231222618102
0.45584991295307603
0.3556220494472484
0.25926201581871156
0.17457577924908804
0.1078931975938628
0.06348102971710866
0.04318907717166942
0.04636274442496945
0.07002465822753805
0.10929759280646795
0.15801438568878032
0.20944086432928202
0.257027220263035
0.29510281443544456
0.31943887989993935
0.3276216142051774
0.3192023290711737
0.2956185685774759
0.2599070475408299
0.21625266070889582
0.16943496375280212
0.12424257529085783
0.08492610259012372
0.054751788408773004
0.03570250139254036
0.028352180729304722
0.03191716530069565
0.04446592173993628
0.0632502539534988
0.08510829357608321
0.10688378839614181
0.12580781824766193
0.13979749636964675
0.14764001917327302
0.14904752996237386
0.14458624301930517
0.13549970713529594
0.12345886185072463
0.11027913125608835
0.09764645329643165
0.08688994165504123
0.078829703200484
0.07371571233674484
0.07125951043284523
0.07074691684244969
0.07120880603944411
0.07161979675254776
0.0710922704308604
0.06903562772193066
0.06525752973914166
0.05999387448559408
0.05386582712176131
0.04777357921521602
0.042745967203622656
0.03977127593551366
0.039636653584569206
0.04280136723396902
0.04932308189488047
0.058847468751324544
0.07066116957278604
0.08379808152221759
0.09718064190447143
0.10977255653552735
0.12071801806293918
0.12944509307994317
0.13571718478077324
0.13962530721943192
0.14152393484092635
0.14192281708618953
0.14135481958105828
0.1402443032084747
0.13880099661774334
0.13696058513669845
0.13438580912321413
0.13053180938226894
0.12476829218551509
0.11654055319627356
0.10554320813894409
0.09187604703061297
0.07615166166512419
0.059529626251941734
0.04366154084357029
0.030543991073660966
