# vtk DataFile Version 2.0
Vessel Segment
ASCII
DATASET POLYDATA
POINTS 119 float
-0.0032293869449944754 -0.004629311746218664 0.0010186892739880201
-0.007113164839610552 -0.00989296296980482 0.0023674553771524227
-0.011493528021189922 -0.01559455510241636 0.00392786841327992
-0.01618119839767065 -0.021491228005634893 0.005517903846730087
-0.02100748329286298 -0.027358309795349478 0.006982925063685709
-0.025856389897959277 -0.03306164482849823 0.008209015675851212
-0.030644692585360088 -0.03853413916646323 0.009084854437988376
-0.03529790952773583 -0.043741526257032176 0.009491341886991656
-0.03974095593565183 -0.048669811824102405 0.009316850908917445
-0.04390768552342737 -0.05333331588332531 0.008483161682708183
-0.04775095248683835 -0.05778328001682252 0.006948443186551437
-0.05123395309057835 -0.06209667398833951 0.004697217383704062
-0.054314449297872006 -0.06635818963581923 0.0017350547769470898
-0.05693538505464498 -0.07064663407829283 -0.0019010024414794044
-0.05901791535930449 -0.07502130635183549 -0.006126165351489639
-0.06051604732793317 -0.07952693006756886 -0.010791541937992102
-0.06141863306339952 -0.08420564411106342 -0.01578406852856432
-0.061703209440727366 -0.08905527431574345 -0.02100426320902345
-0.06136276766810661 -0.09404825260065007 -0.026358386592255673
-0.06041100765009493 -0.09915272670506975 -0.0317691794659094
-0.05887817910721221 -0.10434817837661955 -0.03717644120912534
-0.05680796307101179 -0.1096212252511646 -0.04251600658871605
-0.0542698319995935 -0.1149520179368156 -0.047690144361935374
-0.051372122872708745 -0.12029888026643072 -0.05255747208090156
-0.0482593193151407 -0.12558812683274684 -0.05695001900068489
-0.04509062131442029 -0.1307223538695465 -0.060708188192848775
-0.0420167480883336 -0.13560496225360674 -0.06370114576122253
-0.039174498801199824 -0.1401415314937939 -0.06580936270371346
-0.036704623629101096 -0.14420415678855117 -0.06692084325389148
-0.03471995079196367 -0.14764004558452448 -0.06702212226432429
-0.033230207717816734 -0.15038439415569568 -0.06623849281547206
-0.03214017494277494 -0.1525193647153733 -0.06473225328202993
-0.03134671176836287 -0.15418849384704073 -0.0625335527402584
-0.03079884994380895 -0.15545022735319375 -0.05958485489713082
-0.030479092241678298 -0.15630887220239423 -0.05584840426718306
-0.03038548816682748 -0.15676815666182847 -0.051337315958938576
-0.03051817874827598 -0.15685200277797415 -0.046135053961951375
-0.030862032187164965 -0.15661392738135665 -0.040409744366102535
-0.031373713644639964 -0.1561494759617357 -0.03441259151150572
-0.03197816486623026 -0.15560309596136218 -0.028392707714297943
-0.032605059204306876 -0.15512481444035867 -0.022464176101065908
-0.0332026226106822 -0.15483630110967841 -0.01664983941738125
-0.03372567546563323 -0.1548418882612053 -0.010934361532402329
-0.03413766523940404 -0.15523210684245925 -0.005282246680807712
-0.03441060695201672 -0.15608760523146936 0.00034578985434042565
-0.034524587451041165 -0.15748196469093403 0.005980809020050218
-0.03447118956415964 -0.15948522400943904 0.011634916344062721
-0.034256622289818475 -0.16216287988361466 0.017295669037055702
-0.0338971504020684 -0.16557768299628106 0.022927685604015896
-0.03341433602149162 -0.16977418139604553 0.028462458682481897
-0.03283569577860093 -0.17474821975948612 0.0338077361551237
-0.03219399130728316 -0.1804483911918171 0.038885079603293626
-0.03152061769644058 -0.1868028276255376 0.043645493839633134
-0.03083937046197278 -0.193729123407334 0.048064506630667365
-0.030161182195397835 -0.2011360516741531 0.05214094145028341
-0.02948127840836147 -0.20891919841095163 0.05589605381938008
-0.028779103177987576 -0.2169559482828176 0.05937161184169975
-0.0280220130611704 -0.22511037109537246 0.06263049095348681
-0.027169154632352917 -0.23325063019636755 0.06575363607685242
-0.026172020652508825 -0.24127213075765164 0.06883362736706874
-0.024972862885562913 -0.24911412179392017 0.07195986342991709
-0.02351221236335639 -0.2567517058350777 0.07519700907306132
-0.0217348792203242 -0.2641742892564523 0.07858045507841596
-0.01959142701409741 -0.2713707737995866 0.08211798906151323
-0.017043216266623876 -0.27832259127432263 0.08579508207380002
-0.014065394545732163 -0.2849999779450745 0.08958306961852887
-0.01064722073862499 -0.2913612812708671 0.09344409273401265
-0.0067912637082118595 -0.2973571754671092 0.09733670317502058
-0.002509617968451572 -0.3029406736804704 0.10122310267735726
0.0021831172673102694 -0.30807605475329547 0.10507571086084332
0.007272935636660934 -0.3127366804188804 0.10887941491804613
0.012744893308779202 -0.3169043445314881 0.11263210360370829
0.01858076911143664 -0.3205692531437449 0.11634503686133528
0.0247570965480199 -0.3237286114508306 0.12004382264961454
0.031243578833577076 -0.32638435069626454 0.12376613015845314
0.03800116201746856 -0.32854170202760896 0.1275540572033759
0.04498357081579147 -0.3302098361793453 0.13144609669411958
0.05214098001783064 -0.3314027589953082 0.13546881450899936
0.05942504089650825 -0.3321424644688897 0.13963291771889896
0.06679254667749462 -0.3324596657610438 0.14393314574485042
0.07420688251737399 -0.3323960518402595 0.14835203262099744
0.0816351436555346 -0.3320012603966798 0.15286704546765553
0.08904460554085138 -0.33133134836990313 0.1574515811483102
0.09640169103956651 -0.33044686634819526 0.16207875226353566
0.10367399747658991 -0.32941276099008204 0.16672588948019532
0.11083329075012184 -0.32829421325687275 0.171377916547983
0.11785892770691181 -0.32715152302988426 0.17603001210688274
0.1247364552678858 -0.3260358305979895 0.18068388984624995
0.13145260002061918 -0.3249882193099043 0.18534123779615494
0.13799270653060838 -0.32404266676015264 0.18999994324710245
0.14434209148560964 -0.3232308771446256 0.1946517046891633
0.1504888387306558 -0.3225867283123974 0.19928410565827126
0.1564229309001603 -0.322149555274547 0.20388328323924668
0.1621356844964397 -0.3219663414768262 0.20843451083001135
0.16761915750801948 -0.32208948288558337 0.21292767722608147
0.1728663747579505 -0.3225731913469995 0.21735756719808985
0.1778702344295367 -0.3234721680792142 0.2217241590440623
0.1826231344472889 -0.3248390993146067 0.22603173081635305
0.1871129909347616 -0.326722688716695 0.2302859008902189
0.1913205002231275 -0.32916383442188707 0.23449409976338084
0.19521369644747716 -0.332189307684309 0.2386632807846826
0.198744734103074 -0.3358049752099787 0.24279894961827989
0.2018540496970312 -0.3399905401618362 0.24690058572084742
0.2044827145641603 -0.344697062199744 0.2509605000714048
0.20659223274998603 -0.3498602444257761 0.25496898881638935
0.2081693138904535 -0.3554162200905315 0.2589215929902998
0.2092215826091225 -0.36130752503671776 0.2628178648285874
0.2097750244211289 -0.3674751717716934 0.26665374906809675
0.20987855767212285 -0.37384851354363424 0.2704175341899609
0.2096069828381173 -0.38034038908499396 0.2740934861948348
0.20905613041069163 -0.38685307654694817 0.2776657639975552
0.20832796742896179 -0.39329129873458757 0.28112538270331994
0.20751557495580256 -0.39958207487902253 0.2844720600779777
0.20668993076267161 -0.40569242347463597 0.28771941995386136
0.20589892929152298 -0.4116257636765231 0.2908960980376828
0.20517977298651283 -0.41738440872675564 0.29403156500774696
0.20456906312909534 -0.4229157850779282 0.29712337183210374
0.20410075597853836 -0.42809497341007974 0.30010349754062704
0.20379456036081317 -0.4327813575731335 0.30285692781930396
LINES 1 120
119 0 1 2 3 4 5 6 7 8 9 10 11 12 13 14 15 16 17 18 19 20 21 22 23 24 25 26 27 28 29 30 31 32 33 34 35 36 37 38 39 40 41 42 43 44 45 46 47 48 49 50 51 52 53 54 55 56 57 58 59 60 61 62 63 64 65 66 67 68 69 70 71 72 73 74 75 76 77 78 79 80 81 82 83 84 85 86 87 88 89 90 91 92 93 94 95 96 97 98 99 100 101 102 103 104 105 106 107 108 109 110 111 112 113 114 115 116 117 118
POINT_DATA 119
SCALARS Curvature float
LOOKUP_TABLE default
-0.012082569670141435
-0.012264328801124979
-0.003997460703753882
0.01351690760352984
0.03992815402916081
0.07365589179320535
0.11197971920759933
0.15129768863708662
0.1875285838079129
0.21661191586631723
0.23504378093006248
0.24037869366127584
0.23162856970084322
0.2095003361262368
0.17643213053317375
0.13641251447065236
0.09459453334198323
0.05674329484955741
0.028578493061843645
0.015088909307645774
0.019902172375445677
0.044788924801873485
0.08936630819168112
0.15104294421748998
0.22521906473698425
0.30572463438702124
0.38544905542804986
0.4570920437948927
0.5139495904368988
0.5506436236539091
0.5637098236455891
0.5519743684786028
0.5166752447218012
0.4613140891104429
0.39125659618475433
0.31312936491033755
0.23408497967656766
0.16102219077914914
0.09985245868599762
0.0548973833432857
0.028484582794201893
0.02078461714869283
0.029901763337082648
0.05220059534144779
0.08282226589956307
0.1163225700461714
0.1473509130164799
0.17128666004582552
0.18475713823871862
0.18597858827919916
0.1748852703455834
0.1530395259211107
0.12334328911565737
0.08959579482494333
0.05596003299372711
0.026409735269011338
0.004228397146287531
-0.008377660421511356
-0.010507402557722405
-0.002612040174689755
0.01363687793157156
0.03563250487401164
0.06022590554156639
0.08416990301490206
0.1045515908830941
0.11915559240560146
0.1267118924917957
0.12699969375030684
0.12079968850408941
0.10970844101900902
0.09584730499365732
0.08151194702609472
0.06881534877603517
0.05937634215287338
0.05409758694635008
0.05306273391275336
0.055564447123512065
0.06025561296927149
0.06539819961472856
0.06917035821378385
0.06998438595339922
0.0667671536713774
0.05916059542994174
0.04761193021888894
0.03333965236344596
0.01817961061205113
0.0043330669747562904
-0.005947024568078685
-0.01068618949696975
-0.00848717346173386
0.0012462949243471867
0.018193681868879288
0.04112741414240848
0.06804802342787358
0.09642660942587399
0.12352126281510203
0.1467235242030106
0.16388663537054962
0.1735898893744776
0.17530245543079911
0.16942436359791385
0.15719985397928463
0.14051653151521276
0.12162011326514888
0.1027866592357863
0.0860002802004409
0.07268350128133978
0.06351979407390168
0.058394318482302726
0.05646152456656405
0.0563294224964447
0.05633274103141644
0.05485342477237326
0.050639022713612314
0.04306874408965404
0.032323555779921756
0.019429875223919455
0.006164427571637866
-0.005171784841181491
