# vtk DataFile Version 2.0
Vessel Segment
ASCII
DATASET POLYDATA
POINTS 119 float
-0.0032196033711519296 -0.0054749881344735235 0.00016456356226773728
-0.007111783292921309 -0.011361684799048607 0.0008190551481455862
-0.011507846661532994 -0.01740278714645519 0.0018355089019961362
-0.016215247005796192 -0.023377528889733577 0.0030328388358861363
-0.021069607487528594 -0.029145228947515745 0.0042245155482566014
-0.02594188100451921 -0.03463390809517041 0.005230497737207735
-0.03072237419538428 -0.039809250950251264 0.0058743452811658315
-0.03530595175455481 -0.0446517928321517 0.005992638686082555
-0.039595319802404674 -0.049152758041313936 0.00546134079559196
-0.0435255008610839 -0.053332961906537565 0.004218485022558486
-0.047078787503625985 -0.05726423258251837 0.0022397197485816557
-0.05025335375489899 -0.06104616377919448 -0.0005013113975443923
-0.05302006045425889 -0.06476470900287519 -0.004016363263144024
-0.05531693240726677 -0.06848166441270591 -0.00824549254020517
-0.057082953091539664 -0.07224647208851402 -0.01305141504115806
-0.05828408391011253 -0.0760932651339039 -0.018260959627076453
-0.05890989803296031 -0.08003881641161997 -0.023721792250651363
-0.05895724994131041 -0.08407915438709848 -0.029316283474235726
-0.05842935049633891 -0.08820003856354483 -0.03495788944350669
-0.05733933709659745 -0.09238948940817637 -0.040576967892259924
-0.055712559185657935 -0.09664621820418261 -0.04612000852830392
-0.05358936477885456 -0.10096951948810932 -0.05153089290710681
-0.05103858426019641 -0.10535097004400439 -0.05672675234423628
-0.048166645721760985 -0.10976554266578427 -0.06158353757242486
-0.045122610000976164 -0.1141544944811659 -0.06593587372402714
-0.04209033876103617 -0.11841476412318067 -0.06961027533809792
-0.0392521586850841 -0.12242766182443736 -0.0724868889772046
-0.036749744715142835 -0.12610516719554768 -0.07452690026972222
-0.03466208715600889 -0.1293846876358736 -0.07575530328882984
-0.03301462310969532 -0.1322101470920804 -0.07624464280115269
-0.03177664998160418 -0.1345758485157841 -0.07610797144008377
-0.03087755558960746 -0.13653851975729464 -0.07545139628630233
-0.030245700497408268 -0.13819026225269843 -0.07430932488703774
-0.02984115042156759 -0.1395898403412753 -0.07265164079629957
-0.029647223541410327 -0.1407525069909389 -0.07043321542117204
-0.02966350988920134 -0.1416636018982881 -0.06760848745834443
-0.02990528278935711 -0.14228746359987463 -0.06414437544337671
-0.030395515274767828 -0.14257499722045408 -0.06004142033909127
-0.0311462160742801 -0.14248200759532512 -0.05536196543449633
-0.03213917841311233 -0.14200037313691435 -0.05024761645035044
-0.03330595056673157 -0.1411931062278404 -0.04490629978447758
-0.03455135122435217 -0.1401854908322233 -0.039511931639831986
-0.03578961524001785 -0.1391173844290839 -0.03417428189107007
-0.03695052781272669 -0.13812145623421498 -0.028954536683557415
-0.0379802723038488 -0.1373157826771699 -0.023874878354264984
-0.03884099200567547 -0.13680099471054352 -0.01892686386163108
-0.0395073726778334 -0.1366651219014121 -0.014083837723959342
-0.0399635951426548 -0.13699044834118584 -0.009323168219784714
-0.04020789522611759 -0.13784430919836738 -0.004654683710332643
-0.04025439353275914 -0.13925968201453034 -0.00011501555577209197
-0.04012397325833837 -0.141235987631013 0.0042598475716076325
-0.03983842767582537 -0.14376031378830562 0.008448939763175144
-0.03941731683586707 -0.1468199251888247 0.012438942951324972
-0.038876368868147264 -0.15039937729287328 0.0162188349041056
-0.038226303317122894 -0.15447811230184058 0.01978686552165183
-0.03747088755739758 -0.15903164810351342 0.023155909248606613
-0.036606291599201396 -0.1640305461286908 0.02634830159406424
-0.0356246180923933 -0.16943300806940984 0.02938503980332369
-0.03451956454635212 -0.1751798025919184 0.03227320797757975
-0.03329259367608113 -0.18119499776443387 0.035000730194688245
-0.031953667819917875 -0.1873915621270261 0.037550113818443136
-0.03050513998078555 -0.19368636110141924 0.03992015668501154
-0.028933188904152706 -0.20000452330603533 0.04212253520107516
-0.02721337832715871 -0.20627195930065095 0.04417897671508525
-0.025316965119729085 -0.21241757799095842 0.04612199689717928
-0.02321956467242792 -0.21837922035859425 0.047991325039041785
-0.02090552456749218 -0.2241048118987896 0.04983014589722821
-0.018367275453320297 -0.22955322481394627 0.05168256394175318
-0.015603111762494456 -0.23469396219643218 0.05359141404728879
-0.012614077370179038 -0.23950793935907114 0.05559621843772129
-0.009401108172605898 -0.2439868394156225 0.05773179672297902
-0.0059629293220890755 -0.2481318393860941 0.06002887937895323
-0.0022942532000465735 -0.2519518342051886 0.06251431710413978
0.0016127061427078189 -0.25545734570385675 0.06520925741699568
0.005762364277335467 -0.25865579884255735 0.06812448644967288
0.01015057369212163 -0.26155430377391736 0.07125553308241662
0.01476765348064155 -0.2641625380021998 0.07458416428052388
0.019604029194266136 -0.2664910662654885 0.07808253007491761
0.024653334776466185 -0.26854911037895374 0.08171599080467272
0.029915302764414706 -0.2703452633199407 0.0854468554621349
0.03539736113875635 -0.27188873528160845 0.08924175224700251
0.041110881984467454 -0.27318710129407375 0.09307850676365277
0.047063280115401396 -0.274244135309951 0.09694767121631329
0.053249267184019906 -0.27506065459596996 0.10085120012108284
0.05964305572606523 -0.27563873035961844 0.10479907921035209
0.0661932929382982 -0.2759886795479697 0.10880340627544599
0.07282436999619173 -0.2761375298646587 0.11287267994806967
0.0794459699928081 -0.27613327870455034 0.11700615155580216
0.08596578288902158 -0.27604264332653033 0.12119116625133752
0.09229975597410765 -0.2759421343622555 0.12540516624869036
0.09837771376829607 -0.27590944614479673 0.12961801718272625
0.10414568831629153 -0.27601123001660444 0.1337962977994363
0.10956770131067625 -0.27629554468557627 0.13790710460870062
0.1146287460769233 -0.27678800213644056 0.14192116992265696
0.1193366522303738 -0.27749558464356405 0.14581936989104796
0.12371545996638365 -0.2784158539365049 0.14959416483717003
0.12779568300585584 -0.27954542252459946 0.15324792621729103
0.13160676304446217 -0.2808846008820822 0.15678978655201897
0.13517286966643333 -0.2824392157944475 0.1602337168956386
0.13851031261240235 -0.28421955927044346 0.16359745010068152
0.14162670500660673 -0.2862378719682679 0.16690120953494456
0.14451954858591962 -0.28850542938983775 0.17016443885605267
0.14717731724245445 -0.29102901587159274 0.17339967344059612
0.1495857789703891 -0.29380930376895303 0.17660886282002028
0.15173736239202756 -0.29684399039120224 0.179785121284053
0.15363376269015191 -0.30013453040187904 0.18291917447734765
0.15528088218978867 -0.3036886802251726 0.1860025540090921
0.15668295222733147 -0.30751924383151147 0.18902744277122396
0.1578397547501252 -0.31163847040743375 0.19198611552515496
0.15874816829936814 -0.31605051821074165 0.19487065411608562
0.15940827527609075 -0.32074534124387777 0.19767277360751065
0.15982975235603342 -0.3256981131386439 0.2003887116638512
0.16003356212827677 -0.3308736392031756 0.2030237795114429
0.1600513074509537 -0.3362280174604284 0.20559418845119057
0.15992490051529465 -0.3417050565297327 0.20812554022997448
0.15970811461671486 -0.3472226887685159 0.21064590233120958
0.15946133097107734 -0.35264988689236704 0.21316954112538725
0.15924083887489687 -0.35780375580076657 0.2156724696870221
0.15908679134108467 -0.3625099850244608 0.21809382756704765
LINES 1 120
119 0 1 2 3 4 5 6 7 8 9 10 11 12 13 14 15 16 17 18 19 20 21 22 23 24 25 26 27 28 29 30 31 32 33 34 35 36 37 38 39 40 41 42 43 44 45 46 47 48 49 50 51 52 53 54 55 56 57 58 59 60 61 62 63 64 65 66 67 68 69 70 71 72 73 74 75 76 77 78 79 80 81 82 83 84 85 86 87 88 89 90 91 92 93 94 95 96 97 98 99 100 101 102 103 104 105 106 107 108 109 110 111 112 113 114 115 116 117 118
POINT_DATA 119
SCALARS Curvature float
LOOKUP_TABLE default
0.006561373039682653
0.005609731341729288
0.013032993093740314
0.029733142930190908
0.055549786085232276
0.08913521167946577
0.1279844570306691
0.1686300711050699
0.20698898410838476
0.2388270191103764
0.2602881492067711
0.26842328235599267
0.2616490973390296
0.24007220187437858
0.20562741362346018
0.1619998772404941
0.11432660029485497
0.06870065581910544
0.031527255253132165
0.00880174556735717
0.005392484138692803
0.02441458681721506
0.06677302726368625
0.13093611293210508
0.21297487357041928
0.3068733291030134
0.4050826153377092
0.4992624491739158
0.5811300812227314
0.6433226778186449
0.6801758720262295
0.6883295625641375
0.6670910398505486
0.6185129776073007
0.5471764885763566
0.4597033897482533
0.3640529702126793
0.26868315316928054
0.18167104438531373
0.10989168120936083
0.05834594345604015
0.02971009382917639
0.024152608536246924
0.03943216209132664
0.07125774326269138
0.11386188666143747
0.16071448101440305
0.20529028500875451
0.24179969132336035
0.26579962295251
0.27461856249924615
0.2675542589569965
0.2458314135028746
0.21233595525064575
0.17116874328651346
0.12708151940666537
0.08486940501783728
0.04879604401841253
0.022119756284186862
0.006773107873965275
0.0032264549722510723
0.010541288014971261
0.0265948696452125
0.0484368411282961
0.07272371825919687
0.09617018002392932
0.11595736780998304
0.13004753655266305
0.1373697927228319
0.13786099875683425
0.13236645515910903
0.12242386533709977
0.1099688420018585
0.09700897726642882
0.08531530519631904
0.07617485955216771
0.07023695308477197
0.0674705557942038
0.06723303302604686
0.06843401738855359
0.06976466676651394
0.06995385432464228
0.0680100610475682
0.06341113724517486
0.056213015926457416
0.047061467123592
0.03710608597293106
0.027830650229811425
0.02082656870780711
0.017544551927866074
0.019062685506020107
0.025906388869096318
0.037947755450424475
0.05439972516602858
0.07390625144885447
0.0947152273229157
0.11490856746421778
0.13265533896274334
0.1464504521198049
0.1553036665024179
0.15885120795681246
0.15737401604528742
0.15172081088941883
0.1431486736371276
0.13310650033852237
0.12299559297158418
0.11394540981121071
0.10664047368359267
0.10122684467273052
0.09731444872073439
0.09407665209313541
0.09043297026071627
0.0852870232981039
0.07778192522506965
0.06753083600549437
0.05478226657583712
0.040487860520582064
0.02625381158760586
0.014174038176451647
