# vtk DataFile Version 2.0
Vessel Segment
ASCII
DATASET POLYDATA
POINTS 119 float
-0.0032711952822368205 -0.006539233275817765 -0.0007994732423839737
-0.007218109791080745 -0.013164568135397361 -0.0008833476868782498
-0.011657819994187697 -0.019593568184237683 -0.0004215854573412908
-0.016397747227430332 -0.025662772300951566 0.00038515844204195163
-0.021285624356987616 -0.03133919123118256 0.001308279848064787
-0.026185065791157203 -0.036622904463290876 0.002099986391760705
-0.030962901511602275 -0.04151613667188107 0.002520106627978978
-0.03548678076964826 -0.0460173615500507 0.002363270031756479
-0.03964285740950958 -0.05012741869354165 0.0014938570130837922
-0.04337245653083896 -0.05387725541017994 -0.00013887960157883076
-0.04668655179775907 -0.05735773724572593 -0.002554129896338847
-0.04961152219829719 -0.06068514816889611 -0.00580420565244625
-0.052121863634406 -0.06394005725731439 -0.009928194136025734
-0.0541417546740602 -0.06716169154671613 -0.014837715128033734
-0.05562357675955418 -0.07038604486990778 -0.020324097341708623
-0.05654772827272054 -0.07364043746232542 -0.0261791100450906
-0.056908422402571386 -0.07692401786041149 -0.03220345776108241
-0.05672315312864144 -0.08023423900263472 -0.03825775124478443
-0.05600535653002508 -0.0835702740988648 -0.04426301889389561
-0.05476816580573594 -0.08693798511856173 -0.050156956595743554
-0.053033553461970924 -0.09035244381819263 -0.055892443697710494
-0.05084027807670182 -0.09382364605474001 -0.06142201585062703
-0.04825784168419567 -0.09735318677269157 -0.0666785822967659
-0.04539204252150826 -0.10093085017121063 -0.07155561045253069
-0.042398087020341965 -0.10451160937891948 -0.07588972884156547
-0.039484646302580875 -0.10798893757687046 -0.07949376164125613
-0.03686142621462677 -0.11122728760168228 -0.08226000397355089
-0.03466694347909792 -0.11414688988361885 -0.08422630285856679
-0.03291518023309049 -0.11674632178699546 -0.08554228786569644
-0.03154665813419786 -0.11906634963437517 -0.08635992355477311
-0.030486727248727162 -0.12118032279213782 -0.08677765504253511
-0.02968904701278789 -0.1231326596413287 -0.0868081721505528
-0.029132673581216312 -0.1249172390841329 -0.08642565451298194
-0.028807822876833936 -0.1265147498254207 -0.08562063345873744
-0.028696239633804205 -0.12792088631166834 -0.08439890848171935
-0.028786478083341532 -0.12912965446608435 -0.08273226879350778
-0.029096241714124713 -0.1301051244495875 -0.08054328986210876
-0.029677928703645984 -0.130761947831002 -0.07771878264423604
-0.030603026791256187 -0.13096107682803668 -0.07414838049133522
-0.03193131959934068 -0.13053582506435313 -0.06982135062198729
-0.03362279698200823 -0.12940736967985889 -0.06495126428926228
-0.0355528287263205 -0.1276521365580211 -0.059796759126056497
-0.03759523678991225 -0.12542112877848619 -0.054548262110848574
-0.03963420783448949 -0.12289861340635466 -0.049331793071451135
-0.04156700741553298 -0.12028369497680372 -0.04421381127422461
-0.04330695172082978 -0.11777388370131318 -0.0392137840375211
-0.044780186073042245 -0.11555436327662605 -0.03432689851100239
-0.04592669799642466 -0.11379164466807556 -0.029564078975557018
-0.046724386301149085 -0.11259495095561989 -0.02498472272398249
-0.04719789561819412 -0.11198152634165294 -0.020648950637678423
-0.047389363464821616 -0.11191239800395827 -0.016572946416987137
-0.047337992918185134 -0.1123471856866674 -0.012742843729761229
-0.047074739138401996 -0.11326027203912607 -0.009141050498032793
-0.046622315106414805 -0.11463677072339026 -0.0057515523242132605
-0.04599620100042919 -0.1164716039390417 -0.0025501686243653713
-0.045203880514505745 -0.11877524791691735 0.0004984665944467973
-0.044246239175476446 -0.1215744623856618 0.003426655829446857
-0.04312513477277678 -0.12489633117978013 0.006239938280408646
-0.04185495001699936 -0.12874629334741694 0.008894695947247556
-0.04047546246444341 -0.13309125573381683 0.011294939587032902
-0.039052324729412655 -0.13785738394115943 0.01333530436733203
-0.03763733797094701 -0.14296014924256706 0.01496333299331946
-0.03624683707546704 -0.1483191904267146 0.016175459736017087
-0.034871306636064206 -0.1538438694343233 0.01700884486789394
-0.033483768622189214 -0.1594327442778411 0.017538696763612232
-0.03205460281431743 -0.16498742849628195 0.017865278045180618
-0.030561286782518893 -0.1704221544653081 0.018101740053836843
-0.028989227667058675 -0.17567117947987437 0.01836268441931677
-0.027330291942443085 -0.18068830871145605 0.018753529552729853
-0.025580525081963068 -0.18544779006755616 0.019362060698025128
-0.023734933140216685 -0.18994951649003528 0.02025550899641092
-0.02178127376075321 -0.1942161988203614 0.02148458974751624
-0.019695300284936268 -0.1982856754234521 0.02308718682722848
-0.017442894269299663 -0.20219387558499963 0.02508567167266836
-0.014990163669414325 -0.20596195900859007 0.02747732704658493
-0.012311962426405788 -0.2096012929022781 0.03022659812892502
-0.009389005447679621 -0.21311965553123363 0.03327048314792527
-0.006201255378888249 -0.2165201616402299 0.036532381105642636
-0.002725922646431651 -0.2197964712128226 0.03993214673539028
0.0010655641568140892 -0.222936069682311 0.04339588190787456
0.005209571965649346 -0.22592247038912927 0.046868177342433814
0.009747076198870776 -0.22873374956471088 0.05031967105423918
0.014713388389922512 -0.2313378136981796 0.05374884953364098
0.020123984705864503 -0.2336919663453318 0.0571766548213138
0.025957818604295586 -0.23574692416393134 0.0606371865702555
0.03214488485444207 -0.23746199234694781 0.06416550430668244
0.038564871267490614 -0.23882700858221917 0.06778537165666611
0.045065300363072915 -0.23987846896374848 0.07150061575884732
0.05148933577415719 -0.24069988759728742 0.07529363771297254
0.05769679480553002 -0.24140295704160386 0.07913059193253788
0.0635737990952609 -0.24210556027898328 0.08296738582682225
0.06903445040928938 -0.24290255595487922 0.08675571786952711
0.07402497643383413 -0.24384805851956803 0.09044789003827411
0.07852836838754587 -0.2449470787244934 0.09400153833570003
0.08256714386981319 -0.24616638116098716 0.09738692720969348
0.08619104444066086 -0.24745590477359433 0.10059070084663158
0.08946176755496638 -0.24876614078946108 0.1036146830015619
0.09244176345552131 -0.2500595586861298 0.10647317410590097
0.09519071363506738 -0.25131640744435696 0.1091928621229659
0.09776208358710778 -0.25253561972887384 0.11180964890564646
0.1002033672128734 -0.2537334774334401 0.11436584431775901
0.10255320356314954 -0.2549404581716711 0.1169023137337595
0.10483821530480664 -0.256196029028601 0.1194490271818701
0.10707434443736415 -0.25754546215516394 0.12201797484343269
0.10926964085418484 -0.2590352668178868 0.12460205218800623
0.11142760770631843 -0.2607133872968 0.127181763977976
0.11354406731918908 -0.2626291060943286 0.12973315682685457
0.11560125879459948 -0.2648350448955649 0.1322338628127038
0.1175617243231584 -0.2673844328897706 0.13466568024345552
0.11936995501589685 -0.27032545802694313 0.13701352110523476
0.12096548385135462 -0.2736960556985135 0.13926605971983447
0.12230008003323749 -0.2775238832464323 0.14142116236620822
0.12334401832453394 -0.2818212294373844 0.14349047092036815
0.12409073596370329 -0.28656490233984755 0.14549632101842846
0.12456191856623437 -0.2916758712210479 0.1474671711654131
0.12481018538803458 -0.29701438915599665 0.14943644563944564
0.12490686378996302 -0.30238310859735773 0.1514397702648338
0.12492365046181761 -0.30754302519826127 0.15349805913929349
0.12491758791906683 -0.31228576423085985 0.15560402246934638
LINES 1 120
119 0 1 2 3 4 5 6 7 8 9 10 11 12 13 14 15 16 17 18 19 20 21 22 23 24 25 26 27 28 29 30 31 32 33 34 35 36 37 38 39 40 41 42 43 44 45 46 47 48 49 50 51 52 53 54 55 56 57 58 59 60 61 62 63 64 65 66 67 68 69 70 71 72 73 74 75 76 77 78 79 80 81 82 83 84 85 86 87 88 89 90 91 92 93 94 95 96 97 98 99 100 101 102 103 104 105 106 107 108 109 110 111 112 113 114 115 116 117 118
POINT_DATA 119
SCALARS Curvature float
LOOKUP_TABLE default
0.0380364936142321
0.03675522386626805
0.043907847282967365
0.059778674347079806
0.08379618181938726
0.11448321561852627
0.1495066283671186
0.18583380315861114
0.21999069913338093
0.24840250511763204
0.26778545500384837
0.27554860126959924
0.2701588888257273
0.2514227952752663
0.22064355421452517
0.18062427808627182
0.13550313484705992
0.09042545110427906
0.05107708796913796
0.023121318266848028
0.011595445084076075
0.02033162043684766
0.051467444559899385
0.1051054539914695
0.17916694677634912
0.26946604140201025
0.3700064810624629
0.4734790723257766
0.5719146210212562
0.6574285324643181
0.7229811786867308
0.7630742800728071
0.7743085507666253
0.7557413367689736
0.7090035510727799
0.6381606456112974
0.5493298189127587
0.450092034199876
0.34875970373318493
0.25357652339152675
0.17193311808350364
0.10968006038452399
0.07060870371324418
0.05615142499514269
0.06532848832492494
0.09494163774634229
0.13998781364826535
0.19424309617378188
0.25094970848399106
0.3035295236780201
0.34624692498361626
0.37475194119815913
0.38645018105197576
0.38066722885840326
0.3585992465001758
0.3230656820916351
0.27810141331655647
0.228441957755093
0.17896484881256824
0.13415205736660124
0.09763253315482376
0.07185154595548628
0.05789627606692263
0.055487300498040217
0.06312572777854866
0.0783681385952914
0.09818819596489757
0.11937618595699008
0.13892646412582438
0.154367631556162
0.16400031498083723
0.16702114465189435
0.16352699839484092
0.15440877700459663
0.14115700501285308
0.12561090002985925
0.10968726477146855
0.09512531897841758
0.08327875007769894
0.0749777446104457
0.07047291534237027
0.06946143449074789
0.07118489855127107
0.07457985515959303
0.07845650871726571
0.08167938912075408
0.0833256854148972
0.08280198567551099
0.0799074034095648
0.07483934369754505
0.06814623858593889
0.06063834339088512
0.053272282325222804
0.047026985268521594
0.04278791056155871
0.04125334891558035
0.042871827251921894
0.04781406235723427
0.05597749643393711
0.06701703312242988
0.08039281526629126
0.09542506382188708
0.11134709850946063
0.1273503195073896
0.14261851888359162
0.15635263584561027
0.1677901852485724
0.17622541461456323
0.1810363652890654
0.18172333344925753
0.17795999758675068
0.1696542653060563
0.15701148568668208
0.1405889662143955
0.12132856867002655
0.10055418243391165
0.07992341127203238
0.06132778529021817
0.04674272752413098
