# vtk DataFile Version 2.0
Vessel Segment
ASCII
DATASET POLYDATA
POINTS 119 float
-0.0032148865388519116 -0.005219065530349561 0.00040972639839144
-0.007099642268100611 -0.010921562543174035 0.0012601287785004908
-0.011488452019946926 -0.016863654859048956 0.0024282653464160623
-0.01618909287808024 -0.022815090772721727 0.0037343306984193737
-0.021035123730853283 -0.028609580514465344 0.005001414249789463
-0.025900545282849515 -0.03415690181303345 0.006067923925283639
-0.030682722498417615 -0.03941325432834526 0.006775342533981735
-0.03528469496718571 -0.04435473941437993 0.0069722890768169855
-0.03961476804224108 -0.048970669264263245 0.006538013125613009
-0.04360709008303771 -0.053279639492179086 0.005406413068846828
-0.04723576899413706 -0.05734782836739774 0.0035494080790405605
-0.05048983437079506 -0.061269023699995685 0.0009451320849003151
-0.05333738680974351 -0.06512939626753197 -0.0024122855065476343
-0.055718775168840384 -0.06899607570621179 -0.006469584580753102
-0.05756869173959465 -0.0729218229778741 -0.011105680461585804
-0.05884961798762458 -0.07694342330701026 -0.016155228403184122
-0.059550542112293076 -0.08108395759085757 -0.02147762477836651
-0.059662834388939115 -0.08533968431284558 -0.026960655130369042
-0.05918684469659388 -0.08969267702827875 -0.032515756288900334
-0.05813578204831035 -0.09412568150837343 -0.03807118742501495
-0.05653618213717232 -0.09863239181973334 -0.043571591872685556
-0.05442913187918842 -0.10320878370251665 -0.04895855542295633
-0.05188350596913034 -0.10784338545520882 -0.05414500643241259
-0.0490061372740799 -0.11250672039116978 -0.059002076747859435
-0.04594466779667157 -0.11713602805621104 -0.06336372807171768
-0.04287610832394087 -0.12162960375785647 -0.06706031047657561
-0.039974435235184715 -0.12587433944117732 -0.06996882592742217
-0.0373807687175867 -0.12978019897360316 -0.07202849985489508
-0.0351915666345339 -0.13326678946262563 -0.07322767175145392
-0.03345632276297266 -0.13625113742021674 -0.07361620970554265
-0.03215594045761295 -0.13870956484086064 -0.07331231897093154
-0.031212786199934107 -0.14070623189155343 -0.0724429400846845
-0.030544293812201553 -0.14235391382916887 -0.07104622297537694
-0.030106038338426525 -0.14371793768422017 -0.0690814245772527
-0.029881844713963133 -0.14481062203041142 -0.0664980942180991
-0.029872013339334508 -0.14561779360635468 -0.06325996999119171
-0.030088529545874553 -0.14611402002695317 -0.05936019838784241
-0.030544374329669673 -0.14627269711971808 -0.054841284745756856
-0.031235706771936343 -0.14608491049626043 -0.049816809923764416
-0.032126698112979676 -0.14558611799726887 -0.0444628999665885
-0.03314636439275258 -0.1448686230503806 -0.03897050841378994
-0.034210934903118446 -0.1440605330417979 -0.033478719396490664
-0.03524668588648906 -0.14329202200767008 -0.02806759512057062
-0.03619468113792277 -0.14268037295850297 -0.02277499964106479
-0.03701100194578926 -0.14232652582289723 -0.017607322278311674
-0.03766557509940022 -0.14231585345101166 -0.012547719590612273
-0.03813958473868593 -0.14272545708936574 -0.007567488281030773
-0.03842323681388912 -0.14363106368343165 -0.002644723858363152
-0.03851798069701271 -0.14510031558389477 0.002211682255558382
-0.038437331979930954 -0.14717311151598933 0.006960735410147341
-0.0382011570256993 -0.14985351409819583 0.011552702802921679
-0.03783181455700113 -0.1531250505031185 0.01595094909463107
-0.03735049344511004 -0.15696550420815308 0.020131004646618947
-0.03677446873028233 -0.16134650143079 0.024075653659129132
-0.03611479517071796 -0.16623202208607193 0.027780277181673398
-0.0353739568589529 -0.17157858606624343 0.031257112726803656
-0.034545113269648396 -0.17733360543017848 0.03453124408726945
-0.03361530638634357 -0.1834310246550183 0.03763294238342608
-0.03257023607153148 -0.18979180692256148 0.040587789523136505
-0.03139869326631507 -0.19633024681671163 0.04341117135773295
-0.030092804126563368 -0.20296225298424903 0.04611401042232974
-0.028638629655152324 -0.20961495024193624 0.0487122242843915
-0.02701188485486786 -0.21622557675919318 0.05122270619859269
-0.025182526716209946 -0.22273332279016683 0.05366202318643544
-0.023120430540931776 -0.22907995036090492 0.056049035991848226
-0.020802104721838226 -0.23521301419686116 0.05840500836715834
-0.018213611801475536 -0.2410857521766313 0.060752422181430475
-0.015349721526741075 -0.24665788388420273 0.06311450147683181
-0.012211441995672073 -0.25189720301445767 0.06551502283619866
-0.008802313099967995 -0.2567819249130254 0.06797793016331162
-0.005125935506470914 -0.26129937531068215 0.07052647320382484
-0.0011849953660995243 -0.2654450930283084 0.07318358435312954
0.003019544865885102 -0.2692219585384545 0.07597205655290987
0.007487062682329498 -0.27263590280707894 0.07891352835661168
0.012212762217002895 -0.2756922771713303 0.08202475299331898
0.01718347335420166 -0.27839761541482183 0.08531238003493759
0.02238046449200076 -0.28076173443714775 0.08877230604490575
0.02778458161129343 -0.28279640024021013 0.09239068952297366
0.03337968258580028 -0.28451428097933146 0.0961449597158008
0.0391554948221673 -0.2859294768872464 0.10000635814694239
0.04510904189392502 -0.2870589002571887 0.10394624471099258
0.05124094583408239 -0.28791989305254634 0.10794297778807027
0.05754854934381376 -0.2885284897572951 0.11198333418895567
0.06401913805982933 -0.28889998613957957 0.11606246160796327
0.07062486225143132 -0.2890524756005022 0.12018242970926071
0.07731993272889286 -0.28901115644595865 0.12434849563193051
0.08404266340161747 -0.28881305033906535 0.12856545287036178
0.09072225986129336 -0.28850841438028574 0.13283260084222037
0.09728685291521895 -0.2881582767285001 0.13714031064201362
0.10367033884913275 -0.28782848696361957 0.14147073853604217
0.10981679192949484 -0.2875848286706311 0.1457989810444577
0.11568291836839473 -0.2874854802853799 0.15009681029177563
0.12123912644746797 -0.2875764329805697 0.15433617310682657
0.12647172359018083 -0.28788914284646877 0.15849168994199356
0.1313842814255462 -0.28844256710401783 0.16254688995801894
0.13599280533195474 -0.2892489497086958 0.16649521493456734
0.14031806059862026 -0.290319777068471 0.17033865524492714
0.14437962174900465 -0.2916685415686475 0.17408495682014527
0.148191632203959 -0.29331140889681717 0.17774532813577815
0.1517603328455973 -0.2952652875765387 0.18133386134597676
0.1550824041895065 -0.29754435506725035 0.18486627156576507
0.15814346572726215 -0.30015649440168746 0.188357526716544
0.16092013502522054 -0.3030998374959723 0.19181631027617851
0.16338781537667674 -0.3063614443590281 0.19524205087690877
0.16553240115238307 -0.30992319991152617 0.19862746626508182
0.16735303067768717 -0.3137708069546011 0.2019650656149546
0.1688568331948274 -0.3178970627220381 0.20524909220059784
0.17005349416124668 -0.3222989304293184 0.20847346848504406
0.17095405620849383 -0.32697062315021175 0.21163038880382395
0.17157298431860352 -0.3318960842393561 0.21471092658691113
0.17193228052441478 -0.337044756599719 0.21770565028027647
0.17206352143504053 -0.3423735186652366 0.2206098672354926
0.17200599330813596 -0.34783514230012663 0.22342757391668394
0.17180282950316594 -0.35338521702290593 0.22617418254986343
0.17149962829462712 -0.3589802606054209 0.22887569260083906
0.17114769481269373 -0.3645589161073279 0.23155994146852704
0.1708022622127161 -0.37001070740843234 0.2342361371503971
0.17051418984532168 -0.3751686253054892 0.23686804284785815
0.17031837064219585 -0.3798677425863766 0.23937983600165083
LINES 1 120
119 0 1 2 3 4 5 6 7 8 9 10 11 12 13 14 15 16 17 18 19 20 21 22 23 24 25 26 27 28 29 30 31 32 33 34 35 36 37 38 39 40 41 42 43 44 45 46 47 48 49 50 51 52 53 54 55 56 57 58 59 60 61 62 63 64 65 66 67 68 69 70 71 72 73 74 75 76 77 78 79 80 81 82 83 84 85 86 87 88 89 90 91 92 93 94 95 96 97 98 99 100 101 102 103 104 105 106 107 108 109 110 111 112 113 114 115 116 117 118
POINT_DATA 119
SCALARS Curvature float
LOOKUP_TABLE default
-0.0011260540876842804
-0.001699729149496157
0.00618383610390198
0.023435735909869852
0.04986238970943664
0.08404669338908403
0.1233925572678068
0.1643399785227858
0.2027344011604621
0.23431171933929684
0.25524199465575415
0.26266345234695065
0.2551354399927846
0.23294552374357916
0.19822128092407726
0.15481994354934642
0.10799616414317585
0.06387644125250176
0.028794530523375852
0.00856206654118776
0.007759885718980762
0.029136465893624248
0.07319006272111049
0.13799147113214882
0.21927708830676285
0.31081033015263043
0.4049772992232121
0.4935538970674805
0.5685599284538183
0.6231039378593605
0.6521221365009627
0.6529260020958677
0.6254947038508865
0.5724778692140692
0.4989078337680953
0.41165432676126373
0.31868443472108177
0.22821302798451124
0.14784093796352207
0.08377861437345244
0.04024179305284998
0.01908432280212608
0.019704434913150718
0.03922799095560325
0.07293965251097881
0.1149044509251453
0.1587012996533605
0.19817900422403692
0.22814542687926426
0.2449113954348635
0.24663110416360898
0.23340741409444304
0.2071601420157991
0.17128435382270843
0.13015025824399962
0.08851358199282056
0.050913351187054076
0.021132090512874034
0.0017821576355275543
-0.005936981171435541
-0.0022895658551599332
0.011133003147487185
0.031707689091025094
0.0561868286200631
0.081157067940167
0.10348696523915209
0.12070483394484491
0.1312608032331436
0.134645093008859
0.13135550135031016
0.12272812716070754
0.11066353448501272
0.09729351965411641
0.08463976963940505
0.0743143886646262
0.06730395514730762
0.06386484730345214
0.06354018186205689
0.06529041429598022
0.06771308064285779
0.06931464303408232
0.06879062944321807
0.06527007575810059
0.05848657155022189
0.04884994252138576
0.03740797339216233
0.025704291116236833
0.01555413481257429
0.008771972096331812
0.00689203081608505
0.010923808259987015
0.021179398381006926
0.03719884445287224
0.05778526264419448
0.08114532201399813
0.10511517771094146
0.12743940224506756
0.14606267962942246
0.15939215884274358
0.1664926862492768
0.16718702936906196
0.16204723066479237
0.15227934447954955
0.13951965154552015
0.12557367631563093
0.11213797846368379
0.10054742924017618
0.09158704430758113
0.08539788383095441
0.08149237837561576
0.07887771925930544
0.07626909913238422
0.0723601032497549
0.06610764055475704
0.056985054686208125
0.045160197209917034
0.031565024523287764
0.01783847229539899
0.006142925231768562
