# vtk DataFile Version 2.0
Vessel Segment
ASCII
DATASET POLYDATA
POINTS 119 float
-0.003229050218176945 -0.005747871710542129 -8.9185168767529e-05
-0.007132233840708423 -0.011827716522009365 0.0003659685496147748
-0.011537709859936959 -0.017971568509116076 0.0012299079426667818
-0.01625285772444919 -0.02397088181328503 0.0023186660450364703
-0.021115967759601766 -0.029712417414397854 0.0034353056342122674
-0.025995386517893057 -0.03514320230394311 0.0043812106020190925
-0.03077459314161907 -0.04023869651364129 0.004962125148886699
-0.03534054278034605 -0.04498411175790831 0.005002774614313651
-0.039590779422292624 -0.04937292490446284 0.004375900382425253
-0.04346159808666457 -0.05342845435265404 0.0030232842763112337
-0.046943421054315176 -0.05722806195187047 0.0009233516128872798
-0.0500430454935402 -0.0608766903750812 -0.0019559165072043252
-0.05273335808857445 -0.06445955908043757 -0.005632942186028696
-0.054949363741611315 -0.06803269537785243 -0.010040671361996802
-0.05663399208523574 -0.07164194175295271 -0.015024149978414069
-0.05775687820433703 -0.07531907351362142 -0.020401542436848115
-0.05830848521765127 -0.0790751578203799 -0.026008187203771026
-0.05829125443592379 -0.08290624290707312 -0.03172075958597906
-0.05771125808040391 -0.0868017800150308 -0.03745476481429216
-0.056581605324048934 -0.0907549055803812 -0.043142638203022984
-0.054926577583054664 -0.09476912447148765 -0.0487326934352961
-0.05278591911715705 -0.09884689633519606 -0.05417115589196686
-0.05022851761724333 -0.10298273740079156 -0.059379431633952234
-0.04736049516647502 -0.10715592784480316 -0.06423830523550123
-0.044332452602785816 -0.1113116472831561 -0.06858301991988192
-0.041335113913705396 -0.1153456467155611 -0.07223627021098912
-0.03855882931961167 -0.1191340589655338 -0.07508143766447462
-0.0361452075561661 -0.12259102336431638 -0.07710135469507301
-0.034155519078059415 -0.12567143237047165 -0.0783567104576802
-0.03259132695317334 -0.12834612886306554 -0.07894219390161147
-0.03141002310739521 -0.13062897254218037 -0.07896545941730403
-0.03054795836981662 -0.1325703095232382 -0.0785087549135164
-0.02994595409645005 -0.13423775390618853 -0.07759755114005448
-0.02957011679335063 -0.13567712349334848 -0.07621204560188723
-0.029403030953065987 -0.13690438769461788 -0.07431741218347802
-0.029442568559335497 -0.13790686880127945 -0.07186483043316771
-0.02970633072073309 -0.13864345473532183 -0.06880045863819467
-0.030226643484709877 -0.13904764410501047 -0.06508686995661393
-0.031031689679765915 -0.13904329886485345 -0.06073631950960853
-0.03212249594914279 -0.13857817684452312 -0.055852396364741076
-0.033435186016625006 -0.13768174983165216 -0.050653168681469955
-0.03486427488319819 -0.13647239483905182 -0.04534221761700429
-0.03631202074146391 -0.13509769303251626 -0.040055495040220615
-0.03769605201638829 -0.13370635681780899 -0.034874878858205755
-0.038950859657974936 -0.13243701418531081 -0.02983678047234278
-0.04002830906121065 -0.1314112337215653 -0.024941378104964777
-0.04089395535041791 -0.13073457974284686 -0.020166947226645825
-0.04152408901541398 -0.1305015371726595 -0.015495900409162853
-0.04191356405806868 -0.1307820944455583 -0.010945442403304813
-0.042078660053180145 -0.131601658034606 -0.006552545424672128
-0.04204363936786909 -0.1329512148195283 -0.002342370188314534
-0.04183207412700635 -0.13481576265637513 0.001678198811503332
-0.04146374120529566 -0.13718611149106388 0.005506935899751618
-0.040953946601848173 -0.1400544922031859 0.009140383433581398
-0.04031337415860767 -0.1434116186693826 0.012581939067896062
-0.039546614445344276 -0.1472486908979965 0.01584761320805518
-0.038651854452021454 -0.15155671897344597 0.018959291211406746
-0.03762506184339574 -0.15631633498515318 0.021930714970163374
-0.03646684962510994 -0.16148759535292492 0.024752212277934685
-0.03519046350754395 -0.16700551558779997 0.02738578836371199
-0.03382280145688598 -0.17278323251313746 0.02978694989265658
-0.0323815803572019 -0.17873176541869965 0.031938482840004674
-0.030862581401052108 -0.18476867251710016 0.03384753153236905
-0.02924617047303983 -0.19081018011408601 0.03554116591826738
-0.027504311801853528 -0.19677408246937314 0.03706528707623119
-0.025611240785016844 -0.20258822719557318 0.038477516973730884
-0.023549410775006444 -0.20819341085251286 0.03984087323805644
-0.021309156654026197 -0.21354507260524427 0.041219114327400094
-0.01888666056258965 -0.21861188261261863 0.04267264564185557
-0.016281174736143603 -0.2233756236915831 0.04425502155648388
-0.01349155321779925 -0.22783155685145348 0.046011218454479245
-0.01051297301149249 -0.2319866854717302 0.0479787516534641
-0.007334233330036504 -0.23585673563464135 0.050188187608712305
-0.003939498425011822 -0.23945777151209202 0.05266064719730887
-0.00031553403498673586 -0.24279993677097775 0.055402014542593324
0.0035420963632885505 -0.2458911011089507 0.05839792837944211
0.007632147574228197 -0.24874061095468186 0.06161698003170923
0.011953759501036623 -0.2513575167326623 0.06501776814490087
0.01650929967280273 -0.25374738390420654 0.06855357842608466
0.021307368604869585 -0.2559133952658914 0.07217749352554532
0.026364594833068536 -0.25785761738409996 0.07585092867048618
0.031701947307273666 -0.259578872624044 0.07955058231630008
0.03733596705136522 -0.26106998325024106 0.08327005376788736
0.04326822721048464 -0.26231856411055876 0.08701732600872678
0.049474884059151784 -0.2633115521102932 0.09080962879724223
0.055899396291720096 -0.26404465584982806 0.09466557416139343
0.06245305352736184 -0.26453457263311164 0.09859752590796039
0.06902709729923405 -0.26482636609671434 0.10260524472586383
0.07550991247137209 -0.2649917425087516 0.1066737872803052
0.08180053056544613 -0.2651172967784193 0.11077659613461516
0.08781544137396492 -0.26529218114987907 0.11487891808246584
0.09349078687068033 -0.2655911639994155 0.11894261339658734
0.09878483445200398 -0.26606416296191526 0.12293025693036669
0.10368159771062288 -0.26673100479835915 0.1268088039803658
0.10819307935945667 -0.2675871016236603 0.1305563527092714
0.1123509410489308 -0.2686160370811419 0.13416411084914703
0.11619494570589534 -0.26980047950714287 0.13763460381583337
0.11976409109634746 -0.2711286781889259 0.14097837663842527
0.12309251876242398 -0.272597448665607 0.14421250157050053
0.12620672797970967 -0.2742119493335944 0.1473589588868039
0.12912528261647344 -0.27598393742366734 0.15044315778568274
0.13185722507609168 -0.2779291974850655 0.15348959221380906
0.13440209141863585 -0.2800636709121598 0.1565149871454413
0.13675484983684885 -0.2824013166541993 0.1595238482482574
0.13891323384044757 -0.2849546480539959 0.16250945911482048
0.14088043918983992 -0.28773938727331344 0.16546035260092065
0.14266048466342832 -0.2907763424355973 0.1683647790952782
0.14425217023036677 -0.29409157123607466 0.17121235233785545
0.145645044058761 -0.29771198805249793 0.17399430855917675
0.14682051730126638 -0.3016582146515972 0.17670257466965023
0.14775958245314633 -0.30593763762818443 0.1793291866443642
0.14845268908076115 -0.31054240546298645 0.18187102645749964
0.14890407194680608 -0.31545019262875 0.18433476767641802
0.1491338192870309 -0.3206201074903013 0.18673769006145102
0.14917900360772193 -0.3259861149512752 0.18910545527423128
0.14909447177156543 -0.3314475064401731 0.19146688728981362
0.14894475195456583 -0.3368536419701021 0.19384167220126924
0.14879102483423826 -0.3420058846523274 0.1962181411264002
0.14867842720436544 -0.34672051252190833 0.19855035218313638
LINES 1 120
119 0 1 2 3 4 5 6 7 8 9 10 11 12 13 14 15 16 17 18 19 20 21 22 23 24 25 26 27 28 29 30 31 32 33 34 35 36 37 38 39 40 41 42 43 44 45 46 47 48 49 50 51 52 53 54 55 56 57 58 59 60 61 62 63 64 65 66 67 68 69 70 71 72 73 74 75 76 77 78 79 80 81 82 83 84 85 86 87 88 89 90 91 92 93 94 95 96 97 98 99 100 101 102 103 104 105 106 107 108 109 110 111 112 113 114 115 116 117 118
POINT_DATA 119
SCALARS Curvature float
LOOKUP_TABLE default
0.015171905048126717
0.01388516130346699
0.020904651997548682
0.03706566069277794
0.06219257631124835
0.09497741722599136
0.13300178550214428
0.1729134420690169
0.21074814931995134
0.24236679546212456
0.2639599140627849
0.27255912022082707
0.26648967851229116
0.24570148403547648
0.21192719415931968
0.16863500220780503
0.12076749760704385
0.07428434931368408
0.03555190673346711
0.010643961577840167
0.004632007564563122
0.02094833101500849
0.06090021402342317
0.12339872483641945
0.20494253535843246
0.2998685425067728
0.40085014366395433
0.49959454920839236
0.5876661257269269
0.6573465116840016
0.7024362426975596
0.7189077497012234
0.7053353827824784
0.6630527918339315
0.5960186887784135
0.5104050997595104
0.4139537556482816
0.31517250709282923
0.22246146609196196
0.1432658721159917
0.08334863855512792
0.04626071202805766
0.03306363116122718
0.042328925773467925
0.07040687184654564
0.11192647729816098
0.16046305026363164
0.2092922494804848
0.2521420570073731
0.28385731449058116
0.30090467775270335
0.30166721180693906
0.2865045542058656
0.2575832174774434
0.21850863093594478
0.17381268651151435
0.12836529934060742
0.08678427037698688
0.05291416435073016
0.029432797094640875
0.017625116072142302
0.017341393172635295
0.027132786374866984
0.04453553840233223
0.06645805594940526
0.08961482485755212
0.11094858709325194
0.1279874053891622
0.13909513023066686
0.14359048141339498
0.14172902156043662
0.1345610743106095
0.12369461475413594
0.11100330288030551
0.09832484843359254
0.08719338151307163
0.07864196431634146
0.07309913516634654
0.07038834976284289
0.06982361752307557
0.07038075935834832
0.07091345611885863
0.07037795496549022
0.06803054376879754
0.06356746678512866
0.057186852936410744
0.04956487472709616
0.04175180602495687
0.03500588511059165
0.030592122925332012
0.029578111705211033
0.032658834681883665
0.04003754866515557
0.05138082589139181
0.0658542105669414
0.08223245911440943
0.0990668925869277
0.11488372548274797
0.1283826510518133
0.13860514399138268
0.14504685207470117
0.1476973385457692
0.1470019519149139
0.14375297874767376
0.1389285730967907
0.1335064873659747
0.12828399241173766
0.12373482213288182
0.119928497039757
0.11652770909199833
0.11286697707142702
0.10810235908294448
0.1014096834501629
0.09219947511677161
0.08031206157582844
0.06615715590554108
0.050768661576874194
0.035756818235613066
0.023154645357373504
