# vtk DataFile Version 2.0
Vessel Segment
ASCII
DATASET POLYDATA
POINTS 119 float
-0.0032161642912453643 -0.005319427519474843 0.000312591820671445
-0.0071034458275983986 -0.011094545215305323 0.0010849973309627892
-0.011494895052308687 -0.01707579763246299 0.0021925447121082927
-0.01619812128781282 -0.023036404768012757 0.0034550918696659794
-0.021047434080263952 -0.028820103486068425 0.004691966976230171
-0.025915561871334727 -0.03434387777467453 0.00573421070351006
-0.03069701879490484 -0.03956768634083778 0.0064161229669418285
-0.0352915427982683 -0.04446937478345288 0.006581484242873353
-0.039605147007083376 -0.049038978588498476 0.006108219080639694
-0.04357228052943442 -0.05329594561246368 0.004931922229564514
-0.04717032903448252 -0.05730872520626695 0.0030261152820717386
-0.050392038944737226 -0.06117347858044639 0.00036727531909282966
-0.05320670078414501 -0.06497634840933751 -0.0030527257412708703
-0.05555381933752112 -0.06878238485409699 -0.00717799824404788
-0.0573698518160677 -0.07264306219038562 -0.01188114525397711
-0.05861865130001207 -0.07659407235256455 -0.016993792118007018
-0.05928940363355996 -0.08065590196244131 -0.022370716362856105
-0.0593756609158898 -0.08482468925968789 -0.027897571559715367
-0.05887891667174034 -0.0890839822869338 -0.03348659923734791
-0.05781234513468017 -0.09341865709567454 -0.03906690015331884
-0.056201992594166965 -0.09782444265894553 -0.04458385828420719
-0.054088633797962624 -0.10229866081844063 -0.04997997196311963
-0.05154111344857148 -0.10683107183793601 -0.05516984266965545
-0.04866609074213121 -0.11139399557771187 -0.06002652846792896
-0.0456117609950405 -0.11592629035128525 -0.06438426181447347
-0.042557874435164705 -0.12032568867164915 -0.06807185662461422
-0.03968178695114338 -0.12447680032434698 -0.07096756258412916
-0.03712491494683689 -0.12829037650754513 -0.07301942854922101
-0.03497675908762735 -0.13169317990425064 -0.07423057611214534
-0.03327716950715018 -0.13461299282435576 -0.07466002587889896
-0.0320024438522232 -0.1370331548423161 -0.07442400116689046
-0.031077756853164783 -0.13901478301933706 -0.07364152252676438
-0.030424720106869165 -0.14066289875466145 -0.07234981483106283
-0.030000535677432247 -0.1420409274105687 -0.070512297072889
-0.02978886986592022 -0.14316252574821423 -0.06808000189206222
-0.029789855313786442 -0.14401296851830217 -0.06501224816333503
-0.03001689585648218 -0.14456214951708252 -0.06129107201060228
-0.030487037110908267 -0.14477388026881086 -0.05694173878523352
-0.031202737154152876 -0.1446247645252252 -0.05205720823345207
-0.032135031973511904 -0.1441329123250663 -0.04680022269064368
-0.033213726397802845 -0.14337940832874738 -0.04136935261354244
-0.034350377003725965 -0.14249167409182026 -0.03591825093961942
-0.03546646135233562 -0.14160391844470155 -0.030539306386166053
-0.03649866185377792 -0.1408394089784699 -0.025280040920159876
-0.03739933135047222 -0.14030544775372739 -0.02015333629227596
-0.038135575528726595 -0.1400927976625345 -0.015145629077796291
-0.03868625113023296 -0.14028220114777237 -0.010228601600784665
-0.039039298820731906 -0.14095149804431717 -0.005379286670514368
-0.03919483136494051 -0.14216804135811 -0.0006061587582080119
-0.039166388604870254 -0.14396915727119355 0.004052056297909491
-0.03897395849910638 -0.1463575548889938 0.00855140590803154
-0.03863940641861257 -0.1493188755267731 0.012861641463874484
-0.03818307252832614 -0.15283539098326251 0.016962702687861438
-0.03762150617210639 -0.1568844912326056 0.020839652677270008
-0.03696561763463956 -0.16143679614444587 0.02448873770249943
-0.03621847887707005 -0.16645677939118902 0.02792215714017083
-0.03537458635249441 -0.17190140558251507 0.03116363093251397
-0.03442315955858356 -0.17771452130230317 0.034239488455097826
-0.03335323397197475 -0.18382506082759723 0.037167713484602564
-0.03215877718821235 -0.19015107525903657 0.039952537266058546
-0.03083915038648087 -0.19660691159978358 0.04259336689511042
-0.02938703114592102 -0.20311505446159916 0.04509914841817725
-0.027782420181199103 -0.20960735843628378 0.0474845893855455
-0.025997624259856977 -0.2160172848656847 0.04976826214698972
-0.024003170131991176 -0.22228126206855656 0.05197448815578707
-0.021775282196764684 -0.22834300402176366 0.05413197727279327
-0.019299363628668468 -0.2341538446502044 0.05627161943182019
-0.016569213913031372 -0.23967346936084294 0.05842518308510964
-0.01358467095860426 -0.2448706485711945 0.06062429705933759
-0.010348178184967985 -0.24972488334765028 0.06289936066903867
-0.006862192256648781 -0.2542253263346724 0.065278438815434
-0.003127764928203709 -0.25836974779474553 0.06778770558715073
0.0008566758799869447 -0.26216334294691257 0.07045161186035141
0.005093906680041542 -0.2656137757397581 0.07329153823466711
0.009582860040667494 -0.26872715891696997 0.07632171824427698
0.014314030996611434 -0.27151024096435045 0.07954419709310531
0.01927239340773399 -0.2739728072605456 0.08294909105809932
0.024442746444412435 -0.27612617556909674 0.08651688268032878
0.029813003228091134 -0.27798164796341057 0.09022015639161551
0.035377046365725355 -0.2795510923175307 0.09402660092789963
0.04113621589726359 -0.2808482519244484 0.0979057312831279
0.047095574638709316 -0.28188641866755404 0.1018357599404747
0.05325660258300929 -0.2826765456248594 0.1058050634336569
0.059609612909122985 -0.2832279682245923 0.1098116127794535
0.06612758159865673 -0.28355225525872313 0.11386073461024275
0.07276243575820818 -0.28366862092863476 0.11796047093794824
0.0794468114997229 -0.2836101416782967 0.12211708435814564
0.08610197004486889 -0.2834262696653496 0.12632979042936918
0.09264772769515568 -0.2831804105034522 0.13058766084039974
0.09901067722978157 -0.2829427609363609 0.13487087897075956
0.10512908377771185 -0.2827839323353257 0.1391523741047335
0.11095529005589944 -0.2827655405929899 0.1434017831496527
0.1164570736527322 -0.28293443177706673 0.1475890729536766
0.12162017594190185 -0.2833197167767278 0.15168729518452034
0.12644988239581145 -0.28393551041126674 0.15567893244491393
0.13096546345177085 -0.284788094446433 0.15955706599386837
0.13519164544915196 -0.28588289218931046 0.16332386551775743
0.13915198768721906 -0.28722799173094515 0.16698762825574517
0.14286464958808723 -0.2888352691698295 0.17056062693662227
0.14633988440534482 -0.29071880993979127 0.1740583375154193
0.14957874648427247 -0.29289183480060654 0.17749819911349307
0.15257165866122085 -0.29536343358140316 0.18089690580514392
0.15530009247001644 -0.2981351204289922 0.18426464842106385
0.15774375627896425 -0.301199428679021 0.1876018664059705
0.15989132279633358 -0.30454469057089534 0.19090146632723534
0.16174308917469635 -0.30816310410361586 0.19415529004037294
0.16330576967352955 -0.31205370437032237 0.19735655572458355
0.16458684515086308 -0.31622013010129313 0.20049857650685995
0.16559269148673222 -0.3206642382677325 0.20357369875840217
0.16633043591593955 -0.32537852087499053 0.2065735273226501
0.16681293597324204 -0.33034098979350807 0.20948918473613565
0.16706267858351448 -0.33551598302605334 0.21231639029861343
0.16711144355066687 -0.3408609676748786 0.2150596711688844
0.16699777335273092 -0.34633142483286283 0.2177347359900855
0.1667659495773084 -0.35187843971158206 0.22036737504113432
0.16646844354523277 -0.3574321211536229 0.22298545649566356
0.16616267328621318 -0.36287365918892484 0.22560016997516263
0.16590173731848318 -0.368029671966823 0.2281801726635597
0.16572266777919734 -0.372731481936623 0.23065563277460965
LINES 1 120
119 0 1 2 3 4 5 6 7 8 9 10 11 12 13 14 15 16 17 18 19 20 21 22 23 24 25 26 27 28 29 30 31 32 33 34 35 36 37 38 39 40 41 42 43 44 45 46 47 48 49 50 51 52 53 54 55 56 57 58 59 60 61 62 63 64 65 66 67 68 69 70 71 72 73 74 75 76 77 78 79 80 81 82 83 84 85 86 87 88 89 90 91 92 93 94 95 96 97 98 99 100 101 102 103 104 105 106 107 108 109 110 111 112 113 114 115 116 117 118
POINT_DATA 119
SCALARS Curvature float
LOOKUP_TABLE default
0.0018228098395302254
0.0010787714667342095
0.008758762618280392
0.025779259309672627
0.05196748295442067
0.08593869194373817
0.12513397350909564
0.1660268630898414
0.2044840722429897
0.23624331497979312
0.25745277764768887
0.26520486314904607
0.25799335619527636
0.23602893711978273
0.20136264236355014
0.1577888589608472
0.11052615502234431
0.06570238735566772
0.029696497672381927
0.008409788329139757
0.00655145800041868
0.02702497998524603
0.07049298229791323
0.13517945634313921
0.21694147590794052
0.30961128196495613
0.40557736733948513
0.4965440480584473
0.5743865870093845
0.6320061079341999
0.6640870151308356
0.6676697434016691
0.6424722918853004
0.5909227218302691
0.5178981837972886
0.43020005528198174
0.3358252971686768
0.24311748322674678
0.15989431299395968
0.09265021134878607
0.045922701767407655
0.02189090841554443
0.020246359212021104
0.0383437343594698
0.07160633609727374
0.11413184164788034
0.15942183203637042
0.20114621765462756
0.23385231680352478
0.25353790683078087
0.2580266234331164
0.24711004476003973
0.22245027141252693
0.18726604977692432
0.14585085587004137
0.10298981271756813
0.06335176514492669
0.03093239138173012
0.008614286237691317
-0.002107896709862519
-0.0012123438634871599
0.00995452169842371
0.028947511633505278
0.05261246859012024
0.07753863065287873
0.10051075863376702
0.11890167975529964
0.13095707182363261
0.13594139834037278
0.13413438029644545
0.12668835700570089
0.11537547907249285
0.10226744192885415
0.08939769776004286
0.07845601856857863
0.07055819537260496
0.06612078543146879
0.06485416793783605
0.06586921773597265
0.06787625047748515
0.0694418752293323
0.06926178244453837
0.06640625628826415
0.06050036044316502
0.051811418765663725
0.041230934889078454
0.030154280999606136
0.020276943146917827
0.013338585923785206
0.010853901338289467
0.013871056314825199
0.022794332550269542
0.03729792825705456
0.05634431242121199
0.07830500515454425
0.10116649243954187
0.12279140082965792
0.14119690607005825
0.15480982800824053
0.16266134778526806
0.1644932682706216
0.1607609131930187
0.15253319240784727
0.14130577601703156
0.12875643105102427
0.11648041314239194
0.10574701308628022
0.09731538865430482
0.09133902208584907
0.08737475231318409
0.08449625497437262
0.08149542992371386
0.07714084983846704
0.07045241387124959
0.06094724879395742
0.04881449530380445
0.03498574175014541
0.021082398806950252
0.009239305010076061
