# vtk DataFile Version 2.0
Vessel Segment
ASCII
DATASET POLYDATA
POINTS 119 float
-0.0032390720640717574 -0.004507840394870173 0.0011557355978144294
-0.007126664211244834 -0.00967804730820631 0.0026182301779757236
-0.01150726663375897 -0.015327493041727633 0.004269078189530275
-0.01619288347923245 -0.021212706163543593 0.005924995174448531
-0.021014993344284964 -0.027097144897143148 0.007436107616776925
-0.025860341989245708 -0.03283721798419774 0.008699496603517159
-0.03065039559250521 -0.038360737635020806 0.009614871917756632
-0.03531610729769189 -0.043631286894272786 0.010070807181869514
-0.03978664653002589 -0.048634461463637854 0.009957947618601212
-0.04399622271664673 -0.05338392871490243 0.009195075392633773
-0.047892837847257466 -0.05792748201538486 0.0077364309942890295
-0.051433371899233506 -0.06233793048530554 0.005566975737001432
-0.054572608101277044 -0.06669927869098542 0.0026941114166034257
-0.05725335861032053 -0.07109256207821386 -0.0008487784547503473
-0.05939303229483629 -0.07557802501883885 -0.004984301609441838
-0.06094373364844596 -0.0802023715137969 -0.009566580236008124
-0.06189455506901731 -0.08501264569824672 -0.014488276293411173
-0.062219916951518725 -0.09000719539800983 -0.01965256632134657
-0.061911142944146375 -0.09515620114573826 -0.02496451794741595
-0.06098212686115042 -0.10042423766892042 -0.03034559102329537
-0.059464117703260475 -0.10578724843622225 -0.035734467833655
-0.05740153971246459 -0.1112295416624644 -0.04106569732038785
-0.05486410317831229 -0.11672925307161629 -0.046239128920561264
-0.05196058277705949 -0.12224176832607979 -0.05111048386132287
-0.04883483513351844 -0.1276907767545838 -0.05551130318285025
-0.045641940620396 -0.13298002260755937 -0.059284327561024676
-0.04252693180857134 -0.13801714450232577 -0.062296968741485784
-0.039625026763516195 -0.14270691789855766 -0.0644157643205649
-0.0370869791211939 -0.14691026044873873 -0.06550444000412356
-0.03504039213506891 -0.1504582788452994 -0.06553370712155093
-0.033501413177654454 -0.1532774719583121 -0.06462837292394538
-0.03237110148909761 -0.1554527810500348 -0.06295448906448346
-0.03154319155087549 -0.1571296026967532 -0.0605380920821565
-0.03096582847704809 -0.1583611810759517 -0.0573216580643154
-0.0306204721646704 -0.1591512790183253 -0.05327588806841449
-0.03050394417846742 -0.15951167503121513 -0.048429905169001516
-0.030613155429726587 -0.15948230819864687 -0.04289210446704728
-0.03092617043273151 -0.1591393282331578 -0.03686274342488038
-0.031390923301972976 -0.1586046184410207 -0.03062559314431121
-0.03192450177522106 -0.15804665475421745 -0.024443129617531135
-0.032457797256419695 -0.15762529428778266 -0.01840487606475922
-0.03294633736191711 -0.15745891300123152 -0.012501401343319014
-0.033350357310019466 -0.15764735387909015 -0.006691533695430096
-0.03363655138753792 -0.15827946051264033 -0.0009205095349242689
-0.033778505613359995 -0.15943724594767558 0.0048616005959232055
-0.033757149463543565 -0.16119677037429034 0.010686358583326448
-0.03356639643987121 -0.1636284701637848 0.01655659651081639
-0.0332177895560208 -0.166793413154638 0.02244530957446466
-0.03273334530931937 -0.17074924192482469 0.02830605931681454
-0.03213856252282964 -0.1755378242198169 0.034061862942554845
-0.03146449217166336 -0.18114914466378795 0.03961018267913795
-0.03074769200837284 -0.18751901128844697 0.04486338421511693
-0.030022702969885212 -0.19455959793043764 0.04976814060253907
-0.029314947963927206 -0.20217249719625066 0.05430025166237579
-0.02863481409791409 -0.21025128177459806 0.05846146605758796
-0.027974823939268947 -0.21867560627404736 0.06227709322704507
-0.027309890816303403 -0.2273050134252825 0.06579451271403267
-0.026601359628329397 -0.23598625172118537 0.0690857408537894
-0.0258009550910358 -0.24457515066157812 0.07224589138313936
-0.024850622286415897 -0.2529642055184636 0.0753863607604251
-0.02368048243664787 -0.2611014158196981 0.07861529804557174
-0.022220091467638363 -0.2689774143149438 0.08200933700706467
-0.020406424534939478 -0.27659778416866915 0.08560942665901335
-0.018184423287170022 -0.2839657057132661 0.08942287790546777
-0.015512215036632488 -0.29107268805478625 0.09342839494327967
-0.012363690809793503 -0.2978934495322107 0.09758546609355302
-0.00872855113886235 -0.304385739956656 0.10184054478409697
-0.004611612721931697 -0.31049605674428954 0.10613439751518092
-2.852303594307829e-05 -0.31617221186301536 0.11041179451575137
0.005002464140485296 -0.32137415968580013 0.11463046277985489
0.01046413443228081 -0.32607166143638305 0.11876451471961534
0.01633831297659384 -0.3302435046268658 0.12280509100557901
0.022602664356162486 -0.3338774056623045 0.12676067707524682
0.02922833741365328 -0.33696898617909327 0.13065840866365983
0.03617886045484239 -0.3395196071653994 0.13454192831158598
0.043408643602349764 -0.34153412869584715 0.1384629531631716
0.05086406346013829 -0.3430213522334165 0.142471216614946
0.05848679016955586 -0.3439957186972736 0.14660372311413375
0.06621938474632516 -0.34448166739021213 0.15087957232003749
0.07400940323978696 -0.34451450281992735 0.15529926859280443
0.08181099465118101 -0.3441429281056541 0.15984789660419346
0.08958236144282412 -0.34342576750357057 0.16450235368904065
0.09728313646128148 -0.3424302873889299 0.1692322142079335
0.10487477909955378 -0.34122930574028076 0.1740045224409691
0.11232421474442393 -0.33989984226802783 0.17878989334805395
0.11960810097725474 -0.3385166177121484 0.1835678639776952
0.12671640893150335 -0.3371446070525229 0.1883312582723362
0.13364890062869889 -0.33583385053875814 0.19308274008568915
0.14040694667494277 -0.33461946283967986 0.19782729823182557
0.14698872183182254 -0.3335269650635391 0.2025671747493637
0.15338989613866066 -0.3325793848704267 0.207298533302283
0.15960652512399826 -0.331804420309949 0.21201309205654303
0.16563371648188477 -0.33123955555526025 0.2167005929670848
0.17146427312445708 -0.3309354365481861 0.22134888442279885
0.17708749848027963 -0.3309527178909122 0.22594922321751224
0.1824906609615119 -0.33135615563482945 0.2304964690587391
0.1876596800777274 -0.3322113827480209 0.2349899338662405
0.19258035720918504 -0.3335810818941671 0.23943312409714748
0.19723453691229112 -0.3355225329069976 0.24383069398928897
0.20159716159317037 -0.3380835367124649 0.2481891058250695
0.20562955957509912 -0.34129543631048886 0.25251386307838225
0.2092754800696222 -0.34516525710310464 0.25680864655108504
0.21246565826703326 -0.3496695103168546 0.2610708468151896
0.21513144251317504 -0.35475091734943187 0.2652908932029031
0.2172269635635959 -0.3603333866087949 0.2694581829642202
0.2187347805045564 -0.36633958452335885 0.2735686788174033
0.2196621577889576 -0.37269777428052614 0.27762295205791665
0.2200395736765895 -0.3793326878217687 0.2816171254629581
0.2199269781937851 -0.3861547754045597 0.2855380800627974
0.21941673941962406 -0.39305658049025805 0.2893678654233782
0.21862568775401217 -0.3999221496253745 0.2930885442949335
0.21767495108101895 -0.4066434415939482 0.296689685726479
0.21667113124270226 -0.41314287161364655 0.300169676174694
0.21569089577959683 -0.41939283832925217 0.30354162515810773
0.21478090300207373 -0.42541047948121335 0.30683500793319707
0.21397334974154616 -0.4312148314538224 0.310080082449169
0.21329937385063294 -0.436767612127071 0.3132719761652937
0.21278841710123758 -0.44195379794179024 0.316335297968132
0.21245633849396514 -0.4466383741671177 0.3191459112218831
LINES 1 120
119 0 1 2 3 4 5 6 7 8 9 10 11 12 13 14 15 16 17 18 19 20 21 22 23 24 25 26 27 28 29 30 31 32 33 34 35 36 37 38 39 40 41 42 43 44 45 46 47 48 49 50 51 52 53 54 55 56 57 58 59 60 61 62 63 64 65 66 67 68 69 70 71 72 73 74 75 76 77 78 79 80 81 82 83 84 85 86 87 88 89 90 91 92 93 94 95 96 97 98 99 100 101 102 103 104 105 106 107 108 109 110 111 112 113 114 115 116 117 118
POINT_DATA 119
SCALARS Curvature float
LOOKUP_TABLE default
-0.012033862605744017
-0.012453737016889488
-0.004498751547196722
0.012607183981972839
0.03849376166061972
0.07157286880152951
0.10913619100095168
0.14761883085569175
0.1830026719588573
0.21131261964281295
0.22914383033733943
0.23415082119125133
0.22543115662166827
0.20374728261828406
0.1715488534912023
0.1327823172044425
0.09250153743242913
0.05631936074283376
0.029761849700760346
0.017601450951273585
0.023250591096432707
0.048292203002181455
0.09220889766741962
0.15234960029281516
0.22414422263652942
0.3015468335391839
0.3776595879845495
0.4454669575445375
0.49859548815180543
0.5320102727973463
0.5425661579574378
0.5293486237681824
0.4937642318222277
0.4393704434230122
0.37146576710365253
0.2964897299098482
0.22130454800928073
0.15244384642799438
0.095416723267458
0.0541475813551514
0.030614533749657856
0.024724121123804284
0.03443076911284674
0.05607957414805332
0.08492437260303362
0.11575290219345272
0.14353962037805482
0.16404564936980492
0.17429430740174717
0.1728684124492693
0.15999956676386698
0.13744674683726646
0.10818819781985799
0.07597345716057495
0.04479847173421108
0.01837431665515206
-0.000341776814777345
-0.009495035429785536
-0.008521232578005952
0.0018433578909614994
0.019723618036264937
0.04240985458762104
0.06675780781171078
0.08962650737697468
0.10829319941470776
0.12078998600771448
0.12611957479929362
0.12432570199154083
0.11641474654041903
0.10414585564039731
0.08972469557474441
0.07544834489617355
0.06335426664379476
0.05492413619645605
0.05088402537737603
0.051127495057204014
0.054769736093127006
0.06032167796866053
0.06595568459351527
0.06982149813713319
0.07036425380143585
0.06659656790392027
0.05828379685632122
0.04601449937198838
0.0311450172874235
0.015625487414356508
0.001731876215142263
-0.008257666996840862
-0.01239565349723733
-0.009359286469871645
0.0013369844373969431
0.019241607889974963
0.0429940894050477
0.07047836579596814
0.09908085346648537
0.12601777196366198
0.14868648691366723
0.16499216393514637
0.1736044776863513
0.17410900087767484
0.16703281767555042
0.1537417565398975
0.1362248877768191
0.11679798194805506
0.09776917716004391
0.08111548275672889
0.06821714748209938
0.05968852228614734
0.05533000158982908
0.054207897306885286
0.05485019784012748
0.05552879630611537
0.05458546085408854
0.05075154476110397
0.043411345117233144
0.03276626291212577
0.01987060128021531
0.006528139038020049
-0.004940980353217609
