# vtk DataFile Version 2.0
Vessel Segment
ASCII
DATASET POLYDATA
POINTS 119 float
-0.0032171128426594785 -0.005370608230191394 0.00026357201845260723
-0.007105880995010666 -0.011182563942718993 0.0009968009143468603
-0.011498781296679542 -0.017183617744032324 0.002074013722917832
-0.016203359409296327 -0.023148885946039692 0.0033148143462798044
-0.02105433806741234 -0.028927226742149963 0.0045366082524499855
-0.025923836170737728 -0.03443927265029233 0.0055667465970610204
-0.030704956162988 -0.039646879378540605 0.006235944815268336
-0.035295800992510416 -0.044528779348926156 0.006385575823810214
-0.03960126394701381 -0.0490753905523871 0.0058929071347500915
-0.04355596910053465 -0.053306604985735126 0.004694361002331766
-0.04713893938332662 -0.05729200231928162 0.002764205307412752
-0.050344750536925525 -0.06112890541423526 7.801926981000455e-05
-0.05314324543209601 -0.06490341390204375 -0.0033735022938011904
-0.05547346380760008 -0.06867951105818088 -0.007533134036022269
-0.057272720241596395 -0.07250800649563505 -0.012270240266597515
-0.05850556343476002 -0.07642406135724811 -0.01741488106159289
-0.05916129618629642 -0.08044690049168027 -0.02281948766514072
-0.05923456737772355 -0.08457261591462617 -0.028368630608275873
-0.058727442817976205 -0.08878549276040315 -0.033974955212770504
-0.05765308253264132 -0.0930714618560902 -0.03956798199163217
-0.0560372956489637 -0.09742725547639328 -0.04509346426812111
-0.053920709181670114 -0.1018508592081124 -0.05049435952433552
-0.051372158979649626 -0.1063326430773247 -0.05568610975921828
-0.04849822327246994 -0.11084581687830995 -0.060542736754660736
-0.04544738110313352 -0.11533004240172844 -0.06489860565944364
-0.04240075281662272 -0.1196827808059275 -0.06858176329174855
-0.03953736434179106 -0.12378752565225302 -0.07147108816498907
-0.03699874306139851 -0.1275554314953019 -0.07351902095962966
-0.034870896189615 -0.13091682136059749 -0.07473601356045648
-0.03318886242967541 -0.13380485708785003 -0.075185619734244
-0.03192661822562523 -0.1362064725575189 -0.07498302626355344
-0.031010743576064505 -0.13818129130477338 -0.07424308120569163
-0.03036503636478441 -0.13983019337186964 -0.0730022679904839
-0.029947594495188898 -0.14121529780967226 -0.07122614590122392
-0.029741980962123382 -0.14235086037944603 -0.06886681660286512
-0.029748186991166062 -0.14322206493875522 -0.0658817356024001
-0.029980275439106273 -0.14379676010971879 -0.062247689178741454
-0.030457291358464637 -0.1440342566706131 -0.05798154705663448
-0.03118486298520664 -0.14390409868841475 -0.053166020224468744
-0.03213754959117351 -0.1434156781458846 -0.04795694643685479
-0.033245659836638713 -0.14264422308169047 -0.042556289787903295
-0.03441846505262872 -0.14171659626803668 -0.03712466777963086
-0.03557503117658566 -0.14076895264974074 -0.031760408411932006
-0.03664978170277246 -0.13992764861287788 -0.026515696929994365
-0.037593088025757164 -0.13930342362152281 -0.021406575991268172
-0.03837050037685534 -0.1389900951583677 -0.016421169523961346
-0.038959581901479905 -0.13907058192561456 -0.011531580018516781
-0.03934707853362763 -0.13962401308407643 -0.006714703075911019
-0.039532469101614 -0.14071765672222203 -0.0019792008459907414
-0.0395294177613352 -0.1423874413876281 0.002637079803092166
-0.03935811540462029 -0.14463514360704494 0.0070929435479365225
-0.039040312146109486 -0.1474471168864526 0.011361283863581265
-0.03859601927631488 -0.15080753220303764 0.015424277039385917
-0.038041473417998954 -0.1546963703187101 0.01926822821931951
-0.037387514880856204 -0.15908734919444978 0.022889957978174266
-0.03663747010619986 -0.16394874702149803 0.02630179197301071
-0.0357864361357644 -0.16924216176408102 0.02952689906176138
-0.03482464347866975 -0.174916293630771 0.032589752674428256
-0.0337427263346467 -0.18090403941014194 0.03550463591499455
-0.03253718646293236 -0.18712540619637774 0.038270285929146004
-0.031210953144748407 -0.19349415438392778 0.04088042437933193
-0.02975996373651731 -0.1999307174909745 0.04334057225492277
-0.028166312083147762 -0.2063645275751094 0.04566439575027928
-0.02640342505931013 -0.2127263882104006 0.04787150370612157
-0.024442103621905697 -0.2189501550062563 0.04998895256185135
-0.022258391860759306 -0.22497759775822457 0.05204914628133254
-0.019837349403875132 -0.23075898760272134 0.05408711260140436
-0.017172308584736323 -0.23625384130593957 0.05613879062420993
-0.014262566049896296 -0.24143127283072158 0.058239614828870474
-0.01111006757599277 -0.24627132508526192 0.06042309565620147
-0.007716737798692823 -0.25076402337269904 0.06271960995110365
-0.00408283631128155 -0.2549082656884296 0.06515689136153474
-0.00020554032598691296 -0.25871044921027075 0.06776020305602577
0.003919609218253708 -0.2621791546679421 0.0705508280789078
0.008293387547600228 -0.2653209083422475 0.07354180708539516
0.012908093794904268 -0.26814257323115626 0.0767329620946274
0.017750510613108082 -0.27065390669573625 0.08011158511859415
0.022807351027831536 -0.2728659869131493 0.08365535915558281
0.028068481068444336 -0.274789428256355 0.08733445707058428
0.03352978242815946 -0.2764349993080728 0.09111478297112496
0.03919467485848179 -0.2778149054728768 0.09496490677675597
0.04507037094384987 -0.2789404878116423 0.09886293496150043
0.05116036572971976 -0.27982024968933183 0.10279799891530673
0.05745645887329212 -0.28046063274127764 0.10676943017549925
0.06393204041022334 -0.28087000247631055 0.11078413739336708
0.07053792629370806 -0.28106459675003453 0.11485152953964496
0.07720396927755495 -0.28107549182030983 0.11897860943054141
0.08384752672566086 -0.2809516857357629 0.12316458268294737
0.09038432696031638 -0.2807577197598937 0.12739791582959578
0.09673737292516592 -0.2805659211843912 0.13165784960957455
0.10284207971473068 -0.2804492824022705 0.13591626729710135
0.10864865517097241 -0.2804711131991286 0.14014176722688512
0.11412359958143893 -0.28067867280152464 0.14430334623215427
0.11925239153349387 -0.2810999033405308 0.1483732783778223
0.12404116804255168 -0.2817465251160427 0.15233351571259585
0.12851080632729367 -0.2826218840276155 0.15617694326795067
0.13268798220001923 -0.2837284288322658 0.15990580699398974
0.13659822832177548 -0.2850716108720565 0.16352868147019076
0.14026170946029873 -0.286661237823638 0.16705839195411426
0.14369069272276083 -0.2885100716408373 0.1705111425001975
0.14688841862009377 -0.290630946615772 0.1739052736362527
0.1498476853030618 -0.29303363295697 0.1772583739937347
0.1525523336443847 -0.2957213773718983 0.1805814039007565
0.15498414265157454 -0.29868943683421056 0.18387530614527084
0.15713308988941982 -0.30192930565042375 0.18713306622562184
0.15899998283224845 -0.30543633023677247 0.19034616964905837
0.16059129076293585 -0.30921253458656045 0.19350729333369773
0.16191340611328042 -0.31326472231918784 0.19660940409937566
0.16297045720400113 -0.3175983548827569 0.19964486618972851
0.16376605965691365 -0.32220996596565465 0.20260548757849758
0.16430869139725138 -0.3270816702984409 0.2054826206019132
0.16461646044371434 -0.33218146685840455 0.2082721699693925
0.16471748022525676 -0.33746923143517193 0.21097892451732939
0.1646479844371921 -0.34290054811280224 0.21361875158152768
0.16445151518944906 -0.3484239608296796 0.2162173612894368
0.16418103606495285 -0.3539654364587002 0.21880266758054853
0.1638949940462676 -0.35940205488734006 0.22138687153832845
0.16364757333244173 -0.3645572572098327 0.22394108004120966
0.16347685783052984 -0.36926048927635563 0.22639845363291985
LINES 1 120
119 0 1 2 3 4 5 6 7 8 9 10 11 12 13 14 15 16 17 18 19 20 21 22 23 24 25 26 27 28 29 30 31 32 33 34 35 36 37 38 39 40 41 42 43 44 45 46 47 48 49 50 51 52 53 54 55 56 57 58 59 60 61 62 63 64 65 66 67 68 69 70 71 72 73 74 75 76 77 78 79 80 81 82 83 84 85 86 87 88 89 90 91 92 93 94 95 96 97 98 99 100 101 102 103 104 105 106 107 108 109 110 111 112 113 114 115 116 117 118
POINT_DATA 119
SCALARS Curvature float
LOOKUP_TABLE default
0.003348366324666425
0.002539555722008685
0.010139044087324718
0.027059729614918645
0.05313380690762205
0.08698909451688115
0.1260841429987126
0.1669109283988028
0.2053511204649188
0.2371497423610212
0.2584515795484763
0.2663336327441624
0.2592631625532491
0.23741631341103567
0.20280660671324813
0.15919424203784052
0.11177360135087326
0.06666435616880931
0.03025756478331973
0.008488698969862136
0.00612184038846148
0.02613150077670585
0.06926005401788762
0.13381037614131608
0.21570700394957748
0.3088280210586084
0.40557770947176225
0.4976407190810228
0.5768357681986359
0.6359735974971071
0.6696218245529016
0.6746888832002712
0.6507593442192655
0.6001412492077359
0.5276192656008675
0.43994149279957206
0.34509850592878105
0.2514769993755646
0.16698433028976592
0.098242719599843
0.04994261678780966
0.024424984467270348
0.02153449895482329
0.03875334357374787
0.07159236566277236
0.11418687252501328
0.16002177661211187
0.2026977776863568
0.23664817805203442
0.2577247762812663
0.26358972812341963
0.25387578937318417
0.2301066271766411
0.19539817777232307
0.1539877049837438
0.1106561896522208
0.07011979985115553
0.03646648161056112
0.012704473993178736
0.0004723005881755155
-6.298851631080974e-05
0.009882266824193757
0.02796359579599947
0.05108793379463571
0.07586080724054396
0.09903883662964819
0.11792799035125372
0.1306785370570415
0.13644419900306803
0.13539314102975447
0.12857928214102232
0.11770113204108594
0.1047894634645681
0.09187287393870838
0.08067083998414139
0.07235741337409778
0.06742640803971538
0.0656727118386653
0.06628665475851193
0.06804174003571667
0.0695428416373832
0.06949398986106622
0.06694311912316023
0.061465737660163014
0.05325958768755003
0.04313640874220806
0.03241277064412883
0.02271725414625039
0.015743789564544208
0.01298891298843406
0.01551295051573556
0.023761419095023578
0.03747383674566551
0.055694043350110925
0.07688099880111332
0.09910408961996968
0.12029444214291968
0.13851545634069887
0.15221296031050682
0.16040845975100185
0.1628074731768883
0.1598076547125535
0.15240644200501283
0.1420231042386953
0.13026305077067588
0.1186611388068324
0.10844411924615091
0.10034970613849227
0.0945313562022707
0.09056486290362421
0.08755716385553336
0.08434162746141205
0.07972993280162298
0.07278065727329487
0.06304045443704519
0.05071605192355332
0.0367440985983903
0.022740069047232386
0.010825103508955153
