# vtk DataFile Version 2.0
Vessel Segment
ASCII
DATASET POLYDATA
POINTS 119 float
-0.003221134992549436 -0.0055281944655517 0.00011454988080786372
-0.007115236487765261 -0.011452797748765741 0.000729469799049776
-0.011513011125902434 -0.017514148473335947 0.0017154951059364775
-0.016221881861948964 -0.023493702886522458 0.002891099785342255
-0.021077958421465596 -0.0292561200973612 0.0040677401686182325
-0.025951637201419946 -0.034733160764547036 0.005061671354304292
-0.03073184077536458 -0.03989244139392873 0.005692881931760626
-0.03531183062227418 -0.04471541331704538 0.005795567274397231
-0.039593245513107916 -0.04919372446617008 0.0052450419710551865
-0.04351133117497389 -0.053348668953835165 0.003980122078927345
-0.04705001189087609 -0.05725319239848745 0.001977089305798626
-0.05020922977588618 -0.061007996760322036 -0.0007914508061157219
-0.052960310712684956 -0.0646989316573386 -0.00433852511232651
-0.05524073012545523 -0.06838667343052672 -0.008602806142621721
-0.05699028478305231 -0.07211996308271545 -0.013443597731379778
-0.05817565389478138 -0.07593243719188388 -0.01868606281124204
-0.05878656411198868 -0.07983967871684976 -0.024175448742058347
-0.058820978847830774 -0.08383769923239069 -0.029793009253281596
-0.058282681555920306 -0.0879129957189743 -0.03545260765824301
-0.0571848009841665 -0.09205462384541563 -0.04108501906726867
-0.05555246387590857 -0.09626227089584079 -0.046637100077886136
-0.053425886882972486 -0.10053587664545685 -0.05205319717181728
-0.05087390375984862 -0.10486761474507823 -0.0572512906013625
-0.048002873450510686 -0.10923333097964172 -0.06210829644742574
-0.04496215494028433 -0.11357507441729145 -0.06645896711937754
-0.04193698120955465 -0.11778953256033456 -0.07012905195407292
-0.039111309699062916 -0.1217569482976622 -0.07299933691815072
-0.036626851880101584 -0.12538972251806937 -0.07503536119739122
-0.03455907448536079 -0.12862878606375 -0.07626933203750982
-0.032928624674260026 -0.13142344532028552 -0.0767782565114197
-0.031702442172428895 -0.13377178161525205 -0.07667410200298148
-0.03081131549219061 -0.13572913467671058 -0.07605841957510968
-0.03018597941989125 -0.13738298305988256 -0.07496426923307477
-0.029787575925591617 -0.1387900316566786 -0.07336368709122126
-0.02959928585862348 -0.13996590626947245 -0.0712132337975493
-0.029620438297638423 -0.14089617850450528 -0.06846620116070137
-0.029866855048446793 -0.1415437200088296 -0.0650848989594337
-0.030363435497388368 -0.1418555364929018 -0.06106194120238034
-0.031125398229662857 -0.14178076087834157 -0.05644955510250166
-0.03213824945285428 -0.14130248074866614 -0.051382020106892454
-0.03333427849180725 -0.14047734635900394 -0.046069833268612845
-0.03461614275874333 -0.13942960998986953 -0.040693248873494556
-0.03589566411382586 -0.13830086700953165 -0.03536754441377187
-0.03710025460730091 -0.13722698777668968 -0.030158246890702504
-0.038173894891900664 -0.13632992755053144 -0.02509051409336057
-0.039076874954609785 -0.13571406840064926 -0.02015763500155615
-0.039782285594236605 -0.13547039063707614 -0.015333754017559823
-0.04027291724719518 -0.13568308641988905 -0.010596829810997684
-0.04054637873404749 -0.13641969048035008 -0.005957665169367555
-0.04061711510201608 -0.1377116562918452 -0.0014525657360337238
-0.04050649873170624 -0.1395569930505303 0.0028849121114345724
-0.0402364850376153 -0.14194281285793603 0.007036783182114269
-0.039826517862627704 -0.14485757038027433 0.010991984192605657
-0.039292136554966786 -0.14828779520871618 0.014740915330701952
-0.03864401618088399 -0.15221554378020388 0.018282679562325245
-0.037886115320855576 -0.1566197584741565 0.021630575715481173
-0.03701507968569707 -0.161475323160519 0.024806659882116572
-0.03602387546095563 -0.16674508251000397 0.027830311559382884
-0.03490766640677583 -0.17237371134137916 0.030705118969534408
-0.03367034236353373 -0.178287379780294 0.03341369098361975
-0.03232532876976726 -0.1843988480310231 0.03593301114480339
-0.030878131621602307 -0.19062346282357975 0.03825858150499269
-0.02931692065284915 -0.19688447311006774 0.04040112586762973
-0.0276182789639447 -0.2031055578224547 0.042383444421259645
-0.02575364956989384 -0.20921325594353718 0.044240768731427925
-0.023698403123534703 -0.2151434266439138 0.04601645712624822
-0.02143651995878484 -0.22084271330524463 0.047757719194996905
-0.018959994835610994 -0.22626951077897256 0.04951266534579615
-0.01626665812109814 -0.23139336464890234 0.05132773772364765
-0.013357146084094966 -0.23619551720765752 0.05324536877005202
-0.010231935902781535 -0.24066843432109267 0.055302513271453024
-0.006889010344370686 -0.2448144440072555 0.05753133916783287
-0.003321869137996165 -0.24864373876864318 0.05995947084899752
0.00047891617052837464 -0.2521678674835846 0.06260801643267971
0.004519558030629795 -0.25539474261085515 0.06548669917655113
0.008797659052479255 -0.2583316084824041 0.06858897593327459
0.013305268801212826 -0.2609880910666572 0.07189390941943477
0.018034615845847587 -0.26337447991744517 0.07537091182382703
0.022981154023092518 -0.26549928880390855 0.07898293804074481
0.028146471759022764 -0.2673700299469806 0.08269048280909154
0.033539928078164076 -0.2689944509555913 0.08645917517720297
0.03917490537203587 -0.27037830628779275 0.09026666484811786
0.0450607219012303 -0.2715230851976432 0.09410417051217804
0.051193512195682786 -0.2724268704432032 0.09797491092827268
0.057547893905056116 -0.273088639915992 0.1018903693576722
0.06407145333924884 -0.27351576628140994 0.10586396781705712
0.07068590093986753 -0.27373323184776177 0.10990496210728769
0.07729714799414912 -0.27378849195807786 0.1140126597896664
0.08380893362611877 -0.2737493086555551 0.11817388966991749
0.09013373933463063 -0.27369424874016185 0.12236523769950869
0.09619864924559243 -0.2737033297463997 0.1265555975285325
0.10194765455001688 -0.27384485207537324 0.1307105666695305
0.10734357560260088 -0.27416726146726283 0.13479631122146415
0.11237118318239811 -0.2746950083946983 0.13878279929780934
0.11703914807609621 -0.2754327306667656 0.14265036161423178
0.12137306705358471 -0.2763751405148855 0.1463912298931445
0.12540534271141782 -0.27751598826281937 0.15000782473920338
0.12916735256199766 -0.27885308100493417 0.1535095592210034
0.13268526542091846 -0.28039033437398636 0.15691099762656247
0.13597741963748877 -0.2821368942778904 0.16023067358898166
0.13905361551978496 -0.284104792333325 0.16348979241098666
0.1419136854265601 -0.286306124953107 0.1667087594187876
0.14454837093919576 -0.2887494770630443 0.1699009173216704
0.1469453632266323 -0.29143821014382526 0.1730687207292427
0.149098241349592 -0.29437306316228834 0.17620533453528664
0.15100908017538006 -0.2975584546692573 0.1793010801238368
0.15268345928214264 -0.3010048908707898 0.18234688286555925
0.1541245323144347 -0.30472801828069684 0.18533448476352973
0.15532997268600546 -0.3087432754516077 0.1882560496107231
0.15629342137895355 -0.3130584065570368 0.19110372709138987
0.15701093571048672 -0.3176671007699542 0.1938693642774989
0.1574881376944531 -0.3225480412260431 0.19654934775021304
0.15774250903283835 -0.32766854968460984 0.19914925206955658
0.15780333626764648 -0.33298513227284643 0.2016854760876249
0.15771164593058803 -0.3384394023292373 0.20418359453091672
0.157521531637869 -0.3439453992836105 0.20667178314324547
0.1572942812563183 -0.34936809863215434 0.20916536253222448
0.15708720413606791 -0.3545214458860288 0.21164280282860914
0.15694147112864354 -0.35922925074994416 0.2140462304377265
LINES 1 120
119 0 1 2 3 4 5 6 7 8 9 10 11 12 13 14 15 16 17 18 19 20 21 22 23 24 25 26 27 28 29 30 31 32 33 34 35 36 37 38 39 40 41 42 43 44 45 46 47 48 49 50 51 52 53 54 55 56 57 58 59 60 61 62 63 64 65 66 67 68 69 70 71 72 73 74 75 76 77 78 79 80 81 82 83 84 85 86 87 88 89 90 91 92 93 94 95 96 97 98 99 100 101 102 103 104 105 106 107 108 109 110 111 112 113 114 115 116 117 118
POINT_DATA 119
SCALARS Curvature float
LOOKUP_TABLE default
0.008237041980248844
0.007209922133653781
0.014540788134338829
0.03112383556061054
0.05680061247676834
0.0902348535462657
0.12894025180912977
0.16947127214312427
0.20776511496826708
0.2396012532891096
0.2611265784336734
0.26938176214748855
0.26275993943129766
0.24133321523933024
0.20699562530546514
0.1633916976005839
0.11562530172932407
0.0697709298508909
0.032235457229432475
0.009039401325219429
0.005099881718630356
0.023600937896328403
0.06552983322880603
0.1294410186899909
0.21148437702124628
0.30570410962939676
0.4045827748663164
0.49977542121092916
0.5829551532495282
0.6466768145976185
0.685161698312957
0.6949139112971097
0.6750974247968103
0.62762981626521
0.5569810586337401
0.46969957437300286
0.37371907682140315
0.2775247078795315
0.18927265840262347
0.11596197616034372
0.06275014506215383
0.03248620038848078
0.0255088689221079
0.039725743831149796
0.0709566770064886
0.11349436907759045
0.160811155766968
0.20632600638490423
0.24414139142678906
0.2696662294812326
0.28005752610129764
0.2744373121127539
0.2538699307420682
0.22111399099071674
0.18018976798346145
0.13582330692442582
0.09284063326265833
0.055588061633702814
0.027447647865450717
0.010501568100165178
0.0053778815247979795
0.01128568408446391
0.026223336456657004
0.04732236848493297
0.07127441201139312
0.09478083047562504
0.11496527941189845
0.1296978195016764
0.1377939668337994
0.13907096288311033
0.13426386878207194
0.12482303242495543
0.11262952933426842
0.09967444562582664
0.08775031885756224
0.07819861878008123
0.07174672676876825
0.06845315388615049
0.06776296158686836
0.06865897261540645
0.06988070827087052
0.07017393370455852
0.06853040084682302
0.06438016020838969
0.057707100166509324
0.04907081765560908
0.03953260791760565
0.030498077481570296
0.023501463869140916
0.01996536539594811
0.02097302843542132
0.02708816524605583
0.03824986983413882
0.05375871392760963
0.07235628202437802
0.09238631789951081
0.11201340653756088
0.12946652673178344
0.14327115602794435
0.15243543436563087
0.15656292645630682
0.15587572215739967
0.15114531190589725
0.14354282236819324
0.13443266518535354
0.12514253907843134
0.11674664546033628
0.10989726595273926
0.10473267314669342
0.10087768833562467
0.09753873388424623
0.0936800798617715
0.08825443263902455
0.08045115666940293
0.0699208692253109
0.056936774320202596
0.042460896128123655
0.028096417328872626
0.01592390704210719
