# vtk DataFile Version 2.0
Vessel Segment
ASCII
DATASET POLYDATA
POINTS 119 float
-0.003226726115040544 -0.00467097228193168 0.0009728332709507381
-0.007109582097133702 -0.00996640352720397 0.0022836308936173256
-0.011490050226048262 -0.01568565130142876 0.0038139077123106315
-0.01617848315606944 -0.021586241361854594 0.00538201616094251
-0.021006191044785898 -0.027447588004536966 0.006831709385492516
-0.02585630409271223 -0.0331387386242712 0.008045407422580446
-0.030644050258639713 -0.03859432074150651 0.008908124469993
-0.03529315652667355 -0.043780804965414796 0.009298223021007036
-0.039727155122225036 -0.04868436359980246 0.009103334653704491
-0.04387981725318979 -0.05331956320657406 0.008246225720973829
-0.047705620949580224 -0.057738796822427135 0.006686315374612276
-0.05116984139715275 -0.06202040115118905 0.004407895580188065
-0.05423118679469501 -0.06624927181033104 0.0014158587127837737
-0.056832583379184884 -0.07050343377338514 -0.002251533598635864
-0.058896376991397145 -0.07484181801813514 -0.006506955939104714
-0.0603772102547161 -0.07930849723391226 -0.011200447496886501
-0.06126387709613771 -0.08394401549068414 -0.01621698277210319
-0.06153495895463241 -0.08874603612861287 -0.021456170297065518
-0.06118400609605115 -0.09368773868546397 -0.026824667778115006
-0.06022466133634963 -0.0987384438963356 -0.03224564255811328
-0.05868685372956288 -0.10387879059222134 -0.0376592668387062
-0.05661402889578987 -0.10909615375394416 -0.04300180721737183
-0.05407558837044746 -0.11437134934010362 -0.048176341542164845
-0.05117973068337724 -0.11966367063689595 -0.05304245153185234
-0.048071156611689585 -0.12490029838656033 -0.05743232565660828
-0.04491043810072845 -0.12998345895855729 -0.06118558930491733
-0.04185016319147567 -0.13481517715693003 -0.06417199709885332
-0.03902760976881272 -0.13930131927169345 -0.06627663167047106
-0.03658017601021735 -0.14331769026813646 -0.06739549233086391
-0.03461577857613814 -0.14671686451709648 -0.06752027420027049
-0.033141988622320345 -0.14943698586637952 -0.06677622058681391
-0.032064864782670746 -0.15155912681814213 -0.0653239950856805
-0.03128244093054876 -0.1532257552706303 -0.06319499393028441
-0.03074407642850008 -0.1544968111863715 -0.06033206018560424
-0.030432553672816907 -0.15537694244748146 -0.05669507413393205
-0.03034627863385584 -0.1558675350640046 -0.05229217586668556
-0.03048643481756572 -0.1559875543674218 -0.047198843484358065
-0.030840136752585654 -0.1557833071221066 -0.041572746347276944
-0.03136699317682839 -0.15534173149372973 -0.035654297674783626
-0.031994657191140946 -0.1547991629727357 -0.029687864154972737
-0.03265246560446704 -0.15430207517733097 -0.02379514334997785
-0.03328617666710874 -0.15397313342448982 -0.018009276404704115
-0.033848679533347054 -0.15391836426373903 -0.012323222971163245
-0.03430215910285149 -0.15422931028314257 -0.006707737756707033
-0.03461793374409801 -0.1549867002485703 -0.0011271215974343364
-0.034775718598837116 -0.15626367549667627 0.004449238020107031
-0.03476637444440399 -0.15813019330239036 0.010036062903757172
-0.03459453377224117 -0.16065291077410157 0.0156252383802103
-0.03427477348517065 -0.16389584921531478 0.02118471464497724
-0.03382751403407146 -0.16790411302541966 0.02664868258841993
-0.033279222643109445 -0.17267519068000914 0.03192830901904442
-0.03266149212432485 -0.17816157278004974 0.036948276244961144
-0.032004717295737894 -0.18429636347190437 0.04166115274258003
-0.03133214671474224 -0.19100222210342807 0.04604253822348356
-0.030654840248508654 -0.19819280599532577 0.05009045185977707
-0.029968830682138774 -0.20576887327702728 0.05382495257876057
-0.029254952765835427 -0.2136136274235389 0.057286076872167635
-0.028482439470304086 -0.22159681903279743 0.060533783491020385
-0.02761279862365923 -0.22959071402192066 0.06364440748241722
-0.026600624667048475 -0.2374918118127684 0.06670433366438056
-0.0253921647719534 -0.24523673012729283 0.06979675156622958
-0.02393157697855994 -0.2527957696748203 0.07298238998583187
-0.02216622695233078 -0.26015328447788244 0.0762949063349682
-0.02004845016143777 -0.2672936362255861 0.07974240148658757
-0.017540568887390848 -0.27419495775314023 0.08331270053469514
-0.014618064176512824 -0.2808259188791208 0.08698106195937705
-0.011270022340156616 -0.2871449200352075 0.09071468990421289
-0.0074983043671088545 -0.2931038651086875 0.09447779572671333
-0.0033139095846304225 -0.2986573676794874 0.09823809298855542
0.0012696832512959846 -0.30377106974407664 0.1019726442966036
0.00623946664884214 -0.30841950839272114 0.1056697599630946
0.011581540280700532 -0.31258549171743427 0.10932949799297616
0.01727904611391412 -0.316260083785199 0.11296403710724463
0.02331030613764866 -0.31944104317280364 0.11659852884461173
0.029647058295978263 -0.3221305012742676 0.12026874775629515
0.03625237739251287 -0.3243338023317071 0.12401370867642315
0.04308234803371774 -0.32606022138969176 0.1278682836783055
0.05008985153487932 -0.3273236167295505 0.13185566442178287
0.057229421040477964 -0.3281452007916323 0.13598383386478954
0.06446078432898511 -0.32855423115340276 0.14024565091953525
0.07175027812231384 -0.3285901796495353 0.1446228062452731
0.07906786548548943 -0.3282997788421364 0.14909293148407834
0.08638331466514167 -0.32773552581532567 0.15363063690245873
0.09366469767625417 -0.32695404514828014 0.1582109725773458
0.10087987632441181 -0.32601637334783157 0.16281341772506108
0.107999064712136 -0.3249845410845768 0.1674246264326923
0.1149981830027237 -0.3239172272044419 0.17204054441642344
0.12185814337788056 -0.3228658187786341 0.1766625974008567
0.1285608842562095 -0.3218732616011282 0.18129142922969357
0.1350875518311368 -0.32097624921989143 0.18592353618080132
0.14142007997528455 -0.32020930247406637 0.1905491818270678
0.14754395546369775 -0.3196083066693683 0.1951546124524569
0.15344750309655386 -0.319213185197903 0.1997247912878543
0.1591215715895372 -0.31906970780340804 0.20424414337915847
0.1645591287163164 -0.319227565816644 0.20870209378599866
0.1697550792962295 -0.3197375314527544 0.21309338337037093
0.17470460073546804 -0.3206507430079134 0.21741819605324744
0.17940226209839583 -0.32201663124179636 0.22168106943491173
0.18383800230611833 -0.3238811259460878 0.2258879703320996
0.18799444786774924 -0.3262829371049814 0.2300466991287451
0.1918418581178507 -0.32924745562806207 0.23416473860322692
0.1953351258175628 -0.33278030644545153 0.2382482287473425
0.1984177980688277 -0.3368623535285331 0.242297342492564
0.20103402577615667 -0.34144743603867106 0.24630499278961746
0.2031476168401943 -0.3464750888842683 0.2502617448271181
0.2047465545092954 -0.3518857544286505 0.25416297821716566
0.2058385476776501 -0.35762649002499475 0.2580078947895394
0.20644815698354754 -0.3636434420089715 0.2617923653013049
0.206620834589241 -0.36987192847096584 0.26550511579866776
0.20642585334512267 -0.3762312275929252 0.26913110644712296
0.20595239379965602 -0.38262947183718654 0.2726551475509048
0.20529628608098552 -0.3889755860657838 0.27606869579661825
0.20454619149732117 -0.39519824310541274 0.27937187729186963
0.20377111882842405 -0.40126290109597773 0.28257847196207625
0.20301921676642137 -0.4071686493805383 0.28571685051132995
0.20232920325765227 -0.41291239648056693 0.2888162530802091
0.201739400101282 -0.4184368830360438 0.2918750587132022
0.20128521543199854 -0.4236139074016655 0.294827697864518
0.20098761091463163 -0.428300985971634 0.29756218953879265
LINES 1 120
119 0 1 2 3 4 5 6 7 8 9 10 11 12 13 14 15 16 17 18 19 20 21 22 23 24 25 26 27 28 29 30 31 32 33 34 35 36 37 38 39 40 41 42 43 44 45 46 47 48 49 50 51 52 53 54 55 56 57 58 59 60 61 62 63 64 65 66 67 68 69 70 71 72 73 74 75 76 77 78 79 80 81 82 83 84 85 86 87 88 89 90 91 92 93 94 95 96 97 98 99 100 101 102 103 104 105 106 107 108 109 110 111 112 113 114 115 116 117 118
POINT_DATA 119
SCALARS Curvature float
LOOKUP_TABLE default
-0.011907239498959124
-0.012028420416329195
-0.003683128680194636
0.013935606111435357
0.04048536631236059
0.07439099620642031
0.11293142250747815
0.15249595086715625
0.18898564606524326
0.21831404628464282
0.2369454482239626
0.24240069315733148
0.23366117290273858
0.21141186235673343
0.17808253509207367
0.1376707640852484
0.09535781828785307
0.056955622347864485
0.028246008457404582
0.014289451742965177
0.01878709421860421
0.04357604243992469
0.08832391291630828
0.15046595683905936
0.225399517352541
0.30691955785177
0.38784941149963104
0.46079647435885995
0.5189464220191832
0.5568037819939914
0.5707921578068498
0.5596434852259226
0.5245304763217644
0.4689268421116944
0.39821222940843437
0.31906906713527916
0.23874295836351894
0.16425387780304193
0.10165035477206284
0.05539250181042771
0.027933063033905237
0.019540770408338175
0.028380385790971182
0.050832645573485546
0.08200880055477093
0.11639206227535721
0.14852471111921975
0.1736564185915691
0.18827667911538085
0.19047098779389598
0.18006421896429553
0.15854237845932126
0.1287719091078094
0.09456045241894541
0.060121338156102634
0.02951390486879232
0.006132020568755502
-0.007695888595608344
-0.01094893616955604
-0.003974017340345541
0.011635055829818388
0.033315019392603167
0.05792304175731848
0.08218174146499008
0.10311706548132156
0.11843030778606184
0.1267569063895627
0.12778205313459626
0.12220404457166795
0.11155774135169613
0.09792953263410899
0.08360926534152759
0.07073188094067359
0.06096116515282175
0.05526029109349169
0.053779976897707
0.05587716756363815
0.060257797329057
0.06521915939470437
0.06895323901049595
0.06986400700866466
0.06685023001103105
0.059510945545494
0.048242493782063314
0.034212149249177225
0.019211604023684953
0.005411194885541869
-0.00494968276544697
-0.009891139925355698
-0.00799259428742185
0.0013799694880989217
0.01795279306169445
0.04054762730293009
0.06721020732543753
0.09544676713693398
0.12253601447905058
0.14587319160583115
0.1632982306687136
0.1733622409110819
0.17549533311389723
0.17005285626533373
0.15823449437579895
0.14188887120399554
0.12323273174961609
0.1045260463057247
0.08775072794360686
0.07434011543474174
0.06499897601466781
0.05964053335843952
0.057449781208279656
0.05706355125798642
0.056840166489792086
0.0551776014425019
0.05083096720153772
0.04317912283049819
0.03239657751111435
0.019499831760367348
0.006255195265988558
-0.005044538405167969
