# vtk DataFile Version 2.0
Vessel Segment
ASCII
DATASET POLYDATA
POINTS 119 float
-0.0032457288175684615 -0.006098250068797967 -0.0004071044672186588
-0.0071665228750370635 -0.012421978127256296 -0.00019661791800768642
-0.011586077872098793 -0.01869416654240133 0.0004828615688794134
-0.01631182958920143 -0.024724652803274072 0.0014414526535980981
-0.021186003837100047 -0.030435613474818383 0.0024685059926547754
-0.026074398235936387 -0.0357979034105349 0.0033428921646296143
-0.030852607975035612 -0.04079909453904557 0.0038490992217295092
-0.035398450409171965 -0.04543032434581547 0.0037978429711262147
-0.03960384949693008 -0.049688205686013245 0.003058028840022182
-0.04340712625617583 -0.05359939581943972 0.0015753357784347455
-0.046808323265825125 -0.05724767844102732 -0.0006698113171940791
-0.04982381930628955 -0.06074372777847461 -0.0037177952432229976
-0.052427916614152845 -0.06417113409141889 -0.007596011997155884
-0.05455112967496191 -0.06757847062938689 -0.012228144668243393
-0.05614082565777877 -0.07100705082398182 -0.017435911909351322
-0.05717136501620128 -0.07448626936058887 -0.02302598242639443
-0.057634684383836544 -0.07802116335380635 -0.02881815377667608
-0.05754007416108616 -0.08160817142196852 -0.034681907037260123
-0.05689702537249555 -0.08524120105010612 -0.040535256953683006
-0.0557186499357313 -0.08891935010481897 -0.046313095937453676
-0.054028087250152436 -0.09265160888309865 -0.05196588304799614
-0.051864526263467166 -0.09644403670073826 -0.057442718580475796
-0.04929705569491882 -0.10029452234982761 -0.06267024404582151
-0.04643156271120207 -0.10418732112150095 -0.06753507361388844
-0.043420662964783 -0.10807220168783585 -0.07187313069589814
-0.04046334049915276 -0.11184371666292986 -0.07550254425387244
-0.03775914683021232 -0.11537229810679406 -0.07831071291889978
-0.035448788255709615 -0.11857482875635368 -0.08030607041034164
-0.03357193024332382 -0.12142671043542627 -0.08159099253433874
-0.032101757629049536 -0.12393109164463285 -0.08228645710204278
-0.03098102605113781 -0.12612765370505333 -0.08249446806072475
-0.03015424183489903 -0.12806164647417115 -0.08226590314648338
-0.029578958817413008 -0.12976773690391996 -0.08160777369187763
-0.029230858396884756 -0.13126723364524712 -0.08050928453156167
-0.029091756364480713 -0.13257168529903676 -0.07895295919924625
-0.029156076548492234 -0.13367229633474262 -0.07689439209958081
-0.029442664324684238 -0.1345273041350341 -0.07426296999457048
-0.029993998621955148 -0.13505655293411026 -0.07098171011567786
-0.030858051706334808 -0.13515079370498917 -0.06700464363731531
-0.03206128299215723 -0.13470462619521356 -0.06238527089898534
-0.03354847365085128 -0.13370141477397593 -0.057345015986671063
-0.03520373832092813 -0.1322448745861335 -0.05211663290029988
-0.036915554113528155 -0.13048773899565327 -0.04686337560547367
-0.03858628739060846 -0.12859694377008038 -0.0416889418781976
-0.040134360141807934 -0.12673847244096123 -0.03664472804754671
-0.04149595588383769 -0.1250655671108661 -0.0317406082754323
-0.04262144476659646 -0.12371438935391588 -0.02696265803689532
-0.043473662423751454 -0.12280460534321318 -0.022304770939106742
-0.04404165155167065 -0.12241721954710158 -0.017800372615658946
-0.044345478488320565 -0.12257058692283981 -0.013493411312506816
-0.04441630095106451 -0.12324225018008293 -0.00940120704195721
-0.04428304394558783 -0.12440816156796289 -0.00551756252770816
-0.043968643685936074 -0.1260556406462042 -0.001833093980043565
-0.04349003449288551 -0.1281785111403393 0.001658514283202028
-0.04285890390034449 -0.13077436178196233 0.004969384176227991
-0.04208074245215942 -0.13384771471125204 0.008122607989869737
-0.041155214916346466 -0.13740970007350173 0.011142777005972535
-0.04008160435635956 -0.141464883882825 0.01403783256580531
-0.03886755341418076 -0.14599539165366107 0.01678056115481747
-0.037539291105544076 -0.150950575792396 0.019304297701287138
-0.03614265607589889 -0.15624753536857536 0.021534517786395473
-0.03471229417405452 -0.16179592052639505 0.02343648056173166
-0.03325429965270838 -0.167510301789725 0.02501239464700126
-0.03175399814338013 -0.17330033352234164 0.026295101778325742
-0.030183754650677172 -0.17907309038929586 0.027345405253180476
-0.02851587850739615 -0.18474428412866117 0.028241414856943536
-0.026730454953438065 -0.1902438445866073 0.029069308634734836
-0.02481550393224356 -0.19551961516350183 0.029915864033096363
-0.022765158019805738 -0.20053571068278564 0.03086180842537006
-0.020577106382801344 -0.20527226601162885 0.03197643435704055
-0.018248261836584186 -0.20972759800303215 0.033315492765029944
-0.015770069915623342 -0.21391589854706933 0.03492334623347799
-0.013124822844723692 -0.21786229296070964 0.03683442331811891
-0.010287682209688096 -0.2215909673037751 0.039070271188613157
-0.007235432601167576 -0.22511637293783382 0.041632151582291575
-0.003953833042902786 -0.2284476665601015 0.04449523636685217
-0.0004345403248079962 -0.23159357776463682 0.04761322624173212
0.0033313311091257894 -0.23456081554049907 0.05092865338947296
0.007355740065379656 -0.23734999772031887 0.054379908330742625
0.011656844706804169 -0.23995753509382656 0.05790828924244442
0.016260990317065405 -0.2423771605750411 0.06146811181038282
0.02119921485251861 -0.24459801300749565 0.06503386057883043
0.026497653339403574 -0.24660101548321745 0.06860189504299337
0.0321651184945093 -0.2483592524439549 0.07218658046007043
0.03817962077516776 -0.24984247122680778 0.07581318140606526
0.04447856464398578 -0.25102926128474795 0.07950790313299479
0.050958347362472046 -0.25192377608071737 0.0832880846956557
0.05748935812903119 -0.2525670935957882 0.08715486846805759
0.06393825670668199 -0.25303639133412964 0.09109151404800964
0.07018513142416605 -0.253429910432037 0.09506756572476165
0.07613168509693387 -0.2538501609135876 0.0990434995505529
0.08170322921582378 -0.25438130819557286 0.10297611886672907
0.08685195445056933 -0.2550752906332188 0.10682299621607308
0.09156113279480262 -0.25594506021307106 0.11054669725517467
0.09584767410620904 -0.25697259073786355 0.11412181554258762
0.09975187720777252 -0.25812550832549036 0.11753768920972732
0.10332398708400395 -0.25937092557831565 0.12079672064818985
0.10661407051008581 -0.2606841633849271 0.12391117753958639
0.10966813940445029 -0.26205309990740583 0.1269022954291998
0.11252506285750166 -0.2634787250840325 0.12979795986549356
0.1152166399942516 -0.26497394674537905 0.13263074448504839
0.11776553614335425 -0.2665610233327455 0.13543207026695428
0.12018390010580723 -0.26826707502914576 0.1382242911260976
0.12247667547995864 -0.2701212745384393 0.1410151675247793
0.12464676479243969 -0.27215263746044643 0.1437979418338885
0.1266980164813168 -0.27439243771298066 0.14655790023043908
0.12863126941113695 -0.27687526566868065 0.1492784052034935
0.13043835016494892 -0.27964042803680095 0.15194460502926302
0.13209690685655 -0.2827286828480504 0.15454470269867523
0.13357135798034114 -0.2861758426888855 0.15706865995536587
0.1348225901722814 -0.290006059825526 0.15950773700354326
0.13582129106545027 -0.29422966660316197 0.16185934004679128
0.13655410789482872 -0.2988403976750883 0.1641320787160091
0.13702792307898812 -0.30380395578843833 0.16634507298025134
0.13727295939662237 -0.3090461348389742 0.16852476237397018
0.1373437930219654 -0.3144465447773711 0.17070161026059447
0.13730873932133458 -0.31983222980965487 0.17290231617142
0.13723419823812483 -0.3249858310825185 0.1751301301891878
0.1371709687357603 -0.32971228586786655 0.1773569692470684
LINES 1 120
119 0 1 2 3 4 5 6 7 8 9 10 11 12 13 14 15 16 17 18 19 20 21 22 23 24 25 26 27 28 29 30 31 32 33 34 35 36 37 38 39 40 41 42 43 44 45 46 47 48 49 50 51 52 53 54 55 56 57 58 59 60 61 62 63 64 65 66 67 68 69 70 71 72 73 74 75 76 77 78 79 80 81 82 83 84 85 86 87 88 89 90 91 92 93 94 95 96 97 98 99 100 101 102 103 104 105 106 107 108 109 110 111 112 113 114 115 116 117 118
POINT_DATA 119
SCALARS Curvature float
LOOKUP_TABLE default
0.025851573346170137
0.02437967366228357
0.031204794604857894
0.04697893692257431
0.07141308287038761
0.10317685328814312
0.13992350264254114
0.1784512275180112
0.21499424193207683
0.24561901914666487
0.2666849379125501
0.27531660633498545
0.26982923679856
0.2500497694374017
0.2174852514841581
0.17530556581257214
0.12812833434808873
0.08161732611773659
0.041929135477974736
0.015063307987352252
0.006185785105134018
0.019002435815708044
0.05525736655215595
0.11441955364912444
0.193602153355888
0.28773366953498475
0.3899718528983122
0.4923230841404621
0.5864054330507112
0.6642756063495748
0.7192308818173525
0.7464981279411653
0.7437331790200951
0.7112740042870661
0.6521180102409976
0.5716243528599905
0.47697275638697006
0.37643745378399585
0.27855530178750515
0.1912784936278609
0.12120328943077897
0.07295674117648653
0.04880468194602359
0.04851854888516749
0.06950899945693421
0.10720427736894271
0.15562440663217703
0.2080816338705043
0.25792540055396435
0.2992477470279894
0.3274724732562148
0.3397674731333452
0.3352422696552507
0.3149190249127387
0.28149193758330865
0.23891377237101166
0.1918665297128676
0.1451839660782444
0.1032958135390668
0.0697572073468727
0.04691314030946368
0.03572871947729963
0.035794189612244495
0.045491937663873765
0.062293708141462095
0.08314228339195823
0.10486442644543374
0.12456156100929805
0.13993114555930458
0.14948379647645502
0.1526370662622962
0.14968412248090276
0.1416520487005297
0.130077974231343
0.11674010812365081
0.10338407366838599
0.09148257308187428
0.082058995940014
0.07559441507615426
0.07202423941321817
0.07081755812297846
0.07112077553524489
0.07193902397319274
0.0723250366310545
0.07154599323889231
0.0692039684326936
0.06529406447820509
0.06019469958582976
0.05459522600258564
0.049375459438520425
0.04545845422708268
0.04366104001933657
0.04456589381615011
0.04843450612641328
0.05517311267245485
0.0643547219405201
0.07529121838139462
0.08714160848334686
0.09903703195117909
0.11020100940444838
0.12004484150875093
0.1282228429186498
0.13463939228709246
0.1394084083618315
0.14277440522787685
0.1450113214985102
0.14631966503509045
0.14674338433282214
0.1461250286874316
0.14411154046251354
0.14021433360993038
0.1339174789493051
0.12481839912010202
0.11277803715367199
0.09805332702450612
0.08138483738322731
0.06401695437426065
0.04763651984194849
0.03422741009859526
