# vtk DataFile Version 2.0
Vessel Segment
ASCII
DATASET POLYDATA
POINTS 119 float
-0.003224341075375699 -0.004713228876434171 0.000926865571752036
-0.007106447302970024 -0.010040760584141918 0.002199655202518764
-0.011487112266958035 -0.015777802039966184 0.003699796782975365
-0.01617634683109534 -0.021682358070499196 0.005245994105312577
-0.02100549347517942 -0.027537994799168755 0.006680376941249226
-0.025856823327599546 -0.033216991733373745 0.00788170232914486
-0.03064402673708508 -0.0386557095995995 0.008731325967861433
-0.035289049767969274 -0.0438213663141756 0.00910508192295048
-0.03971405920901333 -0.04870031561945803 0.00888986808094401
-0.043852761648968994 -0.05330738489806039 0.008009429649262639
-0.0476612617637605 -0.057696119242771945 0.006424405541155716
-0.05110689979246647 -0.0619462116522788 0.004118815353587586
-0.05414930625657958 -0.06614274813645891 0.0010968394736832502
-0.05673135897365718 -0.07036295189998892 -0.00260203964572347
-0.058776566895259466 -0.07466536057597348 -0.0068879223564391
-0.06024020945330876 -0.07909340119695425 -0.011609746730510517
-0.061111033526707215 -0.08368604359269981 -0.01665049892717358
-0.061368668113590784 -0.0884407947493884 -0.021908866229441437
-0.06100722400698532 -0.09333158053029927 -0.027291903303907968
-0.060040290540619004 -0.09832888585480916 -0.03272320380322228
-0.05849748220107659 -0.10341449561923725 -0.038143312906716076
-0.0564220153060981 -0.10857653590863336 -0.04348893070785278
-0.053883224640879995 -0.11379648478678919 -0.048663945628627525
-0.05098917403104053 -0.11903459996235649 -0.053528903039873656
-0.047884785552407265 -0.12421892391059944 -0.057916148867372536
-0.04473200258024076 -0.12925131957175529 -0.061664531567520116
-0.04168526863203953 -0.13403245376068015 -0.06464439630579488
-0.03888231607992835 -0.138468488637531 -0.06674542126182571
-0.03645718220869781 -0.14243893056408788 -0.06787155275402572
-0.034512878779593616 -0.14580172107447972 -0.06801959171282068
-0.03305481181020331 -0.14849797950525762 -0.0673146324926844
-0.03199033491496338 -0.1506076164768152 -0.06591551431554249
-0.031218723861559345 -0.15227180785699304 -0.06385480553871259
-0.03068968560641836 -0.15355185562549564 -0.061075910387973525
-0.030386249195079294 -0.1544528196111523 -0.057536574299667846
-0.030307149402222622 -0.15497391205015773 -0.05324014722131465
-0.03045459377334042 -0.1551293334588085 -0.04825428640302646
-0.030817931504758325 -0.15495834958351695 -0.04272633266395652
-0.03135973127244613 -0.1545393797038671 -0.03688594075359928
-0.032010405492393895 -0.15400059770142485 -0.030972586351736886
-0.03269899312393352 -0.15348478240640775 -0.025115296004447726
-0.03336877341804544 -0.15311553359481275 -0.019357280190297387
-0.03397064696957729 -0.15300065580868552 -0.013699634920440514
-0.034465449606904064 -0.15323291374360629 -0.008119273440299678
-0.03482371498523929 -0.15389338052920767 -0.0025840909444245783
-0.03502473319092868 -0.15505496304211397 0.002935944567901783
-0.03505865819792637 -0.1567875867127553 0.008457935006360946
-0.0349286350011119 -0.15915893716540014 0.013977822729106321
-0.034647661742631584 -0.16223410673164396 0.019466700265837383
-0.03423510379096381 -0.16605859017992783 0.024861384209613938
-0.033716447226097505 -0.1706313599869458 0.030076451023654284
-0.033122168113546895 -0.17590861613930034 0.03503972923730607
-0.03248168837126577 -0.18182825616770376 0.039705409971841826
-0.03181770994778992 -0.18831786543646636 0.04404924658906148
-0.031141394699437868 -0.19529589028663485 0.0480685408188866
-0.03044953722483362 -0.20266818887150284 0.05178223421570264
-0.02972430417032551 -0.21032371726485177 0.05522870254331675
-0.028936742111121697 -0.21813785925392137 0.05846505375884647
-0.028050664722053236 -0.2259869783832591 0.06156307000302086
-0.02702372822840327 -0.23376872991820627 0.06460298030044967
-0.02580615050974451 -0.24141724216725852 0.06766178795213866
-0.024345699464434052 -0.2488982008701662 0.07079631378805575
-0.022592267736547888 -0.25619107866266416 0.07403853921900483
-0.020499912907144705 -0.26327580986840743 0.07739695070427598
-0.018031862925070412 -0.27012726181136537 0.08086177287140688
-0.015163890803757778 -0.2767125035219105 0.08441217419641045
-0.011884897626935523 -0.28298991472232377 0.08802034270910232
-0.008196056436391635 -0.2889125451824485 0.09165602071381537
-0.0041073148495061294 -0.29443653900983896 0.09529228981010257
0.0003689209561225414 -0.29952885941777596 0.09891073210806749
0.0052206076644155325 -0.30416520519978596 0.10250299826924325
0.010434871694154284 -0.3083294051565318 0.10607127535957431
0.015996213567564237 -0.31201339708545567 0.10962865725764065
0.02188474007610601 -0.31521550775126256 0.11319986522379359
0.02807421206933071 -0.3179380753301281 0.11681882731023233
0.03452980876879969 -0.32018655276394714 0.12052153648773527
0.041209931202957906 -0.3219703100843946 0.1243393054129822
0.04807010474415206 -0.32330305591943787 0.12829200179510658
0.05506767208327564 -0.32420523621176317 0.13238491847812367
0.062165224715672276 -0.3247046882042314 0.1366090519669544
0.06933198809528199 -0.3248387246900179 0.14094525114524062
0.07654074487783874 -0.3246512493358123 0.1453712984589321
0.08376372798622758 -0.3241912854342255 0.14986298702545467
0.09097065457139855 -0.3235116109861795 0.15439726230980508
0.09812966945486502 -0.32266940758213203 0.15895570818080304
0.10520947263922717 -0.3217235695351986 0.1635266778577654
0.11218259712529302 -0.32073112400583537 0.1681068765342026
0.11902537171954973 -0.3197436469608071 0.17269745721112756
0.12571499337960357 -0.31880588564867457 0.17729804792203321
0.132228449442316 -0.3179572003318507 0.18190378422283385
0.1385443254214559 -0.31723489230441176 0.186503521400672
0.14464554126820553 -0.3166768290594163 0.19108218888303405
0.1505187892472463 -0.31632350855323893 0.195623589884157
0.1561544641038922 -0.3162194902840264 0.20011130603058808
0.16154643924680584 -0.31641178445838014 0.20453429465468265
0.1666914802894274 -0.31694776053091817 0.20888724310602705
0.17158702062841666 -0.31787503417772545 0.21317053261043115
0.17622978674505946 -0.31923981955440556 0.2173889615072881
0.18061173973093922 -0.3210853158185652 0.22154885861214826
0.18471744228697684 -0.32344810141165586 0.2256584178246181
0.18851937433117288 -0.32635225777200766 0.2297256747240404
0.1919751364225508 -0.3298032385871621 0.2337574174109351
0.19503132666720951 -0.33378311556761153 0.2377545120062123
0.197635096930947 -0.33824850707394755 0.24171046183380734
0.19975248351515568 -0.34314273099654957 0.24561608624263237
0.2013726887845252 -0.3484104509572808 0.24946659252717876
0.20250348724084397 -0.3540031301890285 0.2532608255079935
0.2031680488362063 -0.3598719044645884 0.2569945728579344
0.20340846147539796 -0.36595788995976086 0.26065698039058893
0.20328863012024787 -0.37218664164608345 0.26423367835715367
0.20289125678823322 -0.3784720339067572 0.2677101039492764
0.20230615834225288 -0.3847271659062575 0.27107813561569577
0.20161762070313394 -0.39088242225110537 0.2743382913393078
0.20089264939836649 -0.39690181647886863 0.277504500786569
0.2001795704086063 -0.40278022935059743 0.28060487796482075
0.19951854199362498 -0.40850924941874356 0.28366844890281734
0.1989495568503003 -0.4140269703963106 0.28669443125893534
0.19850944885996522 -0.419201916224708 0.2896197047568276
0.1982204176296191 -0.4238897355956113 0.2923353181983601
LINES 1 120
119 0 1 2 3 4 5 6 7 8 9 10 11 12 13 14 15 16 17 18 19 20 21 22 23 24 25 26 27 28 29 30 31 32 33 34 35 36 37 38 39 40 41 42 43 44 45 46 47 48 49 50 51 52 53 54 55 56 57 58 59 60 61 62 63 64 65 66 67 68 69 70 71 72 73 74 75 76 77 78 79 80 81 82 83 84 85 86 87 88 89 90 91 92 93 94 95 96 97 98 99 100 101 102 103 104 105 106 107 108 109 110 111 112 113 114 115 116 117 118
POINT_DATA 119
SCALARS Curvature float
LOOKUP_TABLE default
-0.011618685183939135
-0.011693098736247617
-0.003286692627239367
0.01441587296054354
0.0410812718194333
0.07514104536867756
0.11387534928842565
0.15366684071326478
0.1904008641390116
0.2199665696782847
0.23879734279768813
0.24438033764772948
0.23566541649956754
0.21331365191402066
0.17974374753345917
0.1389591390024043
0.09616612848742755
0.057220664745678725
0.027964740746616482
0.013529701188875445
0.017690736008062907
0.042353347181547256
0.08723880874159266
0.14981311511681913
0.22547530323373674
0.30798983479628994
0.3901178163403907
0.4643769857342233
0.5238437801261119
0.5629045908046859
0.5778683817257396
0.5673686637317783
0.5325074849592262
0.4767246085413582
0.4054076483126996
0.32528960073000684
0.24370516684062918
0.16779344182134026
0.1037400072579132
0.05614558879536439
0.027592055720669875
0.018451765839966796
0.026956256848226057
0.049508835938390935
0.08119664265312504
0.11643481522592652
0.14966122812244115
0.17599648926045788
0.19179075256748823
0.19499532573696074
0.18532075225945743
0.16417085805702325
0.13437055355557298
0.09973036374212095
0.06450959371001795
0.032850473065077164
0.008256457574898974
-0.006820730620814502
-0.011237381130809203
-0.005231722874920936
0.009685339327308222
0.03099947461595571
0.055578843695132114
0.08011972589831669
0.10158934812262818
0.1176064417718813
0.12671099961678325
0.12849184352276094
0.12356143452974355
0.113388910923025
0.10002165305787285
0.08574014983836901
0.07269871036821762
0.06260472200352213
0.056481871982548136
0.05454922224991645
0.056230299296549165
0.060287023371053246
0.06505512328943736
0.06874322335654662
0.06974904269841753
0.06694427443543767
0.05988488542407708
0.04891497004819463
0.035148204665052654
0.020329059255945726
0.006593614726074645
-0.0038354267397851622
-0.008975262320881734
-0.007383492569705478
0.001611347567302389
0.017783265858371287
0.040005514959282465
0.06637214848410189
0.09442822001188841
0.1214768742527468
0.1449205629779276
0.16258870424420055
0.17300600281595313
0.1755641028355881
0.17057305528915026
0.15918628864395962
0.14321091493096966
0.12483168401005254
0.10628933825141354
0.08956070433992017
0.07608759976950424
0.06659451280529018
0.06102200352468136
0.05858569245480393
0.05795197975091473
0.057503966053335916
0.05565700752189663
0.05117503234910832
0.04343748820599974
0.03261290839558881
0.019707859574057667
0.006477781170075886
-0.004793484020144264
