# vtk DataFile Version 2.0
Vessel Segment
ASCII
DATASET POLYDATA
POINTS 119 float
-0.003249004865232136 -0.006159110997787253 -0.00046166992469770713
-0.007173175683058967 -0.012524790839328271 -0.00029261252740588896
-0.01159536693556366 -0.018818910302443835 0.0003559435639066673
-0.0163230247141618 -0.024854772210223045 0.0012928450914212425
-0.02119910371717687 -0.030560724039719198 0.0023050136151244655
-0.02608903775579008 -0.03591170115244068 0.003167539204223844
-0.030867141146214347 -0.04089733439745033 0.0036613787079533794
-0.03540974604856736 -0.0455097816906909 0.0035949339260502723
-0.03960790042477487 -0.049746223033440375 0.002836469506217543
-0.04340031352656071 -0.05363390435028869 0.0013322428268986147
-0.04678861163686804 -0.057257650970835336 -0.0009371350763130704
-0.04979068294738304 -0.06072901281470108 -0.004013608145653354
-0.052380954752962 -0.0641312244756633 -0.007926165423187618
-0.05448910602359821 -0.06751156454649006 -0.012596855807490474
-0.05606322462902375 -0.0709105823770209 -0.01784327168222133
-0.05707849681480444 -0.07435732793050265 -0.023470050499770145
-0.05752714780937912 -0.07785592116635623 -0.02929432381872432
-0.057419625590196276 -0.08140290745050467 -0.03518433644342231
-0.056765988211770244 -0.08499294130022986 -0.041058527581955634
-0.05557935027231364 -0.08862609801902109 -0.04685219465360972
-0.05388267427514328 -0.09231225631121115 -0.05251614852006475
-0.05171507377127394 -0.09605805487611345 -0.057999975037756696
-0.049145684838118917 -0.09986192738128842 -0.0632312002649848
-0.04628036966495002 -0.10370893730931122 -0.06809741369646552
-0.04327209792797687 -0.10754960632167673 -0.07243464541156436
-0.04032123382623099 -0.11127831165598595 -0.07606026521878628
-0.037628817542150625 -0.11476458780645173 -0.07886235681307763
-0.03533531753143254 -0.11792578768462145 -0.08085358419613296
-0.03347676179513744 -0.12074067624263331 -0.08214315934964321
-0.03202163745490303 -0.1232177832018277 -0.08285644699348044
-0.03091023036148601 -0.12540136026989798 -0.08309469330599163
-0.030088379052174947 -0.12733616492909333 -0.08290336784632465
-0.029516591400319685 -0.12905112541626504 -0.08228554260837641
-0.02917240333066757 -0.1305625147186578 -0.0812313268545917
-0.02903754926141074 -0.13188039975843224 -0.07972648437199661
-0.02910573219226628 -0.13299660951631206 -0.07772822448713461
-0.029395816981215617 -0.1338698345933265 -0.07516408239176474
-0.029951839572523772 -0.13441845261126445 -0.07195119699579394
-0.0308251063127712 -0.13452832833766648 -0.06803413681375906
-0.032046585043748854 -0.13408522804577608 -0.0634575965107885
-0.033562873621725345 -0.13306419278158252 -0.05844264340475642
-0.0352565979855075 -0.13156574445981062 -0.053226247461251375
-0.03701403480373955 -0.12974292793086795 -0.047975826094186116
-0.038734966753779285 -0.12776547128422952 -0.04279844402750414
-0.040334944280380404 -0.12580406769374 -0.03774779225561537
-0.04174718384099403 -0.12401784401946617 -0.03283524197888771
-0.04291903592282665 -0.12254909415274363 -0.02804822744057142
-0.043810575856142106 -0.12152297535952625 -0.02338293249345256
-0.044409583516052925 -0.12102342099430452 -0.01887611894325094
-0.04473680582912814 -0.12106806046486042 -0.014573561809699261
-0.04482480625318418 -0.12163202837934987 -0.010491887906140463
-0.04470373093965781 -0.12268921978786389 -0.0066232570224712736
-0.04439737449488368 -0.12422561777048076 -0.002956684463815948
-0.043923220096870136 -0.12623448022097816 0.0005157222418148166
-0.043293292808862266 -0.12871374991051432 0.0038077396867177184
-0.042513274961987355 -0.1316694841715619 0.006943974472925107
-0.041583015027406085 -0.13511561328427485 0.009949822747859039
-0.04050223338257662 -0.13906031571194769 0.012832586971904059
-0.039279623770318656 -0.14348923776514164 0.015562427948034379
-0.03794345661699019 -0.1483542107949501 0.018068197667107502
-0.036542562485440175 -0.15357335837059982 0.020270663412375222
-0.03511422346640549 -0.159056683864971 0.02213236213369209
-0.033666118154937995 -0.16471891434140346 0.02365469802003719
-0.032184337142376264 -0.17046916655672045 0.02487133049412532
-0.030641304512883293 -0.17621302777198306 0.025845353989861097
-0.029009014015198224 -0.18186418668061927 0.026658168427957006
-0.027267160066486943 -0.18735052511248604 0.027399786202822424
-0.025403388323324515 -0.19261825297424376 0.028160849912134616
-0.023411513963703445 -0.19763034064962143 0.029025495913176536
-0.021288996643076867 -0.20236634724186925 0.03006560575563927
-0.019032464653594698 -0.2068249521808668 0.03133861828904008
-0.01663279486732553 -0.21102155990860055 0.03288990632596876
-0.01407126982259868 -0.214982995994993 0.034754466902144954
-0.011321636479209486 -0.21873497008955914 0.03695395198120312
-0.008359086898878428 -0.2222927758291165 0.03948897129554039
-0.0051677913318699635 -0.22566583440270133 0.0423330792819145
-0.001737840654782839 -0.22886275266673028 0.04543756259804808
0.0019412376384370035 -0.23188978596618307 0.048742262712186575
0.0058829499339385204 -0.23474664624397454 0.05218301333960082
0.010106970001582727 -0.23742855285291853 0.055699048351919675
0.014641147110921165 -0.23992783302113416 0.059243395604642334
0.019518052372604018 -0.24223205359348657 0.06279007475802595
0.024765267875799732 -0.24432024392608037 0.06633581707220154
0.030392686501418187 -0.2461631740145933 0.06989597651881475
0.036378548955906045 -0.24772781332311053 0.073497105916095
0.04265924004827368 -0.24898994759621834 0.077166668290304
0.04912873955900597 -0.24995165025286945 0.08092287624167363
0.05565408234975181 -0.2506533215970684 0.08476718528652812
0.06209845379848712 -0.2511730301276201 0.08868265299737928
0.0683389271621751 -0.2516109348274565 0.09263826546699974
0.07427486957351101 -0.25207174724930104 0.0965937821978022
0.0798298973703661 -0.2526411729102776 0.10050522595105908
0.08495527558030101 -0.25337147013802536 0.10432937956979514
0.08963419795464195 -0.2542744515430291 0.10802809196801386
0.09388438258910196 -0.25532989112131577 0.11157535415953634
0.09774751720300201 -0.2565028322105928 0.11496015333179802
0.10127553201776857 -0.25775791499178863 0.11818483814514993
0.10452029736643553 -0.259068474719508 0.1212619656156188
0.10752979111320465 -0.26042110952951436 0.1242135114094484
0.11034495755356763 -0.26181632884386485 0.1270684316438604
0.1129998178318307 -0.26326739859883524 0.12986059787884122
0.11551930334467855 -0.2647977304061256 0.1326226862204339
0.11791762842592932 -0.26643628185717166 0.1353780643406664
0.12020132778504014 -0.26821465327258415 0.13813506493010827
0.12237407674578246 -0.2701644759122874 0.1408869004611977
0.12443973412557602 -0.27231948336735246 0.1436182437223398
0.12639850861494667 -0.27471642259429646 0.14631152588452445
0.12824097443496066 -0.27739660015391815 0.14895098264254517
0.12994274942849607 -0.28040275400754144 0.15152409951121795
0.1314654742955851 -0.2837727876348658 0.1540203048671514
0.13276689583905962 -0.28753320272524946 0.15643060192067929
0.13381473899690444 -0.2916970880057738 0.15875246812136173
0.1345930189409447 -0.2962608714205394 0.1609948866369451
0.13510653676076056 -0.30119163827924494 0.1631773591126245
0.135384306834583 -0.30641419228623673 0.165326537063022
0.1354807199902164 -0.3118051435243576 0.1674732369826719
0.1354646082543543 -0.31718794441238657 0.16964538363008747
0.13540317768065363 -0.32234213182572985 0.1718487317589376
0.13534814103181772 -0.3270707471111296 0.17405817113191038
LINES 1 120
119 0 1 2 3 4 5 6 7 8 9 10 11 12 13 14 15 16 17 18 19 20 21 22 23 24 25 26 27 28 29 30 31 32 33 34 35 36 37 38 39 40 41 42 43 44 45 46 47 48 49 50 51 52 53 54 55 56 57 58 59 60 61 62 63 64 65 66 67 68 69 70 71 72 73 74 75 76 77 78 79 80 81 82 83 84 85 86 87 88 89 90 91 92 93 94 95 96 97 98 99 100 101 102 103 104 105 106 107 108 109 110 111 112 113 114 115 116 117 118
POINT_DATA 119
SCALARS Curvature float
LOOKUP_TABLE default
0.027617929532046694
0.02614552616811494
0.03297985934439779
0.04873026583957179
0.0730771768120656
0.10467731078853847
0.1411907761485052
0.17944077558750843
0.21569968409626744
0.24607776797148756
0.2669750658571584
0.2755452054551135
0.27011401488656495
0.2504968641388863
0.218167035608591
0.17624242761114867
0.12927799584647912
0.08287425419596076
0.04313513698378919
0.016028686195448283
0.006718718404742014
0.01894277750847802
0.054510085834364626
0.1129827091725343
0.1915846916015343
0.2853594484854717
0.3875679835369901
0.4902927472249354
0.5851874949525117
0.6642953293900928
0.720847520840871
0.7499559998240978
0.7491227465925848
0.7185086006304432
0.6609301294228409
0.5815831425622843
0.48752174510303065
0.38694895883644587
0.28839573057723594
0.19987716894596425
0.12811672319491046
0.07792056466037343
0.051766704445087845
0.04964852452921036
0.06918338634663604
0.10596724632963628
0.15412923079241586
0.2070190040933543
0.2579468579843784
0.30089308861327557
0.33110957677569514
0.3455515474212086
0.34309923595984765
0.3245548583986774
0.29242669922904235
0.2505361250135701
0.20350212166937692
0.1561694790624828
0.11304990156769208
0.07784006426460204
0.053067953047517054
0.03990059283088867
0.03812496589675064
0.046292318824599395
0.061996841276156435
0.0822451490085457
0.10386470512840613
0.12389799236908526
0.13993470717131468
0.1503454257616869
0.15439534762781285
0.15223367501677756
0.14477063142037516
0.13346793022002895
0.12007800272807152
0.10637146498254642
0.09389089088864726
0.0837624765099885
0.0765867997769951
0.07241724884801529
0.0708216859819554
0.07101136693575393
0.07201259046563484
0.07285205450607085
0.07272686876966161
0.0711343846602735
0.06794462159096888
0.06340780740061468
0.058099869622811544
0.052818053044412755
0.048445844011011804
0.04581009932974892
0.045553281080178795
0.04804013722602576
0.05331172781511169
0.061091484134730235
0.07083935281613811
0.08184240046796365
0.09332473929095945
0.10455712066509926
0.1149473846262871
0.12409696285979659
0.13181511904725451
0.13809048322944792
0.14302737899719153
0.14676111501307912
0.14937066616889802
0.15080822858492887
0.15086272332045106
0.1491687296705379
0.14526436063968712
0.13869247621625724
0.12913082734205164
0.11652971597227552
0.1012318145341627
0.08404876601105236
0.06627337316521724
0.04961423545169913
0.03605064344325018
