# vtk DataFile Version 2.0
Vessel Segment
ASCII
DATASET POLYDATA
POINTS 119 float
-0.003214469147722205 -0.005121342116845904 0.0005057412779357316
-0.007097307376258133 -0.010752612255983066 0.0014337027833647774
-0.011483830201049802 -0.016656130432426176 0.002662335252466774
-0.016182043371957146 -0.022598595661010214 0.004011955961359616
-0.021024858271470128 -0.028403976761792155 0.00530931046213882
-0.02588761889363045 -0.03397496572992788 0.006400160423397801
-0.030670577466058144 -0.039264049844580165 0.007133190827368857
-0.03528011727952386 -0.044245625609420317 0.007361891325871224
-0.03962690602991847 -0.0489083380822259 0.006966853139156281
-0.04364485775583266 -0.05326997995155195 0.005880226456023527
-0.04730480039090686 -0.05739444669778186 0.004072184571711662
-0.0505919719699726 -0.061373089039193494 0.0015223345750937662
-0.053473171570007236 -0.06529203134506782 -0.0017730670534774275
-0.05588947599371853 -0.06922040918693022 -0.005763340238960168
-0.057773739976519224 -0.07321220754440996 -0.010333500096022227
-0.05908709705661343 -0.07730534471513341 -0.015321097781033799
-0.05981838583227819 -0.08152558897959516 -0.0205900489746883
-0.05995681000485414 -0.08586935463900502 -0.026030225451551654
-0.05950157762158882 -0.09031723972015127 -0.03155226270913792
-0.058465941718201825 -0.094849831022491 -0.037083575837404695
-0.05687694806811937 -0.0994587490658843 -0.042568065390279214
-0.05477601832769717 -0.10413859860013974 -0.04794641224240027
-0.052232073616419135 -0.10887665980979593 -0.053129881678058426
-0.049352136044431096 -0.11364163747880555 -0.057987680541214975
-0.046283312881935594 -0.11836913637992724 -0.06235349265567482
-0.043199876145291534 -0.1229580412654441 -0.06605920692820831
-0.04027237000470634 -0.12729759329956256 -0.06898059023210881
-0.03764151962265018 -0.1312969962241453 -0.07104799011363575
-0.035410700883115626 -0.13486865686900215 -0.07223479790068117
-0.03363907841651148 -0.13791885039254415 -0.07258160019281211
-0.03231211274491481 -0.14041709613526204 -0.07220842399920731
-0.031349372307220034 -0.14243062499682907 -0.07124952798129053
-0.030664377957521777 -0.14407922182132835 -0.06974329338291907
-0.03021128100885154 -0.1454292133171352 -0.06764506642846536
-0.029973989131383955 -0.14649146878790756 -0.06490380894748178
-0.029952821859780765 -0.1472528976439519 -0.061488577419969055
-0.03015822107171382 -0.14769352140358125 -0.05740441703333484
-0.030599021840089915 -0.14779708107904302 -0.052711655438265226
-0.03126514080757923 -0.147569606024921 -0.0475446523914639
-0.03211411980664793 -0.1470637709166133 -0.04209234744612614
-0.03307446062546525 -0.14638244950842533 -0.036536965263568304
-0.03406718028442625 -0.14565389917376578 -0.031002156931235217
-0.035023297900983436 -0.14500413288058395 -0.025555048029325213
-0.0358880550432153 -0.1445447836381616 -0.020223399154628393
-0.03662093739724424 -0.14437117710351388 -0.015006899938776765
-0.03719431758829998 -0.14456426685500043 -0.009885604268008972
-0.03759140479339752 -0.1451983889365642 -0.004831095761931831
-0.03780457450387297 -0.146347626912596 0.00017637388115747648
-0.03783676035717158 -0.14807992042522855 0.005126450658098744
-0.037701770671632225 -0.1504373650991843 0.009975237111343767
-0.03741972274605648 -0.15342467749191555 0.014666919936711091
-0.03701380289608397 -0.1570223594139149 0.01915838889160671
-0.0365062827235567 -0.16120280917219024 0.023420885048931826
-0.03591527572585466 -0.16593114548340954 0.02743520442094874
-0.03525196930818595 -0.17116415144172162 0.031196241453195175
-0.03451814141603938 -0.17684996312101148 0.034716651121810216
-0.03370542435837272 -0.18292607954985185 0.03802322060802761
-0.03279846838611154 -0.1893162960309898 0.0411504620553577
-0.03177944834272639 -0.1959335513301965 0.04413181132572216
-0.030631832631726204 -0.20268859830552763 0.046994020133287046
-0.029340385939620055 -0.20949943362299012 0.04975970414655734
-0.027884432061004966 -0.21629854447156768 0.05245190726261291
-0.026235270158220945 -0.22302926642612014 0.05508985864598868
-0.024360353539846932 -0.22963705752382002 0.0576882384476735
-0.022228755487934508 -0.23606925035944842 0.06026048434953453
-0.019817155725489016 -0.24227716730082113 0.06282034261939218
-0.017112236035327587 -0.2482156530790141 0.06538169222410088
-0.014109788727511344 -0.253844063748055 0.06795890716175747
-0.010812118105603624 -0.25912884198137015 0.0705675525453403
-0.007224004978314536 -0.26404666063935256 0.07322477763626609
-0.0033503061886197283 -0.2685829174237528 0.07594874958169465
0.0008045907843073474 -0.2727309519755059 0.07875899553661599
0.005237149076003512 -0.276491442390645 0.08167661070854332
0.00994330717632413 -0.2798687113480884 0.08472357926577459
0.014914485474369008 -0.2828674284082411 0.08791935577935948
0.02013377000919124 -0.2854939267549136 0.09127541060223471
0.0255785980815956 -0.2877580212955512 0.09479360668369873
0.03122568234129146 -0.2896718894331446 0.09846589483509853
0.03705461186659419 -0.29124956316106615 0.10227459250963421
0.04305073752914703 -0.2925074339667772 0.10619448447091699
0.04920654994469133 -0.2934657235079051 0.1101987236528302
0.055518040738848015 -0.2941460379021486 0.11426572997884378
0.0619782765401054 -0.2945697508021555 0.11838055935445477
0.06857145080380864 -0.29475836090812485 0.12253539454131229
0.0752689014543152 -0.2947366513730596 0.1267289166955325
0.08202721479060539 -0.29453584652421994 0.13096352245170148
0.08879053805299271 -0.29419683115471956 0.1352425458253105
0.0954962072913611 -0.29377051579795893 0.1395654529999621
0.10208085354203075 -0.2933153955578675 0.1439240332633003
0.10848584130612017 -0.2928928472245309 0.14830253356450399
0.11466119875173961 -0.29256373153401427 0.15267831897740552
0.12056812024886185 -0.29238271872094207 0.15702537491719656
0.12617974630423806 -0.29239490469090046 0.1613176817689052
0.1314830045663193 -0.29263410140879814 0.1655314470503758
0.1364797381379801 -0.293124182704142 0.16965122742788386
0.14118261752001734 -0.29388347905251 0.17367078307268213
0.14560836277151631 -0.2949296933889485 0.17759188964424047
0.14977251241385364 -0.2962818943677239 0.18142174638160904
0.15368518748917956 -0.29796073677831 0.18517055197015223
0.15734863747417296 -0.29998618593171816 0.18885111103051594
0.16075516477355922 -0.30237362662678713 0.19247751817034695
0.16388550799088503 -0.30512995210604454 0.1960630952565797
0.1667112647674837 -0.30825003523128985 0.19961505481541542
0.1692033004599544 -0.31171543472093605 0.20313180365197828
0.17134449393900938 -0.3155014208482169 0.20660582689328208
0.17313263420771333 -0.3195869242646089 0.21003024281039426
0.17457516839783432 -0.3239581394164611 0.2134002501429053
0.1756840386506829 -0.3286048733164103 0.21671028008861493
0.1764752115426671 -0.3335130991025118 0.2199522315591088
0.1769709441926761 -0.3386575839547095 0.2231164892374717
0.17720292361539247 -0.3439987218379975 0.22619294477257415
0.17721226558489547 -0.34948575991112235 0.2291764346633194
0.17704598459462081 -0.355066949609831 0.2320704067169648
0.17675175282839228 -0.36069841575880507 0.2348899973850988
0.17637625479575292 -0.3663425786641138 0.2376614764427535
0.1759693785634188 -0.3719469503020469 0.24041272978331008
0.17558399892546372 -0.37740954039310437 0.24315103738254348
0.17526864367953743 -0.38256973792811205 0.2458352737810087
0.1750560173945695 -0.38726636256591174 0.24838361685526764
LINES 1 120
119 0 1 2 3 4 5 6 7 8 9 10 11 12 13 14 15 16 17 18 19 20 21 22 23 24 25 26 27 28 29 30 31 32 33 34 35 36 37 38 39 40 41 42 43 44 45 46 47 48 49 50 51 52 53 54 55 56 57 58 59 60 61 62 63 64 65 66 67 68 69 70 71 72 73 74 75 76 77 78 79 80 81 82 83 84 85 86 87 88 89 90 91 92 93 94 95 96 97 98 99 100 101 102 103 104 105 106 107 108 109 110 111 112 113 114 115 116 117 118
POINT_DATA 119
SCALARS Curvature float
LOOKUP_TABLE default
-0.0038484656912896715
-0.00425522500181887
0.003824259444503482
0.021289042427921043
0.04792006997716595
0.08226625954558171
0.12169633685429745
0.16262229499403502
0.2008766933358435
0.2322036081285942
0.25280500728140615
0.25987328665029724
0.2520384542941931
0.22966564015390412
0.19495465636925538
0.15181645421999787
0.10552874010358068
0.06220129612454802
0.028107056205948965
0.008954329608216237
0.009186061181397285
0.03139206503133562
0.07590946334916505
0.14066617277756205
0.22129453335287425
0.31151037850894236
0.40372088233502107
0.48979636323282405
0.5619204251934254
0.613422059056306
0.6394940627937463
0.6377144088421308
0.6083095882674461
0.554128826725808
0.48033178544126326
0.3938258304383071
0.30251809630427456
0.21446884233136118
0.13704343292527812
0.07615940286154524
0.03571267655072419
0.017244707435746846
0.01988291082221405
0.040553953512702544
0.07443729217639286
0.11559874512298969
0.15772414306822147
0.19486350800816798
0.22209772785960052
0.23605189503714433
0.23520059828280415
0.2199376548416993
0.19241249828705576
0.15616391193092272
0.11560548418930898
0.07543322183988826
0.040032395811680846
0.012957369683825007
-0.003454376350370204
-0.00829264894185472
-0.002092326998315562
0.013332991356634962
0.0352096408226936
0.06022477857083879
0.0849885717507351
0.10647437574421688
0.12237974165187314
0.13136461741838543
0.13314192766884775
0.12841709951422736
0.11869404983932326
0.10598281838390008
0.09245610733729441
0.08010699378945252
0.07045755404102987
0.06435867143362567
0.061906433507979
0.062482514969127254
0.06490742981756864
0.06767916743905471
0.06925778999709897
0.06835067319198049
0.06415394051744733
0.056513017291460126
0.04597793480841416
0.0337451227226988
0.021494554156727064
0.01114675203893698
0.0045760674831787996
0.0033231038235910972
0.008349284451062897
0.01987037137055197
0.03729416872467543
0.059272398399543694
0.08386004444548313
0.10875976259198347
0.1316165256544943
0.15032033368769773
0.16327363143478676
0.1695852258135327
0.1691632449777077
0.16269447512351007
0.15151410482299657
0.13738606509120982
0.12222740463309127
0.10781851670713911
0.09554326193548805
0.08619871812679035
0.0799039905176233
0.07612267033278798
0.07379625694768187
0.07156866828425687
0.06806739748961714
0.062197141304208135
0.05339838076750165
0.04182710020957927
0.02842224284138956
0.014843299445352629
0.003279477004515821
