# vtk DataFile Version 2.0
Vessel Segment
ASCII
DATASET POLYDATA
POINTS 119 float
-0.0032154204611516816 -0.0052689146108861485 0.0003613056373321322
-0.007101363933645452 -0.011007546727493583 0.001172767114851262
-0.011491449525377659 -0.0169691455267884 0.0023106217506888146
-0.016193363349755793 -0.02292514193313917 0.003594923634698338
-0.0210410268938478 -0.02871422362821975 0.004846895233958858
-0.02590779586138245 -0.03424975636383973 0.005901262700097328
-0.030689605234807283 -0.0394898134945555 0.006595915038010624
-0.03528783851517724 -0.04441136358677696 0.006777048039271031
-0.039609646180720395 -0.049004073500009286 0.0063232468377831955
-0.0435893187246578 -0.053286958898847374 0.005169264728663013
-0.0472026033670004 -0.057327335221622956 0.0032878402519850728
-0.05044039767141738 -0.06122018517241053 0.0006563019875849793
-0.053271411302521526 -0.0650516750020983 -0.0027323332053817797
-0.05563558549284571 -0.06888790371863174 -0.00682349710116768
-0.057468503645946294 -0.07278099634018848 -0.011492976047114894
-0.05873332988706123 -0.07676718628544113 -0.016573927110124165
-0.059419145208225076 -0.0808682455837222 -0.021923449590488663
-0.05951840885985337 -0.08508036803794104 -0.027428268743934343
-0.05903204236082339 -0.08938636452987686 -0.03300022329234164
-0.05797323623576232 -0.09377004947918642 -0.03856799353201951
-0.05636827893389325 -0.09822613916889456 -0.044076593419646204
-0.05425809848803326 -0.10275128549593081 -0.04946806405993143
-0.051711552546598295 -0.10733463479300595 -0.05465616907643309
-0.048835385188787835 -0.11194761141402046 -0.05951300324177418
-0.04577751273106228 -0.1165282662704029 -0.06387266452847631
-0.04271631556802026 -0.12097460993140759 -0.06756473460026537
-0.03982746641170316 -0.1251723849380175 -0.07046683765753245
-0.037252245924289246 -0.12903194552406422 -0.07252261754461115
-0.035083638299988784 -0.13247648230735865 -0.07372782526095344
-0.03336631205815611 -0.1354283991465054 -0.07413692023169087
-0.032078873806201294 -0.13786749896555003 -0.07386713389547847
-0.03114509342036115 -0.13985641339465102 -0.07304151946511189
-0.030484460864278855 -0.14150413096620773 -0.07169785487172797
-0.030053338043979944 -0.14287514415562252 -0.06979745351510552
-0.029835479194575965 -0.14398246009151616 -0.06729049595496814
-0.029831119783317612 -0.14481156583478236 -0.06413839645692239
-0.030052970676637095 -0.14533459469900908 -0.06032864589642408
-0.030516055810914478 -0.14552005406045568 -0.05589505567608648
-0.031219676803854703 -0.14535172930094192 -0.05094087587506162
-0.032131407326876964 -0.1448564197653307 -0.0456356117489145
-0.03318062220326325 -0.14412090137290295 -0.040174163867773525
-0.03428119838523373 -0.14327300856925626 -0.0347030079672822
-0.03535701800692768 -0.1424449533758013 -0.029308444856711184
-0.03634697799114756 -0.14175697506098486 -0.02403322304388388
-0.03720533507543316 -0.14131310588261403 -0.018887005591219058
-0.03790065330492284 -0.14120129308304188 -0.013854570775336493
-0.03841299428852715 -0.14150034337530334 -0.008907328901946628
-0.03873144855353474 -0.14228697003755983 -0.004022710354808062
-0.03885678284961432 -0.14362865853779083 0.0007907336913825502
-0.03880248651540891 -0.1455640626189851 0.005493225867655976
-0.03858843958637083 -0.1480966545052344 0.010037964996346363
-0.03823671108158818 -0.15121113313012802 0.014391523634812754
-0.03776803472922454 -0.15488764003221897 0.01853162430593636
-0.0371993070878703 -0.1591007786958489 0.02244215550142762
-0.03654151085349304 -0.16381792117372482 0.026118883558288553
-0.03579743788732081 -0.16899962015769707 0.029573978869842952
-0.03496093926320677 -0.17459811053767754 0.032831800163237286
-0.034020171993757474 -0.18055231964680554 0.03592060975041062
-0.032962527039682735 -0.1867872034611874 0.038862158021700045
-0.03177940179264446 -0.19321890851330292 0.0416662263428188
-0.030466556114853816 -0.19976249744739635 0.0443379562065061
-0.029013375021633075 -0.20634268505879041 0.04688975954567953
-0.027397732821754946 -0.21289392818538483 0.0493374189418629
-0.025590780055406572 -0.21935248434218377 0.05169849136582938
-0.023562735598596906 -0.22565741802449002 0.05399456507785355
-0.021289979161973387 -0.2317543719996914 0.056250636225986285
-0.01875824839417383 -0.23759566919734718 0.05849341370534141
-0.015961821698218828 -0.24314106232629257 0.06075042938680307
-0.012901106995675475 -0.24835888113573537 0.06304942807509029
-0.009579078582788208 -0.2532280168784615 0.06541762169740672
-0.005998751509775984 -0.2577367219525843 0.06788070009940204
-0.0021619863736983096 -0.2618816468762062 0.07046323696299985
0.0019315269358315037 -0.2656668149539095 0.07318885951601192
0.006282870802415093 -0.26909900734830505 0.07607906665765277
0.010889120648617754 -0.2721839455519969 0.07914932928243562
0.01573894856533914 -0.2749282685644688 0.08240396814516703
0.020815490761611332 -0.27734178165390483 0.0858359671724916
0.026101591387025405 -0.2794360316372143 0.08942863336914408
0.03158316158254364 -0.2812230046664823 0.09315696923000966
0.03725203314505802 -0.2827156784606108 0.0969904420061658
0.04310741442486849 -0.2839293644544116 0.10089949626006059
0.04915217145873123 -0.28487935400393183 0.10486242825643063
0.05538573324974519 -0.28557910978619844 0.10886682973432169
0.06179690788849979 -0.2860409179844295 0.1129092773664092
0.06835825758193155 -0.2862795896347022 0.11699348517843262
0.07502284054826272 -0.2863173257648407 0.12112611162598329
0.08172611290302542 -0.2861891850643059 0.12531268313673874
0.08839328507480745 -0.2859450400792555 0.1295524466510127
0.09494830747142874 -0.2856471261004647 0.13383510870709597
0.10132140400296347 -0.2853634811825973 0.13814182447441506
0.10745372622011441 -0.2851623141336754 0.14244659426595074
0.11329978297861591 -0.2851035306238334 0.14672011288584275
0.11882865452695913 -0.2852335541507381 0.15093333049835123
0.12402635850691336 -0.28558266690207623 0.15506008089173046
0.12889732527952424 -0.2861673958496868 0.15908337235589148
0.13345920139437292 -0.2869969885889683 0.16299647171057735
0.1377347430861929 -0.2880798809038521 0.16680146343418512
0.1417455236327661 -0.28942684135471636 0.17050636854313667
0.14550769530439725 -0.2910518655871433 0.17412292083541364
0.14902950258649472 -0.29297042128277606 0.1776658923125577
0.15230981327529897 -0.29519617663593967 0.18115184703823706
0.15533665769008645 -0.2977375918134254 0.18459660571111663
0.15808910022066844 -0.30059447537418393 0.1880096005035008
0.1605447247392334 -0.3037566279726682 0.19139076641902272
0.16269084352632254 -0.307209178866862 0.19473292090076694
0.16452719767975763 -0.3109411121528985 0.1980282469104757
0.16606072130508806 -0.314948388275993 0.2012704843943571
0.16729999216179023 -0.3192313668593815 0.20445326449872708
0.16825368943669688 -0.32378815626670954 0.20756887636917912
0.16893255500741527 -0.3286070521130132 0.2106086795211879
0.16935395306368525 -0.33366184210959465 0.21356353503250033
0.16954485970685923 -0.33891315679909895 0.21642896329331898
0.1695407795318104 -0.34431609468271146 0.2192092277545029
0.16938255575809072 -0.34982613826226905 0.2219198857255942
0.16911515608684577 -0.3553970305206845 0.2245868241345485
0.1687904994642217 -0.36096310564343037 0.2272378857271626
0.16846493285820477 -0.3664097016287103 0.22988326250185367
0.16819044660476587 -0.37156661981855593 0.23248916384416163
0.1680030092636018 -0.37626705829084744 0.2349827636316341
LINES 1 120
119 0 1 2 3 4 5 6 7 8 9 10 11 12 13 14 15 16 17 18 19 20 21 22 23 24 25 26 27 28 29 30 31 32 33 34 35 36 37 38 39 40 41 42 43 44 45 46 47 48 49 50 51 52 53 54 55 56 57 58 59 60 61 62 63 64 65 66 67 68 69 70 71 72 73 74 75 76 77 78 79 80 81 82 83 84 85 86 87 88 89 90 91 92 93 94 95 96 97 98 99 100 101 102 103 104 105 106 107 108 109 110 111 112 113 114 115 116 117 118
POINT_DATA 119
SCALARS Curvature float
LOOKUP_TABLE default
0.00033155532118826336
-0.0003347526093348648
0.007439295917361152
0.024569663095593455
0.050875055741524046
0.08495581347148463
0.12423483514939514
0.16516831977132343
0.2036108582750631
0.23529704604139143
0.25638339836308854
0.26398262187667726
0.2566190989883891
0.23454057331392925
0.19983605522443618
0.1563322715910554
0.10926791926595589
0.06477320863845655
0.029208088487414855
0.00843270599109492
0.007095300669390594
0.028024104333604076
0.07180043927749222
0.13657095457499768
0.21812997273971962
0.3102714179103481
0.4053775799663754
0.49518301439728096
0.5716298202306926
0.6277182045236585
0.6582552831225856
0.6604157386843441
0.6340490722226473
0.5816972542860943
0.5083201176806101
0.4207597798513683
0.32700562264808974
0.2353442262518136
0.1534913993064124
0.08780456879582435
0.042663227976843666
0.020084264623300267
0.019610439959002433
0.03847761727581084
0.07203357408222791
0.11435236011506346
0.15896663637505612
0.19962873604301218
0.23101055418897756
0.24926263077975955
0.2523724193079441
0.2402880728167767
0.2148036911048834
0.17923108851354932
0.13790814716702648
0.09561171371841373
0.05695175732110084
0.02582232812135196
0.004974225033440455
-0.0042441192202388916
-0.0019545689410242944
0.010371465434750008
0.030195921098144476
0.05431304385268999
0.07930568220149393
0.10199579701327259
0.11983021874775254
0.13115448359220408
0.13534515519356438
0.13279180398541474
0.12474084089789242
0.11303181651789634
0.09977017826334018
0.08698716961579377
0.07633687057692276
0.06887267040486991
0.0649320495914747
0.06414150308216636
0.06553528753990374
0.06776503759102792
0.06936450629824126
0.06902647977738315
0.06584819827847835
0.059507345154443385
0.05034187831375822
0.03932194389884772
0.027918585937651525
0.017889521671860604
0.011014628666360271
0.008821212334450663
0.012340553283746121
0.021932513543151823
0.03720484414027322
0.05703980065206552
0.07972481410712284
0.10316861452284154
0.12517161480841857
0.1437113786583072
0.15720178929130726
0.16468843557000093
0.16595217572093476
0.1615064519016223
0.15248972075264466
0.1404700154053018
0.12719184767837655
0.11430442113797966
0.10311311310766237
0.09439288598042266
0.08829311102392416
0.08434950627420601
0.08160247573812858
0.07880448330945156
0.07468467703315174
0.06822899855736399
0.058930071679307625
0.04696402375093284
0.0332608447999937
0.0194497584562903
0.007679373443916756
