# vtk DataFile Version 2.0
Vessel Segment
ASCII
DATASET POLYDATA
POINTS 119 float
-0.003235555187714503 -0.00454775260297877 0.00111012549835954
-0.007121699628079885 -0.00974879440006816 0.0025347340499557486
-0.011502129686369324 -0.015415486293171098 0.004155430635933355
-0.016188392056932576 -0.021304470847003477 0.005789369793437172
-0.021011878002465595 -0.02718309867198519 0.007285100457075349
-0.025858402486189536 -0.03291089489447915 0.008536036435006993
-0.0306478590159402 -0.03841735791668092 0.009438204174063849
-0.035309378864913116 -0.043666777384042336 0.00987760965062807
-0.039770695847351774 -0.04864487066439925 0.009744132304091513
-0.043965882702756406 -0.05336550804718397 0.008957559781051882
-0.04784455536922587 -0.057877631031452485 0.007473471279875707
-0.05136571214427024 -0.06225544519010378 0.005276723072574098
-0.0544851521608298 -0.06658319639807418 0.0023741403506016435
-0.05714576238025299 -0.0709411970389358 -0.0011996728914454979
-0.05926623002384461 -0.07538940354347477 -0.005364892940050046
-0.06079929353340519 -0.0799738555747493 -0.0099746690968808
-0.06173395435057584 -0.08473994232045837 -0.014919781487117131
-0.06204566890544186 -0.08968583208906457 -0.0201025322008518
-0.06172631501875013 -0.09478245737300296 -0.025428386903450846
-0.06078971799485068 -0.0999955930204892 -0.03081923261848251
-0.059266787460237974 -0.1053023731873287 -0.03621412372435664
-0.0572016937261889 -0.11068788211983493 -0.04154803619418211
-0.05466406362535039 -0.11613093024544599 -0.04672162467538679
-0.05176252222347044 -0.1215878875479924 -0.05159157654863339
-0.04864113111135121 -0.12698332294478842 -0.05598959735561698
-0.04545634454748884 -0.13222059162879132 -0.05975764780690948
-0.04235510402375645 -0.13720590128248722 -0.06276372266361531
-0.03947317874766415 -0.1418442858256438 -0.06487902060256985
-0.036957996540942964 -0.14600039660721795 -0.0659754095343234
-0.03493222887509112 -0.14951070738356337 -0.06602893397946469
-0.03340989083923586 -0.15230459415208836 -0.06516467286823635
-0.03229326212191701 -0.15446615905337313 -0.06354761972363533
-0.03147705289820975 -0.15614040332682771 -0.06120523600298669
-0.030909690102337472 -0.1573824176848801 -0.058079796432605406
-0.03057301581212385 -0.1581960616828416 -0.05413895726546036
-0.03046428660388954 -0.1585902587283191 -0.04940632762122721
-0.030581506449777474 -0.15859941819205906 -0.04398183156308419
-0.03090501804115851 -0.15829197946910975 -0.03805488996597043
-0.03138564908052057 -0.15778096201357836 -0.03189838633455382
-0.03194305938564699 -0.15722688437870988 -0.025770487715994703
-0.0325077019612385 -0.15678646359159773 -0.019769190424693456
-0.03303269079578965 -0.1565792187212563 -0.013896051400996107
-0.03347652273036182 -0.1567063813074145 -0.008118667798979304
-0.03380490195802815 -0.15725712472180817 -0.0023887809958246823
-0.033990976156530635 -0.15831273790369144 0.00334001472400953
-0.03401543447319092 -0.1599482692983095 0.00909925972400348
-0.033871378980073905 -0.16223401143755506 0.014895114812598888
-0.03356846730610739 -0.16523268108928962 0.020705686932282072
-0.03312668100837703 -0.16900384856524417 0.026488392956186414
-0.03257012227289543 -0.17359044473449853 0.03216913355019722
-0.03192860190971058 -0.17898455930528168 0.03764880195408009
-0.031237366218298656 -0.18512644058554875 0.04284280035090176
-0.03052988517017534 -0.19193375234034699 0.04769918545484476
-0.029831042925117925 -0.19931355298576878 0.05219358537986695
-0.029151436816628566 -0.20716457118516773 0.05632668922452957
-0.028484538033307017 -0.21537183950568498 0.06012237884489235
-0.027806830513721764 -0.22380091114480694 0.06362609470013735
-0.02708172731070761 -0.23230435423570694 0.0669067414361733
-0.026263483993705643 -0.24074211359748826 0.0700546535486745
-0.02529726897270671 -0.2490075920292944 0.07317491766411442
-0.02411727067099989 -0.2570457289469197 0.07636941349008687
-0.022656718206111353 -0.26484179255335544 0.0797107590320472
-0.020855226169849982 -0.2723958043974916 0.08323798951556892
-0.018659661924384688 -0.2797060772959904 0.08695849474743748
-0.01602928959606212 -0.2867607332077963 0.09085318319824207
-0.012938462398852157 -0.293533033738298 0.09488550538121526
-0.009376746327579106 -0.29998100066432415 0.09900722923450414
-0.005348187651160435 -0.306052603461937 0.10316518741287427
-0.0008672043455943568 -0.31169745253992387 0.10731011316711751
0.0040492174123746335 -0.31687698130704256 0.11140476047246443
0.009384968117035423 -0.32156216284640193 0.11542691840205153
0.015122966668369407 -0.3257327809764618 0.11937001696487207
0.021242252955927212 -0.329377368894288 0.1232434691300382
0.02771577364766204 -0.33249206452311403 0.12707387480745255
0.03450912713400255 -0.33507841483759176 0.13090283713767384
0.041578927484552705 -0.3371414094254502 0.13477880474614923
0.04887404614760619 -0.3386899822663 0.13874770029446937
0.056339053300152715 -0.3397384300454024 0.14284299466985872
0.0639196151600329 -0.34031035919445046 0.1470809517142833
0.07156643988768341 -0.34043950508384146 0.15146013212968934
0.07923681919489368 -0.3401721709695504 0.1559647658876956
0.08689196800270556 -0.3395640390754471 0.16057195235246421
0.09449409362274092 -0.338678549696667 0.16525257032032944
0.10200631183250346 -0.33758434888390204 0.16997572980213413
0.10939575074760692 -0.3363543737914251 0.17471432996951802
0.11663739701820329 -0.3350601498590245 0.17944973686975252
0.1237176322828149 -0.33376512539046754 0.18417556903094445
0.1306314281249337 -0.33251976844130016 0.18889415972808637
0.13737522730886248 -0.33136124829361097 0.1936093696899701
0.14394288889205095 -0.3303179576160341 0.19832195910012512
0.15032659783308214 -0.3294158549491956 0.20302657643675576
0.1565197224568452 -0.32868472508799945 0.20771354112971724
0.16251563687024909 -0.3281626837091759 0.2123713795984695
0.1683066346595463 -0.3278991522926933 0.21698707687808932
0.1738829416699442 -0.32795200808120284 0.22155143755631526
0.1792337646387957 -0.32838245443977426 0.22605930574280547
0.18434737295952888 -0.3292524398105323 0.2305102236958268
0.18921178079354234 -0.330621276693982 0.23490795390753896
0.19381085702588077 -0.3325433442531393 0.23925745848062868
0.19812145588509972 -0.3350640862252503 0.2435654988949659
0.20210714624679016 -0.3382132493787467 0.24783803902506346
0.2057145115792701 -0.34199739967830894 0.25207935538756177
0.20887758359332873 -0.34639406307463877 0.25628753691807676
0.2115310335534716 -0.3513487401758939 0.2604536533814981
0.2136315277799155 -0.35678932146589937 0.2645674171902375
0.21516306406916252 -0.36264305342198827 0.26862466065613694
0.2161330443673795 -0.36884307616825385 0.27262562002251944
0.216570411760841 -0.37531969620893907 0.27656636500075216
0.21653133148308973 -0.38198983360134053 0.28043426040424935
0.21610214913351983 -0.38875295978188257 0.28421211591369944
0.215392518070313 -0.39549930938944755 0.28788271617104727
0.21451705340461263 -0.40212512136485834 0.2914361326794039
0.21357780688618375 -0.408554285412549 0.2948712140935793
0.212649586761068 -0.4147572898514975 0.2982012498098178
0.21177954338670932 -0.42074657787190356 0.30145542833081157
0.21100161941652343 -0.42653552660412997 0.30466372952826065
0.2103488245604749 -0.43208105105351624 0.307822078828745
0.20985213209935225 -0.43726482081119944 0.31085754477241656
0.20952869971641083 -0.44194995411084964 0.31364903535047944
LINES 1 120
119 0 1 2 3 4 5 6 7 8 9 10 11 12 13 14 15 16 17 18 19 20 21 22 23 24 25 26 27 28 29 30 31 32 33 34 35 36 37 38 39 40 41 42 43 44 45 46 47 48 49 50 51 52 53 54 55 56 57 58 59 60 61 62 63 64 65 66 67 68 69 70 71 72 73 74 75 76 77 78 79 80 81 82 83 84 85 86 87 88 89 90 91 92 93 94 95 96 97 98 99 100 101 102 103 104 105 106 107 108 109 110 111 112 113 114 115 116 117 118
POINT_DATA 119
SCALARS Curvature float
LOOKUP_TABLE default
-0.01215180509053651
-0.01247776690905026
-0.0044020563364397264
0.012858440406564597
0.03893901956167498
0.07225287680669436
0.1100862382327649
0.14886045638240047
0.18453522568310649
0.21310627503283516
0.23113562642708135
0.23624502418015506
0.22750470514893714
0.20566037823551003
0.1731599722667582
0.13396616118387228
0.09316783010487759
0.056430019453653585
0.029344012211010434
0.016754124888125697
0.02214331889090332
0.04715502907937355
0.09131398639704115
0.15198595115786168
0.224587919761568
0.30303001335313
0.3803416998890361
0.44941185772499176
0.5037574279787107
0.5382309590984378
0.5495838650017043
0.5368189620020227
0.5012907898315053
0.44654228845101446
0.37789787289442567
0.30186192142232243
0.22539458254405195
0.155150800605177
0.09677187180977312
0.05431132483968823
0.02985950066663116
0.02340615003520935
0.03295088032128189
0.05484109690721123
0.08428997361383436
0.11600629073245057
0.14485617792150923
0.1664752075617976
0.1777578986331717
0.1771692088562095
0.16484659810435098
0.14248853913655904
0.11305237442630901
0.08030772030790372
0.048308305494327054
0.02085322396750839
0.0010072663786968024
-0.00926030188348882
-0.009276831290616962
0.00031189007312491324
0.017693913712541906
0.04018953004242805
0.06464948873641153
0.08789521018202565
0.10713977320216217
0.12033344686918218
0.1263899764903771
0.12526784146276979
0.11790167113862808
0.10599998643571241
0.09174354636153287
0.07743139296953767
0.06512755847825137
0.05635966911143674
0.05191176114222898
0.05173891566698005
0.05501300103427035
0.060289533984532885
0.06576817344881525
0.06960609565133778
0.07023628871258833
0.06664259730139488
0.05855009292331838
0.046502012132523356
0.03181123506332672
0.016392652568984405
0.00250015891163695
-0.007594068256236587
-0.011931850514332543
-0.009164845160796601
0.001229052808215626
0.0188405586793792
0.0423511828559134
0.06968079536778998
0.09824081956855805
0.12525829183819487
0.1481259283395687
0.16472960190472705
0.17370779318552185
0.17460720392384801
0.16791345207330405
0.15495352471000515
0.13768492414091793
0.11840260181410557
0.09940651552870605
0.08267826522656957
0.06961391877875676
0.06085197493221042
0.05622154275258988
0.05481818640711237
0.0551959893433518
0.055646941021784094
0.05452527962821191
0.05056694103276725
0.04315395059681257
0.03248063172445115
0.01959203220891263
0.006283186892170231
-0.005131758310517863
