# vtk DataFile Version 2.0
Vessel Segment
ASCII
DATASET POLYDATA
POINTS 119 float
-0.0032145677083441765 -0.005169876136292739 0.0004578671953216908
-0.00709828777358399 -0.010836586509942773 0.0013471010328922235
-0.011485909823162204 -0.01675931883528676 0.0025454962103390643
-0.016185317137834707 -0.022706244390795115 0.003873334320995114
-0.021029731795926935 -0.02850616726311104 0.005155545450700773
-0.02589381725968748 -0.03406530728961191 0.006234215920021824
-0.030676377583578815 -0.039338002102247464 0.006954427162176058
-0.035282118960524855 -0.04429949569137774 0.007167229419249628
-0.03962051914753413 -0.0489387596235866 0.006752540858055513
-0.04362560097805679 -0.053273981792882355 0.005643392001567286
-0.047269832491030166 -0.05737020037408159 0.003810846790033258
-0.0505403566308383 -0.061319992361196264 0.0012337985760162264
-0.05340463702698231 -0.06520951442956262 -0.002092543293890524
-0.05580340112772223 -0.06910690845607749 -0.006116214441695595
-0.057670431951524485 -0.0730655556769417 -0.010719206046308282
-0.058967534226843844 -0.07712280306905737 -0.015737638045198454
-0.05968361537235289 -0.08130306367637685 -0.02103317899740579
-0.059808960501043645 -0.08560266955669285 -0.026494663297844778
-0.059343348305637464 -0.09000295667818012 -0.03203312672608751
-0.05830000859858965 -0.09448559498993096 -0.03757640670459293
-0.056705729486318274 -0.09904324668117778 -0.04306877541067246
-0.05460176241129391 -0.10367120511268779 -0.04845136522860834
-0.052057003222850645 -0.10835737651149328 -0.05363627176111577
-0.049178377469005594 -0.11307137765473856 -0.05849366423308028
-0.04611325748394311 -0.11774963272113091 -0.06285736629583595
-0.04303728461467536 -0.12229072841899175 -0.0665584971001493
-0.04012272573262607 -0.1265827228626179 -0.06947343953296596
-0.03751051584761832 -0.1305351963548282 -0.0715369869962548
-0.03530057669737607 -0.13406416131881968 -0.0727300259569319
-0.03354723411624882 -0.13708126803481882 -0.07309780091420633
-0.03223367606160909 -0.13955941130936317 -0.07275945086048796
-0.03128086816325993 -0.14156428674699187 -0.07184565311503041
-0.030604254329601954 -0.14321227015511637 -0.0703947561148847
-0.03015867357992814 -0.14456929754862283 -0.06836402331490089
-0.02992800255061943 -0.14564697129105464 -0.065702596914105
-0.029912569412676553 -0.14643159059231703 -0.062376763630826344
-0.03012360273564318 -0.14690035242565777 -0.058385522603188335
-0.03057202025958521 -0.1470317312643524 -0.053780218640665026
-0.03125085266991235 -0.14682422837874068 -0.04868480280424284
-0.032120927604010203 -0.146321927338673 -0.043281879367948944
-0.03311097094951783 -0.14562249696477803 -0.03775817684093823
-0.03413959309963522 -0.14485418361506464 -0.03224517166839169
-0.03513545046642812 -0.1441450917571085 -0.026816534875860325
-0.03604172281635756 -0.14360963179768013 -0.021505134594287136
-0.036816234947878716 -0.14334583838784182 -0.016314034488061634
-0.0374301825126752 -0.14343675286024613 -0.011224813698086042
-0.037865796525953364 -0.14395799018205616 -0.006208823582748354
-0.038114374422407206 -0.1449844083747484 -0.0012450984229256234
-0.038178085181545626 -0.14658380849554037 0.0036568684606730264
-0.03807054998348056 -0.14879724010323883 0.008454706568722516
-0.037811714717458374 -0.15162918111152973 0.013095676477616308
-0.037424311396003974 -0.15506175899191693 0.017539913044150483
-0.03693004252921921 -0.15907017489983083 0.021760784619209078
-0.036346589798474584 -0.16362289187293658 0.025740043883408524
-0.035685077032823795 -0.1686803585330425 0.029472781300246793
-0.03494765095808529 -0.17419495452809258 0.032971396345118566
-0.03412673188338603 -0.18010917901624876 0.036261782754780265
-0.03320819319710485 -0.18635193188618826 0.039376295264279014
-0.032175996308240355 -0.19284017022012637 0.04234441123742257
-0.03101628923988464 -0.19948639037302537 0.045187173804729745
-0.029717532839337594 -0.20620747860658345 0.047921330948217655
-0.02826243394826732 -0.21293315030927915 0.05056634456508141
-0.026624515732843197 -0.21960360343929075 0.05314025614575167
-0.024772503148229555 -0.2261610957089151 0.055658672403303446
-0.02267589026131391 -0.23255014589450196 0.05813773600692643
-0.020311285962463118 -0.23872020240252503 0.06059496048701954
-0.017665067645209094 -0.2446253437746917 0.06304855197113227
-0.014732509478140907 -0.25022515702676973 0.06551735023277545
-0.01151525125433434 -0.25548680621136716 0.06802107378128973
-0.00801743459046525 -0.26038776657242735 0.07058031364863776
-0.004243273825468583 -0.264914411899995 0.07321581259706467
-0.00019629739859607174 -0.2690611773908903 0.07594882084406666
0.004121249708092479 -0.27282982878294004 0.07880128710151382
0.008707030110978255 -0.27622547802041497 0.08179501150205243
0.013554362833822223 -0.2792531261913928 0.08494807503169748
0.0186482158795035 -0.2819192053868098 0.08826951019489815
0.023967958415666086 -0.2842335357574721 0.09175817272953195
0.029492393200254735 -0.2862080932824272 0.09540310172960273
0.035203271430181884 -0.28785622756618273 0.09918416404870627
0.041088160767826204 -0.2891931760918949 0.1030743730995875
0.04714184587278561 -0.2902374871203056 0.10704599114387253
0.05336265736216844 -0.2910086067609228 0.11107741758572016
0.059745816941937924 -0.29152520576317786 0.115154584005556
0.06627707164298477 -0.2918056501381637 0.11927117370821834
0.07292816314924784 -0.291871356936845 0.12342757910362333
0.0796544778202857 -0.2917505322110933 0.12762763710304356
0.08639722625273474 -0.2914821400590656 0.13187541067496955
0.0930896557313705 -0.2911167842436943 0.13617027244576257
0.09966412389928371 -0.2907142468827001 0.14050328776752852
0.10605824059840295 -0.2903381576698759 0.14485764345552893
0.11221903900388065 -0.29005185119894505 0.14920955756830517
0.11810545385095847 -0.2899117609837532 0.15353189907002976
0.12368924683813777 -0.28996343577789274 0.15779762484835613
0.12895702871471468 -0.2902395082424806 0.1619821465898435
0.133911508706529 -0.290761384400946 0.16606950956241623
0.13856703356496072 -0.29154433565437926 0.1700533199729134
0.14294235658772592 -0.29260293739348675 0.17393546523938017
0.14705504073751366 -0.2939534488215727 0.17772341736213096
0.15091721899238808 -0.29561425554374393 0.18142787311064415
0.154533133873235 -0.29760376534910893 0.18506226885841054
0.15789727754281746 -0.29993672762881246 0.1886414966454724
0.16099283927271177 -0.30262050255011963 0.1921796916386276
0.1637939483036439 -0.30565157620423533 0.19568479771906586
0.16627376911607208 -0.3090142609839109 0.19915573439175285
0.1684167188600924 -0.31268715564679866 0.2025851087559308
0.17022128544941287 -0.31665261244898163 0.2059657416447442
0.17169476898699815 -0.3209001741520001 0.20929236225759967
0.17284797566873084 -0.32542328735070025 0.21255915923107394
0.17369437591463102 -0.33021212077656714 0.21575819625064582
0.17425227146670297 -0.33524610861428766 0.2188802213313421
0.17454843736286563 -0.34049022896505615 0.22191547960891264
0.17461916309439407 -0.34589756524966625 0.22485905066352538
0.17450757200412437 -0.35141860642438477 0.22771465947432404
0.1742590745482053 -0.3570091557626724 0.2304975783402361
0.17391984194121177 -0.362628623327096 0.23323393454519856
0.17354050276891922 -0.3682200447291448 0.2359515799597557
0.17317513299810053 -0.37367716772852455 0.23865875198191594
0.17287343789602821 -0.3788361789633233 0.24131676895974696
0.17266922247620484 -0.3835340250645644 0.24384680969995087
LINES 1 120
119 0 1 2 3 4 5 6 7 8 9 10 11 12 13 14 15 16 17 18 19 20 21 22 23 24 25 26 27 28 29 30 31 32 33 34 35 36 37 38 39 40 41 42 43 44 45 46 47 48 49 50 51 52 53 54 55 56 57 58 59 60 61 62 63 64 65 66 67 68 69 70 71 72 73 74 75 76 77 78 79 80 81 82 83 84 85 86 87 88 89 90 91 92 93 94 95 96 97 98 99 100 101 102 103 104 105 106 107 108 109 110 111 112 113 114 115 116 117 118
POINT_DATA 119
SCALARS Curvature float
LOOKUP_TABLE default
-0.002520480985145157
-0.0030072381054679887
0.004978662262005673
0.02234258418675545
0.04887826030462796
0.08315135641393782
0.12254766092201685
0.16349240773027043
0.20182371092810159
0.2332806801363383
0.2540486170995787
0.26129242078672554
0.2536067627741757
0.23131844008762895
0.19659203570549916
0.1533128844708401
0.10674861890596199
0.06301885345913028
0.02842822002513105
0.00873759196067431
0.00845921538976928
0.03026194916850492
0.0745625371089251
0.13935880511825827
0.2203331645094614
0.31122308047928765
0.4044230965337573
0.4917545677332672
0.5653180311645708
0.6183318610625756
0.6458610398545298
0.6453516332850797
0.6169085568743787
0.5632838495948967
0.4895763553959259
0.4026773643736795
0.31052628844372127
0.22126225492600568
0.14236896621509887
0.07990995004780327
0.03793951720244477
0.018152885753646417
0.01980978657742563
0.03993307156591012
0.07375145337770303
0.1153274628032757
0.1582913717515762
0.19659154275154297
0.225172486164413
0.24050348672599273
0.24090131685920071
0.22661749919533353
0.19969030027610157
0.16359034874780617
0.12271291064170865
0.08178652679689556
0.04527505321735464
0.01684751574923252
-0.0010217393474330095
-0.0072795069010656395
-0.00232780480310994
0.012127880319457019
0.03338603418482243
0.05816342192551967
0.08305596882471901
0.10498289414129643
0.12155627813582555
0.13133121982364537
0.1339101785269711
0.12989629793145493
0.12071150955908046
0.10831314662376171
0.09485531776747679
0.08234685447551907
0.07235571981062869
0.0658008644319803
0.06285810832819812
0.06298891185372997
0.06508248312070285
0.06768519122889936
0.06927902198799153
0.06856447881235969
0.06470367834251281
0.05748623303788682
0.04739274159687751
0.03554645938846833
0.023560654015322105
0.01330478612471214
0.006624729880952461
0.0050590360090910095
0.00959379720705025
0.02049296343168251
0.03722984258040555
0.05853065660528506
0.08252458658553131
0.10697913554033622
0.12958714143754854
0.14826420774036372
0.16141379142654172
0.16812192899126607
0.1682539089884975
0.16243961971761559
0.15195071529074042
0.1384887532894389
0.12391670653314754
0.10997476836790668
0.09802385623984182
0.08885624012588603
0.08260278770671772
0.07875181129379005
0.07627749585264572
0.07385885624338537
0.07015563768047271
0.06409774566775946
0.05514124221859741
0.0434473698526351
0.02995116485328447
0.016301723437180383
0.004675000070091512
