# vtk DataFile Version 2.0
Vessel Segment
ASCII
DATASET POLYDATA
POINTS 119 float
-0.003255938127878287 -0.00628296309604423 -0.0005722484842263043
-0.007187224535967208 -0.012733676637871418 -0.00048665249182873043
-0.011614933020925833 -0.019072126941504314 9.988527593448741e-05
-0.016346521918576027 -0.025118895304823786 0.0009934069854161775
-0.02122646300072129 -0.030814903836262446 0.001975843962031538
-0.026119514503610865 -0.0361433431036872 0.002814698072425108
-0.030897457602322556 -0.041097996187495794 0.0032838726198992497
-0.03543368660606494 -0.04567308962936702 0.0031871579619581654
-0.03961754928577705 -0.0498669748630958 0.0023915329095302454
-0.04338857306417168 -0.05370810042698432 0.0008443459715345744
-0.0467515311739712 -0.05728334666691909 -0.0014735491854492916
-0.049727251588167674 -0.060705942436719396 -0.004607362038488881
-0.052290314956880406 -0.06405833613886998 -0.008589346944117844
-0.054368657961417655 -0.06738517512452649 -0.013338198798507644
-0.055911801871940336 -0.07072548102474153 -0.018663045402002327
-0.05689662010282156 -0.07410766163579684 -0.02436436390187633
-0.057315951806869214 -0.07753407842163317 -0.030253891200328252
-0.05718257430240348 -0.0810015276803975 -0.036197368314413635
-0.05650767657726093 -0.08450616273513037 -0.042114089215875436
-0.055304379425481366 -0.08805000177297108 -0.047940157025990256
-0.05359530216995724 -0.0916446798795473 -0.05362708050831293
-0.05141942173496141 -0.0952979772906652 -0.05912542194952066
-0.048845980662892204 -0.09900940219063344 -0.06436448718556045
-0.045980803425458135 -0.10276561619481347 -0.06923381992601141
-0.042977583693309764 -0.1065186372341246 -0.073569657715573
-0.0400394494669721 -0.1101625128710863 -0.07718785344553941
-0.03737038007585494 -0.11356502637476479 -0.0799778750383634
-0.035110293318786484 -0.11664448001781863 -0.08196081774823878
-0.033287910696242345 -0.11938631432550045 -0.08325947708659866
-0.031862353999851836 -0.12180981589151632 -0.08400802025446186
-0.03076894942976972 -0.12396861411343431 -0.08430639892970473
-0.029956175211434857 -0.12590683654055562 -0.08418918627410907
-0.029390572566187493 -0.1276418081983843 -0.0836508241643373
-0.029053609938533665 -0.1291789419889079 -0.08268257327016244
-0.02892692117417271 -0.13052459625285726 -0.08127683417790608
-0.029002646489815338 -0.13167169196088357 -0.07939477119528746
-0.02929951348487479 -0.1325802451666741 -0.07696107586378219
-0.029864540289094993 -0.1331664177009427 -0.07388180417342023
-0.03075572863016102 -0.13330690214739543 -0.0700828418403697
-0.03201330851014853 -0.13286985718411176 -0.06559089382004586
-0.03358785612617162 -0.1318131201263024 -0.060625542187261655
-0.03535925097983047 -0.13023013954313234 -0.055431659258744534
-0.03720946937260508 -0.12827405000214126 -0.05018469203608398
-0.03903310809396486 -0.12611987728774154 -0.044998244178773426
-0.04073982016775578 -0.12394778522801718 -0.03993044232316295
-0.04225658729831453 -0.12192913257055463 -0.03499552994947833
-0.043524284476608444 -0.12021935652668969 -0.030183630711962686
-0.04449697697705867 -0.11895577956951522 -0.025495704057592633
-0.04515960940347876 -0.11822925735868525 -0.020975611339282083
-0.04553428298487429 -0.11805648801721248 -0.016673297791036233
-0.04565655437912448 -0.11840778023640265 -0.012604542804431516
-0.04555927316888096 -0.11925257163922878 -0.008758749453845645
-0.04526824063532389 -0.12057360764562829 -0.005122119085988053
-0.044802304556455105 -0.1223623147673039 -0.0016837489275878127
-0.044174351454873605 -0.12461662001141884 0.0015735531396052285
-0.04339052124595701 -0.12734499520211756 0.004677681653699917
-0.042451005231727686 -0.13056643393266032 0.007655944599683273
-0.04135631881622684 -0.13429596908707286 0.010514658982512722
-0.040117164685535354 -0.13852611797791556 0.01321900792341153
-0.03876579060429804 -0.14321371565510943 0.015689158022580994
-0.03735685626808506 -0.14827921974634095 0.01783674680836974
-0.035932739500847494 -0.15363382526051914 0.019619051360185054
-0.03450416812314732 -0.15919313798827053 0.021035858178017813
-0.03305872652499988 -0.1648656903602248 0.02212228591015283
-0.03156897834166772 -0.1705543621939139 0.022945799333949395
-0.03000631477217796 -0.1761688030233822 0.023594258708930196
-0.028349662048607144 -0.181632601444175 0.024165351121614644
-0.026585920983890628 -0.18688838961069323 0.024757532770828556
-0.024708274120712293 -0.19189651856477996 0.02546184544988317
-0.022713726898890507 -0.19663513150707915 0.02635537581797377
-0.02059835759256362 -0.2011034986142401 0.027498876218393697
-0.018351948995355086 -0.20531945657592782 0.02893963364084958
-0.01595383642837559 -0.20931334772790924 0.030713710210553476
-0.013375021860767878 -0.2131140811650254 0.032842985627249036
-0.010587577751775053 -0.21673874876750684 0.03532685526599126
-0.007572530348099138 -0.22019734960045592 0.038135731651863375
-0.004316849353715707 -0.22349823053883805 0.04121611088407231
-0.0008068942200124434 -0.22664668116521677 0.04450242002561794
0.002973922620510626 -0.2296405188067726 0.04792529614716443
0.0070482659898674005 -0.23247250520855398 0.051419743867883574
0.011446912123223055 -0.23513211421895808 0.05493611718503712
0.016205381127946047 -0.23760377419659084 0.05844742182342248
0.02135401458668345 -0.23986277471571826 0.06195106208221974
0.026904743547821054 -0.24187532708751766 0.06546431545987846
0.03283618253387399 -0.243602909126075 0.06901627983849058
0.039082647760350274 -0.2450157459718158 0.07263693688688111
0.04553332262166632 -0.24611177782232369 0.07634628891337844
0.052048626341973166 -0.2469300620010862 0.08014648857222044
0.058484915995805256 -0.2475504532854725 0.08402027023831567
0.06471335488040444 -0.24807694282182857 0.08793557903732593
0.0706287488456949 -0.24861863492749467 0.09185080638472592
0.07615141788435113 -0.24926429976019004 0.09572046585635166
0.08123084984575532 -0.25006682482058984 0.09949979797453451
0.08585012037668421 -0.2510357490448932 0.10314923074347356
0.090028556552095 -0.2521464761184367 0.10664153418427652
0.09381058281931871 -0.2533589429849382 0.10996495970243673
0.0972514494780788 -0.2546329446130812 0.11312171968449888
0.10040659921146868 -0.25593799326090133 0.11612495116575222
0.10332792944940265 -0.25725831379529657 0.11899814915233858
0.10606054543243322 -0.25859364026478504 0.12177248532970433
0.1086429304221246 -0.25995808492438083 0.12448451882142164
0.11110455756560247 -0.2613774009735889 0.12716952773238202
0.11346376382402572 -0.2628841645435057 0.12985297893935718
0.11573023320425721 -0.26451471528865034 0.1325443801617055
0.11790913698724725 -0.2663057997188653 0.13523686489582404
0.12000428712091375 -0.26829598115062203 0.1379138120431458
0.12201454534855301 -0.2705262415328161 0.1405556803194333
0.12392787615642474 -0.27304176267897823 0.1431447235556648
0.12571573661236826 -0.27588901626017764 0.14566679865894616
0.1273341797864937 -0.27910974522436743 0.1481100819408367
0.12873479210002342 -0.28273476841628686 0.15046495089772188
0.12987964143929018 -0.2867824211559932 0.152729017723398
0.1307477603701285 -0.29125449465744213 0.15491206774963867
0.13133992904262157 -0.29612105675975203 0.1570344398247052
0.13168271885689287 -0.30130523785419294 0.1591232842645368
0.13183004733262707 -0.3066778848884219 0.16121019339430828
0.13185168965245286 -0.31205537465014793 0.16332559193551566
0.13181641299263958 -0.3172110480646406 0.1654802617943905
0.1317777346694308 -0.3219441491023306 0.16765503581951413
LINES 1 120
119 0 1 2 3 4 5 6 7 8 9 10 11 12 13 14 15 16 17 18 19 20 21 22 23 24 25 26 27 28 29 30 31 32 33 34 35 36 37 38 39 40 41 42 43 44 45 46 47 48 49 50 51 52 53 54 55 56 57 58 59 60 61 62 63 64 65 66 67 68 69 70 71 72 73 74 75 76 77 78 79 80 81 82 83 84 85 86 87 88 89 90 91 92 93 94 95 96 97 98 99 100 101 102 103 104 105 106 107 108 109 110 111 112 113 114 115 116 117 118
POINT_DATA 119
SCALARS Curvature float
LOOKUP_TABLE default
0.031115776840855237
0.02967240261399631
0.03656640043380145
0.05231099484845791
0.07651484754019616
0.107800137948502
0.14383538314399735
0.1814928921822239
0.21712511094062548
0.24693781091357242
0.26742326980374925
0.2758053822069377
0.2704427750229669
0.25113663020925836
0.2192973939805546
0.177938356890796
0.13148285237442875
0.0853934585477171
0.04565354089192535
0.018151017877795498
0.008028820573401827
0.019074112570599187
0.053217686756959315
0.11020578244513521
0.1874896337261213
0.2803551112197592
0.3822883911081742
0.4855467150206398
0.5818791689837592
0.6633239383759719
0.7229980053238707
0.7557941540012971
0.7589087503787945
0.7321412265832864
0.6779306198400944
0.6011231363324774
0.5084942501896541
0.40807589186263127
0.3083606889343207
0.21746851102804493
0.14236420859261967
0.08820903137534447
0.0579125589658132
0.05192895087013808
0.0683136598111279
0.10302770312900339
0.15044953339537925
0.20403259016849404
0.25703220039306784
0.30322014077720405
0.33750929477751046
0.3564237100329276
0.3583692454228204
0.34368435448978246
0.31447638066608463
0.27427294501136446
0.22753778182438542
0.17911353638323152
0.1336592686438166
0.09514740012566832
0.06647430457903698
0.04922227534765735
0.043590467170490525
0.04849123091438925
0.06178867925392145
0.08064067010161645
0.10189540963303362
0.12249050557968179
0.1398056139214034
0.15192903784251935
0.1578122622213942
0.1573024543652684
0.15105923397331258
0.14037639702141028
0.12694000974475075
0.11256018136628639
0.09891439068922099
0.08733572912109727
0.07867074472756094
0.07322015446225273
0.07076325578386358
0.07065518200029851
0.0719767772492106
0.07371098074779678
0.07491782093038982
0.07488243403162778
0.07321636184424542
0.069900698742633
0.06526909455227099
0.05993772858527801
0.054696821781714575
0.05038302805674304
0.047753569496634056
0.047381195140217366
0.04958439724401316
0.05440068026273822
0.06160318956701138
0.07075390433065551
0.08128101584090629
0.09256490696176743
0.10401677411124352
0.11513637339526146
0.12554014902951216
0.13495725424662836
0.14319759888275507
0.15010188448689157
0.1554875708454714
0.15910610517642124
0.16062520625421817
0.15964568444270175
0.15575582246777714
0.14861875582512052
0.1380808300020479
0.12428287655059668
0.10775288738111016
0.0894584774181424
0.07080112268992088
0.05354119331255556
0.03965246119428963
