# vtk DataFile Version 2.0
Vessel Segment
ASCII
DATASET POLYDATA
POINTS 119 float
-0.0032323283820710463 -0.004588240754902048 0.0010644483844049302
-0.007117201913798695 -0.009820429733846205 0.00245114945695454
-0.011497552314207134 -0.015504503498131277 0.004041701733592261
-0.016184499182825506 -0.02139730793892538 0.005653680555218048
-0.02100937678432946 -0.027270150119296725 0.0071340475310783516
-0.025857087228070674 -0.03298570033854048 0.008372550753781198
-0.03064596007800602 -0.03847515495052929 0.009261539694188234
-0.03530331494342201 -0.043703520408358364 0.009684462675064382
-0.03975546756565611 -0.04865665077200907 0.009530441779499538
-0.043936372140996556 -0.05334863392198453 0.008720264137560798
-0.04779726208789011 -0.057829560844136166 0.007210818592994797
-0.05129924125306945 -0.06217502412457921 0.004986815090592215
-0.054399101796085245 -0.06646949887430936 0.0020544684004149953
-0.05703977459109147 -0.07079255469324477 -0.001550398208379484
-0.059141195335092586 -0.07520383267011424 -0.0057454959282897435
-0.060656736547230694 -0.07974871220609124 -0.010382969389265286
-0.06157531953580897 -0.08447094731509776 -0.01535169015144634
-0.06187343953172607 -0.0893685322307539 -0.020553074153871524
-0.061543530235097975 -0.09441314988249488 -0.025892984692840595
-0.06059935234662448 -0.09957176608534943 -0.031293735776451156
-0.05907148242164047 -0.10482269439209896 -0.03669475416169189
-0.05700384304486407 -0.11015178885837043 -0.04203144441835183
-0.05446598177257509 -0.11553853156067129 -0.04720526760186982
-0.051566377767414524 -0.12094027188529864 -0.05207387650968456
-0.04844930160611381 -0.12628245382717884 -0.05646913942118885
-0.045272580733036034 -0.13146804990082278 -0.060232237847042236
-0.04218505218607339 -0.13640185524198148 -0.06323175130257544
-0.03932301222152082 -0.1409891718444459 -0.06534352286641659
-0.03683055420246288 -0.14509837696943365 -0.06644751313310729
-0.034825424605096904 -0.14857131124056616 -0.06652504061544515
-0.0333194986885015 -0.15134024905352883 -0.06570134491512829
-0.03221629695328429 -0.15348836437703278 -0.0641401681265713
-0.031411570980925625 -0.1551600383924893 -0.06187034511836167
-0.030854042491089622 -0.15641209805617823 -0.05883414824436434
-0.030525901011563182 -0.15724858587489834 -0.05499641444441347
-0.030424812671075344 -0.1576757421890318 -0.05037541602832669
-0.030549858395277935 -0.1577226372082293 -0.045062766181240346
-0.030883648934977425 -0.1574501656813906 -0.039237175085511854
-0.03137992238975794 -0.1569625673393577 -0.033160670588420704
-0.03196095633138284 -0.15641235095048103 -0.027086965154289204
-0.03255679696568095 -0.15595295745073004 -0.021122241618360644
-0.033118123277333496 -0.15570500580831662 -0.015278814785944068
-0.033601626028348625 -0.15577122696480353 -0.009532894053552851
-0.03397192649051957 -0.15624135936863137 -0.0038426446718472637
-0.03420164910159524 -0.15719623749422998 0.0018347888902412552
-0.03427120377060192 -0.15871008083291968 0.007530778517634722
-0.03417291801747903 -0.1608530447133896 0.01325457621696631
-0.03391467360756798 -0.16368931744057513 0.01898914471594928
-0.033514535808426324 -0.16728016917207103 0.024695588952756305
-0.03299529426458436 -0.17166942388881568 0.03030263639168207
-0.032385580910968735 -0.17685112566599173 0.035714609556976626
-0.03171937595670676 -0.1827697856564582 0.040849976254105275
-0.031029100165295947 -0.18934838797135142 0.045658237223437675
-0.03033909475746472 -0.19649932576789275 0.0501149297878904
-0.02966013853235695 -0.204126395220498 0.05421976769173186
-0.02898660340616492 -0.21211993988828018 0.05799528113184687
-0.02829648338179056 -0.2203514606324693 0.061485039817634854
-0.027555195224672736 -0.22867929955613034 0.06475490129478295
-0.02671946827581477 -0.2369675128627639 0.06789047704985461
-0.025737653395001434 -0.2451104734124485 0.07099058139874379
-0.024547982637896128 -0.2530502039450656 0.07415084346030688
-0.023087343772330248 -0.2607667960364456 0.07743989135209618
-0.021297963144771406 -0.26825487877224485 0.08089490800267074
-0.019128581853010432 -0.2755080048570028 0.08452344305018795
-0.01653954140489801 -0.2825109364844065 0.08830866127770519
-0.013505613650561694 -0.28923544088151687 0.09221796222079436
-0.010016217373921978 -0.29563973917089753 0.09620834227534827
-0.006074649712320042 -0.30167319359737166 0.10023256142495789
-0.0016941445183015274 -0.30728714893568815 0.10424716238659296
0.003109530044272291 -0.3124444806182305 0.10821979597540385
0.00832133371179233 -0.31711736213174474 0.1121318425890773
0.01392526239522925 -0.3212865793227045 0.11597898162385935
0.019901727477655617 -0.324941494948138 0.1197715509914976
0.026225470596869537 -0.32807877438935756 0.12353564138893573
0.03286414844557317 -0.3307001543990362 0.1273108648520395
0.039776553616035284 -0.33281074808426764 0.13114246367480667
0.04691400668761454 -0.33441961250390234 0.13507261398725692
0.054223912403333976 -0.33554089947462057 0.1391313076076618
0.06165496674003938 -0.33619740064952247 0.14333201136739684
0.0691609566587312 -0.3364213213596547 0.14767136479679743
0.07670225245601751 -0.3362566272517278 0.15213274800730842
0.08424303331854799 -0.3357559387880171 0.15669345049131178
0.0917480542353237 -0.334978960205516 0.16132562525278102
0.09918208572969947 -0.33399024883051176 0.16600040497762936
0.10651248022515761 -0.3328587178331323 0.17069292720121115
0.11371259413594786 -0.3316527129163827 0.17538635327042285
0.12076527123329835 -0.33043412390837634 0.18007508635641614
0.12766074481764753 -0.3292537851617933 0.184761142838574
0.13439057628465972 -0.32815085502737806 0.18944728311151737
0.1409443478894199 -0.327156544575423 0.1941328157703397
0.14731079341013398 -0.3262997042159728 0.19881090092009754
0.15348062390903325 -0.32561217848704566 0.20347047979582839
0.15944550513096709 -0.32513269992035215 0.20809887720257197
0.16519723519685608 -0.3249094691853871 0.21268221985660324
0.17072695812900013 -0.32499761076488953 0.21721085637133813
0.17602579942957564 -0.32545481342034355 0.22167960590543917
0.18108435466420622 -0.3263393817136847 0.2260882328561825
0.18589283681602525 -0.327707295896904 0.23044075691009297
0.19043713864408351 -0.329610076251558 0.23474246154318149
0.19469603236875874 -0.33209086554212575 0.23900043096285692
0.1986353220551154 -0.33517788679605554 0.24322111227656876
0.20220439268670676 -0.33887732006535726 0.24740939014075516
0.20534050936654466 -0.34316775555128143 0.25156404956905065
0.20798158396125166 -0.34799747333363573 0.2556767873467262
0.21008674028048893 -0.3532982952505799 0.2597376154420025
0.21164135956191052 -0.3590019563289765 0.2637422256968744
0.21265296395988736 -0.36504635380123174 0.26769051490610074
0.2131489993829869 -0.3713672206416413 0.27157849377330195
0.21318195450088148 -0.37788777767314685 0.27539399664160824
0.21283231985302842 -0.38451426140609934 0.2791205723378106
0.2122027494980474 -0.39114298386358526 0.28274170438968205
0.21140147186440938 -0.39767443892837706 0.2862479462505499
0.21052603164333006 -0.40403405120964175 0.2896385901124175
0.2096493401377759 -0.41019051578078697 0.29292709655781646
0.2088189593891916 -0.41615170302263715 0.29614237406787514
0.20807050033802632 -0.4219254156985612 0.29931413999444434
0.20743879370553334 -0.42746380502714465 0.3024391275165489
0.20695631753496616 -0.4326452420567065 0.30544686179075387
0.20664151272214742 -0.4373309778991617 0.30821929154010197
LINES 1 120
119 0 1 2 3 4 5 6 7 8 9 10 11 12 13 14 15 16 17 18 19 20 21 22 23 24 25 26 27 28 29 30 31 32 33 34 35 36 37 38 39 40 41 42 43 44 45 46 47 48 49 50 51 52 53 54 55 56 57 58 59 60 61 62 63 64 65 66 67 68 69 70 71 72 73 74 75 76 77 78 79 80 81 82 83 84 85 86 87 88 89 90 91 92 93 94 95 96 97 98 99 100 101 102 103 104 105 106 107 108 109 110 111 112 113 114 115 116 117 118
POINT_DATA 119
SCALARS Curvature float
LOOKUP_TABLE default
-0.01216534656424985
-0.01241374714499066
-0.004235514919318634
0.013160158073081922
0.03941517253200987
0.07294528125919962
0.1110326065021101
0.1500860304066496
0.18604406467160053
0.21487381469394207
0.23310413485646286
0.23832331784532382
0.22957297808167557
0.20758029848693133
0.1747894039321089
0.13517709003266482
0.09386542297633686
0.05657033709641301
0.028947799584005705
0.015914359556800685
0.021024797265552685
0.04598515384359754
0.09036498600184598
0.15154988235248523
0.2249468310788558
0.30442444021829995
0.38294110331825165
0.4532906315875724
0.5088796599312035
0.5444462705393672
0.5566354641711622
0.5443636560761564
0.5089292811791022
0.4538568018378312
0.3844931870992296
0.3074053402138754
0.22965035565363487
0.15800501295240746
0.09824481120018558
0.054555706264521095
0.029144512370071547
0.022088906081878617
0.03143832286930586
0.05354651203062971
0.08358892957156153
0.11619689573600712
0.1461280713775319
0.16889069935452589
0.1812472730076402
0.1815405791916539
0.16980903087844818
0.14768565852775353
0.11810249197811883
0.08484584349615894
0.05202524279376533
0.02352743204536756
0.0025260185985428833
-0.008892526979463234
-0.00994330249684826
-0.0011771262360598092
0.015661833091778182
0.03792805764043279
0.0624706469983785
0.08607553822722835
0.10589236470092538
0.1197888670029799
0.12658787479610983
0.12615970671019344
0.11936379969104771
0.10785452801044809
0.0937845961481552
0.07945261845545463
0.06694782934646072
0.05784358550291835
0.05298277905540402
0.05238383185705061
0.0552777372318167
0.06026729528293775
0.06558200255157336
0.06938848678518192
0.07010878948780118
0.06669819265886301
0.058840664767138326
0.047032380927350126
0.03254033067793365
0.01724136522960823
0.003364522255106896
-0.006826393762648075
-0.01136420911363333
-0.008875789239466652
0.0011978251822394174
0.018490949879557045
0.041729320238511135
0.06887159063444044
0.09735734518444436
0.12442753490004055
0.14747292462968736
0.16436210642491333
0.17370349677482666
0.17500508909384382
0.1687102619325263
0.15610558994438933
0.1391148600051068
0.1200097527078073
0.10107957448515563
0.08430828612016407
0.0711059906426503
0.062134122639199846
0.05724990395989663
0.05557811239083857
0.05569933432661854
0.05592634783129365
0.05462665957319803
0.05054152851038457
0.04305126668131075
0.032343430134555325
0.019453872911144046
0.006168760154251229
-0.005203964061189373
