# vtk DataFile Version 2.0
Vessel Segment
ASCII
DATASET POLYDATA
POINTS 119 float
-0.0032721929381427477 -0.004243962386368643 0.001474403056472201
-0.007174993059021265 -0.00920682672718162 0.0032020099093908096
-0.011559419061012691 -0.014739281330589559 0.005064289380875176
-0.016241605176395488 -0.020599440794737738 0.0068745864851491294
-0.02105451334277789 -0.026525264068039414 0.008493891463766506
-0.025891907796495993 -0.03235214296614289 0.009845027686693411
-0.030686505598496117 -0.03799641589873956 0.010853674743857218
-0.03538229702320163 -0.043417007046598344 0.011426669853532282
-0.039918991384388605 -0.04859908541453132 0.011460276663670667
-0.04423226945102279 -0.05355531893479966 0.010866106751028351
-0.04825895316202236 -0.05832552146926514 0.009588253131532007
-0.051940765797502744 -0.06297249466395198 0.007611288579793251
-0.055224767590036576 -0.06757825204380341 0.004945709514815728
-0.05805237980054745 -0.0722283379182968 0.0016162522816366488
-0.06033116993038951 -0.07698419018479559 -0.0023158850017928
-0.06200877582064302 -0.0818972443353589 -0.00671076265811958
-0.06307522012097146 -0.08702665916323232 -0.011473463542518865
-0.06349774167232647 -0.09237217208413182 -0.016512958299573898
-0.06326383903568226 -0.09789865116103624 -0.021731508878835133
-0.06238800299444627 -0.10356200516417438 -0.027047580792887438
-0.060904039990657584 -0.10932951975981438 -0.03239726270364358
-0.05885832789009401 -0.11517989741760841 -0.03771215492564384
-0.056321278362304016 -0.12108647056970015 -0.04288649570276676
-0.053402816076941695 -0.12699759990883575 -0.04776921618642449
-0.050245471909162204 -0.13283068877863677 -0.0521906563012828
-0.04699468465497724 -0.13849238187150795 -0.05599903825522005
-0.043781749310187475 -0.14390085739062805 -0.05905773335050602
-0.040737355477293874 -0.14895936484636377 -0.06120016838755296
-0.03803530261620022 -0.15350248318529688 -0.062231648665796405
-0.03583791147878571 -0.1573237300770382 -0.062083772555649154
-0.03417608460248432 -0.1603298769213117 -0.06087604258585865
-0.03294299872269964 -0.16260882108511868 -0.05877646239740108
-0.03202733699004506 -0.16430246781634752 -0.05580026173446313
-0.03137545723005784 -0.1654486018928675 -0.05189725491494176
-0.03096513802471666 -0.16605305608322277 -0.04706564160857029
-0.030789499308158115 -0.16615247535961866 -0.04137791812207902
-0.030837405453486056 -0.16583080674034487 -0.03500615185921163
-0.031070727451549873 -0.16522273495208786 -0.028229932273969333
-0.03141762615186167 -0.1645144473621262 -0.021410124651530325
-0.0317784040664476 -0.1639285910477261 -0.014835285966010454
-0.0320877135043667 -0.16364334485333173 -0.00852758082165593
-0.03231710199653952 -0.16376836363481254 -0.0023942090980574628
-0.03243680751261449 -0.1643975868263362 0.003671642892920179
-0.0324177288168707 -0.16562470981959365 0.009772197487903946
-0.032234293375590445 -0.16754435256498526 0.015980852328130464
-0.031868444915836375 -0.1702440600402969 0.022324927412255672
-0.031321349093443425 -0.17379437344257176 0.028777418017426448
-0.030621269407887584 -0.17823884018526914 0.03526884858087569
-0.029807971133231893 -0.18361466332999957 0.04172167302029647
-0.02891899597322049 -0.18995148352831126 0.04803748830083868
-0.027995613468601944 -0.19722057828465078 0.05408982183803321
-0.027084669160220204 -0.2053219711654734 0.0597706437203514
-0.026228679131756916 -0.2141248765695743 0.06501863690416511
-0.025456616698030777 -0.2234891360117731 0.06981303516436
-0.024776513532217704 -0.23326990190709657 0.0741652923171788
-0.024172855778229592 -0.24330742155238422 0.0781127560184809
-0.02360782662991656 -0.25341748086274196 0.08171823245931002
-0.02302645042768724 -0.2634048541033267 0.08507730040750172
-0.02236109481929473 -0.2730964739241349 0.08832009072500813
-0.02152996914022973 -0.28238025241340015 0.09160317488689283
-0.02043409008876723 -0.2912296608014319 0.09507901210502255
-0.01897696027674706 -0.29967817048362 0.09885301574308171
-0.017076326620114688 -0.30777498269478676 0.10298135923602336
-0.014662141158237977 -0.31556021475853735 0.10747328426184216
-0.011682829186164815 -0.32304969116303617 0.11229367757136487
-0.008107782566593594 -0.3302271930773542 0.1173739041451958
-0.003927293028891315 -0.3370465724326586 0.12262062738252633
0.0008477997981836821 -0.34344192863188805 0.12792801339992022
0.0061919292542820135 -0.34934684515529374 0.13319455912364975
0.012076543523278787 -0.3547100123850175 0.13833900317428854
0.01847567689909799 -0.3594924404495117 0.14330727299868887
0.025363028957435592 -0.3636660801106791 0.1480733711710965
0.03270654617338195 -0.3672132101128889 0.15263924081300886
0.040464728571069385 -0.37012605735286375 0.1570365217002589
0.048586280874953244 -0.37240471511296114 0.16132448504573396
0.057009444481509707 -0.3740529295470054 0.16557949302710612
0.0656617973647333 -0.37507830822324356 0.169879819962167
0.0744628059583254 -0.37549632010545403 0.17428883623077618
0.0833311111263749 -0.37533781517304454 0.17884670005991624
0.09219009563052047 -0.374650269112462 0.18356826273073742
0.10097008566796738 -0.37350102582880074 0.1884448110075376
0.10960684955023105 -0.37197324649734265 0.1934515433723213
0.11804128184447736 -0.370163595247358 0.19854806880026124
0.12622326020221625 -0.3681765171793715 0.20368574621561253
0.13411897220989422 -0.3661193389790955 0.20881787248767625
0.14171798877772665 -0.3640896361032066 0.21391017685730507
0.1490369075768418 -0.36216216275691476 0.21894958137818246
0.1561105032012314 -0.3603821578693002 0.22394140305185994
0.16297593359342144 -0.3587684039378302 0.22889928416491712
0.16966265387696458 -0.35732473045167734 0.23383668398796395
0.1761916621776942 -0.3560524815535218 0.2387611266308004
0.18257865350807762 -0.35496394571741696 0.2436746997897833
0.18883157436331427 -0.35409175438717805 0.2485760460045671
0.19494718200764152 -0.35349523231567864 0.2534592011090791
0.2009082020463871 -0.3532551929547224 0.25831848832038684
0.2066877777198533 -0.35346235868267717 0.2631486217211502
0.21225470273504277 -0.3542093004188767 0.2679470743619989
0.21757889146715947 -0.3555833279895626 0.2727155916118348
0.2226280095487626 -0.35766315793488407 0.27745704921318703
0.2273637933310621 -0.36051465521538867 0.282176471249614
0.23173171776325904 -0.36418240698326326 0.2868767636149336
0.23565471742295607 -0.368678786455475 0.2915577496799356
0.2390385961349382 -0.37397464777600137 0.2962118161673987
0.24178904787716113 -0.37999327191675353 0.30082448854518146
0.2438402090389654 -0.38662922041470515 0.3053825042558053
0.24516300676524297 -0.3937704470207849 0.3098824794779457
0.2457632957911904 -0.40130762231837724 0.3143272634576055
0.2456834554001851 -0.40912222669233295 0.31871326209549555
0.24501310585722372 -0.41707464181967147 0.3230236578247035
0.2438916383735868 -0.4250043548403817 0.3272346697818608
0.24249124930599963 -0.43274903907147244 0.33132270321990126
0.24098224954672856 -0.44017004618795263 0.33527322287004313
0.2395042717468016 -0.44718121279683576 0.33908080539621266
0.23814586816050412 -0.453771617722295 0.3427569995219715
0.23694792229064882 -0.4599946802393 0.3463334351739506
0.2359281820594055 -0.46591143116524064 0.3498427285202291
0.2351032281887289 -0.4715183085909296 0.3532746740638079
0.23449101739062464 -0.4767236807755682 0.35653655343151713
0.23409786968300053 -0.4814056044639507 0.35948279759831364
LINES 1 120
119 0 1 2 3 4 5 6 7 8 9 10 11 12 13 14 15 16 17 18 19 20 21 22 23 24 25 26 27 28 29 30 31 32 33 34 35 36 37 38 39 40 41 42 43 44 45 46 47 48 49 50 51 52 53 54 55 56 57 58 59 60 61 62 63 64 65 66 67 68 69 70 71 72 73 74 75 76 77 78 79 80 81 82 83 84 85 86 87 88 89 90 91 92 93 94 95 96 97 98 99 100 101 102 103 104 105 106 107 108 109 110 111 112 113 114 115 116 117 118
POINT_DATA 119
SCALARS Curvature float
LOOKUP_TABLE default
-0.007730690536888402
-0.008927005974198716
-0.002103995607033555
0.013474183315765985
0.037429194511576544
0.06821400878884076
0.10322157624824925
0.1390507057983431
0.17190107926187229
0.19805029519362882
0.21435254929104747
0.21869298110726315
0.21033482325185618
0.1901081072939234
0.16040749474547553
0.12499050766058124
0.08859302781016623
0.056403099471435604
0.0334536129868721
0.024006713640393668
0.0310060245914926
0.05566639029544443
0.09725547490469309
0.1530989988376497
0.21881442825482114
0.2887499127470426
0.35657973610668997
0.4159877612266737
0.46135886539052223
0.4883966899025541
0.494594441733587
0.4795029773018251
0.4447648060963422
0.39391092929856386
0.33194603784936305
0.2647729577191679
0.1985261878068288
0.1388945899133747
0.0905135408640592
0.05649719399702533
0.038163227371799516
0.03497796691112794
0.044722219263512136
0.06385104252778188
0.08799743600162148
0.11255341961479387
0.13325417586240462
0.14669267319018506
0.15070307340736866
0.14456967159659276
0.12904160182467167
0.1061589359988744
0.07891978703049796
0.050837528064915274
0.025449828275310338
0.0058454060044284386
-0.005730134773938974
-0.008140479180238747
-0.0014664296736449953
0.013052940159276424
0.03323163561603785
0.056266468325576934
0.07913623063052146
0.09901359721666307
0.11363314125397479
0.12156665307951983
0.12237120434785374
0.11659401808269272
0.10563853992720786
0.09151532803408285
0.07651686245358251
0.06286505343242021
0.05238287016620417
0.04623687735270935
0.0447863274490838
0.04755847425822113
0.053351261304666546
0.06044613211084142
0.06689799847335966
0.07085857150463783
0.07088478795876628
0.06618652605981226
0.05677679828992969
0.04350181709545357
0.027945712946868703
0.012222767694789296
-0.0013137516825456794
-0.010405002273053672
-0.013214837608842919
-0.008606059805885755
0.00367509185496348
0.022933184958504462
0.04758693186925127
0.07535388014491551
0.10353166525148086
0.12933744211315923
0.1502588924000461
0.1643685236994559
0.17055808283259943
0.16866109283594347
0.15944722876180617
0.14449026838428328
0.1259291536150922
0.10615676161731268
0.08748117025820049
0.07180804648226234
0.06038971051708359
0.05367682875455839
0.05129388335316522
0.05214162304672694
0.05461114575631506
0.05687773950930049
0.05723049616247751
0.054387799850662256
0.04775001372471003
0.03754898498330228
0.02486830091482639
0.011526633969666992
-0.00016352125724187138
