# vtk DataFile Version 2.0
Vessel Segment
ASCII
DATASET POLYDATA
POINTS 119 float
-0.0032524095816514015 -0.006220681426107625 -0.0005167145577436447
-0.00718007846163779 -0.012628689348067202 -0.0003892857162455073
-0.011604987680622604 -0.018944895947705306 0.0002282904333838901
-0.016334591184313275 -0.02498618519628554 0.0011435023521027116
-0.021212592446131502 -0.03068715298549444 0.002140798812161183
-0.02610407882580796 -0.036026846560396605 0.00299148042057173
-0.030882093293478297 -0.0409969671589477 0.0034729758136834684
-0.03542149365481768 -0.04559070239598665 0.0033913783587217364
-0.03961246915096106 -0.049805811836961165 0.0026143106116238595
-0.043394131232052116 -0.05367013858777435 0.0010885866489577197
-0.04676968320207578 -0.05726954033407264 -0.0012050394432933807
-0.049758496465125465 -0.060716418693226214 -0.004310120514104877
-0.052335091177766954 -0.06409362773428315 -0.008257265226548745
-0.05442828690896064 -0.06744713730319746 -0.012966860045082861
-0.05598688925923352 -0.07081673250726603 -0.018252300671764345
-0.05698692202683581 -0.07423113425251585 -0.023916160662461324
-0.057420911287340046 -0.07769357060163246 -0.029772884601575324
-0.05730046730918086 -0.08120070608591483 -0.035689470580443715
-0.05663621416200226 -0.08474794379629769 -0.04158478419726466
-0.05544126944245599 -0.08833633240641865 -0.04739452645784245
-0.05373842232925829 -0.09197663215114836 -0.05306985815384893
-0.05156671571950151 -0.09567605535345615 -0.05856085248022626
-0.04899533696994133 -0.0994335754949266 -0.06379592358941687
-0.046130127368433346 -0.10323505817487653 -0.06866363747662924
-0.04312441591867721 -0.10703177479038399 -0.07300012893768498
-0.040179948120063334 -0.11071793422082866 -0.0766220090959207
-0.03749924008172284 -0.11416218807288843 -0.07941805138191697
-0.03522249742587362 -0.11728236251477928 -0.08140514023194022
-0.033382100167682255 -0.12006056886634117 -0.0826992939355353
-0.03194184763530895 -0.12251071634090095 -0.08343027276370771
-0.0308395489425275 -0.12468170576265446 -0.08369863644305847
-0.030022366607532068 -0.12661791884887558 -0.08354441691722822
-0.02945380492299557 -0.1283425000086027 -0.08296649649094333
-0.02911332889232975 -0.12986642214403754 -0.08195567478455741
-0.028982611497406115 -0.13119802561894997 -0.08050101368919965
-0.029054594299350558 -0.1323297170463317 -0.07856158089215431
-0.029348103446875058 -0.13322078277816582 -0.07606334475998809
-0.02990868859474333 -0.13378837221517267 -0.07291778792187804
-0.03079099939046287 -0.133913661673639 -0.06906009553058269
-0.03203059331777152 -0.13347360224334187 -0.06452602986174108
-0.03357599899297318 -0.13243472626911137 -0.05953604369694198
-0.0353084299050352 -0.13089413504914768 -0.05433114551385018
-0.037111995206634885 -0.12900500938906653 -0.049082815769354145
-0.03888388723180214 -0.12693977666343045 -0.04390141975330439
-0.04053673309217194 -0.12487385943554632 -0.03884289103089131
-0.042000681888208664 -0.12297242546664758 -0.033920057751299665
-0.043219919535285346 -0.12138419439668055 -0.02912170615770491
-0.044151599279421694 -0.12024020699250883 -0.024446379940361675
-0.044782136787476924 -0.11962767658063406 -0.019934323928882655
-0.045132959017945465 -0.11956367589964603 -0.015633314653063363
-0.045238097287427934 -0.1200209232072399 -0.011559465623660276
-0.04512900697247385 -0.1209711366547065 -0.007703468109451355
-0.044830437756695866 -0.12239877068858011 -0.004052862181573937
-0.04436050969910326 -0.12429628290308249 -0.0005982224064356259
-0.04373164601291004 -0.12666173011512133 0.0026759207841431636
-0.04294974396465743 -0.1295024887230721 0.005795776140531898
-0.042014826342590766 -0.1328351126313191 0.008787645642816002
-0.04092702351752569 -0.13667127122963896 0.011658289952404137
-0.03969604884939985 -0.1410000762723974 0.014375334711488177
-0.03835217904434993 -0.1457758546276569 0.016863241395819732
-0.03694718554692976 -0.15091785049924786 0.019038163338894413
-0.03552092847578538 -0.15633658275014112 0.02085997625453874
-0.034082631107313584 -0.16194712337043216 0.02232927790309244
-0.032619136296269724 -0.16765821470009254 0.023480488689114353
-0.031102933250569776 -0.17337404538565018 0.024378925308349626
-0.029505708749323352 -0.17900628317299572 0.025109238317752844
-0.027806770478183935 -0.1844806959178424 0.025765275395243765
-0.02599339127643096 -0.1897417562104084 0.026441569857658474
-0.02405907034757931 -0.19475117973850667 0.02722569363264151
-0.022001040270895354 -0.1994878618533343 0.028192124178449747
-0.01981565171972993 -0.20395080004089267 0.029399966306439523
-0.0174932274258269 -0.20815661389180917 0.030895567363349932
-0.01501406400079969 -0.21213386797639325 0.032714469170111386
-0.012350521470828246 -0.21590984610291825 0.03487843495532977
-0.00947622102434447 -0.21950072185614822 0.0373874528113669
-0.006373755529217454 -0.22291619700413864 0.04021349136103301
-0.003031654146420249 -0.22616475072505884 0.04330543651293428
0.0005621396345117601 -0.22925216535769444 0.04660042883616169
0.004422673991636967 -0.2321772198029385 0.05003171825783958
0.008571123914597219 -0.23493391782286827 0.05353644131391629
0.01303681495350496 -0.23751316798348288 0.05706630558685005
0.017853811975803702 -0.23990096811738446 0.06059483784854332
0.023051099398111508 -0.2420744708474741 0.06411911742038663
0.02863961005635876 -0.24400215595770355 0.067655468629363
0.034597786741131176 -0.2456482368034212 0.07123172161359394
0.04086098562630467 -0.2469857108565713 0.07487659785845192
0.04732078252793436 -0.2480145797772869 0.07860919756546238
0.05384088941101223 -0.24877456942340936 0.08243131303696871
0.06028105763324712 -0.24934463989061886 0.08632582688529249
0.06651538551425128 -0.24982686622311764 0.0902611922685506
0.07244094121731734 -0.25032815766392563 0.09419647390132226
0.07797967726139414 -0.250935754389852 0.09808693134322952
0.08308195775862993 -0.2517022309728078 0.1018885701226553
0.08773091103119517 -0.25263826235434467 0.10556252660867746
0.09194506088453833 -0.2537214326762976 0.10908218397049706
0.09576747015495192 -0.2549142224736301 0.11243616715672264
0.09925173740320305 -0.25617883285098636 0.1156267615036832
0.10245152490885617 -0.2574866627308766 0.11866681383486243
0.1054167724389511 -0.25882309220947886 0.12157905299311018
0.10819050304887752 -0.26018821200068576 0.12439353045919443
0.11080896576486389 -0.26159569001004224 0.1271454461860955
0.11329936074300533 -0.2630701039004565 0.12986876178948975
0.11567796416456608 -0.26464223128561426 0.13258788236222127
0.117952889799818 -0.26634606240938635 0.135311722863587
0.12012856821821893 -0.26821580554004787 0.13803345948865106
0.12220884542579705 -0.270287623145729 0.14073712947264821
0.12419327107702 -0.27260039105516404 0.14340419641006402
0.1260711330589938 -0.2751973720502699 0.14601793159227114
0.12781598781065578 -0.27812320643392824 0.14856503888030892
0.12938669058410043 -0.28141777297696297 0.15103435177714863
0.13073789052906745 -0.285109795508598 0.15341657932559594
0.13183443996979352 -0.28921503164171886 0.15570926743421817
0.1326578148940509 -0.2937325963683505 0.15792179076963572
0.13321078077265486 -0.29863103108210703 0.16007405693330046
0.1335211336459096 -0.303834252127515 0.1621929542228692
0.13364304410855155 -0.30921594874134484 0.16430967542285566
0.13364583048419645 -0.31459601759085465 0.16645338698110582
0.13359748776795174 -0.3197508955216574 0.16863235417861652
0.13355063474273382 -0.3244817261347132 0.17082443873126596
LINES 1 120
119 0 1 2 3 4 5 6 7 8 9 10 11 12 13 14 15 16 17 18 19 20 21 22 23 24 25 26 27 28 29 30 31 32 33 34 35 36 37 38 39 40 41 42 43 44 45 46 47 48 49 50 51 52 53 54 55 56 57 58 59 60 61 62 63 64 65 66 67 68 69 70 71 72 73 74 75 76 77 78 79 80 81 82 83 84 85 86 87 88 89 90 91 92 93 94 95 96 97 98 99 100 101 102 103 104 105 106 107 108 109 110 111 112 113 114 115 116 117 118
POINT_DATA 119
SCALARS Curvature float
LOOKUP_TABLE default
0.029372697343067154
0.027909831662298344
0.03476718590592142
0.05050780709064313
0.07477799433743387
0.10621863713277975
0.14249492809357742
0.18045478241381396
0.2164100032256285
0.24651731215034214
0.26722107008852036
0.2757080178126435
0.2703184632973063
0.2508591870147429
0.21877125529151722
0.1771203427981244
0.13039660959212301
0.08413347189318979
0.04437709194812874
0.017058284394591096
0.00733319287468372
0.018966474926587942
0.05382961555224353
0.11157715124134948
0.18954587913256557
0.2828984009498368
0.38500525517506445
0.4880325595543025
0.5836777688691779
0.6639778147725407
0.7221038452830482
0.7530563805903295
0.7541841753760246
0.7254684740741582
0.6695396344117549
0.5914224020271314
0.4980360666338929
0.3975028402168772
0.29833891202480367
0.20861529736971474
0.1351783501440183
0.08301236955153914
0.05481002294003339
0.05079234238393986
0.06879168843586013
0.10458165811030035
0.15241087829182814
0.20567607341328184
0.2576561311251004
0.30222453626571155
0.3344627908023864
0.3511114244459917
0.3508160428107985
0.3341508995948842
0.30342862616438715
0.26232887066418
0.2153978928013156
0.16748350552718388
0.1231739408456965
0.08630506964064893
0.05958877557188283
0.04439790782566354
0.040722494099873094
0.04729048183337598
0.061826861516488495
0.081409916126414
0.10287419895157426
0.12320750423055506
0.13989349586308628
0.15116187769441997
0.15612240161063237
0.15477553214720666
0.14790896303716203
0.13690328842345506
0.12348025096438094
0.10943201699177402
0.09636949537498551
0.08552220231553945
0.07761262475447667
0.07281598981740445
0.07080360769141544
0.07085632427278646
0.07202565534238763
0.07331498173993367
0.07385228436898342
0.07302917403293673
0.07058771831105232
0.06664561456564647
0.06166015496645231
0.056340668660028646
0.05152636446021037
0.048050746211622794
0.04661453218207576
0.0476863257169681
0.05144472533708281
0.057768117954101236
0.06627031785576429
0.07637280775180029
0.08739877682952879
0.0986712854030699
0.10959812023393319
0.11972913769711716
0.12877753715594187
0.13660358700890726
0.14316662797617763
0.14845744565851515
0.1524272369585237
0.15493062664247473
0.15569821800460434
0.15434920389214343
0.150447340907312
0.14359522235494504
0.1335536351346779
0.12036624648821537
0.104466148838613
0.08674072478853671
0.06853518215249299
0.05158265259072105
0.03785906209900543
