# vtk DataFile Version 2.0
Vessel Segment
ASCII
DATASET POLYDATA
POINTS 119 float
-0.0032145960256660298 -0.005073458987173844 0.0005533620509411793
-0.007096707981615928 -0.010669633187105745 0.001519953125169939
-0.011482220394229792 -0.016554082395316323 0.002778803577127123
-0.016179278796988703 -0.022492137223680486 0.004150217272550965
-0.021020510313354685 -0.028303001664520606 0.005462731103350283
-0.02588195725991263 -0.03388586983637872 0.0065657793679631945
-0.03066532909526866 -0.039191390348990066 0.007311655627121831
-0.03527869668234305 -0.04419312212375339 0.007556297246878898
-0.039633935195918193 -0.04887939790344854 0.007180973258398378
-0.04366486673102003 -0.05326762786615921 0.006116941534377258
-0.04734067918121301 -0.05742056251757232 0.004333449765537764
-0.05064468783333728 -0.06142831129961828 0.0018107733390308424
-0.053542999945100506 -0.06537694850036524 -0.0014538171168253047
-0.055977012248129475 -0.0693365846918845 -0.0054109153344421585
-0.05787863134377991 -0.07336179121401554 -0.009948509664115417
-0.05920832474894389 -0.07749106687205175 -0.014905549066885345
-0.05995487414596894 -0.08175155807662836 -0.020148171109459333
-0.06010640551211857 -0.08613976981540106 -0.02556727344045656
-0.05966155687702035 -0.09063556172733592 -0.03107309196815501
-0.058633607035639336 -0.0952184299841567 -0.0365926189042595
-0.05704986476509312 -0.09987894351674302 -0.042069382778158707
-0.0549519276662192 -0.10461101222502123 -0.0474436148402351
-0.05240874625124091 -0.1094012863463672 -0.052625752412495966
-0.049527443061678986 -0.11421755325342756 -0.05748404013497895
-0.04645486486715576 -0.11899459423738759 -0.061852020231513816
-0.04336391440458303 -0.12363159871839913 -0.06556235205087275
-0.040423399932150265 -0.12801900790584367 -0.0684901894237981
-0.037773812128733 -0.13206565618413574 -0.070561420002817
-0.035521971365141736 -0.13568033413936356 -0.07174189727769836
-0.03373188775578649 -0.138763942898597 -0.07206751361878136
-0.032391282492420695 -0.1412826760019537 -0.07165913281202915
-0.03141833163065819 -0.1433052924983522 -0.07065443483130181
-0.0307247003579951 -0.14495478984257282 -0.06909167599378739
-0.0302638980339182 -0.14629767466515806 -0.06692437419299063
-0.03001984112481235 -0.14734407669132316 -0.06410153975452666
-0.029992804898859735 -0.14808165773952556 -0.060595216402066464
-0.03019241586531563 -0.14849345906799546 -0.05641668534579461
-0.030625407885477414 -0.1485686739236488 -0.05163539844678174
-0.0312785981194927 -0.14832096932736186 -0.046396161809361874
-0.03210629938815068 -0.14781157467444608 -0.04089410696120848
-0.0330368528683431 -0.14714840986869968 -0.035306675118479
-0.033993704467633876 -0.1464596213816227 -0.02974947283851837
-0.03491021497501125 -0.14586911844658035 -0.024282924500851073
-0.035733630328002614 -0.14548586336155253 -0.01892957175976838
-0.03642501302999752 -0.14540267790984937 -0.013685685751999377
-0.036957823049866084 -0.14569867181769267 -0.008529855218991767
-0.037316186187851465 -0.14644709704067602 -0.003434082438704908
-0.037493553028598435 -0.14772133422577502 0.0016198809226824267
-0.037493674664936694 -0.14958942029227978 0.006620565153928262
-0.03733062996397965 -0.1520943824956169 0.011522402366232682
-0.037024797969651906 -0.15524099858447474 0.016266445499947053
-0.036599897664533546 -0.15900792118689888 0.02080632998637853
-0.03607882220790185 -0.16336452910526914 0.025111208431750208
-0.035480139228613344 -0.16827242024809283 0.0291609967682413
-0.03481509184453302 -0.17368458262344172 0.03295048769680885
-0.03408505609929254 -0.17954480926677913 0.03649268389500647
-0.033280826272262976 -0.18578551449963016 0.039815348140892826
-0.032385774002059844 -0.19232533064824242 0.04295522282075336
-0.03138023871387553 -0.1990731669415629 0.04594976450714747
-0.030244972243546834 -0.20593808840364244 0.048831483392678704
-0.028961012978719867 -0.21283933600131244 0.05162890298073201
-0.02750427400803876 -0.21971235059901856 0.054368685840542046
-0.02584379868022275 -0.22650378258632542 0.0570712900808395
-0.023945727957064362 -0.23316242133659695 0.05975050703791426
-0.021778672966086016 -0.23963846816759654 0.06241708602020989
-0.019319353191165185 -0.2458850982527488 0.06508098970618724
-0.0165547439663715 -0.25185784789416493 0.0677517158044855
-0.013481170094408728 -0.25751574490225265 0.07043908609197172
-0.010101634443950439 -0.26282442073046547 0.07315441167249942
-0.006421595748554443 -0.26775968549338575 0.07591130724845858
-0.0024465829172034756 -0.2723059377586496 0.07872529405974191
0.0018181407673757812 -0.27645542964521724 0.08161413533678988
0.006367737778423565 -0.28020777768042365 0.08459806415179061
0.011196413924148572 -0.28356654361523675 0.08769927165908216
0.016293677705925127 -0.28653608302593503 0.09093863220857616
0.0216407127130336 -0.28912263224806983 0.09433010967160299
0.027212990567792274 -0.2913359923441726 0.09787862369470897
0.03298508516966684 -0.29318853423512575 0.10157906990825394
0.03893436609378901 -0.2946949747065053 0.10541623146359021
0.04504390876211776 -0.29587287796880846 0.10936666576445478
0.051303853679315135 -0.29674417875290615 0.11340440598915492
0.05770780576295093 -0.29733270128917655 0.1175078726724921
0.0642466430838715 -0.2976625908794119 0.12166121548324715
0.07090299170284141 -0.29775854310706074 0.12585507977808802
0.07764779204298636 -0.29764875084938763 0.13008640038504446
0.08443885612337373 -0.29736746734485076 0.1343561124910295
0.09122330880932053 -0.2969574752058735 0.13866682189147994
0.09794262249958119 -0.296469949902809 0.14301810827554248
0.1045377482811706 -0.29596205652776214 0.1474025145032573
0.1109538463270837 -0.29549288436343574 0.15180537736344973
0.11714397576662988 -0.2951207943342497 0.15620523456081456
0.12307162165655382 -0.29489867437540684 0.16057720766140565
0.12871132870796417 -0.2948711567853324 0.1648963140290279
0.13405035506969715 -0.2950732356307484 0.1691395616375819
0.13908967395497945 -0.2955312719943604 0.17329201389970933
0.14384026182716877 -0.2962666875868305 0.17734757456008193
0.148316784062247 -0.2973003516437185 0.18130789876279882
0.15253274178518764 -0.29865418454566983 0.1851799141675621
0.15649624270533216 -0.3003511589353311 0.18897333500096544
0.16020754864497697 -0.30241285573781257 0.19270035812016317
0.1636567705199112 -0.3048553594193634 0.19637430611618195
0.16682217478745293 -0.3076851538451551 0.2000077064510031
0.16967278249480475 -0.3108955329294126 0.20360704769262322
0.17217709755987207 -0.3144652964932359 0.20717021956773143
0.17431639784698247 -0.31836634348486026 0.2106895735361142
0.17608772414945198 -0.32257411013033827 0.21415851141177003
0.17749864724897435 -0.32707134624757417 0.2175726860866711
0.1785622625286302 -0.33184409371302553 0.2209267492074023
0.17929710493515905 -0.33687397678279624 0.22421240247211996
0.17972951031595363 -0.3421309369775775 0.22741963070858345
0.179896220284405 -0.347570665451613 0.23053794240995198
0.1798432913080941 -0.35313853342381396 0.2335619151343695
0.17962168182930646 -0.3587806017549031 0.2364947126739515
0.17928130817748456 -0.3644534256068735 0.2393513386543057
0.17886930657962405 -0.3701225539018591 0.24215821940939317
0.17843475940272988 -0.3757400589188962 0.24494329413499902
0.17802929569254394 -0.381208250500607 0.2477128983342529
0.1777002421092102 -0.38636972662702096 0.25042346349968436
0.17747919001789453 -0.39106517922085415 0.25299016418053644
LINES 1 120
119 0 1 2 3 4 5 6 7 8 9 10 11 12 13 14 15 16 17 18 19 20 21 22 23 24 25 26 27 28 29 30 31 32 33 34 35 36 37 38 39 40 41 42 43 44 45 46 47 48 49 50 51 52 53 54 55 56 57 58 59 60 61 62 63 64 65 66 67 68 69 70 71 72 73 74 75 76 77 78 79 80 81 82 83 84 85 86 87 88 89 90 91 92 93 94 95 96 97 98 99 100 101 102 103 104 105 106 107 108 109 110 111 112 113 114 115 116 117 118
POINT_DATA 119
SCALARS Curvature float
LOOKUP_TABLE default
-0.005106970516168337
-0.005440641093598456
0.002723405836650826
0.020277380135047915
0.046989417857746615
0.0813922674345689
0.12083875519386038
0.16172925104172967
0.19989260714743023
0.2310796565511904
0.2515104595137317
0.2584056935520219
0.25043064480990496
0.22798778579552084
0.19331028183547075
0.15033212345944647
0.10433811760502137
0.061425234008611274
0.0278321450873433
0.009212847389281317
0.009940366180802974
0.032526165321603094
0.07722976832379368
0.14191236998672818
0.22216025875365475
0.3116720226248886
0.4028716749002658
0.48768197308790323
0.5583718376015774
0.6083815352971726
0.6330305683898771
0.6300259687266707
0.5997114751942774
0.5450281454851281
0.471190678970627
0.3851169955402319
0.2946773658728342
0.2078501209550392
0.13188118042093755
0.07254313863747193
0.03357669832129797
0.016374523688473083
0.01993797526056569
0.041104389965191106
0.07501064126063567
0.11573155399435028
0.15701260920251817
0.19300745745962278
0.2189329552861042
0.23156723127812845
0.2295378425831141
0.2133745003692586
0.1853305513122067
0.14900561911006577
0.1088250328425301
0.06944711635878652
0.03517536656609115
0.009448550751621284
-0.005531363210892183
-0.008993779594308762
-0.001601417823362061
0.014730018343101435
0.03716099495919856
0.062354910883929165
0.08694096756327999
0.10794992409966012
0.12316628491208674
0.1313545142129049
0.13233604764170823
0.12691540213396874
0.11667456063375997
0.10367219707466564
0.09009593638207926
0.07792029641886272
0.06861984475993685
0.06297709180193446
0.06100934330442081
0.06202045803172193
0.06476486996698855
0.06769499256166661
0.06925148980328738
0.06815044243305086
0.06362281795796657
0.05556954605358335
0.04460865852754309
0.03200739300919978
0.019509456230979064
0.009083276852145414
0.0026287958360277225
0.0016864754946966604
0.00719190515259597
0.019312723786851928
0.03739256529382709
0.060011125382966095
0.08515252738888714
0.11045838803402126
0.13352964414141663
0.15223408993107596
0.16497572864833748
0.17088759353117516
0.16992084755426812
0.16281812107198176
0.1509759978829552
0.13621784716911625
0.12051143593025895
0.10567398369389717
0.0931092890723256
0.08361691427508978
0.0773027645940271
0.07360523220360042
0.07143355302847786
0.06939769411027928
0.06609450575964959
0.06040524607645305
0.051756449664701804
0.04030009558273956
0.026979745089451328
0.013465399673901831
0.00195909775746041
