# vtk DataFile Version 2.0
Vessel Segment
ASCII
DATASET POLYDATA
POINTS 119 float
-0.0032187917815355007 -0.004843637304075367 0.0007881457877435518
-0.007099665747942449 -0.010269418920779464 0.0019466147074739689
-0.01148146967749828 -0.01606067718588143 0.003356336042357317
-0.016173343961771256 -0.02197742516713811 0.004836889681758868
-0.021006902061399255 -0.027816083441674085 0.006225445342599285
-0.025861945299909064 -0.033458803233822304 0.00738977123735428
-0.03064760427273251 -0.03884721531934811 0.008200282900758906
-0.0352805441047388 -0.04395084019297466 0.008525285533919255
-0.03967894058523257 -0.04875666446694535 0.008249518884588577
-0.043776412846893736 -0.0532803822100391 0.007299616301100162
-0.04753395984263636 -0.057578995639582416 0.005639688977365101
-0.05092502998048649 -0.0617361986080146 0.003252681746272962
-0.05391187383823221 -0.06583756356951644 0.0001404360982664452
-0.056437040567643856 -0.06995779122850959 -0.0036538858662077604
-0.058427369515105125 -0.07415409486632438 -0.008032421940634882
-0.059840062251514524 -0.0784680001012818 -0.012840611408257225
-0.060663792206984236 -0.08293388004638091 -0.017955317270456503
-0.06088134976565524 -0.08754881178371073 -0.023272392971944365
-0.06048853530515466 -0.09228895318858463 -0.028700084140459277
-0.05949879832178679 -0.09712823007626278 -0.03416326164903472
-0.05794084548188853 -0.10205180040714487 -0.03960359006026277
-0.05585724151045597 -0.10705000609275729 -0.04495908023914819
-0.05331714594123478 -0.11210629139189957 -0.05013606215329462
-0.05042824108748783 -0.11718377671428964 -0.05499796976659586
-0.04733613821992122 -0.12221306355913046 -0.059377610819585404
-0.04420689241230567 -0.127094963376714 -0.06311150742442243
-0.04120043364098852 -0.1317261764713529 -0.06607178948053678
-0.03845571189485515 -0.13601380534532423 -0.06816182729390223
-0.03609662760433388 -0.13984840825621203 -0.06930912481685489
-0.03421151752231032 -0.14310403091934049 -0.06952549033566598
-0.032799235076859674 -0.14573090882187104 -0.06893501890484269
-0.03177110810924471 -0.14780509402335193 -0.06768995745880521
-0.031030545602515183 -0.1494625583667266 -0.06582585902371928
-0.030528441908065775 -0.15076782030658972 -0.06328883239873698
-0.030248375657959882 -0.15172754174456018 -0.0600316045532267
-0.03018989435309967 -0.15233540848491608 -0.05604429283774098
-0.030358158380544682 -0.15259248244944967 -0.05137210127666823
-0.030749145241479193 -0.15251793372682795 -0.046132163510171215
-0.03133439998421674 -0.15216517217396794 -0.04052205791754245
-0.032052908771976564 -0.15163759944460453 -0.03476571610414805
-0.03283307329464951 -0.15106604417411915 -0.029012443370684586
-0.03361070181593116 -0.1505764821701986 -0.0233342899453079
-0.034330420993446874 -0.15028246093207095 -0.017755799928975753
-0.034948525300039536 -0.15028158198178032 -0.012271779738278605
-0.035432661083382035 -0.15065750079861698 -0.006860901287111875
-0.03576047833319578 -0.1514837179512536 -0.0014956060965036185
-0.03592002606178407 -0.15283051057953023 0.0038469517278761686
-0.03591044226241235 -0.1547680328232845 0.009173218739290369
-0.03574060291224726 -0.1573635099759767 0.01446250312216852
-0.03542723300657144 -0.16066263657970303 0.0196590020596171
-0.034993308698639106 -0.16466784974622928 0.024687431507265004
-0.03446629265896524 -0.16934531146559834 0.029485192680869167
-0.03387287349420791 -0.17464619221299676 0.03401168962761395
-0.03323413291925047 -0.18051199101451268 0.03824362770371101
-0.03256140054181465 -0.18687492393143093 0.0421766863516989
-0.03185349311439621 -0.19365569602571797 0.04582694227632339
-0.031096227128533844 -0.20076011034511407 0.04922822390136035
-0.03026571919748309 -0.2080801568599616 0.05242948736650596
-0.02933237404281253 -0.2155044581233791 0.055489201263771354
-0.028262797062848028 -0.22293450250282026 0.058469372461533754
-0.02701896572358318 -0.23029779524197388 0.06142859757579666
-0.02555936525831482 -0.23754729423864931 0.0644121495098117
-0.023841294897833806 -0.24464885990123306 0.06744731129349185
-0.02182368768781981 -0.251569838546272 0.07054412929212692
-0.019472164426566952 -0.2582755226375853 0.07370027527616935
-0.016763133014393077 -0.26472798476252485 0.07690656906372279
-0.013684863562428623 -0.2708850978139956 0.08014969878727313
-0.010236579859585048 -0.276702831792756 0.08341526466995912
-0.006425327836227367 -0.2821414830271644 0.08669162609634982
-0.002260576341773162 -0.28717170939042086 0.08997320796073799
0.0022483194399271376 -0.29177260474035427 0.09326119521419059
0.007091465586170654 -0.2959311010699595 0.09656392015576602
0.012257407642432343 -0.29964186182108604 0.09989719641215909
0.017731581218629326 -0.30290501992323143 0.1032846091595566
0.02349374436397406 -0.30572358377499037 0.10675483484017863
0.02951524725539043 -0.3081033118310184 0.11033516337198333
0.03576118762863792 -0.31005380364388097 0.1140465874635554
0.04219465954908725 -0.31158830108968205 0.11789928933533692
0.04878101236213091 -0.3127250298454438 0.12189067831259662
0.0554910132902897 -0.3134877634209515 0.12600625675474272
0.06230218210483443 -0.31390767050179214 0.13022434646123135
0.06919547086236068 -0.3140206103175885 0.13452309379852567
0.07615033297206064 -0.31386568647372365 0.13888165638266964
0.08314138830645314 -0.31348460022661495 0.14328241725294433
0.09013773104250426 -0.3129232884315787 0.14771301823857985
0.09710373440946865 -0.3122313151905121 0.15216673174965858
0.10400205954231062 -0.3114605739670038 0.15664250391549675
0.11079559032014524 -0.310662873677814 0.16114076609287428
0.1174475800893276 -0.3098880162709218 0.16565827094937707
0.12392277857807665 -0.30918308040844034 0.17018625346019853
0.13018993469940643 -0.3085935013583422 0.1747095030878747
0.13622445035367783 -0.3081629475221943 0.17920912049999702
0.14200827218487908 -0.30793356052966064 0.18366551157776032
0.14753051575288864 -0.30794628922403827 0.18805975695638333
0.15278774679803778 -0.3082402377138102 0.19237938612087604
0.1577821993747716 -0.3088527841079026 0.19661886743734328
0.16251793712174661 -0.3098212167484661 0.20077912372343584
0.16699807721527624 -0.31118233646258675 0.20486574274908634
0.1712206428527221 -0.31297141498232206 0.20888622080173433
0.17517604083802013 -0.3152189771517607 0.2128500744468769
0.17884338777574538 -0.3179455954182654 0.21676713978357226
0.18218823290113204 -0.32115662193483613 0.2206462366745235
0.18516598259301006 -0.32483802321999855 0.22449031616697504
0.18773233370900583 -0.32895475057171875 0.228294589631791
0.1898595651431279 -0.3334611841875603 0.23205055233755173
0.1915402130685455 -0.3383141375552684 0.23575282640462558
0.1927821321288728 -0.3434776135834256 0.23939913810422098
0.1936045111851368 -0.34891686447240977 0.2429849597445869
0.19403993293155783 -0.35458940952838464 0.24650057674589496
0.19413712780234238 -0.3604386598459808 0.24993347394151616
0.19396036693702362 -0.366395035316045 0.2532708170633554
0.193582160691136 -0.3723839818859634 0.25650563381139835
0.1930739407835257 -0.37834135995633705 0.25963952717933597
0.1924965105586675 -0.38422753854248065 0.26268684636425643
0.19189827885472924 -0.39002549797457525 0.26567499059313776
0.19132328234863763 -0.3957113748463053 0.2686324450171949
0.19081623314919371 -0.40120955471857367 0.2715610088455223
0.19041808781416603 -0.40637878446672177 0.27440489961864734
0.19015467239515862 -0.41106910766868426 0.27706423560356697
LINES 1 120
119 0 1 2 3 4 5 6 7 8 9 10 11 12 13 14 15 16 17 18 19 20 21 22 23 24 25 26 27 28 29 30 31 32 33 34 35 36 37 38 39 40 41 42 43 44 45 46 47 48 49 50 51 52 53 54 55 56 57 58 59 60 61 62 63 64 65 66 67 68 69 70 71 72 73 74 75 76 77 78 79 80 81 82 83 84 85 86 87 88 89 90 91 92 93 94 95 96 97 98 99 100 101 102 103 104 105 106 107 108 109 110 111 112 113 114 115 116 117 118
POINT_DATA 119
SCALARS Curvature float
LOOKUP_TABLE default
-0.009926835299177744
-0.010022778764449307
-0.001605384432690962
0.01617087931215833
0.04300720072811292
0.07736440540250566
0.11653677491805782
0.15689755937674962
0.1942941393758634
0.22454883176739218
0.2440043914051657
0.2500438309273091
0.24151381516742826
0.2189899652496973
0.18484005509041962
0.14306525739251608
0.09892733097865378
0.058397418328994206
0.027486323954231152
0.011533527937213498
0.014540319735904422
0.038630022642332236
0.08370535912993388
0.14735097305234984
0.22500056188672743
0.310356446156654
0.3960186258063511
0.4742543075622884
0.5378208522335963
0.5807474319907535
0.5989844688763242
0.5908447837338439
0.5571845649457793
0.5013028380431575
0.42857133928794294
0.3458384880817442
0.2606776093248252
0.1805674409338337
0.11210011303499937
0.0603073892466887
0.02818064586239055
0.01643581734033437
0.02354443947721394
0.046019757909352775
0.07891663753538826
0.11647941401960774
0.15285581916315036
0.1827895122044812
0.20220904410444637
0.20864637480162024
0.20144121126896014
0.18171534176152823
0.15213017405563736
0.11646714418200398
0.07909126158634708
0.04437033958637607
0.016125098224690788
-0.0028217306525613853
-0.010944713405079545
-0.008132616956211907
0.004382973006774013
0.024268423604448017
0.048457972539974026
0.07359732596939617
0.09649819218914056
0.11454238279711175
0.12598367631729113
0.1301118372275486
0.12726361136987768
0.11868726489345834
0.10628728480140384
0.0922915118331021
0.07889219989187592
0.06791419501037357
0.06055757151331533
0.05724967254402737
0.0576244823784377
0.06062812096029461
0.06473075493830291
0.06820997983689182
0.06946085508545241
0.067284584605787
0.06111168116467845
0.05112568054472388
0.03826853100626235
0.02412645414797048
0.01071278578600367
0.00017950825585319718
-0.0055002940804988664
-0.00483247493852615
0.0029598000844947244
0.017794693064868774
0.03870876965630592
0.06395691432080954
0.09122182361286352
0.11790404802257465
0.1414519477393879
0.15968515663226399
0.17106604836088612
0.17488115078018607
0.1713074018719383
0.1613547330165105
0.14669432368728472
0.12939842262792434
0.11163047450347952
0.0953315452670833
0.08194961130117268
0.07225202659185305
0.06624925004774279
0.06324141424166425
0.06198089665969794
0.060926373443760694
0.05854948598816801
0.05364638822617768
0.04560447188336895
0.03457992988054364
0.021553912519173532
0.008252277266162412
-0.0030660227580881143
