# vtk DataFile Version 2.0
Vessel Segment
ASCII
DATASET POLYDATA
POINTS 119 float
-0.0032633475581230155 -0.006409666585513961 -0.0006848237959584082
-0.007202220082312609 -0.012946928752842379 -0.000683525699858874
-0.011635769335666313 -0.019330338036196444 -0.00015924755402148662
-0.016371448044010743 -0.025388220264439737 0.0006908897413972864
-0.02125532168189411 -0.031074384549425862 0.0016436448044548817
-0.02615154210106901 -0.0363804026718519 0.0024588928871896116
-0.030929395635060055 -0.04130425569618252 0.0029034948239421666
-0.03545938224413019 -0.04584227553602033 0.002776650608489368
-0.039629218402936886 -0.04999403380808719 0.0019440452281980604
-0.04337930401926457 -0.05378921358381502 0.00035402711080834083
-0.04671752924406331 -0.05731670975318893 -0.0020124828149680214
-0.04966755348796126 -0.06069133040749755 -0.00520415019848745
-0.052203980652692425 -0.063994636117955 -0.009256596911044544
-0.05425291282699495 -0.06726858941416446 -0.014085043790549211
-0.05576530006283266 -0.07055069096916967 -0.019489866067585727
-0.05671975238162956 -0.07386877129723252 -0.02526725109701849
-0.057109771673494014 -0.07722353467355629 -0.03122345937445841
-0.05695048380922436 -0.08061207945281151 -0.03722168701037731
-0.0562542039980024 -0.08403206487062122 -0.04318209089447101
-0.05503405955030901 -0.08748743742499626 -0.04904157376797076
-0.05331234006902355 -0.09099156266979355 -0.054752334119476144
-0.05112790432473193 -0.0945533397440187 -0.06026591757484136
-0.04855011688821782 -0.0981733307124437 -0.06551342426501
-0.0456847808906307 -0.1018397708229615 -0.07038635711516926
-0.04268633549556267 -0.10550616168268286 -0.07472115319818626
-0.03976067753056161 -0.10906624943834024 -0.0783321502379508
-0.037114674784560306 -0.11238612381806502 -0.08111021974441933
-0.03488759445812517 -0.1153850469020677 -0.08308485068762443
-0.03310080942227111 -0.11805506448662742 -0.08439230894817566
-0.0317041186127168 -0.12042620991565653 -0.0851756208319247
-0.030627867227371052 -0.12256181052289923 -0.08553378547734075
-0.029823140205771245 -0.12450586909377225 -0.08549042784717496
-0.02926266659326849 -0.12626400292094103 -0.08503035733297468
-0.028932143153266626 -0.12782974683018686 -0.08414501116069355
-0.02881320143203675 -0.12920469059216122 -0.08283351744739328
-0.02889626268300283 -0.13038252659323737 -0.08106192208117852
-0.029199671480992433 -0.1313250932205043 -0.07875325218015798
-0.02977323906949254 -0.1319473066075903 -0.07580343168353232
-0.03068169573703949 -0.13211753506202722 -0.07212001961520746
-0.0319748720190849 -0.13168643970190635 -0.06771123935319821
-0.033607800749905804 -0.13059390531008955 -0.06279416968727251
-0.03545793731812938 -0.12892536030414822 -0.057620897877721344
-0.03740310264649424 -0.126833274776703 -0.05237453026161965
-0.039332691929760175 -0.12449753922868094 -0.047174977565437495
-0.041150261277477604 -0.12210780618948693 -0.042084614998547605
-0.042776158427807236 -0.11984824347044808 -0.03712038711964902
-0.04414419264450151 -0.11788859093967638 -0.03227501967694731
-0.0452017413811772 -0.11637994694822222 -0.02755441888355918
-0.04593046703105601 -0.11542157664048668 -0.023010026264513896
-0.04635378235373702 -0.11503002224194865 -0.018696592740002353
-0.04651044812341412 -0.1151708524210528 -0.014629758805992453
-0.04643634321257686 -0.11580870021419337 -0.010796910447663868
-0.046159658937697946 -0.11692240503730189 -0.007182021803094281
-0.04570098087101734 -0.11850066007009359 -0.003771450511476422
-0.045074335576249784 -0.12054038978692073 -0.000544508901107528
-0.04428645037519325 -0.1230515570345539 0.0025302998677684974
-0.04333785144927237 -0.1260574525028813 0.0054825910220902534
-0.04222975947911974 -0.12957942861266597 0.008318092155984827
-0.040974769943692514 -0.13361661445393053 0.010997387801799947
-0.03960896663338704 -0.13813088248143934 0.013432355025882128
-0.038192621204717225 -0.14304538121559343 0.015525909865166608
-0.036772957194261 -0.1482731331142789 0.01723032668172418
-0.03536358916377333 -0.15373138004352904 0.018543743312678364
-0.03395356054355842 -0.15932873309028603 0.019502462067786577
-0.032515625120089695 -0.16496572715512323 0.020177999986238575
-0.031020628427933013 -0.17054798564648882 0.02066450839609146
-0.02944675447386361 -0.17599454550546942 0.02106737855639976
-0.027780159690672056 -0.18124405204473218 0.021493035370434465
-0.026013382738748404 -0.18625379925800933 0.022039594121072956
-0.024142964465980084 -0.1910001599869025 0.02278942548589225
-0.022164447098427183 -0.1954828106677278 0.023806536044292937
-0.02006657473580015 -0.19972202532954533 0.02513999097793388
-0.01782683744129522 -0.20375181777204868 0.026826816576237165
-0.01541361235870202 -0.20760450280049114 0.02888913590304799
-0.012795942770121062 -0.21129912629984943 0.03132523959043289
-0.009951751326319947 -0.21484633448877882 0.03410250920861997
-0.006864887719085432 -0.2182541971002741 0.03716268449960143
-0.003518531186503962 -0.22152695760549437 0.040434718065190056
0.00010699107803307552 -0.22466041932899217 0.04384392592175665
0.004037301573890049 -0.22764477181169215 0.04732093915391536
0.008306009811477388 -0.23046655904145302 0.050813301396950526
0.012951434621502934 -0.23310705514546975 0.05429289135236019
0.01800649492649021 -0.23553785117755185 0.057757696609128065
0.023484986880970008 -0.23772067654532675 0.06122685418918865
0.029365768554208763 -0.23961159479685032 0.06473197407118451
0.03558103268244872 -0.24117533624428944 0.06830556749446921
0.04201520428345798 -0.24240575712604923 0.07196948613141443
0.04852220219872775 -0.24334060618837391 0.07572667357942815
0.054951711476063966 -0.24406154677593728 0.07955964643599989
0.061169144140426505 -0.24467640967923812 0.0834354069707203
0.06706489110078531 -0.2452986864182546 0.08731106334067538
0.07255610097830485 -0.24602019614046322 0.09113968814624918
0.07759058273613241 -0.24689444392777576 0.09487502850657047
0.08215134468319224 -0.24792870153232505 0.09847610816724432
0.08625931347750208 -0.24909403767859017 0.10191445494626712
0.08996159740114335 -0.250345356636821 0.10517753923829903
0.09331670165591215 -0.2516377382339965 0.10826739853277619
0.09638359537731596 -0.2529370718497405 0.1111977512096509
0.09921807777789043 -0.25422546368268945 0.11399366326005009
0.10186942820509338 -0.2555021215399437 0.11668862148909394
0.10438061946421198 -0.2567821673163016 0.11932199694415614
0.10678568965934983 -0.25809371949887916 0.12193179597919777
0.10910710471809823 -0.25947286945284653 0.12454568470752529
0.11135767567729409 -0.26096052230798894 0.1271743893001017
0.11354402383398061 -0.2625983842449197 0.12981093811865088
0.11566983721413537 -0.26442974761130916 0.1324373224908071
0.11773251523709125 -0.2664997588169008 0.1350318754685749
0.11971725209595108 -0.26885735292996354 0.1375746523131006
0.12159116468339243 -0.2715524792719173 0.14004961627989854
0.12330461452306654 -0.2746302951347986 0.1424434396333579
0.12480313736716783 -0.2781254292828738 0.1447457239465775
0.12604348850294428 -0.28206108368344934 0.14695420969981776
0.12700011258575078 -0.2864443501252142 0.14907956561758814
0.12766998890254228 -0.2912485469393332 0.1511430727754283
0.1280772356530393 -0.29639553072494046 0.1531724828381162
0.12827517408373793 -0.30175069752388833 0.1552002572536068
0.12833440857125109 -0.3071234912889797 0.15725938749299218
0.128325202039167 -0.3122810728988223 0.15936570795592753
0.12830284759160368 -0.3170188811455662 0.16150599150615857
LINES 1 120
119 0 1 2 3 4 5 6 7 8 9 10 11 12 13 14 15 16 17 18 19 20 21 22 23 24 25 26 27 28 29 30 31 32 33 34 35 36 37 38 39 40 41 42 43 44 45 46 47 48 49 50 51 52 53 54 55 56 57 58 59 60 61 62 63 64 65 66 67 68 69 70 71 72 73 74 75 76 77 78 79 80 81 82 83 84 85 86 87 88 89 90 91 92 93 94 95 96 97 98 99 100 101 102 103 104 105 106 107 108 109 110 111 112 113 114 115 116 117 118
POINT_DATA 119
SCALARS Curvature float
LOOKUP_TABLE default
0.03457362564272795
0.03319717217528916
0.04020231234308186
0.0559928310903723
0.08009232886760986
0.11107746614719383
0.1466184151956611
0.18363531922363927
0.21856529680296735
0.24771955434158532
0.26769644350397137
0.2758057607482895
0.2704538796103861
0.25143955052153594
0.22011680552853446
0.17939396995612433
0.1335551175089025
0.0879105348810476
0.048303537860284865
0.020519759472073514
0.009659389361731593
0.01954079409996568
0.05220420590378112
0.10757634112797489
0.18334148450448426
0.27504327327457884
0.37641644088857074
0.47992195821356715
0.5774353564941461
0.6610193722204599
0.7237007367197992
0.7601684419380051
0.7673176312980001
0.7445787798079114
0.693994391701451
0.620032552934747
0.5291552609470237
0.4291862430615372
0.32854488193489123
0.23542736172620363
0.1570215624203381
0.09883795326381811
0.06422529456108367
0.054118944422343294
0.06704345336853762
0.09936296169091263
0.14574594865514123
0.1997881956130537
0.2547219488919517
0.3041318956125855
0.3426003599091623
0.3662146605766137
0.3728873958789194
0.36246326271664375
0.3366110658222704
0.2985238335440696
0.2524706163479618
0.20325830479360465
0.15566914788956274
0.11393900433523414
0.08133312469564231
0.059861749611667514
0.05015903571092813
0.05152824219561071
0.06213630063501974
0.07932421669152054
0.0999880920381622
0.12098007781627935
0.13947962369626524
0.15329248202465773
0.16104684237385425
0.16227093827461525
0.15735241849979217
0.14739462567663086
0.1339968429016319
0.1189931997389644
0.10418754908770508
0.09111920774041375
0.080887632399949
0.0740540627013602
0.07062644793087361
0.07012226464089102
0.07169370966975032
0.07429248998219438
0.07684783300489784
0.07843166050405093
0.07838879704779807
0.07641682415761337
0.0725885963105532
0.0673191885404884
0.061286859048184365
0.05532340852413569
0.05029238484999502
0.046973649091457535
0.04597008425953412
0.04764730561122175
0.05211103775513512
0.05922042761126163
0.06863001047801937
0.07984920174898291
0.09230659651094927
0.10540717638818553
0.11857349070543972
0.13126637987434575
0.14298597101642724
0.15325851931381265
0.16161826917649658
0.16759515406989078
0.17071846425595666
0.170543614815289
0.16670428183897235
0.15898623573677395
0.1474132159172387
0.13233026527350902
0.11446707844301038
0.09496384552858005
0.07534511734967429
0.05743321948598764
0.04320104908145552
