# vtk DataFile Version 2.0
Vessel Segment
ASCII
DATASET POLYDATA
POINTS 119 float
-0.003251409168331607 -0.004391487627376309 0.0012923147669199645
-0.007144420173235201 -0.009471035278371384 0.0028683993845963107
-0.011526098514300878 -0.015069548807253974 0.004609764864504705
-0.016210012239363025 -0.02094373713968777 0.006331725711089516
-0.02102808669205492 -0.026845760279616143 0.007889093650282274
-0.025869967748251146 -0.03262284956499728 0.009189964268649783
-0.030661891701292902 -0.03819782922425704 0.010145136518937423
-0.03534033833748721 -0.04353222393063105 0.010650948149059827
-0.039838889094487025 -0.048611355062687545 0.010600394935561488
-0.04409227312418397 -0.05344837052001622 0.009909210904642418
-0.048043674037191376 -0.05808762977793511 0.008527450501313052
-0.05164354374773111 -0.06259769983315278 0.0064401462253692214
-0.0548434839552235 -0.06706179322299716 0.0036562272800524922
-0.057585896689691767 -0.0715629961307574 0.00020540005619576604
-0.059784169660749065 -0.07616224566485888 -0.0038420494178725627
-0.06138850239739574 -0.08090825935202077 -0.008342973316743368
-0.0623883240049542 -0.08585316203345816 -0.013195518210391517
-0.06275496257465178 -0.09099587042524201 -0.01830541382442913
-0.062478090243041004 -0.09630429930620545 -0.023576530288857128
-0.06157183076003514 -0.10173936704467398 -0.02892904496530873
-0.06006848971555495 -0.10727337646510056 -0.034300525949665504
-0.058013290662481024 -0.11288827043277676 -0.03962425011134811
-0.05547621936269476 -0.11856014285588459 -0.04479765746731822
-0.05256652143943119 -0.12424139728196008 -0.0496735656095166
-0.049427462317057295 -0.12985305690092142 -0.054083011467694335
-0.04620999594110063 -0.1353000712227219 -0.057871080248793144
-0.04305334778946917 -0.14049448298316622 -0.060903444129431494
-0.040090938428350216 -0.14534035164251868 -0.06303255544810521
-0.03748344791840616 -0.14968734890117394 -0.0640974115284509
-0.035373316129945896 -0.15335047746020952 -0.06405235396308911
-0.033783046730811984 -0.15624771048853764 -0.06302067263051715
-0.032610170840664525 -0.1584659201192256 -0.061170426845156556
-0.03174588328910621 -0.16015034249235569 -0.058523143802368935
-0.031137539701934412 -0.1613480885471046 -0.05502314387425806
-0.030765240590551836 -0.16206319071948264 -0.05065160052186137
-0.0306243566256364 -0.16231703358854954 -0.045455218555381
-0.030708429841577893 -0.1621672843519365 -0.03956875330847374
-0.03098863411472179 -0.16171420808688636 -0.03322572108803274
-0.0314043250278875 -0.1611067720277076 -0.02674274565720073
-0.03186514089253293 -0.16053700186314807 -0.020394355467036798
-0.0323034547638248 -0.16017337674849672 -0.01424293201150425
-0.03268187368216236 -0.16013064292068013 -0.008244696986205478
-0.03296540881911697 -0.16050522938708114 -0.002331245455438514
-0.033123150877172824 -0.16138647459474265 0.003572147386664006
-0.03312950747508982 -0.1628601857170513 0.009525767298904999
-0.03296594564471935 -0.1650064714177606 0.015560321195710908
-0.0326291012154548 -0.1678961051784994 0.021667239200421858
-0.032136888646399575 -0.17158401477112922 0.02780270170039594
-0.031518165337314004 -0.1761206182602158 0.03390777008202445
-0.030803114441096967 -0.18154356875120736 0.03989651595082771
-0.03002685321924019 -0.18783566146865163 0.04565611598521775
-0.029230125745073745 -0.19491835190010118 0.05109000797163856
-0.028450799987484097 -0.2026863539384895 0.056141077645334304
-0.027715876908673973 -0.2110240990219604 0.06078612167759249
-0.027034930459118568 -0.2198091799865326 0.06503056418436823
-0.026397343034770884 -0.22890473018589713 0.06890444289540253
-0.025772947756582246 -0.23815189365513467 0.07246135708244232
-0.025116493554464298 -0.24737969129716558 0.07578304210511037
-0.024371764859434833 -0.25643158570841856 0.07897928512739884
-0.023470788185871977 -0.2651977272156477 0.08218063156933386
-0.02233134499489851 -0.27363616070026847 0.08551413870740673
-0.020871892488821108 -0.28175474320426325 0.08906863609798163
-0.019021324199967472 -0.28957675171255315 0.09289119600693832
-0.016718486095525998 -0.29712059632730575 0.09698940481695628
-0.013917728480150387 -0.3043880923488142 0.10133568553431091
-0.010591288830767511 -0.3113580924700879 0.10587755901859963
-0.006729195624350116 -0.3179870992656883 0.11054499710953615
-0.002338708791847082 -0.32421673332704376 0.11525970397837478
0.0025605580644514165 -0.3299890456016874 0.11994761046437118
0.007946246150791484 -0.33525934666622165 0.12455056228887722
0.013797610185323847 -0.339993699991353 0.12903112245518045
0.020093093498050493 -0.3441679358252684 0.13337332464743892
0.026806213931469362 -0.34776738738068846 0.13758285908780843
0.03390271183555318 -0.3507861830384885 0.1416886297763148
0.04133983432638946 -0.3532251397510758 0.14574068740301624
0.04906522361577656 -0.35508868821268935 0.14980093083934898
0.057017490720194394 -0.35638517543421944 0.15393091932367678
0.06512920405919091 -0.35712947568891623 0.15817859788541971
0.0733331473986781 -0.357348644618095 0.16257182135898823
0.08156697353426855 -0.3570829402325261 0.1671170736735263
0.08977501497501067 -0.3563886510786766 0.1718020428500804
0.09790614791186789 -0.3553345210277079 0.17660295460362518
0.10591212514751791 -0.353999846608195 0.18148528997173585
0.1137494343419493 -0.3524704723751931 0.1864096351349314
0.1213845316089269 -0.3508360279115675 0.1913394716719595
0.12879934091078765 -0.3491809192397158 0.1962486398569828
0.13599491825083593 -0.3475745080584675 0.20112751275187674
0.14298571225652967 -0.34606517153728655 0.20597982279932098
0.149788154910096 -0.34468145315678417 0.21081410725472302
0.15641359930244716 -0.34343992796180095 0.21563723501960302
0.16286837216410452 -0.34235458783265904 0.22045007664971306
0.1691567691977052 -0.3414467029822065 0.22524867017878528
0.17527924991572494 -0.3407517725151784 0.2300264879478943
0.18123022849599674 -0.34032413830771713 0.23477399896935075
0.1869962154085601 -0.3402329381009701 0.23948379481172288
0.19255854560566696 -0.3405538183064348 0.24415072669929963
0.19789594514118578 -0.34136371036479735 0.24877336671497388
0.20298749250234344 -0.342735631832076 0.2533544600244182
0.20780895704364644 -0.3447358106741809 0.2578978181312918
0.2123295832042578 -0.3474194554263076 0.26240914658538694
0.2165039431193358 -0.350823137725245 0.2668927029430647
0.22026707968619025 -0.35495571146684884 0.27135045111793443
0.22353944892083488 -0.35979094832972397 0.2757776666120002
0.2262419254421284 -0.36526323471315886 0.2801627714103587
0.2283205573637532 -0.37128422220786056 0.2844941215309507
0.22975325418413511 -0.3777622769623109 0.2887680132273819
0.23054676860982523 -0.3846103000347831 0.2929860034034233
0.23073642371251807 -0.3917354006180918 0.29714434801508477
0.23039419161690042 -0.3990275992815585 0.301228401977602
0.2296315346959554 -0.40635767804256473 0.3052178182451214
0.22858789962573176 -0.41359046020351453 0.3090923606848021
0.22740471684523322 -0.42060492027013413 0.3128399662192491
0.22620249335332482 -0.42731941893093256 0.31645751625799995
0.22506323903603304 -0.43371279204197316 0.3199575213575405
0.22403164385151156 -0.43981699284021103 0.3233703524307991
0.22313419487435596 -0.4456685451562823 0.3267271921379606
0.22239610555791658 -0.4512438106910418 0.33002083022730727
0.22184206075588825 -0.4564377376104424 0.3331684754638191
0.22148392877552098 -0.461120912319368 0.3360368326728778
LINES 1 120
119 0 1 2 3 4 5 6 7 8 9 10 11 12 13 14 15 16 17 18 19 20 21 22 23 24 25 26 27 28 29 30 31 32 33 34 35 36 37 38 39 40 41 42 43 44 45 46 47 48 49 50 51 52 53 54 55 56 57 58 59 60 61 62 63 64 65 66 67 68 69 70 71 72 73 74 75 76 77 78 79 80 81 82 83 84 85 86 87 88 89 90 91 92 93 94 95 96 97 98 99 100 101 102 103 104 105 106 107 108 109 110 111 112 113 114 115 116 117 118
POINT_DATA 119
SCALARS Curvature float
LOOKUP_TABLE default
-0.01101722066295755
-0.011774211061598464
-0.0042611488157201565
0.012279568244272327
0.03746697300107741
0.06971817111764149
0.10635225056690314
0.14385697776357154
0.1782909485877224
0.20577389382711733
0.2230035651515602
0.22773116185715497
0.21912971126646152
0.19800112625920174
0.16678658399337135
0.1293691082535887
0.09068374260385885
0.05617605278115821
0.031170552144730933
0.02022418083365602
0.026544264625839815
0.05154467664337884
0.09459875022578543
0.15302460334597084
0.22231071313526632
0.296560275268969
0.36910578265473043
0.43322380694055995
0.4828669250758205
0.513326815898818
0.521750199938551
0.5074466142006173
0.47195187974440395
0.4188404501612663
0.3533099721086392
0.28158859064590974
0.21023641439089735
0.1454245471661962
0.09227675478930254
0.054350040334826655
0.03331234203875081
0.028850599243077424
0.03881375937832577
0.05956656394363086
0.08650475994389022
0.11466384510243885
0.139343790546122
0.1566724496052422
0.16404032696368243
0.16035758184721874
0.1461080748829609
0.1232017514994161
0.09465222869750624
0.06412784636775669
0.03543899778897147
0.012030551197855491
-0.0034549463880532622
-0.00948918614045486
-0.00580936262569557
0.006604522175011391
0.025716103899665457
0.04875120876394246
0.07260033765925138
0.09424734574755825
0.11116510080502169
0.1216254896313139
0.12488469545692253
0.12122317070697936
0.11184052939438734
0.09862577415780134
0.08384008914402744
0.06976062367798104
0.058337831765610935
0.050915587736292095
0.04805308140930603
0.049471963616674046
0.05413363670940338
0.06043262797610664
0.06647532657419504
0.07040133047760387
0.07069888735194932
0.0664671719876745
0.05758617813565629
0.04476861769774948
0.029485441767198393
0.013774957548212523
-3.7601635560806215e-05
-0.00967018200733768
-0.01321651114716401
-0.009433438691783619
0.0020585164877543333
0.020690805929316776
0.04499173962190433
0.07275547145064416
0.10131241390209449
0.12786407063647218
0.14983613826496203
0.16520109694458443
0.17272576649946197
0.17210986209999476
0.16399696115188525
0.14985732543654273
0.1317601611120392
0.11206856968647812
0.093101408198175
0.07681095332787209
0.06452295001900793
0.056776604631227905
0.05328759360344422
0.05303922607796976
0.054488056817091395
0.05585318470721721
0.05544566224583696
0.0519877816062965
0.04487254657765397
0.03432143517692296
0.02141262698598009
0.007970329479835893
-0.0036738495337316083
