# vtk DataFile Version 2.0
Vessel Segment
ASCII
DATASET POLYDATA
POINTS 119 float
-0.0032781912865372264 -0.004208386850019678 0.0015200242810253927
-0.0071839058113521564 -0.009142809181332676 0.003285564802736514
-0.011569254761617988 -0.014659073926423932 0.005178126460936041
-0.01625110569363447 -0.020515845117885755 0.0070105608342682195
-0.021062760130855947 -0.02644768174109188 0.00864539811135292
-0.025899056839809767 -0.03228708594583646 0.010009153250346594
-0.030694354439990072 -0.037948804134187164 0.011031243634696937
-0.03539454598086217 -0.043391136189302404 0.011621158450771538
-0.039940916482125326 -0.04859925143045093 0.011676003895428569
-0.04426943126643526 -0.053585736498469184 0.011106353264358002
-0.0483153344463149 -0.05838927614872291 0.009854744252409195
-0.05201814113227365 -0.06307121358515407 0.007905538326384944
-0.05532372498936336 -0.06771323984229012 0.005269540612610079
-0.05817318461928401 -0.0724014645826745 0.0019702276220131486
-0.06047254640521231 -0.07719737139930213 -0.001933414674213649
-0.06216880132522947 -0.0821530786391463 -0.006302173163322432
-0.06325214541640521 -0.0873295480032535 -0.011042797470309517
-0.06368880068648464 -0.09272673165807521 -0.016065039409781302
-0.06346572785528769 -0.09830873093343487 -0.021270756166541623
-0.06259752086532218 -0.10403017754990888 -0.02657798500541716
-0.06111837820563207 -0.10985707329250083 -0.03192244602614015
-0.059074982304476095 -0.11576729513327837 -0.03723532360481265
-0.056537861776974674 -0.12173347855243215 -0.042410056796650136
-0.05361712009500424 -0.12770296184527796 -0.04729460196259435
-0.050455113807631714 -0.13359223159065386 -0.05171912031333806
-0.04719590018229098 -0.13930837189569448 -0.05553262028736413
-0.04396875803989969 -0.1447711424702333 -0.05859790064603369
-0.04090363488952442 -0.14988361724812901 -0.060743586760996254
-0.0381775899347783 -0.15447658556666116 -0.061766429323130326
-0.03595793226903797 -0.15833819027480872 -0.061592168130400825
-0.03427765393978951 -0.16137241778693234 -0.06033902317846489
-0.0330289120445626 -0.16366711536341924 -0.058174496898670214
-0.032099912152429785 -0.1653628060003502 -0.05511223766617942
-0.03143675994925687 -0.16649477684675074 -0.051103995458408734
-0.031016560875819516 -0.16706958837773886 -0.046152762717031254
-0.03083181972945548 -0.16712814165444392 -0.040337890786129225
-0.030870202064569592 -0.16676142296516297 -0.033841154764950636
-0.031091235059344486 -0.16611312176207782 -0.02695396797448804
-0.03142032511354938 -0.16537892198908372 -0.020048333612748263
-0.03175554294891337 -0.16478898301401954 -0.013415951156822481
-0.032032150125575656 -0.16452359956050558 -0.00706821052660251
-0.03222381887828382 -0.1646911464216888 -0.0008994815909956957
-0.03230187065995354 -0.1653853611043618 0.005207012625942262
-0.032237402654457306 -0.166701723687397 0.011360497154437097
-0.032004671236548744 -0.1687377150727539 0.017637491767406935
-0.03158572959294166 -0.1715830441165695 0.024064057206669674
-0.03098307321934921 -0.17530799753396156 0.030608020661231673
-0.03022791152681098 -0.17995264620681012 0.0371929530462587
-0.029363064961863146 -0.18555021928804527 0.04373634859009506
-0.028428106078942313 -0.1921279293033201 0.05013660904176803
-0.027465960422597403 -0.19965384740476494 0.0562638666964542
-0.02652508078137124 -0.2080222474063001 0.06200730304877297
-0.025649174599814466 -0.21709558680346433 0.06730470039443792
-0.024867678119418198 -0.22672726597260606 0.0721360965803984
-0.02418815062706446 -0.23676663400829426 0.07651464946579314
-0.023593724007843115 -0.24704807058653785 0.08047970822769976
-0.0230445098535261 -0.25738087916557884 0.0840965399823869
-0.022482932635749037 -0.26756366604517223 0.08746434067561265
-0.021838354554224903 -0.27741922529683755 0.09071846580346578
-0.021025422656466338 -0.2868350690871983 0.09402207888335835
-0.01994090842778375 -0.29578889036075995 0.0975340166921505
-0.018484552681668435 -0.3043210387300565 0.10136389218885336
-0.016571251113845085 -0.31248760919345475 0.10557032913398712
-0.01412859161352672 -0.32033438513963436 0.11016322851328486
-0.011103354045110047 -0.32788072913721006 0.11510575308879374
-0.007464101753963339 -0.33511154481187067 0.12032519084930807
-0.003201161830830683 -0.34197984880636334 0.12572212687188658
0.001673671363317258 -0.34841768819362623 0.13118344659266415
0.007133221585961492 -0.35435640065695256 0.13660035954910957
0.013147258125613454 -0.35974295397440403 0.14188547234940835
0.019688417492692387 -0.364537076507559 0.1469803289512943
0.02672917137372121 -0.36870975861385796 0.15185632540680927
0.0342360667028171 -0.3722425316906437 0.15651446586854428
0.04216578902730119 -0.37512715650276074 0.16098714189977234
0.05046487705808875 -0.3773635406077473 0.1653360504504928
0.059069152471189934 -0.3789552362845344 0.16964132958826098
0.06790330997091738 -0.37990964231736896 0.1739856062704637
0.07688336328955776 -0.38024238187845605 0.1784362642343604
0.08592421538034353 -0.3799853132083778 0.18303665862226615
0.09494548766041731 -0.37918783210748147 0.1878038110036032
0.10387383914089908 -0.37792022099139083 0.19272993667311103
0.11264164126030288 -0.376269464346345 0.19778995740738425
0.12118701354519922 -0.37433681157460047 0.20294194130389007
0.12945818863941816 -0.37223158443414966 0.20813482933221164
0.1374213563053558 -0.3700656983803291 0.21331924906124752
0.1450681164923533 -0.3679400713432954 0.21845880576643673
0.15241909237900583 -0.3659307238300543 0.2235395215565992
0.15951427424029013 -0.3640819403459163 0.22856713464444314
0.1663961157155761 -0.36240987658447094 0.2335566285558495
0.17309869065710515 -0.3609150221543273 0.23852318493554348
0.17964674622833043 -0.35959544648328395 0.24347605887282775
0.18605890012643203 -0.35846111566994704 0.24841890242822381
0.19234503306521059 -0.3575439031431802 0.25335168589419177
0.19850252291202317 -0.3569043896016164 0.2582693500299803
0.2045131380237094 -0.35662637469437436 0.263166642913415
0.21034792296356786 -0.35680445125816435 0.2680382224330623
0.21597312649225847 -0.3575352032828273 0.27288126700295723
0.221356335665243 -0.358909603224505 0.2776972746355981
0.22646318984267155 -0.3610095865242657 0.2824889205304704
0.23125356456840718 -0.3639038206965531 0.2872611166871712
0.235670643193195 -0.3676390861205519 0.2920164853209681
0.23963423974711612 -0.3722288339928482 0.2967543386091425
0.24304631976182733 -0.37764332415903124 0.3014663251047207
0.24580855894136167 -0.38380306262279146 0.3061372036758983
0.24785190933717258 -0.39059820091422487 0.31075326494663574
0.2491454121522062 -0.39791134313067383 0.31531118449654616
0.24969466185520217 -0.40562728358950995 0.3198141347259587
0.24954391442105933 -0.41362070954179014 0.32425855950830185
0.24878750077005402 -0.4217441617839671 0.32862707957426285
0.24757224698517827 -0.4298288971167819 0.33289501847094966
0.24607901018423256 -0.43770553323196654 0.33703789237768567
0.24448564922373817 -0.44523096468557316 0.3410404944950364
0.24293668153594866 -0.4523180578807668 0.34489676865676944
0.24152218647391624 -0.45895875069483777 0.3486179899081407
0.24028187953045768 -0.4652121352942506 0.3522361114862071
0.23923111882133916 -0.4711455819816228 0.3557841418985664
0.2383841937703422 -0.4767606468404092 0.35925114689366755
0.23775730909025847 -0.4819690762916498 0.3625419136005751
0.23735535601132116 -0.48665079543342143 0.3655077924756476
LINES 1 120
119 0 1 2 3 4 5 6 7 8 9 10 11 12 13 14 15 16 17 18 19 20 21 22 23 24 25 26 27 28 29 30 31 32 33 34 35 36 37 38 39 40 41 42 43 44 45 46 47 48 49 50 51 52 53 54 55 56 57 58 59 60 61 62 63 64 65 66 67 68 69 70 71 72 73 74 75 76 77 78 79 80 81 82 83 84 85 86 87 88 89 90 91 92 93 94 95 96 97 98 99 100 101 102 103 104 105 106 107 108 109 110 111 112 113 114 115 116 117 118
POINT_DATA 119
SCALARS Curvature float
LOOKUP_TABLE default
-0.006574756365748626
-0.007876206249280954
-0.0012405632114050086
0.014063486797590796
0.03766142366965141
0.06802019744905376
0.10255744137390153
0.13790632849703935
0.1703079263830133
0.19608411529010203
0.21213108536770917
0.21636804956947753
0.20807904233814303
0.18809732464069862
0.15880065741020585
0.12390923713437932
0.08810342321582176
0.05650224042563369
0.03406285477314396
0.02497318969559929
0.03211286445227495
0.05665112861018771
0.09783509415909325
0.15299914653845403
0.2177996992167711
0.28665178275534536
0.35331882853430635
0.41158762878759164
0.45594933001627486
0.48220591303835036
0.4879301670389561
0.47272464836918593
0.4382493608020691
0.38801587307789354
0.32697379710429747
0.26094045509256075
0.19594306124595032
0.13755255122092874
0.09028814076339949
0.05716187151040231
0.03941413434113277
0.03646683775998864
0.046093646685851426
0.0647800300213949
0.08822308623632362
0.11190508437778426
0.13166728211025916
0.14421264340239387
0.1474771325293006
0.1408277134247871
0.12506851139274558
0.10226168859792388
0.07539316398767341
0.04793234959050586
0.023347206169954574
0.004639720729726943
-0.006037922779958547
-0.007638826717047846
-0.00031941547236056877
0.014627195952418681
0.034987498828873385
0.05795896509053854
0.08054752068983845
0.09997475556976651
0.11403896207906872
0.12138214218432893
0.1216294993347917
0.11538653095604394
0.10409902397908155
0.08980022186920093
0.0747845876950221
0.061256912100287796
0.05100782243090112
0.04516184216281148
0.04403283215493239
0.04710559898829046
0.0531439975577461
0.060407609085686195
0.06694360596825455
0.07090987046174993
0.07088125450476425
0.06609358836831886
0.0565892303866827
0.043242259156835126
0.027658792774632256
0.011965905767293344
-0.0014813410588373945
-0.010433401475949363
-0.013072945422504825
-0.00828816096894474
0.004146618432925555
0.02350934946512171
0.04819753049136081
0.07591597951664755
0.10395993541977404
0.12955487531147852
0.15020643587644347
0.16401235441835818
0.16989362437213307
0.16771336078921986
0.15826761640322487
0.14315037176931303
0.12451261499591187
0.10475033028578992
0.08616621394710801
0.07065359602602306
0.05944781501904965
0.052980590220169835
0.050858095368212085
0.05196552859155565
0.054682519012393696
0.0571773334575846
0.05773590606296244
0.055075969019414
0.0485979220296176
0.03853245930066332
0.025959303077082566
0.012689743983794424
0.001025534735169824
