# vtk DataFile Version 2.0
Vessel Segment
ASCII
DATASET POLYDATA
POINTS 119 float
-0.0032203788462220146 -0.004799555347965873 0.0008345363730877009
-0.007101495678552314 -0.010192259704367487 0.00203116759534122
-0.011482828834862797 -0.01596530566270405 0.0034710334720969727
-0.016173784043670807 -0.021877940538568903 0.004973453935772847
-0.021005855731487666 -0.027722233094464636 0.006377268153382772
-0.025859650598889568 -0.033377014660477614 0.007553907580540942
-0.030645810287394104 -0.03878214759613445 0.008377428686475069
-0.035282749911034146 -0.04390637478288776 0.008718637019182057
-0.03968995803921641 -0.04873645717869893 0.008462984828716439
-0.04380106531801587 -0.05328778606568542 0.007536151274886555
-0.04757543714316907 -0.05761621139792221 0.005901121746041411
-0.050984500748322815 -0.061804105169714206 0.0035412426080144934
-0.05398965818677149 -0.06593689225080909 0.00045916876728047855
-0.05653359863757349 -0.07009013364755767 -0.0033031679803921517
-0.05854207704834607 -0.07432150739122861 -0.007650600924275745
-0.05997165193457665 -0.07867316658261175 -0.01242976832562067
-0.06081100983747777 -0.08318099532310025 -0.017519600491128925
-0.06104188415517294 -0.08784220723780323 -0.022816907148944514
-0.06065951081880981 -0.09263221727806402 -0.02822953683972475
-0.05967738260631373 -0.09752381277919278 -0.03368193500652743
-0.05812450288290326 -0.10250103810168233 -0.039115393059179965
-0.056043647553735775 -0.10755350279920359 -0.04446748319745298
-0.05350403040707928 -0.11266399915093918 -0.04964371981178245
-0.05061345714770297 -0.11779469846566068 -0.054506574323844946
-0.04751730505625313 -0.12287535356436259 -0.05888870229451779
-0.04438025901449376 -0.1278071199089637 -0.06262740054767782
-0.0413604334960423 -0.13248800217002268 -0.06559420179231736
-0.03859639696858905 -0.13682478079614963 -0.06768792784356098
-0.03621543792363734 -0.14070433900732657 -0.06882827682899176
-0.03431077818936028 -0.1439953538929424 -0.06902210455964046
-0.0328834652981137 -0.14664498839254964 -0.06839392686709417
-0.03184348868039156 -0.14873063674981704 -0.06709837254467166
-0.03109281137747537 -0.15039022525948015 -0.06517009658898466
-0.030581905321763726 -0.15168735294223373 -0.06255414360121275
-0.030294196856148283 -0.1526280930361758 -0.05920468155742679
-0.030228992305195757 -0.15320780947312407 -0.05511604606227069
-0.030390488557533134 -0.15343175062841793 -0.050340755292905034
-0.030772466895368368 -0.1533256125198756 -0.04500588120013096
-0.03134346431554612 -0.15295104851357286 -0.0393196607641914
-0.03203955894299454 -0.15241976445872205 -0.03351135198326366
-0.032789319747727905 -0.15186671846526867 -0.027723784789485475
-0.03353104760497366 -0.15141717162055954 -0.02201962349543706
-0.034211508252402566 -0.15118269838497847 -0.016415756584135893
-0.03478858968287037 -0.15125910250199529 -0.010901125993779834
-0.03523098978809589 -0.1517289245543425 -0.005450818328228913
-0.03551697039183511 -0.15266524515002095 -3.633504712329157e-05
-0.035635287297842384 -0.15413813461488562 0.005363485023950649
-0.0355863465049338 -0.15621700877855274 0.010751868365833582
-0.03538030012423016 -0.15896854923367384 0.016105593990004545
-0.03503466541494593 -0.16243854282994746 0.021366488075647193
-0.0345731805232334 -0.16662843908764705 0.026455905429557214
-0.03402425393158347 -0.17150127747860816 0.0313080362497567
-0.033415452234958086 -0.17700399224923485 0.0358804905419805
-0.032768392109272494 -0.18307359182346858 0.04014957450557429
-0.032094368846021105 -0.18963780472584366 0.04411141912636139
-0.03139156801970885 -0.19661246476566605 0.04778297361719082
-0.030644646424684244 -0.2038978292577967 0.051199508710801894
-0.02982809182169368 -0.21138040251297327 0.054412630498694346
-0.02891016572263787 -0.2189447268561841 0.05748518751795558
-0.027854529515917114 -0.2264909524635898 0.060485218969369155
-0.0266192666870558 -0.2339486520547676 0.06347743015133372
-0.025159309691850967 -0.24127484038829264 0.06651091315287783
-0.023429518265902637 -0.2484397426759015 0.0696144636886066
-0.02138724796059586 -0.25541478374581006 0.0727975441361231
-0.01899737468950757 -0.26216840862585533 0.0760553050085862
-0.01623613403372063 -0.26866438649696717 0.07937469558671316
-0.013092018889784663 -0.27486083353339813 0.08273764348163296
-0.009564884213014848 -0.2807128340109673 0.08612458160155188
-0.005662701710365534 -0.2861793754175006 0.08951891065674385
-0.001395873343629465 -0.29122993067596536 0.09291089125615311
0.0032253833182857477 -0.29584247780834155 0.0962986103370331
0.008190197900261199 -0.30000290735439455 0.09968839219337149
0.013485773051869678 -0.30370495577278606 0.10309514858103999
0.019095772755115644 -0.30694813570431684 0.10654281781254239
0.024997967988844728 -0.3097352227951546 0.11006177900066542
0.031161675285898627 -0.31207187649737334 0.11368216310227974
0.037549801381707854 -0.31396762904188963 0.11742834415311616
0.04412297683313763 -0.31543588139417433 0.12131368671451877
0.05084395116733613 -0.31649558726536353 0.125338198576701
0.057680834584351144 -0.31717184334385906 0.12948919955688046
0.06460844351488039 -0.3174978124712487 0.13374585526454424
0.07160505509779595 -0.31751196323325337 0.13808620612960096
0.07864774533310856 -0.31725662371529045 0.14248831900296047
0.08570950619026768 -0.31677711165742756 0.14693280540654302
0.09275909979870715 -0.3161230599729671 0.1514053297412162
0.09976230681726284 -0.3153471301331445 0.15589755345768455
0.10668503150469749 -0.31450295602135575 0.16040768113687157
0.11349458883096819 -0.3136423231073576 0.1649363680943026
0.1201588331770746 -0.3128134050449465 0.16948129660673622
0.12664655346843395 -0.3120607532600116 0.17403497160466677
0.132929742570216 -0.31142712527422906 0.17858351140192052
0.1389862779049918 -0.3109542795250061 0.18310927267732333
0.14479966264222088 -0.3106838227950241 0.18759378000209817
0.15035942496751456 -0.3106579041980594 0.19201894282988255
0.15566123723884248 -0.31091824071571994 0.19637277077624266
0.16070552955672504 -0.31150550518838077 0.2006498150245483
0.16549417826470547 -0.3124603884495187 0.20485082629105666
0.1700281838221556 -0.3138227893576693 0.20898112799508275
0.17430354952600569 -0.31563057752648305 0.21304781367576406
0.17830872828171798 -0.31791623868737856 0.21705993528883832
0.18202062837310187 -0.3207014456473652 0.22102670488141107
0.18540217776589515 -0.3239915168504663 0.22495625000528835
0.18840590288195166 -0.3277710763383914 0.22885082511625246
0.19098472712879805 -0.3320022988682209 0.23270508207777857
0.1931089212335984 -0.336635924347428 0.23651030499329975
0.19476996364177768 -0.34162480059465006 0.24026132269966471
0.19597570220314767 -0.3469288619597421 0.243956243050228
0.19674662246199173 -0.35250879560763165 0.24759065568038457
0.1971183801171152 -0.35831681729759696 0.251154487426006
0.19714461200951536 -0.36429054824267737 0.2546346320252957
0.19689556794177165 -0.37035500714309366 0.2580177048984631
0.19644940576604494 -0.376431554715603 0.26129636968746617
0.19588179597480548 -0.38245417027273776 0.26447188196421834
0.19525563998468043 -0.38838432334861817 0.26755845516426363
0.19461939251283017 -0.39420884042071963 0.2705837170003868
0.19401587029046474 -0.39990892413879586 0.27357631571663704
0.19348826071088773 -0.40541349074543687 0.27653717880652284
0.19307617163992333 -0.4105845385715687 0.279408079243371
0.19280423467464997 -0.41527397995294557 0.28208611534186573
LINES 1 120
119 0 1 2 3 4 5 6 7 8 9 10 11 12 13 14 15 16 17 18 19 20 21 22 23 24 25 26 27 28 29 30 31 32 33 34 35 36 37 38 39 40 41 42 43 44 45 46 47 48 49 50 51 52 53 54 55 56 57 58 59 60 61 62 63 64 65 66 67 68 69 70 71 72 73 74 75 76 77 78 79 80 81 82 83 84 85 86 87 88 89 90 91 92 93 94 95 96 97 98 99 100 101 102 103 104 105 106 107 108 109 110 111 112 113 114 115 116 117 118
POINT_DATA 119
SCALARS Curvature float
LOOKUP_TABLE default
-0.010587994084446158
-0.01066801782953719
-0.0022415783795130067
0.015526910288056434
0.04232652182237709
0.07660698537412663
0.11565594392425395
0.15584750185196575
0.19303938552498262
0.22307421104863723
0.24232363297354048
0.24820499905021168
0.23960007100706734
0.21711472374436877
0.1831363872845887
0.14167026991928983
0.09796310987744097
0.057950824686173866
0.027590359571209918
0.012153068001964393
0.015564699299428844
0.03987428035960051
0.08492095409959545
0.14824561361464483
0.22526556620022842
0.30969895423854193
0.39419515488981854
0.47110171192693595
0.5332807934392649
0.5748810052271728
0.5919746217673975
0.5829855009383629
0.5488573219611846
0.4929423668068806
0.42062410467686295
0.338718272978063
0.25472311075426596
0.17600671295565654
0.10902604488183125
0.05866724298696336
0.027781125519004912
0.016963380627842008
0.02459880297460191
0.04715699898012821
0.07969715116840029
0.1165153827338982
0.15185287687256663
0.1805779307998105
0.19876097055723232
0.20407725530222126
0.19599536533873652
0.17573747462556014
0.14602622116432978
0.11065903611495072
0.07397083992124653
0.04025767194779765
0.013235837628566952
-0.004396441117591523
-0.01124382946484544
-0.007316058417095177
0.006056664392039686
0.026474604639108223
0.05084445588404834
0.07582424767762667
0.09827446523379782
0.115654587763957
0.12631430396062984
0.1296452050894275
0.12607934444361207
0.11694275880778142
0.10419186946848435
0.09007594782453311
0.07677756560379459
0.06608412129737322
0.05913718141688859
0.05629357928089989
0.05711493053249542
0.06048299538754291
0.06481990777636878
0.06837730040080443
0.06954885552437802
0.06715806883466392
0.060677318119306614
0.05034496707915035
0.037162604033926995
0.022772357320595505
0.00923195595995098
-0.0012797331574056934
-0.00678371121796418
-0.005801429243985918
0.002409199900361859
0.017717302464744317
0.03910275583751389
0.06476357629227972
0.092332702443312
0.11917418552859414
0.14271737919877464
0.1607822350965796
0.17185005086546495
0.17524181790635396
0.1711795713861851
0.16072296432480768
0.14559126264968453
0.12789750347815496
0.1098342798238207
0.09335765014220754
0.07991596216291877
0.07026382918813943
0.0643889884450785
0.06156305688805261
0.06050865829906168
0.05965769990021606
0.05746131816274842
0.05270333097804874
0.04476730212868278
0.03381294764967332
0.020829949737780403
0.007554675402321643
-0.0037445577920031422
