# vtk DataFile Version 2.0
Vessel Segment
ASCII
DATASET POLYDATA
POINTS 119 float
-0.0032268133678493333 -0.005691918541220614 -3.767554077361045e-05
-0.007127520709426134 -0.011732407357744942 0.0004576523414959977
-0.011530943687857627 -0.017855406718523606 0.0013521729568201398
-0.016244462905750382 -0.023849703882147723 0.002462635636927374
-0.021105789078502444 -0.02959642245158048 0.00359425408397216
-0.02598375484156917 -0.035038726666710235 0.004552139169549992
-0.03076318622125946 -0.04015009830445646 0.005145590290950717
-0.035332598930928896 -0.044914794600156224 0.005201690009095105
-0.03959053448933719 -0.04932581521285031 0.004593820676575811
-0.04347300242420351 -0.05340595653652426 0.003263048425998798
-0.04696880555426048 -0.05723148514539946 0.0011873219906885471
-0.050083060768652495 -0.06090631333436823 -0.001664150349792651
-0.05278830998640489 -0.06451585105131813 -0.0053083964818410115
-0.05502021610394914 -0.06811731284100818 -0.009679824369492706
-0.056720941791004675 -0.07175727811842807 -0.014627138014134412
-0.057859369767481114 -0.07546796809580639 -0.019970301586734268
-0.05842576061785014 -0.0792615420591219 -0.025547165499625994
-0.058421429745426814 -0.0831340230225973 -0.031235566215862483
-0.05785187759453813 -0.08707412279972909 -0.03695059637095792
-0.05673021621258437 -0.0910739662809124 -0.04262427771806845
-0.05508093171285973 -0.09513611658149929 -0.048204561396945705
-0.05294387859786103 -0.09926241249434845 -0.05363720019636286
-0.05038792502728254 -0.10344679146148296 -0.058842739089716135
-0.04751924631778724 -0.10766768376827407 -0.06370099435692378
-0.04448812537665194 -0.11186949189005543 -0.06804708928056183
-0.04148391246332073 -0.11594819070794404 -0.0717044812112298
-0.03869537909154529 -0.1197809169101024 -0.07455589693198411
-0.03626419704779943 -0.12328136765227485 -0.07657986325930005
-0.03425520124966777 -0.1264009654506258 -0.0778300031404375
-0.032674714111265414 -0.1291051683244721 -0.07839660541748482
-0.031482531583439624 -0.13140378848494177 -0.0783883854486227
-0.030613621432253317 -0.1333483231089834 -0.07789256453587365
-0.030006197703162055 -0.13501154158972842 -0.07693685093211935
-0.029625023519418016 -0.1364423877056579 -0.07549950305365329
-0.029452834816234223 -0.13765694424295702 -0.07354328050071164
-0.029487930565923463 -0.13864199188555987 -0.07101951497645531
-0.0297475324515959 -0.13935713617394296 -0.06787804959060395
-0.030262154209646033 -0.13973893290133735 -0.06408870961902803
-0.031056719416923083 -0.13971734015524842 -0.0596736654110517
-0.032128271792223384 -0.13924896758243235 -0.05474438482378042
-0.033411840592078246 -0.1383703439462302 -0.04951744768705278
-0.03480389525643598 -0.13720158859261433 -0.04419090278180954
-0.03620906582392657 -0.1358889486355529 -0.038895730696697474
-0.03754746465476452 -0.13457794215871105 -0.0337098682612558
-0.038756053079415986 -0.13340287631567302 -0.028667011091659894
-0.03978895493027715 -0.13248070675487003 -0.023765631909170047
-0.04061379133929608 -0.1319129248681713 -0.018982856014983056
-0.04120863627800189 -0.13179100715719724 -0.01429969386685049
-0.04156908728388618 -0.13218403442278553 -0.009731386648999339
-0.04171089460871863 -0.1331188839825405 -0.005314439611783849
-0.0416574610918526 -0.13458848580933383 -0.0010758966446050896
-0.04143180772469265 -0.1365786884945497 0.0029747259739471236
-0.041053502917377395 -0.13908007380636114 0.006833038810514546
-0.04053782524515064 -0.14208378502605326 0.01049399304589803
-0.039895420993841406 -0.14557865456737143 0.01395978504615614
-0.03913073686606907 -0.14955304674674957 0.01724559463825396
-0.038241624669807725 -0.15399412414760458 0.020373205243340076
-0.03722336675444416 -0.15887819598166708 0.023357640371228804
-0.03607527438255732 -0.16416151402126353 0.02619243145490944
-0.03480830698694075 -0.16977682069885713 0.028844631618357937
-0.03344605354947453 -0.17563698099103886 0.03127501832937262
-0.03200324157563384 -0.1816538359481409 0.03346948398743927
-0.030473803093373907 -0.18774609107546703 0.03543603767366803
-0.02883719957539094 -0.1938316112753086 0.037200695081580464
-0.027065293471689133 -0.19983026300435167 0.03880672813759289
-0.025132623236736026 -0.2056719067954549 0.04030823336556433
-0.023022031077473307 -0.21129890769418266 0.041764314304955544
-0.020724255676252336 -0.21666760151576356 0.04323486180189813
-0.018235863519596763 -0.22174703646402236 0.04477684668614059
-0.01555641976378492 -0.22651897849660416 0.04644111004193564
-0.012685154862658962 -0.23097804262418228 0.048270695641144175
-0.009617922889878372 -0.23513005324401243 0.050301841883233694
-0.006344674032385944 -0.23898930008640476 0.05256440427457007
-0.0028511478697200716 -0.24257065493367033 0.055079476684926014
0.0008741602087915909 -0.24588365922863029 0.05785384278484774
0.004834002308894789 -0.24893601149581168 0.060875027834655655
0.009025486289085437 -0.251737138686064 0.06411419299865183
0.013446064460069308 -0.254296423049702 0.06753262427780807
0.018096425300478596 -0.2566201877857287 0.07108603633570007
0.022983473312278416 -0.2587127036623022 0.07472939183019382
0.02812208487377376 -0.2605774377785582 0.07842519442542716
0.033531399674535764 -0.26221489887584637 0.08215041842782926
0.03922621295644841 -0.2636200106791134 0.08589811006237355
0.045206778973995054 -0.26478293870209035 0.08967510317753485
0.05144888525914479 -0.26569358252713876 0.09349722484049398
0.05789700866296645 -0.26635054924259893 0.09738180324109776
0.06446500155211651 -0.2667726195519882 0.10134041183532005
0.07104771194747288 -0.26700548372283534 0.10537266339041967
0.07753729655785477 -0.2671198925632383 0.1094640138844785
0.08383608750357552 -0.26720045995845754 0.11358864994599167
0.08986316799011748 -0.2673340758494881 0.11771269432623847
0.09555659513312598 -0.26759390942358224 0.12179891369768635
0.10087573677772074 -0.26802952103630906 0.12581076127971816
0.10580477594494592 -0.268661890143371 0.12971593902105083
0.11035488715092369 -0.26948871346086245 0.13349311091580263
0.11455623962121136 -0.27049631764922916 0.1371337572319791
0.11844678500242395 -0.2716700870887993 0.14064039104163778
0.12206363430843066 -0.2730005914141997 0.14402327299126141
0.12543893980352167 -0.2744863381124393 0.14729882814413006
0.12859715374817707 -0.2761333925348632 0.15048813850171935
0.13155464610185352 -0.2779534983489394 0.15361552033267206
0.13431817108043356 -0.2799614619975303 0.15670440790275003
0.13688510319544922 -0.28217136795826214 0.1597706558933627
0.13924864839227905 -0.2845945530076851 0.1628182509632365
0.1414055638515218 -0.287240645274634 0.16584045892504112
0.14335882201709618 -0.2901226194047248 0.16882628632819438
0.1451128729617956 -0.2932588054503192 0.17176469207991069
0.14666761702328174 -0.29667279366369265 0.17464587999986905
0.14801459836862443 -0.30038881399193545 0.17746139434722347
0.14913819140059445 -0.304424484482988 0.18020329466676105
0.15002300998248808 -0.3087839549380605 0.18286362139786724
0.15066314228752 -0.31345609836211114 0.18543914622870253
0.15106602904812774 -0.31841596341348755 0.18793625839258946
0.15125404138914267 -0.3236218659761121 0.19037199549972889
0.1512652966204881 -0.3290095147186989 0.1927719670549006
0.1511545293197598 -0.33448176500475263 0.19516480227110342
0.15098551403587293 -0.33989182492492054 0.1975690732126455
0.1508184942632229 -0.34504419516728624 0.19997064029660078
0.15069763059651126 -0.34975703864860436 0.20232058090797786
LINES 1 120
119 0 1 2 3 4 5 6 7 8 9 10 11 12 13 14 15 16 17 18 19 20 21 22 23 24 25 26 27 28 29 30 31 32 33 34 35 36 37 38 39 40 41 42 43 44 45 46 47 48 49 50 51 52 53 54 55 56 57 58 59 60 61 62 63 64 65 66 67 68 69 70 71 72 73 74 75 76 77 78 79 80 81 82 83 84 85 86 87 88 89 90 91 92 93 94 95 96 97 98 99 100 101 102 103 104 105 106 107 108 109 110 111 112 113 114 115 116 117 118
POINT_DATA 119
SCALARS Curvature float
LOOKUP_TABLE default
0.013417913649018932
0.012185626292730345
0.01926911896303823
0.03552327038735882
0.06078125620627952
0.09373134992609065
0.13193972509017435
0.17203027325820136
0.21001150233209503
0.2417196331945173
0.2633289381470618
0.2718677684720134
0.265673580959515
0.24472365867594312
0.21079010174073523
0.1673868844818901
0.11950116829936382
0.07312769636465632
0.03465064733784849
0.0101384821965976
0.0046312244137366254
0.02150424668831258
0.061987092299952785
0.12490049349892994
0.2066511685438646
0.3014948607713689
0.4020468611998224
0.4999897019042813
0.5869034610094322
0.6551282318582043
0.6985628482956345
0.7133097424526657
0.6980922895655284
0.6543963007449242
0.5863184998427108
0.5001381703582561
0.40365970643841365
0.30539978027982045
0.2137101517419974
0.13593375467862717
0.0776868629299707
0.042344522695363485
0.030781996454061558
0.04139471022224679
0.07038681880395707
0.1122879045134743
0.16063213532482495
0.20871734525015911
0.25035481414182453
0.2805245889998703
0.2958652494450065
0.2949491116423912
0.2783210812580224
0.24830824095218487
0.20863421137196897
0.1638941137802125
0.11896008107722854
0.07839223936236075
0.04592563396465014
0.024090616619145175
0.014004703205060203
0.015350576719543508
0.02653086180814972
0.04496862748679434
0.0675059553682009
0.09084325966207477
0.11196030125999813
0.12846587061871417
0.1388357757379189
0.1425160846301979
0.13988801899669678
0.13210977468001725
0.12086633553805175
0.10806904796037249
0.0955511010543933
0.08480279271774946
0.07678216065939304
0.07182363895951455
0.06965187488736013
0.06949201090200259
0.07025386994862477
0.0707574921152734
0.06996265872749535
0.06716592753773021
0.06213497778238591
0.055160646077190435
0.047020247132172135
0.038859598890637746
0.03201354770929315
0.027793908380371525
0.027278301561917104
0.031132785641655544
0.039495609772432654
0.05193976419917273
0.06751977244846717
0.08489522584108271
0.10251186344547822
0.1188123107061692
0.1324442102886281
0.14243406235590741
0.14830054589129682
0.15009059239478995
0.1483335907200151
0.14392197815653726
0.13793814907637253
0.13145628144320542
0.12535196893315953
0.12015172101772668
0.11594848506178237
0.11239915270820279
0.10880700192212639
0.10427812165487946
0.0979281799834665
0.08910641901029544
0.07759906253266381
0.06377531582454479
0.04864591653675336
0.03381600343119461
0.0213293756384079
