# vtk DataFile Version 2.0
Vessel Segment
ASCII
DATASET POLYDATA
POINTS 119 float
-0.0032367216485209706 -0.005919905136828252 -0.0002461792766468433
-0.007148131597327256 -0.012120022591137815 8.744790928858084e-05
-0.011560272160081392 -0.01832734946433006 0.0008593773594199948
-0.016280543606825806 -0.024342018127806484 0.0018830422975549517
-0.021149108030656966 -0.03006815432404779 0.002954828304178522
-0.026032958909162823 -0.03546455898295401 0.0038648970282754826
-0.030811590972123607 -0.0405126962260375 0.004408349169796414
-0.03536734201915177 -0.045200698251643356 0.004402877516596858
-0.03959486788761205 -0.049523552091826815 0.003719305340164953
-0.0434314105236688 -0.053506202696056486 0.0023014512547717813
-0.04687222531231245 -0.05722925729125661 0.00012892711300609887
-0.04992901007199519 -0.06080062377674267 -0.0028342531388008694
-0.052575500560386984 -0.06430481325544159 -0.006610870633107736
-0.05474457065559995 -0.0677941951231168 -0.011129350594809352
-0.05638139850434525 -0.0713123647982901 -0.016223376458428296
-0.0574579346443364 -0.07488984219416903 -0.02170551364119456
-0.057965323602968695 -0.0785345669153615 -0.027403429211898714
-0.05790941087153971 -0.08224272996048676 -0.03319024966501747
-0.0572979811279015 -0.08600600581139786 -0.038982727354763436
-0.05614414134553986 -0.08982053356465239 -0.04471453164139198
-0.054471584054498055 -0.09369259511889895 -0.0503350557970162
-0.05231975345166533 -0.09762647663013793 -0.05579195431148345
-0.049757619850722815 -0.1016184024170591 -0.061009235877001286
-0.04689116971092641 -0.1056501670263088 -0.06587059533707862
-0.04387198807265605 -0.10966926013326397 -0.07021162453734588
-0.04089492481835444 -0.11357080236463096 -0.07385273285713168
-0.03815498870436547 -0.11722800782370561 -0.07667929091364487
-0.03579344962597278 -0.12055636953501844 -0.07868698019763508
-0.03386082249855114 -0.1235211032559776 -0.07995748113256358
-0.0323444417594826 -0.1261092068658032 -0.08059863580298755
-0.03119442378954569 -0.12834711419912215 -0.08071507877413893
-0.03035123027779914 -0.13028219867415744 -0.08037365300277753
-0.029763825657724036 -0.13196597647409086 -0.07959169652677486
-0.02940277413197433 -0.1334332434313187 -0.07835457695846322
-0.029250230772238928 -0.13469864021712774 -0.07663560674415627
-0.029302533051534744 -0.13575137279176397 -0.07438703213263952
-0.029578135583864594 -0.13654924708889032 -0.07154544712614434
-0.03011460457300211 -0.13701791155515408 -0.0680527659872384
-0.03094996935662768 -0.13706389632345373 -0.06389184255670784
-0.0320976353794645 -0.13660836942173038 -0.05914181799681981
-0.03349759085099571 -0.13565856330517642 -0.05402362484078588
-0.035038850777457865 -0.13432645732315532 -0.04875627724693036
-0.03661667189941982 -0.13276286740994916 -0.04348989793513995
-0.03814111488451688 -0.13112587802285544 -0.03831764471151827
-0.03953889348628319 -0.1295675467350685 -0.0332836937758234
-0.040754487953578215 -0.12822446121175443 -0.028393207760525632
-0.041746475715055936 -0.1272161567191405 -0.0236282303299538
-0.042485050787471626 -0.12664810509101115 -0.018976343426387654
-0.04296249765558074 -0.12659449566853 -0.014461975790905149
-0.0431968920137726 -0.12707672730086259 -0.010124707181942524
-0.04321559085052547 -0.12807936698740285 -0.0059850072809150235
-0.04304440948949664 -0.12958367248195277 -0.0020425811258294665
-0.04270428476732855 -0.131579721918805 0.001706511264800589
-0.04221100101284281 -0.13406161060008556 0.005263704577013094
-0.04157555159556005 -0.13702447343099072 0.00863646310360372
-0.040802947298482696 -0.1404670067858619 0.011843895821563807
-0.039892212327369635 -0.14439095242448763 0.014908787863923745
-0.038841132049174255 -0.1487893643914367 0.017841567456913072
-0.03765399559195746 -0.15363351465834474 0.02062342057518994
-0.036350697613404814 -0.1588654536198966 0.02320165471967966
-0.03496780993623039 -0.16439981449008145 0.025516399991631522
-0.03353174062841588 -0.17014617626585724 0.02754143217753615
-0.032043597617421704 -0.17601976506615133 0.029281388625141503
-0.03048631661891914 -0.18193281318444918 0.03076637661819497
-0.02883209016368637 -0.1877973786004241 0.032049965200760706
-0.027054199074675003 -0.19353524707389044 0.03320017144891471
-0.02513391414941813 -0.1990820901788991 0.03429164464390826
-0.023060393839314262 -0.20439002355456484 0.03539965467366531
-0.02082875225250545 -0.20942593330428325 0.0365947848858908
-0.018437406134602548 -0.2141711599788748 0.037938539265752975
-0.015884179547019157 -0.2186226749421771 0.039481439374746886
-0.013162313929781937 -0.2227910540260854 0.041264595968684634
-0.0102572642016491 -0.22669655283411588 0.043320598175189885
-0.007148590051404079 -0.2303590831318621 0.04567072977203524
-0.003817978496792907 -0.2337907878321916 0.04831840416721476
-0.0002560291980203172 -0.23700012005259866 0.051243853273851725
0.0035408591684090683 -0.23999614502245872 0.054408122686278246
0.00757676435384346 -0.2427868209230783 0.057761779927476026
0.011858934415485314 -0.2453753348034349 0.06125074542803286
0.01640086505149393 -0.2477615500202628 0.06482232827992443
0.021224203085567866 -0.24994336949214177 0.06843452232998695
0.026355142614109723 -0.2519146999981409 0.07206304077986207
0.031815213824386894 -0.25366228033604005 0.07570297974348715
0.03760976304697409 -0.2551663080593727 0.07936561657147498
0.04371596245806886 -0.25640500644759656 0.08307227202203386
0.05007424428216705 -0.2573654637239984 0.08684537139488716
0.056588358242241496 -0.25805810330333956 0.09069971246717361
0.0631389573331486 -0.2585260289640569 0.09463564038414043
0.0696033724580004 -0.25884372412619877 0.09863718632270103
0.07587097988065249 -0.2591036474749954 0.10267572414644324
0.08185071016119805 -0.25940166924397173 0.10671401275969083
0.08747314857544197 -0.25981729434164336 0.11071130306217393
0.09269341175653541 -0.2604014747713626 0.11462761174051432
0.09749508386676574 -0.2611705913542417 0.11842768004649101
0.10189263403633761 -0.26211328250658117 0.12208787746148123
0.1059221090953591 -0.26320505002390826 0.12559852734738558
0.10962859406413655 -0.2644206276852622 0.12896213609277296
0.11305667469408429 -0.2657415854001089 0.13219010685008067
0.1162464426781617 -0.2671600052875726 0.13530153375249854
0.1192305640562779 -0.2686786874001325 0.13832123895255632
0.1220342023105464 -0.27030974251523 0.14127808211121926
0.12467322568891083 -0.27207207891951823 0.14419989503370437
0.12715353860583578 -0.2739872390504506 0.1471061248148861
0.12947520730415948 -0.27607691310089233 0.1500028700763531
0.1316386810086436 -0.2783620386107894 0.1528834242131528
0.13364761904311032 -0.28086629900029375 0.15573478642117014
0.13550457826505619 -0.28361760102147365 0.15854290642762361
0.1372049694660256 -0.28664892881303305 0.16129537283402726
0.13873241202838948 -0.28999457316864125 0.16398216889749975
0.14005970025432082 -0.2936833395473694 0.16659449694084177
0.14115746292911377 -0.2977315682634945 0.169124167520311
0.14200583371234873 -0.30214083269302633 0.17156834973483773
0.14259988511340088 -0.30689679286332355 0.1739346277293967
0.14295297365193887 -0.31196147414254616 0.17624111157595965
0.14309885270230627 -0.3172642710945974 0.17851374903282693
0.14309242539219028 -0.3226942716600333 0.18078208188594025
0.14300026593597018 -0.3280895131560731 0.18306923142221376
0.14288624894504767 -0.3332419762964869 0.18537096638658163
0.14279838242977935 -0.33796227582829336 0.18765027937064258
LINES 1 120
119 0 1 2 3 4 5 6 7 8 9 10 11 12 13 14 15 16 17 18 19 20 21 22 23 24 25 26 27 28 29 30 31 32 33 34 35 36 37 38 39 40 41 42 43 44 45 46 47 48 49 50 51 52 53 54 55 56 57 58 59 60 61 62 63 64 65 66 67 68 69 70 71 72 73 74 75 76 77 78 79 80 81 82 83 84 85 86 87 88 89 90 91 92 93 94 95 96 97 98 99 100 101 102 103 104 105 106 107 108 109 110 111 112 113 114 115 116 117 118
POINT_DATA 119
SCALARS Curvature float
LOOKUP_TABLE default
0.020503208679452437
0.01908967671622681
0.025965536370573843
0.04188919251999715
0.06664222626107152
0.09891604839667172
0.1363334921674016
0.17561672072936138
0.21289366573975047
0.24411571937640394
0.2655422161254037
0.2742348262363972
0.26849928208803225
0.24821400910744232
0.21499538135448784
0.17216656597105995
0.12451938711348591
0.07788369440631553
0.03854328486389484
0.012558362788201893
0.005069036223997007
0.019660363344590436
0.057865903317231945
0.11887368902887083
0.19947730841569566
0.29428769972976376
0.39619146486641266
0.49701252790352185
0.5883093357343268
0.6622225755287501
0.7122807817134653
0.7340742984993938
0.72572164281754
0.6880748923799275
0.6246397152150235
0.5412176752880691
0.4453097226287216
0.3453466087852903
0.2498311890597591
0.16648692628041345
0.10150533108539556
0.0589728123359686
0.04053600123333927
0.04533667389790012
0.07021630876227368
0.11015979608047151
0.15892146785283998
0.20975748104874867
0.25617878668729044
0.2926394057505909
0.3150851985255048
0.32130724170139635
0.3110688092872875
0.2860026187790622
0.24930202762596948
0.2052529974824939
0.1586702111289063
0.11430894918078517
0.07632352225235013
0.047833666978237
0.030643863464009352
0.025139360043470917
0.030359648089267544
0.044228191605625064
0.06389910221197699
0.08616928071818977
0.10789959223364425
0.12639118869644433
0.139672441264769
0.14666653795933107
0.14722746124594357
0.14205029825307483
0.1324781979205992
0.12024067855918671
0.10716493682699005
0.09490264701469625
0.08470966139132033
0.07730602469429675
0.07283043151207329
0.0708887049991491
0.07068217336815637
0.07119087663206294
0.07137979451994055
0.07039453840630808
0.06771624224805138
0.06325303901418286
0.0573562306511386
0.05076135649299345
0.04446599292322581
0.03956555381421181
0.03707425485700766
0.0377599633076219
0.04201875065906718
0.049808143058928805
0.060648445742468624
0.0736906295598833
0.08783880652685239
0.10190689856612548
0.11478400407880998
0.12558195769136474
0.13374179496527386
0.1390827605501892
0.14178704631707226
0.14232411648084067
0.14132858600917403
0.13945355302002588
0.13722574804643597
0.13492907392018197
0.13253893598570912
0.12972174802628086
0.12590329967866484
0.12039789149473835
0.1125791090733557
0.10206459362274785
0.088882631179283
0.07358873821194596
0.05730587724990258
0.04167194289404845
0.028691458620442884
