# vtk DataFile Version 2.0
Vessel Segment
ASCII
DATASET POLYDATA
POINTS 119 float
-0.0032595857054834657 -0.006345957640301612 -0.0006282816432595102
-0.007194607272750022 -0.01283975554322743 -0.0005847276348565165
-0.011625195908443547 -0.019200606587965106 -2.928857551493609e-05
-0.01635880987320875 -0.02525290591869707 0.0008425417756608507
-0.02124070839487519 -0.0309439799553412 0.0018101316772774333
-0.02613533788398277 -0.036261194090449894 0.002637174652494601
-0.030913227295469057 -0.041200424685139 0.0030940514408791583
-0.035446318317617714 -0.04575694639465946 0.0029822546600462765
-0.03962313447518228 -0.04992971470929697 0.0021681173797081974
-0.04338363274301625 -0.053747791580765474 0.0005994997385266514
-0.04673414877592681 -0.057299069898124194 -0.0017426888603208834
-0.04969694002937195 -0.060697580826527764 -0.004905362185886259
-0.052246615118292164 -0.06402534168887615 -0.008922445841833545
-0.054310204758067554 -0.06732566394440868 -0.013710913139780111
-0.055837944734381965 -0.07063680743888993 -0.019075551975483215
-0.05680757043862827 -0.07398688308187391 -0.02481471071398758
-0.05721224630500276 -0.07737741106740686 -0.030737398137190355
-0.05706592150480012 -0.08080533224239242 -0.03670808790755938
-0.056380348765837314 -0.08426755193845363 -0.04264650440909839
-0.05516865215965657 -0.08776705421238094 -0.04848915135796371
-0.05345328451862577 -0.09131634252140232 -0.05418788344541681
-0.05127316141269487 -0.09492375935513989 -0.05969375377749139
-0.048697584460871614 -0.09858934244112352 -0.06493696350349795
-0.045832365413026724 -0.10230054328535687 -0.06980803529796197
-0.04283156798150031 -0.10601012320401883 -0.07414330747033292
-0.039899703924408184 -0.10961197550751553 -0.07775787511740317
-0.0372422031193522 -0.11297302954845452 -0.0805419054936372
-0.03499867055580142 -0.11601206631591832 -0.08252069528671625
-0.03319415868605947 -0.11871783796739893 -0.083823788936989
-0.031783122378546046 -0.12111500595379128 -0.08458977472350575
-0.03069839956889317 -0.12326200833223872 -0.08491808176755758
-0.02988977593261168 -0.1252028448353799 -0.08483781151590711
-0.02932686824105769 -0.12694899500832527 -0.08433871472299981
-0.02899322237255422 -0.12850005708187598 -0.08341226921388714
-0.0288704576264724 -0.12986014214970712 -0.08205423706120171
-0.028949873798849387 -0.13102260547188765 -0.08022811113794812
-0.029250038486940574 -0.131948317260399 -0.07785760107516934
-0.029819391048403834 -0.13255269438853465 -0.07484357384833373
-0.030719293595614813 -0.13270815762726937 -0.07110270466428119
-0.03199473323116846 -0.1322741006993239 -0.06665251815345144
-0.033598453305553534 -0.13119947867364443 -0.06171147116075796
-0.03540907993301873 -0.12957385066085686 -0.05652812798279614
-0.037306492841983833 -0.12755011638038802 -0.05128180959933071
-0.03918268938681613 -0.12530579168747139 -0.04608930006772555
-0.040944298660504246 -0.12302578608327322 -0.04101087230669578
-0.042515035173787616 -0.12088779353677186 -0.03606214226406502
-0.043832315391460576 -0.11905425872929598 -0.031234549060705434
-0.04484694706913871 -0.11766918876039352 -0.02653151057192783
-0.04554229189601309 -0.11682745378020575 -0.022000624803887335
-0.04594111461800927 -0.11654557143290771 -0.01769416469590365
-0.046080549977047615 -0.11679146241716744 -0.013627752911630018
-0.04599492330301931 -0.11753219691743469 -0.009789689518366899
-0.045711183418352716 -0.11874864394710885 -0.006164983985746835
-0.0452489991958293 -0.1204309731163399 -0.002741323850164247
-0.0446217901300098 -0.12257673470320708 0.0005002257249980937
-0.043835971207953926 -0.1251952650143933 0.003589323832524241
-0.04289190021045726 -0.1283078058080627 0.00655438342723302
-0.041790455103388545 -0.13193261981626486 0.009401376913253667
-0.04054329884820823 -0.13606556518310686 0.012093139664026642
-0.039184614942716085 -0.14066599363545607 0.014545642348075729
-0.03777189705396352 -0.14565566548211342 0.016666108729617185
-0.036349978221104196 -0.15094661085126565 0.018409281531647736
-0.03493105018932105 -0.15645515867604132 0.019774128266100657
-0.03350343018008175 -0.1620897972400051 0.020796396957263902
-0.03203976888909896 -0.16775218819431909 0.021545620948484636
-0.030511176146431115 -0.17334996614333198 0.02211282787186919
-0.028896203216428922 -0.17880447581575767 0.02259955158129213
-0.027181379000888913 -0.18405640662920936 0.02310820993160762
-0.025359566572021625 -0.18906463550935648 0.023733356596646916
-0.023427541641223914 -0.19380646485243988 0.024554707157411666
-0.02138111358351484 -0.19828139138517445 0.025634646657116875
-0.019209539107912458 -0.20250847017473417 0.027021367713489997
-0.016891217740404023 -0.20651986001866243 0.028751427516625516
-0.014395823439574365 -0.2103461468893349 0.030846826150595846
-0.0116939025479535 -0.21400537991970978 0.033306393691771095
-0.008764924799051383 -0.21750787279745767 0.03609901432151721
-0.005594300735141215 -0.2208618358003281 0.03916880288658228
-0.0021668027312940273 -0.2240720456568741 0.04244745792610946
0.001535697179209791 -0.2271353282601629 0.04586297254095859
0.005537345299616946 -0.23004317467805174 0.04934818335031405
0.009870345115597538 -0.23278360491685737 0.05285205662893987
0.014571634392401146 -0.23533947392893764 0.05634704877430146
0.0196728663298091 -0.2376842185646981 0.05983086662109185
0.025186926920289357 -0.23978180086735898 0.0633217248372459
0.031092569855779493 -0.2415909824612294 0.06684998080989128
0.03732305768280211 -0.2430792326006825 0.0704468791299401
0.043765190889595816 -0.24424244233570405 0.07413333913482796
0.05027612478468268 -0.24511900905540984 0.07791189728931225
0.056708861236649574 -0.24578968779054397 0.08176516609095454
0.06293166819697946 -0.24636038765938986 0.0856606071636442
0.0688371257903504 -0.24694240666259243 0.08955595983253518
0.07434395272816427 -0.24762604102527552 0.09340500874313286
0.07940078517114649 -0.24846448827795642 0.09716224164163553
0.08399065878290587 -0.24946615297351526 0.10078738233010033
0.08813370155823715 -0.25060426717928835 0.10425258237803928
0.09187568633032857 -0.2518362426809422 0.10754570833926547
0.09527349884192696 -0.2531195008324685 0.11066888999408528
0.098384350705167 -0.2544217172578235 0.11363555492180795
0.1012620925688576 -0.25572602524150867 0.11646997720447125
0.1039539151502577 -0.2570318644485828 0.11920447361998883
0.10650054280038719 -0.258353832327522 0.12187699355172675
0.10893372745328268 -0.25971886357320184 0.12452416315956097
0.11127386842869864 -0.26116130704856005 0.12717253612410995
0.11353221439847752 -0.2627198083796151 0.12983222379904485
0.1157146658651756 -0.2644336134239574 0.13249631045831284
0.11782498144877629 -0.2663436611545871 0.13514749325255462
0.11986130612830902 -0.2684930219766319 0.13776518770675353
0.12181024084285455 -0.2709287661879091 0.14033057599007895
0.12364109844433652 -0.2736991327459196 0.14282860176031723
0.12530710387017116 -0.27684762242533395 0.1452467211138475
0.12675680828835895 -0.2804070222437775 0.14757494244174485
0.12794958129441208 -0.28439815026530774 0.14981094262044353
0.12886211070311102 -0.2888254583051188 0.1519649379680161
0.1294932463375384 -0.29366060768162766 0.154057724845366
0.129868332380119 -0.29882604273391455 0.1561167412300779
0.1300410025230911 -0.30418984618504546 0.1581740023150283
0.13008146031326198 -0.30956491064412117 0.1602612077940299
0.1300592287626658 -0.31472148509226305 0.16239166253462
0.13002871652881198 -0.31945691191921577 0.16454916975100567
LINES 1 120
119 0 1 2 3 4 5 6 7 8 9 10 11 12 13 14 15 16 17 18 19 20 21 22 23 24 25 26 27 28 29 30 31 32 33 34 35 36 37 38 39 40 41 42 43 44 45 46 47 48 49 50 51 52 53 54 55 56 57 58 59 60 61 62 63 64 65 66 67 68 69 70 71 72 73 74 75 76 77 78 79 80 81 82 83 84 85 86 87 88 89 90 91 92 93 94 95 96 97 98 99 100 101 102 103 104 105 106 107 108 109 110 111 112 113 114 115 116 117 118
POINT_DATA 119
SCALARS Curvature float
LOOKUP_TABLE default
0.03284834060444134
0.03143403469002744
0.038377701384326515
0.05413938151957075
0.07828674660001231
0.10942049521126125
0.1452107620944951
0.1825539232723501
0.217844219131838
0.24733896398266256
0.26758182849524986
0.2758377910064154
0.27048755562874033
0.25132966297186254
0.2197455566420465
0.1786960579747652
0.1325357605405316
0.08665280433100771
0.04696287155458616
0.019305425387127383
0.008804702517779935
0.01926575440666497
0.05267564118824425
0.10887138056352885
0.18542011604829872
0.2777348288053064
0.3794231969886468
0.4828408399977665
0.5797962711540412
0.662336309051915
0.7235297843037688
0.7581655800187586
0.7632887592645089
0.7385150351712542
0.6860873500250321
0.6106662165549138
0.5188745598582285
0.4186447353251187
0.31843707119723386
0.22641318457902213
0.1496518456023608
0.09348981575250699
0.06105552287956852
0.05304139521901466
0.06773376378671572
0.10129061010564704
0.14823040573662122
0.2020729522252888
0.2560579778645351
0.30386088607980616
0.3402280174567756
0.36146550845860137
0.3657347065667286
0.3531307259087642
0.3255461898491721
0.2863464599370712
0.2399028810842651
0.19104453785836187
0.14449530017943107
0.10436109756076038
0.07372295721069543
0.05437582849666219
0.0467337381499943
0.04990091953830373
0.06188884631483543
0.07994292738996152
0.10093179456971732
0.12174769547822203
0.13966869963740366
0.1526415993966619
0.1594571788589546
0.15980505248530955
0.1542114054924347
0.14387759820216253
0.13044892842216324
0.1157496071936378
0.10152158883757532
0.08920141675586483
0.07976147886870501
0.07363131798749561
0.0707025482888061
0.07040921565324278
0.0718656843667177
0.07403755502273236
0.07591842913090366
0.07668666298701927
0.0758211526645156
0.073162737588832
0.06891674899561895
0.06360117649556213
0.057952569923709715
0.05280708524679382
0.048976377307161006
0.047137175735035355
0.047749677354292454
0.05101409142692333
0.05686781578591632
0.06501895633716193
0.07500632224656605
0.08627249654080338
0.09823559822895458
0.11034698578972077
0.12212603455652889
0.13316851161799761
0.1431309815257707
0.1516990274539388
0.15855087797779638
0.16332955493064152
0.1656355470261881
0.16504835721592404
0.16117960307214965
0.15375357416358776
0.14270441162688172
0.12827357862550423
0.11108811258258096
0.0922000588733301
0.07307080112174935
0.055490520806406166
0.04143200901806141
