# vtk DataFile Version 2.0
Vessel Segment
ASCII
DATASET POLYDATA
POINTS 119 float
-0.003217460764622859 -0.004888339478844459 0.0007415853464566817
-0.007098257574195372 -0.010347528944688714 0.0018618286830554675
-0.011480622996853247 -0.016157140528185905 0.003241398302880236
-0.01617345556698402 -0.022078050888057844 0.0047000987927611195
-0.021008516087154917 -0.02791110006905424 0.006073412846516749
-0.025864818379672656 -0.03354178863281705 0.00722544469303903
-0.0306499908995552 -0.03891352749678232 0.008022974583056867
-0.03527895913402131 -0.043996624825315564 0.008331816472553804
-0.039668603645941485 -0.04877830749799257 0.00803600410866624
-0.04375254956204584 -0.053274586060345096 0.007063115890274438
-0.04749343117056111 -0.05754361451054036 0.005378356588933683
-0.050866702652641226 -0.06167039622900595 0.002964225793671535
-0.05383543782914658 -0.06574063610196143 -0.00017828212745112223
-0.05634201549799395 -0.06982815516400379 -0.0040047698117477
-0.05831433469914472 -0.07398967967387636 -0.008414636487232702
-0.05971024292048113 -0.07826611461684718 -0.013252089572866943
-0.06051841196563953 -0.08269034369202084 -0.018391898663724787
-0.06072269249038461 -0.08725931450566586 -0.023728949269586866
-0.0603194504595087 -0.09194992688675191 -0.029171884318589515
-0.0593220952780436 -0.09673723681563791 -0.034645999767078384
-0.05775904272255777 -0.10160750523682792 -0.04009333328552708
-0.055672652307096254 -0.10655180016603118 -0.045452336179250624
-0.053132033467711004 -0.11155421433531193 -0.05063015584138534
-0.05024474892207971 -0.1165788120710915 -0.05549118855025876
-0.047156648245256415 -0.12155703926534657 -0.05986839246686826
-0.044035156405945804 -0.12638936986679308 -0.06359751572005125
-0.041042005582829874 -0.13097121747480214 -0.066551287805447
-0.03831650287849983 -0.1352100150050311 -0.06863761223914419
-0.035979151447435326 -0.13899998653386034 -0.06979175277407755
-0.03411340954539196 -0.14222054710851298 -0.07003042252479759
-0.032715926119184065 -0.1448250415393308 -0.06947721417344778
-0.031699379460883415 -0.14688813213894591 -0.06828181161302004
-0.030968692934202322 -0.14854361916822292 -0.06648055793722911
-0.030475213351385557 -0.14985677724127466 -0.06402077787172135
-0.03020264194912677 -0.15083490232500768 -0.06085398992236712
-0.030150736608981495 -0.15147016334447655 -0.05696628994417031
-0.030325599166669714 -0.15175962940042953 -0.05239574100251856
-0.030725389281936206 -0.15171611927056067 -0.047249670661996326
-0.03132467575311017 -0.1513848947881197 -0.04171503275606484
-0.032065404031828434 -0.1508610082163601 -0.03601028768075791
-0.03287585693994019 -0.15027101028810588 -0.0302909325878461
-0.03368935235495808 -0.14974150612944026 -0.024638177386752492
-0.03444833494077524 -0.1493880622668915 -0.019084061389907113
-0.035107429616635565 -0.14931025018800034 -0.013629152240053972
-0.035633142133290614 -0.14959308786607411 -0.008255692563735885
-0.03600244008378204 -0.15031072473826737 -0.002937170318727587
-0.0362026501521831 -0.1515337544178312 0.0023507200875531684
-0.0362316983555523 -0.15333301062439275 0.007617360315969382
-0.036097275895781614 -0.1557761137515227 0.012844368557779573
-0.03581540357194293 -0.15890851212391818 0.017978214725547472
-0.03540837336650537 -0.162733459838881 0.0229469515343098
-0.03490276424829306 -0.16722003818743636 0.02769120779406647
-0.03432442307682469 -0.1723234608572042 0.03217223612700304
-0.03369390436963144 -0.1779895656021614 0.03636722265646162
-0.033022552514445476 -0.18415494958487036 0.04027148564174995
-0.032309774021011435 -0.19074510822062948 0.04390031341629933
-0.0315424891969924 -0.19767131824513207 0.04728616696850334
-0.030698383244397782 -0.20483100432587492 0.050475420621310524
-0.02974995112640873 -0.21211686244479 0.05352222149984669
-0.02866670361566758 -0.21943177899546387 0.05648258708506673
-0.027414485622264475 -0.22670133101924275 0.059409034346213266
-0.025955314161628995 -0.23387460470384852 0.062343048218347435
-0.024248898171750653 -0.2409132690874332 0.06531045043523197
-0.022255701670463115 -0.2477807118960614 0.0683219309866698
-0.01994203942668049 -0.25443911492957916 0.0713777181975431
-0.017284453590464526 -0.26084882477093974 0.07447248889522087
-0.014270979187750119 -0.2669673964664832 0.07759762216465815
-0.010900226714838684 -0.2727515961636458 0.08074377220649019
-0.007178356646957308 -0.27816295111039724 0.0839041285022143
-0.003113949645313141 -0.28317325511269303 0.0870771673360572
0.0012844684271843682 -0.28776270083171723 0.09026709308338193
0.006007963328241998 -0.2919192690270177 0.0934842055371162
0.011046417560811022 -0.29563856994089766 0.09674521487589272
0.01638703315590188 -0.2989213767959428 0.10007337834466518
0.022011543100780382 -0.3017709415022204 0.10349571739088201
0.027893308381423072 -0.30419311950601985 0.1070367402313685
0.033999577698247595 -0.30619756857804 0.1107141154191411
0.0402958509225617 -0.3077973672543102 0.11453488681307623
0.046750009955139706 -0.3090100236327697 0.11849389222347045
0.05333541227951492 -0.30985801737482366 0.12257482830071735
0.060032220369967124 -0.3103705746078574 0.12675517001288672
0.06682401301872923 -0.3105810150934739 0.13101315346034612
0.0736925909397358 -0.31052529788968325 0.13532899623956784
0.08061419433585598 -0.3102415815978424 0.13968681251765627
0.08755826347603256 -0.3097721576588938 0.14407618075330053
0.09448779748156509 -0.3091635049727074 0.1484919568297901
0.10136226079301135 -0.3084657482793718 0.1529338241000168
0.10814015630082226 -0.30773066773572594 0.15740200720725397
0.11478018318473321 -0.30700963927982566 0.16189235825952955
0.12124309220561638 -0.30635222514478067 0.16639487246323612
0.12749442345529485 -0.305806506103433 0.1708930367334207
0.13350713392287286 -0.30541803766639875 0.17536671588373098
0.13926163909396988 -0.3052294836634958 0.17979521081523653
0.14474665564614272 -0.3052805958606707 0.18415877814771828
0.1499596386881323 -0.3056078874600894 0.18844446296232487
0.1549046075482369 -0.30624547695394316 0.19264664087740901
0.15958779060537193 -0.3072272899568639 0.19676639832553217
0.16401440834137154 -0.3085870694560752 0.2008095886379027
0.1681845029578815 -0.3103575345966727 0.20478412445450583
0.17209044094255332 -0.3125673065049144 0.2087000107186635
0.1757135436817623 -0.3152359257413161 0.21256773172324428
0.17902195453452047 -0.31836884411727007 0.2163968153595844
0.1819739055387654 -0.32195341332228683 0.2201909118727651
0.18452779413668635 -0.3259573595741026 0.22394578322412523
0.18665783622318843 -0.330338657042531 0.22765312210691965
0.18835757273435483 -0.3350580024933578 0.231307331876675
0.18963484455317978 -0.34008335841275705 0.2349057473702885
0.1905075721208251 -0.34538440381757174 0.23844370971633436
0.1910053569295083 -0.3509237989147777 0.2419118397803843
0.19117217038026044 -0.35665058288958945 0.24529818480039192
0.19106646639428923 -0.36250046202340314 0.24859043426068592
0.19075522797462297 -0.36840293569536087 0.25178196135542846
0.19030569497527347 -0.3742957998945631 0.25487470345042396
0.18977654398782437 -0.3801384366290349 0.25788314261884476
0.18921606635992197 -0.3859101004177837 0.2608344601308316
0.18866944710249542 -0.3915819463043389 0.263756995630041
0.18818287525391575 -0.3970738677768001 0.26665343156688076
0.18779863084345036 -0.40224136765014445 0.26947042906791097
0.18754372029377608 -0.40693262028874644 0.27211112330438286
LINES 1 120
119 0 1 2 3 4 5 6 7 8 9 10 11 12 13 14 15 16 17 18 19 20 21 22 23 24 25 26 27 28 29 30 31 32 33 34 35 36 37 38 39 40 41 42 43 44 45 46 47 48 49 50 51 52 53 54 55 56 57 58 59 60 61 62 63 64 65 66 67 68 69 70 71 72 73 74 75 76 77 78 79 80 81 82 83 84 85 86 87 88 89 90 91 92 93 94 95 96 97 98 99 100 101 102 103 104 105 106 107 108 109 110 111 112 113 114 115 116 117 118
POINT_DATA 119
SCALARS Curvature float
LOOKUP_TABLE default
-0.009182737184694435
-0.009300277686286338
-0.0009016189562777436
0.01686855802503134
0.04372411275402584
0.07813822616270297
0.11741364647437698
0.15792492868623642
0.1955112876574795
0.2259766042857143
0.24563596636820914
0.25183841278045677
0.24339487505726187
0.22084909989410204
0.18654676006873253
0.14448201483575002
0.0999285216970141
0.05888981800943209
0.027428453103132435
0.01095098608171969
0.01353449144953927
0.03737818812907436
0.08245121236616307
0.14638573410456876
0.22463611971523406
0.31089311975087375
0.39771102529788777
0.4772792798691822
0.5422515200506495
0.5865368517582628
0.6059614790264389
0.5987232881022901
0.5655859489115401
0.5097896321094086
0.436688823185137
0.35315985115753884
0.26684769555662025
0.1853400977663217
0.11536475091760967
0.06210148779257383
0.028686488934382675
0.015961524641127073
0.022491174891822424
0.04483861630343799
0.07805994341579718
0.11635185398046205
0.15377088667814737
0.1849361558141977
0.2056322447191463
0.21324377195162653
0.20697604324118185
0.18784408300711572
0.1584415707321297
0.12252806633104725
0.08449405995754491
0.04877630015411229
0.019299133523935964
-0.0009889000073633287
-0.010429092978305559
-0.008784619796230677
0.002817056696303219
0.022114114706337867
0.04607359131150986
0.07133308869054664
0.09465829102211983
0.11335439630477587
0.12557861616804547
0.13051672206929318
0.1284068570353016
0.12041559558863887
0.1083915002809509
0.09453745638477364
0.08105278352723129
0.06979836325932146
0.062032685101954456
0.05825475374718236
0.05817306992849932
0.06080087566327285
0.06465928921064693
0.06805447600805421
0.06938475521608826
0.06742989697208658
0.06157823553326909
0.05195701885207497
0.03944614058839501
0.025572876917325935
0.01230293002110575
0.0017584109521840683
-0.004095817714042115
-0.0037513025357522782
0.003603469426608642
0.0179368922955977
0.038344558793034375
0.06314143186321207
0.09006366487885928
0.11655205170765132
0.14007730339379493
0.15846129175904214
0.17014895058348067
0.1743926137854259
0.17132318955137432
0.1618989141324456
0.14774015069638227
0.1308752393664527
0.11343536172835661
0.09734385389880115
0.0840462598922021
0.07432147839883078
0.06820241700576343
0.0650182995260964
0.06355249211768171
0.06229206324722542
0.059730862623391
0.05467886586858353
0.04652831885638615
0.035432308232482806
0.0223632227418354
0.00903561311998393
-0.0023021163293206843
