# vtk DataFile Version 2.0
Vessel Segment
ASCII
DATASET POLYDATA
POINTS 119 float
-0.0032228506301300924 -0.005582082880136997 6.418016330827379e-05
-0.007119015092352078 -0.011544952586845106 0.0006393858243838395
-0.01151858700323562 -0.017626701885345167 0.0015949474371616049
-0.016228967671551117 -0.023611119695881467 0.002748832855969564
-0.02108677716581952 -0.029368279053733508 0.003910451531081204
-0.025961873020558406 -0.034833711106109215 0.0048923496091456175
-0.03074180300239908 -0.03997697585553026 0.005510948574404816
-0.035318236008688476 -0.04478045031216253 0.005598065860615545
-0.03959176093548593 -0.04923621957313091 0.005028370101883468
-0.043497862511433366 -0.0533660676672012 0.00374144403188713
-0.047022094198025166 -0.057244052681005644 0.0017141641489983963
-0.050166144913000976 -0.06097196607423166 -0.001081949165957973
-0.052901775913694576 -0.06463553249904183 -0.0046612258283114955
-0.05516588565605611 -0.06829429126434168 -0.008960936155628811
-0.056899071275973184 -0.07199627196158544 -0.013836912061509589
-0.058068737902837994 -0.07577462677961191 -0.019112617030344715
-0.05866477790339601 -0.07964377302512415 -0.024630856151693248
-0.05868626778545622 -0.08359971559252083 -0.03027175515769235
-0.058137563522307645 -0.08762968927047622 -0.035949585789029834
-0.057031786831206875 -0.09172377874722189 -0.04159553964926385
-0.05539384639530072 -0.09588263850778625 -0.04715683925625218
-0.053263832860625596 -0.10010684743456272 -0.05257829794232203
-0.05071058740793392 -0.10438917161871379 -0.0577787478386415
-0.047840403795209256 -0.1087063241146961 -0.06263607103072333
-0.04480294404246626 -0.11300114216721432 -0.06698514538454892
-0.04178481296329714 -0.11717006892938064 -0.07065095564558754
-0.03897158570672265 -0.12109229599930763 -0.07351493089187044
-0.036504985408440216 -0.12468065109330859 -0.07554695154648003
-0.03445694507902723 -0.12787957559644322 -0.07678640028097669
-0.03284332934809929 -0.13064375913380813 -0.07731472738887392
-0.03162870833462212 -0.13297512627816258 -0.07724281131171276
-0.030745267954664698 -0.13492767771628483 -0.07666753217335406
-0.030126177537046356 -0.13658412359960287 -0.07562038790967524
-0.029733719519291966 -0.1379988481885268 -0.07407553914766936
-0.029550930397220454 -0.13918774883031962 -0.07199142968314551
-0.029576837367367482 -0.14013672075174133 -0.06932044947102894
-0.0298277708429342 -0.14080735902870695 -0.06602052271653082
-0.030330529932425476 -0.1411429760368583 -0.06207649929215862
-0.03110355582064905 -0.141086170010787 -0.05753053766352532
-0.03213613329538144 -0.14061121833659648 -0.0525094517100928
-0.03336137708709732 -0.13976823759680296 -0.04722603686987505
-0.034679830693102175 -0.1386802791870842 -0.04186668076256833
-0.036000908847863035 -0.13749058863721864 -0.036552029908174875
-0.03724961848499021 -0.1363382522027179 -0.031351848427751274
-0.038367667709235595 -0.13534923021946038 -0.026294205138059006
-0.039313392429989186 -0.13463187939651228 -0.021374122856786387
-0.04005817743604107 -0.13428040356026807 -0.016566650224100032
-0.04058333800193021 -0.13438115037502404 -0.011850557806082601
-0.04088584022555773 -0.13500199647593336 -0.007237878933844637
-0.04098051205507879 -0.13617285964505357 -0.0027647875378989306
-0.04088930965315856 -0.13789019095799523 0.0015374669928208346
-0.04063444635656763 -0.14014090149428393 0.005653807902521351
-0.040235326754270224 -0.14291439581068016 0.009575417466845166
-0.03970734986635371 -0.14619896247925837 0.013294169348491373
-0.039061161343389536 -0.14997909866033685 0.016810109962388665
-0.038300894869707405 -0.1542370333862866 0.02013706351665005
-0.03742363371908014 -0.15895186123360028 0.023296900056881037
-0.036423160958069814 -0.16409099444192582 0.026307463299177047
-0.03529606413416568 -0.1696029917456143 0.029168916433031506
-0.034048624837841955 -0.17541617089123546 0.03185861667212385
-0.0326976946805942 -0.1814432065893544 0.034348082796484235
-0.03125189411087785 -0.1875981025868241 0.03662956652844899
-0.029701349011170573 -0.19380241035718385 0.03871286439859678
-0.028023630943089385 -0.19997772284201376 0.040621852192957546
-0.026190344279108536 -0.20604828070037254 0.042394462471353346
-0.024176597241683088 -0.21194795153291757 0.044077658617554694
-0.02196599634710995 -0.21762202429869656 0.04572264304959072
-0.019550109524444206 -0.22302831231187634 0.04738148861443842
-0.016926325600234514 -0.22813630035633198 0.04910419140277632
-0.014094899775266692 -0.23292748258339008 0.0509360369305692
-0.011055872849701475 -0.23739507523146616 0.05291606076311736
-0.007806501673562789 -0.2415425647154839 0.05507782785442148
-0.004339087523227751 -0.24538147468055269 0.057449721840388095
-0.0006425746852171677 -0.24892442049190686 0.060052829320540124
0.0032910300631601355 -0.25217982909663555 0.0628958526942488
0.0074610623389804 -0.25515508710187895 0.0659702250019085
0.011861278969582983 -0.2578597614197385 0.06925234116213869
0.016485679069492033 -0.2603038532283335 0.07270889161191069
0.02133149706881695 -0.2624951582591279 0.07630042333289971
0.026402133820950253 -0.2644401096530368 0.0799856031713165
0.03170883247105961 -0.26614501217141817 0.0837290405121525
0.03726693985913923 -0.26761383762570584 0.08750818485104857
0.0430876392205429 -0.26884584045991405 0.09131489248272025
0.04916846407526622 -0.26983641801984015 0.09515361615243471
0.05548443080154594 -0.27058148924616604 0.09903731099207824
0.06198207821059546 -0.27108549356342415 0.10298071136874112
0.06858046762516531 -0.2713713558857707 0.1069938374501372
0.07518178108769091 -0.271485964765688 0.11107607563228561
0.08168585210150718 -0.2714981012322264 0.11521376782076465
0.08800173772631507 -0.27148836686344374 0.11938267209799486
0.09405381837162888 -0.2715390854193361 0.12355073443691242
0.09978407577547906 -0.2717201928193328 0.12768259000603882
0.10515415422626108 -0.2720805138442521 0.1317434875895123
0.11014861529656567 -0.27264333974749405 0.1357026355224987
0.11477696760504014 -0.27341097958786875 0.13953981404165028
0.1190663481485064 -0.2743753236732557 0.14324701536154102
0.12305102864771288 -0.27552729709209073 0.1468267001030692
0.1267643100598828 -0.27686224875674526 0.15028856289459103
0.13023435814647746 -0.27838223690593167 0.15364777478711902
0.1334815446083053 -0.28009532084316446 0.1569236945039994
0.13651785802657074 -0.2820133803576502 0.1601385366344859
0.13934544888009856 -0.2841493754778212 0.1633136917529274
0.14195729665189133 -0.28651370972519186 0.1664633243000562
0.14434297148268266 -0.28911241941812255 0.16959039621580976
0.1464971557750158 -0.29194924570661485 0.1726881142864559
0.14842226294490066 -0.2950315136579706 0.17574637889864428
0.15012352316523433 -0.29837240602007536 0.17875548531222288
0.15160301082201796 -0.3019903118082115 0.18170669982612891
0.15285632710394717 -0.30590372704021745 0.18459202869656702
0.15387395427572284 -0.31012383317720815 0.18740364145517757
0.15464803326974272 -0.31464793078903697 0.19013348368747968
0.15518023725327684 -0.31945815766948116 0.1927780801297723
0.15548463261446935 -0.3245243833415 0.19534327188228046
0.1555881930188795 -0.32980362073948083 0.19784565726062087
0.1555310155403858 -0.3352354019445274 0.2003108028835042
0.1553674597452017 -0.340729956066792 0.20276701405669798
0.15515968078354664 -0.3461482988284278 0.20523068028749636
0.15496598683167626 -0.3513012219923956 0.20768273176811744
0.15482855577742966 -0.3560106542552334 0.2100682801063237
LINES 1 120
119 0 1 2 3 4 5 6 7 8 9 10 11 12 13 14 15 16 17 18 19 20 21 22 23 24 25 26 27 28 29 30 31 32 33 34 35 36 37 38 39 40 41 42 43 44 45 46 47 48 49 50 51 52 53 54 55 56 57 58 59 60 61 62 63 64 65 66 67 68 69 70 71 72 73 74 75 76 77 78 79 80 81 82 83 84 85 86 87 88 89 90 91 92 93 94 95 96 97 98 99 100 101 102 103 104 105 106 107 108 109 110 111 112 113 114 115 116 117 118
POINT_DATA 119
SCALARS Curvature float
LOOKUP_TABLE default
0.009946096931664697
0.008844620926363803
0.016085002929117007
0.03255142500924162
0.05808548381630997
0.09136116888228105
0.12991059363606325
0.17031094753036538
0.2085214627255154
0.2403377165346947
0.2619122740686449
0.27027816266459864
0.26380693471150696
0.24253712791239945
0.20832164828680025
0.16476270302382937
0.11692809648921296
0.07086992060271603
0.0329924943023956
0.009337473298593489
0.004867501284582433
0.02283363511904365
0.06430524213294295
0.1279246280464975
0.2099240644296174
0.30441296952399655
0.4039113118211359
0.5000757038191196
0.5845408001124267
0.649783525819637
0.6899133170637102
0.7012986349875793
0.6829578009500009
0.6366686538342838
0.5667835333401825
0.47976983061961825
0.38352777702421126
0.2865624931283741
0.19710356340617471
0.12227062120085523
0.06737705734010489
0.035446851875140524
0.026993822546351336
0.04008146449969429
0.07064882905411747
0.11305751034535995
0.16079039117962482
0.20721717180348084
0.24633657047879196
0.2734108258595621
0.28542378583042494
0.2813172720865297
0.261988493039243
0.23006046396022473
0.18946406243082087
0.1448912910928376
0.10119213752718963
0.06279080286809853
0.03319093546554262
0.014624978697648365
0.007881976929581072
0.012324057759449844
0.026077530656669606
0.04636322716266305
0.06991497647395278
0.09342676199420565
0.11396890823024156
0.12932127326382287
0.13818552003967152
0.14025695204558322
0.1361564736711453
0.127242197670421
0.11533555110811289
0.10240649325615904
0.09026555138465087
0.08030665588425497
0.07333501337827864
0.06950010154890096
0.06833746966427741
0.06890679534965215
0.06999989234114722
0.07038297591619176
0.06903368602383021
0.06533552509832112
0.05920000435436449
0.051098647436257895
0.04200123084783183
0.03323109830575765
0.02626093172739364
0.02248117309434666
0.02297712304457376
0.028349096482621107
0.03860320708716591
0.05312945262156242
0.07077044623903046
0.08997039586104533
0.10898183352173843
0.12609894540420916
0.13988243959148441
0.14934229450510336
0.15405124685802388
0.15417253166252476
0.15039858497028719
0.14381117989298298
0.13568570637125696
0.1272711511959162
0.11958139980489248
0.11323207584429962
0.10835037788697294
0.1045741884868381
0.10114272397715761
0.09706622726942836
0.09134890761220106
0.08322956865953009
0.07239974073083412
0.05916053364425963
0.04448688001450134
0.029980481836678625
0.017708949444880728
