# vtk DataFile Version 2.0
Vessel Segment
ASCII
DATASET POLYDATA
POINTS 119 float
-0.0032155467033285166 -0.004979626577998326 0.0006478980388469712
-0.007096679693200416 -0.01050663309943287 0.0016914768845400253
-0.011480439035669662 -0.016353377220855825 0.003010713432936768
-0.016175305927718146 -0.02228276060446463 0.004425746459932946
-0.021013419560756877 -0.028104667113565983 0.005768627490914264
-0.025872272331712683 -0.033711384671018745 0.006896129248023533
-0.030656515233568507 -0.03904991962881049 0.007667777954310717
-0.035277625615111254 -0.04409218556385754 0.007944431857133847
-0.039649946245006305 -0.04882593346565565 0.00760873106617727
-0.043707166349811685 -0.053267847276435486 0.006590114805405811
-0.047415195130254384 -0.057478381961959965 0.0048558764955960254
-0.05075345052402802 -0.06154512122760479 0.0023874928622082195
-0.0536865756445095 -0.06555398760357697 -0.0008158367610129995
-0.05615651810320688 -0.06957698504057604 -0.004707225969508226
-0.05809322535908866 -0.07366980208992634 -0.009180462441560653
-0.05945584687040489 -0.07787212459379667 -0.01407719075954901
-0.060233085957208846 -0.08221392308382029 -0.019267915908095297
-0.06041092395336075 -0.08669190834002706 -0.024645552646025415
-0.05998686108310746 -0.09128446152477418 -0.030119539473995247
-0.058974235712247046 -0.09596887453376544 -0.03561602135582427
-0.0574008989613408 -0.10073358286759526 -0.04107778182205643
-0.055308817679788964 -0.10557108798775638 -0.046444158474149615
-0.05276701355919822 -0.11046676878928396 -0.05162393945279008
-0.0498828215633731 -0.11538656172382711 -0.056483445259954274
-0.046802580985987 -0.12026358874817962 -0.060855929615513255
-0.043696455926113494 -0.12499766841339395 -0.06457559484128636
-0.04072974311937159 -0.12948169345836696 -0.06751637722157104
-0.03804239051031995 -0.13362378195241953 -0.0695952016688987
-0.035748078748096275 -0.1373254610484372 -0.07076271560284061
-0.03392052882556157 -0.1404768869359444 -0.0710453060618568
-0.03255194833093209 -0.1430377421673107 -0.07056533524057808
-0.03155774768094521 -0.14507979292476542 -0.06946682883097331
-0.03084608448904301 -0.14673185509107073 -0.06778735267103178
-0.030369311044097503 -0.1480601938015641 -0.06547708217673713
-0.03011128889509964 -0.14907347898267856 -0.0624858172262194
-0.030072101066525744 -0.14976131971916035 -0.05879221402588854
-0.030259662099802073 -0.15011338187259862 -0.05442058299479525
-0.030676451085823012 -0.15013031197152052 -0.04945904128304183
-0.0313031307034981 -0.1498413704979969 -0.0440733976715301
-0.03208772223272627 -0.14932478053105935 -0.0384707364676611
-0.032958425904414425 -0.14869808470630716 -0.032818090270817064
-0.033843598987007575 -0.1480888661992288 -0.02721431351511215
-0.0346812080616924 -0.14761682897898992 -0.02170595596062433
-0.0354223225822551 -0.1473859593335384 -0.016304789653785658
-0.036030901457889904 -0.14748471976372513 -0.01100013275680811
-0.03648232083351054 -0.1479892607406788 -0.005767855920350468
-0.03676238480736741 -0.1489711974546681 -0.0005813899926177205
-0.03686672656182095 -0.15050262850793505 0.0045736554878896855
-0.0368009197179286 -0.1526515810293089 0.009682833234782813
-0.03657984022422452 -0.15546256822614804 0.014696834994486862
-0.03622465445084594 -0.1589399579779216 0.019550294133991942
-0.035760370974327486 -0.16305804556697365 0.02419033136248755
-0.0352112718646757 -0.16777953667652507 0.02858205277833387
-0.0345968891520102 -0.17305847604749355 0.03270384935870509
-0.033928544957078345 -0.17883989033018513 0.03655059129907419
-0.03320670582709157 -0.18505860236791016 0.040136247852953014
-0.032420335456611174 -0.19163661306128052 0.04349077423089616
-0.03155007831044043 -0.19848205945337843 0.04665558823087905
-0.03057245353535291 -0.20549576160758318 0.04967637148242705
-0.029462667945185657 -0.212583579218649 0.052597295560739714
-0.02819421960055825 -0.21966764764650437 0.05545881207577537
-0.026736121936046266 -0.2266898631630971 0.05829492709799597
-0.025052812643786785 -0.2336040348620082 0.061128687547415676
-0.023107681712541427 -0.24036600039791395 0.06397223586269993
-0.02086828491184267 -0.24693185455944516 0.06683100795773914
-0.01831132276218598 -0.25325840897849683 0.06970735284883088
-0.015424323883303965 -0.25930235888487074 0.07260183285573088
-0.012204723584293215 -0.265021788483169 0.07551488686697026
-0.008657028699564969 -0.2703804450289753 0.07844899587754225
-0.00478817472499014 -0.2753522397344836 0.08141041233805066
-0.0006051260854132686 -0.27991950803646226 0.08440914857546154
0.003885052010580429 -0.2840723508388112 0.08745931754073212
0.008674896526161328 -0.2878083356155932 0.09057940458655392
0.013755124819584314 -0.29112958161868163 0.09379208548678374
0.019111382819803444 -0.294039864426688 0.09712121400734608
0.024720986162985358 -0.2965452300105345 0.10058591086238657
0.030555369182239306 -0.2986554255455929 0.1041973630984704
0.03658467568769105 -0.30038318781298273 0.10795646297105022
0.04278165676118514 -0.30174461608456526 0.11185297857441956
0.04912465488812447 -0.30275968375995516 0.11586702366731075
0.05559893866590833 -0.3034538793626929 0.11997436567001743
0.0621931959844999 -0.3038556462287133 0.12415336904406113
0.06889382971667134 -0.30399488727552604 0.1283862789519432
0.07568029412189525 -0.3039028912255027 0.13266055269574442
0.08252275892658283 -0.30361480595957036 0.13696952309250682
0.08938157029160596 -0.30317097509215785 0.1413111345204465
0.09620993519565325 -0.3026179040363727 0.14568653515722493
0.10295774339099426 -0.30200716516897885 0.15009558986665805
0.1095747263387298 -0.3013931266583917 0.1545324373146756
0.1160137581713917 -0.30083019272153716 0.1589846835101943
0.12223406734594985 -0.30037164250189224 0.16343328878629904
0.12820381318979174 -0.3000667396566232 0.16785570644644265
0.1339004250157358 -0.2999591556937393 0.17222906842054456
0.1393118628824618 -0.30008625753955875 0.17653199758255095
0.1444373487447876 -0.30047944086512496 0.18075055711886795
0.1492844169990269 -0.3011664084026259 0.18487890704315335
0.1538635585505301 -0.30217447899546984 0.1889184353828079
0.15818416056573315 -0.3035314018868364 0.19287553022291812
0.16225030026348253 -0.30526492909206404 0.19675897775152135
0.1660582806076586 -0.30740004639967256 0.20057983111526465
0.1695938230766197 -0.3099544334020264 0.20434994423308256
0.17283018140536593 -0.3129339339661489 0.2080803102444422
0.17573108183393857 -0.31632879326879676 0.21177598867302874
0.17826011080323642 -0.320112280645213 0.21543381879122375
0.18039514969895007 -0.32424942169205917 0.2190458481931216
0.18213159208364854 -0.3287084385168828 0.22260600536789124
0.18347718775014268 -0.3334648933982228 0.22611080923439006
0.18444739842956365 -0.3384969116473838 0.22955529183248388
0.18506612696937993 -0.3437769524902044 0.23293066967531242
0.18536825457255116 -0.34926482736475895 0.2362260237735673
0.1854010737482907 -0.35490646841148865 0.23943000935691064
0.1852208695450732 -0.3606393818234661 0.24253663646543316
0.18488664206056815 -0.3664053939136237 0.2455484758745872
0.1844527348611871 -0.37216225051975826 0.2484802704873209
0.18396699553255502 -0.37788211444817 0.2513587995546307
0.18347669487337112 -0.3835264308493922 0.2542121656104987
0.18303083442196508 -0.38900622460636386 0.25704485313547426
0.1826742664663432 -0.39417053208881686 0.2598084086529176
0.182436316772555 -0.3988637876605176 0.26241199245074953
LINES 1 120
119 0 1 2 3 4 5 6 7 8 9 10 11 12 13 14 15 16 17 18 19 20 21 22 23 24 25 26 27 28 29 30 31 32 33 34 35 36 37 38 39 40 41 42 43 44 45 46 47 48 49 50 51 52 53 54 55 56 57 58 59 60 61 62 63 64 65 66 67 68 69 70 71 72 73 74 75 76 77 78 79 80 81 82 83 84 85 86 87 88 89 90 91 92 93 94 95 96 97 98 99 100 101 102 103 104 105 106 107 108 109 110 111 112 113 114 115 116 117 118
POINT_DATA 119
SCALARS Curvature float
LOOKUP_TABLE default
-0.007376870581620462
-0.007580421838024177
0.0007287470718567154
0.018426185176459303
0.045253362405419266
0.07971203974013341
0.11912705314947443
0.15988141475017653
0.19780375563513755
0.2286658527029351
0.2487304135507581
0.25527901660800256
0.24704879223309736
0.22451460470756748
0.18997042078136947
0.14738730457846488
0.10205317510469096
0.06002761097783056
0.027469939309135605
0.00991727246788037
0.011598490287532156
0.03486895204463152
0.07983883329071297
0.14424665564324604
0.22360128323803843
0.31158380268572605
0.40066920118673294
0.4829005451108566
0.550728889825885
0.5978229424209512
0.619754814224493
0.6144818707062227
0.5825681230201676
0.5271189901750295
0.45343689696811534
0.3684379480448297
0.2798978217963117
0.19561465458257027
0.12258566532440987
0.06629156215898589
0.030168792092595133
0.015326253827989236
0.020533166025828487
0.04247211875056302
0.07621998406019503
0.11589315743145871
0.15537568391449066
0.1890412468148736
0.2123834885033285
0.2224830172403598
0.21826176134609215
0.20050307143589827
0.17164552893239599
0.13538603132263188
0.09614996358938642
0.05850047134614788
0.026563459527544627
0.003539658924835393
-0.008639078606082994
-0.009473062797316597
0.00013375085478635996
0.01808013953255179
0.04141543406244657
0.06677556069718556
0.09084498388550466
0.11078177554234016
0.12455098631756183
0.13112649291439726
0.13054127914023095
0.12378783344104628
0.11259098688533596
0.09909228067706188
0.08549565658726686
0.07372761426349608
0.06516073189676234
0.06043841579768464
0.05942266829182367
0.0612679439153053
0.06460551983306612
0.06780688820793072
0.06928369908239015
0.06777721541712523
0.06259262553607481
0.0537424340121003
0.04197714367396348
0.028698461084168632
0.01576781025994847
0.005238480177880531
-0.0009489709984634673
-0.0012629823999512305
0.005174993279510659
0.018435090835007106
0.0377357799892133
0.06152003893781502
0.0876409306768675
0.1136307060472457
0.13701544706328758
0.15563064848118707
0.16789297656038576
0.17298977442202984
0.1709598007338562
0.16265448143509917
0.1495863453851811
0.1336877844978813
0.11701642541511884
0.1014512848880876
0.088425311913186
0.07873462663805211
0.07245345049117631
0.0689679663941522
0.0671243995605415
0.06546906686311374
0.06254358859494974
0.05718908699995007
0.04881050058221355
0.03755667872449659
0.024383214373479085
0.010981566681195282
-0.0004223340381334235
