# vtk DataFile Version 2.0
Vessel Segment
ASCII
DATASET POLYDATA
POINTS 119 float
-0.0032428836501159288 -0.004468497044727608 0.0012012937435104667
-0.007132101807958943 -0.00960817855745662 0.0027016589592694946
-0.011512969562681366 -0.015240513048096423 0.004382667561476723
-0.01619797981821985 -0.021122003071132656 0.006060580408646388
-0.021018729115948424 -0.027012277987137144 0.007587092882279262
-0.025862911963371493 -0.0327646588438996 0.008862955239952373
-0.03065357591044257 -0.03830528342329892 0.009791567061378369
-0.03532350615697124 -0.043597038395310456 0.010264079731061495
-0.0398033252726016 -0.0486254128741515 0.010171912947508514
-0.04402739759726448 -0.05340388611316181 0.009432837826964502
-0.04794211493414467 -0.057979104943015024 0.007999727535522054
-0.05150222652456085 -0.06242247298195985 0.005857607517030969
-0.05466147716050837 -0.06681774184960854 0.0030144223975492263
-0.057362573261851894 -0.07124665031652003 -0.0004976668484563151
-0.059521614776904486 -0.07576970261901313 -0.004603667127690078
-0.06109007199037192 -0.08043427077692096 -0.009158641929227898
-0.06205713897095779 -0.085289073370634 -0.014057108259777247
-0.06239620276549647 -0.09033264295397277 -0.019203105410484894
-0.06209803463351427 -0.09553440650272349 -0.024501302470630492
-0.06117660090289981 -0.10085772936106978 -0.029872731948497044
-0.05966349631713944 -0.10627735293494066 -0.03525570435916728
-0.057603405282924534 -0.11177680319300906 -0.04058434314236495
-0.05506612572925183 -0.1173335381638168 -0.04575769362537833
-0.05216058563741671 -0.12290195430591382 -0.05063051006992204
-0.04903044064397596 -0.12840485681760466 -0.055034167248699806
-0.04582939647882932 -0.1337463853671228 -0.0588121865726721
-0.04270056340860042 -0.13883562799386123 -0.06183139841524972
-0.03977858431174313 -0.14357711148210964 -0.0639536624185427
-0.037217530078610596 -0.14782801219007266 -0.06503451209489695
-0.03514994258402554 -0.15141406939064556 -0.06503926487024919
-0.033594094404229884 -0.15425892389726362 -0.0640923416187053
-0.032449845811699664 -0.15644826174109125 -0.06236065803123662
-0.03161002064840568 -0.15812765018627792 -0.05986878175478935
-0.031022492958391355 -0.1593483834974589 -0.056559594055762656
-0.030668305256185066 -0.16011421840048223 -0.052407064818256695
-0.030543819334731236 -0.1604399614479001 -0.04744600586326957
-0.030644837647565946 -0.1603712715505357 -0.04179344206154412
-0.030947136884314354 -0.15999217341789546 -0.03566059270511812
-0.0313957745206127 -0.15943349706111265 -0.029342148245506603
-0.03190531115777647 -0.158871622567868 -0.023104747921707688
-0.03240710587428515 -0.1584694129185883 -0.017029154971815588
-0.03285907520799922 -0.1583440636610716 -0.011094719747894385
-0.03322312171933885 -0.15859414881532788 -0.005251346185361891
-0.03346683518377061 -0.15930842494428907 0.0005623113993051898
-0.033564156557009964 -0.16056989952169645 0.006399674062525028
-0.03349622171662314 -0.1624558190389852 0.012292174237140047
-0.03325779926905743 -0.1650367567025208 0.018239078448474146
-0.03286243314998684 -0.16837194069200648 0.02420801973610975
-0.032334296003043564 -0.1725168501959884 0.03014854409740083
-0.03170036639357075 -0.17751211917185913 0.03598073324780162
-0.03099299452566017 -0.18334547947741317 0.04159861858835804
-0.03025009290244672 -0.18994812478487094 0.04691155921120394
-0.029507293499009143 -0.19722657222260256 0.05186490506910037
-0.028790552437008163 -0.20507681985543333 0.056434708245300606
-0.028110016815414883 -0.2133871978823238 0.06062386031810627
-0.027457211971109376 -0.222031917478292 0.06445917321309463
-0.02680541955161009 -0.23086444908928086 0.06799003312060076
-0.026113851364705655 -0.2397256764520393 0.0712916322825677
-0.025331643660179815 -0.24846731009061976 0.0744639197263865
-0.0243974769827868 -0.2569810005393603 0.0776246386774109
-0.02323738211994123 -0.2652179513287892 0.08088822504664595
-0.021777228085937413 -0.27317434799621876 0.08433535355651066
-0.01995132319848352 -0.2808615038777549 0.08800894981038916
-0.017702630736103 -0.28828757249637577 0.09191632943937547
-0.014988080745442984 -0.29544747551743566 0.09603404639174914
-0.011781057925414068 -0.30231734934985915 0.10031761346284378
-0.008071384701727797 -0.3088545996415348 0.10470808132204484
-0.003864669923349459 -0.315004173967932 0.10914000834032928
0.000822163500326328 -0.3207120236719504 0.11355204520223
0.005969544113469756 -0.325936588638343 0.11789675978037377
0.011559116780490803 -0.3306464074465574 0.12214450172767093
0.01757159612370904 -0.33481927675917533 0.12628408250011652
0.02398326782120682 -0.33844210800601215 0.13032305771582564
0.03076348025837309 -0.3415100165513377 0.13428912566693887
0.037873679856647254 -0.34402418029286375 0.13822801661341025
0.0452660470127625 -0.3459893233015759 0.1421947787194059
0.05288441708216852 -0.347414105056729 0.14624302117774785
0.06066749379869437 -0.3483131105305586 0.1504133378041009
0.06855465660817525 -0.3487116309250755 0.15472770439277606
0.07649023541059255 -0.34864658015915523 0.15918859283517503
0.08442517199754476 -0.3481691247304052 0.16378194837631002
0.09231460820395784 -0.34734131241719857 0.16848445501225004
0.10011557603873186 -0.3462343269020624 0.17326435257033904
0.10778787760973997 -0.3449252424718687 0.17808657627472813
0.11529825811143583 -0.34349522105020885 0.18291941044341914
0.12262508770416912 -0.3420221948310428 0.18774052865400434
0.12976197931306754 -0.3405726333946729 0.19254194956632525
0.1367135377935052 -0.33919608658643685 0.1973266807716632
0.1434861079711949 -0.3379255474873302 0.202100866692647
0.15008221899686014 -0.3367836112306903 0.206868261463637
0.15650105969742706 -0.3357903346709679 0.21162657079570166
0.1627414026390246 -0.3349713015477165 0.21636893217480951
0.16880011429948352 -0.3343633496131945 0.22108631703827517
0.17467052079029263 -0.3340183529867319 0.22576744219880354
0.1803409988561938 -0.3339997685791945 0.23040401296427845
0.18579685891020642 -0.33437594359609324 0.23499089537106255
0.19102164671175623 -0.3352162362816274 0.23952716283888267
0.1959989368213195 -0.33658673706687753 0.24401606693561814
0.20070854906440877 -0.33854766777984485 0.24846196752417127
0.2051235202431643 -0.341149242624727 0.25287105118727904
0.20920293252768354 -0.34442447383079766 0.25724838365787156
0.21288766741240112 -0.3483809206831157 0.26159706201416993
0.21610509933633398 -0.35299412997901775 0.26591377554445533
0.21878317027851124 -0.35820404428797875 0.2701882991691098
0.22087339658183874 -0.36393053859238667 0.27440969915249575
0.2223568431557637 -0.370091606639062 0.2785740588270605
0.22324062012263565 -0.3766105135847865 0.28268228083731745
0.22355678006902277 -0.38340626763175256 0.2867305360653027
0.2233691679270805 -0.3903826795684013 0.29070520860079957
0.22277634396966245 -0.397425201957176 0.2945875678970313
0.22190249529537412 -0.4044115830788952 0.29835893229294647
0.22087538943016413 -0.41122947711212765 0.3020083476954193
0.21980622098963168 -0.41779988586650574 0.3055337190373842
0.21877347816497783 -0.42409723578018765 0.308947966537975
0.2178232458284895 -0.43014348103017597 0.3122808584347299
0.21698589673231616 -0.4359634021794446 0.31556294602453183
0.21629064564406578 -0.4415235591375141 0.31878856833260016
0.21576537588617695 -0.44671224363487816 0.32187987126081263
0.21542463212231117 -0.4513963079442943 0.3247096695232995
LINES 1 120
119 0 1 2 3 4 5 6 7 8 9 10 11 12 13 14 15 16 17 18 19 20 21 22 23 24 25 26 27 28 29 30 31 32 33 34 35 36 37 38 39 40 41 42 43 44 45 46 47 48 49 50 51 52 53 54 55 56 57 58 59 60 61 62 63 64 65 66 67 68 69 70 71 72 73 74 75 76 77 78 79 80 81 82 83 84 85 86 87 88 89 90 91 92 93 94 95 96 97 98 99 100 101 102 103 104 105 106 107 108 109 110 111 112 113 114 115 116 117 118
POINT_DATA 119
SCALARS Curvature float
LOOKUP_TABLE default
-0.0118081449348371
-0.0123358442064336
-0.004518156886689328
0.01241459264173892
0.03808752189463969
0.07091256976730025
0.10818841251366164
0.1463653983205041
0.18144883552680602
0.2094935742865699
0.22712805048629012
0.23203899877466502
0.22335007537944462
0.20183866834698427
0.16995401496901602
0.13162412529180464
0.09186586890179056
0.056238462605278906
0.030202092750871358
0.018457612157314125
0.02434815381863423
0.04939825805525919
0.0930511720111676
0.1526420650142645
0.2236167789863332
0.2999758773925394
0.3748959146247141
0.44145755352803306
0.49339627655577534
0.5257877881300024
0.5355873312813821
0.5219592196756876
0.4863578343220676
0.4323510700482499
0.3652080483141476
0.2913010086753648
0.2173931682405356
0.14989730531144035
0.0941923207031947
0.054076825150647476
0.031421010594424835
0.026053003322815887
0.03588677999112746
0.05726924427672798
0.08549790633980643
0.11544100431752763
0.14218120526054362
0.16160340384011784
0.17085647905484105
0.1686367806309274
0.155265134630097
0.13255608145780162
0.10350437716147406
0.07183613803859423
0.04148761028967358
0.0160815572956976
-0.0015310073414566091
-0.009607010086544757
-0.007686755549120683
0.003407513843430986
0.02174211689909654
0.0445815390658893
0.06878976550523992
0.0912654406450091
0.10935055608150873
0.1211581990396386
0.12577794135740047
0.1233357506740171
0.1149062281768034
0.1022955883818608
0.08773126861762016
0.07350605092337253
0.06162955930785785
0.053537421041112504
0.04989876805297021
0.05054758785909887
0.054544945409370375
0.060359948970043105
0.06614023898851396
0.07003012830776842
0.07048805060561188
0.0665555281418912
0.05803729829129822
0.04556542183974379
0.030537213007234856
0.014935233107972781
0.0010547485100151797
-0.008822468481665622
-0.012761225519459171
-0.00946491512764097
0.001515874738452729
0.019688763475626845
0.04365354311309438
0.07126109129004224
0.09987593507175219
0.12670647622790657
0.14915727156938707
0.16515459044459604
0.17340020572287856
0.17351849841759714
0.16607704760761108
0.15247880672716693
0.1347421949906362
0.11520136597939051
0.09617027422064948
0.07961930133716728
0.06691135504195728
0.058635733568506064
0.05456383655106581
0.05373298863527903
0.05464574504723334
0.055554772420016114
0.05479024977739126
0.05107966698647221
0.04381002868596708
0.033189913181251696
0.020282664787745732
0.006900368911952962
-0.00463135268009275
