# vtk DataFile Version 2.0
Vessel Segment
ASCII
DATASET POLYDATA
POINTS 119 float
-0.0032561320283366027 -0.004353806443784528 0.0013378080940137907
-0.007151312770479513 -0.00940373975434107 0.0029517536681705194
-0.011533536860220045 -0.014985541928210323 0.004723319537944123
-0.016216960564299214 -0.020856151419504733 0.006467333605426425
-0.021033720614093136 -0.026764086619148416 0.008040157300572268
-0.025874465516834422 -0.0325535766495312 0.0093535630240667
-0.030667038886265836 -0.038145806619834736 0.010322059503564799
-0.035349782997465246 -0.04350163561706117 0.01084459333147493
-0.039857784999790966 -0.04860632396950946 0.01081496240519988
-0.04412598409393596 -0.05347287657562191 0.010147875551787752
-0.04809596631962705 -0.05814451254472791 0.008791936701878993
-0.051716017682686494 -0.06268836850363575 0.006732122058188423
-0.05493663591380561 -0.06718737170964512 0.00397780272324485
-0.05770002435391365 -0.07172525244085182 0.0005574513949612829
-0.0599181660785882 -0.07636311953801417 -0.003460956564553204
-0.06154062329479236 -0.08115036723262335 -0.007935121160750376
-0.06255695824160439 -0.08614085161112328 -0.012764963414659401
-0.06293747323995044 -0.09133368836219913 -0.017857040754270352
-0.0626712938405481 -0.0966960334811114 -0.023114822695210153
-0.06177262889018051 -0.10218756753926866 -0.028458058818762264
-0.06027414920691094 -0.10777935668383312 -0.03382394664010969
-0.05822135738025415 -0.11345254294051647 -0.03914534188040487
-0.05568433936787472 -0.11918253391393958 -0.04431888315785631
-0.05277250510391598 -0.12492072951527733 -0.04919641820738847
-0.04962893070436114 -0.13058725499615464 -0.053608812377458424
-0.046403192859677526 -0.1360874742529535 -0.0574019339437088
-0.04323255454942307 -0.14133493548804904 -0.060440878067268916
-0.04024978931458663 -0.14623347984413837 -0.06257336735325564
-0.037618869303483786 -0.15062901600973896 -0.0636300542308242
-0.035487193888844526 -0.154331177186906 -0.06355969549805221
-0.03387937361156214 -0.15725512262004743 -0.06248482964079121
-0.032691811507325336 -0.15948815600645055 -0.060573794939317034
-0.0318149824687913 -0.16117501292442998 -0.05784656119025445
-0.031195990679821223 -0.16236058368940753 -0.05424849039805063
-0.030814411329609815 -0.16304918987950548 -0.04976468761190541
-0.03066508504092476 -0.16326576736254628 -0.04444805770426314
-0.030740403156363207 -0.16307427097069338 -0.0384424542679669
-0.03100922540476335 -0.16258332946134355 -0.03199272771691091
-0.03140808237249734 -0.16195109838302882 -0.02542651549920533
-0.031844215829367604 -0.16137734345575805 -0.01902207196263816
-0.03225054058565192 -0.16103315769176796 -0.012832156350419828
-0.03259195871047214 -0.16103203002101826 -0.006801080231370197
-0.03283491636030282 -0.16146953003087833 -0.0008510574617397451
-0.0329491070052294 -0.16243567783762886 0.005099425292073834
-0.03290905397170845 -0.16401808448160377 0.011114016312670607
-0.032696359144832286 -0.16629851703076395 0.017222820798034597
-0.03230868282777281 -0.16934778740551606 0.023413001714199234
-0.031766319148300595 -0.17321834032817832 0.029634660578182554
-0.031100657910824184 -0.177957684133499 0.035824402666868135
-0.030343604921409945 -0.18360172477540826 0.04189323268185646
-0.029531741143974773 -0.1901305794387538 0.0477249060178331
-0.02870728377674841 -0.19746058586023194 0.05321994646516952
-0.02790924280280237 -0.20548031633011468 0.058320098576997145
-0.027165128499096133 -0.21406823420227217 0.0630026504909549
-0.02648417992442788 -0.22309644072839205 0.06727441432450333
-0.025854632536326416 -0.23242243738213353 0.07116714928196874
-0.02524450170075134 -0.24188111572865933 0.07473665970646146
-0.024606205671777546 -0.25129549951895036 0.07806804755912086
-0.023880764536372938 -0.26050492284055754 0.08127610261663494
-0.022996814651149604 -0.2693988809442154 0.0844978247480965
-0.021867979162279776 -0.2779390568293389 0.08786660343650048
-0.020408991902310113 -0.28613942682059706 0.0914753808385485
-0.01854599899129832 -0.2940295002105355 0.0953734017588539
-0.016215706208649962 -0.301632967122941 0.09956852361602272
-0.013371079560138395 -0.3089551201566228 0.10403119223769923
-0.009983714652732179 -0.31597610839268153 0.1087049115258374
-0.006043724253371976 -0.32265187649118265 0.11351397307325459
-0.0015592279915035744 -0.3289222709109751 0.11837342925448276
0.003448744339574904 -0.33472730644841325 0.1232026053387223
0.008956363494105168 -0.34002068176472816 0.12793778051440152
0.014941634376525733 -0.34476720906142616 0.13253749257420616
0.02138183953283155 -0.3489417424687588 0.13698332677945507
0.02824910821386168 -0.35252884014522506 0.14128003828190902
0.035507373523636976 -0.35552214759104583 0.14545717439401573
0.043111765057086776 -0.35792230224228266 0.14956701850812384
0.051007615880199586 -0.3597335765151319 0.1536749897217774
0.059130852668581854 -0.3609641468950285 0.15784672307913641
0.06741087334990828 -0.3616290337334238 0.162133927874514
0.07577704598481738 -0.361756206899388 0.16656746464400254
0.0841635711715168 -0.36138766118463195 0.1711558644064714
0.09251137872202803 -0.3605823460365463 0.1758876993286827
0.1007661398766246 -0.35941248004355003 0.18073895132280768
0.10887692982657418 -0.3579615574175258 0.18567367747490995
0.11679858041908857 -0.3563199388308681 0.19065022355731318
0.12449744066133836 -0.35458158140104284 0.19562959804825414
0.1319572775370632 -0.3528341547968938 0.20058366999011218
0.13918294960569777 -0.3511484179262889 0.20550197069825474
0.1461939068714625 -0.3495720637905285 0.21038861268014303
0.1530116940304673 -0.3481313052158495 0.21525336991875674
0.1596521332665644 -0.3468396207502784 0.22010471389362804
0.16612517002177593 -0.3457079063463611 0.2249451380276587
0.1724379058716571 -0.3447552319131786 0.22977216165329736
0.1785926345137879 -0.34401640381242266 0.2345805285797548
0.18458433501446228 -0.3435470036257694 0.23936159166707244
0.1903985782024465 -0.343419048282556 0.24410838038649646
0.19601468135460168 -0.343711892970893 0.2488157249901595
0.2014089242720855 -0.3445063172373982 0.25348193479600867
0.2065581160294533 -0.3458788573940438 0.25810950342302125
0.21143600033413631 -0.34789880466003004 0.26270198834859987
0.21600993495796952 -0.3506239483818582 0.2672648897267957
0.22023222770404172 -0.3540927513164862 0.27180209434988484
0.22403494924398779 -0.35831482975755846 0.27631501586719576
0.2273349958958856 -0.36326314601848203 0.2807982160884141
0.2300495792610677 -0.36886930926046496 0.28523941743399606
0.23212189231556918 -0.3750407798759493 0.2896265962880829
0.23352818305543188 -0.3816809670232989 0.29395614173826506
0.2342750019622635 -0.38869740346017334 0.29822993488340926
0.2343993703290667 -0.39599102126346086 0.30244427043654404
0.23397749585532004 -0.40344468923660926 0.3065839730679538
0.2331275548200207 -0.41092160981255965 0.3106278611258226
0.23199690016903862 -0.41827998058395965 0.3145548893524168
0.23073398707715173 -0.4253944023469886 0.31835240855768215
0.22946404164206607 -0.4321820092214923 0.32201675697916887
0.22827077310045452 -0.4386240193468418 0.3255602234710017
0.22719804811980193 -0.44475756882284595 0.32901348768229294
0.22627029087136108 -0.45062518063040513 0.3324080697220265
0.2255106358803966 -0.4562081763661068 0.3357359979912408
0.22494212762132393 -0.461404845611776 0.338912006516571
0.22457527203065858 -0.46608764201244995 0.34179973862124724
LINES 1 120
119 0 1 2 3 4 5 6 7 8 9 10 11 12 13 14 15 16 17 18 19 20 21 22 23 24 25 26 27 28 29 30 31 32 33 34 35 36 37 38 39 40 41 42 43 44 45 46 47 48 49 50 51 52 53 54 55 56 57 58 59 60 61 62 63 64 65 66 67 68 69 70 71 72 73 74 75 76 77 78 79 80 81 82 83 84 85 86 87 88 89 90 91 92 93 94 95 96 97 98 99 100 101 102 103 104 105 106 107 108 109 110 111 112 113 114 115 116 117 118
POINT_DATA 119
SCALARS Curvature float
LOOKUP_TABLE default
-0.010426047597573826
-0.011296418985395174
-0.003945954130600253
0.01237707207656876
0.037290329649087184
0.06921652439000457
0.10548892342102205
0.14261840349302454
0.17669442964602483
0.20387262850447407
0.22088759628991014
0.22552335215980615
0.2169764872830773
0.19605847751349786
0.1652025537422062
0.12826465939146098
0.09013432538148547
0.05619636187863291
0.03170479545662802
0.021143689816979998
0.027653499777796704
0.052595706221260516
0.09531322185245832
0.15312122020060406
0.22153540287195125
0.29471571707364996
0.3660768188798558
0.4289955477696942
0.47753304256398516
0.50708655010225
0.5148938518170053
0.500330632141871
0.4649658984873862
0.4123696570103675
0.3476968247073347
0.2770981040207598
0.2070289371982762
0.14353918226913462
0.09162742930922989
0.054734825536491394
0.03443512734513111
0.030352814282933852
0.04031268193471695
0.0606959895769954
0.08695353395552773
0.11420800414636277
0.13786880150077369
0.15418317957016614
0.16065779376302916
0.15630305028390304
0.14167649979013516
0.11872775462714517
0.09047259430101322
0.060544839838364096
0.0326886214382663
0.010259182146878838
-0.004203150909984981
-0.0092730464180352
-0.004779935608907568
0.00822451425288063
0.027659915592638012
0.05073929580331219
0.07437138857302053
0.09558552278944758
0.11192049753424213
0.12172575793037478
0.1243369526448568
0.12010651713221256
0.11029063468010598
0.09681388865293276
0.08194940197579063
0.06796306166094397
0.056774167705469836
0.049681146973696896
0.04719049030855899
0.04897139280478814
0.053939989577358675
0.06045824234820869
0.06661610529026787
0.07055387144095725
0.07077617865224518
0.06641073999834117
0.057373169884189223
0.044413072905562026
0.02903385322630302
0.013297013927506809
-0.0004615554532947617
-0.009963027402929191
-0.013317520420834287
-0.009308830684786598
0.0024090943771355416
0.02123271753627138
0.04565885523052728
0.07345814150491324
0.10194873630776835
0.12833284262100994
0.15004969667329768
0.1650963192661682
0.1722718109589309
0.17131171805864334
0.16289448530157719
0.1485200657999763
0.13027883021140868
0.11054444324826819
0.09163514234337614
0.07549230757435905
0.06342268483928477
0.0559414309254855
0.052738551783656815
0.05277334337797941
0.05448265418431241
0.05607185063465032
0.05584473122158385
0.05252217268760592
0.045500025011841055
0.03500471935550086
0.022119212859691522
0.008670369055856572
-0.003010878329198851
