# vtk DataFile Version 2.0
Vessel Segment
ASCII
DATASET POLYDATA
POINTS 119 float
-0.003222226957706695 -0.004756087853739097 0.0008807714720562273
-0.007103754003309296 -0.010116043077698013 0.0021155076210919166
-0.011484707406203838 -0.015871017012325888 0.003585512900725877
-0.016174782718955144 -0.02177958794277405 0.005109814409992213
-0.021005383942145673 -0.027629539979568064 0.006528904298070577
-0.025857941040962056 -0.03329641391101238 0.007717876852742441
-0.030644615583193497 -0.0387183154116925 0.00855443523059306
-0.03528558300291673 -0.043863219829384216 0.00891189455811277
-0.03970166220301473 -0.048717677144684265 0.00867642637165053
-0.04382651294948734 -0.053296789694995024 0.00777274696515251
-0.047617869125402223 -0.05765525496827168 0.006162684148591815
-0.05104512177946062 -0.0618741111995856 0.00382994243214361
-0.05406879949898398 -0.06603862096336802 0.0007779563698929693
-0.056631701052002305 -0.0702251861221853 -0.0029525684927845376
-0.05865847150867044 -0.07449192641132525 -0.007269119188539111
-0.06010502880145911 -0.07888162886831039 -0.012019500196086042
-0.060960083983646905 -0.08343170991585551 -0.017084682910560766
-0.06120431668203437 -0.08813952655773553 -0.022362421677004415
-0.06083239960535724 -0.09297974976839433 -0.027760168077682355
-0.05985787210915709 -0.09792401995972197 -0.03320194180680575
-0.05831004014102922 -0.1029552571715156 -0.038628661129453117
-0.05623189679189804 -0.10806233234768962 -0.0439774613304114
-0.05369271426582074 -0.11322738234726372 -0.04915304298182594
-0.05080042544252804 -0.11841162423249502 -0.05401691466480317
-0.047700177885022246 -0.12354395782738053 -0.058401578001928245
-0.04455528592814917 -0.12852588909673648 -0.062145105263232636
-0.04152203522987044 -0.13325674484592454 -0.06511843427809177
-0.03873858837126279 -0.1376429920150585 -0.06721582288686198
-0.03633561276870276 -0.1415678297873394 -0.06834911684433674
-0.03441122191403772 -0.14489456722925143 -0.0685201700830123
-0.032968647413319195 -0.14756732930160488 -0.06785383302178755
-0.031916553549091245 -0.14966479851027983 -0.06650693262662792
-0.03115552570440697 -0.1513266363971093 -0.06451312624350672
-0.030635640859817948 -0.1526153672079268 -0.06181655435495583
-0.030340142448607568 -0.15353652795453387 -0.05837305799593608
-0.030268065623139082 -0.1540873240783345 -0.05418138464622194
-0.0304226226843336 -0.1542773836294835 -0.04930153759153912
-0.030795385275190577 -0.15413910165565547 -0.043870658191902924
-0.03135189821242668 -0.15374246860045768 -0.03810767567368884
-0.03202538198236759 -0.1532074481039884 -0.0322470294429315
-0.03274461879108414 -0.15267298108493838 -0.026424790013362027
-0.03345040097050172 -0.15226353459526365 -0.020694008699180495
-0.03409158677865636 -0.15208876561305584 -0.01506375790424094
-0.03462757888924036 -0.15224286235621087 -0.009517014273013593
-0.03502803758625593 -0.15280750315276023 -0.0040252702247697185
-0.03527176998494725 -0.1538555725793664 0.0014407994983048535
-0.035348230957180794 -0.155457028749156 0.00690044245500044
-0.03525915935333754 -0.1576804708995049 0.012353382654140547
-0.03501607979802759 -0.16059187404872693 0.017773658072067697
-0.0346373897741989 -0.16423695954659528 0.02310063249309241
-0.03414766486898715 -0.16861602115306107 0.028252279570244215
-0.03357631887884739 -0.1736887764042173 0.033159597811484476
-0.03295183025852309 -0.17939773402729395 0.037778459176823036
-0.03229635639634819 -0.18567526345627272 0.04208485251136755
-0.03162113715966905 -0.1924445023407171 0.04607544985425952
-0.030923684418111535 -0.1996163347651919 0.04976815578406282
-0.03018743859890707 -0.20708540188441735 0.053199757153154024
-0.029385197666775116 -0.21473267232506826 0.056424577518740596
-0.028483026323741268 -0.22243860191472528 0.059509903399809834
-0.02744160300490861 -0.23010206297600416 0.06252984834129474
-0.026215091176559683 -0.23765483569307605 0.06555525372790111
-0.024754850524629925 -0.245058177293428 0.06863906122567613
-0.02301327181862146 -0.2522868506040632 0.07181163217195301
-0.020946085732483837 -0.2593164770605735 0.0750819079031953
-0.018517371003635867 -0.2661186940176 0.0784425556843977
-0.015703151879866952 -0.272658936554223 0.08187664096017504
-0.01249213161529612 -0.2788954897207424 0.08536125878458228
-0.008884814742398325 -0.28478246390312567 0.08887155739061198
-0.004890139926593187 -0.2902774618451349 0.09238584618763865
-0.0005194879845316575 -0.29534872432045167 0.09589010575980822
0.004216027611481781 -0.29997309737599326 0.0993792453056121
0.009304543265538978 -0.30413543722227215 0.10285754068117474
0.014731913169267393 -0.3078285721134728 0.10633899691413133
0.020480024899759044 -0.31105141307273787 0.10984793092983726
0.026524650340439423 -0.3138065126867285 0.11341647233587288
0.032833049164716306 -0.31609942877158714 0.11707765295397035
0.039365896163654546 -0.3179396170703756 0.12085928644200652
0.046081299402996656 -0.31934063394993095 0.12477796532560845
0.05293933995799841 -0.32032217281996633 0.12883632463953643
0.05990540313536632 -0.32091068444386195 0.13302351504747084
0.0669515407821647 -0.3211413791463981 0.1373195441317492
0.07405330690943933 -0.3210554064519459 0.14170233080773428
0.08118537052075264 -0.3206984004870526 0.14614882040991023
0.08831908904360762 -0.3201193707662605 0.1506378120819885
0.09542290777614314 -0.31937169806371823 0.15515295116885297
0.10246404926588133 -0.31851115377900346 0.15968425970552416
0.10941170813239036 -0.31759308323322827 0.16422919556882515
0.11623768088032779 -0.3166691947296859 0.16878865478837748
0.12291446977252683 -0.31578597758690063 0.17336127815038824
0.12941494299552145 -0.3149854108994585 0.1779408707685902
0.13571437233680375 -0.31430754119547644 0.18251490620333838
0.14179314126577386 -0.3137921934786041 0.18706701736637948
0.14763633483078945 -0.31348042673864734 0.1915798612624788
0.15323390760636932 -0.313415593619023 0.1960361809983249
0.15858063451815105 -0.3136420463375404 0.20042446211530038
0.1636751228970374 -0.31420378803514204 0.2047393287641411
0.168517039062837 -0.3151449519441406 0.20898135111633975
0.17310525326915718 -0.3165085748100926 0.2131555894490407
0.1774337480881032 -0.3183351688947489 0.2172687481477695
0.18148902837148884 -0.3206592378424106 0.2213294382912571
0.18524579026500357 -0.3235036239207316 0.22534627181819436
0.1886643124560199 -0.326873679029323 0.22932669918925117
0.19169418572352412 -0.33075272857799193 0.23327228012842272
0.19428548563271983 -0.33510016956107963 0.23717709737681283
0.19640640241365032 -0.33986305465878563 0.24103220982851137
0.19804730337604365 -0.344990182196986 0.2448326412817862
0.19921600949758234 -0.35043730720065047 0.24857687216538177
0.19993433284856693 -0.3561604118884551 0.25226059683415664
0.20024109666664372 -0.36210624466548225 0.2558733618026161
0.20019499491241 -0.3682064747830562 0.25940144222507133
0.19987242016515272 -0.37438060556941116 0.2628308771695289
0.19935729881817024 -0.38054588180186516 0.26615394730300596
0.1987295863191605 -0.3866344572125414 0.269371546817809
0.19805425195709056 -0.39260901598376874 0.2724977495989666
0.19737972328571354 -0.3984603513261777 0.27556042180609747
0.19674752453404046 -0.4041748165211566 0.27858839207236497
0.19619927011330884 -0.40968589717217085 0.28158172745653115
0.19577319374057656 -0.4148588505892116 0.28447975509073176
0.19549271826640427 -0.41954745746192523 0.2871765501737513
LINES 1 120
119 0 1 2 3 4 5 6 7 8 9 10 11 12 13 14 15 16 17 18 19 20 21 22 23 24 25 26 27 28 29 30 31 32 33 34 35 36 37 38 39 40 41 42 43 44 45 46 47 48 49 50 51 52 53 54 55 56 57 58 59 60 61 62 63 64 65 66 67 68 69 70 71 72 73 74 75 76 77 78 79 80 81 82 83 84 85 86 87 88 89 90 91 92 93 94 95 96 97 98 99 100 101 102 103 104 105 106 107 108 109 110 111 112 113 114 115 116 117 118
POINT_DATA 119
SCALARS Curvature float
LOOKUP_TABLE default
-0.01116353295010493
-0.011231804749043584
-0.0028049461408184767
0.014942353297579739
0.041687528227534305
0.07587049304537892
0.11477420493313856
0.15477599187534685
0.19174637223968458
0.2215504087186561
0.24059014825554326
0.24631783159345322
0.23764978240747
0.21522049632047838
0.18143448528800227
0.14029778348352795
0.09703868173077103
0.05755470636459417
0.027746510058890568
0.0128160196964147
0.01661354619126512
0.04111541568134618
0.08610017501381802
0.14906903756528453
0.2254276150373839
0.30891461593584385
0.3922329755832708
0.4678136190604791
0.528624972136979
0.5689346539640978
0.5849344469933427
0.5751551628044721
0.5406225586006672
0.484736019894867
0.4128845573666162
0.3318457257093257
0.24903853548595165
0.17171817549750729
0.10620637029753262
0.05724579267724734
0.027550891228777026
0.017602861772728507
0.025706425866065388
0.048294365900904024
0.0804363539343477
0.11648511074632693
0.1507781594992751
0.1783090696533497
0.19528845643282658
0.19953108064722777
0.1906289433089681
0.16989814458573382
0.1401158464033519
0.10508930110855788
0.0691184025975006
0.03642426013433698
0.01061771254042791
-0.005726410436034806
-0.011339779298911817
-0.006348443923794715
0.007824366708877224
0.028718682026846062
0.05321908386653801
0.07800030743927315
0.09997448387105679
0.1166798596005673
0.12656133955943577
0.12911005666309966
0.12484988970960768
0.11518049556237075
0.10210599867835159
0.08789335778595135
0.07471268091320016
0.06431241908857298
0.05777554065260608
0.055389613600014216
0.056646203739924
0.06036569982386944
0.0649253719306287
0.06855373691451112
0.06964517964709206
0.06704647365655898
0.06027159065271641
0.04961221459192727
0.03612702971224511
0.02151084075255381
0.007862304265654775
-0.00261604081208325
-0.00794178192946611
-0.00665339040215278
0.001956351945240624
0.017708766432779955
0.03952949838776942
0.06556308939270979
0.0933966414613313
0.12036168001727447
0.14387209898405348
0.16175086906098735
0.1724997623455357
0.17547447942897224
0.17094110741249208
0.1600068604883881
0.14443612499020816
0.1263793531982931
0.10805493729051788
0.09143100810547054
0.07795411892554618
0.06836493537715746
0.06262828558059359
0.0599880180311934
0.05913847253374827
0.05848667698791434
0.056465227482335435
0.05184731152012479
0.04401383935227158
0.03312852251815658
0.02018930032265594
0.0069421124043219954
-0.004336758442812461
