# vtk DataFile Version 2.0
Vessel Segment
ASCII
DATASET POLYDATA
POINTS 119 float
-0.0032469945178115506 -0.0044297152770153714 0.0012468150677383048
-0.0071380184742794815 -0.00953917800725414 0.0027850415998496017
-0.011519244785127473 -0.015154535367503354 0.004496222007831606
-0.016203687347108968 -0.021032350502102948 0.00619614929483449
-0.02102309152823133 -0.026928486883805742 0.00773808021374856
-0.025866118539370576 -0.03269320645894269 0.009026436412678985
-0.03065740597736503 -0.03825098434775051 0.009968313828084966
-0.03533158126317576 -0.043564021090337725 0.010457451845638495
-0.03982073763915361 -0.04861771434331949 0.010386053594944919
-0.044059412661491444 -0.05342537016304151 0.009670874004960542
-0.0479923919336727 -0.05803249067315474 0.008263390745879062
-0.05157228189460315 -0.0625090653247525 0.006148652861621863
-0.054751766711836486 -0.06693858158468372 0.003335114090805639
-0.05747341610380254 -0.07140346180278088 -0.00014629002306947633
-0.05965198985397355 -0.07596444134267169 -0.004222934671130159
-0.06123832338824874 -0.0806695635302634 -0.008750793265083451
-0.06222172304932529 -0.08556924060912598 -0.013626211027560325
-0.06257454514308415 -0.09066219484019147 -0.01875407830887416
-0.06228701040022853 -0.09591709797205038 -0.024038665064481376
-0.06137316176223296 -0.10129609659697968 -0.02940057630187199
-0.05986494614802259 -0.1067727185996592 -0.034777751128058115
-0.05780731439191198 -0.11232970149605179 -0.040103888971727515
-0.05527015624656233 -0.11794382268908336 -0.04527723205304323
-0.052362556679919126 -0.12356848458713392 -0.05015156678069426
-0.04922797427579917 -0.12912560368567022 -0.05455809989149649
-0.04601873930731604 -0.1345197214123439 -0.05834113430543455
-0.04287602634583782 -0.13966139381380097 -0.06136692057140837
-0.03993387908682471 -0.14445490895233337 -0.0634926233097828
-0.03734967720031509 -0.14875369447615505 -0.06456553338991922
-0.0352609080794032 -0.1523781217179556 -0.06454551214156899
-0.033687962902691944 -0.15524899031608902 -0.06355647579675969
-0.03252952554754491 -0.15745263158153042 -0.06176600940026694
-0.03167757355870254 -0.1591345591246997 -0.05919717509252927
-0.031079718511234394 -0.16034402063028366 -0.05579346755684785
-0.030716549915357702 -0.16108486142622092 -0.05153234800078706
-0.03058394571231656 -0.1613750898559551 -0.04645448953757627
-0.030676585180267463 -0.16126627434109714 -0.04068570420079231
-0.030967947986201803 -0.16085047833695523 -0.034448297750494954
-0.031400232051536595 -0.1602675602088559 -0.02804791157433736
-0.031885515069182684 -0.15970175020597166 -0.021755202410610273
-0.03235565076270758 -0.15931878473024577 -0.015641886341335363
-0.03277091657420773 -0.1592346474817356 -0.009675864674703067
-0.033094808109731054 -0.15954677168622766 -0.003797963086189628
-0.03329571442511029 -0.16034407665970318 0.002059819248673366
-0.03334784970998313 -0.16171083473227868 0.007954357282692611
-0.03323252734382912 -0.1637256447752975 0.013916799478774014
-0.032945421272706846 -0.16645919661428316 0.019942611161656142
-0.03250219750632645 -0.16996867559741757 0.02599381850402757
-0.031929308316795364 -0.17430715484917667 0.03201579858299588
-0.0312552940735998 -0.1795138634949953 0.03792564991210104
-0.030513861109025913 -0.18557413594375302 0.043613974904568496
-0.029744317996625354 -0.1924143806524015 0.04898715654266307
-0.028983406225957662 -0.19993529392527473 0.053989282338125125
-0.028257608333798603 -0.20802715274993627 0.05859673679764878
-0.027576800667768932 -0.21657296014093794 0.06281363692433059
-0.02693146205186972 -0.22544141975585547 0.0666683710542963
-0.026293180887038112 -0.2344798688565068 0.07021239885357637
-0.025618970476147508 -0.24352328182316033 0.0735241523446182
-0.024855320474872208 -0.25241924680152744 0.07670847174010885
-0.023937605349543496 -0.26105863260835105 0.07988948342178347
-0.02278774253484302 -0.26939599109273715 0.0831879264312372
-0.0213279012118298 -0.2774332491260604 0.08668854096965507
-0.019489695733782272 -0.28518761818030364 0.09043629330847527
-0.017214057696710795 -0.2926723289326849 0.09443859005710796
-0.01445665845533635 -0.2998857390818097 0.09866989083310847
-0.011190331694295438 -0.3068053634660658 0.10308171936244746
-0.007405009134327097 -0.31338819182656674 0.10760963315505351
-0.0031071139047895158 -0.3195775456278684 0.11218183744515231
0.0016851092038084967 -0.32531745526374056 0.11673070402011466
0.006950720534758811 -0.33056481219547185 0.12120350759446276
0.012670188057938831 -0.3352869222142327 0.1255667482445053
0.018823099127488134 -0.3394605963195692 0.12980686840778347
0.02538435711533611 -0.3430719518490497 0.13393049187655667
0.03232150751704866 -0.3461156067815061 0.1379659063353131
0.03959390303886514 -0.3485925579506217 0.14196097809358393
0.047151468222486635 -0.35050738645431795 0.1459741491320899
0.054935450106796305 -0.3518686002952027 0.15006297032643243
0.06288151878945679 -0.35269092875595615 0.15427168194276183
0.0709257949068655 -0.35300053486419564 0.15862517769358295
0.07900930748813416 -0.35283598334834737 0.16312792222311442
0.0870797262685857 -0.35225096880069184 0.16776672823147276
0.09508908431548234 -0.35131084517084876 0.1725180556499364
0.1029917868278298 -0.3500908058264946 0.17734877981527358
0.1107459784400842 -0.3486722668806337 0.18222168332558383
0.11831824762110663 -0.3471405931966705 0.18710267287754137
0.1256887196884591 -0.3455769451866608 0.19196752336204445
0.13285470231020308 -0.34404925472976455 0.19680743671999135
0.1398256958027073 -0.34260651763655836 0.20162577691398836
0.14661306548664613 -0.34127953703948793 0.20642987126197493
0.15322373336481174 -0.34008792645225155 0.21122501620019155
0.15966044056140957 -0.3390487310982321 0.2160104863911356
0.1659247064045618 -0.3381853922871882 0.22078085926440824
0.17201518132225188 -0.3375340861686695 0.22552834971141816
0.17792572851081445 -0.3371479188189899 0.23024254807408207
0.1836437937373687 -0.3370931747498329 0.23491560455929658
0.18915270963102054 -0.337441831164476 0.2395423823475572
0.19443362418256424 -0.338267012432989 0.24412170823418783
0.19946787101464686 -0.3396382540514769 0.2486565800286625
0.20423324486960032 -0.34161876070839836 0.25315107668933273
0.20870088321176003 -0.3442612158516425 0.2576111325652108
0.21282761622440258 -0.3476003744301142 0.2620413981386782
0.21655142352446824 -0.35164440494302385 0.26644439833055344
0.2197962535030018 -0.35636794077768336 0.27081611760669116
0.22248655724168312 -0.36170814614926894 0.27514566194833673
0.22457115709668868 -0.36758081064077225 0.2794217506066263
0.2260295681634178 -0.3738991615908483 0.28364057800409986
0.2268687298374614 -0.3805813438280855 0.2878033751039085
0.22712230929086788 -0.387540491622694 0.29190635687741323
0.22685815825884903 -0.39467360604402985 0.2959353983712922
0.22618120109383602 -0.4018588858326443 0.2998709698661735
0.22522316307411538 -0.40896767135192036 0.30369362324939814
0.22411857899672752 -0.41588328845592515 0.30739186043385075
0.22298327862061187 -0.4225253872483998 0.31096308487053115
0.22189753121035927 -0.42887053979126266 0.3144200173517334
0.22090676583096067 -0.4349456387188852 0.317792724828595
0.22003945220429366 -0.44078129373238734 0.3211120669297834
0.21932283041677475 -0.4463489459926038 0.32437160352759464
0.21878319821236716 -0.45154021109352127 0.3274910139144775
0.21843377008272735 -0.4562238083346371 0.33034006000195587
LINES 1 120
119 0 1 2 3 4 5 6 7 8 9 10 11 12 13 14 15 16 17 18 19 20 21 22 23 24 25 26 27 28 29 30 31 32 33 34 35 36 37 38 39 40 41 42 43 44 45 46 47 48 49 50 51 52 53 54 55 56 57 58 59 60 61 62 63 64 65 66 67 68 69 70 71 72 73 74 75 76 77 78 79 80 81 82 83 84 85 86 87 88 89 90 91 92 93 94 95 96 97 98 99 100 101 102 103 104 105 106 107 108 109 110 111 112 113 114 115 116 117 118
POINT_DATA 119
SCALARS Curvature float
LOOKUP_TABLE default
-0.011472358395142573
-0.012114260774203193
-0.004445069399382583
0.012298794895713396
0.0377388857640476
0.07028879721520122
0.10725619368509037
0.14510878929108426
0.17987725518464284
0.20764784791556382
0.22508302928403676
0.22990163785657705
0.22125242257991065
0.19992593221149546
0.16836864634790596
0.13048755300926745
0.0912600679339935
0.05618981226119004
0.030669942864136362
0.019329598765051068
0.025443619518244524
0.050480207775735815
0.09384614050686531
0.15286621980305873
0.22300567043190395
0.2983146035084024
0.37204619046104875
0.43737831913509084
0.48815504686522104
0.5195608914960519
0.5286483998167288
0.5146566442345266
0.4790832183915235
0.42550184626903564
0.35914821395763635
0.28632428485330996
0.21369273670843364
0.14754563151351754
0.09313349822174237
0.05413249492577709
0.03230937811001139
0.02741897911060491
0.037339982655493015
0.05842568662035127
0.08602074687812732
0.11507584398441568
0.14078203333572922
0.15914637517215105
0.1674401085312521
0.16446870310907608
0.1506371128193746
0.12781026816242905
0.09899479586240471
0.06788982645342478
0.03836982349063291
0.013968863058863525
-0.0025669126502370822
-0.009603253650733272
-0.006780962070173197
0.004996438453084072
0.023741473756891056
0.046697095524023215
0.0707388479760554
0.09280697485663186
0.11030868732308079
0.12143703391151738
0.12536612779483292
0.12230090075872693
0.11338042488217887
0.10045425043000669
0.08576835476177777
0.07160888887505526
0.059956461517880096
0.052200731153305174
0.04895514925331533
0.049996336484824745
0.05433403029812366
0.06039848181308063
0.06631529988195642
0.07022539796320267
0.07060158677737333
0.06651427019013263
0.05780644407873882
0.04515160879266314
0.029985336099696305
0.014319621250364612
0.0004661775513780379
-0.00929192132631847
-0.013033248402276041
-0.009487795400425107
0.001758426076610172
0.02017396262459437
0.044321473193952424
0.07202185838608911
0.1006209574326288
0.12732228410179836
0.14953989613949542
0.16522259556077723
0.1731046602557846
0.17284865753492482
0.1650611351426841
0.15117997582914053
0.13325039234983366
0.11362234624926745
0.09461333669687863
0.07818541147068911
0.06568316484775195
0.05767065800606723
0.05389083748532272
0.05335314405250227
0.05453612668213035
0.05567470247758071
0.05508872220902997
0.05150263911659417
0.044306420911049124
0.033715471168428365
0.020801284783188722
0.0073829872404544816
-0.004209733573242592
