# vtk DataFile Version 2.0
Vessel Segment
ASCII
DATASET POLYDATA
POINTS 119 float
-0.0032425863164553827 -0.0060380967837366795 -0.0003530078880783475
-0.007160126751656188 -0.012320248073390256 -0.00010128665390492057
-0.011577127612580684 -0.01857066104086981 0.0006090615840778754
-0.016301012925531846 -0.024595823267379337 0.0015893427234583213
-0.021173299863998407 -0.030311817601679614 0.002631293800830984
-0.02606016724347438 -0.03568544970005455 0.003517557277065022
-0.030838500629363684 -0.0407022440536709 0.004036155507398848
-0.035387613393360044 -0.045352327025677555 0.0040001240326631065
-0.039600322790562366 -0.0496317568549397 0.0032790080862554393
-0.043414575755828064 -0.05356661091379693 0.0018178869934333392
-0.04682882488526775 -0.05723962239686006 -0.0004030431897272472
-0.04985791379516951 -0.06076056631576513 -0.0034226518963105844
-0.05247598764961428 -0.06421336403153549 -0.0072667691445088434
-0.054614372175095786 -0.06764786902737246 -0.011860684869576095
-0.05621970996027565 -0.07110615772700186 -0.01703017441372322
-0.057265547119602286 -0.07461798491341942 -0.022583904970233472
-0.057743543962541395 -0.07818933006658475 -0.028344318854940487
-0.05766183798063528 -0.08181653728818701 -0.03418212290039788
-0.05702935223649121 -0.08549276845638167 -0.04001490926059699
-0.0558591964041297 -0.08921613972681773 -0.0457771639679535
-0.054174690452219405 -0.09299474591895654 -0.05141899249289351
-0.05201510352865627 -0.09683406115887286 -0.056889011368905916
-0.04944948093010223 -0.10073142435316769 -0.06211298106164176
-0.0465837388672069 -0.10467027655406176 -0.06697654155193535
-0.04357014423630549 -0.10859963013933129 -0.07131550764640507
-0.0406063020139518 -0.11241422009505163 -0.07494876794379188
-0.0378902622771308 -0.11598539085317486 -0.07776304059808296
-0.035562944175061804 -0.1192295582907678 -0.07976251896850685
-0.03366764013691969 -0.12211874473534491 -0.08104271204742103
-0.03218224231765939 -0.12465071609295078 -0.0817202166768412
-0.03105196847422954 -0.1268606612045551 -0.08189785881803952
-0.0302199845943169 -0.12879443369945817 -0.08163188666431441
-0.029640934715822884 -0.13049238451464445 -0.08093300137879592
-0.02928872026563193 -0.13198058981204952 -0.07978930511081553
-0.029145255920571447 -0.1332718463125406 -0.07818015561511371
-0.029205645148110217 -0.13435670300831773 -0.07605977991207155
-0.029488657325445276 -0.13519309430588508 -0.07335969556772258
-0.030035172913694036 -0.13570256693903887 -0.0700090129634881
-0.03088983973038669 -0.13578094911880947 -0.06597130095780546
-0.03207468835827153 -0.1353316880742744 -0.061308737197448955
-0.033532794619946286 -0.1343462871300335 -0.05624284321953763
-0.03514983581677819 -0.13293143210686853 -0.05100197686143981
-0.036816520565566016 -0.1312393762547654 -0.04574512436371797
-0.0384377906486126 -0.12943417819023117 -0.04057254604628019
-0.03993488665728626 -0.12767713981324313 -0.035533289029819275
-0.041246858602323265 -0.12611578084610814 -0.030635692188091077
-0.042326953043659334 -0.1248804252091151 -0.025864473743731006
-0.0431406087106337 -0.12408563344582611 -0.02121132067602242
-0.04367803567036202 -0.12380981946056736 -0.016706482503763796
-0.04395862449754222 -0.12407221846782909 -0.012392262216055116
-0.04401219377039132 -0.12485275791766952 -0.008286852535225007
-0.043866538155227605 -0.12612931228998886 -0.004385866652912597
-0.043543831920225526 -0.12789033501217276 -0.0006816361582714153
-0.04306054549632579 -0.13012997870347737 0.0028305454685094394
-0.04242808496484676 -0.13284524261006642 0.006161191780405637
-0.04165176781986034 -0.13603890519267053 0.009331972150934623
-0.04073106233887095 -0.13971912717602655 0.012366774388308313
-0.03966478471121253 -0.143886746205737 0.015274274616412571
-0.03845949384439563 -0.148520315884643 0.01802997343517497
-0.037139342287384955 -0.15356672990361564 0.02057177800717589
-0.0357471272736823 -0.15894216213505322 0.02282996286343177
-0.03431480224710245 -0.1645560732878134 0.02477256872695886
-0.03284683792690897 -0.17032306523020269 0.026402609422739372
-0.03132778037546244 -0.1761534917469223 0.02775205822999354
-0.02972993837482784 -0.18195600258663117 0.028879363701012923
-0.02802594273281356 -0.18764833390174096 0.029859307448569523
-0.02619627244223674 -0.19316239693401893 0.030774230952026707
-0.024229323884538707 -0.19844756416671896 0.03170706550547126
-0.02211955054884902 -0.20346898447246342 0.03273514840268977
-0.01986487601233908 -0.20820728105471706 0.03392518375626674
-0.017462506164263623 -0.21266036457726928 0.03533120920190037
-0.014904470015499847 -0.21684121759266353 0.036996540669061544
-0.01217409234815515 -0.2207733038097162 0.03895501534795274
-0.00924797587408481 -0.22447933561702543 0.04122808331888012
-0.006104518864402232 -0.22797295903670495 0.04381769006785698
-0.002731081114868934 -0.23126308170860688 0.046700658348026794
0.0008791085620482421 -0.23435855072316364 0.04983311851289619
0.004733342879024976 -0.23726650977721303 0.053160285703837365
0.008842023924763522 -0.2399884568665124 0.056623082386844416
0.013221776910874474 -0.2425219723690749 0.06016483961048307
0.01789741337414079 -0.24486218499131784 0.06374112936038497
0.022898397891858477 -0.24699981198158844 0.06732687324756889
0.028249374152749012 -0.248917690443396 0.07091803470054364
0.03395803603719895 -0.2505912459552675 0.07452797073645294
0.04000213774916346 -0.2519930266719706 0.07818064541317421
0.046320096717241285 -0.25310444068900456 0.08190100583024301
0.052810743119977854 -0.25393172780004747 0.08570553107093558
0.059347853170430905 -0.2545166442243763 0.08959507405897922
0.06580160197702074 -0.2549354745977644 0.09355312380428153
0.0720551332753328 -0.2552845386020558 0.09754980840192833
0.07801252232374113 -0.25566413967504303 0.10154634248247432
0.08360080713531631 -0.25615689693427235 0.10550032750245887
0.08877312881848964 -0.256814424625796 0.10937013816395737
0.09351285047964561 -0.25765081586480704 0.11311906108176166
0.0978360711245593 -0.258650254763503 0.11672228706635468
0.10178168663425043 -0.2597829709509093 0.12016949391268798
0.10539823956856824 -0.2610185831868903 0.12346312818589375
0.10873398146529906 -0.26233444692766517 0.1266151687714831
0.11183295444440686 -0.263719781537721 0.12964612421346017
0.1147319560715378 -0.2651761190492162 0.13258283424030473
0.11746056883409288 -0.2667160544831132 0.1354566047305267
0.12003919316871815 -0.2683607092594227 0.1382976313133123
0.1224779060725674 -0.2701353527249645 0.14112727707301523
0.12478004479001883 -0.2720666949808962 0.14395273977149114
0.12694771851695777 -0.27418109741120855 0.14676728528515087
0.1289847402158394 -0.27650734076289063 0.1495567916099279
0.13089255011072734 -0.27907782628549926 0.15230551736679895
0.13266419627405143 -0.2819298109747264 0.15499947290762922
0.13427933272689171 -0.28510198900770906 0.15762751576068512
0.1357051570282495 -0.2886279622592704 0.1601800804382547
0.1369057448848384 -0.29252940624169504 0.16264864719434174
0.13785483850039873 -0.29681381299544596 0.16503054754994742
0.13854180720743542 -0.301472222013541 0.16733403431400057
0.13897565598944442 -0.306469029998469 0.16957786901787755
0.13918780254387877 -0.3117311252164688 0.17178830356374292
0.1392329715053812 -0.3171411969460397 0.17399547123612502
0.1391789303085466 -0.3225299173729784 0.17622486267136964
0.1390912552156088 -0.32768303628768575 0.1784772288929245
0.1390198233221738 -0.3324073851295168 0.18072151306983386
LINES 1 120
119 0 1 2 3 4 5 6 7 8 9 10 11 12 13 14 15 16 17 18 19 20 21 22 23 24 25 26 27 28 29 30 31 32 33 34 35 36 37 38 39 40 41 42 43 44 45 46 47 48 49 50 51 52 53 54 55 56 57 58 59 60 61 62 63 64 65 66 67 68 69 70 71 72 73 74 75 76 77 78 79 80 81 82 83 84 85 86 87 88 89 90 91 92 93 94 95 96 97 98 99 100 101 102 103 104 105 106 107 108 109 110 111 112 113 114 115 116 117 118
POINT_DATA 119
SCALARS Curvature float
LOOKUP_TABLE default
0.02407491495026224
0.02261337581149289
0.029442885160809975
0.04525445938316583
0.06978604898651244
0.10171727052871714
0.13869279377454255
0.1774855658548156
0.21429295845198706
0.24514035552496125
0.26635015942391066
0.27502204549773046
0.2694644369925356
0.24951875847622396
0.21672728290789336
0.1743115409789642
0.1269495986807203
0.08036456539630617
0.04076054577060716
0.014162872446362149
0.00573412087814961
0.01914402912556136
0.05606887921226759
0.11588410860294311
0.19559402559710887
0.2900166558755143
0.39221290029864436
0.49412073411280466
0.5873305559416266
0.6639200402393644
0.7172582227059052
0.7426902501778043
0.7380262195067412
0.7037785360724867
0.6431198639912754
0.5615648193575631
0.4664094421817884
0.36598954418777574
0.2688390870753229
0.18284045245419137
0.11445859347734082
0.06814064942907211
0.04594295636527988
0.04742089158135687
0.06978683551967356
0.10831131211489038
0.1569156295725434
0.20888417042847504
0.2576131160783475
0.2973109811511202
0.32357480100586944
0.3337828963506775
0.32726855731863963
0.30526576051123894
0.27064484534669553
0.22747970893221306
0.18050579538346265
0.13453803114308055
0.0939189951545354
0.062060223714914105
0.04112489516874028
0.03188033716295974
0.03372652895045462
0.04488491732511121
0.06271314207201976
0.08409788078660856
0.10587140575989289
0.12519810089442696
0.1398846594487859
0.14858065669228246
0.1508526916767088
0.14713297421741584
0.1385597044888825
0.12673973297896976
0.11347222119091312
0.10047450476859013
0.08914806408925402
0.08041419393660126
0.0746370469478718
0.07163805072427629
0.07079227196186806
0.07118600469990058
0.07180719361368844
0.07173718850785675
0.07031399658795787
0.06724319218816735
0.06264189061376471
0.057012192202357065
0.05115155124408375
0.046016970237439545
0.04256640258513694
0.04160338880608512
0.04364947545293021
0.048863722223450035
0.05702050291611768
0.06754717591728658
0.07961357375909811
0.09225714620598773
0.10452223978018792
0.11559021825148097
0.12487916970048557
0.1320974539523545
0.13724342330683978
0.14055299660028225
0.14240587094174786
0.14320853002476772
0.14327661973082956
0.1427399260654119
0.14148990000412912
0.1391828427394404
0.1353024797166654
0.12927513538699995
0.12062072620283092
0.10911495591094897
0.09493379888695426
0.07875148540008386
0.0617680120411252
0.04565124447906933
0.03239084634548661
