# vtk DataFile Version 2.0
Vessel Segment
ASCII
DATASET POLYDATA
POINTS 119 float
-0.0032672189730020063 -0.006474091355722874 -0.0007418845263436054
-0.007210056420603926 -0.013055198813751868 -0.0007830610158040968
-0.011646646337690105 -0.01946132428444789 -0.0002900078590951156
-0.016384429468408755 -0.025524841416416852 0.0005384341350009103
-0.021270295956536036 -0.031206120672744003 0.0014763664236905586
-0.0261681203304593 -0.03650097184624479 0.0022798357361760845
-0.03094595592473641 -0.04140949211134468 0.0027121855490071876
-0.03547287188166599 -0.04592907974207845 0.0025703281935728376
-0.03963579479261593 -0.05005993443117461 0.0017192978869150861
-0.04337558067606975 -0.05383236779675435 0.00010790746605834727
-0.046701665829042914 -0.057336265758544995 -0.002282955185429449
-0.04963908365158424 -0.06068718749282003 -0.005503755091704157
-0.05216240051643007 -0.06396621090034846 -0.009591834865078624
-0.05419676765146593 -0.06721393691102866 -0.014460631117497853
-0.055693850027867066 -0.07046711055569548 -0.019906032921189837
-0.056633145236798306 -0.07375329870594617 -0.025722034545556906
-0.05700850476556465 -0.07707241508277683 -0.03171212830797885
-0.056836236073709336 -0.08042172868131822 -0.037738222654284045
-0.05612921551367947 -0.08379965465640997 -0.043720909127490645
-0.05490057347785533 -0.08721109873681405 -0.04959748787531182
-0.05317243949564281 -0.09067028250574558 -0.05532049896710051
-0.050983620028760945 -0.09418665620457421 -0.0608419822203413
-0.048403546458663294 -0.09776130098465896 -0.06609394045221145
-0.04553801740945818 -0.10138322966509676 -0.07096885815785295
-0.04254185293990425 -0.10500668110497458 -0.07530326915436372
-0.03962233631389325 -0.10852526139979791 -0.07891075419804092
-0.03698776063095122 -0.11180423481566298 -0.08168289406059427
-0.034777030332168994 -0.11476334665988656 -0.08365336107768741
-0.033007828179786036 -0.11739791794422709 -0.08496511589723509
-0.031625308565820826 -0.11974335047039983 -0.0857656426318738
-0.030557320405771908 -0.12186794189762158 -0.08615361007411379
-0.02975623983784796 -0.12381583321353373 -0.08614716999912907
-0.029197943003036526 -0.12558677184353295 -0.08572594102966313
-0.02887035029766324 -0.1271679870519621 -0.08488104896789354
-0.02875513441373063 -0.12855826533795622 -0.08361497398452186
-0.028841801017350933 -0.12975152176315102 -0.08189653072570116
-0.02914840712892072 -0.13071066549622895 -0.07964836714782574
-0.029726084354806403 -0.13135035733541095 -0.07676171883882021
-0.03064293839455907 -0.13153514012062315 -0.07313512878434378
-0.031953731343668225 -0.13110697982629788 -0.06876740042139742
-0.0336159106144027 -0.12999650215394518 -0.06387398340861614
-0.03550584551681344 -0.12828475920318677 -0.058710321821978106
-0.03749933730167492 -0.12612359074253163 -0.053463222684054616
-0.039483177304020255 -0.12369513978607775 -0.04825567390382205
-0.04135780026891953 -0.12119379261246396 -0.043152111844556584
-0.04304008777364152 -0.11881032414060831 -0.03817076504801998
-0.0444600922917681 -0.11672205475682614 -0.03330561060709494
-0.0455615853546558 -0.11508758346081076 -0.028565060754840665
-0.04632440960577133 -0.11401095783889012 -0.024004494354299067
-0.04677260583227869 -0.11350895947443453 -0.01968128144679518
-0.046946603987570903 -0.11354485480881443 -0.015611251110957913
-0.046883910270776215 -0.11408078752437024 -0.011781066741648262
-0.04661405204427586 -0.11509342951179843 -0.008173832617006289
-0.04615862907462945 -0.11656978563469883 -0.004774668403922426
-0.045532353423033085 -0.11850590434928561 -0.0015611341243203236
-0.044742306963736954 -0.1209121305050783 0.0015001717044078578
-0.04378919034772685 -0.12381359671180772 0.004440161723148689
-0.04267454989078527 -0.12723459811701704 0.007264419031484195
-0.04141188718283391 -0.1311774593852732 0.00993137634384696
-0.04003915074302386 -0.1356065730200059 0.012348922913962538
-0.0386193324796536 -0.14044655735352507 0.014415777182694853
-0.037201979419846265 -0.1456115825369153 0.016081812905768406
-0.03580208733929824 -0.15101999358664941 0.01734432453584625
-0.03440942139324413 -0.1565806924610631 0.0182400872649857
-0.03299685795139002 -0.16219317935053928 0.01884251159565909
-0.03153499822335271 -0.16776107055621273 0.019248827589927554
-0.030001667904025572 -0.17320103200242704 0.01956829787685506
-0.028382649728613263 -0.17844956457492547 0.01991140641659038
-0.026670150869322402 -0.18346227134864207 0.02037988752060676
-0.024860469616244916 -0.18821450692582656 0.021058799601572423
-0.022948881020865713 -0.19270607999253683 0.022013763342707198
-0.0209236296406177 -0.19695848341157352 0.023294684452045505
-0.018761323217982608 -0.20100762428183233 0.024939031663542104
-0.01642907439989838 -0.20488759845978333 0.026969052277403177
-0.013894446879066404 -0.20861848855381276 0.029382521713624505
-0.011133824951458763 -0.21221129177917636 0.03214534258584033
-0.00812949376855755 -0.21567393373872223 0.03519688324691434
-0.00486303033750539 -0.21901010398113718 0.03846333057104745
-0.0013132091301659501 -0.2222145509124482 0.041867288420652356
0.0025470663526419622 -0.22527612955705584 0.04533714341240898
0.006752792673284134 -0.22817988267998418 0.048818980891860604
0.01134363418029212 -0.2309054926679652 0.05228407344055368
0.01635372932448515 -0.23342270827443146 0.055730668300281616
0.021797738143635344 -0.23569104029359111 0.05917881122061244
0.027654586047445452 -0.23766387104805384 0.06266135917001411
0.0338553773493269 -0.23930320933904367 0.06621209472256911
0.04028216690146093 -0.24060089294758585 0.06985381754140835
0.046785663104742616 -0.2415940359594541 0.0735899015132564
0.05321227184716966 -0.24236522058235627 0.07740279291028375
0.05942458836997764 -0.24302420481020795 0.08125905840058179
0.06531085078664114 -0.24368667474697103 0.08511519560240703
0.07078666875877027 -0.24444597008884297 0.08892358178416498
0.07579904845541871 -0.24535590141497585 0.09263723550390304
0.08033098339330208 -0.24642260922203568 0.09621448457963715
0.08440419673261117 -0.24761500659949745 0.0996262277851722
0.0880671195631819 -0.2488855071421339 0.10285952805520847
0.09137986088160636 -0.2501868807891625 0.1059163208782458
0.09440313601034214 -0.2514832814210627 0.10881061561244632
0.09719468785193561 -0.25275585350990903 0.11156828290626716
0.09980588739499321 -0.2540036357784581 0.11422400457399683
0.10228196378460779 -0.25524231217246174 0.116818605049438
0.10465925028724077 -0.2565011834668624 0.11939150357790466
0.10696228637783936 -0.25781804869147706 0.12197150488976695
0.10920544644082075 -0.2592360228881619 0.1245699613845951
0.11139606721277517 -0.2607992334103594 0.12717983858970897
0.11353775088391449 -0.2625533066854411 0.12978239726543336
0.11562712261224568 -0.2645454580074824 0.13235484778413822
0.11764792363255795 -0.2668264705143126 0.13487606231640883
0.11956501623953193 -0.26944795438480157 0.1373289558523956
0.12132585384230561 -0.27245662743779697 0.13969935273494785
0.12287296879468348 -0.275888834321256 0.14197640988005425
0.12416058374499789 -0.27977005810504996 0.14415793076420236
0.12516100469851577 -0.28411000470469056 0.14625505897517435
0.12586940508822464 -0.28888370932050406 0.14828958839822232
0.12630868226435543 -0.29401253744895817 0.1502896107654709
0.1265318185874632 -0.29935927544314506 0.1522880572110827
0.12660979270727454 -0.30472995393532426 0.15431922788644178
0.1266135919621223 -0.309888649407261 0.15640149352537394
0.12659938730799153 -0.31462889496844726 0.15852459597366325
LINES 1 120
119 0 1 2 3 4 5 6 7 8 9 10 11 12 13 14 15 16 17 18 19 20 21 22 23 24 25 26 27 28 29 30 31 32 33 34 35 36 37 38 39 40 41 42 43 44 45 46 47 48 49 50 51 52 53 54 55 56 57 58 59 60 61 62 63 64 65 66 67 68 69 70 71 72 73 74 75 76 77 78 79 80 81 82 83 84 85 86 87 88 89 90 91 92 93 94 95 96 97 98 99 100 101 102 103 104 105 106 107 108 109 110 111 112 113 114 115 116 117 118
POINT_DATA 119
SCALARS Curvature float
LOOKUP_TABLE default
0.036298576425892515
0.034967300868063385
0.0420434362013442
0.05787192353468752
0.08192969003429006
0.11276720272139971
0.14805336244843348
0.1847318901466791
0.21928381222711027
0.24807638035097418
0.2677656200869932
0.27570954265106845
0.27034346311881446
0.25146894507892814
0.2204140650112692
0.1800346235330479
0.13454252314197468
0.08916701651648076
0.049674667370742
0.021792210489554785
0.01059069571488361
0.019897395561252442
0.05180265171286468
0.10632168680001401
0.1812569099042653
0.2722858069309338
0.37327531272621656
0.47679832301292313
0.5748046475688513
0.6593800217448045
0.7235150923347928
0.7618031160533962
0.770991020638542
0.7503229845461568
0.7016372750457563
0.6292033747093503
0.5393144679987741
0.43967696085046665
0.3386608157292121
0.24448955654885746
0.1644550964851237
0.10423935047852015
0.06741230195151726
0.05515624713314898
0.06624067146030801
0.09724455522177672
0.14299604574899463
0.19717642824030004
0.25301874383665446
0.3040230199672686
0.3446106831025014
0.37065003925394496
0.37980143871181005
0.37165275303529693
0.3476403801806199
0.3107752221158918
0.26521413882174333
0.2157329245833409
0.16716525968863924
0.12387265143358953
0.08930334530879604
0.0656847156982584
0.05387562230231852
0.053385006099363176
0.06254312747951118
0.07879469988858495
0.09907068719762682
0.12018899238625802
0.13923415502256656
0.1538721599110324
0.16256745987905022
0.16468367823225744
0.1604651885558983
0.15091180988406508
0.1375713406422657
0.12228315051503215
0.10690971391722852
0.09309163349590585
0.08205585955327173
0.07449751636439328
0.07054444764206526
0.06980191967083549
0.07146445322185283
0.0744738175439424
0.07769771111555224
0.08010295052142646
0.08089992023125302
0.07964093868835183
0.07626303335619286
0.07107414611943974
0.06468974909149397
0.05793314120317495
0.05171653306781354
0.0469210378066515
0.044291939467146955
0.044361589708798305
0.04740678593455503
0.05344148777467395
0.06224023114776253
0.07338345969827897
0.08631380319390897
0.10039232837280519
0.11494582524175594
0.1292997788699763
0.1427960628191789
0.15479869664826199
0.16469437956300073
0.1718962573476849
0.17585910165657168
0.17611174479406977
0.17230856441415324
0.16429673030615694
0.15219072084953217
0.13644128958321097
0.1178835371315936
0.09774871050158311
0.07762713653472986
0.059375182298406964
0.04496674920441064
