# vtk DataFile Version 2.0
Vessel Segment
ASCII
DATASET POLYDATA
POINTS 119 float
-0.0032314505904709823 -0.00580451881591747 -0.0001410981130798648
-0.007137244626041716 -0.01192408604539099 0.0002737175687713781
-0.011544858181442769 -0.018088943131593455 0.0011070326549026171
-0.01626167429168332 -0.024093323673357467 0.00217408997419805
-0.021126585283537606 -0.029829701234331187 0.003275764650507642
-0.026007469172232806 -0.03524899645765174 0.00420970693037666
-0.030786467572966714 -0.04032865919236723 0.004778109571274197
-0.03534898578248083 -0.04505486516351146 0.0048033473076901844
-0.0395915876766364 -0.049421581603694205 0.004157521571997999
-0.04345086895048682 -0.053452659162836653 0.0027831118462291328
-0.046918867382323336 -0.057226548481617526 0.0006589797743365281
-0.05000403735343926 -0.06084920194575135 -0.0022481682742080413
-0.05267957960166515 -0.06440562594442624 -0.0059581782778688796
-0.054879814642006614 -0.06795064433305592 -0.010402512332030024
-0.05654842973679519 -0.07152935600371035 -0.015422494246789709
-0.057655821838503894 -0.07517310386222857 -0.020834455325699282
-0.05819266889807462 -0.0788918876816251 -0.02647119933355676
-0.05816254250959364 -0.08268179196426736 -0.03220822948744441
-0.0575720862497136 -0.08653300813265374 -0.03796146512893819
-0.05643440756655374 -0.09043967871238617 -0.0436637540599544
-0.054773587444414615 -0.09440624217200995 -0.049263771221372585
-0.052629265047972 -0.09843577298242889 -0.054708216482997785
-0.050070351612104665 -0.10252336148742902 -0.05991936018367172
-0.047202919992230405 -0.10664913189284332 -0.0647789560574276
-0.04417789399986964 -0.11075903736442098 -0.06912236540922324
-0.041187372097506225 -0.11474861188480556 -0.07277152050061711
-0.038423270263191325 -0.11849299997491156 -0.07561046172507464
-0.036027109242652296 -0.12190678781803561 -0.07762631565982141
-0.03405658469395878 -0.12494832362316652 -0.07888680263647768
-0.03250850843154194 -0.1275938353382584 -0.07949100218392237
-0.031337857504696004 -0.12986130120580133 -0.07954553036596561
-0.030482359753431137 -0.13179999214084545 -0.07912757571857022
-0.029885498448362774 -0.13347225548802452 -0.078260137221053
-0.029514794001235262 -0.13492050971984426 -0.07692525519357844
-0.029352681947752642 -0.13616045518874773 -0.07509067492824115
-0.02939656507591237 -0.13718000701636937 -0.07270767720255246
-0.029664377578703 -0.13793751642420182 -0.06971898002633845
-0.03019022598949644 -0.13836364300849466 -0.06608008397525846
-0.031005564048112298 -0.13837630848401056 -0.061793384582067734
-0.03211547206946824 -0.1379144109562036 -0.05695445617144157
-0.033457263293667966 -0.13700018803812464 -0.051782587608862715
-0.03492355704663857 -0.13575008288073745 -0.046486696770485274
-0.03641425698182618 -0.134312888255374 -0.04120758067472739
-0.03784448664548032 -0.13284048247854996 -0.03603096551157112
-0.03914620442666122 -0.13147589891670022 -0.03099591403537032
-0.0402689155944618 -0.13034552002385924 -0.026104290679496437
-0.04117598148417778 -0.12955927362413128 -0.021335581071377223
-0.041841789714240435 -0.12921497051848163 -0.016673769856249427
-0.04226039975389609 -0.1293837395232612 -0.01213825408764084
-0.04244865887733506 -0.13008957221558717 -0.0077666747013392925
-0.04243177684507416 -0.13132140559974287 -0.0035824649826540498
-0.0422339754460289 -0.13306318297584951 0.0004100097640646087
-0.04187532768760026 -0.1353057042986462 0.004210640530459134
-0.04137123048527574 -0.13804205680780668 0.00781758613646614
-0.04073243529968621 -0.1412646362922506 0.01123552539740272
-0.03996367238061444 -0.14496731476067548 0.014481400898270916
-0.039063434197151074 -0.14914481845485245 0.017577298289812686
-0.03802833291007005 -0.1537820138565729 0.020535765413626398
-0.0368602444374865 -0.15884273082210743 0.023344003437304514
-0.0355746657618309 -0.16426429551265978 0.025959042321733086
-0.034201762477822674 -0.16996023160254675 0.028331188483234137
-0.03276219585259032 -0.17584090823059825 0.030440172067009746
-0.03125355973917978 -0.18182292089668767 0.0322922888177931
-0.029657099458166462 -0.18782100984589958 0.033915645586732684
-0.027944866347226587 -0.19375097609148706 0.03535873927129283
-0.02609078361370837 -0.19953864971023963 0.03668268803100246
-0.024076912459491936 -0.20512318847279815 0.037954403168942163
-0.021893190257288954 -0.21045902933727792 0.03924149134794775
-0.019535430237908075 -0.21551435661263518 0.04060776675028461
-0.017002590369202954 -0.22027088869542522 0.04210946148138266
-0.014293165738988043 -0.22472449542248468 0.04379344050593675
-0.011401672325401905 -0.22888336534743225 0.045698456590060325
-0.00831577588712388 -0.23276469728895494 0.04785576934734123
-0.00501808482772274 -0.23638579215555836 0.050286540982626485
-0.001493653263384082 -0.23975742725293725 0.0529957947315349
0.0022636245054767404 -0.24288765460548722 0.05596732590099738
0.00625413337260966 -0.24578573336564702 0.05916718465867485
0.010478678240874815 -0.24846036639879032 0.06255128904855621
0.014941277574874564 -0.250916344960466 0.06607048425974552
0.01965219402217392 -0.25315575620462316 0.0696759518797075
0.024629767443247273 -0.25517927447426825 0.07332799343361386
0.02989675191242878 -0.2569840617843885 0.07700300548409283
0.03547139326905686 -0.2585608777274469 0.0806951130419272
0.04135655395760485 -0.25989482708971656 0.0844134220023729
0.047528745245711386 -0.2609699139231972 0.08817654440514647
0.05393041366757596 -0.26177896059115185 0.09200436896812646
0.060470311887229455 -0.2623365758268676 0.09591005990213304
0.06703611408719816 -0.26268718161868587 0.09989354918755815
0.07351247715966688 -0.2629034232263477 0.1039395230521174
0.07979517318141348 -0.26307386218055184 0.10802070742689653
0.08579813535887093 -0.26328990074717046 0.11210149662938915
0.09145562197941569 -0.2636278958299316 0.11614286292657991
0.09672482511870825 -0.2641381158417537 0.12010651566975393
0.10158960211439882 -0.26483923690942873 0.12395866783561084
0.10606278079946649 -0.26572440024443983 0.12767684657481715
0.11017749974804115 -0.26677447146101557 0.1312519759824716
0.11397531437322952 -0.2679694386587073 0.1346865845040389
0.11749709710190474 -0.2692952774715047 0.13799150241136976
0.120778975910008 -0.2707471680691276 0.1411844625593553
0.12384950144471552 -0.2723294221752818 0.14428836797644284
0.1267294341800675 -0.27405386351052197 0.1473297492159399
0.12943009734622885 -0.27593728804338574 0.15033418595854317
0.1319531676058426 -0.2779975011955378 0.15331929143216477
0.13429534202137264 -0.2802510629001494 0.15629009579848382
0.1364552931166595 -0.2827133330748971 0.15923989300295335
0.13843640450567238 -0.28540273293672824 0.1621567237610257
0.14024223581812822 -0.2883424900602536 0.16502810152230182
0.14187047393886532 -0.291561046965536 0.16784300853541784
0.1433086849510718 -0.29508788651094436 0.17059231931467653
0.1445353673925708 -0.2989464944142991 0.17326777455781633
0.14552797971638612 -0.303147368220241 0.17586137067352534
0.14627343376903187 -0.30768586687948873 0.17837009213156818
0.14677283265703892 -0.31254231086301804 0.18080090551357747
0.14704399871833565 -0.31767669238544366 0.1831713492748549
0.1471229268638838 -0.32302134338335076 0.1855071584696396
0.14706452831875527 -0.3284720729402651 0.18783737396895064
0.1469340485421636 -0.33387442999643974 0.19018281129955386
0.1467935855494373 -0.33902664522600695 0.19253427635965806
0.14668924258812505 -0.3437431103799039 0.19484880666435014
LINES 1 120
119 0 1 2 3 4 5 6 7 8 9 10 11 12 13 14 15 16 17 18 19 20 21 22 23 24 25 26 27 28 29 30 31 32 33 34 35 36 37 38 39 40 41 42 43 44 45 46 47 48 49 50 51 52 53 54 55 56 57 58 59 60 61 62 63 64 65 66 67 68 69 70 71 72 73 74 75 76 77 78 79 80 81 82 83 84 85 86 87 88 89 90 91 92 93 94 95 96 97 98 99 100 101 102 103 104 105 106 107 108 109 110 111 112 113 114 115 116 117 118
POINT_DATA 119
SCALARS Curvature float
LOOKUP_TABLE default
0.01693910602037079
0.015603924523929464
0.022567328066719173
0.038641994372515934
0.06364079740154305
0.09625754674029803
0.13408845555635102
0.17380564697690834
0.2114738983015277
0.24298153724186228
0.2645387094852335
0.2731836765185977
0.26723234618274727
0.24660899224681082
0.21300714536399384
0.169847906170517
0.1220264167840079
0.0754631405444174
0.036501728044291505
0.011216357222534805
0.004705692508362855
0.02045595556660546
0.05985104456719033
0.12189340631242761
0.20317690474500696
0.29812475752045914
0.39947502129495877
0.49896676449203425
0.5881555654053215
0.6592703782248857
0.7060172666850907
0.7242399631073735
0.7123622871917447
0.6715614732812946
0.6056516237363705
0.5206892787974502
0.4243445846177282
0.325108007742529
0.23142084522922704
0.15082576215687254
0.08923035115031584
0.0503627088910292
0.03547501598177031
0.043321916087287825
0.07040866362097004
0.11147336876089126
0.16014184097769732
0.20967550528001025
0.25372462907779847
0.28700141451573463
0.30579984312958186
0.30830975812765504
0.29469881596075276
0.2669643025150451
0.22858387561962082
0.1840168086380141
0.13812267312246682
0.09557098308610623
0.06031264701255645
0.0351728287379871
0.021606749992679527
0.01963761991628288
0.027972244061146838
0.04426799278738847
0.06550740038215773
0.08842574608315533
0.10993364187337193
0.12748099362158344
0.13931978122235397
0.1446391423510367
0.14356488414212681
0.13703418098298537
0.126572347693451
0.11401014937779512
0.10118576829779248
0.08967480131241798
0.08058491366616063
0.07444024214988314
0.07116615461765034
0.07016970663190066
0.07049729046898277
0.07104046669005287
0.07075518169221574
0.0688591634103699
0.06497711609907525
0.059212516780317366
0.05213685868585186
0.04470022396501079
0.03807913546757701
0.03348696193998603
0.03197740298080759
0.034272059867655906
0.04063882761668924
0.05083955118594211
0.0641543934117483
0.07947837100798442
0.09547436600553712
0.11075830882085912
0.12408745686846596
0.13452247365833403
0.14153836974117898
0.14506762520728586
0.14546970417906027
0.1434330173081756
0.13982635252783152
0.1355251571309209
0.13124247162757535
0.12739402698639019
0.1240219677002973
0.12079252703914047
0.11707107234191899
0.11206503022553205
0.10501327171347187
0.09539147813514649
0.08309834390792199
0.0685881195617127
0.052921113887488644
0.03771470399894125
0.024991749319094585
