# vtk DataFile Version 2.0
Vessel Segment
ASCII
DATASET POLYDATA
POINTS 119 float
-0.003266519689071187 -0.004280051937249213 0.0014288368797604042
-0.007166593610093135 -0.00927164667960591 0.0031185374435698044
-0.011550191300672828 -0.014820420236152959 0.004950558256469595
-0.01623275124300277 -0.02068401542144922 0.006738739912828636
-0.02104692821253002 -0.02660385067949128 0.00834253196787921
-0.02588542989372656 -0.03241823547413085 0.009681070387008356
-0.030679340309888732 -0.03804511200319667 0.010676304118218675
-0.0353707570008882 -0.04344403909110997 0.01123242937006789
-0.03989783106151895 -0.04860020083464264 0.011244877723635636
-0.0441959774328611 -0.053526362041497674 0.010626296373060796
-0.04820360111550439 -0.05826346880391945 0.009322308100731131
-0.0518646234736557 -0.06287577471757808 0.007317658844491625
-0.055127271164939734 -0.06744560711622646 0.0046225032017766475
-0.05793325713825754 -0.07205792531626912 0.0012628296404534082
-0.060191654982677145 -0.0767740891437787 -0.0026979290378181574
-0.06185074644446559 -0.08164485219840138 -0.007119076661741467
-0.0629003906593428 -0.08672758783681371 -0.011904002400025215
-0.06330884540764817 -0.09202182232634647 -0.016960884122968194
-0.06306414938179901 -0.09749318837331461 -0.02219238735598378
-0.062180694855159764 -0.10309886184496478 -0.027517405749653577
-0.06069190301346595 -0.1088074003818189 -0.03287239707344908
-0.058643853577764575 -0.11459832580183557 -0.03818937881515499
-0.05610684545936312 -0.12044566491333938 -0.04336338880752508
-0.053190628128754275 -0.12629879616627784 -0.04824433164262583
-0.05003791046950449 -0.13207603491855974 -0.05266272417007684
-0.046795511653606375 -0.13768359267663008 -0.056466003162574475
-0.04359672942501639 -0.14303808528412384 -0.05951811343928529
-0.040572971791039816 -0.14804294874950927 -0.061657265024604925
-0.03789477051265037 -0.15253654522047702 -0.06269726476397963
-0.03571946532768198 -0.15631776557079288 -0.06257549918386424
-0.03407586569849591 -0.15929617027492443 -0.06141261613659515
-0.03285819650902427 -0.16155958002693438 -0.059376925882243276
-0.031955677705533786 -0.16325106380807894 -0.05648524300842982
-0.031314916409420517 -0.16441084311199936 -0.0526856736258111
-0.030914327079059733 -0.16504413675939636 -0.047971837506923166
-0.030747624376800474 -0.16518351039204354 -0.042409537073780805
-0.0308048602613925 -0.16490605912543746 -0.03616128296042158
-0.031050242651325798 -0.16433762223605725 -0.029494962585162886
-0.03141470465068197 -0.1636549662618287 -0.02276033425114384
-0.031800820783795786 -0.16307316820911583 -0.016242666576597613
-0.03214264769685807 -0.1627681691768186 -0.00997461052513169
-0.03240956089381811 -0.16285090677024922 -0.0038759664997920834
-0.03257062280178005 -0.16341569805953943 0.002150258118278921
-0.03259643171410387 -0.16455473656559416 0.008199329854175815
-0.03246151839256696 -0.16636004184913245 0.014341457538472298
-0.03214771810993875 -0.16891710804972063 0.020605054373466603
-0.031654950720007013 -0.17229664188500232 0.02696806305790791
-0.03100868090928885 -0.17654540666852808 0.03336775138734838
-0.030245751153756776 -0.18170430750898317 0.03973141523229062
-0.029401747666213136 -0.18780524370774734 0.04596381894104189
-0.028516329391768996 -0.19482257092266142 0.051941892528711064
-0.027634765858725104 -0.20266190828279387 0.05756042593034327
-0.026798392349594333 -0.21119907624682444 0.06275906252256576
-0.026035706281083128 -0.2203002415547512 0.06751630945936413
-0.025355176301152596 -0.2298262839080016 0.07184199444743304
-0.024742590252680493 -0.23962326073310908 0.07577153246338067
-0.02416213892125801 -0.249513383861339 0.07936533189514651
-0.023561378655293834 -0.2593075533504034 0.08271541664522002
-0.022875621606240987 -0.26883683814613174 0.08594674839136195
-0.02202659587150935 -0.27798961423904134 0.0892093404188754
-0.020919541977158215 -0.2867352774891065 0.09264928421145185
-0.019461715757114677 -0.2951006111557284 0.09636781441990573
-0.017573689769870754 -0.30312808722614293 0.1004187252865638
-0.015187723393667465 -0.3108522510591694 0.10481069959173712
-0.012253820924071743 -0.3182854016301809 0.10951041353089819
-0.008742155543788602 -0.3254101530435368 0.11445329345124165
-0.00464297154720706 -0.3321811240635548 0.1195519786798349
3.382192418070057e-05 -0.3385343990758112 0.12470775510591164
0.005264218920403752 -0.3444057574445375 0.12982623331641144
0.011021293988027016 -0.34974558641214887 0.13483214043880953
0.01728044198357021 -0.35451617099262517 0.1396756970435928
0.02401657358311264 -0.3586904258559155 0.1443334727812157
0.03119903223148149 -0.3622513827739879 0.1488083490511629
0.03878813076214349 -0.3651917375024763 0.15313124101113726
0.0467347276561235 -0.36751176639650013 0.15735904234399722
0.054979455900346086 -0.3692154000035724 0.1615644035752891
0.0634527262030001 -0.3703104450986139 0.16582131659679197
0.07207738617544668 -0.37081221900772415 0.17018920228937257
0.08077573309259946 -0.3707505880282525 0.17470507161753646
0.08947483304708045 -0.3701711548786909 0.1793816380968923
0.09810861294575303 -0.3691383957294636 0.18420927236989787
0.10661619005089956 -0.36773173690578437 0.1891634421931411
0.11494121009995793 -0.36604335549383615 0.19420526845029565
0.12303519933171875 -0.3641729114736557 0.19928848343392985
0.1308643716730384 -0.3622232095263206 0.20436900367986977
0.13841631673985688 -0.36028850336371654 0.20941464332678517
0.14570366332406592 -0.35844224817239484 0.21441320885006562
0.15275602421172754 -0.3567305686218609 0.2193696055545449
0.1596053072037309 -0.35517479823942033 0.22429616020678386
0.1662763857403234 -0.3537820439095651 0.22920463954000903
0.17278654117201792 -0.35255687855385964 0.23410086373505115
0.1791485748484676 -0.35151388173258163 0.2389853769282977
0.18536852399629286 -0.35068642622281027 0.24385550800762232
0.19144253921671392 -0.3501325849831314 0.2487043932068854
0.1973542989287675 -0.34993021248394546 0.25352592774192156
0.2030790246528851 -0.35016620156024203 0.2583148732099224
0.20858803015873784 -0.3509291514176678 0.2630689893792815
0.2138535425447094 -0.3523027447923688 0.26779026999097605
0.2188452536171381 -0.3543625176123599 0.2724818046652968
0.22352676706160493 -0.3571715875510958 0.27714875285318935
0.22784584229889446 -0.36077242469196924 0.2817943256702938
0.23172849646207613 -0.36517640424651454 0.28641886688034224
0.23508430068772865 -0.3703550292095097 0.2910154944521133
0.23782287713934153 -0.3762343560432358 0.2955704830147395
0.23988146347365452 -0.38271330070797005 0.30007099981732227
0.2412328165817818 -0.38968506709189815 0.3045135936560701
0.24188303755353321 -0.39704607367405714 0.3089007912163733
0.24187267489142808 -0.40468443888752403 0.3132289613869845
0.24128675897182952 -0.4124682124752751 0.31748184171611876
0.24025742880029125 -0.4202449493555794 0.3216365328449376
0.23894841070066572 -0.4278592716671343 0.32567030976584194
0.23752259939845669 -0.4351769682017573 0.32956928727774937
0.23611478397753044 -0.4421129105549245 0.3333286517447798
0.23481194555043777 -0.4486534380779159 0.336960211703956
0.2336560483341503 -0.45484641979477186 0.3404952767581898
0.23266714749889714 -0.46074663215558337 0.3439660840470705
0.23186406151724434 -0.4663454348844018 0.34736316460023897
0.231266470956455 -0.47154782747224094 0.35059628916652336
0.23088210777384727 -0.4762299986763608 0.3535229642798681
LINES 1 120
119 0 1 2 3 4 5 6 7 8 9 10 11 12 13 14 15 16 17 18 19 20 21 22 23 24 25 26 27 28 29 30 31 32 33 34 35 36 37 38 39 40 41 42 43 44 45 46 47 48 49 50 51 52 53 54 55 56 57 58 59 60 61 62 63 64 65 66 67 68 69 70 71 72 73 74 75 76 77 78 79 80 81 82 83 84 85 86 87 88 89 90 91 92 93 94 95 96 97 98 99 100 101 102 103 104 105 106 107 108 109 110 111 112 113 114 115 116 117 118
POINT_DATA 119
SCALARS Curvature float
LOOKUP_TABLE default
-0.00877654074605605
-0.00986630940871654
-0.0028610644143538884
0.012979949114306178
0.03727571419410422
0.06846696151577183
0.10392406805402005
0.14021367463097287
0.1734960623254789
0.20000605443418637
0.21655668024648178
0.22099905214547366
0.21257487375722434
0.19210956670662413
0.16201287454686902
0.12607766929603492
0.08909352924106718
0.05631613083409722
0.032853368555706024
0.0230416905928622
0.029889624312174658
0.054659224874440304
0.09664082591308493
0.15315380467875442
0.21977886618033268
0.2907989928335091
0.3598002768401431
0.42036365767458406
0.4667667304451908
0.4946128340327291
0.5013128828724643
0.4863628894811976
0.45138467835754487
0.3999258567118437
0.33704411389226785
0.26872674547951847
0.2012157252806936
0.14031928389330373
0.09079152445191423
0.05585212418066588
0.036899917355497296
0.033449515280493766
0.04329226373137196
0.06285531450827841
0.08770885788194607
0.11315456154624218
0.13482002435136498
0.14918546362527502
0.15397954673926648
0.14839969776383524
0.13313583711823296
0.1102021976394167
0.08260624830008294
0.0539037237443246
0.02770181803101838
0.007177220783261693
-0.005328543217894692
-0.008586291246440517
-0.0025972229178961304
0.01145766577544452
0.031423514320330775
0.054499268623973945
0.077638257898352
0.09796463498680275
0.11314837836320793
0.1216890863557722
0.12307290874463049
0.11778557961425457
0.1071849880445507
0.0932561977239397
0.07828764083964952
0.06451725457147156
0.05380032079965081
0.04734642688885554
0.04556202330935275
0.048019152821562265
0.05355237281496358
0.060467332965663353
0.06682851869749638
0.07078254659362725
0.07086862132233188
0.06626995078601212
0.05696870040766869
0.04378115818139437
0.028267151599754403
0.01252592895576745
-0.001092886298455868
-0.010322354665994737
-0.01330789843802525
-0.00888645320951939
0.00322511308334925
0.022359874860182642
0.04696001262056381
0.07475810960872799
0.10305624701958262
0.12906478063246515
0.1502542414171151
0.16467190221651046
0.17117947132185707
0.1695794316764292
0.16061319559285928
0.14583229172912682
0.12736170092649565
0.10758967820274498
0.0888287738891342
0.07299680435837419
0.06136361515765188
0.05439999723852931
0.051750363367013434
0.0523328263122746
0.05455167630104028
0.056590587796730235
0.056742600434574526
0.053726831013142566
0.046942945675506616
0.036622618539460944
0.023851483049252678
0.010453527836333746
-0.0012500381719600217
