# vtk DataFile Version 3.0
Curve with Curvature, Torsion, Distance to V, and Extrema
ASCII
DATASET POLYDATA
POINTS 74 float
0.0 0.0 0.0
-0.5305367213784393 -0.9110093946761921 0.008571663735941648
-1.1174407420738912 -1.7406411810414344 0.009212190335141646
-1.6832678710093918 -2.4786831785363876 -0.09875028318131207
-2.1863189455113403 -3.171224646087177 -0.3909584074669237
-2.5864113316333395 -3.8804547906886846 -0.9268175539177674
-2.827818108113212 -4.658595036814313 -1.7365434003304276
-2.8345521097831288 -5.520773210399455 -2.8146105550728073
-2.561835637569484 -6.394321708098111 -4.008317913286926
-2.068701187017892 -7.2076878890139575 -5.159928087747383
-1.39115763300048 -7.921981304484725 -6.253260240945849
-0.5629246511427344 -8.524912520611256 -7.293064587718
0.30224064765633574 -9.03862703892414 -8.183337213056944
1.1467282066893503 -9.550886392177883 -8.950254347483174
1.8940973886098034 -10.081164043809345 -9.523171718088385
2.424351202150945 -10.60972547850576 -9.80912869963699
2.6957875748272433 -11.091153644084951 -9.798236841841758
2.7437901977070864 -11.572027592988302 -9.499707278576974
2.488768475047463 -12.077246168295314 -8.77229173139273
1.8176622025641123 -12.479941972621358 -7.493244144344516
0.684401176360836 -12.597460450620638 -5.681672171356789
-0.7390314293613403 -12.302585924644116 -3.720371532198646
-2.1702276733547285 -11.677348672462351 -2.040439672094709
-3.461353217400754 -10.844664406249146 -0.7806666589413407
-4.550937378333728 -9.87668621257221 0.11217087666474157
-5.412708320566014 -8.815232851898791 0.7524274223397653
-6.0172520528351185 -7.751358908411293 1.259182881132713
-6.3611835586706835 -6.788783263096767 1.734571263107425
-6.473397458966585 -6.004663752916547 2.244516612102891
-6.397279747046033 -5.445724915309957 2.8210807890287786
-6.188896601638456 -5.138340003470728 3.4207779722736618
-5.915638003133361 -5.056942235238997 3.980822074347598
-5.612660998805843 -5.161619527911741 4.481737841971625
-5.284251854135803 -5.434388885668343 4.922288252123054
-4.934123017385324 -5.852626943554646 5.28562944933084
-4.575369588572639 -6.374518598529704 5.549459971312621
-4.223219414987198 -6.9767077181702435 5.680076598493239
-3.902096886446073 -7.6609541384781075 5.617516615485922
-3.6372999881383077 -8.451134826169078 5.316675880451466
-3.4416086980385696 -9.381527447863354 4.761946411884722
-3.3226610635259304 -10.457918966417061 3.9984892500186064
-3.3001553658995126 -11.613898578276537 3.19111594072663
-3.3457380935310606 -12.765234858671322 2.5692474507800602
-3.426176916279557 -13.870402154269556 2.2348098306752053
-3.5102889493027583 -14.924210736268051 2.1983018787678894
-3.558441085993974 -15.928646479325543 2.43625023425403
-3.525401495679145 -16.85697303373161 2.9092165423441405
-3.379062867803635 -17.667574266157743 3.5607120644043375
-3.1071573514603728 -18.330904641297824 4.320613289776952
-2.710592789403396 -18.85441181114499 5.110556839347798
-2.187986135058654 -19.271495094242848 5.884644115796616
-1.5369562330286275 -19.60158989969188 6.626286939816724
-0.7689811231749766 -19.836478035938978 7.335232325129523
0.08480506514612862 -19.947919364298215 8.016449317600799
0.9877992849511601 -19.912694658878063 8.675908002439181
1.9193022347983313 -19.733709724085706 9.319708398483495
2.8761806800438903 -19.446994859029324 9.950894719715881
3.8640198529223477 -19.113227459925923 10.571034636552815
4.88951945810767 -18.794263813410776 11.184910659411237
5.947654650656951 -18.53714020844971 11.799285707478617
7.014891924354431 -18.37332116495226 12.419386159451358
8.055929710810773 -18.32343853394936 13.048972321695093
9.024607730870875 -18.40200883105231 13.691701338998044
9.859487381245037 -18.61408872185618 14.343602847241643
10.50461873707274 -18.945428422334004 14.982540136772942
10.951692675989632 -19.369435754240673 15.583272431285524
11.227553319483091 -19.870731867624535 16.142795257629658
11.351944067463014 -20.44763609133926 16.676098152397635
11.329848262434608 -21.0934292493256 17.198925052872806
11.185323926558283 -21.786568140330594 17.722228054339404
10.975108269180163 -22.508072263851552 18.26329480152733
10.776889307924769 -23.22887122428186 18.838818832385122
10.674734655520052 -23.90298308455284 19.45435294038526
10.723331682087471 -24.487282634548997 20.093636903840846
LINES 1 75
74 0 1 2 3 4 5 6 7 8 9 10 11 12 13 14 15 16 17 18 19 20 21 22 23 24 25 26 27 28 29 30 31 32 33 34 35 36 37 38 39 40 41 42 43 44 45 46 47 48 49 50 51 52 53 54 55 56 57 58 59 60 61 62 63 64 65 66 67 68 69 70 71 72 73
POINT_DATA 74
SCALARS Curvature float 1
LOOKUP_TABLE default
0.0
0.09014478341741183
0.14056550336679463
0.239299683969808
0.25114009629634
0.18700068714770757
0.13407226492170674
0.1159021546975341
0.1037111485777368
0.10000451518856411
0.09120197454664196
0.07762531281731333
0.055354279768612284
0.12465133175310186
0.38606022972465803
0.8288426502090867
0.782691693971524
0.33309224089162787
0.1340976265081619
0.07432246218037374
0.0673418818676066
0.07956911797919516
0.10285672385053014
0.12477161996389947
0.1344404509744179
0.1343977960269582
0.16902634734500077
0.27332340248533354
0.41462422027087137
0.5108721690493931
0.5346553192542519
0.5067776519164932
0.4335087142849329
0.3444509719258206
0.2825349683149415
0.2899597647073386
0.3308682963850737
0.2667079667513809
0.15114093289734132
0.07403516300665655
0.04940987632626809
0.10234556735868686
0.19551402685804545
0.25861837652103864
0.2571046190296894
0.23195874348210221
0.21368198071931552
0.19985396028718785
0.17785877220087137
0.1568518475308314
0.1427825253436765
0.12883072864944536
0.12243744319048984
0.1216552689181866
0.10817373520056806
0.07433803451887137
0.03212962605655943
0.021536715877620353
0.043641569600992164
0.06049797877268056
0.07753135233368176
0.10366820143911443
0.14896773637944377
0.21465774136206223
0.27060034947205497
0.2857237594649389
0.2635395075943556
0.2193467217236875
0.1509662793128272
0.06576423305952221
0.03567520397309806
0.13267225458914675
0.22679819243330748
0.0
SCALARS Torsion float 1
LOOKUP_TABLE default
0.0
0.0
0.628944716691105
0.2815866095500732
0.19809226751309872
0.1767893917124533
0.123834486819592
0.11901144062181093
0.09318613546779163
-0.08363339269591259
-0.07594658880404717
0.33825362778999957
0.7555015854861912
0.22789783863891722
0.13082857632354802
0.027174430792608548
-0.004316804247944062
-0.029189106387695903
-0.04647176439155285
-0.01651411273572957
0.01573700872284237
0.03176368153030502
0.012199293303093009
-0.08045734998385767
-0.1936073326919236
-0.39736269361777243
-0.511155364554348
-0.40297804978974744
-0.29005984271723995
-0.17124597140143566
-0.13133125751876115
-0.08303929889734966
0.019996117719506615
0.1148330336879487
0.14435636189504217
0.06849271130271917
-0.01611327872991611
-0.07169893232253324
-0.08726471373275081
-0.19441733721409907
-0.5945363466115864
-0.3550303376924525
-0.13595195763184587
-0.09842691311205003
-0.14415773146857935
-0.1896827718146584
-0.17671079616863436
-0.16630467616146227
-0.2570827573071365
-0.2916564653124854
-0.1524639214721266
0.060990235277891686
0.20128665430591453
0.18744925408720764
0.0991812447742054
-0.03283805095627193
-0.5322623623223591
-0.8173660560726308
-0.21736357167032772
-0.13788233249011497
-0.1237188436528371
-0.12411721776086644
-0.11659096079014293
-0.07767314517619402
-0.004524371913595546
0.03254993486004198
-0.026352505249277146
-0.1074446134181267
-0.15142746107696287
-0.40544609304054524
-0.9187068960439532
-0.13409321491090276
-0.05702746424677729
0.0
SCALARS Distance_to_V float 1
LOOKUP_TABLE default
0.0
0.9270255142831757
1.8517355481347622
2.740188709871183
3.614998141676958
4.526470852565068
5.529926875384357
6.659963271522563
7.8363201557236275
8.975685016719732
10.06204711770977
11.106689293281683
12.063216411153961
12.988749346087802
13.811899583384962
14.409299084608936
14.7202630653984
14.778241248380512
14.48811213063536
13.710088047089133
12.453373316458878
11.091531338533306
10.0645505597631
9.472289323630998
9.174172349078013
8.990543657883618
8.809103523330585
8.58911157782216
8.33859005008968
8.084156940029052
7.855719044342079
7.667624564840142
7.509785264927522
7.362233414447784
7.209147782249068
7.046997213488444
6.885060980368116
6.757506117249396
6.7386748898502
6.935941387949413
7.449295087017227
8.263596232352963
9.184397948486394
10.047430240846028
10.777790260034996
11.34239718040831
11.707624569871847
11.850950962798501
11.776204940309231
11.520455311569721
11.120312060378645
10.591274533766114
9.936242749046002
9.158297576127389
8.266625961871283
7.27505445381127
6.208031701723836
5.1031391646948085
4.003835541811688
2.9681643392270796
2.099998958117425
1.5960896581774966
1.6215488179566713
1.945149589266731
2.248793152525065
2.41433918572298
2.428832866476164
2.2932940949593186
2.006360466417735
1.5939381456402724
1.1128742693121314
0.6413341849783833
0.26006263285069514
0.0
SCALARS Local_Extrema int 1
LOOKUP_TABLE default
0
0
0
0
0
0
0
0
0
0
0
0
0
0
0
0
0
1
0
0
0
0
0
0
0
0
0
0
0
0
0
0
0
0
0
0
0
0
-1
0
0
0
0
0
0
0
0
1
0
0
0
0
0
0
0
0
0
0
0
0
0
-1
0
0
0
0
1
0
0
0
0
0
0
0
