# vtk DataFile Version 3.0
Curve with Curvature, Torsion, Distance to V, and Extrema
ASCII
DATASET POLYDATA
POINTS 74 float
0.0 0.0 0.0
-0.5328539378906433 -0.9432393304184181 0.007481765053180656
-1.124357040075909 -1.7999034028388863 0.012862440778357964
-1.6953836826372353 -2.561970086899896 -0.08998386056651508
-2.2025923336459723 -3.278106446645385 -0.38147873816311995
-2.6044379950862786 -4.013193353980398 -0.9246873448669621
-2.8438680090952895 -4.821971317140806 -1.7546736805891774
-2.8410722684061094 -5.71968352208799 -2.875068098121523
-2.547779132096845 -6.624484875733691 -4.126170368739024
-2.0289027363563936 -7.460740703656994 -5.335906800915156
-1.323008587430217 -8.187747726485535 -6.484123592323101
-0.465254750248131 -8.793290546206391 -7.575020397491349
0.4276314962354276 -9.302258830777916 -8.507423875587966
1.2982451010502185 -9.807506889683786 -9.308723132377125
2.0679641926227172 -10.329688581836574 -9.905660086298864
2.6145807633021265 -10.84994335969179 -10.203381727969054
2.895928203888955 -11.320618935023749 -10.197523709785091
2.9526893518942807 -11.785731951882166 -9.909382710712533
2.7122775947663693 -12.274029078175358 -9.211557036877359
2.063885096991257 -12.670387587760404 -7.989298490399193
0.9521137936292672 -12.800392446731413 -6.247941126066397
-0.4575963955712865 -12.532401369505664 -4.360568324578438
-1.8820167001277164 -11.943094904256183 -2.7484684135791237
-3.181210097610835 -11.142936007862202 -1.5379361555283309
-4.29955943354577 -10.18827592883214 -0.673132977713629
-5.210354938266787 -9.107200444211196 -0.04601191454959652
-5.875854578516392 -7.983518682488119 0.45689395082219786
-6.278200990815264 -6.928397143521092 0.935099424752388
-6.435052009974939 -6.036222472893354 1.4576271155180747
-6.385938289916023 -5.371440324847776 2.057822994316992
-6.190934720226614 -4.971540773120399 2.6853038495220884
-5.925113740985361 -4.810098078019795 3.2713551063486643
-5.627953245822898 -4.8417141447612835 3.795814858645016
-5.304013559026351 -5.0438553646384 4.259730522206861
-4.955019225836009 -5.394630207018776 4.648335284509226
-4.593034880008769 -5.856280599165903 4.937739223437286
-4.233749657100981 -6.408842949900817 5.0904322019233845
-3.9019586459043096 -7.0590229344006605 5.042059204161711
-3.623685628692759 -7.839040293505776 4.739332757631401
-3.416031857740002 -8.790093258274766 4.155231451510764
-3.2932613390368224 -9.920386325064664 3.3287776618407166
-3.283771224960785 -11.154490908611585 2.438233446856316
-3.356104961903399 -12.393115161941562 1.7444304333365614
-3.4711307293897646 -13.586515170777842 1.364045638569218
-3.5936397119035024 -14.726946335477408 1.3096542443831738
-3.680489425546732 -15.816141683938241 1.5550910892423815
-3.682392989417042 -16.824723421637955 2.055890313087506
-3.564057699722205 -17.70664911249389 2.748142221362616
-3.3119067395324087 -18.428021540726803 3.551976927374821
-2.9272721715097623 -18.996570796318473 4.378952589122449
-2.409185889033096 -19.44948744612264 5.180120021709498
-1.754929759234718 -19.808280084145387 5.9407259626363516
-0.9761049759311317 -20.06417640637683 6.663192498137098
-0.10582828614317141 -20.187007461162747 7.354001715411198
0.816290773930658 -20.152608837120987 8.019766966044232
1.7679376075662314 -19.964794445121598 8.66720453447477
2.746207769267505 -19.661683549521783 9.30015558267051
3.757743827568927 -19.30639625899202 9.921008623762127
4.810579768452323 -18.962505003058624 10.535257057032442
5.900789967007492 -18.677627317139475 11.150160268955155
7.005203787467613 -18.483301265032477 11.771391561173454
8.087956982487153 -18.400396534432524 12.40340770106584
9.101042341105922 -18.44427425696417 13.050754654189063
9.979920370477577 -18.62144475346253 13.709786840908453
10.665641420839497 -18.919053013605883 14.357207470769039
11.149222840729678 -19.31048888428288 14.965653698141448
11.459314082574151 -19.779215958284837 15.530977394006381
11.61775914152529 -20.32339340096356 16.068842888268232
11.629729035720102 -20.938862055906355 16.596800020113363
11.516890429432022 -21.60888695202079 17.12776583888791
11.333050431985436 -22.318089242039452 17.680500933013594
11.155446726416779 -23.036403482572695 18.271849907375746
11.0704748105492 -23.714063859130214 18.90720635593698
11.13576159698291 -24.30454454632622 19.571121598590068
LINES 1 75
74 0 1 2 3 4 5 6 7 8 9 10 11 12 13 14 15 16 17 18 19 20 21 22 23 24 25 26 27 28 29 30 31 32 33 34 35 36 37 38 39 40 41 42 43 44 45 46 47 48 49 50 51 52 53 54 55 56 57 58 59 60 61 62 63 64 65 66 67 68 69 70 71 72 73
POINT_DATA 74
SCALARS Curvature float 1
LOOKUP_TABLE default
0.0
0.08969551240588614
0.13413890594612532
0.2342328409704841
0.24668137255507835
0.1817588258352107
0.128552707940944
0.11054747600640145
0.09807450162813876
0.09558211316486581
0.08818814715320394
0.07590290740045293
0.054175561858610444
0.1219832616382393
0.3841052584135347
0.8391367534367532
0.8091076270376982
0.35242712956114486
0.1400685437341137
0.07647938228037224
0.06969662520455454
0.0822677649203375
0.10526148541511668
0.12472079815991792
0.1305400346253555
0.12571633094181825
0.1483980218771668
0.2292709089792133
0.35482052599819314
0.45875664523577864
0.502595414069013
0.5061317656829568
0.4636239293020682
0.3853166117714347
0.32320796119033834
0.3335534755686298
0.3693483627437988
0.2801449095205493
0.14954807723118274
0.0716436742764946
0.04934054270265867
0.09578001495600837
0.18137746370561286
0.2404924306069071
0.23924721007790528
0.21571004828398588
0.19969162634272547
0.19018216512971306
0.17393564704344325
0.15860516619012732
0.14766297497042552
0.13423409959319157
0.1275881749857178
0.1262459992846085
0.1116483574449819
0.07654576176230408
0.03368346981760603
0.020610137410261183
0.0407792742781932
0.05583957856280072
0.07091725721706742
0.09511336401869859
0.13864952792381124
0.2038115344679407
0.263309242385602
0.2868173331702069
0.2738397061004277
0.23390319996307565
0.16266206954982598
0.07239553627544355
0.02994104606139443
0.125781179798073
0.2160115062076951
0.0
SCALARS Torsion float 1
LOOKUP_TABLE default
0.0
0.0
0.6482708173935047
0.27872715976768814
0.19124975121582494
0.1671918577845758
0.11019403971324054
0.10899337310100811
0.09436433690627766
-0.07849874934641585
-0.07298173231728806
0.3217300965489322
0.7438506202428675
0.22864604175235415
0.13219168076342125
0.03489876088908146
0.010420115902191544
-0.01996475617295528
-0.04621659625466887
-0.01892221320651563
0.01710198181445538
0.033904358326849744
0.012231874473994507
-0.08269007972869803
-0.18136781292014764
-0.3509584532188098
-0.4584126662214969
-0.3777114581967454
-0.27326255113013675
-0.16221510150273416
-0.13199712008419812
-0.09022706117182136
0.02135097166438027
0.12431870396591053
0.15476449210628376
0.07359945723287824
-0.015012632658863864
-0.07159995502644223
-0.08619962071792803
-0.17972585713778735
-0.5102959003132675
-0.34108432430864655
-0.13366765772137898
-0.09299728904801845
-0.13201823526155212
-0.1740843404454883
-0.16489354615850738
-0.15945263977630517
-0.2558673710912322
-0.28591690512062623
-0.14060232371974085
0.06659438616164887
0.19893258926344698
0.18433194104297007
0.0976219010481389
-0.031004137317219835
-0.49388055693644684
-0.8432160219193503
-0.23043387534554616
-0.14129829459183543
-0.12812969019146106
-0.128809516951109
-0.11793105728205752
-0.07598275012849108
-0.00045958130224420246
0.03877806769645952
-0.022765481820250448
-0.10434871184001485
-0.13640083247397553
-0.3127826428759482
-0.965171458038304
-0.1296194212214895
-0.05024810820827569
0.0
SCALARS Distance_to_V float 1
LOOKUP_TABLE default
0.0
0.9519142319951464
1.897740184959369
2.8049233644333875
3.6975692385136796
4.628852711740593
5.6596052828904
6.831763551321136
8.059056947273952
9.250101090679053
10.384395600322478
11.47208573306646
12.462705085106188
13.415626596190814
14.256175107880681
14.858194621585923
15.163887189732941
15.214964196404512
14.927937132465937
14.172706724027934
12.94457546440131
11.597645662547851
10.555535943642132
9.912383085166946
9.541058465951082
9.276763495267025
9.013143536488656
8.710319252109702
8.378414735621527
8.050467078966628
7.766426749072795
7.543784630645988
7.368594754208132
7.215423174251636
7.062800707917804
6.901917651983206
6.73842600819418
6.604688028845075
6.5790999074953955
6.78747018877484
7.357670139805401
8.28105676253753
9.32800499715923
10.30701006257462
11.135441274717897
11.78104081987934
12.210933088335324
12.403028118730672
12.362734511989133
12.132036474045286
11.75119862021292
11.235640815417936
10.586470147067088
9.805826482355608
8.903743181167522
7.895407388726141
6.806298617361792
5.674652385998943
4.543185114710527
3.465475894377542
2.5293123931208834
1.8889308251126122
1.7184573681278963
1.9167428030757079
2.176166605114665
2.3355607948693686
2.361261499664553
2.2463094087055397
1.983968249990702
1.593889573649862
1.1273850450911502
0.6609000710241381
0.2754028871268047
0.0
SCALARS Local_Extrema int 1
LOOKUP_TABLE default
0
0
0
0
0
0
0
0
0
0
0
0
0
0
0
0
0
1
0
0
0
0
0
0
0
0
0
0
0
0
0
0
0
0
0
0
0
0
-1
0
0
0
0
0
0
0
0
1
0
0
0
0
0
0
0
0
0
0
0
0
0
0
-1
0
0
0
1
0
0
0
0
0
0
0
