# vtk DataFile Version 3.0
Curve with Curvature, Torsion, Distance to V, and Extrema
ASCII
DATASET POLYDATA
POINTS 74 float
0.0 0.0 0.0
-0.516143286909796 -1.0283786083051627 0.013072253354377894
-1.0976034124336875 -1.9542797617873475 0.04232980515425555
-1.662592651421392 -2.778054621684303 -0.03339231625244654
-2.1636816756851847 -3.5561808168267195 -0.30751420366546967
-2.5557491585143297 -4.360933868470035 -0.8529710681529861
-2.7785750400725493 -5.254211828068623 -1.719687639973544
-2.7422934698305568 -6.25194926480884 -2.9427959104810113
-2.389155671679585 -7.2421641077677315 -4.34681279623884
-1.801118699441846 -8.136546024740369 -5.716122946035583
-1.0242231526890029 -8.889420553402703 -7.017439243666761
-0.09736941620612061 -9.489432425146394 -8.252693381904482
0.857596142940261 -9.970088065248639 -9.305189271551551
1.7864888979746132 -10.439077523443743 -10.204395808244529
2.6065098496092833 -10.920960543369402 -10.869632613212227
3.1918222299251084 -11.400918605979554 -11.201243787431094
3.498427218312074 -11.82662554503073 -11.212350190592796
3.5817720350065625 -12.233213435115008 -10.96190567560874
3.3945371456894216 -12.661374797192359 -10.365889479505084
2.83673442201292 -13.034085637467527 -9.333143791540685
1.8274505943368662 -13.205689033758167 -7.830049346043548
0.5047749451883559 -13.035054894281124 -6.194029138093283
-0.855359720636354 -12.578885895853082 -4.808902010378398
-2.1421578883119943 -11.908352385020532 -3.7640784195777006
-3.322540571349514 -11.031216425017497 -2.9997045775246343
-4.374415882416866 -9.929327137399962 -2.4299915744844625
-5.239346937564206 -8.652756763763419 -1.9617184716027265
-5.852943811492004 -7.3228491203265555 -1.5050124730241317
-6.189687005070518 -6.080328328357657 -0.9772589002290064
-6.265265829654669 -5.04696489443551 -0.33124556820955453
-6.1409766339466 -4.308563266867409 0.3711548665774749
-5.9116507957960005 -3.8534511716157116 1.0439854231082277
-5.632618515007247 -3.6332704455069376 1.6558183710488656
-5.317094408668758 -3.6139143471131963 2.200031541875863
-4.969058704489777 -3.763055449165524 2.6612412866091693
-4.600722595914722 -4.042637410988604 3.0151844412312654
-4.229038849631538 -4.4371313193442585 3.2206783226054907
-3.87528389995154 -4.967101688984888 3.21015971439681
-3.560689330533106 -5.696695473023656 2.9078068263713366
-3.3154093016125086 -6.697281939650044 2.2445930520393933
-3.1774240810109284 -7.991822440037034 1.233482314358835
-3.20654444725491 -9.480115199818012 0.0902324459527244
-3.361655215239589 -11.009251896204466 -0.8231337725209689
-3.583734986528889 -12.49887258763857 -1.340855641585887
-3.8242117228263166 -13.930565996541635 -1.441979121825005
-4.0285366176707695 -15.303401828667427 -1.160579874817807
-4.134578461789761 -16.57834483859296 -0.5580274779109855
-4.09702488422494 -17.6942373041275 0.27641124315411436
-3.898404621430197 -18.60191616144111 1.2291783937359546
-3.5422227806252002 -19.31013505146504 2.17781386150956
-3.0306135913132968 -19.86890327588354 3.0636609633392684
-2.362344269108478 -20.307239916844104 3.878246507450465
-1.5514994670488549 -20.616179416624036 4.632784227982629
-0.6383196846792248 -20.761737727538552 5.338856735228603
0.32861203767527203 -20.71914043728198 6.005756353243736
1.3232470362823436 -20.496179767420585 6.643015778639125
2.3448743509608554 -20.13682184733859 7.257872371634386
3.404663968529449 -19.70998753193677 7.856017698232984
4.515664784907403 -19.28262899054666 8.44549021223525
5.678143567918714 -18.902633886598544 9.035093925773225
6.871140112886423 -18.60075754488748 9.631936329412303
8.058464693841525 -18.398067226273316 10.242997118343853
9.188058648557584 -18.31273426523594 10.876458830374288
10.187450524918994 -18.357305709486035 11.531249502737056
10.988980885459123 -18.526245011131245 12.182342007231135
11.579854714781089 -18.795764718380212 12.796479260733028
11.991492787051593 -19.146533587973085 13.364717579105806
12.250870636645272 -19.574364327188523 13.902574681173277
12.365628984323273 -20.07972954215292 14.4317790425758
12.353485250140537 -20.65874891770689 14.971937250064302
12.260170185422375 -21.307471940017265 15.54738463725501
12.158899630799835 -21.99447667947127 16.175212236848267
12.139454310889564 -22.659571841816454 16.859302140081375
12.26591819538379 -23.24617199479661 17.5863549871518
LINES 1 75
74 0 1 2 3 4 5 6 7 8 9 10 11 12 13 14 15 16 17 18 19 20 21 22 23 24 25 26 27 28 29 30 31 32 33 34 35 36 37 38 39 40 41 42 43 44 45 46 47 48 49 50 51 52 53 54 55 56 57 58 59 60 61 62 63 64 65 66 67 68 69 70 71 72 73
POINT_DATA 74
SCALARS Curvature float 1
LOOKUP_TABLE default
0.0
0.09269955080644919
0.11917170076705706
0.22464964162649254
0.23882469294405648
0.17042874891552773
0.11569130629762235
0.09796460061932312
0.08456003547336545
0.0849704453462392
0.08111142308228705
0.07201977524403477
0.05141859604832979
0.11558223666635609
0.38231467417910997
0.8734948111764166
0.8906127582475715
0.4307535777332384
0.16467106952313554
0.08568242241666572
0.0795153761018998
0.0934555142931878
0.11559547234847681
0.12723262642249447
0.12184614986275061
0.10553364962740375
0.10608075423444178
0.14089257547908868
0.21778038705587818
0.3018181610280347
0.3559357080207801
0.41946001665199983
0.48544820035074643
0.4893944355794388
0.4626509562841336
0.5025225541543129
0.5171282554848957
0.32303469835706944
0.14227677441436967
0.0631224639586422
0.04651576377715736
0.07975084441877507
0.14551507707939992
0.19247235599190562
0.1913033241763032
0.17198887796292173
0.16090254244408658
0.16047212333278305
0.15817761846276712
0.15957224013282786
0.15986493313091013
0.15008165326654052
0.1441072146688958
0.1419737632050791
0.12415155813751473
0.0845818325359777
0.03884515943264513
0.01934328021768941
0.034037706995359955
0.044470659413826545
0.054466160017193045
0.07352518958752247
0.11180911860228672
0.1732760855380289
0.23870919496759377
0.28509153039033
0.3058873882373528
0.2878490109998787
0.20869168149881573
0.0986492887280304
0.014698472370431856
0.10823954510498303
0.19020561667331753
0.0
SCALARS Torsion float 1
LOOKUP_TABLE default
0.0
0.0
0.7173690415877317
0.27689294780360235
0.17634553577346965
0.1446903063389849
0.07808218408792966
0.08447768305755562
0.09580592006441802
-0.06660815081588034
-0.06611938129586155
0.28064539116855414
0.7176349516880677
0.23501169391990656
0.1387465784575838
0.061509997902431945
0.06920081968527823
0.02314857190170075
-0.04275860743665026
-0.030483081707672176
0.023088368903106452
0.04356513006553735
0.01061059430195585
-0.09290837839722861
-0.1515426086359625
-0.24269024074432505
-0.31741025999816086
-0.3082006177728541
-0.22795652557153073
-0.13379100352842685
-0.12316789721362979
-0.09982149450939497
0.02303803202034728
0.14488976094541936
0.1894927490407698
0.10140013718023684
-0.004591402212270182
-0.0697516306280091
-0.08179243352718453
-0.14539337576414965
-0.327363847009667
-0.2816496670296124
-0.11849283634489266
-0.07648321045239466
-0.10124635652427572
-0.13392232586974415
-0.132634127796363
-0.1382291977628574
-0.24826063337701304
-0.26821252159742576
-0.11153168252632864
0.07900553931769771
0.19317933110834387
0.1776447487068062
0.09440040692456719
-0.027301560264445857
-0.4079956126309548
-0.8865784864242958
-0.28079645012187904
-0.15651722374734214
-0.14760122281303353
-0.14886552368436223
-0.1246104081989379
-0.07164633734247795
0.012870653906041127
0.06053445872376499
-0.010339000506582638
-0.09623891741594492
-0.09871502465081457
-0.11711664358773513
-0.999990631422737
-0.11834482065576346
-0.03254811590318693
0.0
SCALARS Distance_to_V float 1
LOOKUP_TABLE default
0.0
1.003575605287338
1.988934623454304
2.9295556419894564
3.8536072521905784
4.821792028127198
5.911201756022015
7.188478153897269
8.55179129212283
9.884146902400015
11.149955589420937
12.355212748132027
13.436553009108808
14.458576449109792
15.337733625414739
15.942030524995563
16.225595382637785
16.25662883503593
15.98981098159695
15.326141679195606
14.223107360319865
12.977964718078884
11.96427317121447
11.250974682203326
10.732361025063417
10.274393436224843
9.782082935593088
9.217767193956727
8.597164561921021
7.977141889106771
7.445114085969432
7.044980323869055
6.759410755781642
6.547389656013147
6.368512807418508
6.196689749028966
6.0250945159121
5.875771294752473
5.83262880921474
6.0842560471407
6.862840120674989
8.173866860869312
9.648898952993205
11.00609697924496
12.144409210825776
13.039504041469721
13.664891174269812
14.002090783210281
14.062085630740286
13.902922661048004
13.576844556419509
13.100192616184348
12.470063850454764
11.687063615582856
10.764572650065839
9.721574643058316
8.585173372647022
7.393655165725896
6.186480679322218
5.0070939485676496
3.916747252330861
3.0047052695251812
2.388741239656788
2.1351386594320827
2.1289385825804445
2.183215247971473
2.1932017216203015
2.1113699602843354
1.9080996280219555
1.5821016207195584
1.1646549032530897
0.721034636473659
0.32598668475270987
0.0
SCALARS Local_Extrema int 1
LOOKUP_TABLE default
0
0
0
0
0
0
0
0
0
0
0
0
0
0
0
0
0
1
0
0
0
0
0
0
0
0
0
0
0
0
0
0
0
0
0
0
0
0
-1
0
0
0
0
0
0
0
0
0
1
0
0
0
0
0
0
0
0
0
0
0
0
0
0
0
-1
0
1
0
0
0
0
0
0
0
