# vtk DataFile Version 3.0
Curve with Curvature, Torsion, Distance to V, and Extrema
ASCII
DATASET POLYDATA
POINTS 74 float
0.0 0.0 0.0
-0.42832925800466615 -1.0914343129198159 0.038086427471967665
-0.9296125504892591 -2.061800809563044 0.11635652256928486
-1.425827993869151 -2.92501815668596 0.09982584095296543
-1.8675785529015712 -3.745888258520581 -0.11674385043895746
-2.2073904116417844 -4.602648245804705 -0.6153011528678826
-2.384077719972608 -5.564008919233234 -1.4641961490483832
-2.301657464800312 -6.647819511983454 -2.745850823034157
-1.8950146332421522 -7.701795704836336 -4.281446865398905
-1.2615497829740066 -8.623467024875222 -5.803212363803617
-0.45470899080362004 -9.362979649308961 -7.258981362005992
0.48413466625719187 -9.91170558018112 -8.64598007693266
1.4394847599564211 -10.314427891835722 -9.829196562016593
2.368557643837302 -10.693979963247381 -10.836676382955448
3.1913601793297866 -11.080799445011547 -11.579978403539192
3.78734329171191 -11.46929687120109 -11.955338950370962
4.108595532460719 -11.807924388030287 -11.997334238238906
4.221623192214457 -12.11795001614904 -11.812666760396246
4.118640865022014 -12.453540415015626 -11.374114823905034
3.723687850598931 -12.789293216535674 -10.617168443303273
2.93527769620415 -13.024977740553382 -9.466538190128658
1.8391318499305873 -13.017218692735932 -8.198621328099334
0.6752371768689107 -12.787199807974089 -7.13360475997011
-0.4935149418279675 -12.35664683435472 -6.318639312213675
-1.6737759063490962 -11.676724559256833 -5.697939706047254
-2.867596367577402 -10.66619952560111 -5.221002083326363
-4.008982196734881 -9.307791589574096 -4.831206549422076
-4.975435134071186 -7.702201940567785 -4.461237334478135
-5.666998619624375 -6.024171981433624 -4.008444104571886
-6.038814638073312 -4.460652360925025 -3.389242078413545
-6.124280049314498 -3.1741523425164377 -2.6538525461357825
-6.028133458203234 -2.201540547615693 -1.8947545856637253
-5.8197064300456685 -1.5287795271889983 -1.1609562085727632
-5.52808883249408 -1.1420191505814508 -0.49323799502748633
-5.180337598975721 -0.9978263988067102 0.06281219840308372
-4.8090238385497885 -1.033406362742717 0.47508320807112026
-4.443343258604361 -1.2147318097024922 0.7101224884524402
-4.093048293621855 -1.5583738176390494 0.7258074540547359
-3.751664736843682 -2.1726204531834714 0.4312708270992214
-3.4629606027746274 -3.1894769208388976 -0.3073136752975801
-3.30046803697297 -4.672576797078685 -1.5221869157439465
-3.371429514109148 -6.503334959610799 -2.9591428965151008
-3.620208018646559 -8.44365527773299 -4.125314961797942
-3.958991808453325 -10.360026604648347 -4.789470860766192
-4.321297527017423 -12.212743505865081 -4.917239319552488
-4.638308228366921 -13.99226706060826 -4.552338152860109
-4.8338976620490195 -15.64370633520786 -3.78121705744173
-4.853613952455403 -17.08401879338298 -2.7308367294108242
-4.679243079778331 -18.24137864570396 -1.56488190139645
-4.320515871616361 -19.12650874190739 -0.45407100100129194
-3.7863211516466366 -19.80711309250806 0.5307578036105727
-3.082014383635027 -20.32312299103641 1.3905536377694487
-2.2296840227380477 -20.668953874653717 2.1492247308003853
-1.2811204150322166 -20.812261680470446 2.8268525673228644
-0.29502673406405877 -20.73453582476388 3.438941106872806
0.7016987725940323 -20.451892852813195 4.001185580449361
1.7153451125296897 -20.013637433213944 4.5268791938007915
2.766208815091888 -19.49078585132181 5.026805703777081
3.875928186017201 -18.949046269676128 5.512087404371167
5.051911072476699 -18.432451419933614 5.992758611361227
6.278622708743024 -17.96802004194027 6.4774016347675385
7.523200624762265 -17.575424362724984 6.976804673653845
8.733448662383719 -17.276372302332824 7.5059562191891676
9.832665797111934 -17.09412057542366 8.07163436317526
10.745707625594457 -17.039110508234312 8.652853028713235
11.452124968315413 -17.098425482177415 9.212509301197176
11.979739116546998 -17.252936326229438 9.73380361319849
12.356243800860572 -17.493816501499076 10.226465242933491
12.593786132020302 -17.82035468554654 10.712015220748059
12.713349249778206 -18.237663440383255 11.21780731129601
12.755085917376007 -18.754865606428098 11.777311392128944
12.781924305307925 -19.34300056196454 12.408007064021893
12.878117622838001 -19.932527461635722 13.109591760674254
13.10853822104949 -20.45555745909605 13.87037468790229
LINES 1 75
74 0 1 2 3 4 5 6 7 8 9 10 11 12 13 14 15 16 17 18 19 20 21 22 23 24 25 26 27 28 29 30 31 32 33 34 35 36 37 38 39 40 41 42 43 44 45 46 47 48 49 50 51 52 53 54 55 56 57 58 59 60 61 62 63 64 65 66 67 68 69 70 71 72 73
POINT_DATA 74
SCALARS Curvature float 1
LOOKUP_TABLE default
0.0
0.1068861956363904
0.10859694102584175
0.22637039578081575
0.24307047221029585
0.16613023614684536
0.1067353687383471
0.08864603782320472
0.07359457552238143
0.07676993555868399
0.07649810411256555
0.0704409494543909
0.05002125157489068
0.11159519139450863
0.3923380247123621
0.9226078200993567
0.973471063058639
0.5994456585169583
0.22087388497212984
0.10728775071310874
0.10218231148449386
0.11892021577818923
0.13974529131371993
0.13903280447839308
0.11799297812081092
0.08959937425477202
0.07676739035153607
0.08428735983398451
0.12106723914986119
0.16380665261934602
0.18759588868502916
0.24279402717281617
0.3656571702064664
0.49923489273324856
0.6063867667768238
0.7704085894369945
0.7865083540916213
0.3923721268800446
0.13157181344146102
0.0528497868503342
0.04136997550985233
0.06564936557156577
0.11340289240149437
0.1476280238713784
0.1459262411756465
0.13045418397461894
0.12262570705671925
0.12719797619748172
0.13515476674328386
0.15463778874653442
0.1721253475598833
0.17205174904838244
0.17107430148868394
0.17070977932995102
0.1488336663609443
0.10084753205458134
0.04816578687743028
0.021057241438137694
0.028883633632095347
0.03427322405506491
0.03863595845469743
0.052352371764373164
0.08491767289663461
0.1391917105820935
0.20294636012862446
0.26978030173509204
0.3454873149271057
0.3870435105773873
0.3077341224625478
0.15561936344742622
0.024604953434925636
0.09083148092565166
0.16968876979201017
0.0
SCALARS Torsion float 1
LOOKUP_TABLE default
0.0
0.0
0.8298164298292965
0.29329104766393965
0.1694458681958539
0.12741482437550783
0.049974102864680264
0.06214105145040009
0.09615235809249255
-0.05756878934346911
-0.06140316761525289
0.2446974749583153
0.708695586968301
0.2568304597915612
0.15576587216963067
0.11093760090300603
0.2091259771618977
0.15735793150011548
-0.02089588307657958
-0.06539018461279528
0.039470838202405226
0.0696728959899983
0.0015731574636805995
-0.11578991956903201
-0.1225441923251449
-0.1527052549872373
-0.18797133693620774
-0.23624981104676793
-0.1841382547311206
-0.10338894041094715
-0.10195368658145089
-0.0892311774419428
0.020244576269611222
0.1456489552114688
0.23507131165652376
0.17714123193879322
0.037224556910444434
-0.06361657431350604
-0.07539325495874663
-0.11567695187056147
-0.19695905468002348
-0.20838721784432288
-0.09571986051120257
-0.05903595661604192
-0.07408145438738019
-0.0980772565185469
-0.10179753597152531
-0.11520943330955541
-0.23861834654127248
-0.24945197588133414
-0.08530926659465607
0.09055991611467241
0.19201998859137165
0.17734532722209634
0.09487275115191833
-0.025733973426045845
-0.3470244027184284
-0.8895784351795921
-0.3780868330327456
-0.1916305857585696
-0.1973100342753247
-0.19889094473674063
-0.1410385974230811
-0.06658037673466435
0.03563714359495675
0.1003825204543541
0.012173167230881965
-0.08750805321460474
-0.06081109907207042
0.012273909684120406
-0.8704411778249422
-0.10625914574754347
-0.013018354750486821
0.0
SCALARS Distance_to_V float 1
LOOKUP_TABLE default
0.0
0.9982055208169928
1.9628048486061704
2.8788694554688066
3.7777794993533207
4.725547396939404
5.816702272296793
7.153317946170632
8.623867590713415
10.078904477986898
11.461223501309902
12.769855130397378
13.924700036606474
14.991914727665051
15.880644717325263
16.4589622142993
16.702853667079562
16.714866598557638
16.501599993351455
16.004435692355177
15.145043588893948
14.14814082212298
13.314933223492645
12.676568621144938
12.137682670249152
11.588702622834367
10.937857096628223
10.138864357629876
9.18784658498275
8.142062062169186
7.15182491856698
6.335175746258843
5.725477506556609
5.3017070544716285
5.005794750250429
4.777785004374853
4.584173123293813
4.419636569682342
4.356521698450518
4.68496857714468
5.813702782129114
7.713510249399198
9.772594564887328
11.608221694716073
13.11677462217071
14.295973721519713
15.136653222605519
15.630702262977733
15.797691367008854
15.715460770900956
15.449121481194931
15.016761770902319
14.414186243095656
13.644719891387856
12.728828266158871
11.689454242554039
10.551462218818516
9.347574795411624
8.108970969795399
6.866806121903564
5.663091828773185
4.554067331450114
3.6128663347706302
2.9136599094687927
2.477174380814249
2.239678688542948
2.1025643228832096
1.9780617174663733
1.8006458930304665
1.537682546842679
1.1878625899333943
0.7884122295096242
0.39080328740519976
0.0
SCALARS Local_Extrema int 1
LOOKUP_TABLE default
0
0
0
0
0
0
0
0
0
0
0
0
0
0
0
0
0
1
0
0
0
0
0
0
0
0
0
0
0
0
0
0
0
0
0
0
0
0
-1
0
0
0
0
0
0
0
0
0
1
0
0
0
0
0
0
0
0
0
0
0
0
0
0
0
0
0
0
0
0
0
0
0
0
0
