# vtk DataFile Version 3.0
Curve with Curvature, Torsion, Distance to V, and Extrema
ASCII
DATASET POLYDATA
POINTS 74 float
0.0 0.0 0.0
-0.482031603697727 -1.0693720775445907 0.02349707031428938
-1.033486315477469 -2.0262340602829028 0.07545609045786106
-1.5732764707013134 -2.8775701514115894 0.026637500039613293
-2.0523401522197906 -3.6845334143649957 -0.22328334086499801
-2.423903338572493 -4.523142495382667 -0.7524756624498138
-2.626652710722686 -5.459265489108361 -1.6204916464422867
-2.5662189694500888 -6.509663833898997 -2.885842485880366
-2.180161462907565 -7.541576775419497 -4.368430416968615
-1.559827400090172 -8.458856472854386 -5.825001863593736
-0.75555388471956 -9.213262191732214 -7.212854272122934
0.19205130536525317 -9.794584481086247 -8.531814382141874
1.162070559014285 -10.242157658834904 -9.655430440301606
2.1049688005642846 -10.672267318474626 -10.61307649211236
2.937910010716233 -11.112378172749704 -11.31977337746221
3.535984847753855 -11.551764148674012 -11.67345368135414
3.8534621950721273 -11.937332228474387 -11.698634710615602
3.953134124159718 -12.29747917753924 -11.479096983140298
3.807133552048776 -12.68039822915013 -10.959845716006168
3.3261870171614283 -13.035409310747308 -10.06396790695201
2.4164802328293016 -13.238840436717416 -8.735100780512093
1.1918077433611187 -13.146728187792675 -7.281843998521854
-0.08597614839348744 -12.79898336058097 -6.057624794769176
-1.3292147104676522 -12.240845493015955 -5.129369627813868
-2.5236368379887537 -11.449565383455175 -4.438068031698294
-3.6564030993214427 -10.374552978658995 -3.915154288061587
-4.661532505383194 -9.034540153133706 -3.4843429271735835
-5.443790633689697 -7.5456639509875565 -3.0651528898078264
-5.94209917975118 -6.070901805448396 -2.5642534285372482
-6.145760937527382 -4.768158979900074 -1.917894176473292
-6.106515354272737 -3.7620551662650143 -1.1859664932192846
-5.92709597733905 -3.062483534333694 -0.46096129541641895
-5.671952917948366 -2.63317732688588 0.21568542757792147
-5.363124688723907 -2.443584905907949 0.8219211627800309
-5.013958466632443 -2.4522463737943863 1.3313646796992857
-4.643208810012091 -2.6104160826547265 1.7183390429275387
-4.271290119709096 -2.8969946503449613 1.944788355123133
-3.913877160702512 -3.3356239604485083 1.9516513329681073
-3.5815966481061468 -4.014109909764205 1.6526594628557274
-3.3123181576458167 -5.0316979752948985 0.9465440747487338
-3.1618489258580738 -6.428599877604428 -0.17577668353468812
-3.2138335213280538 -8.092489662379029 -1.477330137137963
-3.4203249976562677 -9.82898383382739 -2.5279235554754305
-3.7079474508516332 -11.5325831462342 -3.1278155779744776
-4.018870521846002 -13.175173996590491 -3.2493120253944094
-4.2909273899818 -14.752265863043643 -2.931453335820321
-4.454011632121273 -16.217175967784467 -2.247977112186823
-4.457038369703389 -17.49775410216639 -1.3068342467899372
-4.280991214871273 -18.533486243660338 -0.24651917152923708
-3.9318102192618936 -19.333985858865162 0.7860967254674271
-3.414812124217592 -19.958295995369024 1.725911452357051
-2.7316093310404646 -20.440968906021496 2.5690778613762695
-1.899751073486922 -20.774210314474335 3.3330975606035693
-0.9651129926928668 -20.923740698798504 4.033521497677189
0.01818564182643534 -20.866796884952123 4.682295529203505
1.0229361460939117 -20.61494477090678 5.291704172992954
2.051325295828163 -20.215319004064817 5.871906307939907
3.118693539309657 -19.73886872659812 6.431187474851361
4.24219206927433 -19.252869186099886 6.979302800481048
5.425516777244296 -18.803930300691636 7.525878307210187
6.650108144946591 -18.421340623620413 8.078881175056479
7.880877297099448 -18.1257440452845 8.647194171282685
9.064801495827266 -17.937206791579502 9.2421782781858
10.12610502617786 -17.873423308562003 9.866036816267416
10.992455867404361 -17.936154460821836 10.49469712482084
11.647384672625892 -18.106087481752034 11.092150759920754
12.121562791121654 -18.363246688396522 11.645522508529552
12.443451943784963 -18.70100215240214 12.168176243877141
12.623154751498195 -19.120157080069127 12.682776155346033
12.678860869178271 -19.622853395425224 13.213339117467298
12.652478512276309 -20.21237653238138 13.788712594706071
12.612591006354469 -20.857934008603404 14.4261354634103
12.647721461203272 -21.493788554110807 15.127659514322001
12.823631251669832 -22.057206329930366 15.881016375618163
LINES 1 75
74 0 1 2 3 4 5 6 7 8 9 10 11 12 13 14 15 16 17 18 19 20 21 22 23 24 25 26 27 28 29 30 31 32 33 34 35 36 37 38 39 40 41 42 43 44 45 46 47 48 49 50 51 52 53 54 55 56 57 58 59 60 61 62 63 64 65 66 67 68 69 70 71 72 73
POINT_DATA 74
SCALARS Curvature float 1
LOOKUP_TABLE default
0.0
0.09824924686463204
0.11257438941029267
0.22326117542776777
0.23862619232692872
0.1666534760454626
0.11005962487873953
0.09227903232320399
0.07813319607411394
0.08003341670070306
0.0780863095516914
0.07065589921394504
0.050350097121587715
0.11286054884720295
0.38525842022648926
0.8981270026345758
0.9386599605773776
0.5046608588878533
0.18856703859685342
0.09481232598741486
0.08912074735978438
0.10430629589505169
0.12583800793195468
0.13166671078472322
0.11872660112904472
0.09617640724207373
0.08868519799337873
0.10667206215496317
0.15980268572494213
0.2210367064913582
0.25991197024498536
0.32644312725835706
0.4384385204790849
0.5156455736499517
0.5485295527757575
0.6390062348768594
0.6451539173016494
0.3553471932867607
0.13670463155377874
0.05759103166098911
0.043842923528379256
0.07173676286083049
0.12731579365151616
0.16724718248742493
0.16584050339357975
0.14870496834175137
0.13961255423798205
0.14244590424500939
0.14635293879945752
0.15756645333406272
0.16632996849058374
0.16074262888377744
0.1566184411549227
0.15488977537012094
0.13500800807050586
0.09167936967595798
0.043022315316689215
0.019716147892577703
0.03093762064485268
0.038744190953388526
0.04582701145134864
0.06201865239005336
0.09717372491877045
0.1551482083446805
0.22090017204585782
0.27926182995994475
0.3267095234377174
0.33342827988742557
0.25155036132358805
0.1231224113180033
0.013250923596078407
0.09880414699993312
0.17806055109761637
0.0
SCALARS Torsion float 1
LOOKUP_TABLE default
0.0
0.0
0.7717289769306915
0.28203723780132595
0.17100956138290913
0.13436798580656445
0.06237776606511011
0.07204936995306942
0.09595925194368997
-0.06121156634940551
-0.06314050640857281
0.2600682440118616
0.7089923346261094
0.24362110918003588
0.14579865812310647
0.08355949579532995
0.1271260164707656
0.07400508307991133
-0.03582070451753622
-0.04396810740785761
0.029571014344371656
0.054024500911259404
0.007438216770103555
-0.10291618486610149
-0.1359175391811879
-0.1915993276562594
-0.2442977991494162
-0.26892293908535386
-0.20352214863396545
-0.11702268808403384
-0.1126593709485151
-0.09665506446474748
0.02211139821477963
0.1489246075570812
0.21359848637644807
0.13308703309798883
0.01068040352823621
-0.06737730824456994
-0.07854824347149506
-0.12868206617264524
-0.250534857708344
-0.24198175424894267
-0.10653281287641778
-0.06687582052666569
-0.08580396512725211
-0.11356206156220075
-0.11533482985438229
-0.12557872756773006
-0.2426540329520899
-0.25769730180793865
-0.09684525734823862
0.08510098534750352
0.1914009096612054
0.1760601644697184
0.09383630050494693
-0.026080068188243793
-0.37098351279966385
-0.8935866065468896
-0.3250265488142061
-0.17170286923354008
-0.16795564733564614
-0.1694013949911305
-0.13164884732920304
-0.06914993427789934
0.02326512789211857
0.07848958968209177
-0.00014882427605586446
-0.0916447701181158
-0.07843945522015776
-0.039994558990835705
-0.9999894120375529
-0.11215675465818331
-0.02238120102667114
0.0
SCALARS Distance_to_V float 1
LOOKUP_TABLE default
0.0
1.0131524242938392
1.9999866298212308
2.9393958717387103
3.86158629884947
4.83078164360816
5.933737793393133
7.254886872084186
8.685516733705146
10.09165764622452
11.426868207588399
12.693825880417679
13.820523649386459
14.87326606469804
15.764014533988814
16.35954846248853
16.62431049559874
16.64435474308139
16.400873919116595
15.81574297408537
14.825971208028095
13.6920230216408
12.752235382669788
12.056217473682782
11.504102425262314
10.974820426925072
10.375473190505858
9.665476471611568
8.85552778152065
8.010334098725158
7.254450558409022
6.666793630579244
6.24592505342551
5.950301493309702
5.726552763322438
5.533195658742343
5.352210600412962
5.194199674926149
5.140293996987136
5.427522896984812
6.3735077430974885
7.978404668791286
9.75568929194223
11.36606025580821
12.703633030912092
13.753972183463455
14.498273939352723
14.92251185814478
15.041844760155456
14.924861539877629
14.631166901899325
14.178110669069033
13.561522280586868
12.782574265303397
11.85779433115296
10.808356835741822
9.660934469153242
8.451885537915206
7.217138670252307
5.994059398562041
4.833304355666997
3.8042758271856867
2.997215998814876
2.489352475063904
2.2572483745593934
2.1758556663524233
2.1275088275921528
2.036821449362473
1.854844436994603
1.5645851121057077
1.181484863088959
0.7583641322414525
0.3601746450293115
0.0
SCALARS Local_Extrema int 1
LOOKUP_TABLE default
0
0
0
0
0
0
0
0
0
0
0
0
0
0
0
0
0
1
0
0
0
0
0
0
0
0
0
0
0
0
0
0
0
0
0
0
0
0
-1
0
0
0
0
0
0
0
0
0
1
0
0
0
0
0
0
0
0
0
0
0
0
0
0
0
0
0
0
0
0
0
0
0
0
0
