# vtk DataFile Version 5.1
vtk output
ASCII
DATASET POLYDATA
POINTS 120 float
2.01824 14.8975 -2.81505 1.45887 14.4517 -3.10856 0.927868 13.9875 -3.22385 
0.420008 13.5132 -3.19131 -0.0699592 13.0368 -3.04184 -0.547312 12.5667 -2.80783 
-1.01716 12.1106 -2.5241 -1.4841 11.6758 -2.22837 -1.95143 11.2686 -1.96029 
-2.42023 10.8931 -1.75856 -2.88842 10.5511 -1.65687 -3.3502 10.2417 -1.67939 
-3.79614 9.9607 -1.83739 -4.21402 9.70216 -2.12813 -4.59003 9.45892 -2.53651 
-4.91038 9.2239 -3.03877 -5.16296 8.99088 -3.60719 -5.33926 8.75504 -4.21448 
-5.43605 8.51313 -4.83701 -5.45609 8.26349 -5.45666 -5.40735 8.00588 -6.0616 
-5.30067 7.74123 -6.64623 -5.14655 7.47129 -7.21041 -4.95241 7.19838 -7.7582 
-4.72111 6.92497 -8.2961 -4.45167 6.6531 -8.83104 -4.14208 6.38315 -9.3681 
-3.79315 6.11247 -9.908 -3.41188 5.83477 -10.445 -3.01324 5.54068 -10.9653 
-2.6192 5.22014 -11.4471 -2.25555 4.86572 -11.8617 -1.94733 4.47641 -12.1769 
-1.71414 4.05997 -12.3622 -1.56666 3.6333 -12.3944 -1.50512 3.22052 -12.263 
-1.52013 2.84965 -11.9729 -1.59513 2.54752 -11.5445 -1.70976 2.3361 -11.0101 
-1.8436 2.2283 -10.4082 -1.97949 2.22568 -9.77677 -2.10596 2.31833 -9.14741 
-2.21837 2.48619 -8.54165 -2.31874 2.70349 -7.96984 -2.41454 2.94485 -7.4321 
-2.51643 3.19062 -6.92113 -2.63526 3.42988 -6.42554 -2.77882 3.66045 -5.93271 
-2.94914 3.88636 -5.43096 -3.14136 4.11433 -4.91108 -3.34397 4.34938 -4.36698 
-3.54107 4.59198 -3.7959 -3.71504 4.83574 -3.19784 -3.84955 5.0667 -2.57505 
-3.9321 5.26433 -1.93161 -3.95591 5.40455 -1.27361 -3.92068 5.46362 -0.609781 
-3.83204 5.42228 0.0476914 -3.70015 5.26898 0.682576 -3.53766 5.00147 1.27472 
-3.3581 4.62679 1.80098 -3.17459 4.15962 2.23741 -2.99903 3.61991 2.56202 
-2.84162 3.02999 2.75825 -2.71048 2.41118 2.81789 -2.61148 1.78204 2.74322 
-2.54795 1.15608 2.54762 -2.52037 0.540614 2.2549 -2.52655 -0.0628408 1.89669 
-2.56207 -0.657176 1.50924 -2.62131 -1.24851 1.12956 -2.69841 -1.84354 0.791387 
-2.78802 -2.44844 0.522273 -2.88517 -3.06757 0.34098 -2.9847 -3.7031 0.256387 
-3.08024 -4.35526 0.26738 -3.16309 -5.02211 0.364109 -3.22177 -5.7 0.5304 
-3.24222 -6.38305 0.746751 -3.20924 -7.06316 0.993532 -3.10862 -7.72952 1.25355 
-2.92981 -8.36817 1.51383 -2.66813 -8.96269 1.76671 -2.32602 -9.49446 2.01016 
-1.91293 -9.94481 2.24762 -1.44409 -10.2973 2.48708 -0.938059 -10.5412 2.73941 
-0.413903 -10.6744 3.01633 0.11173 -10.7055 3.3279 0.626949 -10.6537 3.68051 
1.12574 -10.5464 4.07577 1.60787 -10.4147 4.51035 2.07768 -10.2879 4.97694 
2.54215 -10.1882 5.46563 3.00909 -10.1277 5.96536 3.48551 -10.1075 6.46531 
3.9766 -10.1193 6.95579 4.4853 -10.1481 7.42897 5.01235 -10.1755 7.87871 
5.5568 -10.1831 8.30136 6.11679 -10.1546 8.6946 6.69016 -10.0781 9.05817 
7.27486 -9.94713 9.39324 7.86889 -9.76105 9.7033 8.46978 -9.52568 9.99419 
9.07393 -9.25253 10.2742 9.67607 -8.95915 10.5537 10.269 -8.66762 10.8437 
10.844 -8.404 11.1542 11.3907 -8.19605 11.4928 11.8994 -8.0702 11.8628 
12.3603 -8.04858 12.2634 12.7651 -8.14552 12.6904 13.1073 -8.36559 13.137 
13.3824 -8.70282 13.5961 13.5879 -9.14178 14.0608 13.7225 -9.65988 14.5257 
13.7862 -10.2304 14.9864 13.7794 -10.8239 15.4394 13.7025 -11.4108 15.8815 

LINES 2 120
OFFSETS vtktypeint64
0 120 
CONNECTIVITY vtktypeint64
0 1 2 3 4 5 6 7 8 
9 10 11 12 13 14 15 16 17 
18 19 20 21 22 23 24 25 26 
27 28 29 30 31 32 33 34 35 
36 37 38 39 40 41 42 43 44 
45 46 47 48 49 50 51 52 53 
54 55 56 57 58 59 60 61 62 
63 64 65 66 67 68 69 70 71 
72 73 74 75 76 77 78 79 80 
81 82 83 84 85 86 87 88 89 
90 91 92 93 94 95 96 97 98 
99 100 101 102 103 104 105 106 107 
108 109 110 111 112 113 114 115 116 
117 118 119 
CELL_DATA 1
FIELD FieldData 2
Length 1 1 double
78.019481306 
Tortuosity 1 1 double
1.2729608205 
POINT_DATA 120
FIELD FieldData 19
Curvature 1 120 double
0 0.31470016837 0.30258658989 0.24471992876 0.17205035723 0.10292988872 0.044496495862 0.057489680755 0.14179206668 
0.25734554753 0.38432684282 0.46204323755 0.43913568211 0.35264893867 0.26951406086 0.21658449329 0.190352872 0.17888511524 
0.171080738 0.1597717639 0.14294916891 0.12315212029 0.10483218785 0.092225628271 0.085917967596 0.080596066638 0.070351371338 
0.056966532301 0.0562793748 0.086060521492 0.14814739634 0.25560945832 0.44385236378 0.73407213339 0.97486768974 0.89700048422 
0.63556707558 0.43617198457 0.32630143911 0.26759844157 0.22972771703 0.19255577165 0.1474312333 0.095359608976 0.05275238582 
0.061315147276 0.083209064712 0.078117666077 0.047512909295 0.009700296937 0.035344297674 0.070672197353 0.10487929987 0.14195861215 
0.18307560304 0.22464010118 0.25856440631 0.27810367233 0.28410443528 0.28525715993 0.29168126018 0.30910649329 0.33404437127 
0.35268019923 0.34367633127 0.29811453692 0.22707929615 0.15081097639 0.08339599819 0.049128203676 0.08706030417 0.14767668768 
0.20253908718 0.23294771507 0.22695884135 0.19219537144 0.150279194 0.12180518688 0.11793186198 0.13460292832 0.16054734137 
0.18792025127 0.21407128102 0.2399426492 0.26790143982 0.29485450196 0.30882035509 0.29234009366 0.24103879969 0.17206738967 
0.10805751909 0.072935150256 0.075323735632 0.086729676639 0.086783025034 0.075732047458 0.062121879743 0.061701107584 0.078720000254 
0.10374187275 0.12416831682 0.1332142955 0.12719004797 0.10547459796 0.073912909158 0.037169591392 0.025720387851 0.069171869704 
0.13059268697 0.20711447084 0.29507398119 0.36936237907 0.39192898036 0.35075453181 0.27802098304 0.20955953701 0.16166038576 
0.1345492326 0.12863252991 0 
Torsion 1 120 double
0 0 0.042687079758 0.069119029606 0.12867343609 0.32673914972 1.7607224194 1.2784795397 0.31545925576 
0.16793932999 0.13080681354 0.12987156237 0.15439851772 0.19906879358 0.24578975094 0.26210566993 0.23379233778 0.18386102652 
0.1376671098 0.099764956377 0.057893316333 -0.0081787700077 -0.10650601801 -0.18670584341 -0.15955471921 -0.020770064663 0.21411839336 
0.64187319766 0.90855247907 0.46262162346 0.15119492278 0.0025634740488 -0.077516065511 -0.11358737768 -0.13057675172 -0.15713001403 
-0.18720496019 -0.18787139914 -0.15416160065 -0.1079951615 -0.061862941183 -0.0094565486125 0.094313524882 0.43659342819 1.6854381104 
0.96671399064 0.24059507064 0.065725852406 0.13877905877 5.5014619872 0.12886626702 -0.19282100698 -0.25684733848 -0.2606813227 
-0.23700530425 -0.20343002983 -0.1698229937 -0.13830391456 -0.10763134068 -0.077691527673 -0.050542374789 -0.031340888286 -0.023824565011 
-0.026327584127 -0.037652312612 -0.060250815173 -0.10674502426 -0.22868019278 -0.70744856764 -1.9741884013 -0.6115137553 -0.20477745969 
-0.10693188615 -0.089821834802 -0.11821464489 -0.19939346926 -0.35045546081 -0.50727878062 -0.45976799849 -0.25782473692 -0.089831679913 
0.026281068646 0.11615755776 0.18985877538 0.23879283829 0.25804536874 0.25782819288 0.26307539446 0.30555209844 0.43639492315 
0.78858790179 1.2400760203 0.85141421157 0.49468401384 0.42298515597 0.53682218391 0.8316812951 0.88245679481 0.53953704717 
0.28530305774 0.15947745728 0.10235809884 0.084165500258 0.10384159479 0.21716222168 0.91591937921 2.1852219346 0.38731166505 
0.16539092086 0.10195772487 0.065960702597 0.039062241557 0.012860319802 -0.021190085745 -0.068188236569 -0.12948213271 -0.2056495318 
-0.2760727177 0 0 
FrenetTangent 3 120 double
-0.73780024759 -0.61573839271 -0.27661711155 -0.73780024759 -0.61573839271 -0.27661711155 -0.74073286636 -0.66920383134 -0.059000447632 
-0.71777294662 -0.68385726748 0.13092453865 -0.68769355996 -0.67286938555 0.2726249394 -0.66592568308 -0.6511881807 0.36400128837 
-0.661261441 -0.62883219026 0.40902736234 -0.67783536436 -0.61091205536 0.40905461669 -0.71591780245 -0.59863661163 0.35929918919 
-0.76898021409 -0.58878041847 0.24901214664 -0.8170752631 -0.57232023127 0.069552622592 -0.82685497939 -0.53784160595 -0.16443007625 
-0.77616666104 -0.48476252749 -0.40320045417 -0.67806062292 -0.42857235565 -0.59712605673 -0.56061368394 -0.38502655663 -0.73312130515 
-0.44023720525 -0.35964354219 -0.82270755781 -0.32090871491 -0.35083040482 -0.87973611029 -0.20268671904 -0.35459027532 -0.91278903947 
-0.087123484316 -0.36655264091 -0.92630916001 0.021642541331 -0.38259841017 -0.92366122412 0.11878384431 -0.39915279873 -0.90915754498 
0.20159717919 -0.41323634427 -0.88802832225 0.27091932008 -0.42229570718 -0.8650254665 0.33039119972 -0.42426106326 -0.84311577221 
0.38415961253 -0.41832835937 -0.82305696999 0.4342405094 -0.40633422316 -0.80394507219 0.47953938302 -0.39368581335 -0.7842534415 
0.51715189479 -0.38838243854 -0.76270112046 0.54428937986 -0.39904751965 -0.73790930881 0.55906212917 -0.43348689088 -0.706780483 
0.55962752998 -0.49852185128 -0.6620370016 0.54191716572 -0.59987624556 -0.58862065502 0.49570087252 -0.73773493491 -0.45828791257 
0.40058409261 -0.88720506483 -0.22890949672 0.24004690148 -0.96404694469 0.11397795194 0.052214809089 -0.87946276752 0.47309497382 
-0.091046817879 -0.68077952859 0.72680789099 -0.17121921504 -0.46367895939 0.86930190557 -0.20600710369 -0.26465556078 0.94208200671 
-0.21283746125 -0.087125934534 0.97319540002 -0.20323344203 0.069738857543 0.97664356845 -0.18594525701 0.20277798938 0.9614080551 
-0.16926317168 0.30638609554 0.93673771098 -0.16125360004 0.37701698018 0.91206111261 -0.16851205459 0.41525504761 0.89396137103 
-0.19379826499 0.42587328299 0.88378401169 -0.23315240228 0.41746711501 0.87827169213 -0.27570560033 0.40096352003 0.87362158716 
-0.30848125647 0.38620992735 0.86929926172 -0.32212827495 0.37776247013 0.86806041877 -0.31293322408 0.37394166188 0.87306381827 
-0.28121879085 0.36858727071 0.88603578683 -0.22922957802 0.35276097464 0.90720091233 -0.16027016081 0.31646102416 0.93496839291 
-0.078855581115 0.25048534558 0.9649035646 0.0085443170455 0.14907789371 0.98878853971 0.093328172733 0.013362929304 0.99554572185 
0.16638399793 -0.14685316392 0.97506436376 0.22131188123 -0.31636257617 0.92246179955 0.25636249437 -0.48130974023 0.8382238397 
0.2731118483 -0.63325051531 0.7241572365 0.27363706688 -0.76730845632 0.57996593736 0.25857455254 -0.8772388261 0.40446414275 
0.22742178694 -0.95268434861 0.20167266236 0.18133893365 -0.98334929766 -0.011846937943 0.12559500291 -0.96985008714 -0.2088461245 
0.068140210949 -0.92843328669 -0.36519658242 0.01548082194 -0.88199461019 -0.47100515045 -0.029543444266 -0.84856871845 -0.52825970409 
-0.06694879989 -0.83770511895 -0.54200368253 -0.097852024011 -0.85146086202 -0.51520809567 -0.12301790097 -0.88546391103 -0.44812973378 
-0.14174163554 -0.9290048233 -0.34184696435 -0.15158658119 -0.96696924673 -0.20491945803 -0.14954458193 -0.98714385771 -0.056421823881 
-0.1335876745 -0.98774846398 0.0806678692 -0.10274155841 -0.97621018291 0.1909393908 -0.055885631444 -0.96116907698 0.27024211673 
0.0087048371708 -0.94680927145 0.32167752378 0.092469815042 -0.93188960544 0.35075788883 0.19506986657 -0.91105062707 0.36322789274 
0.31319170463 -0.87680488708 0.36486181789 0.44042953179 -0.82155250315 0.36204048406 0.56825846641 -0.73900813844 0.36186915684 
0.68662654456 -0.62504035503 0.37130653495 0.78356303001 -0.47936028497 0.39527546747 0.84577181459 -0.30963913845 0.43450390286 
0.86427592874 -0.13524295843 0.48449608997 0.84287443647 0.016817150659 0.53784743915 0.79844259236 0.12530038938 0.58888813805 
0.75058016392 0.18284577894 0.63497782532 0.7124901002 0.19344803767 0.67448922441 0.68936454329 0.1671630944 0.70486383531 
0.68108646325 0.11714089246 0.72277191485 0.68514320681 0.05859339176 0.72604793272 0.69876790567 0.006092241774 0.71532251369 
0.7196891662 -0.029219815898 0.69368127149 0.74598790488 -0.040523485797 0.66472542667 0.77523057955 -0.025369923074 0.63116869023 
0.80423496439 0.015224415308 0.59411643576 0.82916722357 0.076875271552 0.55368936054 0.84635149639 0.15163853111 0.51058290262 
0.85377360739 0.22962058466 0.46727402498 0.85208315108 0.30052693359 0.42852988907 0.84438978705 0.35632804624 0.40004526118 
0.83458121004 0.39196253627 0.38709117014 0.82573744528 0.40414010915 0.39348245659 0.81913572345 0.38937003489 0.4211978662 
0.81336883237 0.3419356041 0.47064974787 0.80303970216 0.25397001658 0.53909782733 0.77735253962 0.11823034598 0.617854849 
0.72139888305 -0.062763647549 0.68966975872 0.6264683641 -0.2658674559 0.73270177062 0.50206476917 -0.45322779671 0.73655653676 
0.37003307095 -0.59765501367 0.71125523621 0.24700098397 -0.69509351266 0.67515592464 0.13750076161 -0.75460777597 0.64160785922 
0.038411200146 -0.7860070852 0.61702304797 -0.056388914999 -0.79555077573 0.60325720343 -0.056388914999 -0.79555077573 0.60325720343 

FrenetNormal 3 120 double
-0.087975806267 -0.31858279439 0.94380361338 -0.087975806267 -0.31858279439 0.94380361338 0.060684473811 -0.15411816172 0.98618709526 
0.17442357538 0.0054383704046 0.98465569641 0.23086818744 0.15334110288 0.96082588756 0.19459322028 0.31941257413 0.92742066297 
-0.17875443942 0.66163777146 0.72820485426 -0.70555544782 0.38408237892 -0.59554364765 -0.51858020217 0.11136385095 -0.84774563793 
-0.3576375877 0.073358803388 -0.93097467303 -0.16158594261 0.11152671146 -0.98053647346 0.077193734992 0.1810667709 -0.98043661282 
0.32565822447 0.23936790092 -0.91468559016 0.54493703192 0.25204608998 -0.79969769273 0.72175199223 0.20680892878 -0.66053321543 
0.85393207841 0.11545312257 -0.50741559096 0.93796358182 0.011055095113 -0.34655750469 0.97924219517 -0.074991713689 -0.18831082304 
0.99045287076 -0.13158669726 -0.041085908899 0.98249215214 -0.16285754587 0.090479780857 0.96417704062 -0.17234879662 0.20163959593 
0.94568136747 -0.15395752525 0.28632818868 0.93727449836 -0.08905765546 0.33702410705 0.93610233907 0.033116735365 0.35016523619 
0.92326641786 0.17475316503 0.34211175507 0.89827214564 0.2621042079 0.35271594317 0.87736885373 0.23170730677 0.42016141957 
0.82487837441 -0.011548814463 0.56519226137 0.53180288617 -0.51615783398 0.67139167457 0.13083855236 -0.795635637 0.59147713933 
-0.079813800149 -0.82755081722 0.55568822393 -0.19205347161 -0.77023832526 0.6081516146 -0.28094465853 -0.63551948737 0.71915581067 
-0.3727426012 -0.38601686433 0.84383288257 -0.44530480949 -0.005022759745 0.8953649527 -0.44052144824 0.40487294362 0.80126072733 
-0.35283960124 0.70454555299 0.61572703332 -0.22410285978 0.87753181056 0.42392903852 -0.092281373702 0.96369590393 0.25054810481 
0.02059739798 0.99539510422 0.093618020161 0.10409536564 0.99334617735 -0.049269938031 0.15353061546 0.97244987042 -0.17541265528 
0.15235906599 0.94716065269 -0.28226479236 0.025716243092 0.92544690435 -0.37800357416 -0.53114665069 0.72574519161 -0.43723809569 
-0.98023925887 -0.047637380901 -0.19199394604 -0.94079642077 -0.32535882805 -0.095098515665 -0.91261280968 -0.3946008295 -0.10690203439 
-0.89655502014 -0.42341299222 -0.13004050863 -0.46351293653 -0.8624491256 0.20331567431 0.91812464233 -0.11622575185 0.37886503633 
0.91492062106 -0.1755993677 0.36343516508 0.87400978563 -0.33564247768 0.35135597591 0.79932338159 -0.51413681287 0.31103933723 
0.70072456912 -0.67452858678 0.23237096171 0.58883084686 -0.79995833724 0.1155200955 0.47117202195 -0.88144830747 -0.032338939063 
0.3519994922 -0.9148508103 -0.19784931739 0.23733627694 -0.90000411105 -0.36560100075 0.13302147158 -0.84138567866 -0.5238085794 
0.042075284514 -0.74419230302 -0.66663894768 -0.036377163712 -0.6108045414 -0.79094532944 -0.10760775751 -0.44225550257 -0.89041037784 
-0.17551581004 -0.24380927505 -0.9538088057 -0.23999443993 -0.032568394009 -0.97022779208 -0.30200566677 0.16314553688 -0.93924230688 
-0.37003029237 0.31642069443 -0.87347325481 -0.47311764597 0.40852907744 -0.78055344849 -0.70021940488 0.39471495659 -0.59488897122 
-0.97788359355 -0.052789067023 0.20237833843 -0.46108329734 -0.41999052199 0.78167138514 -0.22194107463 -0.4155753611 0.88206534828 
-0.11123187239 -0.32819934661 0.93803659814 -0.029889805004 -0.20273611197 0.97877712911 0.05754737691 -0.065656361984 0.99618148022 
0.17889995714 0.056025260764 0.98227082594 0.37025551338 0.14062993444 0.91822332597 0.64118657435 0.17292749333 0.74764688117 
0.8733563721 0.16386869673 0.45868910772 0.96529927861 0.17030204613 0.19797604853 0.97278345472 0.22694273892 0.046790420662 
0.94403562907 0.3292951539 -0.019011382759 0.88535253844 0.46433241171 -0.023372935386 0.78817145813 0.61517435398 0.018608245439 
0.64244145118 0.76072496259 0.092555459589 0.4483117803 0.87668357126 0.17447768774 0.21923238762 0.9441320197 0.24607293551 
-0.020325549114 0.95300228622 0.30228052289 -0.24808562452 0.89909482419 0.36066885091 -0.45509776639 0.76597116627 0.4540640874 
-0.63607374957 0.46023829212 0.61934715594 -0.63885947003 -0.218709521 0.73758031629 -0.30111350769 -0.8188496805 0.48868789246 
-0.024104222462 -0.98299746741 0.18203012256 0.15885792247 -0.98478586902 -0.070434030452 0.34104946412 -0.88183889032 -0.32564618 
0.55939316983 -0.56739849566 -0.60426668671 0.6659581182 0.043365235579 -0.74472762883 0.5477533951 0.52466181551 -0.65168719298 
0.39031122298 0.74033478352 -0.54732216978 0.25422207904 0.83028385381 -0.49598372617 0.13718555484 0.86421167241 -0.48406436433 
0.02793418689 0.87599632668 -0.48150816903 -0.072131448917 0.87834417951 -0.47255534745 -0.17976089353 0.89188866044 -0.41499474519 
-0.36308767291 0.91983236408 -0.14857914982 -0.42556927845 -0.01146967157 0.90485315708 -0.11648703546 -0.60608288413 0.78682546231 
-0.077103825846 -0.7385258014 0.6698019414 -0.11627750095 -0.82047404347 0.55973376419 -0.20969686857 -0.87730080262 0.43170652652 
-0.34128265975 -0.89877492045 0.27519045864 -0.48518255205 -0.86872033697 0.09961359003 -0.61396267023 -0.78661044316 -0.065527477259 
-0.71879301235 -0.66921672184 -0.18837617845 -0.8064745923 -0.53372189865 -0.25443990818 -0.88865679986 -0.38007832425 -0.25657271774 
-0.96101072098 -0.19826639735 -0.19274031711 -0.99611501085 0.0038940020881 -0.087975689295 -0.99611501085 0.0038940020881 -0.087975689295 

FrenetBinormal 3 120 double
-0.66926157231 0.72067415305 0.18088038303 -0.66926157231 0.72067415305 0.18088038303 -0.66905322309 0.72692078272 0.15477067006 
-0.67407597009 0.72959554676 0.11537731449 -0.68831493346 0.72369420073 0.049892446498 -0.72019196277 0.68842542138 -0.085988231517 
-0.72854660594 0.40841833441 -0.54992209183 0.20671412356 -0.69229125866 -0.69137694806 0.46747863486 -0.79324164031 -0.39016845853 
0.52987242447 -0.80495720681 -0.26698147688 0.55342388599 -0.81241082311 -0.18360462116 0.55709242531 -0.82337186701 -0.10819795872 
0.5399185449 -0.84125400442 -0.027922480424 0.4932316118 -0.86763961672 0.062642418673 0.40593886126 -0.89943572181 0.16195376888 
0.277472897 -0.92591959643 0.25628439745 0.13130847604 -0.93637375653 0.32551846675 -0.0016784277202 -0.93200964562 0.36242958399 
-0.1068298146 -0.92104511428 0.37451740703 -0.18504262049 -0.90944811633 0.37237528424 -0.23717721786 -0.90054035755 0.36438171161 
-0.2550398568 -0.8975147933 0.35975250833 -0.21936097358 -0.90207265212 0.37167955764 -0.12064023351 -0.90493415895 0.40809325162 
0.00071676128453 -0.89132637965 0.45336163401 0.067396827581 -0.8753250158 0.47881497924 0.016305662552 -0.88956349091 0.45652044972 
-0.22831904244 -0.9214259093 0.31439578327 -0.64879485296 -0.75785365835 -0.068724604694 -0.81873732597 -0.4231466041 -0.388092956 
-0.82489198384 -0.25813873926 -0.50290914318 -0.81819389483 -0.21652115906 -0.53261368565 -0.82179726443 -0.22773262172 -0.52229025376 
-0.83701573342 -0.25270170833 -0.48533133899 -0.86260136317 -0.26568451276 -0.43050043896 -0.89622233143 -0.25024615893 -0.36628184857 
-0.93124362696 -0.20038661937 -0.30435260805 -0.95940705055 -0.12222824584 -0.2541620886 -0.97418952022 -0.035321932312 -0.22295098071 
-0.97687049412 0.039970714705 -0.21006279938 -0.97358118454 0.09165077026 -0.20914065463 -0.97049096416 0.11498841914 -0.2119550706 
-0.97372310937 0.094943448716 -0.20700011551 -0.98657789926 -0.037499651875 -0.15892710528 -0.83035349275 -0.54850447792 0.09826451437 
-0.039663936514 -0.90352787825 0.42668975306 0.24605294548 -0.8484473118 0.46860975995 0.30186798696 -0.82675174083 0.47471810318 
0.31784966615 -0.81948967659 0.47687342103 0.82546298048 -0.33686350635 0.45291704091 0.24314592 0.92014086319 -0.30695415531 
0.2895448995 0.91285721005 -0.28784625277 0.42843983847 0.873443657 -0.2313773603 0.57913349688 0.79719242209 -0.1705539063 
0.70906055846 0.69445538176 -0.12233089216 0.80821112862 0.58124215288 -0.09461676006 0.87708994858 0.4720914248 -0.088560198315 
0.92109322152 0.37614112132 -0.1005242962 0.94588188632 0.29984549438 -0.12409728694 0.95738370551 0.24578664266 -0.15167520138 
0.96106169872 0.2125361169 -0.17660353976 0.96114486816 0.19533444416 -0.19505126848 0.95997904733 0.18671398563 -0.20875372156 
0.95784838636 0.18152016229 -0.22265870616 0.95368698216 0.17878327245 -0.24190428178 0.94499654628 0.18103685335 -0.27240995806 
0.92651740101 0.19465245001 -0.32198746765 0.88086323412 0.23492445697 -0.41096284783 0.71331617809 0.35232262646 -0.60584552236 
-0.19814523879 0.54356549567 -0.81564392737 -0.88194510845 0.31404197471 -0.35149745917 -0.96726870901 0.20796822235 -0.14539760334 
-0.98363447445 0.17098311953 -0.056815433786 -0.98799195744 0.15449448139 0.0018295518688 -0.98707888106 0.14572661502 0.066626092848 
-0.97475593794 0.14565075371 0.16922387357 -0.92323075501 0.16503605764 0.34699866382 -0.76534735452 0.21505833512 0.60662454568 
-0.48700397649 0.27694630116 0.82832836071 -0.24422660792 0.32027952846 0.91530016259 -0.12506037492 0.34421468324 0.93052466623 
-0.10347795516 0.35039676314 0.93086756371 -0.14890503753 0.33082759257 0.93186930081 -0.2363642696 0.27464064798 0.93204315701 
-0.34031304723 0.17499167375 0.92388578515 -0.43016918258 0.040492382857 0.90183969822 -0.48642285912 -0.11286422514 0.86640317913 
-0.50260719359 -0.27110142873 0.82090804862 -0.47751042634 -0.4374307723 0.76199613659 -0.39417692695 -0.63054578332 0.668607931 
-0.1789960967 -0.86876241608 0.46174913295 0.29020068001 -0.9564225019 -0.032242257708 0.65886810664 -0.54912812769 -0.5141508703 
0.73180613282 -0.1414001074 -0.66668267833 0.71087477564 0.1635958637 -0.6840273728 0.62881529643 0.47151145916 -0.61827847032 
0.41125027125 0.82292475323 -0.39200518481 0.0013529847665 0.99823709781 0.059336885579 -0.31461685696 0.85093263326 0.42063034481 
-0.44817772287 0.67206593835 0.5894608581 -0.49784821972 0.55201350954 0.66890076648 -0.51465451335 0.47973319789 0.71062422611 
-0.51989451673 0.4241518864 0.74148827957 -0.51841234333 0.37174596771 0.77009971937 -0.50467009886 0.27850483091 0.81715552404 
-0.41429644655 -0.016546665533 0.90999157262 0.37020056821 -0.91462517941 0.16251867734 0.56164707525 -0.69358093508 -0.4511075807 
0.57661611369 -0.5810849192 -0.57432932549 0.58447136758 -0.51217338341 -0.62934223265 0.59308536692 -0.46515039183 -0.6571794736 
0.60258592557 -0.4338944191 -0.66979536829 0.61002891732 -0.41789887775 -0.67322005913 0.60908193794 -0.41931918034 -0.67319433886 
0.58856786507 -0.44153987798 -0.67722256634 0.53720503153 -0.48164919138 -0.69240509136 0.43747300787 -0.53489024284 -0.7228483904 
0.27383019166 -0.58556237729 -0.76297688591 0.067640043055 -0.60587440941 -0.79267964815 0.067640043055 -0.60587440941 -0.79267964815 

plain_curvature_peaks 1 120 unsigned_char
0 0 0 0 0 0 0 0 0 
0 0 0 0 0 0 0 0 0 
0 0 0 0 0 0 0 0 0 
1 0 0 0 0 0 0 0 0 
0 0 0 0 0 0 0 0 0 
0 0 0 0 0 0 0 0 0 
0 0 0 0 0 0 0 0 0 
0 0 0 0 0 0 0 0 0 
0 0 0 0 0 0 1 0 0 
0 0 0 0 0 0 0 0 0 
0 0 0 0 0 0 0 0 0 
1 0 0 0 0 0 0 0 0 
0 0 0 0 0 1 0 0 0 
0 0 0 
weighted_curvature_peaks 1 120 unsigned_char
0 0 0 0 0 0 0 0 0 
0 0 0 0 0 0 0 0 0 
0 0 0 0 0 0 0 0 0 
0 0 0 1 0 0 0 0 0 
0 0 0 0 0 0 0 0 0 
0 0 0 0 0 0 0 0 0 
0 0 0 0 0 0 0 0 0 
0 0 0 0 0 0 0 0 0 
0 0 0 0 0 0 0 0 0 
0 0 1 0 0 0 0 0 0 
0 0 0 0 0 0 0 0 0 
0 0 0 0 1 0 0 0 0 
0 0 0 0 0 0 0 1 0 
0 0 0 
plain_torsion_tp 1 120 unsigned_char
0 0 0 0 0 0 0 0 0 
0 0 0 0 0 0 0 0 0 
0 0 0 0 0 0 0 0 0 
1 0 0 0 0 0 0 0 0 
0 0 0 0 0 0 0 0 0 
0 0 0 0 0 0 0 0 0 
0 0 0 0 0 0 0 0 0 
0 0 0 0 0 0 0 0 0 
0 0 0 0 0 0 1 0 0 
0 0 0 0 0 0 0 0 0 
0 0 0 0 0 0 0 0 0 
1 0 0 0 0 0 0 0 0 
0 0 0 0 0 1 0 0 0 
0 0 0 
plain_torsion_tn 1 120 unsigned_char
0 0 0 0 0 0 0 0 2 
0 0 0 0 0 0 0 0 0 
0 0 0 0 0 0 0 0 0 
0 0 0 0 0 0 0 0 0 
0 0 0 0 0 0 0 0 0 
0 0 0 0 0 0 0 0 0 
0 0 2 0 0 0 0 0 0 
0 0 0 0 0 0 0 0 0 
0 0 0 0 0 0 0 0 0 
0 0 0 0 0 0 0 0 2 
0 0 0 0 0 0 0 0 0 
0 0 0 0 0 0 0 0 0 
2 0 0 0 0 0 0 0 0 
0 0 0 
plain_torsion_tz 1 120 unsigned_char
0 0 0 0 0 0 0 0 0 
0 3 0 0 0 0 0 0 0 
0 0 0 0 0 0 0 0 0 
0 0 0 0 0 0 0 0 0 
0 0 0 0 0 0 0 0 0 
3 0 0 0 0 0 0 0 0 
0 0 0 0 0 0 0 0 0 
0 0 3 0 0 0 0 0 0 
0 0 0 0 0 0 0 0 0 
0 0 0 0 0 0 0 0 0 
3 0 0 0 0 0 0 0 0 
0 0 0 0 0 0 0 3 0 
0 3 0 0 0 0 0 0 0 
0 0 0 
weighted_torsion_tp 1 120 unsigned_char
0 0 0 0 0 0 0 0 0 
0 0 0 0 0 0 0 0 0 
0 0 0 0 0 0 0 0 0 
0 0 0 1 0 0 0 0 0 
0 0 0 0 0 0 0 0 0 
0 0 0 0 0 0 0 0 0 
0 0 0 0 0 0 0 0 0 
0 0 0 0 0 0 0 0 0 
0 0 0 0 0 0 0 0 0 
0 0 1 0 0 0 0 0 0 
0 0 0 0 0 0 0 0 0 
0 0 0 0 1 0 0 0 0 
0 0 0 0 0 0 0 1 0 
0 0 0 
weighted_torsion_tn 1 120 unsigned_char
0 0 0 0 0 0 0 0 0 
0 2 0 0 0 0 0 0 0 
0 0 0 0 0 0 0 0 0 
0 0 0 0 0 0 0 0 0 
0 0 0 0 0 0 0 0 0 
0 0 0 0 0 0 0 0 0 
0 0 0 0 0 0 0 0 2 
0 0 0 0 0 0 0 0 0 
0 0 0 0 0 0 0 0 0 
0 0 0 0 0 0 0 0 0 
0 0 0 2 0 0 0 0 0 
0 0 0 0 0 0 0 0 0 
0 0 0 2 0 0 0 0 0 
0 0 0 
weighted_torsion_tz 1 120 unsigned_char
0 0 0 0 0 0 0 0 0 
0 0 0 3 0 0 0 0 0 
0 0 0 0 0 0 0 0 0 
0 0 0 0 0 0 0 0 0 
0 0 0 0 0 0 0 0 0 
0 0 0 0 3 0 0 0 0 
0 0 0 0 0 0 0 0 0 
0 0 0 0 0 0 0 3 0 
0 0 0 0 0 0 0 0 0 
0 0 0 0 0 0 0 0 0 
0 0 0 0 0 3 0 0 0 
0 0 0 0 0 0 0 0 0 
0 0 3 0 3 0 0 0 0 
0 0 0 
plain_torsion_tp_raw 1 120 unsigned_char
0 0 0 0 0 0 0 0 0 
0 0 0 0 0 0 0 0 0 
0 0 0 0 0 0 0 0 0 
0 0 0 0 0 0 0 0 1 
0 0 0 0 0 0 0 0 0 
0 0 0 0 0 0 0 0 0 
0 0 0 0 0 0 1 0 0 
0 0 0 0 0 0 0 0 0 
0 0 0 0 0 0 0 0 0 
0 0 0 0 0 0 0 0 0 
1 0 0 0 0 0 0 0 0 
0 0 0 1 0 0 0 0 0 
0 0 1 0 0 0 0 1 0 
0 0 0 
plain_torsion_tn_raw 1 120 unsigned_char
0 0 0 0 0 0 0 0 0 
0 0 0 0 0 0 0 0 0 
0 0 2 0 0 0 0 0 0 
0 0 0 0 0 0 0 0 0 
0 0 0 0 0 0 0 0 0 
0 0 0 2 0 0 0 0 0 
0 0 0 0 0 0 0 0 0 
0 0 0 0 0 0 0 0 0 
0 0 0 0 0 0 0 0 0 
0 0 0 0 0 0 0 2 0 
0 2 0 0 0 0 0 0 0 
0 0 0 0 0 0 0 0 0 
2 0 0 2 0 0 0 0 0 
0 0 0 
plain_torsion_tz_raw 1 120 unsigned_char
0 0 0 0 0 0 0 0 3 
0 0 0 0 0 0 0 0 0 
0 0 0 0 0 0 0 0 0 
0 0 3 0 0 0 0 0 0 
0 3 0 0 0 0 0 0 0 
0 0 0 0 0 0 0 0 3 
0 0 0 0 0 0 0 0 0 
0 0 0 0 0 0 0 0 0 
0 0 0 0 0 0 0 0 0 
0 0 0 0 0 0 0 0 0 
0 0 0 0 0 0 0 0 0 
0 0 0 0 0 0 0 0 0 
0 0 0 0 0 0 0 0 0 
0 0 0 
weighted_torsion_tp_raw 1 120 unsigned_char
0 0 0 0 0 0 0 0 0 
0 0 0 0 0 0 0 0 0 
0 0 0 0 0 0 0 0 0 
0 0 0 0 0 0 0 0 0 
0 0 1 0 0 0 0 0 0 
0 0 0 0 0 0 0 0 0 
0 0 0 0 0 0 0 0 0 
0 0 1 0 0 0 0 0 0 
0 0 0 0 0 0 0 0 0 
0 0 0 0 0 0 0 0 0 
0 0 0 0 1 0 0 0 0 
0 0 0 0 0 0 0 1 0 
0 0 0 0 0 1 0 0 0 
1 0 0 
weighted_torsion_tn_raw 1 120 unsigned_char
0 0 0 0 0 0 0 0 0 
0 0 0 0 0 0 0 0 0 
0 0 0 0 2 0 0 0 0 
0 0 0 0 0 0 0 0 0 
0 0 0 0 0 0 0 0 0 
0 0 0 0 0 0 0 2 0 
0 0 0 0 0 0 0 0 0 
0 0 0 0 0 0 0 0 0 
0 0 0 0 0 0 0 0 0 
0 0 0 0 0 0 0 0 0 
0 0 2 0 0 0 2 0 0 
0 0 0 0 0 0 0 0 0 
0 0 0 0 2 0 2 0 0 
0 0 0 
weighted_torsion_tz_raw 1 120 unsigned_char
0 0 0 0 0 0 0 0 0 
0 3 0 0 0 0 0 0 0 
0 0 0 0 0 0 0 0 0 
0 0 0 0 0 3 0 0 0 
0 0 0 0 3 0 0 0 0 
0 0 0 0 0 0 0 0 0 
0 0 0 0 0 3 0 0 0 
0 0 0 0 0 0 0 0 0 
0 0 0 0 0 0 0 0 0 
0 0 0 0 0 0 0 0 0 
0 0 0 0 0 0 0 0 0 
0 0 0 0 0 0 0 0 0 
0 0 0 0 0 0 0 0 0 
0 0 0 
