# vtk DataFile Version 5.1
vtk output
ASCII
DATASET POLYDATA
POINTS 120 float
-0.651238 17.7017 -4.70664 -1.11877 17.2896 -4.90485 -1.58734 16.8639 -5.01944 
-2.05143 16.4336 -5.07196 -2.50564 16.0078 -5.08406 -2.94489 15.595 -5.07756 
-3.36479 15.203 -5.07436 -3.76223 14.8379 -5.0958 -4.13591 14.5031 -5.16131 
-4.48672 14.1985 -5.28627 -4.8177 13.9195 -5.47958 -5.13334 13.6576 -5.74212 
-5.43838 13.401 -6.06643 -5.73637 13.1364 -6.43852 -6.02815 12.8513 -6.84101 
-6.31086 12.5364 -7.25668 -6.57759 12.1868 -7.67131 -6.81784 11.803 -8.07541 
-7.01856 11.3905 -8.46455 -7.1657 10.9589 -8.83902 -7.24587 10.52 -9.20278 
-7.24803 10.0863 -9.56216 -7.1652 9.66857 -9.92432 -6.9958 9.27429 -10.2951 
-6.74462 8.90614 -10.677 -6.42275 8.56183 -11.0674 -6.04681 8.23485 -11.4567 
-5.63714 7.91644 -11.8285 -5.21562 7.59805 -12.16 -4.80359 7.27374 -12.4247 
-4.4199 6.94228 -12.5964 -4.07978 6.60773 -12.6534 -3.79405 6.27979 -12.5829 
-3.56903 5.97208 -12.384 -3.40685 5.69987 -12.0676 -3.30601 5.47746 -11.6547 
-3.26176 5.31523 -11.1719 -3.26634 5.21771 -10.6471 -3.3093 5.1823 -10.1048 
-3.37818 5.19944 -9.56299 -3.46005 5.25368 -9.03185 -3.54321 5.32524 -8.51394 
-3.61886 5.39317 -8.00583 -3.68165 5.43766 -7.50067 -3.72976 5.44299 -6.991 
-3.76433 5.39823 -6.47115 -3.78882 5.29765 -5.93909 -3.80816 5.1397 -5.39701 
-3.82782 4.92672 -4.85116 -3.85297 4.66321 -4.31098 -3.88776 4.35491 -3.78786 
-3.93505 4.00748 -3.2938 -3.9962 3.62536 -2.84006 -4.07122 3.21126 -2.43559 
-4.15878 2.76668 -2.08568 -4.25615 2.29283 -1.79069 -4.3593 1.79109 -1.54563 
-4.46302 1.26457 -1.3408 -4.56136 0.717553 -1.16324 -4.64801 0.155496 -0.99914 
-4.71691 -0.415735 -0.836061 -4.76232 -0.990519 -0.664713 -4.77887 -1.56426 -0.480042 
-4.76158 -2.13349 -0.281278 -4.70588 -2.69599 -0.0715452 -4.60783 -3.25075 0.143189 
-4.46451 -3.79697 0.355413 -4.27415 -4.33386 0.557354 -4.03639 -4.85981 0.742377 
-3.75222 -5.37157 0.906228 -3.42411 -5.8645 1.0481 -3.05628 -6.33222 1.17153 
-2.65508 -6.76764 1.28466 -2.22901 -7.16356 1.39982 -1.78842 -7.51367 1.53231 
-1.34438 -7.81359 1.69823 -0.907159 -8.06152 1.9119 -0.484624 -8.25924 2.18324 
-0.0809961 -8.41154 2.51586 0.303525 -8.5263 2.90657 0.672385 -8.61319 3.34608 
1.03159 -8.68185 3.8209 1.38837 -8.74086 4.31556 1.75005 -8.79518 4.81464 
2.1232 -8.84596 5.30425 2.51302 -8.88985 5.77318 2.92311 -8.92063 6.21321 
3.35505 -8.93022 6.61948 3.80836 -8.91154 6.99092 4.28061 -8.86084 7.32987 
4.76777 -8.77875 7.64181 5.26503 -8.67115 7.93466 5.76755 -8.54864 8.21756 
6.27106 -8.42446 8.49987 6.77298 -8.31235 8.78949 7.27187 -8.22401 9.09222 
7.76794 -8.16796 9.41143 8.26194 -8.14835 9.74754 8.7543 -8.16564 10.0993 
9.24391 -8.21785 10.4644 9.72764 -8.3022 10.8402 10.1995 -8.41609 11.2242 
10.6507 -8.55859 11.614 11.0714 -8.73109 12.0065 11.4509 -8.9373 12.3979 
11.7804 -9.18295 12.7824 12.0535 -9.47461 13.153 12.2678 -9.81811 13.5014 
12.4248 -10.2166 13.8206 12.5289 -10.67 14.1053 12.5864 -11.1739 14.3533 
12.604 -11.7206 14.5655 12.5889 -12.3002 14.7459 12.5468 -12.9017 14.9004 
12.4838 -13.5135 15.0364 12.4046 -14.1253 15.1621 12.3145 -14.7267 15.2859 
12.2183 -15.3081 15.4163 12.1205 -15.86 15.5618 12.0264 -16.3731 15.731 

LINES 2 120
OFFSETS vtktypeint64
0 120 
CONNECTIVITY vtktypeint64
0 1 2 3 4 5 6 7 8 
9 10 11 12 13 14 15 16 17 
18 19 20 21 22 23 24 25 26 
27 28 29 30 31 32 33 34 35 
36 37 38 39 40 41 42 43 44 
45 46 47 48 49 50 51 52 53 
54 55 56 57 58 59 60 61 62 
63 64 65 66 67 68 69 70 71 
72 73 74 75 76 77 78 79 80 
81 82 83 84 85 86 87 88 89 
90 91 92 93 94 95 96 97 98 
99 100 101 102 103 104 105 106 107 
108 109 110 111 112 113 114 115 116 
117 118 119 
CELL_DATA 1
FIELD FieldData 2
Length 1 1 double
68.492609179 
Tortuosity 1 1 double
0.64221640616 
POINT_DATA 120
FIELD FieldData 19
Curvature 1 120 double
0 0.2006182096 0.15170580887 0.10124744803 0.049346119854 0.010473540395 0.08256902734 0.17424789431 0.27204357325 
0.33230881755 0.31263229166 0.22785889149 0.13429877043 0.078853031277 0.080176704268 0.10199950166 0.12127705481 0.13935739974 
0.16272484908 0.1969363685 0.23951338475 0.27610213322 0.28486941005 0.25451108816 0.19767592265 0.13722028972 0.095549610314 
0.098951160456 0.15629116108 0.26346134519 0.43131170714 0.64036785943 0.77625763651 0.72760380167 0.57072106067 0.42636149033 
0.32650740896 0.2562086852 0.19725548319 0.136494038 0.066517062267 0.02302699215 0.097868850803 0.16109688895 0.19365585829 
0.19375781942 0.17602622671 0.15392130091 0.13857186432 0.13258221305 0.13666674421 0.1501578589 0.16992938146 0.18833908451 
0.19396478093 0.17907242302 0.14368372445 0.099553827954 0.062964662521 0.053806350237 0.069294953225 0.087674148098 0.10164247773 
0.11150081645 0.11939547743 0.12702316067 0.13473658144 0.14074556633 0.14390328699 0.14241041871 0.13672716886 0.12940344267 
0.12793051339 0.14290596715 0.17898799946 0.22728940834 0.26455039199 0.26818751389 0.23064755871 0.16871061286 0.1041886684 
0.048124563011 0.014388017574 0.039878268327 0.070784599881 0.099311323781 0.12478160895 0.14183212667 0.14436513082 0.1292806357 
0.097188237186 0.053514921611 0.0051928076152 0.04076465471 0.078418480599 0.10387074438 0.11266319687 0.10903858326 0.098942893084 
0.089713147193 0.085895005094 0.093125521348 0.11148674009 0.1435807298 0.18595465543 0.23557815897 0.2787197771 0.29860326839 
0.28627097751 0.24653839302 0.19634018723 0.14742507207 0.10725206565 0.073743850521 0.048142184688 0.031485916457 0.037133926888 
0.063860012858 0.10614434278 0 
Torsion 1 120 double
0 0 0.015255893885 0.036385388976 0.16747603402 4.5476563072 0.11872124159 0.055632273661 0.05334143648 
0.071656824078 0.12281539485 0.26182845827 0.66652403163 1.4111894425 0.79486782158 0.13895920321 -0.14988419968 -0.30710465303 
-0.37451969413 -0.35426865435 -0.28382983596 -0.20320875212 -0.12916664294 -0.051627559578 0.069307101439 0.33329527368 0.87274628511 
0.89107079876 0.35438749592 0.093808248106 -0.015355859472 -0.060375133866 -0.08191984921 -0.10146074684 -0.11724488335 -0.12124134735 
-0.11853126923 -0.12091573816 -0.14155037891 -0.20792035363 -0.63997420333 -5.0636395712 -0.35389553746 -0.17665236184 -0.15111542729 
-0.16202860625 -0.18169966646 -0.19460160403 -0.18154561339 -0.13920744855 -0.078143431224 -0.018704905349 0.022570423381 0.051013411051 
0.079405338019 0.12282723621 0.21718614058 0.46013611834 1.04577781 1.1450848308 0.44129967859 0.083073979875 -0.094699583588 
-0.20163646072 -0.25043966586 -0.24734234699 -0.20198743449 -0.12516316867 -0.030617983804 0.08298890699 0.22734214335 0.41093984741 
0.59176945193 0.61505286985 0.46805676744 0.31007502202 0.20220213814 0.13766390101 0.10100195354 0.065792906438 0.0011831707717 
-0.33207119095 -4.4652516635 -0.24189968318 0.12469286372 0.20017354572 0.20622315353 0.17978053046 0.15450498583 0.13422486934 
0.11160962994 0.093358176835 0.26795494514 0.050928429067 0.065078169267 0.070698740398 0.062744499009 0.040041142345 -0.00045760850947 
-0.067781137465 -0.13415851109 -0.10817133604 -0.031739812245 0.056654477404 0.1171389657 0.14969435704 0.15544531648 0.14218331448 
0.12541686981 0.095497204292 0.054393288982 0.0021740738368 -0.079251732267 -0.21569426599 -0.56602113724 -1.3752283287 -1.1062676049 
-0.48034653716 0 0 
FrenetTangent 3 120 double
-0.72307286442 -0.64713832182 -0.24161462116 -0.72307286442 -0.64713832182 -0.24161462116 -0.73040716143 -0.67035593877 -0.130875108 
-0.73047561807 -0.68100142543 -0.051404571358 -0.72911221153 -0.68437890991 -0.0045706301859 -0.72978329044 -0.68362889265 0.0082393035557 
-0.73352800297 -0.67946212014 -0.016367533544 -0.73793093305 -0.66972771087 -0.083202952679 -0.73561835227 -0.64920414557 -0.19338980632 
-0.71600395296 -0.61287839577 -0.33424304232 -0.67471521002 -0.56436740715 -0.47565619423 -0.62115000879 -0.51889825304 -0.58729657719 
-0.56973754839 -0.49244329278 -0.65795040037 -0.52751975749 -0.49165133471 -0.69282167297 -0.49272312312 -0.51459584517 -0.70172290833 
-0.45899714161 -0.55516450757 -0.69362381269 -0.41882812358 -0.60589980866 -0.67636412143 -0.36523315343 -0.65950567561 -0.65700609395 
-0.29227079614 -0.70918730368 -0.64158487359 -0.19531643477 -0.74798176928 -0.63433016887 -0.072453103696 -0.76794708694 -0.63640224656 
0.072086429904 -0.76093191779 -0.64481482855 0.22469208176 -0.7233577664 -0.6528912698 0.36541749755 -0.66242514406 -0.65395946435 
0.47880759207 -0.59528800054 -0.64527163752 0.5613037945 -0.53997707024 -0.62718642675 0.61856033809 -0.5081560457 -0.59930004285 
0.65897052283 -0.50485301002 -0.55756729488 0.68905199726 -0.5312908165 -0.49288681599 0.71067081616 -0.58568130997 -0.38977479936 
0.71676863767 -0.65952659129 -0.22642304527 0.68664738042 -0.72683994175 0.014801149926 0.59474744722 -0.74018739697 0.31368470061 
0.44657113181 -0.66885261805 0.59431506758 0.28599909723 -0.53783313752 0.79305739551 0.14722446111 -0.39027615874 0.90885063568 
0.038095002759 -0.24945893363 0.96763578437 -0.044166889891 -0.12349878037 0.99136135545 -0.10259939935 -0.01676201023 0.99458151917 
-0.13882989089 0.065739003942 0.98813189644 -0.15432422821 0.11763943609 0.98099184281 -0.15160209237 0.13315227902 0.97943211923 
-0.13456109685 0.10927091579 0.98486200971 -0.10850769371 0.048744065949 0.9928998421 -0.079992829562 -0.03815461045 0.99606494413 
-0.055527371722 -0.136650549 0.98906184764 -0.039634073979 -0.23381399648 0.97147318812 -0.033909521098 -0.32252790134 0.94595237577 
-0.037758641026 -0.40149189271 0.91508390059 -0.049586953116 -0.47303689378 0.87964608292 -0.067665071879 -0.54058192959 0.83856580866 
-0.090298784303 -0.60747173179 0.78919213417 -0.115538144 -0.67558155245 0.72817614852 -0.14082104402 -0.74377351251 0.65342971745 
-0.16259441698 -0.80750657308 0.56700634035 -0.17698906409 -0.86108685538 0.47665952071 -0.18126834673 -0.90096900377 0.39420380607 
-0.17458064837 -0.92755610187 0.3303956342 -0.15741413404 -0.94376624868 0.29073365519 -0.13073969817 -0.95251617729 0.27499102409 
-0.095318511381 -0.95559037227 0.2788573503 -0.051458427115 -0.95389749884 0.29568833591 0.00061860504169 -0.94807284098 0.31805267729 
0.060552369805 -0.93887681222 0.33888603098 0.12758843094 -0.92716878088 0.35224883827 0.20025626169 -0.913461591 0.35423911617 
0.27653636436 -0.89761812734 0.34323364733 0.35399605167 -0.87881182293 0.31996339677 0.43033561269 -0.85560929298 0.28765256511 
0.50367405083 -0.82647622369 0.2514945371 0.57252928167 -0.79030013406 0.21825654569 0.6357949264 -0.74666886089 0.19557715548 
0.69237940118 -0.69577740577 0.1910616823 0.74071021444 -0.63761324141 0.2116547486 0.77762148655 -0.57139897082 0.26231286625 
0.79757728514 -0.49582530567 0.3435516562 0.79381856563 -0.41147717145 0.44781538857 0.76384532428 -0.32362003256 0.55839985234 
0.71481479815 -0.24221235195 0.65602818606 0.66139202277 -0.17702711594 0.72884977357 0.6174744993 -0.13191730743 0.77545023484 
0.59077089218 -0.10534604433 0.79993247458 0.58341539377 -0.092027007822 0.8069433116 0.59435810871 -0.08500495664 0.79969531445 
0.62091724441 -0.077044595858 0.7800807047 0.65938963953 -0.061554961426 0.74927717835 0.70491350693 -0.033800304362 0.70848746437 
0.75124337089 0.0077126967531 0.65998023607 0.79187678473 0.05935952414 0.60778911202 0.82215222222 0.11379675304 0.55777775368 
0.84079324628 0.16201137088 0.51654528622 0.84984251689 0.19559772555 0.48939679836 0.85256107604 0.20906314173 0.47899082913 
0.85162058446 0.2001393575 0.48444464874 0.8480609784 0.16985139796 0.50193931857 0.84161688603 0.12213603893 0.52608345834 
0.8321944797 0.063599144084 0.5508243793 0.82022198285 0.0019350207374 0.57204209158 0.80635242006 -0.057068892227 0.58867556108 
0.79079284797 -0.11095388856 0.60194344104 0.77262408061 -0.16029012195 0.61429561846 0.74956086437 -0.20820773706 0.62833752779 
0.71876493313 -0.25967118452 0.64494018857 0.67671747924 -0.3202442737 0.66294574322 0.61972598437 -0.39495822765 0.67819444314 
0.5451125172 -0.48608620466 0.68306115775 0.45294124394 -0.59026228689 0.66815766269 0.34869954602 -0.69674719333 0.62685881599 
0.24253785009 -0.79144666802 0.56105932214 0.14586833666 -0.86448055665 0.48103616863 0.065350636839 -0.91404020688 0.40032461138 
0.0020979613647 -0.94427849848 0.3291408754 -0.04655580308 -0.96101979403 0.27253167279 -0.083949870966 -0.96907627582 0.23204221772 
-0.11288961135 -0.97163048097 0.20782238595 -0.13540648784 -0.97048156772 0.19957607513 -0.15220574184 -0.96628425113 0.20767320041 
-0.16403801768 -0.95844465429 0.23339960031 -0.17030613165 -0.94501840848 0.27917025121 -0.17030613165 -0.94501840848 0.27917025121 

FrenetNormal 3 120 double
-0.10375111309 -0.24406454463 0.96419303285 -0.10375111309 -0.24406454463 0.96419303285 -0.026163552021 -0.16401338893 0.98611108745 
0.022275114629 -0.098987629564 0.99483931791 0.023661478807 -0.031881314992 0.99921154726 -0.37140887466 0.3863084978 -0.8442873873 
-0.10740754345 0.13966624446 -0.9843561143 -0.030661719249 0.15642965162 -0.9872130586 0.069089250633 0.21209621218 -0.97480350442 
0.19608419267 0.28295301705 -0.93887623227 0.33533434453 0.33969923849 -0.87872367941 0.48113483149 0.33904622267 -0.80842868134 
0.66280050735 0.19801279936 -0.72214016558 0.84894632008 -0.27452044999 -0.45158461904 0.69733741785 -0.71587182186 0.035327897262 
0.578089025 -0.77946947989 0.24133049765 0.61955599105 -0.73521568061 0.27496959276 0.73990454021 -0.63395197964 0.22504701484 
0.87144279369 -0.47383055412 0.12677564158 0.96230446998 -0.27098068142 0.0232288042 0.99737117854 -0.056510532355 -0.045357380297 
0.98697904914 0.14762443686 -0.063870041422 0.94441760946 0.32666997101 -0.036906760692 0.88431157173 0.46639257328 0.021702803959 
0.82924285422 0.54800375184 0.10976418679 0.80433381683 0.53438957498 0.2597592987 0.77956364191 0.30147084813 0.54899531504 
0.54663628463 -0.18774971311 0.81605074447 0.27161147918 -0.44121945112 0.85530848255 0.1065972233 -0.45799166489 0.88254216153 
-0.036780032654 -0.36001456998 0.93222139999 -0.20144043181 -0.17066006891 0.96451899583 -0.379434529 0.085540674585 0.92125579032 
-0.51856719153 0.34781897233 0.78109540413 -0.58541093925 0.55715082523 0.58896263901 -0.59216978156 0.70121058828 0.39703735429 
-0.56189182686 0.79540402774 0.22717836071 -0.51024222135 0.85592901852 0.083895117962 -0.44029260017 0.89734304452 -0.030296644814 
-0.34437981016 0.93231548566 -0.11041006089 -0.15574918092 0.97757578031 -0.14173138817 0.92139431839 -0.33968747056 0.18879865566 
0.45877509094 -0.87408991928 0.15966286024 0.35163895476 -0.93234140439 0.084199472451 0.27871155333 -0.96026688997 -0.014400349513 
0.20357801975 -0.97133059451 -0.1227716011 0.11259440077 -0.96708998379 -0.2281654316 0.007888987135 -0.9465535914 -0.32245009303 
-0.1007166838 -0.90954484693 -0.40321746122 -0.19215472848 -0.85975761609 -0.47317375444 -0.25186991626 -0.80401347254 -0.5386314893 
-0.2719557488 -0.74727170381 -0.60632093101 -0.25967676822 -0.68704773057 -0.67862610616 -0.22514307965 -0.61865565374 -0.75271227955 
-0.17162403831 -0.54274807064 -0.82217377804 -0.096942254591 -0.46669825793 -0.87908755839 0.013428223666 -0.40307452325 -0.9150686376 
0.20896541831 -0.36280743993 -0.90813226761 0.5987147882 -0.32533307806 -0.73191460616 0.97425925833 -0.17481536899 -0.14233230249 
0.95601815372 -0.0098170737789 0.29314316439 0.91078441527 0.076628660214 0.40570900573 0.91622978776 0.12796606864 0.37966783021 
0.94863910021 0.15974494786 0.27306667535 0.97715173312 0.17837470828 0.11557228862 0.9796166891 0.19250260047 -0.057392431899 
0.9531177316 0.21051622338 -0.21736952272 0.90879731559 0.2424405756 -0.33957327116 0.86282502313 0.29626348161 -0.40958628995 
0.82534003884 0.37435673247 -0.42269475647 0.79994701591 0.48010209598 -0.35998159561 0.77131627646 0.60512259224 -0.19722537879 
0.69438529929 0.7144958328 0.085584817802 0.52085623558 0.74400445325 0.41852855983 0.2910066489 0.69692847799 0.65544322932 
0.07194830887 0.64366128575 0.76192098676 -0.12281175529 0.61271821565 0.78070074995 -0.29054513658 0.60014690697 0.74525647509 
-0.4292458367 0.58862087205 0.68503538643 -0.53139784824 0.57518162665 0.62191834131 -0.59100541843 0.57275081236 0.56803970137 
-0.58583591505 0.62570963035 0.51505702513 0.257635722 0.96321533311 -0.076420264373 0.79319777593 0.22589259692 -0.56551730559 
0.77098535398 0.23975817655 -0.58999796672 0.71886864492 0.34337152909 -0.6044202713 0.6371301529 0.46913806856 -0.61153466043 
0.53652360511 0.57525070665 -0.6174374832 0.42978796989 0.65287727437 -0.62372555307 0.32453626406 0.71130263321 -0.62347796857 
0.23363103583 0.75214551966 -0.61619287269 0.16829093367 0.77925732494 -0.60368550022 0.11713459027 0.81675227639 -0.5649736337 
-0.098134108667 -0.84701029653 0.52243971355 -0.10998863749 -0.87018343652 0.48029499937 -0.13241095763 -0.8977005916 0.4202392011 
-0.16182936088 -0.92229149868 0.3509838307 -0.19897193158 -0.93658890156 0.28846386242 -0.24183245242 -0.94013943086 0.24011438005 
-0.29825536202 -0.92863028365 0.22065705363 -0.37455151689 -0.89635214154 0.23720033633 -0.46129207076 -0.84508604432 0.27025766067 
-0.52632314694 -0.80932909058 0.26071127351 -0.58066614707 -0.78573947429 0.21316731499 -0.61728456577 -0.77895095781 0.11043174445 
-0.6487404713 -0.76064451826 -0.023573666091 -0.66733198815 -0.72143172277 -0.18494401035 -0.67695304287 -0.64979964535 -0.34568048637 
-0.67196434127 -0.55418404658 -0.49126771375 -0.65317904924 -0.44934687626 -0.60946247992 -0.63726401859 -0.34694459605 -0.68813081451 
-0.62568465212 -0.25799465494 -0.73617761044 -0.64837414879 -0.17847390595 -0.74010676802 -0.70239912084 -0.10762664397 -0.70359930398 
-0.84729738664 -0.015111311021 -0.53090374539 -0.99075291182 0.13437196902 -0.018784079994 -0.62276283529 0.25692587659 0.73902337238 
-0.2509997587 0.26937100329 0.92975178608 -0.047850931368 0.29090610784 0.95555425005 -0.047850931368 0.29090610784 0.95555425005 

FrenetBinormal 3 120 double
-0.68293582368 0.722249604 0.10933512818 -0.68293582368 0.722249604 0.10933512818 -0.68251069375 0.72368675794 0.10225766136 
-0.68257541024 0.72556082292 0.087477434701 -0.68398502718 0.72842919314 0.039438473153 0.57399633868 -0.61920697804 -0.53582732435 
0.67111868434 -0.72029477816 -0.17542845857 0.67417935078 -0.72594390788 -0.13596928182 0.67386372157 -0.7304445045 -0.1111688382 
0.66999203632 -0.73777887076 -0.08241971327 0.65750305151 -0.75239209002 -0.03994846849 0.61861291654 -0.78472432222 0.039061459351 
0.48589568161 -0.84752022671 0.21357633744 0.031828463259 -0.82638821847 0.56220055257 -0.52052324598 -0.47193076907 0.71157353773 
-0.67463671941 -0.29020630499 0.67870877213 -0.66387753152 -0.30388044499 0.68331786037 -0.56493009746 -0.40392716096 0.71951152432 
-0.39391019159 -0.52205169694 0.75650299846 -0.18926594347 -0.60588178973 0.77271318063 -0.0011313616752 -0.63801554166 0.77002265462 
0.14379117905 -0.63181456309 0.7616655793 0.23997676415 -0.60830935537 0.75655196837 0.29062535436 -0.58623450607 0.75621822729 
0.28826997503 -0.58764282042 0.75602667751 0.19489782294 -0.6502711325 0.73427671408 -0.098303796194 -0.80677925168 0.58261788739 
-0.51666877433 -0.84253990024 0.15224944707 -0.67188879248 -0.72322573533 -0.15971845948 -0.69540205856 -0.66874586955 -0.2630493089 
-0.69634039754 -0.65985921588 -0.28230456243 -0.69852496548 -0.66526599188 -0.26359824098 -0.70873472627 -0.66693733616 -0.2299775585 
-0.72915176205 -0.65700695416 -0.19151911156 -0.75861620638 -0.63270725784 -0.15550876915 -0.7922499024 -0.59664749292 -0.12787439668 
-0.82633307188 -0.55236099889 -0.10986801731 -0.85889589671 -0.50212903373 -0.10081801474 -0.89197297576 -0.44101530072 -0.099447046449 
-0.92850891635 -0.35562089161 -0.10679407146 -0.9756670668 -0.1746612631 -0.132541382 0.35783979044 0.93106546114 -0.071188422083 
0.87830446153 0.47331456767 0.067487723954 0.92982585784 0.35827855322 0.084025903139 0.95703762583 0.27646288309 0.087448596409 
0.97748283917 0.19453406802 0.081754483149 0.99285026117 0.10033931588 0.064655862786 0.99939377037 -0.0034715221099 0.034641597443 
0.99419838797 -0.10738915924 -0.0060937546328 0.98011106228 -0.192491399 -0.048263515286 0.96539265759 -0.24765603844 -0.081752695928 
0.95806377671 -0.26937538076 -0.097727703294 0.95875904863 -0.26749762972 -0.096052614579 0.96409544509 -0.25311290798 -0.080335724116 
0.97165232725 -0.23099278397 -0.050339732924 0.9794269092 -0.20179733282 -0.0008752132768 0.98334198999 -0.16057952221 0.08516306574 
0.96221362034 -0.089501058175 0.25716630693 0.78534157715 0.058852834866 0.61625883444 0.18364647801 0.24930406891 0.950853013 
-0.2773872224 0.29453465923 0.91449749226 -0.40966300684 0.29018547542 0.86485178538 -0.40065270915 0.29117447258 0.86873173832 
-0.31051130102 0.3049457052 0.90032818951 -0.16998730172 0.32945487584 0.92874313028 -0.015766168899 0.35851174399 0.93339207053 
0.12285857275 0.38725265289 0.91375114442 0.22084889536 0.41098947331 0.88448483212 0.26522488553 0.42445339818 0.86573383489 
0.25519849296 0.42046889128 0.87067769046 0.17970807822 0.38069367678 0.90707074205 0.028913893614 0.27624673851 0.96065171952 
-0.19606075831 0.073413258543 0.97783979901 -0.42433142717 -0.1997666837 0.88319653079 -0.5573328933 -0.43335195016 0.70822745875 
-0.59891060691 -0.58297291144 0.54904341308 -0.59562518216 -0.67473174343 0.4358528614 -0.57630186897 -0.73150103525 0.36439318221 
-0.55207591509 -0.7712707991 0.31678626617 -0.52931740866 -0.79864103112 0.28634871102 -0.51907401987 -0.8090453207 0.27569517761 
-0.55478467318 -0.77290987148 0.30793554029 -0.77022744242 0.25248218133 0.58566409746 -0.13257347729 0.97043634103 0.20168683923 
-0.14157457242 0.96777070994 0.20827024132 -0.22007538395 0.93718033469 0.2706655605 -0.31170838298 0.88247776859 0.35223695423 
-0.38441620525 0.81794079175 0.4280152361 -0.43383575087 0.7551342341 0.49148634748 -0.46769855336 0.69361290572 0.54786786747 
-0.48834747477 0.63877181603 0.59454798876 -0.49944555072 0.59539864904 0.62932868248 -0.50933201292 0.53778092359 0.67184267417 
0.51489035419 -0.492460958 -0.70169090632 0.51835805824 -0.46252706884 -0.71928689273 0.52359178321 -0.42333962233 -0.73934782661 
0.53034291352 -0.38122636363 -0.75723368504 0.53632645775 -0.35042472112 -0.76782579114 0.53973404527 -0.33597766606 -0.77188481542 
0.53450015026 -0.35402687878 -0.76744677892 0.51260432231 -0.41335204749 -0.75258015758 0.47472953991 -0.49242168507 -0.72948800402 
0.45426965109 -0.5268370707 -0.71838832468 0.45263702779 -0.52920419849 -0.71767864491 0.484664285 -0.48707638388 -0.72653776716 
0.53102555916 -0.43027911695 -0.72998064155 0.59119560818 -0.36211421133 -0.72066708737 0.64818454498 -0.30381535426 -0.69824997398 
0.69974232067 -0.25786084271 -0.66623454614 0.74302056365 -0.22530146908 -0.6302060695 0.76786969264 -0.21014268363 -0.60515798569 
0.78007327518 -0.20439392194 -0.59136182665 0.75989704591 -0.21115875631 -0.61479139491 0.70681531832 -0.2220533205 -0.67164308129 
0.51898273019 -0.23602088198 -0.82155405728 -0.0085878267832 -0.20027406386 -0.97970227548 -0.76746326501 -0.016847550473 -0.64087151357 
-0.95398671368 0.093931396567 -0.28475646236 -0.9842286878 0.14937819138 -0.094763104907 -0.9842286878 0.14937819138 -0.094763104907 

plain_curvature_peaks 1 120 unsigned_char
0 0 0 0 0 0 0 0 0 
0 0 0 0 0 0 0 0 0 
0 0 0 0 0 0 0 0 1 
0 0 0 0 0 0 0 0 0 
0 0 0 0 0 0 0 0 0 
0 0 0 0 0 0 0 0 0 
0 0 0 0 0 0 0 0 0 
0 0 0 0 0 0 1 0 0 
0 0 0 0 0 0 0 0 0 
0 0 0 0 0 0 0 0 0 
1 0 0 0 0 0 0 0 0 
0 0 0 0 0 0 0 0 0 
0 0 0 0 0 0 0 1 0 
0 0 0 
weighted_curvature_peaks 1 120 unsigned_char
0 0 0 0 0 0 0 0 0 
0 0 0 0 0 0 0 0 0 
0 0 0 0 0 0 0 0 0 
0 0 1 0 0 0 0 0 0 
0 0 0 0 0 0 0 0 0 
0 0 0 0 0 0 0 0 0 
0 0 0 0 0 0 0 0 0 
0 0 0 0 0 0 0 0 0 
0 0 0 1 0 0 0 0 0 
0 0 0 0 0 0 0 0 0 
0 0 0 0 1 0 0 0 0 
0 0 0 0 0 0 0 0 0 
0 0 0 0 0 0 0 0 0 
1 0 0 
plain_torsion_tp 1 120 unsigned_char
0 0 0 0 0 0 0 0 0 
0 0 0 0 0 0 0 0 0 
0 0 0 0 0 0 0 0 1 
0 0 0 0 0 0 0 0 0 
0 0 0 0 0 0 0 0 0 
0 0 0 0 0 0 0 0 0 
0 0 0 0 0 0 0 0 0 
0 0 0 0 0 0 1 0 0 
0 0 0 0 0 0 0 0 0 
0 0 0 0 0 0 0 0 0 
1 0 0 0 0 0 0 0 0 
0 0 0 0 0 0 0 0 0 
0 0 0 0 0 0 0 1 0 
0 0 0 
plain_torsion_tn 1 120 unsigned_char
0 0 0 0 0 0 0 0 0 
0 2 0 0 0 0 0 0 0 
0 0 0 0 0 0 0 0 0 
0 0 0 0 0 0 0 0 0 
0 0 0 0 0 0 0 0 0 
0 0 0 0 0 0 2 0 0 
0 0 0 0 0 0 0 0 0 
0 0 0 0 0 0 0 0 0 
0 0 0 0 0 0 0 0 2 
0 0 0 0 0 0 0 0 0 
0 0 0 0 0 0 0 0 0 
0 0 0 0 2 0 0 0 0 
0 0 0 0 0 0 0 0 0 
0 0 0 
plain_torsion_tz 1 120 unsigned_char
0 0 0 0 0 0 0 0 0 
0 0 3 0 0 0 0 0 0 
0 0 0 0 0 0 0 0 0 
0 0 0 0 0 0 0 0 0 
0 0 0 0 0 0 3 0 0 
0 0 0 0 0 0 0 0 0 
0 0 0 3 0 0 0 0 0 
0 0 0 0 0 0 0 0 0 
0 0 0 0 0 0 0 0 0 
3 0 0 0 0 0 0 0 0 
0 0 0 0 0 0 0 3 0 
0 0 0 0 0 0 0 0 0 
3 0 0 0 0 0 0 0 0 
0 0 0 
weighted_torsion_tp 1 120 unsigned_char
0 0 0 0 0 0 0 0 0 
0 0 0 0 0 0 0 0 0 
0 0 0 0 0 0 0 0 0 
0 0 1 0 0 0 0 0 0 
0 0 0 0 0 0 0 0 0 
0 0 0 0 0 0 0 0 0 
0 0 0 0 0 0 0 0 0 
0 0 0 0 0 0 0 0 0 
0 0 0 1 0 0 0 0 0 
0 0 0 0 0 0 0 0 0 
0 0 0 0 1 0 0 0 0 
0 0 0 0 0 0 0 0 0 
0 0 0 0 0 0 0 0 0 
1 0 0 
weighted_torsion_tn 1 120 unsigned_char
0 0 0 0 0 0 0 0 0 
0 0 2 0 0 0 0 0 0 
0 0 0 0 0 0 0 0 0 
0 0 0 0 0 0 0 0 0 
0 0 0 0 0 0 0 0 0 
0 0 0 0 0 0 0 0 0 
0 0 2 0 0 0 0 0 0 
0 0 0 0 0 0 0 0 0 
0 0 0 0 0 0 0 0 0 
0 0 0 0 2 0 0 0 0 
0 0 0 0 0 0 0 0 0 
0 0 0 0 0 0 0 0 0 
2 0 0 0 0 0 0 0 0 
0 0 0 
weighted_torsion_tz 1 120 unsigned_char
0 0 0 0 0 0 0 0 0 
0 0 0 0 3 0 0 0 0 
0 0 0 0 0 0 0 0 0 
0 0 0 0 0 0 0 0 0 
0 0 0 0 0 0 0 0 0 
0 3 0 0 0 0 0 0 0 
0 0 0 0 0 0 0 0 0 
3 0 0 0 0 0 0 0 0 
0 0 0 0 0 0 0 0 0 
0 0 0 0 0 3 0 0 0 
0 0 0 0 0 0 0 0 0 
0 0 0 3 0 0 0 0 0 
0 0 0 0 3 0 0 0 0 
0 0 0 
plain_torsion_tp_raw 1 120 unsigned_char
0 0 0 0 0 0 0 0 0 
0 0 0 0 0 0 0 0 0 
0 0 0 0 0 0 0 0 0 
0 0 0 0 0 0 1 0 0 
0 0 0 0 0 0 0 0 0 
0 0 0 0 0 0 0 0 1 
0 0 0 0 0 0 0 0 0 
0 0 0 0 0 0 0 0 0 
0 0 0 0 0 0 0 0 0 
1 0 0 0 0 0 0 0 0 
0 0 1 0 0 0 0 0 0 
0 0 0 0 0 0 0 0 0 
0 0 1 0 0 0 0 0 0 
1 0 0 
plain_torsion_tn_raw 1 120 unsigned_char
0 0 0 0 0 0 0 0 0 
0 0 0 0 0 0 0 0 0 
0 0 2 0 0 0 0 0 0 
0 0 0 0 0 0 0 0 0 
0 0 0 0 0 0 0 0 0 
2 0 0 0 0 0 0 0 0 
0 0 0 0 0 0 0 0 0 
0 0 0 0 0 0 0 0 0 
0 0 0 0 0 0 2 0 0 
0 2 0 0 0 0 0 0 0 
0 0 0 0 0 0 0 0 0 
0 0 0 0 0 2 0 0 0 
0 0 0 0 0 2 0 0 0 
0 0 0 
plain_torsion_tz_raw 1 120 unsigned_char
0 0 0 0 0 0 0 0 0 
0 3 0 0 0 0 0 0 0 
0 0 0 0 0 0 0 0 0 
3 0 0 0 0 0 0 0 3 
0 0 0 0 0 0 0 0 0 
0 0 0 0 0 3 0 0 0 
0 0 0 0 0 0 0 0 0 
0 0 0 0 0 0 0 0 0 
0 0 0 0 0 0 0 0 0 
0 0 0 0 0 0 0 0 0 
0 0 0 0 0 0 0 0 0 
0 0 0 0 0 0 0 0 0 
0 0 0 0 0 0 0 0 0 
0 0 0 
weighted_torsion_tp_raw 1 120 unsigned_char
0 0 0 0 0 0 0 0 0 
0 0 0 0 0 0 0 0 0 
0 0 0 0 0 0 0 0 0 
0 0 0 0 0 0 0 0 0 
1 0 0 0 0 0 0 0 0 
0 0 0 0 0 0 0 0 0 
0 0 0 0 0 1 0 0 0 
0 0 0 0 0 0 0 0 0 
0 0 0 0 0 0 0 0 0 
0 0 0 0 0 1 0 0 0 
0 0 0 0 0 0 0 1 0 
0 0 0 0 0 0 0 0 0 
0 0 0 0 0 0 1 0 0 
0 1 0 
weighted_torsion_tn_raw 1 120 unsigned_char
0 0 0 0 0 0 0 0 0 
0 0 0 0 0 0 0 0 0 
0 0 0 0 0 2 0 0 0 
0 0 0 0 0 0 0 0 0 
0 0 0 0 0 0 0 0 0 
0 0 0 0 2 0 0 0 0 
0 0 0 0 0 0 0 0 0 
0 0 0 0 0 0 0 0 0 
0 0 0 0 0 0 0 0 0 
0 0 0 2 0 0 2 0 0 
0 0 0 0 0 0 0 0 0 
0 0 0 0 0 0 0 0 0 
0 2 0 0 0 0 0 0 2 
0 0 0 
weighted_torsion_tz_raw 1 120 unsigned_char
0 0 0 0 0 0 0 0 0 
0 0 3 0 0 0 0 0 0 
0 0 0 0 0 0 0 0 0 
0 0 0 0 3 0 0 0 0 
0 0 3 0 0 0 0 0 0 
0 0 0 0 0 0 0 0 0 
3 0 0 0 0 0 0 0 0 
0 0 0 0 0 0 0 0 0 
0 0 0 0 0 0 0 0 0 
0 0 0 0 0 0 0 0 0 
0 0 0 0 0 0 0 0 0 
0 0 0 0 0 0 0 0 0 
0 0 0 0 0 0 0 0 0 
0 0 0 
