# vtk DataFile Version 5.1
vtk output
ASCII
DATASET POLYDATA
POINTS 120 float
0 0 0 -0.00822873 -0.566523 0.361089 -0.141268 -1.16716 0.666784 
-0.370479 -1.79455 0.910637 -0.667305 -2.44119 1.08644 -1.00344 -3.099 1.18883 
-1.35125 -3.7589 1.21402 -1.6844 -4.41055 1.16053 -1.97892 -5.04248 1.02949 
-2.21478 -5.64298 0.824609 -2.37756 -6.2017 0.55164 -2.45954 -6.71156 0.217734 
-2.45888 -7.16961 -0.169233 -2.37956 -7.5784 -0.60087 -2.23079 -7.94634 -1.06841 
-2.02528 -8.28648 -1.56312 -1.77744 -8.61475 -2.07675 -1.50129 -8.9474 -2.60206 
-1.20849 -9.29879 -3.13289 -0.907413 -9.67972 -3.66352 -0.603211 -10.0972 -4.1876 
-0.298508 -10.5543 -4.69699 0.00597554 -11.0497 -5.18019 0.310397 -11.5773 -5.62126 
0.614623 -12.1263 -5.99999 0.917462 -12.6823 -6.2938 1.21622 -13.2278 -6.4805 
1.50649 -13.7433 -6.54158 1.78177 -14.21 -6.46674 2.03271 -14.6133 -6.25952 
2.247 -14.947 -5.9386 2.41024 -15.2142 -5.53341 2.50706 -15.4237 -5.07715 
2.52236 -15.5867 -4.60226 2.44318 -15.7141 -4.13703 2.26276 -15.8122 -3.70115 
1.98293 -15.882 -3.30491 1.61687 -15.9177 -2.94866 1.19277 -15.9072 -2.62059 
0.748645 -15.8375 -2.30064 0.322424 -15.7016 -1.96741 -0.0542087 -15.5002 -1.60235 
-0.360509 -15.2425 -1.19285 -0.589407 -14.9455 -0.734093 -0.744296 -14.6309 -0.22754 
-0.833944 -14.3213 0.321665 -0.869717 -14.0383 0.905697 -0.862988 -13.8 1.5143 
-0.822949 -13.6195 2.1355 -0.755514 -13.5056 2.7565 -0.663108 -13.4634 3.36427 
-0.545623 -13.4955 3.94624 -0.402141 -13.6033 4.49119 -0.232771 -13.7883 4.99 
-0.0397346 -14.0517 5.43665 0.172919 -14.3948 5.82813 0.400146 -14.817 6.16422 
0.636843 -15.3139 6.44845 0.878996 -15.8757 6.68817 1.12444 -16.4881 6.89246 
1.37246 -17.1356 7.07004 1.62274 -17.8041 7.22812 1.87444 -18.4823 7.37207 
2.12546 -19.1627 7.50553 2.37202 -19.8415 7.63079 2.60866 -20.5182 7.74937 
2.82889 -21.1949 7.86285 3.02674 -21.8738 7.97369 3.19873 -22.5559 8.08577 
3.34574 -23.2393 8.20438 3.47406 -23.9189 8.33583 3.5955 -24.5868 8.48657 
3.72612 -25.2335 8.66213 3.88338 -25.8498 8.86606 4.08285 -26.4284 9.0997 
4.33674 -26.9642 9.36263 4.65296 -27.454 9.65339 5.03328 -27.8969 9.96945 
5.4719 -28.2932 10.3076 5.95723 -28.6434 10.6642 6.47582 -28.9465 11.0359 
7.01542 -29.2 11.4194 7.56668 -29.4008 11.8122 8.12365 -29.5472 12.2118 
8.68328 -29.6397 12.6165 9.24423 -29.682 13.0252 9.80583 -29.6802 13.4372 
10.3673 -29.642 13.8524 10.9271 -29.5741 14.2712 11.4834 -29.4819 14.694 
12.0339 -29.3682 15.1208 12.5768 -29.2345 15.5514 13.111 -29.0815 15.9849 
13.6367 -28.9103 16.4201 14.1553 -28.7236 16.8556 14.6697 -28.5257 17.2902 
15.1833 -28.3219 17.7231 15.6998 -28.1187 18.1541 16.2226 -27.9223 18.5841 
16.7536 -27.7389 19.0145 17.2933 -27.5741 19.4477 17.8399 -27.4339 19.8856 
18.3898 -27.3248 20.3298 18.9373 -27.2544 20.7816 19.4748 -27.2318 21.2411 
19.9931 -27.2674 21.708 20.4812 -27.3715 22.1807 20.928 -27.5528 22.6563 
21.3229 -27.8176 23.1307 21.6566 -28.1686 23.5981 21.9226 -28.6043 24.0512 
22.1182 -29.1186 24.4803 22.2455 -29.7011 24.8746 22.3107 -30.3387 25.223 
22.3235 -31.0174 25.5153 22.2961 -31.7225 25.7425 22.2419 -32.4393 25.8975 
22.1753 -33.1535 25.9742 22.1114 -33.8507 25.9674 22.0649 -34.5165 25.8722 

LINES 2 120
OFFSETS vtktypeint64
0 120 
CONNECTIVITY vtktypeint64
0 1 2 3 4 5 6 7 8 
9 10 11 12 13 14 15 16 17 
18 19 20 21 22 23 24 25 26 
27 28 29 30 31 32 33 34 35 
36 37 38 39 40 41 42 43 44 
45 46 47 48 49 50 51 52 53 
54 55 56 57 58 59 60 61 62 
63 64 65 66 67 68 69 70 71 
72 73 74 75 76 77 78 79 80 
81 82 83 84 85 86 87 88 89 
90 91 92 93 94 95 96 97 98 
99 100 101 102 103 104 105 106 107 
108 109 110 111 112 113 114 115 116 
117 118 119 
CELL_DATA 1
FIELD FieldData 2
Length 1 1 double
78.99484532 
Tortuosity 1 1 double
0.6303636961 
POINT_DATA 120
FIELD FieldData 19
Curvature 1 120 double
0 0.30642226545 0.2368396208 0.18378948043 0.1523794101 0.14069009996 0.14553740224 0.16464039814 0.19650499792 
0.23750335656 0.27745347807 0.30068205349 0.28851671431 0.2382088076 0.16851342557 0.099991014907 0.047855937283 0.032774204253 
0.048510991849 0.063077411967 0.072797405988 0.081039681792 0.093080820396 0.11478696999 0.1521572772 0.21291906681 0.30631588471 
0.42717948317 0.52475061654 0.53167707869 0.46111807324 0.3923403303 0.37407787195 0.41379349687 0.46932015176 0.47366190737 
0.39656237983 0.2765704046 0.20677398044 0.22705451785 0.28259374796 0.31287776049 0.29021557082 0.23869612918 0.19262141382 
0.16522305952 0.15635198776 0.16020714173 0.17259658961 0.19168257736 0.21842157141 0.25262224332 0.28974384276 0.31662826135 
0.318754569 0.29015161045 0.2352394535 0.17068441158 0.11458780694 0.073604206698 0.046448929716 0.029574193924 0.019704988637 
0.015483928026 0.019506377598 0.030689001248 0.04292538433 0.05068849985 0.050823645907 0.044937027632 0.044871656459 0.066291441941 
0.10345476145 0.14340119358 0.17685307322 0.19535863071 0.19150467845 0.16831478768 0.140232699 0.11974378191 0.11026030612 
0.10921477107 0.11128944862 0.11074374917 0.10404244688 0.091210758825 0.075204335831 0.060412483546 0.050199444189 0.045265561109 
0.043772935485 0.043021183087 0.040451231494 0.034365285947 0.024533922466 0.012308605781 0.006891000717 0.018305844863 0.030230390129 
0.040649413832 0.050741186813 0.062371544195 0.077413866358 0.097561897376 0.12375203988 0.15493002058 0.18782852395 0.21688704993 
0.23574439658 0.23891108243 0.22609910453 0.20391264388 0.18048218383 0.16112317973 0.1480504073 0.14302590335 0.14748449187 
0.16398915777 0.19526405677 0 
Torsion 1 120 double
0 0 0.21157683963 0.28376067323 0.33761101667 0.34282410689 0.2983145662 0.23045828307 0.16217506982 
0.10681957553 0.071949505202 0.055297760353 0.054882734425 0.074970538338 0.13493469903 0.31829437367 1.0511201762 1.516605064 
0.38150295025 0.059494162344 -0.074336272047 -0.15449056384 -0.18496923554 -0.16682589698 -0.12721519277 -0.088536138224 -0.052751364511 
-0.011206421562 0.045468003245 0.13538584921 0.2801902884 0.45073764595 0.51260520932 0.35952826275 0.14915454329 -0.032967777368 
-0.27888051858 -0.77257274783 -1.2716193621 -0.87778328999 -0.47375146625 -0.31723213667 -0.29615240049 -0.34765748875 -0.41841568278 
-0.43216887523 -0.34411304602 -0.21339478941 -0.092416548058 -0.0044056790075 0.036150458182 0.028310964789 -0.009003597465 -0.046792017593 
-0.069759778066 -0.076833477702 -0.070052092306 -0.046745470559 -0.0028364119622 0.056817337432 0.11182562445 0.095182601293 -0.16601755146 
-0.71341582554 -0.62184393742 -0.31330250727 -0.22124698797 -0.24783759401 -0.39084367459 -0.75621434817 -1.0839256018 -0.66133294089 
-0.32863028665 -0.18616161884 -0.11577182442 -0.069370861362 -0.026985001742 0.021751680893 0.073579268435 0.10626547575 0.09901135978 
0.06244061407 0.025630826781 0.005476856998 0.0029525767274 0.016797302764 0.050492967261 0.098723196542 0.12924591284 0.10546637765 
0.044166187368 -0.013246347957 -0.058133352648 -0.10958904916 -0.2235703559 -0.82826082121 -2.596697642 -0.45097023637 -0.24736875985 
-0.2050746803 -0.17939203058 -0.14793385468 -0.11494148458 -0.084356929211 -0.058892021141 -0.039999189894 -0.025488873558 -0.012970293187 
0.0020127088854 0.023732379751 0.053921350102 0.091305963177 0.13129653311 0.17066750172 0.20697241932 0.23419018521 0.24582312648 
0.2338657181 0 0 
FrenetTangent 3 120 double
-0.10451939149 -0.86353979775 0.49333022866 -0.10451939149 -0.86353979775 0.49333022866 -0.25999518243 -0.88138161341 0.3944223075 
-0.36509393237 -0.88423673456 0.29125902182 -0.42873416393 -0.88356146341 0.18843077524 -0.45899304805 -0.88430450363 0.085620830971 
-0.46070890366 -0.88734474519 -0.019147043315 -0.43567249907 -0.89094527692 -0.12808585828 -0.38346528 -0.89104945952 -0.24286877058 
-0.30298296351 -0.88107468476 -0.3631924059 -0.19533520465 -0.85280175282 -0.48432770747 -0.067229150567 -0.8001928748 -0.59596275423 
0.066927588005 -0.72541658651 -0.68504851943 0.18851324073 -0.64198409808 -0.74318179195 0.28430692838 -0.56823005147 -0.77219439203 
0.35091656978 -0.51737349462 -0.78050126721 0.39156254206 -0.49388444971 -0.77637421776 0.41199305754 -0.49533687724 -0.76478957798 
0.41830081934 -0.51580846753 -0.74764032085 0.41607676556 -0.54884600751 -0.72501598962 0.41017026916 -0.58915874865 -0.69616974883 
0.40490427184 -0.63308754731 -0.65973683244 0.40402011126 -0.67872899772 -0.61326560098 0.41019930638 -0.72558307536 -0.55250857894 
0.42481634605 -0.77332584538 -0.47063596229 0.44765729987 -0.81960864364 -0.35755365073 0.47558089324 -0.85662079553 -0.2000590579 
0.49892949898 -0.86655762671 0.012134027875 0.49870631224 -0.82452094876 0.2673148316 0.45654418777 -0.72315466384 0.51828055799 
0.37184860941 -0.59181217427 0.7151831668 0.25537020753 -0.46814726287 0.84594574139 0.11110226736 -0.36919191613 0.92268825464 
-0.064786554388 -0.29450724331 0.95345067309 -0.26915965201 -0.23381228417 0.9342830928 -0.47661860927 -0.17392283326 0.86173403633 
-0.64765911972 -0.10573915202 0.75455741755 -0.75570271048 -0.024037852831 0.65447352506 -0.7992064074 0.07382832779 0.59650523584 
-0.78591620835 0.18560156526 0.5898201187 -0.71926121155 0.30216467764 0.62558757752 -0.60430770322 0.40627370675 0.68538593146 
-0.46096908867 0.47775755526 0.74783368317 -0.3183756956 0.50732901717 0.80078348184 -0.19553207649 0.4991179831 0.84418507805 
-0.097606715168 0.46117576065 0.88192394623 -0.022307875739 0.40043063411 0.91605549283 0.035974695248 0.32219573687 0.94598928559 
0.083889598342 0.22980807953 0.96961372818 0.12798345326 0.12499552664 0.98386805722 0.17372883654 0.0083625237824 0.98475802081 
0.22397241766 -0.12011934489 0.96716477351 0.27727947729 -0.25949504722 0.92508292166 0.32726373804 -0.40491221807 0.8537824907 
0.36507110063 -0.54578602265 0.75421529351 0.38455266347 -0.66899560347 0.63605356029 0.38594599935 -0.76467834071 0.51605495913 
0.37566202842 -0.83061239558 0.41104876684 0.36207165956 -0.87189390389 0.32970461585 0.35099038201 -0.89612041365 0.27161361522 
0.34445580876 -0.90967813386 0.23202562053 0.34180035706 -0.91699499446 0.20565188072 0.34082921015 -0.92111937227 0.18808123656 
0.33841833372 -0.92439624207 0.17596766478 0.33105390109 -0.9287059834 0.16705840584 0.31569677982 -0.93521344788 0.16034759156 
0.2910978844 -0.94385713777 0.15619130952 0.25902136709 -0.95317033817 0.15612250901 0.22447945348 -0.96086236326 0.16233451214 
0.19487648123 -0.96472553192 0.17699662462 0.1785021635 -0.96304907305 0.20167662363 0.18295453479 -0.95416811728 0.23683505265 
0.21327330178 -0.93566716054 0.28114313692 0.26993386989 -0.90416107271 0.33110188838 0.34832583927 -0.85621668172 0.38152601963 
0.43938124292 -0.79047250777 0.4267286466 0.5305894437 -0.71049888338 0.46224039087 0.60991382393 -0.62500224268 0.4872138381 
0.67142107949 -0.54250224451 0.50486141536 0.7161661777 -0.46603329266 0.51953727109 0.74827754229 -0.39354144159 0.53404667723 
0.77154773129 -0.3213231102 0.5490587921 0.78827665852 -0.24696424079 0.56358546237 0.79944586026 -0.17100812802 0.57588413476 
0.80546451501 -0.096890235035 0.58467016121 0.80693058141 -0.029174887548 0.58992530266 0.80481216157 0.028667697813 0.59283686432 
0.80005638372 0.075737340906 0.59512489283 0.79327035157 0.11378321576 0.59814340181 0.78474442225 0.14596732298 0.60238669671 
0.77472910654 0.17525614298 0.60751962588 0.76372514974 0.20333951353 0.6126801269 0.75263095041 0.23024173413 0.61687551122 
0.74275605689 0.25450608296 0.61930613891 0.73558257416 0.27388218002 0.61960215304 0.73229821517 0.28614290382 0.61794948228 
0.73338243246 0.28970112297 0.61499875374 0.73839534878 0.28390741837 0.61169345811 0.74605394182 0.2689103108 0.60917219293 
0.75456036281 0.24537822759 0.60862811659 0.76210488005 0.21394319241 0.61108466044 0.76718942847 0.17447436847 0.6172350246 
0.76844606051 0.12574851174 0.62743761753 0.76412865242 0.06546772904 0.64173310574 0.7516178602 -0.0092956272463 0.65953330738 
0.7272113937 -0.10091352328 0.67895511611 0.68648869553 -0.20953350975 0.69629661725 0.62563555112 -0.33158526839 0.70613834831 
0.54351356789 -0.45933617702 0.70256905568 0.44381770669 -0.58223003526 0.68120043252 0.33542667788 -0.69035492291 0.64101405927 
0.22916027112 -0.77840984368 0.58443450053 0.13355065607 -0.84652573055 0.51532359716 0.053242597117 -0.89788384473 0.43700094648 
-0.0099012326473 -0.93615361085 0.35145182101 -0.055384220033 -0.96424030552 0.25917797241 -0.082989553433 -0.98374626617 0.15923573035 
-0.091944736136 -0.99454559821 0.049246508186 -0.080526538577 -0.99397525009 -0.074355085918 -0.080526538577 -0.99397525009 -0.074355085918 

FrenetNormal 3 120 double
-0.88063477993 -0.15013645361 -0.44937893773 -0.88063477993 -0.15013645361 -0.44937893773 -0.78219786704 -0.047267889407 -0.62123445125 
-0.62522893215 0.0010821859626 -0.78044065199 -0.40692757077 0.0026488469111 -0.91345658669 -0.14596627089 -0.02000326152 -0.9890873153 
0.11166663055 -0.036548806978 -0.99307338517 0.32737526234 -0.024289687734 -0.9445821556 0.49169763269 0.025634088961 -0.87038860947 
0.6104845825 0.11320140891 -0.78389668678 0.69214514226 0.22999885696 -0.6841312943 0.74210609919 0.35914969375 -0.56594172406 
0.76358395457 0.47917784964 -0.43281420117 0.76748850492 0.56844572254 -0.29636270909 0.77503179682 0.61033202476 -0.16376975746 
0.81730838568 0.57602142038 -0.014364051096 0.91353992529 0.30962245954 0.26377781833 0.52884929558 -0.55350869176 0.64338678158 
0.021465373417 -0.81726914381 0.57585621844 -0.11382580918 -0.82247283084 0.5572989572 -0.12371475907 -0.79222423253 0.5975578832 
-0.065264352194 -0.73969945692 0.66976509148 0.029596570095 -0.66036853027 0.75035821263 0.11968271868 -0.55775621254 0.82133066071 
0.17462695402 -0.44011329851 0.88079833753 0.18506253813 -0.30628212218 0.93377894526 0.14979780607 -0.14523924938 0.97799088837 
0.06583553917 0.051858793203 0.99648198546 -0.067446034218 0.27055370407 0.96033938047 -0.23849675045 0.46173972603 0.85435105515 
-0.43587766354 0.56890391037 0.69739443874 -0.65102712123 0.56361291608 0.5084330519 -0.84542737982 0.45293165796 0.28302907743 
-0.94839029838 0.31538619766 0.03297557062 -0.94482240621 0.25217753397 -0.20908637471 -0.86456105084 0.27033121328 -0.42362155812 
-0.73004887832 0.36959288426 -0.57483017942 -0.52504132755 0.61956851043 -0.58349504303 -0.12491454282 0.9503573983 -0.28498626719 
0.32558591884 0.93515563188 0.1395627229 0.59634944631 0.73047963794 0.33281652069 0.7697264941 0.51983480497 0.37053056531 
0.88542859857 0.30398591755 0.35158037312 0.94074827713 0.065057045086 0.33280664051 0.92033111411 -0.20395488709 0.33375596539 
0.8089113579 -0.47947036967 0.34025075998 0.64273246475 -0.69608904322 0.3199297152 0.49503476199 -0.82804942442 0.26320094061 
0.40252602566 -0.89793704087 0.17799401481 0.3663180047 -0.92783591688 0.070225570724 0.36200859769 -0.9304933705 -0.055963047156 
0.35786687621 -0.91291575773 -0.1962552374 0.32739198417 -0.87969464467 -0.34489392694 0.2606637221 -0.82979532131 -0.49345126276 
0.16598326538 -0.75899321659 -0.62958625523 0.059114443551 -0.66977691076 -0.74020562844 -0.043411737157 -0.57383076161 -0.81782252238 
-0.12501627558 -0.48489894108 -0.86558878677 -0.17110376237 -0.40985845927 -0.89595733485 -0.17153857294 -0.34669384159 -0.92215936703 
-0.12453181902 -0.2892409814 -0.9491214257 -0.051232058818 -0.23668787293 -0.97023405782 -0.055938036291 -0.2195748894 -0.97399065911 
-0.35261569887 -0.29795292398 -0.88706607646 -0.75549134228 -0.36694145764 -0.54275850837 -0.90157338088 -0.3483320673 -0.256573985 
-0.94809059926 -0.30645465897 -0.084910291425 -0.9655177163 -0.25114648518 0.068563711178 -0.94528453699 -0.17424108331 0.2758209365 
-0.78956059195 -0.047237347314 0.61185186496 -0.24339518517 0.15538018181 0.95740053423 0.36570809628 0.28966596354 0.88450620002 
0.63217891498 0.35156553928 0.69047193357 0.72971076649 0.41644398321 0.54230674541 0.756815998 0.49703514598 0.42448275446 
0.74237141362 0.58700081029 0.32297791405 0.69772731586 0.67574894881 0.23778130896 0.63007274822 0.75533768029 0.1802035535 
0.5451526821 0.8230429656 0.15940147419 0.44764656936 0.87783209168 0.17036245996 0.34655214589 0.91834548168 0.19116272246 
0.25429636788 0.94689078537 0.19680243359 0.17661386597 0.96819143984 0.17723678561 0.11043130357 0.98412520935 0.13893343553 
0.050209318641 0.99415477647 0.095578788132 -0.0072480900549 0.99821500552 0.059281261371 -0.067040233572 0.99683153818 0.042807611188 
-0.1369894737 0.98885437334 0.058317342423 -0.21710067943 0.97067063642 0.10327541131 -0.29280652802 0.94389563746 0.15272643104 
-0.34574450212 0.92187202627 0.17496487199 -0.37340442168 0.91335518479 0.16233127947 -0.3806373806 0.916602245 0.1222927183 
-0.36685293212 0.92844196043 0.058433315033 -0.31501333572 0.94801642685 -0.045071640175 -0.12717597984 0.94893618867 -0.28869773118 
0.67655639061 -0.22254160845 -0.70195917462 0.52145224886 -0.81554699485 -0.25093953722 0.39982978597 -0.91246275235 -0.086878465841 
0.29132957652 -0.95631227406 0.024370316566 0.18257359435 -0.97653784678 0.11419595639 0.077324854381 -0.9804331919 0.18102934326 
-0.020561207626 -0.97514389196 0.22061646971 -0.11337502129 -0.96572003201 0.23351857382 -0.20420945894 -0.9540529918 0.21927468098 
-0.29739628362 -0.93779599607 0.17914831912 -0.39461114788 -0.9116597199 0.11471092831 -0.49287326444 -0.86964004791 0.028321939731 
-0.58506352565 -0.80748244814 -0.075317772742 -0.6596762622 -0.72677253048 -0.19138682828 -0.70531409623 -0.63510524704 -0.31491800653 
-0.71420697465 -0.54240500547 -0.44238581285 -0.6829333043 -0.4554204585 -0.57113422928 -0.61115308997 -0.37538895926 -0.69683213896 
-0.49794617378 -0.30017587058 -0.81359944367 -0.34820749265 -0.22462700823 -0.91010672409 -0.17265232869 -0.14317740927 -0.97452111464 
0.0071701141746 -0.050115964656 -0.99871766759 0.16798488444 0.05999681277 -0.98396212379 0.16798488444 0.05999681277 -0.98396212379 

FrenetBinormal 3 120 double
0.46212344798 -0.48141257047 -0.74477100898 0.46212344798 -0.48141257047 -0.74477100898 0.56618813296 -0.47003425213 -0.67712539453 
0.68977909721 -0.46703771381 -0.55324548884 0.80659591422 -0.46830772361 -0.36068117109 0.87636706328 -0.46648195505 -0.11989727275 
0.88049864833 -0.45965583635 0.11592515862 0.83845984469 -0.45346060976 0.30225579272 0.78178501971 -0.45318181139 0.42829712675 
0.73178541824 -0.45923070553 0.50358441273 0.69482318605 -0.46885999636 0.54533571672 0.66690237581 -0.48031537618 0.56968268408 
0.64223067685 -0.494124847 0.58598668354 0.6127186572 -0.51451518767 0.59987496095 0.56435386451 -0.55191433045 0.61391798105 
0.45701702786 -0.63286964719 0.62498915664 0.11010713217 -0.81253435797 0.57241972062 -0.74201087802 -0.66952931691 0.033916820307 
-0.90805487845 -0.25692950666 -0.33079233111 -0.90217726104 -0.14935361588 -0.40468467613 -0.90357899969 -0.15897400505 -0.39783445934 
-0.91202691571 -0.22813344968 -0.34082551864 -0.91427118118 -0.3213103669 -0.24671411672 -0.90410871907 -0.40303499615 -0.14195145643 
-0.88827726474 -0.4563632559 -0.051923786481 -0.87484558572 -0.48418274744 0.014569428054 -0.86682376022 -0.49508218823 0.059246903852 
-0.86413832043 -0.49637540748 0.082924170288 -0.86414295496 -0.49695663621 0.079316171894 -0.85713867293 -0.51365723744 0.038334550784 
-0.81959701934 -0.57105752 -0.046411579817 -0.71480748774 -0.68057227471 -0.16084661751 -0.52240676838 -0.81151108574 -0.26180322014 
-0.31041672684 -0.90210699474 -0.2997405974 -0.18671824351 -0.93900921568 -0.28878710222 -0.15927614595 -0.94692760188 -0.2792117944 
-0.21809699656 -0.9231578043 -0.3165649514 -0.39146521907 -0.78457443402 -0.48083046882 -0.58793322355 -0.30227502958 -0.75030949023 
-0.52567054597 0.30172173131 -0.79538322459 -0.35641359043 0.61245081937 -0.7056014076 -0.20575063577 0.75147418502 -0.62685981298 
-0.059360728812 0.82422101424 -0.56314831399 0.11674585875 0.85929322657 -0.49798148082 0.33875927657 0.84218979036 -0.41947408687 
0.57977180356 0.74660905593 -0.32625078298 0.76576585027 0.59591555709 -0.24184150054 0.86812810444 0.45882900721 -0.18928691561 
0.91155654457 0.37536291402 -0.16783131061 0.92164600315 0.35142087256 -0.16453575661 0.9158428176 0.36621326525 -0.16468083618 
0.9065140126 0.39007199628 -0.16148121465 0.90328875791 0.39849674103 -0.15896467285 0.90826916151 0.38403882668 -0.16601599277 
0.91606366979 0.35503086435 -0.18649514271 0.92120829978 0.32224799822 -0.21801719212 0.92149937963 0.29323248844 -0.25466370188 
0.91828588753 0.2737810535 -0.28599818793 0.91631196426 0.26798705888 -0.29758245987 0.92053260112 0.27707685656 -0.27540542084 
0.93050632553 0.29803581572 -0.21291460891 0.93837508069 0.32109037815 -0.12787954097 0.93845958123 0.321443572 -0.126363145 
0.87243062779 0.2381504624 -0.42678935899 0.56536372922 0.053471142281 -0.82310673101 0.2958056492 -0.063565539385 -0.953130862 
0.12800873913 -0.12336630605 -0.98407038226 -0.026143276376 -0.16849851456 -0.98535515409 -0.23674061563 -0.21536843723 -0.94740187732 
-0.58190826485 -0.25898509818 -0.77091471008 -0.95336024747 -0.21998518584 -0.20666580884 -0.91257066933 -0.07521192411 0.4019427073 
-0.74489215206 0.030473534196 0.66648859369 -0.62821803791 0.095221654298 0.77218840537 -0.55308105633 0.1408866836 0.82112866684 
-0.505795223 0.1748807113 0.84474133864 -0.48130181273 0.19635349476 0.85427973765 -0.48063859535 0.19707152354 0.85448777362 
-0.50199829404 0.1682010448 0.84835495007 -0.53546106755 0.11056124528 0.83729185842 -0.56566980642 0.042032249862 0.82355993108 
-0.58313588093 -0.012218814566 0.81228273707 -0.58942976849 -0.040174613819 0.80682002233 -0.59050084141 -0.047474124178 0.80563947509 
-0.59051328467 -0.047629431805 0.80562118756 -0.59060181338 -0.052111694424 0.80527875256 -0.58973128769 -0.074196007946 0.80418403412 
-0.58407505251 -0.12818300794 0.80151447243 -0.5688492281 -0.21178266077 0.79470665046 -0.5462971068 -0.29623397208 0.78345702172 
-0.52939167988 -0.34559694953 0.77479493916 -0.52658620712 -0.35275394918 0.77348019872 -0.53727259094 -0.32684716355 0.77750182939 
-0.5601181716 -0.2705959716 0.78297219235 -0.59973733826 -0.16202902795 0.78362090273 -0.66900343363 0.13282450236 0.73129478144 
-0.066495549313 0.93088586403 -0.35920725225 0.42762116535 0.50426151646 -0.75024026949 0.53248442056 0.30838120942 -0.78826478517 
0.58801848331 0.15892249655 -0.79308127161 0.62117874597 0.02453862726 -0.78328463621 0.63674268566 -0.091156189995 -0.76566918528 
0.63958415305 -0.18243273216 -0.74675994095 0.63502244613 -0.25119473766 -0.73051194151 0.6271914294 -0.29949370637 -0.71898152322 
0.61864290133 -0.3321974271 -0.7119872401 0.61074979564 -0.35351416294 -0.70852835069 0.60469504907 -0.36575592525 -0.70750724432 
0.60190835886 -0.37011129734 -0.70761850958 0.60650892188 -0.36443089192 -0.70663785116 0.62451658859 -0.34648435115 -0.69994830165 
0.66135766988 -0.31602994369 -0.6802434176 0.71816872958 -0.27565629596 -0.63894231536 0.78971965056 -0.22997332592 -0.56873116926 
0.86715141331 -0.18305972691 -0.46318199746 0.93577995823 -0.14065326299 -0.32331490745 0.98148046716 -0.10836749177 -0.15796385443 
0.99573829642 -0.091473729334 0.011738904637 0.98249506624 -0.091725594435 0.16214148186 0.98249506624 -0.091725594435 0.16214148186 

plain_curvature_peaks 1 120 unsigned_char
0 0 0 0 0 0 0 0 0 
0 0 0 0 0 0 1 0 0 
0 0 0 0 0 0 0 0 0 
0 0 0 0 0 0 0 0 0 
0 0 0 0 0 0 0 1 0 
0 0 0 0 0 0 0 0 0 
0 0 0 0 0 0 0 0 0 
0 0 0 0 0 0 0 0 0 
0 0 1 0 0 0 0 0 0 
0 0 0 0 0 0 0 0 0 
0 0 0 0 0 0 0 0 0 
0 0 0 0 0 0 0 0 0 
0 0 0 0 0 0 0 1 0 
0 0 0 
weighted_curvature_peaks 1 120 unsigned_char
0 0 0 0 0 0 0 0 0 
0 0 0 0 0 0 0 0 1 
0 0 0 0 0 0 0 0 0 
0 0 0 0 0 0 0 0 0 
0 0 0 0 0 0 0 0 0 
0 0 1 0 0 0 0 0 0 
0 0 0 0 0 0 0 0 0 
0 0 0 0 0 0 0 0 0 
0 0 0 0 0 0 0 1 0 
0 0 0 0 0 0 0 0 0 
0 0 0 0 0 0 0 0 0 
0 0 0 0 0 0 0 0 0 
0 0 0 0 0 0 0 0 0 
1 0 0 
plain_torsion_tp 1 120 unsigned_char
0 0 0 0 0 0 0 0 0 
0 0 0 0 0 0 1 0 0 
0 0 0 0 0 0 0 0 0 
0 0 0 0 0 0 0 0 0 
0 0 0 0 0 0 0 1 0 
0 0 0 0 0 0 0 0 0 
0 0 0 0 0 0 0 0 0 
0 0 0 0 0 0 0 0 0 
0 0 1 0 0 0 0 0 0 
0 0 0 0 0 0 0 0 0 
0 0 0 0 0 0 0 0 0 
0 0 0 0 0 0 0 0 0 
0 0 0 0 0 0 0 1 0 
0 0 0 
plain_torsion_tn 1 120 unsigned_char
0 0 0 0 0 2 0 0 0 
0 0 0 0 0 0 0 0 0 
0 0 0 0 0 0 0 2 0 
0 0 0 0 0 0 0 0 0 
0 0 0 0 0 0 0 0 0 
0 0 0 0 0 0 0 0 0 
0 2 0 0 0 0 0 0 0 
0 0 0 0 0 0 0 0 0 
0 0 0 0 0 0 0 0 0 
0 0 0 0 0 0 0 0 0 
0 2 0 0 0 0 0 0 0 
0 0 0 0 0 0 0 0 0 
0 0 0 0 0 0 0 0 0 
0 0 0 
plain_torsion_tz 1 120 unsigned_char
0 0 0 0 0 3 0 0 0 
0 0 0 0 0 0 0 0 0 
0 0 0 0 0 3 0 0 0 
0 0 0 0 3 0 0 0 0 
0 0 0 0 0 0 0 0 0 
0 0 0 0 0 0 0 0 0 
0 0 0 0 0 0 0 0 3 
0 0 0 0 0 0 0 0 0 
0 0 0 0 0 0 0 0 0 
0 3 0 0 0 0 0 0 0 
0 0 0 0 0 0 0 0 3 
0 0 0 0 0 0 0 0 0 
0 0 0 0 0 0 0 0 0 
0 0 0 
weighted_torsion_tp 1 120 unsigned_char
0 0 0 0 0 0 0 0 0 
0 0 0 0 0 0 0 0 1 
0 0 0 0 0 0 0 0 0 
0 0 0 0 0 0 0 0 0 
0 0 0 0 0 0 0 0 0 
0 0 1 0 0 0 0 0 0 
0 0 0 0 0 0 0 0 0 
0 0 0 0 0 0 0 0 0 
0 0 0 0 0 0 0 1 0 
0 0 0 0 0 0 0 0 0 
0 0 0 0 0 0 0 0 0 
0 0 0 0 0 0 0 0 0 
0 0 0 0 0 0 0 0 0 
1 0 0 
weighted_torsion_tn 1 120 unsigned_char
0 0 2 0 0 0 0 0 0 
0 0 0 0 0 0 0 0 0 
0 0 0 0 0 0 0 0 0 
0 2 0 0 0 0 0 0 0 
0 0 0 0 0 0 0 0 0 
0 0 0 0 0 0 0 0 0 
0 0 0 0 0 0 0 2 0 
0 0 0 0 0 0 0 0 0 
0 0 0 0 0 0 0 0 0 
0 0 0 0 0 0 0 0 0 
0 0 0 0 0 2 0 0 0 
0 0 0 0 0 0 0 0 0 
0 0 0 0 0 0 0 0 0 
0 0 0 
weighted_torsion_tz 1 120 unsigned_char
0 0 0 3 0 0 0 0 0 
0 0 0 0 0 0 0 0 0 
0 0 0 0 0 0 0 3 0 
0 0 0 0 0 0 0 3 0 
0 0 0 0 0 0 0 0 0 
0 0 0 0 0 0 0 0 0 
0 0 0 0 0 0 0 0 0 
0 0 0 3 0 0 0 0 0 
0 0 0 0 0 0 0 0 0 
0 0 0 0 0 0 0 3 0 
0 0 0 0 0 0 0 0 0 
0 0 0 3 0 0 0 0 0 
0 0 0 0 0 0 0 0 0 
0 0 0 
plain_torsion_tp_raw 1 120 unsigned_char
0 0 0 0 0 0 0 0 0 
0 0 0 0 0 0 0 0 0 
0 1 0 0 0 0 0 0 0 
1 0 0 0 0 0 0 0 0 
0 0 0 0 0 0 0 0 0 
0 0 0 0 0 0 0 0 0 
0 0 0 0 0 1 0 0 0 
0 0 0 0 0 0 0 0 0 
0 0 0 0 0 1 0 0 0 
0 0 0 0 0 0 0 0 0 
0 0 0 0 0 0 0 0 0 
0 0 0 0 1 0 0 0 0 
0 0 0 0 0 0 0 0 0 
0 1 0 
plain_torsion_tn_raw 1 120 unsigned_char
0 0 0 0 0 0 0 0 0 
0 2 0 0 0 0 0 0 0 
0 0 0 0 0 2 0 0 0 
0 0 0 0 0 0 0 0 0 
0 0 0 0 0 0 0 0 0 
0 0 0 0 0 0 2 0 0 
0 0 0 0 0 0 0 0 0 
0 0 0 2 0 0 0 0 0 
0 0 0 0 0 0 0 0 0 
0 0 0 0 0 0 0 0 0 
0 0 2 0 0 0 0 0 0 
0 0 0 0 0 0 0 0 2 
0 0 0 0 0 0 0 0 0 
0 0 0 
plain_torsion_tz_raw 1 120 unsigned_char
0 0 0 0 0 3 0 0 0 
0 0 0 0 0 0 0 3 0 
0 0 3 0 0 0 3 0 0 
0 0 0 0 0 0 0 0 0 
0 0 0 0 0 0 0 0 0 
0 0 0 0 0 0 0 0 0 
0 0 0 0 0 0 0 0 0 
0 0 0 0 0 0 0 0 0 
0 0 0 0 0 0 0 0 0 
0 0 0 0 0 0 0 0 0 
0 0 0 0 0 0 0 0 0 
0 0 0 0 0 0 0 0 0 
0 0 0 0 0 0 0 0 0 
0 0 0 
weighted_torsion_tp_raw 1 120 unsigned_char
0 0 0 0 0 0 0 0 0 
0 0 0 0 0 0 0 0 0 
0 0 0 0 0 1 0 0 0 
0 0 0 1 0 0 0 0 0 
0 0 0 0 0 0 0 0 0 
0 0 0 0 0 0 0 0 0 
0 0 0 0 0 0 0 0 0 
0 0 1 0 0 0 0 0 0 
0 0 0 0 0 0 0 0 0 
0 1 0 0 0 0 0 0 0 
0 0 0 0 0 0 0 0 0 
0 0 0 0 0 0 0 0 1 
0 0 0 0 0 0 0 0 0 
0 1 0 
weighted_torsion_tn_raw 1 120 unsigned_char
0 0 0 0 0 0 0 0 0 
0 0 2 0 0 0 0 0 0 
0 0 0 0 0 0 0 2 0 
0 0 0 0 0 0 0 0 0 
0 0 0 0 0 0 0 0 0 
0 0 0 0 0 0 0 0 0 
0 2 0 0 0 0 0 0 0 
0 0 0 0 0 0 0 0 2 
0 0 0 0 0 0 0 0 0 
0 0 0 0 0 0 0 0 0 
0 0 0 0 0 0 0 2 0 
0 0 0 0 0 0 0 0 0 
0 0 0 0 2 0 0 0 0 
0 0 0 
weighted_torsion_tz_raw 1 120 unsigned_char
0 0 3 0 0 0 0 0 0 
0 0 0 0 0 0 0 0 0 
0 3 0 0 0 0 3 0 0 
3 0 0 0 0 0 0 0 0 
0 0 0 0 0 0 0 0 0 
0 0 0 0 0 0 0 0 0 
0 0 0 0 0 0 0 0 0 
0 0 0 0 0 0 0 0 0 
0 0 0 0 0 0 0 0 0 
0 0 0 0 0 0 0 0 0 
0 0 0 0 0 0 0 0 0 
0 0 0 0 0 0 0 0 0 
0 0 0 0 0 0 0 0 0 
0 0 0 
