# vtk DataFile Version 5.1
vtk output
ASCII
DATASET POLYDATA
POINTS 120 float
-4.44584 22.8736 -6.67631 -5.03047 22.0539 -6.79826 -5.53899 21.3067 -6.71808 
-5.97928 20.6261 -6.48653 -6.35923 20.0061 -6.15451 -6.68692 19.44 -5.77313 
-6.97052 18.9203 -5.39304 -7.21813 18.4385 -5.06245 -7.43718 17.9847 -4.82354 
-7.63363 17.5479 -4.70801 -7.81105 17.1167 -4.73309 -7.96996 16.6788 -4.89939 
-8.10763 16.2229 -5.19239 -8.21811 15.739 -5.58634 -8.29294 15.2208 -6.04971 
-8.32262 14.6662 -6.5513 -8.29856 14.078 -7.06515 -8.21489 13.4634 -7.57333 
-8.0695 12.8324 -8.06673 -7.86399 12.1969 -8.54431 -7.60265 11.5685 -9.01135 
-7.29096 10.9571 -9.47684 -6.93406 10.3699 -9.95054 -6.53593 9.8098 -10.4401 
-6.09897 9.27545 -10.9487 -5.62469 8.76116 -11.4731 -5.1151 8.25827 -12.003 
-4.57456 7.7564 -12.5212 -4.01189 7.24551 -13.0049 -3.44174 6.71832 -13.4276 
-2.88489 6.17177 -13.7617 -2.36711 5.60917 -13.9816 -1.91685 5.0401 -14.0668 
-1.56196 4.48053 -14.0049 -1.3264 3.95127 -13.7943 -1.22744 3.47531 -13.4449 
-1.27368 3.07517 -12.9781 -1.46408 2.77041 -12.4241 -1.78763 2.57596 -11.8183 
-2.22354 2.50167 -11.196 -2.74251 2.55269 -10.5887 -3.30893 2.73039 -10.0204 
-3.88407 3.03373 -9.50607 -4.43001 3.45921 -9.05231 -4.91358 4.00086 -8.65813 
-5.30959 4.64876 -8.31672 -5.60283 5.38719 -8.0168 -5.78864 6.19339 -7.74363 
-5.87206 7.03652 -7.48017 -5.8662 7.87759 -7.20841 -5.78973 8.67172 -6.91122 
-5.66395 9.37085 -6.57468 -5.50953 9.92884 -6.19054 -5.34362 10.3066 -5.75827 
-5.17765 10.4775 -5.28587 -5.01652 10.4306 -4.78919 -4.85919 10.1731 -4.2899 
-4.70056 9.72848 -3.81262 -4.53428 9.13319 -3.38223 -4.3557 8.43073 -3.02181 
-4.16433 7.66554 -2.75138 -3.9651 6.87659 -2.58672 -3.76833 6.09357 -2.53783 
-3.58829 5.33423 -2.60687 -3.44094 4.60423 -2.78597 -3.34137 3.89938 -3.05625 
-3.30125 3.20885 -3.38862 -3.32689 2.51905 -3.7464 -3.41786 1.81757 -4.08953 
-3.56642 1.09632 -4.37951 -3.75766 0.353342 -4.5838 -3.97042 -0.406252 -4.6791 
-4.17897 -1.17111 -4.65287 -4.35557 -1.92518 -4.50295 -4.47348 -2.65002 -4.23598 
-4.51008 -3.32755 -3.86517 -4.44948 -3.94272 -3.40794 -4.28404 -4.48529 -2.88373 
-4.01458 -4.95066 -2.31208 -3.64938 -5.34 -1.71094 -3.20227 -5.65856 -1.09527 
-2.69021 -5.91434 -0.476259 -2.13078 -6.11612 0.138737 -1.54012 -6.27227 0.745616 
-0.931583 -6.3899 1.34242 -0.314993 -6.47433 1.92819 0.303578 -6.52866 2.50189 
0.921757 -6.55361 3.0615 1.54043 -6.54835 3.60377 2.16298 -6.51164 4.12467 
2.79425 -6.44277 4.6204 3.43926 -6.3435 5.08857 4.10205 -6.21974 5.52987 
4.78452 -6.08133 5.94829 5.48576 -5.94205 6.3511 6.20175 -5.81798 6.74808 
6.92559 -5.72527 7.14986 7.64763 -5.67868 7.56645 8.35622 -5.69022 8.00618 
9.03895 -5.76855 8.47428 9.68295 -5.91887 8.97285 10.2762 -6.14299 9.50117 
10.8085 -6.43957 10.0556 11.2713 -6.80488 10.6302 11.6596 -7.23334 11.2175 
11.9708 -7.71815 11.8091 12.2051 -8.25207 12.3957 12.3641 -8.82773 12.9682 
12.4508 -9.43795 13.5189 12.4684 -10.0764 14.0414 12.4207 -10.7375 14.5311 
12.313 -11.4166 14.986 12.1523 -12.1104 15.4054 11.9479 -12.8163 15.7903 
11.7105 -13.5328 16.1421 11.451 -14.2584 16.4616 11.1795 -14.992 16.7483 
10.9038 -15.7316 17 10.6289 -16.4754 17.2118 10.3579 -17.2212 17.3765 

LINES 2 120
OFFSETS vtktypeint64
0 120 
CONNECTIVITY vtktypeint64
0 1 2 3 4 5 6 7 8 
9 10 11 12 13 14 15 16 17 
18 19 20 21 22 23 24 25 26 
27 28 29 30 31 32 33 34 35 
36 37 38 39 40 41 42 43 44 
45 46 47 48 49 50 51 52 53 
54 55 56 57 58 59 60 61 62 
63 64 65 66 67 68 69 70 71 
72 73 74 75 76 77 78 79 80 
81 82 83 84 85 86 87 88 89 
90 91 92 93 94 95 96 97 98 
99 100 101 102 103 104 105 106 107 
108 109 110 111 112 113 114 115 116 
117 118 119 
CELL_DATA 1
FIELD FieldData 2
Length 1 1 double
93.317768229 
Tortuosity 1 1 double
0.90274524238 
POINT_DATA 120
FIELD FieldData 19
Curvature 1 120 double
0 0.22073937087 0.22008304088 0.18571949165 0.13136913575 0.065686960481 0.046472288868 0.18072992929 0.39875749645 
0.62001793399 0.61843176544 0.41077058263 0.22203771658 0.12318664449 0.093756468241 0.094929257903 0.099385340393 0.098790312594 
0.092784756551 0.084322011772 0.077634017933 0.07460524401 0.072600594165 0.066971646337 0.055963849302 0.043350554375 0.038989880474 
0.05171784061 0.077109709221 0.11290826361 0.16282703485 0.23586015294 0.33941465997 0.46482391429 0.56027421911 0.55902061306 
0.47321916304 0.37134280722 0.29262628443 0.24172539345 0.21304154613 0.20227603756 0.20461474231 0.21322113324 0.2158703186 
0.20242813439 0.17385161152 0.14035667059 0.11457672503 0.10962312384 0.14002607535 0.22294281008 0.389255987 0.64953016108 
0.82540164775 0.68328429573 0.43187931017 0.26925488905 0.19053351207 0.16026025726 0.15757978982 0.17054164683 0.18841785448 
0.19643001467 0.18239920037 0.14928207723 0.11718110167 0.11046749022 0.12997223147 0.15678396078 0.178940321 0.19426085075 
0.2061238032 0.21890871534 0.23339398373 0.24463919912 0.24462873611 0.22840854273 0.19821282311 0.16234098754 0.12765982375 
0.098418782137 0.075540297458 0.058955748067 0.048194580038 0.043122476958 0.043411945855 0.047909740936 0.055163551855 0.06293123017 
0.066834233151 0.062427713803 0.050267609361 0.034520928083 0.030434217847 0.04684929399 0.069693455293 0.092035827453 0.11125604179 
0.12694835431 0.13842510723 0.14500302401 0.14758354824 0.14579333413 0.14080407018 0.1343369299 0.12764517857 0.12188697291 
0.11727677829 0.11262322692 0.1058183271 0.096060093763 0.083037896742 0.069361001904 0.057910985754 0.051360912541 0.051433692917 
0.058078440217 0.069314803411 0 
Torsion 1 120 double
0 0 -0.019936015364 -0.042971105918 -0.12612178092 -0.7679130829 -2.4472139675 -0.24157316259 -0.040602261928 
0.025482257652 0.082412840874 0.19637739183 0.43849214139 0.76775943851 0.66059315005 0.28184580495 0.061146250382 -0.063744452601 
-0.16312676249 -0.25432977931 -0.30066148675 -0.25703103383 -0.14535890466 -0.0050145804084 0.18402267443 0.50368039354 0.75323026913 
0.48145193779 0.2567615917 0.15413809015 0.10569040768 0.076806039052 0.057348295716 0.045797645841 0.040314086746 0.038162895764 
0.032965460071 0.014641426716 -0.0228720264 -0.076709817628 -0.13700463468 -0.18263788911 -0.19600235555 -0.18129850702 -0.16179824961 
-0.15801524675 -0.18483721414 -0.26321229585 -0.40756840473 -0.52063933452 -0.42508788382 -0.2431769821 -0.10274856238 -0.016671340981 
0.03139593495 0.077337336922 0.13471269722 0.1739781714 0.16444002225 0.1001064772 0.01046719449 -0.068898153933 -0.13027333336 
-0.1896269156 -0.2803484057 -0.45471866651 -0.71960408866 -0.74746770307 -0.49695184403 -0.32627157781 -0.25348412839 -0.22741585681 
-0.21443539249 -0.19523656357 -0.16539542443 -0.13192791138 -0.10265640331 -0.080189618938 -0.061172663082 -0.041164369593 -0.017528308786 
0.01336813223 0.048607621948 0.079546289198 0.084340100592 0.03467010289 -0.055143488861 -0.12484555515 -0.14519725111 -0.14243923642 
-0.15209352249 -0.19854469596 -0.34423201436 -0.81198125142 -1.1055982052 -0.48187918908 -0.22389200595 -0.12481387436 -0.079056951644 
-0.055282471366 -0.037627932317 -0.023389603137 -0.0099819381408 0.0044375569173 0.019706325517 0.033145421969 0.037804622002 0.037526662405 
0.033822385226 0.029306308861 0.035955250455 0.056276404976 0.093611342194 0.15429752168 0.22759443454 0.25447983372 0.18683872134 
0.085554194675 0 0 
FrenetTangent 3 120 double
-0.57202689145 -0.81994361235 -0.0218565329 -0.57202689145 -0.81994361235 -0.0218565329 -0.54454262133 -0.81943031889 0.17890580215 
-0.50085145197 -0.79418435049 0.34412067723 -0.45519834344 -0.76302155165 0.45890367164 -0.4186129608 -0.74353177015 0.52146303399 
-0.39702717819 -0.74849016228 0.53116089535 -0.39195240393 -0.78586002627 0.47832764102 -0.39772257463 -0.85247098902 0.33927859718 
-0.393778242 -0.91425627516 0.095258382584 -0.35352614987 -0.91353777064 -0.20116660501 -0.2830665164 -0.85305211014 -0.43837819823 
-0.20848158917 -0.78958052206 -0.57714645123 -0.13915243594 -0.75247897646 -0.64374838995 -0.072240868839 -0.74156397858 -0.66698135096 
-0.0036781121801 -0.74751766043 -0.66423175085 0.06809915442 -0.76027468372 -0.64602237613 0.14186857792 -0.77142117155 -0.6203085383 
0.21475248042 -0.77508482556 -0.59424311972 0.28369636758 -0.76811003707 -0.57404123717 0.34649279842 -0.74966061295 -0.56387206531 
0.40203017912 -0.72072054063 -0.56474209812 0.45006514473 -0.68390578454 -0.57420749157 0.49110326934 -0.64360761178 -0.58701517944 
0.52636015226 -0.60573041727 -0.59668723105 0.55753211103 -0.57640789104 -0.59742103103 0.586056073 -0.56073323573 -0.58490727269 
0.6122756404 -0.56207840096 -0.5560453321 0.63501320905 -0.58190946935 -0.5080743979 0.65113229567 -0.62036191303 -0.4372388711 
0.65497454085 -0.67600885168 -0.33766904402 0.63680480167 -0.74444440086 -0.20070420671 0.58066686741 -0.81396712741 -0.016837594681 
0.46556868496 -0.85854110293 0.21483243275 0.2791552421 -0.83884918646 0.46733755807 0.043985704907 -0.73095330931 0.68100845617 
-0.18738611926 -0.55817090894 0.80828935334 -0.37700309167 -0.36619429327 0.85074697087 -0.51707477428 -0.18297687745 0.8361537778 
-0.6132894603 -0.014947685608 0.78971678758 -0.6715012042 0.14150459494 0.72736688292 -0.69386886389 0.29239023732 0.65806834664 
-0.67911952657 0.44149577517 0.58641124575 -0.62489737504 0.58702985435 0.5146836123 -0.53236597501 0.71997983317 0.44521400301 
-0.41129769418 0.82726817492 0.38270298344 -0.27920781207 0.90026281718 0.3340207444 -0.15338876123 0.93968013361 0.30573376396 
-0.043847634531 0.95211771503 0.30257105226 0.047498069639 0.94339662563 0.32824798572 0.12372296975 0.91345901025 0.3876664331 
0.18985382779 0.85177465935 0.48829852935 0.24977353317 0.72963848466 0.63658531543 0.29930187214 0.49476599547 0.81585844303 
0.31748624451 0.12039916498 0.94058839331 0.2924204473 -0.27949642286 0.91453377828 0.25406675014 -0.56461774382 0.78527504089 
0.22912725624 -0.733334194 0.6400950401 0.22129385994 -0.83277154679 0.50746485437 0.22561348882 -0.89503747519 0.38471609229 
0.2352352475 -0.93595146427 0.26202907255 0.2421861893 -0.96139892849 0.13060608717 0.2373084438 -0.97135141981 -0.012693373638 
0.21190804474 -0.96400146493 -0.1606118183 0.16205242281 -0.94167857002 -0.29492453784 0.091519071379 -0.91418556242 -0.39482783215 
0.0093780013426 -0.89439190655 -0.44718583452 -0.074643173178 -0.89057771436 -0.44866438613 -0.15202603853 -0.90300485202 -0.401833698 
-0.21474959475 -0.92537036508 -0.3123656495 -0.25496794802 -0.94828367215 -0.18907517716 -0.26612611031 -0.96295011382 -0.043634524286 
-0.24424905529 -0.96325678183 0.11170842071 -0.18824358816 -0.94528289813 0.26646687226 -0.099793453296 -0.90573980748 0.41191827808 
0.015631081918 -0.84195970234 0.53931394282 0.14730168206 -0.75447458046 0.63958605512 0.28037306399 -0.64981093369 0.70649606895 
0.40069454443 -0.53962351162 0.74043929378 0.49979347168 -0.43554701882 0.74866900568 0.57586172976 -0.34481539012 0.74127296925 
0.63135754392 -0.26960979903 0.72711636483 0.67031213679 -0.20861921922 0.71215143098 0.69679855927 -0.15908186217 0.69940312333 
0.71447912183 -0.11783460946 0.6896626634 0.72665735647 -0.081632531502 0.68213284343 0.73644467376 -0.047207772809 0.67484862649 
0.74662055891 -0.01188926546 0.66514388397 0.75922854172 0.02567058121 0.65031764754 0.77509374823 0.065267335214 0.62846627308 
0.79361530401 0.10455238148 0.59936929248 0.81306479873 0.13866128072 0.56541903248 0.83148867408 0.16204458466 0.53138323032 
0.8474219415 0.17006172899 0.50294638024 0.8597073389 0.15975047937 0.48516293736 0.86697205297 0.13053050749 0.48095867388 
0.86722654372 0.083550723627 0.49085374446 0.85784611302 0.021017285096 0.5134766987 0.83626533794 -0.05401695941 0.54565781646 
0.80049455835 -0.13795534954 0.58324676046 0.74944565348 -0.22680576183 0.62200511162 0.68368555673 -0.31629157269 0.65767294346 
0.6052750422 -0.40259244574 0.68670331725 0.51752696044 -0.48265563861 0.70654750706 0.42464767165 -0.55443459413 0.71573503183 
0.33053006296 -0.61731412882 0.71391396108 0.23807556223 -0.67163542799 0.70158811174 0.14879218322 -0.71794878521 0.68000766763 
0.063203164615 -0.75688531068 0.65048442445 -0.018275701014 -0.78879159661 0.61438897766 -0.094383549323 -0.81371691767 0.57354731584 
-0.16274702921 -0.83223132091 0.53000418205 -0.22057058298 -0.84567585606 0.48598453103 -0.26585741363 -0.8560117318 0.4433551067 
-0.29817257046 -0.86537240444 0.40277005829 -0.31854057562 -0.8753822928 0.36364507852 -0.32940411089 -0.88680157966 0.32415411465 
-0.33392404941 -0.89970756929 0.28110677507 -0.3347749216 -0.91357315066 0.23088925973 -0.3347749216 -0.91357315066 0.23088925973 

FrenetNormal 3 120 double
0.072963963855 -0.077407603185 0.9943260647 0.072963963855 -0.077407603185 0.9943260647 0.19794633104 0.081721445206 0.97680031502 
0.30891623932 0.20737471119 0.92820605807 0.41630054422 0.27321067741 0.86720803884 0.61792428325 0.18759338192 0.76353015869 
0.41659633382 -0.66264302706 -0.62237586179 -0.025698560411 -0.51037420902 -0.85956835142 -0.031490641435 -0.35688271062 -0.93361826801 
0.063288237158 -0.13035135436 -0.98944586686 0.20275125387 0.13510829809 -0.96986477245 0.35301344909 0.33231799964 -0.87461205793 
0.54560725714 0.39585843587 -0.73865338265 0.82185024802 0.2749052475 -0.4989882511 0.99388128565 0.002498463746 -0.11042530381 
0.97159861988 -0.15983501795 0.17449609991 0.93635105265 -0.17482012008 0.30444150805 0.93172434333 -0.10757199561 0.3468688712 
0.94623174069 0.014404676936 0.3231686838 0.95630754853 0.18251948545 0.22839113392 0.92433372671 0.37528435928 0.069056580794 
0.8337589883 0.54308185295 -0.099539190442 0.72719509352 0.65389197597 -0.20883625097 0.66336380039 0.71308264323 -0.22685152028 
0.6776262798 0.7227350293 -0.13592903424 0.7757594804 0.61796554382 0.12773337555 0.78765745095 0.22490103615 0.57359852153 
0.53554498765 -0.22254091313 0.81465766319 0.29544012597 -0.42476031747 0.85574166935 0.11521546142 -0.48862797024 0.86485149254 
-0.037996345998 -0.47575617124 0.8787561341 -0.19109664666 -0.4045757851 0.89431566337 -0.35188784098 -0.26957179172 0.89638495998 
-0.51562034573 -0.065842945787 0.85428353932 -0.65430677135 0.19004518104 0.73196002496 -0.72737176126 0.44384937976 0.52338136096 
-0.72102733312 0.63698134185 0.27271662037 -0.65479002677 0.75500839672 0.034818697892 -0.54930404814 0.82011866914 -0.16021994643 
-0.41121897815 0.85967577275 -0.30307840199 -0.23744044761 0.88874979835 -0.39210436083 -0.027266111757 0.90253197106 -0.42975876996 
0.20263546881 0.88061271881 -0.42832243257 0.42486249757 0.80878941009 -0.40663441601 0.61747911036 0.69004816749 -0.37756201454 
0.77161121578 0.53950985424 -0.33696475908 0.88803757675 0.3744183957 -0.2668335197 0.96994696497 0.20231091003 -0.13517832972 
0.99449543168 0.01274888916 0.10400145282 0.87667630899 -0.1968698112 0.43895435605 0.61465042313 -0.37724609955 0.6927411044 
0.38045852568 -0.52231060077 0.76317949826 0.22599793306 -0.68319335738 0.69438589465 0.10503637913 -0.8669435563 0.48721271457 
-0.014985914564 -0.99114587291 0.13192907556 -0.10592777956 -0.95991721631 -0.25949613361 -0.12771878553 -0.82439219416 -0.55142127455 
-0.082987471422 -0.66991176668 -0.73778811623 -0.0017213714312 -0.52069895533 -0.85373862206 0.067743180386 -0.37952870607 -0.92269649548 
0.080114771722 -0.25000488555 -0.96492444292 0.023934178092 -0.1286525876 -0.99140086081 -0.089952434625 -0.0089618117781 -0.99590574124 
-0.24727343105 0.10610870448 -0.96311826539 -0.44428706649 0.19724077501 -0.87390221377 -0.69016132475 0.22758882165 -0.6869357132 
-0.9437997538 0.13983945223 -0.2994777994 -0.95960590075 -0.058241290428 0.27525346018 -0.70410722051 -0.18637085381 0.68519991745 
-0.42949166188 -0.19776707627 0.88114987143 -0.1900918314 -0.14256570149 0.97135993143 0.031612162077 -0.053961187956 0.99804251483 
0.24100477317 0.051283360205 0.96916805368 0.42760412138 0.16536689311 0.88871171144 0.57546567087 0.28518559159 0.76649099147 
0.67467517881 0.40696497053 0.61578642066 0.72440858107 0.52257514325 0.44960808192 0.73166496432 0.62109626807 0.28090177246 
0.70847827752 0.69492202467 0.12305246813 0.66625591601 0.74564218417 -0.010990339927 0.61504696975 0.78006781884 -0.11494095447 
0.55775361352 0.80930589993 -0.1842141877 0.49374698718 0.84180094776 -0.21814003987 0.42112197766 0.8800737015 -0.21937766491 
0.34344649648 0.91785102681 -0.19898240285 0.27950461374 0.94215318692 -0.18499876563 0.2563918713 0.9426183739 -0.21385464578 
0.27672976349 0.91477981315 -0.29427628422 0.31421639995 0.86059236246 -0.40081022902 0.34285541585 0.79203703961 -0.50510146675 
0.36273930041 0.70958635296 -0.60407566384 0.38674708677 0.59729301395 -0.70261493463 0.43194389177 0.41293804952 -0.80181459304 
0.51366379385 -0.023063098929 -0.85768152618 0.40473768581 -0.79247714382 -0.45625363802 0.10835157437 -0.99137383859 0.073741768916 
-0.070517024727 -0.95527454389 0.28718964992 -0.19832274062 -0.90822466577 0.36850515199 -0.30835228208 -0.86920316447 0.38652907914 
-0.41392439341 -0.83103952715 0.37153721329 -0.51575465515 -0.78907638713 0.3336998516 -0.60963070093 -0.74291460829 0.27645667522 
-0.69301770759 -0.69093069267 0.20576985905 -0.76157574586 -0.63625923128 0.12319323814 -0.81328206786 -0.58096195761 0.032488181105 
-0.84651816848 -0.52838137147 -0.064962425474 -0.86354074738 -0.47700183751 -0.16360508741 -0.86948922768 -0.42252736646 -0.25584977534 
-0.8647485078 -0.36691239465 -0.34290714912 -0.85451265749 -0.30671885575 -0.41920360414 -0.83643646339 -0.24761047733 -0.48894078806 
-0.80544651741 -0.19819900187 -0.55854548897 -0.75504055975 -0.16738295872 -0.63395323034 -0.67330926136 -0.16425448122 -0.72088494503 
-0.53772408953 -0.19634616841 -0.8199396232 -0.3471719171 -0.24923353667 -0.90407649244 -0.16092870844 -0.28555979578 -0.94475264161 
-0.044275131614 -0.28292460723 -0.95811971034 0.0088752368817 -0.24807398545 -0.96870043249 0.0088752368817 -0.24807398545 -0.96870043249 

FrenetBinormal 3 120 double
-0.81698316717 0.5671865086 0.10410556672 -0.81698316717 0.5671865086 0.10410556672 -0.81504023433 0.56732315119 0.11770241518 
-0.8085286514 0.5711978174 0.14147251768 -0.78707580639 0.58579351095 0.19328123944 -0.66553194455 0.64184829191 0.38091731512 
0.81781227334 -0.025820450514 0.57490554869 0.91962649866 -0.34920221346 0.17984692677 0.91696515372 -0.38200516192 0.11509545226 
0.9170241519 -0.3835935189 0.10919119513 0.91318737968 -0.3836593403 0.13745661201 0.89177062749 -0.4023267882 0.20707076916 
0.81169461495 -0.46889092328 0.34827166713 0.55244797891 -0.59850020459 0.58017129859 0.083553856352 -0.67087750249 0.73684606923 
-0.23660641018 -0.64472483618 0.72687501833 -0.34439688061 -0.62563594119 0.69997889805 -0.33430981836 -0.62716635899 0.70349079845 
-0.24192326275 -0.63169297801 0.73650330378 -0.070655811113 -0.61375370335 0.78632954159 0.15984336806 -0.54513357544 0.82296991598 
0.37844112423 -0.43084104181 0.81924252342 0.51829399134 -0.32357095302 0.79162691775 0.56459370098 -0.27799709705 0.77714320871 
0.51358311404 -0.33278332143 0.79087776928 0.29555908672 -0.53467048713 0.79168952024 -0.19008950331 -0.79686746846 0.57347032917 
-0.5816443126 -0.79658233294 0.16476189019 -0.71377402327 -0.6935128277 -0.097809005348 -0.75016806849 -0.61350941603 -0.24668616794 
-0.75469505665 -0.56273270562 -0.33729404604 -0.7469683502 -0.53115060777 -0.39989663122 -0.73416683149 -0.51457610187 -0.44295654293 
-0.71929233184 -0.50849963723 -0.473335674 -0.70281932229 -0.51011260672 -0.49581259431 -0.68483251871 -0.5183676183 -0.51215176815 
-0.66708772077 -0.53169540768 -0.52181794359 -0.65507151496 -0.54393387508 -0.52442087089 -0.65642877794 -0.54214834765 -0.52457261522 
-0.67437006895 -0.51062132 -0.53337686271 -0.70193173927 -0.43600486873 -0.56319764546 -0.71958499073 -0.31613919454 -0.6182664885 
-0.70550374585 -0.17205440993 -0.68750399607 -0.65497719718 -0.035435014186 -0.75481734939 -0.57905614316 0.073909176501 -0.81193067235 
-0.48523225207 0.1567050859 -0.86022856126 -0.36528380741 0.22212096922 -0.90400775167 -0.18887766695 0.2758106999 -0.94247211351 
0.095164180808 0.30546574693 -0.94743572666 0.47873017728 0.26691774798 -0.83640440767 0.7790362534 0.15257135043 -0.60813197492 
0.90510045537 0.040884789532 -0.42322759796 0.94156153085 -0.02957225279 -0.33554040812 0.94835950377 -0.060128860862 -0.31144625813 
0.94814445467 -0.055981244042 -0.31287088935 0.95040495975 -0.020992556999 -0.31030585723 0.95871684991 0.039803436655 -0.28156293814 
0.96985245271 0.11592749791 -0.21435259549 0.97520565238 0.18805357955 -0.11666099084 0.9718587424 0.23423466711 -0.024994110351 
0.96863099356 0.24797663949 0.016173576773 0.96993453636 0.2432295459 -0.0081475867618 0.96726070013 0.23747864148 -0.089502138695 
0.94548973071 0.24380754385 -0.21588666168 0.88110613141 0.27264912879 -0.38641226398 0.7178451124 0.33536261825 -0.61010680122 
0.33038474212 0.42486238372 -0.84281544663 -0.27126539026 0.45108678408 -0.85025631505 -0.69362893944 0.38710223725 -0.60747901386 
-0.87716561944 0.32338501972 -0.35496845647 -0.94808039802 0.28360729521 -0.14391129556 -0.96341972401 0.26422579074 0.044801416129 
-0.93928648361 0.26364064412 0.21962356993 -0.88414878097 0.28123661419 0.37307760579 -0.81171456087 0.3135356112 0.49276251093 
-0.73794923428 0.35423632282 0.57441061552 -0.67344964335 0.39709359992 0.62352405789 -0.62133511487 0.43816113046 0.64958255733 
-0.58094957814 0.47527870281 0.66076300011 -0.55345238283 0.50429805431 0.66285287384 -0.53860977823 0.52210779035 0.6612888643 
-0.53879361386 0.52185679703 0.66133722491 -0.55398154475 0.49784453971 0.667274503 -0.58062728814 0.44739606732 0.68022695567 
-0.60956057002 0.37903099795 0.69625527938 -0.62757171478 0.3250899909 0.70743921338 -0.62602911339 0.33051781703 0.70628997006 
-0.60496146903 0.4037778335 0.68628352899 -0.56994743218 0.50864703571 0.64532016675 -0.53073519317 0.60697405451 0.59152569841 
-0.48846181957 0.69681848944 0.52521333151 -0.43514632474 0.78994563403 0.4320110778 -0.34935806738 0.89622749335 0.27335914273 
-0.13425930114 0.98516348988 -0.10689872897 0.3115938015 0.58860832551 -0.74595545578 0.48643539725 -0.011819423264 -0.8736365981 
0.49289498992 -0.28367203313 -0.82254769256 0.47409718089 -0.4179548184 -0.77494879369 0.4534083752 -0.49149570393 -0.74354073077 
0.43344556589 -0.53883357899 -0.72234570363 0.41512449719 -0.57089193519 -0.70834599608 0.40115392059 -0.58994705341 -0.70074104073 
0.39162300783 -0.60044491884 -0.697206798 0.39008746268 -0.60184526676 -0.69686013399 0.39780225372 -0.59589049719 -0.69761585582 
0.41732106096 -0.5828691042 -0.69721355369 0.44454179138 -0.5668995492 -0.69354704011 0.47100888438 -0.55319089509 -0.68711750409 
0.49821218195 -0.5408326184 -0.67770546747 0.51910896443 -0.53266439776 -0.66842690132 0.53987571563 -0.52588385543 -0.65725214512 
0.56988534994 -0.51779164165 -0.63806152036 0.61746446946 -0.50676946594 -0.60159981495 0.68990903327 -0.49016770642 -0.53269235531 
0.78863548092 -0.46106266795 -0.40678654655 0.88204510183 -0.41423240536 -0.22451715455 0.93037351775 -0.36337110693 -0.04864726222 
0.94155957961 -0.33238525296 0.05464065948 0.94225632502 -0.32224741447 0.091157127153 0.94225632502 -0.32224741447 0.091157127153 

plain_curvature_peaks 1 120 unsigned_char
0 0 0 0 0 0 0 0 0 
0 0 1 0 0 0 0 0 0 
0 0 0 0 0 0 0 0 0 
0 0 0 0 0 0 0 0 0 
0 1 0 0 0 0 0 0 0 
0 0 0 0 0 0 0 0 0 
0 0 0 0 0 0 0 0 0 
0 0 0 0 0 0 0 0 0 
0 0 0 0 0 1 0 0 0 
0 0 0 0 0 0 0 0 0 
0 0 0 0 0 0 0 0 0 
0 0 0 0 0 0 0 0 0 
1 0 0 0 0 0 0 0 0 
0 0 0 
weighted_curvature_peaks 1 120 unsigned_char
0 0 0 0 0 0 0 0 0 
0 0 0 1 0 0 0 0 0 
0 0 0 0 0 0 0 0 0 
0 0 0 0 0 0 0 0 0 
0 0 0 0 1 0 0 0 0 
0 0 0 0 0 0 0 0 0 
0 0 0 0 0 0 0 0 0 
0 0 0 0 0 0 0 0 0 
0 0 0 0 0 0 0 0 0 
0 1 0 0 0 0 0 0 0 
0 0 0 0 0 0 0 0 0 
0 0 0 0 0 0 0 0 0 
0 0 0 0 0 1 0 0 0 
0 0 0 
plain_torsion_tp 1 120 unsigned_char
0 0 0 0 0 0 0 0 0 
0 0 1 0 0 0 0 0 0 
0 0 0 0 0 0 0 0 0 
0 0 0 0 0 0 0 0 0 
0 1 0 0 0 0 0 0 0 
0 0 0 0 0 0 0 0 0 
0 0 0 0 0 0 0 0 0 
0 0 0 0 0 0 0 0 0 
0 0 0 0 0 1 0 0 0 
0 0 0 0 0 0 0 0 0 
0 0 0 0 0 0 0 0 0 
0 0 0 0 0 0 0 0 0 
1 0 0 0 0 0 0 0 0 
0 0 0 
plain_torsion_tn 1 120 unsigned_char
0 2 0 0 0 0 0 0 0 
0 0 0 0 0 0 0 0 0 
0 0 0 0 0 2 0 0 0 
0 0 0 0 0 0 0 0 0 
0 0 0 0 0 0 0 0 0 
0 0 0 0 0 0 0 0 0 
2 0 0 0 0 0 0 0 0 
0 0 0 0 0 0 0 0 0 
0 0 0 0 0 0 0 0 0 
0 0 0 0 0 0 0 0 0 
0 0 0 2 0 0 0 0 0 
0 0 0 0 0 0 0 0 0 
0 0 0 0 0 0 0 0 0 
0 0 0 
plain_torsion_tz 1 120 unsigned_char
0 3 0 0 0 0 0 0 0 
0 0 0 0 0 0 0 0 3 
0 0 0 0 0 0 0 0 0 
0 3 0 0 0 0 0 0 0 
0 0 0 0 0 0 0 0 0 
0 0 0 0 0 0 0 0 0 
0 0 0 0 0 0 3 0 0 
0 0 0 0 0 0 0 0 0 
0 0 0 0 0 0 0 0 0 
0 0 0 0 0 3 0 0 0 
0 0 0 0 0 0 0 3 0 
0 0 0 0 0 0 0 0 0 
0 0 0 0 0 0 0 0 0 
0 0 0 
weighted_torsion_tp 1 120 unsigned_char
0 0 0 0 0 0 0 0 0 
0 0 0 1 0 0 0 0 0 
0 0 0 0 0 0 0 0 0 
0 0 0 0 0 0 0 0 0 
0 0 0 0 1 0 0 0 0 
0 0 0 0 0 0 0 0 0 
0 0 0 0 0 0 0 0 0 
0 0 0 0 0 0 0 0 0 
0 0 0 0 0 0 0 0 0 
0 1 0 0 0 0 0 0 0 
0 0 0 0 0 0 0 0 0 
0 0 0 0 0 0 0 0 0 
0 0 0 0 0 1 0 0 0 
0 0 0 
weighted_torsion_tn 1 120 unsigned_char
0 0 0 2 0 0 0 0 0 
0 0 0 0 0 0 0 0 0 
0 0 0 0 0 0 0 2 0 
0 0 0 0 0 0 0 0 0 
0 0 0 0 0 0 0 0 0 
0 0 0 0 0 0 0 0 0 
0 0 0 0 0 0 2 0 0 
0 0 0 0 0 0 0 0 0 
0 0 0 0 0 0 0 0 0 
0 0 0 0 0 0 0 0 0 
0 0 0 0 0 0 0 0 2 
0 0 0 0 0 0 0 0 0 
0 0 0 0 0 0 0 0 0 
0 0 0 
weighted_torsion_tz 1 120 unsigned_char
0 0 0 0 3 0 0 0 0 
0 0 0 0 0 0 0 0 0 
0 3 0 0 0 0 0 0 0 
0 0 0 0 3 0 0 0 0 
0 0 0 0 0 0 0 0 0 
0 0 0 0 0 0 0 0 0 
0 0 0 0 0 0 0 0 0 
0 0 0 3 0 0 0 0 0 
0 0 0 0 0 0 0 0 0 
0 0 0 0 0 0 0 0 0 
3 0 0 0 0 0 0 0 0 
0 0 0 3 0 0 0 0 0 
0 0 0 0 0 0 0 0 0 
0 0 0 
plain_torsion_tp_raw 1 120 unsigned_char
0 0 0 0 0 0 0 0 0 
0 0 0 0 1 0 0 0 0 
0 0 0 0 0 0 0 1 0 
0 0 0 0 0 0 0 0 0 
0 0 0 0 0 0 0 0 0 
0 0 0 0 0 0 0 0 0 
0 0 0 0 1 0 0 0 0 
0 0 0 0 0 0 0 0 0 
0 0 0 0 0 0 0 0 1 
0 0 0 0 0 0 0 0 0 
0 0 0 0 0 0 0 0 0 
0 0 1 0 0 0 0 0 0 
0 0 1 0 0 0 0 0 0 
0 0 0 
plain_torsion_tn_raw 1 120 unsigned_char
0 0 0 0 0 0 0 0 0 
2 0 0 0 0 0 0 0 0 
2 0 0 0 0 0 0 0 0 
0 0 0 0 0 0 0 0 0 
0 0 0 0 0 0 0 0 0 
0 0 0 0 2 0 0 0 0 
0 0 0 0 0 0 0 0 0 
0 0 0 2 0 0 0 0 0 
0 0 0 0 0 0 0 0 0 
0 0 0 0 0 0 0 0 0 
0 0 0 0 2 0 0 0 0 
0 0 0 0 0 0 2 0 0 
0 0 0 0 0 0 0 0 0 
0 0 0 
plain_torsion_tz_raw 1 120 unsigned_char
0 3 0 0 0 0 0 0 0 
0 0 3 0 3 0 0 0 0 
0 0 0 3 0 0 0 0 0 
0 0 0 0 0 0 0 0 0 
0 0 0 0 0 0 0 0 0 
0 0 0 0 0 0 0 0 0 
0 0 0 0 0 0 0 0 0 
0 0 0 0 0 0 0 0 0 
0 0 0 0 0 0 0 0 0 
0 0 0 0 0 0 0 0 0 
0 0 0 0 0 0 0 0 0 
0 0 0 0 0 0 0 0 0 
0 0 0 0 0 0 0 0 0 
0 0 0 
weighted_torsion_tp_raw 1 120 unsigned_char
0 0 0 0 0 0 0 0 0 
0 0 0 0 0 0 1 0 0 
0 0 0 0 0 0 0 0 0 
0 1 0 0 0 0 0 0 0 
0 0 0 0 0 0 0 0 0 
0 0 0 0 0 0 0 0 0 
0 0 0 0 0 0 0 0 0 
0 1 0 0 0 0 0 0 0 
0 0 0 0 0 0 0 0 0 
0 0 0 1 0 0 0 0 0 
0 0 0 0 0 0 0 0 0 
0 0 0 0 0 0 0 1 0 
0 0 0 0 0 0 1 0 0 
0 0 0 
weighted_torsion_tn_raw 1 120 unsigned_char
0 0 0 0 0 0 0 0 0 
0 2 0 0 0 0 0 0 0 
0 0 2 0 0 0 0 0 0 
0 0 0 0 0 0 0 0 0 
0 0 0 0 0 0 0 0 0 
0 0 0 0 0 0 0 0 0 
2 0 0 0 0 0 0 0 0 
0 0 0 0 0 0 0 2 0 
0 0 0 0 0 0 0 0 0 
0 0 0 0 0 0 0 0 0 
0 0 0 0 0 0 0 0 0 
2 0 0 0 0 0 0 0 0 
0 0 2 0 0 0 0 0 0 
0 0 0 
weighted_torsion_tz_raw 1 120 unsigned_char
0 0 0 3 0 0 0 0 0 
0 0 0 0 3 0 0 3 0 
0 0 0 0 0 0 3 0 0 
0 0 0 0 0 0 0 0 0 
0 0 0 0 0 0 0 0 0 
0 0 0 0 0 0 0 0 0 
0 0 0 0 0 0 0 0 0 
0 0 0 0 0 0 0 0 0 
0 0 0 0 0 0 0 0 0 
0 0 0 0 0 0 0 0 0 
0 0 0 0 0 0 0 0 0 
0 0 0 0 0 0 0 0 0 
0 0 0 0 0 0 0 0 0 
0 0 0 
