# vtk DataFile Version 5.1
vtk output
ASCII
DATASET POLYDATA
POINTS 120 float
-4.41024 20.4464 -4.76808 -5.0218 19.8777 -4.53891 -5.57837 19.3003 -4.23917 
-6.08737 18.7245 -3.89703 -6.5561 18.1601 -3.54068 -6.99154 17.6162 -3.19821 
-7.4 17.0999 -2.89728 -7.78655 16.6152 -2.6643 -8.15459 16.1625 -2.52314 
-8.50529 15.7384 -2.49302 -8.83722 15.3356 -2.58618 -9.14637 14.945 -2.8064 
-9.4263 14.5559 -3.14798 -9.66895 14.1576 -3.59648 -9.8658 13.7406 -4.1306 
-10.0094 13.2968 -4.7246 -10.0947 12.821 -5.35122 -10.1195 12.3115 -5.98478 
-10.0841 11.7701 -6.60369 -9.99066 11.2026 -7.19232 -9.84169 10.6178 -7.74195 
-9.63922 10.0267 -8.25095 -9.3842 9.44124 -8.72432 -9.07683 8.87286 -9.17249 
-8.71719 8.33115 -9.60968 -8.30614 7.82301 -10.0517 -7.84601 7.35181 -10.5134 
-7.34097 6.91766 -11.0059 -6.79737 6.51804 -11.5338 -6.22381 6.14837 -12.093 
-5.63136 5.80383 -12.6688 -5.03383 5.48009 -13.236 -4.44787 5.17444 -13.7601 
-3.89293 4.88686 -14.2013 -3.39054 4.62011 -14.5191 -2.96281 4.37941 -14.6784 
-2.63024 4.1717 -14.6553 -2.4092 4.00399 -14.4414 -2.30989 3.88186 -14.0454 
-2.3352 3.80912 -13.4923 -2.4807 3.78798 -12.8202 -2.73575 3.81969 -12.0755 
-3.08527 3.90608 -11.3066 -3.51109 4.05016 -10.5584 -3.99292 4.25689 -9.86663 
-4.50871 4.53229 -9.2546 -5.03487 4.88119 -8.73097 -5.54676 5.30466 -8.28972 
-6.0197 5.797 -7.91195 -6.4305 6.34338 -7.56953 -6.75931 6.91927 -7.23017 
-6.99141 7.49215 -6.86326 -7.11869 8.02508 -6.44564 -7.1404 8.48065 -5.96635 
-7.06308 8.82625 -5.42941 -6.89954 9.03762 -4.85393 -6.66719 9.10089 -4.27137 
-6.3861 9.01279 -3.72043 -6.07708 8.77921 -3.24016 -5.76003 8.41322 -2.863 
-5.45264 7.93206 -2.6091 -5.16939 7.35503 -2.48337 -4.92093 6.70124 -2.47593 
-4.71371 5.9886 -2.56521 -4.55007 5.23246 -2.72282 -4.42865 4.44549 -2.91807 
-4.34518 3.63764 -3.1214 -4.2933 2.81637 -3.30627 -4.26543 1.98739 -3.44988 
-4.25343 1.15566 -3.53336 -4.24895 0.326644 -3.54199 -4.24339 -0.493063 -3.46554 
-4.22757 -1.29468 -3.2989 -4.19126 -2.06695 -3.04261 -4.12291 -2.79657 -2.70292 
-4.00976 -3.46899 -2.29135 -3.83869 -4.06977 -1.8236 -3.5976 -4.58636 -1.31791 
-3.2771 -5.00998 -0.793238 -2.87218 -5.33709 -0.267373 -2.38322 -5.57049 0.244729 
-1.81615 -5.71906 0.732063 -1.18171 -5.79599 1.18829 -0.494041 -5.81667 1.6118 
0.231095 -5.79673 2.0052 0.978161 -5.74953 2.3743 1.73339 -5.68496 2.72693 
2.48591 -5.60917 3.07164 3.22835 -5.52453 3.41643 3.95694 -5.43037 3.76787 
4.67121 -5.32368 4.13048 5.3734 -5.20126 4.50646 6.06748 -5.06128 4.89587 
6.75847 -4.9055 5.29698 7.45071 -4.74044 5.70709 8.14691 -4.57782 6.12318 
8.84711 -4.43389 6.54282 9.54732 -4.32765 6.96479 10.239 -4.27852 7.38941 
10.9095 -4.30377 7.81869 11.5429 -4.41615 8.25572 12.1215 -4.62265 8.70359 
12.6283 -4.92437 9.16456 13.0493 -5.31697 9.63854 13.3758 -5.79204 10.1228 
13.6048 -6.33851 10.6117 13.7395 -6.94405 11.0969 13.7882 -7.59633 11.5692 
13.7625 -8.28376 12.0191 13.6758 -8.99614 12.4383 13.5414 -9.72549 12.8201 
13.3719 -10.4659 13.1603 13.1779 -11.2134 13.457 12.9682 -11.966 13.7113 
12.7499 -12.7229 13.9269 12.5282 -13.4841 14.1097 12.3075 -14.2501 14.2668 
12.0912 -15.0214 14.4063 11.8822 -15.7986 14.5356 11.6826 -16.5821 14.6608 

LINES 2 120
OFFSETS vtktypeint64
0 120 
CONNECTIVITY vtktypeint64
0 1 2 3 4 5 6 7 8 
9 10 11 12 13 14 15 16 17 
18 19 20 21 22 23 24 25 26 
27 28 29 30 31 32 33 34 35 
36 37 38 39 40 41 42 43 44 
45 46 47 48 49 50 51 52 53 
54 55 56 57 58 59 60 61 62 
63 64 65 66 67 68 69 70 71 
72 73 74 75 76 77 78 79 80 
81 82 83 84 85 86 87 88 89 
90 91 92 93 94 95 96 97 98 
99 100 101 102 103 104 105 106 107 
108 109 110 111 112 113 114 115 116 
117 118 119 
CELL_DATA 1
FIELD FieldData 2
Length 1 1 double
90.631022134 
Tortuosity 1 1 double
1.0227483608 
POINT_DATA 120
FIELD FieldData 19
Curvature 1 120 double
0 0.12084169231 0.086158042225 0.052489036722 0.021148980658 0.038147931999 0.10018976369 0.19447349024 0.31992132013 
0.4327024138 0.45262513696 0.36809733924 0.25715923076 0.17484963178 0.12847991671 0.10837617793 0.10285192228 0.10314608606 
0.10428162354 0.10395185135 0.10154561797 0.098143267788 0.096054874285 0.096923191572 0.099363015976 0.098898451561 0.092193970609 
0.078912407628 0.060940325374 0.04198065561 0.026285318149 0.032095050509 0.069525276622 0.14936129189 0.34007472075 0.8500689389 
1.7542565511 1.5140051367 0.67774914796 0.31447101952 0.18587953644 0.14028054277 0.1284083903 0.13392467163 0.14818007515 
0.16265132247 0.16846364606 0.16127090382 0.14837144144 0.14964199643 0.18219272868 0.24285048838 0.31514502967 0.37615215694 
0.40827005288 0.41547554948 0.41843686968 0.43284696335 0.45196729353 0.44788614389 0.39461015126 0.30478729844 0.21247133786 
0.13895224777 0.087910185225 0.059032470416 0.054511564147 0.068131388173 0.08819350888 0.10837021463 0.12544100964 0.13756519948 
0.1450808471 0.15069696428 0.15852423416 0.17245406297 0.19346966807 0.21719995059 0.2335240405 0.23099267644 0.20664069654 
0.16870719875 0.12792604707 0.090871882393 0.060362100309 0.036191031419 0.018927968852 0.015509669871 0.023740474306 0.032132665063 
0.036599132096 0.035991448009 0.028884468253 0.016024840595 0.0071051002771 0.028252658012 0.054879675092 0.084669480452 0.11710677165 
0.15088351911 0.18362858544 0.21114423089 0.22654719828 0.22543309889 0.2087211144 0.18213869763 0.15293565849 0.12686541722 
0.1059374586 0.090616828186 0.08019941607 0.072807336123 0.066465966183 0.059053824012 0.049992399763 0.039401944211 0.028559742784 
0.020772465684 0.017431712965 0 
Torsion 1 120 double
0 0 -0.067998902675 -0.23607404679 -1.9839003032 -0.7811960439 -0.097140393693 0.025900418453 0.07344173417 
0.10225849688 0.13843647155 0.20168261085 0.29625963984 0.39890309418 0.44816842145 0.39016319958 0.27041421288 0.15421453949 
0.05411519865 -0.041663669803 -0.14508641871 -0.2528171908 -0.33605393238 -0.35743847096 -0.31603006383 -0.25083800791 -0.18479376092 
-0.11496541876 -0.016005683563 0.21148660845 0.95295910357 0.88875542568 0.27490763581 0.10573925207 0.047497356071 0.023691530782 
0.0146868099 0.016406265646 0.021907811152 0.012392419427 -0.014746134684 -0.054032824533 -0.094367661246 -0.13166062931 -0.16498895249 
-0.20619268729 -0.27309950638 -0.3920449336 -0.57471945182 -0.68295769458 -0.55078998614 -0.36333128817 -0.23434147242 -0.1540223949 
-0.099489578363 -0.055904095549 -0.02215321714 -0.0048476449524 -0.0074807551045 -0.024191925483 -0.050297021727 -0.088464860484 -0.14744337122 
-0.24980097942 -0.44671524203 -0.75191684104 -0.72933018178 -0.41735620631 -0.23566670761 -0.15570594897 -0.12515487783 -0.12333078527 
-0.14116369833 -0.16998179849 -0.19573627612 -0.20236574108 -0.18583146963 -0.15713913595 -0.12994433084 -0.11153513997 -0.10034438282 
-0.091564781933 -0.082545310798 -0.064079993706 -0.0090598685838 0.15599015691 0.76365395374 0.96194611615 0.19415506729 -0.030390342191 
-0.091769355916 -0.094113889473 -0.034190015028 0.33708830296 2.8185450485 0.088617727096 -0.062243843489 -0.096830405441 -0.11077380372 
-0.11332325453 -0.10806163787 -0.092613851275 -0.070023039315 -0.042861363393 -0.010717477089 0.024779527985 0.063175626097 0.10075938219 
0.1378259975 0.16838645655 0.17787979157 0.17237302743 0.15691717735 0.1475724768 0.15909941363 0.21103898249 0.34921892065 
0.54714693558 0 0 
FrenetTangent 3 120 double
-0.67921491234 -0.66639888796 0.30753800574 -0.67921491234 -0.66639888796 0.30753800574 -0.62818098916 -0.67984923654 0.37840938206 
-0.59025403972 -0.68832452704 0.4216746543 -0.56798867121 -0.6961919996 0.43898242456 -0.56256209702 -0.70679748382 0.42890698743 
-0.57386377297 -0.72260109911 0.38539333368 -0.59880552618 -0.74383174602 0.29689438431 -0.62684156577 -0.76469130802 0.14938826883 
-0.63554837232 -0.76982725881 -0.058687801399 -0.60078721184 -0.74350586891 -0.29368988573 -0.52257572942 -0.69175811169 -0.49838270629 
-0.42424828529 -0.6392184744 -0.64141494714 -0.32547292039 -0.60377564761 -0.72768286049 -0.23331391026 -0.58989885009 -0.77303555283 
-0.14814934012 -0.5950746008 -0.78989745696 -0.068640858708 -0.61449707683 -0.78592733448 0.0065014043437 -0.64275417174 -0.76604491151 
0.078343303113 -0.6742803749 -0.73430804359 0.14801568996 -0.70358478066 -0.69502504411 0.21683137098 -0.72551747427 -0.65315277776 
0.2860068674 -0.73555226829 -0.6141359234 0.35590925819 -0.73021362021 -0.58319522358 0.42518046341 -0.70761240942 -0.56436358101 
0.49046121001 -0.66811775284 -0.55952343098 0.54719125989 -0.61513207713 -0.56762157533 0.59159495093 -0.5549293654 -0.584866492 
0.62267685381 -0.49508935428 -0.60593734578 0.64267311239 -0.44255510581 -0.62539287566 0.65615649654 -0.40190992156 -0.63869168383 
0.66846851755 -0.37540372162 -0.64204508162 0.68468736239 -0.36412279439 -0.63136186644 0.70952803277 -0.3689295365 -0.60038401695 
0.74739526613 -0.39184230687 -0.53652578942 0.80045409068 -0.43671339022 -0.4105540933 0.85128269718 -0.50207286152 -0.15244871662 
0.7801245957 -0.5290137634 0.33399109766 0.42862835648 -0.38779965092 0.81602032007 0.076152957566 -0.20054744895 0.9767197386 
-0.13767439723 -0.075674238961 0.98758248765 -0.27203739574 0.0071828395021 0.96225987245 -0.36996870849 0.072275318568 0.92622860735 
-0.45098053689 0.13405366865 0.88240929804 -0.52225260845 0.20185097022 0.82855802379 -0.58305726586 0.28177642221 0.76200149121 
-0.62659781317 0.37543441314 0.68295254737 -0.64314158895 0.47853728464 0.5978051219 -0.62544375847 0.58161306155 0.52014070369 
-0.57301085337 0.67349827252 0.46696749226 -0.49075210133 0.74465598017 0.45238241149 -0.38404979613 0.7865479508 0.48357840644 
-0.2562149018 0.78836515456 0.55931592788 -0.11093308213 0.73601423511 0.66781501706 0.042938811632 0.61854109905 0.78457833722 
0.19007864663 0.43954273555 0.87787942892 0.31562535974 0.21896817269 0.92327329195 0.41252781443 -0.019950697522 0.91072650779 
0.47941702226 -0.26133925069 0.83777151707 0.51347985219 -0.49174116236 0.70322760941 0.50886800407 -0.69035155747 0.51426460265 
0.46509092175 -0.83326459036 0.29893236183 0.39462622978 -0.91351056443 0.098836164652 0.31584392373 -0.94711400701 -0.056724541081 
0.24162917512 -0.95694370315 -0.16085425308 0.17723236709 -0.95940593882 -0.21938307275 0.12367642833 -0.96271158704 -0.2406045329 
0.080557227061 -0.9696016356 -0.23104805 0.047346446879 -0.97965972371 -0.19500035825 0.023779500245 -0.99049981288 -0.13544244551 
0.0099049432493 -0.99841663836 -0.055372451178 0.0060833264243 -0.99913648233 0.041100885932 0.013041849892 -0.98886237276 0.14826030448 
0.031971435478 -0.96524717193 0.25937564343 0.064639671213 -0.92754815432 0.36807082786 0.11337303187 -0.87575279097 0.46925856919 
0.18065760933 -0.80929580018 0.55893034986 0.26795432397 -0.7264280839 0.63285284165 0.37347868865 -0.62527845378 0.68523027105 
0.48980305556 -0.50689541955 0.7093306707 0.60394919661 -0.37870829934 0.70130263932 0.70246677495 -0.25408501274 0.66481669382 
0.77804397992 -0.14602072445 0.61100369339 0.83096666111 -0.061348078427 0.55292930958 0.86569981012 -0.00045493006026 0.50056331447 
0.88723984082 0.040465937025 0.45953016529 0.89935378248 0.066912640611 0.43207114282 0.90440414672 0.084190686733 0.41828825905 
0.90379071107 0.096990815457 0.41683945627 0.89846660434 0.1092095575 0.42524232319 0.88935977125 0.12379879786 0.44012845275 
0.87771479981 0.14196877875 0.45766974562 0.86522184582 0.16260147411 0.47429096357 0.85393830147 0.18234185663 0.48738160059 
0.84583561359 0.19619386628 0.49605451477 0.84221362867 0.19876945541 0.50116554878 0.84323614069 0.18510933179 0.50466557869 
0.84725318102 0.15135064171 0.50917092464 0.85051472007 0.094942061659 0.51731104364 0.8471999797 0.014852445081 0.5310664735 
0.82971857468 -0.087579928412 0.55126839468 0.78999073142 -0.2078599561 0.57680922575 0.72160668155 -0.3378901348 0.60424668303 
0.62312473044 -0.46630114872 0.62791624363 0.50060938149 -0.58103443383 0.64170805969 0.36637682908 -0.67371283452 0.64177802682 
0.23436921676 -0.74234965747 0.62768467903 0.11522942123 -0.79036444234 0.60170277444 0.014151419339 -0.82362439008 0.56695908265 
-0.068102276805 -0.84761212956 0.52622785723 -0.13289128054 -0.86639723131 0.48134784214 -0.18245617761 -0.88249243986 0.4334937564 
-0.21914261594 -0.8969747153 0.38394384223 -0.24487894857 -0.91008970382 0.33432174856 -0.26133568855 -0.92161676653 0.28692541459 
-0.26997277938 -0.93133977206 0.24437865571 -0.27209192654 -0.9392981746 0.20900938427 -0.26884964628 -0.94573410456 0.18250170182 
-0.26118924172 -0.95106061474 0.16511779763 -0.2501554853 -0.95558472753 0.15582060741 -0.2501554853 -0.95558472753 0.15582060741 

FrenetNormal 3 120 double
0.5405333461 -0.17074475611 0.82381425699 0.5405333461 -0.17074475611 0.82381425699 0.61651826413 -0.13823010376 0.77511139097 
0.69773080547 -0.17236317741 0.6953147907 0.82145255463 -0.51260033744 0.24991317401 -0.1177152008 -0.44502121122 -0.88774954411 
-0.28080925219 -0.26844328564 -0.92145773982 -0.24308237293 -0.18441986277 -0.95231311772 -0.12893557066 -0.087282543596 -0.98780432081 
0.042454767073 0.041052470465 -0.99825462054 0.24528963528 0.17820828537 -0.95292958913 0.44784419544 0.27469904099 -0.85086780024 
0.63845951207 0.291160569 -0.71245699836 0.81602252295 0.2094228169 -0.53874792417 0.94846362537 0.037253409002 -0.31468863161 
0.98484182285 -0.1616299518 -0.06294714167 0.93893764396 -0.30603813687 0.15727924063 0.87164934723 -0.37180182145 0.3193600179 
0.82358797631 -0.37127133986 0.42878950251 0.81073116232 -0.3161563026 0.49270698672 0.83609979064 -0.20734514049 0.50788299125 
0.88713222008 -0.039008769898 0.45986382763 0.92386637751 0.18096464143 0.33722798677 0.89681977922 0.41355363621 0.15712311596 
0.79421045918 0.60696972808 -0.028591882075 0.6496915471 0.73970671761 -0.17531362056 0.50040224366 0.82152179267 -0.27331216349 
0.37333440557 0.86853156284 -0.32599746313 0.29440314548 0.89627037951 -0.33170196674 0.31448326922 0.91500839055 -0.25270520097 
0.56376240895 0.81881900122 0.10820069083 0.70720407916 0.12242574624 0.69632918011 0.54996250924 -0.24277768826 0.79912466644 
0.43641830455 -0.31933933912 0.84116671947 0.30354406316 -0.29527779529 0.90590950173 0.06954879725 -0.18000871236 0.98120325533 
-0.34910735687 0.074910030578 0.93408379747 -0.74247937295 0.36342715343 0.56271225764 -0.85820463677 0.48551856655 0.16660289005 
-0.85441152237 0.51343759114 -0.07976710133 -0.82101455981 0.51985123056 -0.23598684427 -0.76790583137 0.5373608616 -0.34866020502 
-0.69039015955 0.57419213176 -0.44007365681 -0.57907889457 0.62930226687 -0.51831099813 -0.42937331449 0.68936000535 -0.58345637355 
-0.23872973064 0.74172822748 -0.62677536029 -0.0032656956971 0.77896084121 -0.62706406618 0.28132972417 0.78987178469 -0.54493683125 
0.60221872985 0.73248890538 -0.31747851094 0.85165235735 0.51960013814 0.06858541143 0.89207751711 0.18102047938 0.41404020278 
0.81361223762 -0.1365326025 0.56514951583 0.72171445608 -0.40230451319 0.56327552987 0.63289853397 -0.62447369127 0.45768117135 
0.53622843952 -0.79550342112 0.28219384762 0.42916551476 -0.90074394127 0.066912728263 0.31523867136 -0.93486198487 -0.163271704 
0.19317711983 -0.89978914303 -0.39123151516 0.057808418211 -0.79783054853 -0.60010382653 -0.09111784762 -0.63723410958 -0.7652648087 
-0.24060192985 -0.44394584642 -0.86314703081 -0.37941398872 -0.25997344275 -0.887952045 -0.51123690191 -0.11951402955 -0.85108943529 
-0.65718425801 -0.039417287253 -0.75269856416 -0.83777754598 -0.030099583175 -0.54518143635 -0.9899819655 -0.10305919122 -0.096511714822 
-0.83398251619 -0.19251461206 0.51711825227 -0.49519554363 -0.19256146811 0.84717262383 -0.2539097521 -0.13702208409 0.95747312561 
-0.099388618462 -0.056083937562 0.99346690658 0.013077506939 0.041177620542 0.99906625525 0.11163159405 0.14878591295 0.98254828854 
0.21389291073 0.26010388093 0.94159215899 0.3289146085 0.36803432142 0.86969300249 0.45357560965 0.46583552325 0.75978051542 
0.57012222119 0.54923568169 0.61098348493 0.65506965386 0.61904035654 0.43321217155 0.6938587348 0.67857694894 0.24102568436 
0.68500357778 0.72705079855 0.046553568685 0.63755282712 0.75758937087 -0.13994548144 0.56774072778 0.76335842432 -0.30814668914 
0.4923755197 0.74577859676 -0.44875453447 0.42464091261 0.71204825206 -0.55916668542 0.37114673643 0.67158256728 -0.6412697992 
0.32715707106 0.64710033058 -0.68864316813 0.27392355732 0.68400087819 -0.67609813147 0.12571923666 0.88423737038 -0.44979878431 
-0.25042915549 0.90967895749 0.33131470293 -0.38622169584 0.65719847598 0.64724258577 -0.41339298398 0.62895437406 0.65842435871 
-0.42433370941 0.6739916874 0.60471159107 -0.42745569806 0.73362748957 0.52827297181 -0.42994948285 0.77484346152 0.46342318925 
-0.46284466104 0.73223803732 0.49960211814 -0.20043252699 -0.74750205733 0.63329888395 0.13265759094 -0.9814600559 0.13834060228 
0.10208253419 -0.98707458035 0.12354322741 0.019108457609 -0.9885008463 0.15000314565 -0.094154295192 -0.97958849165 0.17759886183 
-0.23042671182 -0.95327537051 0.19537041346 -0.37932273138 -0.90481454465 0.19345517633 -0.53057092648 -0.83058937784 0.16916198568 
-0.66839343986 -0.7344021928 0.11791364957 -0.78097557792 -0.62292162168 0.045230520036 -0.85945738568 -0.50930965429 -0.044007706652 
-0.90204997301 -0.40679742506 -0.14429726664 -0.91107036172 -0.32546115696 -0.25303326128 -0.88889557931 -0.27002015321 -0.37007264956 
-0.83749970101 -0.23806889753 -0.49185104537 -0.75160034891 -0.22849420855 -0.61877888795 -0.63882204461 -0.22875041703 -0.73456084978 
-0.50997906473 -0.23017562181 -0.82881875984 -0.37784799032 -0.22797787936 -0.8973611217 -0.25277534259 -0.22153783445 -0.94182037252 
-0.12443406019 -0.21792765447 -0.96799984612 0.024920426098 -0.22400965127 -0.97426826311 0.24341879301 -0.2500409528 -0.93713756361 
0.57029492165 -0.29004738948 -0.76852860336 0.87163946453 -0.2923336777 -0.3934280935 0.87163946453 -0.2923336777 -0.3934280935 

FrenetBinormal 3 120 double
-0.49647840296 0.72578147564 0.4761832053 -0.49647840296 0.72578147564 0.4761832053 -0.47465131923 0.72020653565 0.50597299449 
-0.40592104121 0.70462776028 0.58200328844 0.05103498662 0.50255108571 0.86303988111 0.81833185109 -0.54990311731 0.16715125807 
0.76930262833 -0.63701322903 -0.048863197548 0.76311395072 -0.64242014899 -0.070380752913 0.76840436623 -0.63845826882 -0.043883583887 
0.77089289735 -0.63693067619 0.0065920061754 0.76084671315 -0.6445469959 0.075309024519 0.72549995426 -0.66784066347 0.16624880325 
0.64217041654 -0.71177613408 0.28459074313 0.47767627127 -0.76915346396 0.42453307144 0.21443267155 -0.80661733813 0.55080586344 
-0.090212842696 -0.78724962887 0.60999972529 -0.33717137077 -0.72714097763 0.59798115805 -0.49008687721 -0.66979883567 0.55783902025 
-0.56175187773 -0.63836006158 0.52624258632 -0.56639768534 -0.63640682645 0.52362201376 -0.50390603951 -0.65622586603 0.56164607726 
-0.36221056844 -0.67634397793 0.64137534068 -0.14071075453 -0.6588170212 0.7390268034 0.12221234441 -0.57293810138 0.81043573148 
0.35871652876 -0.43035615196 0.82832121455 0.5277145239 -0.27284885853 0.80440716162 0.63214951442 -0.13097840889 0.76369604414 
0.68767358343 -0.023226184107 0.72564839077 0.707317509 0.029058305596 0.70629848955 0.68597297718 -0.035043689431 0.72678264592 
0.48509977045 -0.43428963727 0.75899323032 -0.17625437923 -0.92326947706 0.34133248679 -0.4405805365 -0.89719005299 0.030639838075 
-0.50093849884 -0.86283369952 -0.067665555132 -0.51685031725 -0.84976022407 -0.10379456222 -0.52007762332 -0.84588397857 -0.11831973852 
-0.51916246837 -0.84530049418 -0.12624343937 -0.51478355914 -0.84707268572 -0.13215805817 -0.50762735199 -0.8509127113 -0.13513707578 
-0.50102565882 -0.85478374433 -0.13534415259 -0.50192703444 -0.85422661215 -0.13552175912 -0.52291852988 -0.84024971451 -0.14330606537 
-0.5656659641 -0.80767135008 -0.16640014217 -0.62603502045 -0.75048973526 -0.21176711367 -0.68969760151 -0.66737158384 -0.28094908356 
-0.74187822198 -0.55577714778 -0.37513792898 -0.76574031616 -0.40524322951 -0.499419356 -0.72778684468 -0.19449629917 -0.6576454199 
-0.55586973594 0.099297937592 -0.82531736699 -0.18398542673 0.41893098195 -0.88918288058 0.23812487809 0.59040147961 -0.77118262124 
0.52190904465 0.59986601132 -0.60644185012 0.68324380361 0.54445764241 -0.48656323376 0.77304314508 0.47690619381 -0.41828791299 
0.82239234477 0.41710489161 -0.38690352887 0.8462845817 0.37511770368 -0.37827121905 0.85466097513 0.3544503335 -0.37936734003 
0.85606186642 0.34940133675 -0.38088946786 0.85615222255 0.34879369989 -0.38124313336 0.85600869872 0.34256009209 -0.38717139748 
0.85193963745 0.32951814501 -0.40696025144 0.83684835181 0.31290934429 -0.44919102655 0.79929934691 0.29781110533 -0.52194741074 
0.71394971304 0.28758481613 -0.63841270412 0.51644696873 0.28041800877 -0.8091033734 0.06811643758 0.25013037257 -0.96581310182 
-0.54587882891 0.15103242163 -0.82413925508 -0.86749045386 0.05645269478 -0.49424023078 -0.96693555791 0.011621925339 -0.25475587863 
-0.99499939428 -0.0043368419063 -0.099786758555 -0.99989598057 -0.0055401490292 0.013316711188 -0.99366407672 0.003736286832 0.11232872651 
-0.97633378004 0.025374558388 0.21477542163 -0.94214483665 0.064847202508 0.32887375557 -0.88397721802 0.12670562102 0.45003329169 
-0.80145086006 0.20827979682 0.56062112442 -0.70645893643 0.29848161736 0.64173553372 -0.61568963388 0.38543505239 0.68728894587 
-0.5393172213 0.46309196707 0.70333687863 -0.47830091004 0.53163744145 0.6989920388 -0.42919796843 0.59390632453 0.68048834052 
-0.39014601485 0.64999402508 0.65214557765 -0.35940854673 0.69944528021 0.61773926257 -0.33587786291 0.74092958395 0.58155774678 
-0.32522871294 0.76133019781 0.56089447686 -0.34077655242 0.72640587633 0.59682982847 -0.40773497878 0.45938676635 0.78912355559 
-0.34705559881 -0.40382790396 0.84644871984 -0.20878353033 -0.74576365943 0.63264998359 -0.19530857141 -0.76752215147 0.6105442727 
-0.22261543804 -0.72496901394 0.65181461749 -0.26205492498 -0.65981169068 0.70425545729 -0.29314300175 -0.60528427822 0.7400662964 
-0.26521111314 -0.65217744789 0.71016029312 0.50050275305 -0.63382282847 -0.5897165559 0.52091724352 -0.049706075669 -0.8521587478 
0.52128802351 -0.052694934092 -0.85175233517 0.52560401235 -0.11769486728 -0.84254871694 0.52286438309 -0.20046394165 -0.82850892874 
0.50840005636 -0.28912942451 -0.81113103662 0.48169379249 -0.37162464725 -0.79364111022 0.44472271037 -0.44266414157 -0.77863352654 
0.40615979598 -0.49317000913 -0.76929679723 0.37345333558 -0.52380114543 -0.7656141105 0.35651230176 -0.5354574611 -0.76562672762 
0.36245953764 -0.53238411041 -0.76497728238 0.39581937356 -0.51903668811 -0.75758031912 0.45789123864 -0.49873036896 -0.73593724777 
0.54217739781 -0.47421184913 -0.69366187112 0.64609350954 -0.4440115249 -0.62081957338 0.74740627411 -0.41095053266 -0.52201869807 
0.83180398377 -0.37743283274 -0.40699703851 0.89289708072 -0.34606764878 -0.2880485822 0.93156228137 -0.31865894551 -0.17506625139 
0.95479362328 -0.29174263725 -0.057055854674 0.96194852039 -0.25988192576 0.08435892832 0.93191585398 -0.20752475851 0.29743287596 
0.77880927212 -0.1065655617 0.6181422965 0.42150548875 0.037401195146 0.90605423323 0.42150548875 0.037401195146 0.90605423323 

plain_curvature_peaks 1 120 unsigned_char
0 0 0 0 0 0 0 0 0 
0 0 0 0 0 0 0 0 0 
1 0 0 0 0 0 0 0 0 
0 0 0 0 0 0 0 0 0 
0 0 0 0 0 0 0 0 0 
0 0 0 0 0 0 0 0 0 
0 0 0 0 0 1 0 0 0 
0 0 0 0 0 0 1 0 0 
0 0 0 0 0 0 0 0 0 
0 0 0 0 0 0 0 0 0 
0 0 0 0 0 0 0 0 0 
0 0 0 0 0 0 0 1 0 
0 0 0 0 0 0 0 0 0 
0 0 0 
weighted_curvature_peaks 1 120 unsigned_char
0 0 0 0 0 0 0 0 0 
0 0 0 0 0 0 0 0 0 
0 0 0 1 0 0 0 0 0 
0 0 0 0 0 0 0 0 0 
0 0 0 0 0 0 0 0 0 
0 0 0 0 0 0 0 0 0 
0 0 0 0 0 0 0 0 0 
0 0 1 0 0 0 0 0 0 
0 0 0 1 0 0 0 0 0 
0 0 0 0 0 0 0 0 0 
0 0 0 0 0 0 0 0 0 
0 0 0 0 0 0 0 0 0 
0 0 0 1 0 0 0 0 0 
0 0 0 
plain_torsion_tp 1 120 unsigned_char
0 0 0 0 0 0 0 0 0 
0 0 0 0 0 0 0 0 0 
1 0 0 0 0 0 0 0 0 
0 0 0 0 0 0 0 0 0 
0 0 0 0 0 0 0 0 0 
0 0 0 0 0 0 0 0 0 
0 0 0 0 0 1 0 0 0 
0 0 0 0 0 0 1 0 0 
0 0 0 0 0 0 0 0 0 
0 0 0 0 0 0 0 0 0 
0 0 0 0 0 0 0 0 0 
0 0 0 0 0 0 0 1 0 
0 0 0 0 0 0 0 0 0 
0 0 0 
plain_torsion_tn 1 120 unsigned_char
0 2 0 0 0 0 0 0 0 
0 0 0 0 0 0 0 0 0 
0 0 0 0 0 0 0 0 0 
0 0 0 0 0 0 0 0 0 
0 0 0 0 0 0 0 0 2 
0 0 0 0 0 0 0 0 0 
0 0 0 0 0 0 0 2 0 
0 0 0 0 0 0 0 0 0 
0 0 0 0 0 0 0 0 0 
0 0 2 0 0 0 0 0 0 
0 0 0 0 0 0 0 0 0 
0 0 0 0 0 0 0 0 0 
0 0 0 0 0 0 0 0 0 
0 0 0 
plain_torsion_tz 1 120 unsigned_char
0 0 0 3 0 0 0 0 0 
0 0 0 0 0 0 0 0 0 
0 0 0 0 0 0 0 0 0 
0 0 0 0 0 0 0 0 3 
0 0 0 0 0 0 0 0 0 
0 0 0 0 0 0 0 3 0 
0 0 0 0 0 0 0 0 3 
0 0 0 0 0 0 0 0 0 
0 0 0 3 0 0 0 0 0 
0 0 0 0 0 0 0 0 0 
3 0 0 0 0 0 0 0 0 
0 0 0 0 0 0 0 0 0 
0 0 0 0 0 0 0 0 0 
0 0 0 
weighted_torsion_tp 1 120 unsigned_char
0 0 0 0 0 0 0 0 0 
0 0 0 0 0 0 0 0 0 
0 0 0 1 0 0 0 0 0 
0 0 0 0 0 0 0 0 0 
0 0 0 0 0 0 0 0 0 
0 0 0 0 0 0 0 0 0 
0 0 0 0 0 0 0 0 0 
0 0 1 0 0 0 0 0 0 
0 0 0 1 0 0 0 0 0 
0 0 0 0 0 0 0 0 0 
0 0 0 0 0 0 0 0 0 
0 0 0 0 0 0 0 0 0 
0 0 0 1 0 0 0 0 0 
0 0 0 
weighted_torsion_tn 1 120 unsigned_char
0 0 0 0 0 2 0 0 0 
0 0 0 0 0 0 0 0 0 
0 0 0 0 0 0 0 0 0 
0 0 0 0 0 0 0 0 0 
0 0 0 0 0 0 0 0 0 
0 0 0 2 0 0 0 0 0 
0 0 0 0 0 0 0 0 0 
0 0 0 0 0 0 2 0 0 
0 0 0 0 0 0 0 0 0 
0 0 0 0 0 0 0 2 0 
0 0 0 0 0 0 0 0 0 
0 0 0 0 0 0 0 0 0 
0 0 0 0 0 0 0 0 0 
0 0 0 
weighted_torsion_tz 1 120 unsigned_char
0 0 0 0 0 0 3 0 0 
0 0 0 0 0 0 0 0 0 
0 0 0 0 0 0 0 0 0 
0 0 0 0 0 0 0 0 0 
0 0 3 0 0 0 0 0 0 
0 0 0 0 0 0 0 0 0 
0 0 0 3 0 0 0 0 0 
0 0 0 0 0 0 0 3 0 
0 0 0 0 0 0 0 0 3 
0 0 0 0 0 0 0 0 0 
0 0 0 0 0 3 0 0 0 
0 0 0 0 0 0 0 0 0 
0 0 0 0 0 0 0 0 0 
0 0 0 
plain_torsion_tp_raw 1 120 unsigned_char
0 0 0 0 0 0 0 0 0 
0 0 0 0 0 0 0 0 0 
0 0 0 0 0 0 0 0 0 
1 0 0 0 0 0 0 0 0 
0 0 0 0 0 0 0 0 0 
0 0 0 1 0 0 0 0 0 
0 0 0 0 0 0 0 0 1 
0 0 0 0 0 0 0 0 1 
0 0 0 0 0 0 0 0 0 
0 0 0 0 0 0 0 0 0 
0 0 0 0 0 1 0 0 0 
0 0 0 0 0 0 0 0 0 
0 1 0 0 0 0 0 0 0 
0 0 0 
plain_torsion_tn_raw 1 120 unsigned_char
0 0 0 0 0 0 0 0 0 
0 0 0 0 2 0 0 0 0 
0 0 0 0 0 0 0 0 0 
0 0 0 0 0 0 0 0 0 
0 0 2 0 0 0 0 0 0 
0 0 0 0 0 0 0 0 0 
0 0 0 0 0 0 0 2 0 
2 0 0 0 0 0 0 0 0 
0 0 0 0 0 0 0 0 0 
0 0 0 2 0 0 0 0 0 
0 0 0 0 0 0 0 0 0 
0 0 0 2 0 0 0 0 0 
0 0 0 0 0 0 0 0 0 
0 0 0 
plain_torsion_tz_raw 1 120 unsigned_char
0 3 0 0 0 0 0 0 0 
0 0 0 0 0 0 0 0 0 
0 0 3 0 0 0 0 0 0 
0 0 3 0 0 0 0 0 0 
0 0 0 0 0 0 3 0 0 
0 0 0 0 0 0 0 0 0 
0 0 0 0 0 0 0 0 0 
0 0 0 0 0 0 0 0 0 
0 0 0 0 0 0 0 0 0 
0 0 0 0 0 0 0 0 0 
0 0 0 0 0 0 0 0 0 
0 0 0 0 0 0 0 0 0 
0 0 0 0 0 0 0 0 0 
0 0 0 
weighted_torsion_tp_raw 1 120 unsigned_char
0 0 0 0 0 0 0 0 0 
0 0 0 0 0 0 0 0 0 
0 0 0 0 0 0 0 0 0 
0 0 0 1 0 0 0 0 0 
0 0 0 0 0 0 0 0 0 
0 0 0 0 0 0 0 1 0 
0 0 0 0 0 0 0 0 0 
0 0 0 0 0 0 0 1 0 
0 0 0 0 0 1 0 0 0 
0 0 0 0 0 0 0 0 0 
0 0 0 0 0 0 0 0 0 
0 1 0 0 0 0 0 0 0 
0 0 0 0 0 1 0 0 0 
0 0 0 
weighted_torsion_tn_raw 1 120 unsigned_char
0 0 0 0 0 0 0 0 0 
0 0 0 0 0 0 2 0 0 
0 0 0 0 0 0 0 0 0 
0 0 0 0 0 0 0 0 0 
0 0 0 0 0 2 0 0 0 
0 0 0 0 0 0 0 0 0 
0 0 0 0 0 0 0 0 0 
0 0 0 0 0 2 0 0 2 
0 0 0 0 0 0 0 0 0 
0 0 0 0 0 0 0 0 0 
2 0 0 0 0 0 0 0 0 
0 0 0 0 0 0 0 2 0 
0 0 0 0 0 0 0 0 0 
0 0 0 
weighted_torsion_tz_raw 1 120 unsigned_char
0 0 0 0 0 3 0 0 0 
0 0 0 0 0 0 0 0 0 
0 0 0 0 0 3 0 0 0 
0 0 0 0 0 3 0 0 0 
0 0 0 0 0 0 0 0 0 
0 3 0 0 0 0 0 0 0 
0 0 0 0 0 0 0 0 0 
0 0 0 0 0 0 0 0 0 
0 0 0 0 0 0 0 0 0 
0 0 0 0 0 0 0 0 0 
0 0 0 0 0 0 0 0 0 
0 0 0 0 0 0 0 0 0 
0 0 0 0 0 0 0 0 0 
0 0 0 
