# vtk DataFile Version 5.1
vtk output
ASCII
DATASET POLYDATA
POINTS 120 float
-14.8541 36.7407 -23.1681 -15.3642 36.3948 -22.9265 -15.8359 35.9865 -22.705 
-16.2696 35.5261 -22.5092 -16.6666 35.0223 -22.3447 -17.028 34.4823 -22.2172 
-17.3541 33.9122 -22.1328 -17.6439 33.3179 -22.0984 -17.8953 32.7059 -22.1213 
-18.1055 32.0842 -22.2081 -18.2713 31.4622 -22.3626 -18.3907 30.8499 -22.5841 
-18.4632 30.256 -22.8673 -18.4902 29.6865 -23.204 -18.4743 29.1451 -23.5849 
-18.4185 28.6327 -24.0006 -18.3262 28.1484 -24.4428 -18.2003 27.6902 -24.9042 
-18.0439 27.2553 -25.3785 -17.8598 26.8401 -25.8606 -17.6508 26.4407 -26.346 
-17.4194 26.0533 -26.8308 -17.1681 25.6733 -27.3116 -16.8993 25.2961 -27.7851 
-16.6152 24.9168 -28.2479 -16.3183 24.5299 -28.6961 -16.0108 24.1293 -29.1247 
-15.6956 23.708 -29.527 -15.3766 23.258 -29.8934 -15.0598 22.7699 -30.2091 
-14.7563 22.2339 -30.4508 -14.4876 21.6444 -30.5821 -14.2931 21.0149 -30.5534 
-14.2241 20.3994 -30.3298 -14.304 19.8731 -29.941 -14.5104 19.4704 -29.4601 
-14.809 19.1854 -28.9435 -15.1733 19.0023 -28.4224 -15.5858 18.9082 -27.9134 
-16.0337 18.8933 -27.4263 -16.5062 18.9501 -26.9661 -16.9938 19.0723 -26.5352 
-17.4872 19.254 -26.1327 -17.9778 19.4888 -25.755 -18.4577 19.7696 -25.3952 
-18.9197 20.0886 -25.0439 -19.3574 20.4365 -24.6888 -19.763 20.8019 -24.3139 
-20.1262 21.168 -23.8987 -20.4298 21.5069 -23.4184 -20.6495 21.7726 -22.8548 
-20.7597 21.9103 -22.2189 -20.7546 21.8916 -21.5591 -20.6531 21.7289 -20.9268 
-20.4824 21.4538 -20.3501 -20.2647 21.0949 -19.8386 -20.0164 20.6722 -19.3938 
-19.7499 20.2 -19.014 -19.4753 19.6883 -18.6961 -19.2012 19.1452 -18.4346 
-18.9347 18.5771 -18.2229 -18.6815 17.989 -18.0538 -18.446 17.3846 -17.9201 
-18.2305 16.7675 -17.8129 -18.0345 16.1414 -17.722 -17.8554 15.5094 -17.6368 
-17.6882 14.8747 -17.5472 -17.5265 14.2408 -17.4434 -17.3621 13.6117 -17.317 
-17.1858 12.9928 -17.1607 -16.9873 12.3908 -16.9688 -16.7565 11.8148 -16.7377 
-16.4843 11.2754 -16.467 -16.1651 10.7833 -16.16 -15.7976 10.3472 -15.8239 
-15.3851 9.97104 -15.468 -14.9337 9.65442 -15.1015 -14.4498 9.39378 -14.7322 
-13.9398 9.18376 -14.3657 -13.4092 9.01847 -14.0055 -12.8624 8.89278 -13.6536 
-12.3031 8.80208 -13.3106 -11.7344 8.74348 -12.9763 -11.1587 8.71502 -12.6498 
-10.5787 8.71615 -12.3301 -9.99654 8.74699 -12.0157 -9.41454 8.80814 -11.7055 
-8.83494 8.90021 -11.3984 -8.25976 9.02315 -11.0939 -7.69055 9.17563 -10.7914 
-7.1281 9.35493 -10.4911 -6.57234 9.55699 -10.1927 -6.02236 9.77673 -9.89602 
-5.47658 10.0084 -9.60071 -4.93303 10.2461 -9.30597 -4.38967 10.4834 -9.01067 
-3.8447 10.7144 -8.71331 -3.29674 10.9328 -8.412 -2.74506 11.1324 -8.10449 
-2.18959 11.3059 -7.78823 -1.63122 11.4456 -7.46057 -1.0723 11.5422 -7.11875 
-0.51743 11.5853 -6.75998 0.0256859 11.5638 -6.38201 0.545867 11.4674 -5.98419 
1.02861 11.2882 -5.56848 1.45835 11.024 -5.14026 1.82089 10.6787 -4.70758 
2.10735 10.263 -4.27972 2.31608 9.79146 -3.86486 2.45116 9.27846 -3.46888 
2.5199 8.73626 -3.09517 2.53052 8.1742 -2.74528 2.49072 7.59892 -2.41969 
2.40735 7.01512 -2.11833 2.28663 6.42604 -1.84077 2.13433 5.83387 -1.5862 
1.95557 5.23997 -1.35379 1.75502 4.64509 -1.14259 1.53708 4.04947 -0.951632 

LINES 2 120
OFFSETS vtktypeint64
0 120 
CONNECTIVITY vtktypeint64
0 1 2 3 4 5 6 7 8 
9 10 11 12 13 14 15 16 17 
18 19 20 21 22 23 24 25 26 
27 28 29 30 31 32 33 34 35 
36 37 38 39 40 41 42 43 44 
45 46 47 48 49 50 51 52 53 
54 55 56 57 58 59 60 61 62 
63 64 65 66 67 68 69 70 71 
72 73 74 75 76 77 78 79 80 
81 82 83 84 85 86 87 88 89 
90 91 92 93 94 95 96 97 98 
99 100 101 102 103 104 105 106 107 
108 109 110 111 112 113 114 115 116 
117 118 119 
CELL_DATA 1
FIELD FieldData 2
Length 1 1 double
78.778049581 
Tortuosity 1 1 double
0.84105194549 
POINT_DATA 120
FIELD FieldData 19
Curvature 1 120 double
0 0.17387062597 0.15895277687 0.1482181088 0.14351585259 0.14493042134 0.15164702717 0.16281775234 0.17579039615 
0.18509598804 0.18822255914 0.18243076884 0.17003125475 0.15492760739 0.13788593058 0.12143634066 0.10660579795 0.092239596544 
0.079512484386 0.067872156066 0.057879281952 0.04926603508 0.043744026104 0.042690903325 0.047722711632 0.059442582581 0.078371889702 
0.10547024286 0.14500817848 0.20445496654 0.29423550682 0.42264322929 0.55217891228 0.57071511112 0.46884341841 0.35678314143 
0.27976534832 0.23422397318 0.20489061255 0.1845499928 0.16748524922 0.15121900405 0.1341458833 0.11538528514 0.098132563966 
0.08680217834 0.094579889442 0.13398462741 0.21160434752 0.32176981739 0.42888768761 0.45924890963 0.40975096344 0.33138962688 
0.26779849013 0.22283388785 0.19197445562 0.16909213107 0.14746971447 0.12836896568 0.11198387916 0.097472145003 0.081082841927 
0.061633018079 0.042750681828 0.02965767938 0.034623991476 0.053244162281 0.076921411038 0.10323780347 0.13039804243 0.15535076989 
0.17384014168 0.18187622246 0.17766132362 0.164577267 0.14805205685 0.13026043171 0.11340268388 0.099466568807 0.087131551744 
0.078905714236 0.072746935034 0.069905274031 0.069040777176 0.069778824936 0.071092183092 0.071338382986 0.068922264417 0.063234656414 
0.054283500842 0.042606551702 0.029063803446 0.014430102022 0.0014757676897 0.015688695571 0.030788247491 0.046057629973 0.063139814408 
0.081840627259 0.10352659817 0.12854543683 0.15643127459 0.1850827052 0.21252875523 0.2318437494 0.24218547563 0.23848203497 
0.22181624879 0.19843988387 0.17359513995 0.15060309753 0.13144348758 0.11545987694 0.10181562003 0.089413413922 0.078808946621 
0.069400223649 0.060890898742 0 
Torsion 1 120 double
0 0 -0.13200514453 -0.15179049934 -0.15544782973 -0.14321069537 -0.123307022 -0.098410586704 -0.068688159553 
-0.038604925932 -0.011697142262 0.0097610946952 0.027513147158 0.044085564386 0.06139928022 0.079796651106 0.099375409647 0.1230003698 
0.15235038355 0.19678828144 0.26235470254 0.36258474386 0.47873398596 0.5406607433 0.47707179112 0.35049267286 0.23928080215 
0.16556708052 0.12089500945 0.096264709362 0.084596945502 0.078304396513 0.075811150699 0.08308269592 0.095198386345 0.091904927619 
0.072310097895 0.046178779444 0.013856750547 -0.02298792923 -0.063534070309 -0.11557091132 -0.18695716667 -0.295394722 -0.47385741574 
-0.74050012906 -0.82144352459 -0.58671378995 -0.35457605479 -0.20874786248 -0.12311461611 -0.0826165203 -0.063085688912 -0.055430856867 
-0.058934351913 -0.071942026321 -0.089937909477 -0.11053242234 -0.13569612273 -0.16265955431 -0.18980541888 -0.21709059417 -0.26554633949 
-0.38579124071 -0.69299257703 -1.3550874449 -1.0580461457 -0.52758587418 -0.31562995077 -0.21962492407 -0.16710655403 -0.1348714264 
-0.11360205119 -0.099397788548 -0.091086650967 -0.086019835657 -0.079643737895 -0.069902473032 -0.054996591287 -0.032977861913 -0.0026614016809 
0.035944394913 0.075350813612 0.10263269574 0.11243506425 0.10438423793 0.085113230928 0.061698203402 0.039809439553 0.022447784385 
0.010088404445 0.0031720834681 0.010108416481 0.10875016209 13.596291628 0.057873117449 -0.034495761181 -0.048882532914 -0.04674253483 
-0.046887453282 -0.052580416427 -0.057937681782 -0.057907716618 -0.053837620629 -0.047163045111 -0.04015227616 -0.032044522218 -0.023157354924 
-0.012936138447 -0.0019317878813 0.0086593913914 0.018361525886 0.027803834344 0.038279599413 0.050103978097 0.063865681145 0.080185887373 
0.10254808977 0 0 
FrenetTangent 3 120 double
-0.74276963171 -0.57057698421 0.35033580932 -0.74276963171 -0.57057698421 0.35033580932 -0.68469763414 -0.65697209512 0.31555794402 
-0.62800807573 -0.72898459238 0.27237349521 -0.57330617458 -0.78903567855 0.2207775536 -0.51972633689 -0.83918014319 0.16019120458 
-0.46568020018 -0.8803864964 0.089786235698 -0.40937482424 -0.91232474616 0.0087069414158 -0.34920094197 -0.93336405889 -0.083007443629 
-0.28448867283 -0.94113144811 -0.18258639709 -0.21582890068 -0.9340624471 -0.28450875303 -0.14517259687 -0.91271695881 -0.38193280852 
-0.075317780337 -0.8800136149 -0.46893844964 -0.0084024561265 -0.83996581923 -0.54257425414 0.054224312655 -0.79656727772 -0.602113192 
0.11192170719 -0.75316369232 -0.64824222635 0.16486297173 -0.71196146964 -0.68259143439 0.2132022192 -0.67455595174 -0.70676663879 
0.25708438176 -0.64204621636 -0.72227714675 0.29677568222 -0.61505217322 -0.73050326396 0.33251936702 -0.59403752198 -0.7324959338 
0.36444840231 -0.57941613836 -0.72900912248 0.39267176023 -0.57161629472 -0.72046075558 0.41737640971 -0.57108816013 -0.70686296125 
0.43861553374 -0.57845705717 -0.68775275105 0.45634071356 -0.59455643565 -0.6620089108 0.47020116983 -0.62061311475 -0.62749519654 
0.47913310139 -0.65820364511 -0.58068875718 0.48071803622 -0.70924181762 -0.51564155552 0.46965102783 -0.77544361868 -0.4220368542 
0.43459886197 -0.85490084137 -0.28331674959 0.3541364896 -0.93189799377 -0.078444094377 0.20314903212 -0.95963680062 0.19449339745 
-0.0084221932119 -0.88120932071 0.47265124538 -0.21951682415 -0.71224088003 0.66672730013 -0.3847012461 -0.52394192993 0.75992750003 
-0.50317619685 -0.35532875593 0.7877532546 -0.58868999654 -0.21003626841 0.7805951921 -0.6514500813 -0.082555429107 0.75418657685 
-0.69650529948 0.03168649232 0.71685168201 -0.72620324923 0.13544456445 0.67400564595 -0.74170638322 0.22976219707 0.6301436137 
-0.74376559842 0.31475417295 0.58969699441 -0.73327901496 0.38957568821 0.55725458219 -0.71149629196 0.45306362361 0.53712789864 
-0.67947795222 0.50368358836 0.53349091394 -0.63696695859 0.53876436214 0.55136744168 -0.5810865606 0.55290075781 0.59719273363 
-0.50497611941 0.53393812953 0.67816605095 -0.39800275482 0.45981572275 0.79382826119 -0.25220934441 0.30846717702 0.91719051853 
-0.08051816886 0.091171031768 0.99257476668 0.081367739243 -0.13858842285 0.98700179334 0.20709960212 -0.33307896559 0.91987399 
0.29473665626 -0.4810629137 0.82565657299 0.35303273534 -0.59211439946 0.72440901826 0.38962436861 -0.67726860298 0.62409942381 
0.40929575697 -0.74429306211 0.52773555975 0.41485043759 -0.79749790609 0.4380595898 0.40857093197 -0.83972669385 0.35767145984 
0.39264555771 -0.87353055727 0.28770441694 0.36913360951 -0.90079607806 0.22870680811 0.34060805197 -0.9224315269 0.18195118333 
0.31068565936 -0.93866856753 0.1495852312 0.2831515756 -0.94982094143 0.13291111488 0.26140374108 -0.95617236432 0.13191851221 
0.2482798253 -0.95762566026 0.14598021497 0.24618026772 -0.95351149097 0.17381344132 0.25726323191 -0.94245063281 0.21354726461 
0.28312247736 -0.92230282992 0.26305731833 0.32448007215 -0.89024226782 0.31965823526 0.38036930824 -0.84342320706 0.3794159764 
0.44736335342 -0.78032473255 0.43698894927 0.51958398825 -0.70235512982 0.48654881644 0.59009478094 -0.61455621967 0.52355401093 
0.65342364103 -0.52394576692 0.54636835437 0.70716439074 -0.43642699822 0.55628230216 0.75113363833 -0.35570781175 0.55612067938 
0.78620893628 -0.2835635446 0.5490603106 0.8138522329 -0.21979673181 0.53789770374 0.83536362282 -0.16342749363 0.52484194954 
0.8518595561 -0.11274950683 0.51149080675 0.86413580855 -0.06573777711 0.49894673969 0.87262589503 -0.020634189862 0.48795315095 
0.87757546165 0.02413807972 0.47883051513 0.87905574485 0.069463777589 0.47163097973 0.87712857038 0.11569866116 0.4661108139 
0.87197605365 0.16234983749 0.46184444581 0.86411050814 0.20796234767 0.45832814847 0.85445715474 0.25050845546 0.45513567698 
0.84423455792 0.28792067032 0.45207266983 0.83474981409 0.31843303231 0.44921392656 0.82715847928 0.34079386916 0.4468426892 
0.82226823706 0.35426338555 0.44539016601 0.82042822062 0.35851676933 0.44537990629 0.82151449466 0.35352234525 0.4473654954 
0.82502956123 0.33924802878 0.45192587674 0.83016681994 0.31554722134 0.45962267369 0.83595214837 0.28172049 0.47097512795 
0.84116931506 0.23655201658 0.48628934478 0.84402614419 0.17847145402 0.50573491874 0.84173940855 0.10555714479 0.52946431162 
0.83027483473 0.016329748382 0.55711492364 0.80461511038 -0.089204640147 0.58705796674 0.75952031534 -0.20872511264 0.61608661562 
0.69145920388 -0.33602325064 0.63950961244 0.60057708867 -0.46198800632 0.65259040951 0.49190434227 -0.57672781105 0.65223856833 
0.37511948461 -0.67212126276 0.63838732789 0.26026352642 -0.74532764651 0.61379931262 0.15418507662 -0.79824629569 0.58226266715 
0.060003273647 -0.83491154686 0.54710356979 -0.022054556344 -0.85958423496 0.51051791306 -0.093065803821 -0.87575661954 0.47369726566 
-0.15416785302 -0.88599324479 0.4373193836 -0.20620530996 -0.89216319951 0.40190072852 -0.25000560715 -0.89568598955 0.36775508767 
-0.28641236738 -0.89764209386 0.3349725767 -0.31597492224 -0.89886814323 0.30363779343 -0.31597492224 -0.89886814323 0.30363779343 

FrenetNormal 3 120 double
0.50604534395 -0.82102420657 -0.26426759563 0.50604534395 -0.82102420657 -0.26426759563 0.54813195414 -0.74953410396 -0.37114685485 
0.56659231264 -0.6682412817 -0.4821065657 0.56653406536 -0.57641295681 -0.58888645426 0.55717491618 -0.47508215982 -0.68106758417 
0.54637151339 -0.3658404336 -0.75341817505 0.53869547269 -0.24940152864 -0.80473974999 0.53831255626 -0.12731147379 -0.83307345439 
0.54779001395 -0.0032796181467 -0.8366094338 0.5657254204 0.11786703966 -0.81612628292 0.5882711316 0.23075392572 -0.77504174178 
0.61161192694 0.33065703848 -0.71874666867 0.63515367791 0.41459834342 -0.65168091814 0.66000459616 0.48108700098 -0.57701753052 
0.68740755897 0.52975745333 -0.49681776187 0.71854836127 0.56077792029 -0.41135918201 0.75397681597 0.57365263898 -0.32006501022 
0.79365117994 0.56670797469 -0.2212687868 0.8377915078 0.5348102772 -0.1099243233 0.88383828527 0.46726153026 0.022283353203 
0.91993964183 0.34551591081 0.18528305578 0.91302147865 0.14820714159 0.38003476512 0.81207276212 -0.11470554153 0.57217171179 
0.61682971038 -0.36277598612 0.69850890638 0.40373615895 -0.52464588498 0.74949570334 0.22538851154 -0.60297871531 0.76525596224 
0.084651269174 -0.62383606675 0.77695735047 -0.033994463616 -0.60267593419 0.79726162255 -0.1478033719 -0.54035229586 0.82835593776 
-0.27039756436 -0.42392222178 0.86439291244 -0.40715476114 -0.22915001564 0.88414663423 -0.53946178003 0.056074042366 0.84014087489 
-0.62164061461 0.37484777158 0.68778782659 -0.63304097235 0.62398311133 0.45815303568 -0.59732584859 0.7689693737 0.22778922914 
-0.53976534327 0.84110338622 0.034618895018 -0.4721532361 0.87315374814 -0.12113568322 -0.39486273021 0.88571343072 -0.24412116446 
-0.3055943546 0.89079580034 -0.33629590026 -0.20410134183 0.89372155045 -0.39950523466 -0.088243906634 0.89790238979 -0.43125898408 
0.048570601875 0.90531424187 -0.42195618267 0.21326441591 0.91000124446 -0.35555031146 0.41549653854 0.88769672654 -0.19838636081 
0.64190753704 0.76026260396 0.099777186331 0.77047931338 0.4215542368 0.47817742846 0.72356885018 0.015085871999 0.69008733905 
0.64211813987 -0.29265231037 0.70854704832 0.60112709592 -0.52294446186 0.60429736419 0.59623062829 -0.69700325021 0.3983660466 
0.58882832421 -0.79912421201 0.12116805846 0.54898099804 -0.82029237764 -0.16043777292 0.48296235035 -0.78289024949 -0.39221196489 
0.40324887479 -0.72072114274 -0.56387177565 0.31427069928 -0.65422977343 -0.68790793798 0.21671791298 -0.5911999014 -0.77686293693 
0.10932836568 -0.53422770703 -0.83824105453 -0.0082174395907 -0.48470675586 -0.87463811631 -0.13563802348 -0.44338076942 -0.88601118497 
-0.27200062005 -0.4091307226 -0.8709923734 -0.41442148793 -0.37980580191 -0.82704436591 -0.56252165289 -0.35499717584 -0.74669029402 
-0.72395291465 -0.33566048249 -0.60268085905 -0.89907577829 -0.31112343343 -0.30800154881 -0.91687122185 -0.20326026063 0.34355847973 
-0.35955727969 0.048829153129 0.93184455594 0.11352274249 0.20646522176 0.97184602646 0.35498596056 0.29770392532 0.88620389339 
0.49028168953 0.37491452078 0.78680554588 0.56807655014 0.45361824244 0.68667279202 0.6084433894 0.53717995925 0.58415266265 
0.61979433377 0.6227518742 0.47753019486 0.60801688538 0.70401722854 0.36698121069 0.57944874724 0.77395965912 0.2553930214 
0.54158153843 0.82784286557 0.14616985721 0.4998312135 0.86504180918 0.0432599859 0.45711839565 0.88803243217 -0.049408215659 
0.41444143162 0.90101318038 -0.128115372 0.37126493808 0.90880082896 -0.19037699189 0.32568584821 0.91630474043 -0.23305439484 
0.27431571525 0.92795058119 -0.2523065739 0.21401906963 0.94531633753 -0.24611554163 0.14495149535 0.96503077047 -0.21841400147 
0.07001812869 0.98157124962 -0.17780704026 -0.0054173716776 0.99071872634 -0.13581994466 -0.076938654948 0.99186426711 -0.1014185338 
-0.14155193364 0.98672499975 -0.079604176691 -0.19747040353 0.9777106077 -0.071326063413 -0.24414804992 0.96692247026 -0.073842171045 
-0.2816048547 0.95593930032 -0.082938289828 -0.30978351157 0.94605210915 -0.09497148378 -0.3299892188 0.9381647006 -0.10466188429 
-0.35261497713 0.93144202541 -0.089880093486 -0.29774329288 -0.39711142858 0.86813100672 0.23495496803 -0.92477034122 0.29932587425 
0.22189991929 -0.92999798121 0.29302590459 0.18499107309 -0.93361346824 0.30682926 0.13770030832 -0.93840602053 0.31691128999 
0.081719397501 -0.94452763974 0.31810293591 0.01335484214 -0.94970580601 0.31285864255 -0.070829164923 -0.95063251326 0.30212754614 
-0.1704575742 -0.94423659409 0.28171167847 -0.28260460872 -0.92703125399 0.24647046326 -0.40306576871 -0.89439600518 0.19389113446 
-0.52451584668 -0.84223686534 0.12458005152 -0.63765873869 -0.7691551757 0.042327871015 -0.73334569871 -0.67825306058 -0.046656960909 
-0.80484663338 -0.57782480699 -0.13542669293 -0.85100620663 -0.47738641791 -0.21883931154 -0.87516203416 -0.38386704927 -0.29451231291 
-0.88226495925 -0.30073195972 -0.36217237621 -0.87673295205 -0.22877973807 -0.42308292596 -0.86132015316 -0.16784932206 -0.47953539896 
-0.83741862523 -0.11773027449 -0.53373179463 -0.80562457248 -0.078328980443 -0.58722535626 -0.76578671188 -0.049513272656 -0.64118573576 
-0.71584593225 -0.031890409274 -0.69752964315 -0.65137098082 -0.027171249565 -0.75827275339 -0.65137098082 -0.027171249565 -0.75827275339 

FrenetBinormal 3 120 double
0.43841918762 -0.019004139554 0.89856967376 0.43841918762 -0.019004139554 0.89856967376 0.48035456764 -0.081155980936 0.873311626 
0.53345947182 -0.14844208806 0.83269798752 0.59191146549 -0.21253423537 0.77747669793 0.64764237626 -0.26471423971 0.71448283658 
0.69614662285 -0.3017952851 0.65138274876 0.73635551263 -0.32474980379 0.59356391733 0.76699302076 -0.33559398417 0.54689887904 
0.78676063427 -0.33802491251 0.51647542331 0.79584711744 -0.33709747237 0.50298375697 0.79552623643 -0.3371948678 0.50342589155 
0.78756465308 -0.34094275251 0.51332246855 0.77234008323 -0.35009375338 0.53002373501 0.74930211328 -0.36610909515 0.5518246764 
0.71759625092 -0.39000191436 0.57702177382 0.67565409276 -0.4226570594 0.60403026172 0.62134030508 -0.46464708948 0.63090356436 
0.55138500636 -0.5163513605 0.6552525065 0.45828984703 -0.57938656493 0.67400417246 0.32903002302 -0.6548175966 0.68040661309 
0.14452825826 -0.73817050468 0.65895059647 -0.11045663509 -0.80702506454 0.58009471379 -0.40784158892 -0.81283513218 0.41588975251 
-0.65355758885 -0.73060318704 0.19769031626 -0.79293774479 -0.60930233891 0.00062665409147 -0.85329413379 -0.50125445702 -0.14364223114 
-0.87365075046 -0.42142202527 -0.24318273549 -0.87621603848 -0.36572908345 -0.31382748673 -0.87039190903 -0.32665974746 -0.3683901927 
-0.85907449407 -0.29905601701 -0.41539922042 -0.84190994009 -0.28116969883 -0.46057708719 -0.81713613225 -0.27559555997 -0.50629598921 
-0.78325730953 -0.28802652871 -0.55095254409 -0.74234189646 -0.321493399 -0.58785245016 -0.70370930209 -0.36629353853 -0.60878753418 
-0.67488301885 -0.40778250195 -0.61501735095 -0.65613673089 -0.43987191097 -0.6131861808 -0.6478396529 -0.45683292326 -0.60959614858 
-0.64922450527 -0.45329770383 -0.61076078252 -0.65648418341 -0.42768745623 -0.6213790765 -0.66489446834 -0.37547387552 -0.64570482015 
-0.66667355673 -0.28519455477 -0.68862938849 -0.64561612056 -0.14187500917 -0.75036744775 -0.56668832086 0.082023622541 -0.81983929666 
-0.35533706017 0.41024823685 -0.83989996894 0.025193676161 0.72940043016 -0.68362291591 0.37254063958 0.83311053797 -0.40882796306 
0.57678714729 0.79326206204 -0.19506893051 0.69299352213 0.71770369298 -0.068274353639 0.7621676223 0.64732871857 -0.0081268459737 
0.80423754519 0.59421236671 0.01065993239 0.83186486571 0.55489968844 0.0093370744053 0.85079793309 0.52549144611 -0.0012716590971 
0.86632594815 0.49913876574 -0.018434861057 0.88125014346 0.47051454974 -0.044880320079 0.89511239382 0.43793825592 -0.083569650145 
0.90582795926 0.4007849732 -0.13728478968 0.90985250899 0.35924427706 -0.20763420064 0.90259189014 0.31348456571 -0.2950513632 
0.87854716931 0.26373550642 -0.39824421397 0.83186249385 0.21050885629 -0.51350833756 0.75336282425 0.15197724608 -0.6398026037 
0.61592742952 0.078951635964 -0.78383674368 0.33389808345 -0.032286040222 -0.94205609253 -0.30168733268 -0.21075975935 -0.92981991651 
-0.89948634841 -0.28384645253 -0.33219798375 -0.96255278438 -0.21951753643 0.15907290302 -0.89877727904 -0.15218139689 0.41114501715 
-0.82429699 -0.093790148876 0.55833491764 -0.75630795048 -0.04122128959 0.65291583633 -0.69650257088 0.0086593984763 0.7175020443 
-0.64476430875 0.057213765339 0.76223721453 -0.60028988518 0.1051523349 0.79283985787 -0.5621630536 0.15266662673 0.8128133871 
-0.52889222208 0.2003921736 0.82469145393 -0.50008727486 0.24745533656 0.82986660008 -0.47627831121 0.29132516554 0.82963161596 
-0.45838172768 0.32827879151 0.8259050955 -0.44699763842 0.35464129761 0.82123240394 -0.44282767071 0.36561875909 0.81867366945 
-0.44619074962 0.35523973254 0.82141253179 -0.45548341597 0.31946136959 0.83095083556 -0.46638300924 0.26132325241 0.84510179649 
-0.47429818761 0.18956591207 0.85971273936 -0.47668820997 0.1168383023 0.87127329902 -0.4740526494 0.053095154487 0.87889418599 
-0.46863718582 0.0040379614988 0.88338150475 -0.46294542816 -0.028872643527 0.88591641875 -0.45857900131 -0.048025516614 0.88735497368 
-0.4560336797 -0.057286488054 0.88811685113 -0.45522184024 -0.059881639187 0.88836212518 -0.45488016623 -0.060881304886 0.88846918972 
-0.44669634454 -0.083145697185 0.89081376775 0.48810497473 -0.84484805699 -0.21905545928 0.51952872689 -0.14078979865 -0.84277407087 
0.51969861354 -0.14147271792 -0.84255493659 0.52592903889 -0.16969337942 -0.83342834307 0.53124629949 -0.20006925338 -0.82325552724 
0.53456161803 -0.22783915645 -0.81383855605 0.53613572547 -0.25730686375 -0.80395998765 0.53521771037 -0.29181417704 -0.79270832504 
0.53064857883 -0.32886257571 -0.7811923528 0.52223477409 -0.36421914599 -0.77111299718 0.51055545897 -0.3955876809 -0.76344188386 
0.49675677746 -0.42157494907 -0.7586219522 0.48238832234 -0.44155112696 -0.75652766556 0.46929117213 -0.45536558695 -0.75657648522 
0.45989919439 -0.46300270039 -0.75770787935 0.4561264442 -0.46539113372 -0.75852472574 0.45860481475 -0.46416477667 -0.7577814223 
0.46691342756 -0.46095878051 -0.75465810394 0.48047156766 -0.45691878322 -0.74858018823 0.49946606484 -0.45263334878 -0.73868579359 
0.52436849564 -0.44850368187 -0.72379702136 0.55538132698 -0.4448700892 -0.7025967445 0.59250983815 -0.44192198853 -0.67352583302 
0.63681438198 -0.43956987285 -0.63343963389 0.68983744017 -0.43737602161 -0.57691119062 0.68983744017 -0.43737602161 -0.57691119062 

plain_curvature_peaks 1 120 unsigned_char
0 0 0 0 0 0 0 0 0 
0 0 1 0 0 0 0 0 0 
0 0 0 0 1 0 0 0 0 
0 0 0 0 0 0 0 0 0 
0 0 0 0 0 0 0 0 0 
0 0 0 0 0 0 0 0 0 
0 0 1 0 0 0 0 0 0 
0 0 0 0 0 0 0 0 0 
0 0 0 0 0 0 0 0 0 
0 0 0 0 0 0 0 0 0 
0 0 0 0 0 0 0 0 0 
0 1 0 0 0 0 0 0 0 
0 0 0 0 0 0 0 0 0 
0 0 0 
weighted_curvature_peaks 1 120 unsigned_char
0 0 0 0 0 0 0 0 0 
0 0 0 0 1 0 0 0 0 
0 0 0 0 0 0 0 0 0 
1 0 0 0 0 0 0 0 0 
0 0 0 0 0 0 0 0 0 
0 0 0 0 0 0 0 0 0 
0 0 0 0 0 0 0 1 0 
0 0 0 0 0 0 0 0 0 
0 0 0 0 0 0 0 0 0 
0 0 0 0 0 0 0 0 0 
0 0 0 0 0 0 0 0 0 
0 0 0 0 0 0 1 0 0 
0 0 0 0 0 0 0 0 0 
0 0 0 
plain_torsion_tp 1 120 unsigned_char
0 0 0 0 0 0 0 0 0 
0 0 1 0 0 0 0 0 0 
0 0 0 0 1 0 0 0 0 
0 0 0 0 0 0 0 0 0 
0 0 0 0 0 0 0 0 0 
0 0 0 0 0 0 0 0 0 
0 0 1 0 0 0 0 0 0 
0 0 0 0 0 0 0 0 0 
0 0 0 0 0 0 0 0 0 
0 0 0 0 0 0 0 0 0 
0 0 0 0 0 0 0 0 0 
0 1 0 0 0 0 0 0 0 
0 0 0 0 0 0 0 0 0 
0 0 0 
plain_torsion_tn 1 120 unsigned_char
0 2 0 0 0 0 0 0 0 
0 0 0 0 0 0 0 0 0 
2 0 0 0 0 0 0 0 0 
2 0 0 0 0 0 0 0 0 
0 0 0 0 0 0 0 0 0 
0 0 0 0 0 0 0 0 0 
0 0 0 0 0 0 0 0 0 
0 0 0 0 0 0 0 0 0 
0 0 0 0 0 2 0 0 0 
0 0 0 0 0 0 0 0 0 
0 0 0 0 0 0 0 0 0 
0 0 0 0 0 0 0 0 0 
0 0 0 0 0 0 0 0 0 
0 0 0 
plain_torsion_tz 1 120 unsigned_char
0 0 3 0 0 0 0 0 0 
0 0 0 0 0 0 0 3 0 
0 3 0 0 0 0 0 0 0 
0 0 0 0 0 0 0 3 0 
0 0 0 0 0 0 0 0 0 
0 0 0 0 0 0 0 0 0 
0 0 0 0 0 0 0 0 0 
0 0 0 0 0 3 0 0 0 
0 0 0 0 0 0 0 0 0 
0 0 3 0 0 0 0 0 0 
0 0 0 0 0 0 0 0 0 
0 0 0 0 0 0 0 0 0 
0 0 0 0 0 0 0 0 0 
0 0 0 
weighted_torsion_tp 1 120 unsigned_char
0 0 0 0 0 0 0 0 0 
0 0 0 0 1 0 0 0 0 
0 0 0 0 0 0 0 0 0 
1 0 0 0 0 0 0 0 0 
0 0 0 0 0 0 0 0 0 
0 0 0 0 0 0 0 0 0 
0 0 0 0 0 0 0 1 0 
0 0 0 0 0 0 0 0 0 
0 0 0 0 0 0 0 0 0 
0 0 0 0 0 0 0 0 0 
0 0 0 0 0 0 0 0 0 
0 0 0 0 0 0 1 0 0 
0 0 0 0 0 0 0 0 0 
0 0 0 
weighted_torsion_tn 1 120 unsigned_char
0 0 0 0 2 0 0 0 0 
0 0 0 0 0 0 0 0 0 
0 0 0 2 0 0 0 0 0 
0 0 0 0 0 2 0 0 0 
0 0 0 0 0 0 0 0 0 
0 0 0 0 0 0 0 0 0 
0 0 0 0 0 0 0 0 0 
0 0 0 0 0 0 0 0 0 
0 0 0 0 0 0 0 0 0 
0 2 0 0 0 0 0 0 0 
0 0 0 0 0 0 0 0 0 
0 0 0 0 0 0 0 0 0 
0 0 0 0 0 0 0 0 0 
0 0 0 
weighted_torsion_tz 1 120 unsigned_char
0 0 0 0 0 3 0 0 0 
0 0 0 0 0 0 0 0 0 
0 3 0 0 0 3 0 0 0 
0 0 0 0 0 0 0 0 0 
0 0 3 0 0 0 0 0 0 
0 0 0 0 0 0 0 0 0 
0 0 0 0 0 0 0 0 0 
0 0 0 0 0 0 0 0 0 
0 3 0 0 0 0 0 0 0 
0 0 0 0 0 0 0 3 0 
0 0 0 0 0 0 0 0 0 
0 0 0 0 0 0 0 0 0 
0 0 0 0 0 0 0 0 0 
0 0 0 
plain_torsion_tp_raw 1 120 unsigned_char
0 0 0 0 0 0 0 0 0 
0 0 0 0 0 1 0 0 0 
1 0 0 0 0 0 0 0 0 
0 0 0 0 0 1 0 0 0 
0 0 0 0 0 0 0 0 0 
0 0 0 0 0 0 0 0 0 
0 0 0 0 0 0 0 0 1 
0 0 0 0 0 0 0 0 0 
0 0 0 0 0 0 0 0 0 
0 0 0 0 0 0 0 1 0 
0 0 0 0 0 0 0 0 0 
0 0 0 0 1 0 0 0 0 
0 0 0 0 0 0 0 0 0 
0 0 0 
plain_torsion_tn_raw 1 120 unsigned_char
0 0 0 0 0 0 0 0 0 
2 0 0 0 0 0 0 2 0 
0 0 0 0 0 0 2 0 0 
0 0 0 0 0 0 0 0 0 
0 0 0 0 2 0 0 0 0 
0 0 0 0 0 0 0 0 0 
0 0 0 0 0 0 0 0 0 
0 0 0 0 0 0 0 0 0 
0 0 0 0 0 0 2 0 0 
0 0 0 0 0 0 0 0 0 
0 0 0 0 0 2 0 0 0 
0 0 0 0 0 0 0 0 0 
0 0 0 0 0 0 0 0 0 
0 0 0 
plain_torsion_tz_raw 1 120 unsigned_char
0 3 0 0 0 0 0 0 0 
0 0 0 3 0 0 3 0 3 
0 0 0 0 0 0 0 0 0 
0 0 0 0 0 0 0 0 0 
0 0 0 0 0 0 0 0 0 
0 0 0 0 0 0 0 0 0 
0 0 0 0 0 0 0 0 0 
0 0 0 0 0 0 0 0 0 
0 0 0 0 0 0 0 0 0 
0 0 0 0 0 0 0 0 0 
0 0 0 0 0 0 0 0 0 
0 0 0 0 0 0 0 0 0 
0 0 0 0 0 0 0 0 0 
0 0 0 
weighted_torsion_tp_raw 1 120 unsigned_char
0 0 0 0 0 0 0 0 0 
0 0 0 0 0 0 0 0 1 
0 0 0 1 0 0 0 0 0 
0 0 0 0 0 0 0 1 0 
0 0 0 0 0 0 0 0 0 
0 0 0 0 0 0 0 0 0 
0 0 0 0 0 0 0 0 0 
0 0 0 1 0 0 0 0 0 
0 0 0 0 0 0 0 0 0 
0 0 0 0 0 0 0 0 0 
0 0 0 0 1 0 0 0 0 
0 0 0 0 0 0 0 0 0 
1 0 0 0 0 0 0 0 0 
0 0 0 
weighted_torsion_tn_raw 1 120 unsigned_char
0 0 0 0 0 0 0 0 0 
0 2 0 0 0 0 0 0 0 
0 0 2 0 0 0 0 0 0 
0 0 2 0 0 0 0 0 0 
0 0 0 0 0 0 0 0 2 
0 0 0 0 0 0 0 0 0 
0 0 0 0 0 0 0 0 0 
0 0 0 0 0 0 0 0 0 
0 0 0 0 0 0 0 0 0 
0 0 2 0 0 0 0 0 0 
0 0 0 0 0 0 0 0 0 
0 2 0 0 0 0 0 0 0 
0 0 0 0 0 0 0 0 0 
0 0 0 
weighted_torsion_tz_raw 1 120 unsigned_char
0 0 0 0 3 0 0 0 0 
0 0 0 0 0 3 0 0 3 
0 0 0 3 0 0 0 0 0 
0 0 0 0 0 0 0 0 0 
0 0 0 0 0 0 0 0 0 
0 0 0 0 0 0 0 0 0 
0 0 0 0 0 0 0 0 0 
0 0 0 0 0 0 0 0 0 
0 0 0 0 0 0 0 0 0 
0 0 0 0 0 0 0 0 0 
0 0 0 0 0 0 0 0 0 
0 0 0 0 0 0 0 0 0 
0 0 0 0 0 0 0 0 0 
0 0 0 
