# vtk DataFile Version 5.1
vtk output
ASCII
DATASET POLYDATA
POINTS 120 float
-3.37684 22.0434 -4.16702 -3.65521 21.3892 -3.42545 -3.89956 20.7638 -2.89874 
-4.11841 20.1665 -2.57141 -4.32008 19.597 -2.42759 -4.51212 19.0544 -2.45036 
-4.7006 18.5371 -2.62099 -4.88945 18.0429 -2.91869 -5.08034 17.5687 -3.32111 
-5.27298 17.1116 -3.80576 -5.46575 16.6693 -4.35166 -5.65608 16.2404 -4.94075 
-5.84049 15.8244 -5.55855 -6.0143 15.4213 -6.19402 -6.17142 15.0308 -6.83911 
-6.30424 14.6523 -7.48812 -6.4042 14.2848 -8.1371 -6.46263 13.927 -8.78336 
-6.47189 13.5771 -9.42515 -6.42646 13.233 -10.0614 -6.32375 12.8916 -10.6918 
-6.16481 12.5488 -11.3162 -5.95478 12.1993 -11.9344 -5.70333 11.8359 -12.5451 
-5.42459 11.4503 -13.1446 -5.13635 11.0338 -13.7255 -4.85816 10.5793 -14.2758 
-4.60861 10.0833 -14.7779 -4.4027 9.54824 -15.2102 -4.24999 8.98364 -15.5484 
-4.15393 8.40608 -15.7689 -4.1127 7.83743 -15.8524 -4.12092 7.30174 -15.7876 
-4.17182 6.82291 -15.5741 -4.2591 6.422 -15.2235 -4.37826 6.11593 -14.758 
-4.52686 5.91752 -14.2076 -4.70366 5.83518 -13.6046 -4.90708 5.87269 -12.9789 
-5.13361 6.02839 -12.3541 -5.37702 6.29397 -11.7443 -5.62869 6.65389 -11.1542 
-5.8785 7.08535 -10.58 -6.11635 7.55925 -10.0116 -6.33345 8.04214 -9.43653 
-6.52376 8.49832 -8.84299 -6.68476 8.89301 -8.22327 -6.81764 9.19443 -7.57612 
-6.92685 9.37725 -6.90814 -7.01884 9.4246 -6.23387 -7.10012 9.32897 -5.57444 
-7.17504 9.0928 -4.95513 -7.24389 8.72712 -4.40219 -7.30218 8.24966 -3.93916 
-7.34168 7.68216 -3.58314 -7.35273 7.0477 -3.34163 -7.3271 6.36885 -3.21022 
-7.26039 5.66609 -3.17171 -7.15327 4.95667 -3.19726 -7.01132 4.25386 -3.25016 
-6.84377 3.5669 -3.29151 -6.66151 2.90026 -3.28692 -6.47514 2.25359 -3.21254 
-6.29315 1.62219 -3.05923 -6.12097 0.997715 -2.83352 -5.96055 0.369554 -2.55536 
-5.81069 -0.273474 -2.25297 -5.66778 -0.940491 -1.95629 -5.52652 -1.63687 -1.69043 
-5.38073 -2.36234 -1.47065 -5.22382 -3.10987 -1.2997 -5.04917 -3.86602 -1.16795 
-4.85042 -4.61186 -1.05586 -4.62184 -5.32524 -0.937968 -4.35884 -5.98314 -0.787768 
-4.0584 -6.56577 -0.582523 -3.71949 -7.05907 -0.307001 -3.34304 -7.45714 0.0442763 
-2.93156 -7.76367 0.466627 -2.48843 -7.99098 0.946401 -2.01716 -8.15799 1.46369 
-1.52083 -8.28617 1.99564 -1.00194 -8.39525 2.51994 -0.462584 -8.4995 3.01803 
0.095146 -8.60518 3.47751 0.668624 -8.71065 3.89373 1.25419 -8.80869 4.27005 
1.84692 -8.8897 4.61685 2.44086 -8.94519 4.94943 3.02978 -8.97045 5.28505 
3.60821 -8.96553 5.63943 4.1726 -8.93525 6.02401 4.7217 -8.88789 6.4444 
5.25647 -8.83438 6.90054 5.77938 -8.78675 7.38802 6.29363 -8.75688 7.89961 
6.80257 -8.75448 8.42727 7.30938 -8.78628 8.96308 7.81702 -8.85539 9.49963 
8.32803 -8.9614 10.0305 8.84379 -9.10186 10.5501 9.36408 -9.27397 11.0539 
9.88669 -9.47587 11.5379 10.4072 -9.70835 11.9989 10.9196 -9.97563 12.4337 
11.4171 -10.2844 12.8395 11.893 -10.6427 13.2139 12.3413 -11.0577 13.5569 
12.7575 -11.5335 13.8708 13.1384 -12.0693 14.1614 13.4827 -12.6594 14.4378 
13.7901 -13.2936 14.7108 14.0615 -13.9587 14.9916 14.298 -14.6406 15.2899 
14.5007 -15.3258 15.6107 14.6699 -16.0034 15.9539 14.8049 -16.6667 16.3125 
14.904 -17.3135 16.6729 14.9651 -17.946 17.0169 14.9862 -18.5699 17.3236 

LINES 2 120
OFFSETS vtktypeint64
0 120 
CONNECTIVITY vtktypeint64
0 1 2 3 4 5 6 7 8 
9 10 11 12 13 14 15 16 17 
18 19 20 21 22 23 24 25 26 
27 28 29 30 31 32 33 34 35 
36 37 38 39 40 41 42 43 44 
45 46 47 48 49 50 51 52 53 
54 55 56 57 58 59 60 61 62 
63 64 65 66 67 68 69 70 71 
72 73 74 75 76 77 78 79 80 
81 82 83 84 85 86 87 88 89 
90 91 92 93 94 95 96 97 98 
99 100 101 102 103 104 105 106 107 
108 109 110 111 112 113 114 115 116 
117 118 119 
CELL_DATA 1
FIELD FieldData 2
Length 1 1 double
84.831464524 
Tortuosity 1 1 double
0.71438501619 
POINT_DATA 120
FIELD FieldData 19
Curvature 1 120 double
0 0.15284896365 0.24493414876 0.36623868277 0.4636310006 0.45979991422 0.36241299222 0.24794905399 0.16040297178 
0.10365788544 0.069397612737 0.049795346572 0.040073547196 0.038546905127 0.044905702422 0.057561707154 0.073880312116 0.09055084121 
0.10378742384 0.10998626719 0.1066694404 0.094049984789 0.075854227965 0.060796967601 0.062487924124 0.0842896375 0.11782755256 
0.16039971245 0.21481989815 0.28943509247 0.39143316201 0.50951224129 0.59222337508 0.58086044492 0.49452813857 0.40088100426 
0.33537758237 0.29537028854 0.26448773973 0.22728891199 0.17882122763 0.12344688044 0.069739487911 0.038129291468 0.068055836765 
0.12095478035 0.17981298668 0.23760439942 0.28578920522 0.31746382836 0.33053600424 0.33156953111 0.32704839303 0.31836843139 
0.30026145262 0.26517497578 0.21223594754 0.14867872713 0.086795124951 0.059804658291 0.10111110292 0.15286664147 0.17676774058 
0.15713067427 0.10393122211 0.043191871671 0.03432992771 0.070835366434 0.090706376533 0.08889385544 0.070901940245 0.052076596273 
0.065717037973 0.11743365622 0.18826428947 0.25968852385 0.2991815354 0.28043276713 0.21706309433 0.14327868109 0.083747074997 
0.053990856216 0.060348442205 0.076277117067 0.083960264416 0.079786094537 0.067709984933 0.059250289306 0.065740935279 0.080564747523 
0.089655827874 0.087496399972 0.076170089761 0.063378427083 0.057100160262 0.05915873827 0.064428866217 0.067883645313 0.067750417379 
0.065863727611 0.064308778263 0.064682619971 0.069316099118 0.08154797179 0.1003464244 0.12360413251 0.14334618245 0.15095279052 
0.14265262516 0.12212648096 0.097724258219 0.078282039962 0.068607041993 0.066732085498 0.066684727506 0.064134317749 0.06070871202 
0.067511158121 0.096013150949 0 
Torsion 1 120 double
0 0 -0.059802681065 -0.059548880477 -0.055507179152 -0.050150609748 -0.041709293595 -0.026702380829 -0.0042846155434 
0.027511503254 0.081643302785 0.18030052221 0.31443429899 0.38193075342 0.30656445021 0.19678761146 0.12257422515 0.08390926314 
0.069683975604 0.075972997259 0.10797739866 0.18849925909 0.3705947433 0.66763205712 0.6558734091 0.32089483831 0.10280104371 
-0.012119143483 -0.078563678164 -0.11190867881 -0.1132167057 -0.090276666653 -0.055087135335 -0.013781947939 0.034709283585 0.079212505351 
0.094077649119 0.071214665589 0.026638155245 -0.024028117711 -0.086318283831 -0.20468091251 -0.61184334434 -1.9594429162 -0.65519526943 
-0.25867213853 -0.16157863196 -0.12691392781 -0.10800074962 -0.086744073793 -0.054717177011 -0.009906333873 0.039334410452 0.079786049946 
0.10667194416 0.12989896745 0.17403921256 0.30636140051 0.83088273257 1.7160135555 0.5917019397 0.24027553735 0.15203719199 
0.15214748133 0.2707823084 1.2261051915 1.521104544 0.29631934645 0.17717081299 0.22005768967 0.45190121177 1.0957056963 
0.87262940004 0.32831961975 0.13654403123 0.057914582841 0.015134962997 -0.022437800073 -0.080317419524 -0.20881455746 -0.55622235764 
-1.0566562636 -0.53443747361 -0.094330669566 0.12736372425 0.33295047735 0.63975475933 0.94964777441 0.79221281572 0.50327753898 
0.36411350347 0.34177652801 0.41950551082 0.56662195987 0.61887767537 0.47652808397 0.32845150424 0.24663823374 0.20365634082 
0.16257827697 0.09864082649 -0.0034050154117 -0.099585729431 -0.13887158775 -0.12572671024 -0.10511941248 -0.095369024381 -0.10637202651 
-0.14350212906 -0.20699397683 -0.3107024376 -0.41793255572 -0.4101171381 -0.25766791331 -0.050537364057 0.19815699091 0.5338313729 
0.70026251978 0 0 
FrenetTangent 3 120 double
-0.27864573511 -0.68211054146 0.67607822294 -0.27864573511 -0.68211054146 0.67607822294 -0.29658955838 -0.78293777544 0.54684830954 
-0.31696523222 -0.87944381585 0.35512197387 -0.33197218339 -0.93775052338 0.10207068805 -0.33302828126 -0.9276007945 -0.16925994776 
-0.32064928605 -0.85953445586 -0.3979755703 -0.30285738995 -0.77233009764 -0.55837587845 -0.28577145609 -0.69387432636 -0.66096376157 
-0.27120838473 -0.63290389679 -0.72517492337 -0.25863730327 -0.58819332182 -0.76624758501 -0.24651444005 -0.55578580098 -0.79393499373 
-0.23269320894 -0.53205506642 -0.81410765677 -0.21454734358 -0.51451607138 -0.83020638979 -0.18912717268 -0.50164549969 -0.84414613972 
-0.15364167318 -0.49239018613 -0.85670656637 -0.1060935573 -0.4858330248 -0.86758885949 -0.046009358607 -0.48101827482 -0.87550246042 
0.024861291099 -0.47705031886 -0.87852427939 0.10231167534 -0.47348929903 -0.87483724474 0.18008592715 -0.47088010671 -0.8636208566 
0.25108763013 -0.47108795765 -0.84559513844 0.308938834 -0.47725449014 -0.82266940413 0.34909433945 -0.49316717709 -0.79681822118 
0.3692058428 -0.5222992807 -0.76869402692 0.36879350456 -0.56707905981 -0.73648672148 0.34878028608 -0.62817839201 -0.69551723188 
0.31107587078 -0.70421907501 -0.63820631226 0.25803968718 -0.79126740539 -0.55435675607 0.19201585033 -0.88157783567 -0.43121970372 
0.11501011788 -0.96017133224 -0.25464423326 0.029873247361 -0.99940956382 -0.016973887148 -0.05610949474 -0.96287651077 0.26404649139 
-0.13107769404 -0.83454503851 0.5351198154 -0.18779313576 -0.64311257791 0.74238800522 -0.22974860078 -0.43286352504 0.87169074168 
-0.26435990215 -0.22808934548 0.93706408138 -0.29544647297 -0.034831313509 0.95472412833 -0.32171732629 0.14457655376 0.93573264455 
-0.3389175925 0.30382390124 0.89040771702 -0.343607879 0.43412680546 0.83274698575 -0.33556019526 0.52953963563 0.77909378746 
-0.31723334606 0.58895452527 0.7433004583 -0.29185770979 0.61379814787 0.7335331696 -0.26225032322 0.60447303257 0.75222145733 
-0.23067405306 0.55869457727 0.79664913894 -0.199225192 0.47190376965 0.8588458273 -0.17022331109 0.34048752641 0.92471199231 
-0.14615546128 0.16720206662 0.975029256 -0.12875144383 -0.035873499301 0.99102782895 -0.11741932367 -0.24942089573 0.96125018554 
-0.10845726467 -0.45404021625 0.88435541711 -0.095855628537 -0.63567757405 0.76598023495 -0.073455334096 -0.7849200829 0.61522741922 
-0.037627076801 -0.89481870941 0.44484118557 0.010680144569 -0.96191500898 0.27313998245 0.066183279705 -0.99034566298 0.12180000533 
0.12216332277 -0.99246825224 0.0091044416333 0.17342982933 -0.9833301494 -0.0546251918 0.21690434916 -0.9739559367 -0.066047987691 
0.2501215061 -0.96785759627 -0.026285081742 0.2697880629 -0.96118353321 0.057798067442 0.27297041297 -0.9471102474 0.16872857767 
0.26065215374 -0.92425967989 0.27893457815 0.23919160618 -0.9008241653 0.36235783246 0.21674533083 -0.88800264366 0.40555242129 
0.19916776851 -0.89120443987 0.4075375398 0.1891940308 -0.90770966275 0.37452474801 0.18765009905 -0.92951363426 0.31747731264 
0.19482462578 -0.94805217066 0.25147653351 0.21128822388 -0.95820130833 0.19289255858 0.23832013568 -0.95863566842 0.15563151406 
0.2778792707 -0.9489029853 0.14955345332 0.33187865967 -0.92579481224 0.18099867649 0.40014548536 -0.88100087079 0.25243029973 
0.47687324145 -0.80249975494 0.35858897768 0.54879228942 -0.68381846463 0.48085271185 0.60152609247 -0.53791366047 0.59060583636 
0.63188925497 -0.39471732714 0.66701889112 0.64889444842 -0.27982324566 0.70755561336 0.66387864059 -0.2025285109 0.71989398722 
0.6840513316 -0.1598648667 0.71170007737 0.71174565732 -0.14348530588 0.68762641477 0.74567797647 -0.14269048667 0.65084850804 
0.78227117899 -0.14601731444 0.60558298061 0.8169328224 -0.14344056091 0.55861039122 0.84524033418 -0.12844082729 0.5187212463 
0.86354744604 -0.099330252927 0.49438781265 0.86914749782 -0.059329167519 0.49098134069 0.86076628474 -0.014998731951 0.50877936387 
0.83945956707 0.025854878661 0.54280674323 0.80911690954 0.056417712324 0.58493321706 0.77553078276 0.072171407 0.62717086428 
0.7443059123 0.071172075106 0.66403557483 0.71916448142 0.053741051129 0.69275850633 0.70140188237 0.022125007018 0.7124225456 
0.69055851385 -0.019986881221 0.72300032056 0.68562192437 -0.068203665086 0.72475570842 0.68558827307 -0.11785969949 0.71838555878 
0.68935532548 -0.16547460305 0.70527114713 0.69559005993 -0.20985558482 0.68710632514 0.70261806155 -0.25197679457 0.66545890526 
0.70813604217 -0.29489666073 0.64154446866 0.7095551493 -0.34330253643 0.61536563 0.70394051987 -0.40150106892 0.58588790407 
0.68808218072 -0.47152070535 0.55155338546 0.6589622689 -0.5514205699 0.51157021342 0.61554216808 -0.63432758281 0.46769258815 
0.56030359443 -0.71101667972 0.42487076061 0.49865758062 -0.77416349539 0.38988652157 0.43685858706 -0.82068658568 0.36827720945 
0.37919737737 -0.85120063997 0.36285922822 0.32730940735 -0.86809697027 0.37319726965 0.28086999934 -0.87427336816 0.39592691395 
0.23824816597 -0.87305769181 0.42545044152 0.19706491589 -0.86863606524 0.45457321202 0.15478089624 -0.86609591953 0.47531119524 
0.10901400367 -0.87076572068 0.47946116287 0.057954805139 -0.88648572164 0.45911251986 0.057954805139 -0.88648572164 0.45911251986 

FrenetNormal 3 120 double
-0.10893868306 -0.67696714211 -0.72790648564 -0.10893868306 -0.67696714211 -0.72790648564 -0.10557275907 -0.54222376278 -0.83357530171 
-0.080645017184 -0.3480817627 -0.93398900833 -0.033452657762 -0.096435259308 -0.99477694005 0.024392778752 0.17097135343 -0.98497400405 
0.076044797016 0.39544417712 -0.91533660018 0.11475332285 0.55207702192 -0.82585872688 0.14591501601 0.65017809995 -0.74563881769 
0.17973491137 0.70685956063 -0.6841380878 0.23101394618 0.7325567133 -0.64030712824 0.32723081866 0.72337083172 -0.60799229529 
0.49585857583 0.65520758577 -0.56993621777 0.70882198373 0.50276930105 -0.49476704144 0.86855527288 0.31557524101 -0.38213087445 
0.94592824603 0.17737127199 -0.27158642316 0.97939923251 0.099707446278 -0.1756005937 0.99409791695 0.064150555305 -0.087487357781 
0.99873995618 0.050174333477 0.0010179377169 0.99472818449 0.042562480769 0.093296699888 0.98112067253 0.023053989322 0.19201754999 
0.95286327794 -0.0334137347 0.30155446589 0.88250769327 -0.17864507356 0.43504724918 0.66290122139 -0.47104334243 0.58196231857 
0.20420018621 -0.76132755961 0.6153719452 -0.16680152767 -0.81985093422 0.54774236281 -0.33497040457 -0.77665397771 0.53348235863 
-0.39690460074 -0.70642306335 0.58603173419 -0.40742831496 -0.60939394688 0.68017731928 -0.38762862129 -0.47179741954 0.79192881427 
-0.35273425441 -0.27911410939 0.89312589242 -0.31122499368 -0.025437441191 0.94999575783 -0.26412583322 0.26935622409 0.92611271926 
-0.21484104485 0.55086197524 0.80647034024 -0.17547044913 0.76564278975 0.61887093968 -0.158656684 0.90032606397 0.40526662231 
-0.15914115257 0.96862809131 0.19087617527 -0.15654398391 0.98759297937 -0.012413226897 -0.13095247647 0.97198160179 -0.19520044744 
-0.074954287837 0.93469253264 -0.34746470924 0.012483673551 0.88877071647 -0.45818202871 0.1482658378 0.84642758323 -0.51144656386 
0.42021966292 0.78993608269 -0.44656065675 0.95047181626 0.27181985511 0.15072256917 0.59333816938 -0.51374183151 0.61969278462 
0.35138233326 -0.71565063401 0.60363451352 0.23445542492 -0.82800811352 0.50934587234 0.16139217577 -0.91610251084 0.36702691349 
0.10668933338 -0.97720036831 0.18356695322 0.064671399688 -0.99752190521 -0.027706654125 0.040093237705 -0.96834747558 -0.24636497079 
0.041291325567 -0.89089290392 -0.4523326875 0.07413874816 -0.77194566608 -0.63135040559 0.13505585263 -0.61904025882 -0.77365953406 
0.21226345157 -0.44215477921 -0.87146048582 0.29567126344 -0.25790338895 -0.91981756123 0.38814205592 -0.086901146178 -0.91749328892 
0.5193338348 0.056102485218 -0.85272790454 0.77421288134 0.17040926502 -0.60955319437 0.91694447186 0.18006056491 0.35607727883 
0.38431496678 0.074326812963 0.92020515712 0.11087440044 0.090632993641 0.9896931483 -0.04655318823 0.16217942439 0.98566253605 
-0.175531016 0.2387366067 0.95508831793 -0.32714362441 0.27660381336 0.90358584509 -0.6808163689 0.16023548233 0.7147122932 
-0.56385976852 -0.4443503927 -0.69614286605 -0.11168581909 -0.39883021175 -0.91019818722 0.038531430166 -0.31600413118 -0.94797506189 
0.16817012624 -0.22030559992 -0.96082477658 0.38490926429 -0.099832573923 -0.91753927188 0.80745906609 0.10653965427 -0.58022336963 
0.92283451157 0.30692796873 0.23274811766 0.71044042701 0.37153149925 0.5976945246 0.56216557501 0.45349462988 0.6916013931 
0.44482906638 0.57220251853 0.68899301847 0.33031991157 0.70578492187 0.62670280044 0.22219354286 0.8228026149 0.52309261744 
0.14683015508 0.90598411943 0.39703108304 0.14086361845 0.95802438077 0.24969326553 0.27500571636 0.96129519185 0.016834787936 
0.59925267498 0.67946480593 -0.42334833062 0.70231286515 0.126938107 -0.70045938957 0.64780522339 -0.073331625301 -0.7582683333 
0.60676775901 -0.041455784655 -0.79379739515 0.575397813 0.13684591161 -0.80634394229 0.51192757498 0.47306726939 -0.71703383226 
0.30623645353 0.88221535329 -0.35765249188 -0.03165911709 0.98406705209 0.17495638687 -0.28465729108 0.81445574422 0.5056006995 
-0.4444332517 0.60745607295 0.65838909789 -0.55528915634 0.39914773017 0.7296129401 -0.63037326393 0.14261856546 0.76307895588 
-0.63971367667 -0.2095317391 0.73950176619 -0.52259465159 -0.61523165815 0.59024133787 -0.32718336122 -0.87799673593 0.34938915244 
-0.16215564949 -0.97845020372 0.12783092025 -0.045058030878 -0.99766831222 -0.051261219695 0.043326238253 -0.97845251492 -0.20187499382 
0.10953887347 -0.93855808174 -0.32727658396 0.1487736435 -0.89358288075 -0.42352808434 0.14468038747 -0.86507718644 -0.48032181606 
0.079233601872 -0.86967748202 -0.48721977956 -0.023345278306 -0.8842662119 -0.46639925436 -0.14145320609 -0.88761927499 -0.43831839245 
-0.25155499984 -0.86796703488 -0.42819774453 -0.36391138328 -0.8289447973 -0.42475761106 -0.4734419113 -0.7720507308 -0.42401701109 
-0.58960947365 -0.70264374513 -0.39831198327 -0.70891582829 -0.62307059942 -0.33048657543 -0.82871629203 -0.52641435449 -0.19004534909 
-0.91999871407 -0.38879917227 0.049371750558 -0.92070473453 -0.20415991597 0.33259813668 -0.84532177615 -0.030004864228 0.53341428823 
-0.79431197677 0.076905232237 0.60262265872 -0.83220334166 0.096899730546 0.54593776234 -0.94903703607 0.0033483468133 0.31514677968 
-0.97229115266 -0.19375004236 -0.13080839251 -0.79622752958 -0.31846117272 -0.51439693098 -0.79622752958 -0.31846117272 -0.51439693098 

FrenetBinormal 3 120 double
0.95419542948 -0.27647910904 0.11432578287 0.95419542948 -0.27647910904 0.11432578287 0.94915174045 -0.30496201544 0.078161005213 
0.94500234008 -0.3246808606 0.039407055105 0.94269580944 -0.33365280857 0.00064357626387 0.94260127107 -0.33215292011 -0.034311535028 
0.94414046847 -0.3237659988 -0.061435769841 0.94610204325 -0.31419290594 -0.078573160872 0.94712379496 -0.3095268285 -0.0845556589 
0.94559048942 -0.3158832363 -0.077951313871 0.93794418919 -0.34262118727 -0.053585632427 0.91222290158 -0.40967887819 0.0035488871275 
0.83664696455 -0.53630255067 0.11136171184 0.67196788074 -0.69461949455 0.25683248441 0.45808585495 -0.80545891261 0.37602299077 
0.28568162285 -0.85210993215 0.43851416612 0.17181763719 -0.86834595477 0.46524617395 0.098246986915 -0.87436040941 0.47522773911 
0.04359376265 -0.87744260755 0.47769661326 -0.0069397456269 -0.87977060586 0.47534778952 -0.070507338422 -0.88189593416 0.46614190601 
-0.17031316907 -0.88145315161 0.44049264006 -0.35459408931 -0.86041506806 0.36599035847 -0.66234063203 -0.73137152323 0.16248255957 
-0.90663627194 -0.38416638109 -0.17443297291 -0.91442255077 -0.079156715323 -0.39694535274 -0.87529831492 0.046909558884 -0.48130276665 
-0.86353838393 0.071006689541 -0.49925896038 -0.8760237942 0.050347896322 -0.47963256908 -0.90159523356 0.015090214552 -0.4323173837 
-0.92862867636 -0.012896770411 -0.37078626561 -0.94986661822 -0.023096760345 -0.31180113416 -0.9628547496 -0.017777782797 -0.26943400233 
-0.96781297965 -0.0092554277461 -0.2515002455 -0.96640770881 -0.014047442315 -0.25662971325 -0.96023103317 -0.045190123132 -0.27552534495 
-0.95120341447 -0.098665450928 -0.29236482876 -0.94244647737 -0.15312376269 -0.29723349507 -0.93773632268 -0.18533587316 -0.29377066438 
-0.9378255276 -0.18450177905 -0.29401083875 -0.93903023561 -0.14703921356 -0.31080811812 -0.9302776987 -0.05610811571 -0.36254004282 
-0.85016377189 0.17068553668 -0.49808433877 -0.10687564608 0.74119214785 -0.66273056081 0.76103520597 0.60883633553 -0.22392796122 
0.90736979072 0.41917125304 -0.031233371817 0.95149355047 0.3028355926 0.054319676561 0.97209906386 0.21171781687 0.10098997998 
0.98349172202 0.13085453408 0.12498449357 0.98956590269 0.060523885105 0.13075237496 0.99227276226 0.0096116239355 0.12370279692 
0.99324319689 -0.012542558561 0.11537172986 0.99263041687 -0.00372967422 0.12112367659 0.98811144643 0.026260644113 0.15147986007 
0.97648780342 0.061633014821 0.20657429963 0.9552300448 0.090583428239 0.28165618055 0.91922005957 0.10799841945 0.37864339884 
0.84579459126 0.10890031882 0.52227600937 0.60870067248 0.063423179331 0.79086091802 -0.33491094166 -0.13779704761 0.93211943163 
-0.88867386509 -0.24026485013 0.39055289436 -0.95651516896 -0.26059907127 0.13102234775 -0.96089539197 -0.27691156275 0.00017918282745 
-0.94934151767 -0.29790749698 -0.10000902994 -0.91420152294 -0.33467320425 -0.228537572 -0.69965029365 -0.43101727929 -0.5698364428 
0.80149507885 -0.091144801659 -0.59101460532 0.9755674741 0.13037496061 -0.17683459255 0.98147988732 0.19012046916 -0.023482716828 
0.96631370363 0.22948316792 0.11651309716 0.89844429138 0.26811137591 0.3477271134 0.53964189007 0.26394498917 0.7994496064 
-0.26675752132 0.073337210852 0.96096934307 -0.62058919981 -0.0697732807 0.78102543773 -0.72377721491 -0.13483355052 0.67673218989 
-0.75810224462 -0.1690515339 0.62984328653 -0.76792954045 -0.18509443939 0.61320817788 -0.76733069115 -0.18342505496 0.61445818379 
-0.7610235706 -0.15294118803 0.6304380366 -0.74772550833 -0.062355729856 0.66107361704 -0.6954401531 0.18679870553 0.6938798434 
-0.41589663051 0.71608016444 0.56058825427 0.013219634359 0.98147780616 0.19111922269 0.15592545643 0.98704705954 0.037753864628 
0.14101308149 0.98841305222 0.056168933122 0.039218879146 0.98015203003 0.19432930184 -0.15329362496 0.87161362571 0.46560793811 
-0.40063080632 0.46024946634 0.79225335958 -0.49353857735 -0.16760694163 0.85342110695 -0.42196164481 -0.58003179115 0.69678654663 
-0.31270868238 -0.79393239302 0.52142557981 -0.19231167293 -0.91514923987 0.35428532176 -0.03437372706 -0.98714296472 0.1561000131 
0.19176840406 -0.97520817574 -0.11042596238 0.45792715447 -0.78651249591 -0.4143679705 0.63323490709 -0.47815501228 -0.60858962913 
0.70486486953 -0.20551331688 -0.67891810426 0.72656200746 0.0024897510036 -0.68709639095 0.72669908278 0.16952807226 -0.66570915256 
0.71609389777 0.30286446301 -0.62887411031 0.70286618323 0.39682523703 -0.59034638962 0.69670326902 0.43376163558 -0.57136275555 
0.70161626415 0.39584976538 -0.59248424547 0.70426308159 0.31657011067 -0.63545013726 0.69603069973 0.22567435461 -0.68162478733 
0.68063425908 0.15588922605 -0.7158460411 0.65828355083 0.093733015103 -0.74691156678 0.63004809018 0.03957507747 -0.7755470439 
0.58173924627 -0.027332189602 -0.81291598629 0.49877747112 -0.11159709025 -0.85951563322 0.34983407816 -0.22217438077 -0.91008497531 
0.099054101911 -0.35255166168 -0.93053512064 -0.21253551156 -0.45246699208 -0.86608445166 -0.4544701731 -0.48450571291 -0.74746978261 
-0.55884371247 -0.48151412443 -0.67515765048 -0.5182692515 -0.48588252529 -0.70378629893 -0.27453884666 -0.49986662895 -0.82143884431 
0.20679908479 -0.45191590012 -0.86775927408 0.60221504605 -0.33574625359 -0.72430069136 0.60221504605 -0.33574625359 -0.72430069136 

plain_curvature_peaks 1 120 unsigned_char
0 0 0 0 0 1 0 0 0 
0 0 0 0 0 0 0 0 0 
0 0 0 0 0 0 0 0 0 
0 0 0 0 0 0 0 0 0 
1 0 0 0 0 0 0 0 0 
0 0 0 0 0 0 0 0 0 
0 0 0 0 0 0 0 0 1 
0 0 0 0 0 0 0 0 0 
0 0 0 0 0 0 0 0 0 
0 0 0 0 0 0 0 0 0 
0 0 0 0 0 1 0 0 0 
0 0 0 0 0 0 0 0 0 
0 0 0 0 0 0 0 0 0 
0 0 0 
weighted_curvature_peaks 1 120 unsigned_char
0 0 0 0 0 0 0 0 0 
0 0 0 0 0 0 1 0 0 
0 0 0 0 0 0 0 0 0 
0 0 0 0 0 0 0 0 0 
0 0 0 0 1 0 0 0 0 
0 0 0 0 0 0 0 0 0 
0 0 0 0 0 0 0 0 0 
0 0 0 1 0 0 0 0 0 
0 0 0 0 0 0 0 0 0 
0 0 0 0 0 0 0 0 0 
0 0 0 0 0 0 0 0 0 
0 1 0 0 0 0 0 0 0 
0 0 0 0 0 0 0 0 0 
0 0 0 
plain_torsion_tp 1 120 unsigned_char
0 0 0 0 0 1 0 0 0 
0 0 0 0 0 0 0 0 0 
0 0 0 0 0 0 0 0 0 
0 0 0 0 0 0 0 0 0 
1 0 0 0 0 0 0 0 0 
0 0 0 0 0 0 0 0 0 
0 0 0 0 0 0 0 0 1 
0 0 0 0 0 0 0 0 0 
0 0 0 0 0 0 0 0 0 
0 0 0 0 0 0 0 0 0 
0 0 0 0 0 1 0 0 0 
0 0 0 0 0 0 0 0 0 
0 0 0 0 0 0 0 0 0 
0 0 0 
plain_torsion_tn 1 120 unsigned_char
0 2 0 0 0 0 0 0 0 
0 0 0 0 0 0 0 0 0 
0 0 0 0 0 2 0 0 0 
0 0 0 0 0 0 0 0 0 
0 0 0 0 0 0 0 0 0 
0 2 0 0 0 0 0 0 0 
0 0 0 0 0 0 0 0 0 
0 0 0 0 0 0 0 0 0 
0 0 0 0 0 0 0 0 0 
0 0 2 0 0 0 0 0 0 
0 0 0 0 0 0 0 0 0 
0 0 0 0 0 0 0 0 0 
0 0 0 0 0 0 0 0 0 
0 0 0 
plain_torsion_tz 1 120 unsigned_char
0 3 0 0 0 0 0 0 0 
0 0 0 0 0 0 0 0 0 
3 0 0 0 0 0 0 0 3 
0 0 0 0 0 0 0 0 0 
0 0 0 0 0 0 0 0 0 
0 0 3 0 0 0 0 0 0 
0 0 0 0 0 0 0 0 0 
0 0 0 0 0 0 0 0 0 
0 0 0 3 0 0 0 0 0 
0 0 0 3 0 0 0 0 0 
0 0 0 0 0 0 0 0 0 
0 0 0 0 0 0 0 0 0 
0 0 0 0 0 0 0 0 0 
0 0 0 
weighted_torsion_tp 1 120 unsigned_char
0 0 0 0 0 0 0 0 0 
0 0 0 0 0 0 1 0 0 
0 0 0 0 0 0 0 0 0 
0 0 0 0 0 0 0 0 0 
0 0 0 0 1 0 0 0 0 
0 0 0 0 0 0 0 0 0 
0 0 0 0 0 0 0 0 0 
0 0 0 1 0 0 0 0 0 
0 0 0 0 0 0 0 0 0 
0 0 0 0 0 0 0 0 0 
0 0 0 0 0 0 0 0 0 
0 1 0 0 0 0 0 0 0 
0 0 0 0 0 0 0 0 0 
0 0 0 
weighted_torsion_tn 1 120 unsigned_char
0 0 0 0 2 0 0 0 0 
0 0 0 0 0 0 0 0 0 
0 0 0 0 0 0 0 2 0 
0 0 0 0 0 0 0 0 0 
0 0 0 0 0 0 0 0 0 
0 0 0 0 0 2 0 0 0 
0 0 0 0 0 0 0 0 0 
0 0 0 0 0 0 0 0 0 
0 0 0 0 0 0 0 0 0 
0 0 0 0 0 0 2 0 0 
0 0 0 0 0 0 0 0 0 
0 0 0 0 0 0 0 0 0 
0 0 0 0 0 0 0 0 0 
0 0 0 
weighted_torsion_tz 1 120 unsigned_char
0 0 0 0 0 3 0 0 0 
0 0 0 0 0 0 0 0 0 
0 0 0 3 0 0 0 0 0 
0 3 0 0 0 0 0 0 0 
0 0 0 0 0 0 0 0 0 
0 0 0 0 0 0 3 0 0 
0 0 0 0 0 0 0 0 0 
0 0 0 0 0 0 0 0 0 
0 0 0 0 0 0 0 0 3 
0 0 0 0 0 0 0 0 0 
3 0 0 0 0 0 0 0 0 
0 0 0 0 0 0 0 0 0 
0 0 0 0 0 0 0 0 0 
0 0 0 
plain_torsion_tp_raw 1 120 unsigned_char
0 0 0 0 0 0 0 0 0 
0 1 0 0 0 0 0 0 0 
0 0 0 0 0 1 0 0 0 
0 0 0 0 0 0 0 0 0 
0 0 0 0 0 0 0 0 0 
0 0 1 0 0 0 0 0 0 
0 0 0 0 0 0 0 0 0 
0 0 0 0 1 0 0 0 0 
0 0 0 0 0 0 0 0 0 
0 0 0 0 0 0 1 0 0 
0 0 0 0 0 0 0 0 1 
0 0 0 0 0 0 0 0 0 
0 0 0 0 0 0 0 0 0 
0 0 0 
plain_torsion_tn_raw 1 120 unsigned_char
0 0 0 0 2 0 0 0 0 
0 0 0 0 0 0 0 0 0 
0 0 2 0 0 0 0 0 0 
0 0 0 0 0 0 0 0 0 
0 0 0 0 0 0 2 0 0 
0 0 0 2 0 0 0 0 0 
0 0 0 0 0 0 0 0 0 
0 0 0 0 0 0 0 0 0 
0 0 0 0 0 0 0 0 0 
0 0 0 2 0 0 0 0 0 
0 2 0 0 0 0 0 0 0 
0 0 0 0 0 0 0 0 0 
0 0 0 0 0 0 0 0 0 
0 0 0 
plain_torsion_tz_raw 1 120 unsigned_char
0 3 0 0 0 3 0 0 0 
0 0 0 3 0 0 0 0 0 
0 0 0 0 0 3 0 0 0 
0 0 0 0 0 0 0 0 0 
0 0 0 0 0 0 0 0 0 
0 0 0 0 0 0 0 0 0 
0 0 0 0 0 0 0 0 0 
0 0 0 0 0 0 0 0 0 
0 0 0 0 0 0 0 0 0 
0 0 0 0 0 0 0 0 0 
0 0 0 0 0 0 0 0 0 
0 0 0 0 0 0 0 0 0 
0 0 0 0 0 0 0 0 0 
0 0 0 
weighted_torsion_tp_raw 1 120 unsigned_char
0 0 0 0 0 0 0 0 0 
0 0 0 0 0 0 0 1 0 
0 0 0 0 0 0 0 0 1 
0 0 0 0 0 0 0 0 0 
0 0 0 0 0 0 0 0 0 
0 0 0 0 0 0 1 0 0 
0 0 0 0 0 0 0 0 0 
0 0 0 0 0 0 0 0 0 
1 0 0 0 0 0 0 0 0 
0 0 0 0 0 0 0 0 0 
0 0 1 0 0 0 0 0 0 
0 0 0 0 1 0 0 0 0 
0 0 0 0 0 0 0 0 0 
0 0 0 
weighted_torsion_tn_raw 1 120 unsigned_char
0 0 0 0 0 0 0 0 0 
0 0 0 0 0 2 0 0 0 
0 0 0 0 0 0 2 0 0 
0 0 0 0 0 0 0 0 0 
0 0 0 0 0 0 0 0 0 
0 0 2 0 0 0 0 2 0 
0 0 0 0 0 0 0 0 0 
0 0 0 0 0 0 0 0 0 
0 0 0 0 0 0 0 0 0 
0 0 0 0 0 0 0 2 0 
0 0 0 0 0 0 2 0 0 
0 0 0 0 0 0 0 0 0 
0 0 0 0 0 0 0 0 0 
0 0 0 
weighted_torsion_tz_raw 1 120 unsigned_char
0 0 0 0 3 0 0 0 0 
0 0 0 0 0 0 3 3 0 
0 0 0 0 0 0 0 3 0 
0 0 0 0 0 0 0 0 0 
0 0 0 0 0 0 0 0 0 
0 0 0 0 0 0 0 0 0 
0 0 0 0 0 0 0 0 0 
0 0 0 0 0 0 0 0 0 
0 0 0 0 0 0 0 0 0 
0 0 0 0 0 0 0 0 0 
0 0 0 0 0 0 0 0 0 
0 0 0 0 0 0 0 0 0 
0 0 0 0 0 0 0 0 0 
0 0 0 
