# vtk DataFile Version 5.1
vtk output
ASCII
DATASET POLYDATA
POINTS 120 float
-3.55636 19.6345 -4.96686 -3.86954 19.0083 -5.05504 -4.25346 18.4184 -5.06365 
-4.68693 17.8579 -4.99725 -5.1489 17.3201 -4.86103 -5.61895 16.7991 -4.66217 
-6.07824 16.2905 -4.41201 -6.51113 15.7927 -4.12851 -6.90666 15.3085 -3.83778 
-7.25943 14.8445 -3.57352 -7.56938 14.4101 -3.37381 -7.84051 14.0145 -3.27541 
-8.0795 13.6638 -3.30706 -8.29462 13.3575 -3.48389 -8.49497 13.0882 -3.805 
-8.6899 12.8421 -4.25434 -8.88801 12.6015 -4.80412 -9.09559 12.3478 -5.42043 
-9.31438 12.0656 -6.06918 -9.53949 11.7453 -6.72088 -9.75843 11.3851 -7.35354 
-9.95203 10.9907 -7.95374 -10.0973 10.5736 -8.51586 -10.1716 10.1479 -9.04057 
-10.1569 9.7268 -9.53307 -10.0441 9.3197 -10.0014 -9.83397 8.93019 -10.4555 
-9.5378 8.55555 -10.9053 -9.1739 8.18838 -11.3598 -8.76319 7.81903 -11.8243 
-8.32436 7.43835 -12.2976 -7.87029 7.04067 -12.7697 -7.40723 6.6252 -13.2211 
-6.93658 6.1967 -13.6243 -6.45851 5.76524 -13.9471 -5.97575 5.34447 -14.1573 
-5.49614 4.94978 -14.2288 -5.03296 4.59671 -14.1462 -4.60292 4.29899 -13.908 
-4.22263 4.06777 -13.5273 -3.9049 3.9109 -13.0299 -3.65606 3.83184 -12.4495 
-3.47518 3.82857 -11.8213 -3.355 3.8921 -11.1765 -3.28393 4.00571 -10.5372 
-3.24841 4.14579 -9.91496 -3.23516 4.28446 -9.31127 -3.23318 4.39494 -8.72027 
-3.23521 4.45701 -8.13245 -3.23833 4.46032 -7.53865 -3.24409 4.40513 -6.93284 
-3.25783 4.29946 -6.31394 -3.28727 4.15406 -5.68639 -3.34081 3.97722 -5.05995 
-3.42566 3.77086 -4.44886 -3.54615 3.52934 -3.87005 -3.70231 3.24204 -3.34057 
-3.88885 2.89721 -2.8742 -4.0952 2.48587 -2.47816 -4.30645 2.00512 -2.15069 
-4.50554 1.45929 -1.88052 -4.67588 0.859087 -1.64838 -4.80371 0.219678 -1.43039 
-4.87978 -0.442053 -1.20279 -4.89992 -1.11028 -0.947137 -4.86428 -1.77209 -0.654368 
-4.77556 -2.41893 -0.326891 -4.63677 -3.04593 0.0223298 -4.4494 -3.65122 0.373119 
-4.21265 -4.23391 0.703335 -3.92393 -4.79257 0.994628 -3.5802 -5.32392 1.23731 
-3.17963 -5.8232 1.43285 -2.72281 -6.28413 1.59323 -2.21317 -6.70107 1.73743 
-1.65687 -7.07044 1.88643 -1.06214 -7.39167 2.0583 -0.438544 -7.66754 2.26491 
0.203782 -7.90254 2.51093 0.854648 -8.10179 2.7952 1.50437 -8.26844 3.11325 
2.14406 -8.40356 3.46006 2.76619 -8.50548 3.8321 3.36511 -8.57194 4.22805 
3.93785 -8.60137 4.64814 4.4847 -8.59552 5.09268 5.00947 -8.56059 5.56042 
5.51893 -8.50672 6.04766 6.02184 -8.44712 6.54817 6.52717 -8.39484 7.05445 
7.04281 -8.36148 7.55897 7.5734 -8.35431 8.05537 8.11978 -8.37632 8.54029 
8.67828 -8.42717 9.01361 9.24079 -8.50459 9.47834 9.79615 -8.60743 9.93966 
10.3322 -8.73625 10.4039 10.8379 -8.89396 10.8765 11.3065 -9.08439 11.3608 
11.7368 -9.31004 11.8572 12.1343 -9.57038 12.3629 12.51 -9.86152 12.8722 
12.8775 -10.1769 13.3776 13.2494 -10.51 13.8704 13.633 -10.8567 14.3431 
14.0279 -11.2177 14.7892 14.4254 -11.5983 15.2044 14.8111 -12.0078 15.5863 
15.169 -12.4565 15.9333 15.486 -12.9528 16.2441 15.7554 -13.5019 16.5175 
15.9785 -14.1035 16.7519 16.1631 -14.7523 16.9463 16.3219 -15.4396 17.1014 
16.47 -16.1537 17.2193 16.6233 -16.8819 17.3042 16.7971 -17.6104 17.3617 
17.0062 -18.3256 17.3984 17.2652 -19.014 17.4213 17.5885 -19.6618 17.4375 

LINES 2 120
OFFSETS vtktypeint64
0 120 
CONNECTIVITY vtktypeint64
0 1 2 3 4 5 6 7 8 
9 10 11 12 13 14 15 16 17 
18 19 20 21 22 23 24 25 26 
27 28 29 30 31 32 33 34 35 
36 37 38 39 40 41 42 43 44 
45 46 47 48 49 50 51 52 53 
54 55 56 57 58 59 60 61 62 
63 64 65 66 67 68 69 70 71 
72 73 74 75 76 77 78 79 80 
81 82 83 84 85 86 87 88 89 
90 91 92 93 94 95 96 97 98 
99 100 101 102 103 104 105 106 107 
108 109 110 111 112 113 114 115 116 
117 118 119 
CELL_DATA 1
FIELD FieldData 2
Length 1 1 double
80.800503835 
Tortuosity 1 1 double
0.61819189034 
POINT_DATA 120
FIELD FieldData 19
Curvature 1 120 double
0 0.22784681488 0.18902382172 0.15245810603 0.12353594428 0.10136164697 0.08092169068 0.057854037591 0.049906754576 
0.12104040907 0.29741501725 0.6146921406 0.89974508071 0.75065393895 0.39566813143 0.16059878407 0.040625460316 0.026520020996 
0.059201376942 0.077365935287 0.090177752272 0.1108514366 0.14989924788 0.20338243321 0.24769441544 0.25107727671 0.20429389391 
0.13348006345 0.069262248537 0.028290114981 0.026706544013 0.048531779668 0.083244471339 0.13624787891 0.21361645232 0.31748440408 
0.43162437035 0.5072181479 0.49867387392 0.42534297915 0.33952254378 0.26898570724 0.21375660909 0.16336011239 0.10856265129 
0.054884992658 0.073440068 0.13415605756 0.16855096474 0.16088044562 0.12833702384 0.099348795229 0.092106840106 0.10750237934 
0.140754352 0.18782383103 0.23782011405 0.26880594835 0.25973346289 0.21474071115 0.15953347212 0.12121427865 0.11335519631 
0.12287480083 0.12893877846 0.12287810701 0.10894280307 0.099872621028 0.10976786552 0.13646409876 0.16404984572 0.17709307252 
0.17182745901 0.15663184938 0.14355481034 0.13512460154 0.12545798272 0.11223207797 0.096974906892 0.085419939137 0.079764657862 
0.0822564458 0.089882508455 0.098392413087 0.099417229581 0.087287601085 0.062381942592 0.029915118958 0.015882041553 0.040620356904 
0.058946165529 0.065649774148 0.061991179747 0.052420105446 0.04905187729 0.059725929275 0.080743905792 0.10071585485 0.10920277994 
0.10113624978 0.078198375124 0.052689398847 0.04498055153 0.054719595245 0.065720336644 0.075050431056 0.095189389555 0.12897463975 
0.16242122894 0.18030815855 0.17334650435 0.14707630403 0.11327791066 0.082550330853 0.063065415538 0.060756200636 0.076287303626 
0.10488625528 0.14173936765 0 
Torsion 1 120 double
0 0 -0.20711240927 -0.27683825635 -0.33787409148 -0.38117943556 -0.47501776137 -0.97945049274 -2.1631571477 
-0.79817971603 -0.29902422386 -0.12672777217 -0.061046559078 -0.037192136117 -0.013650741483 0.061930994853 0.83661317605 0.95388058807 
-0.086422939576 -0.28184200819 -0.44254902857 -0.49205474078 -0.38687280728 -0.25265521451 -0.16214198635 -0.10911088936 -0.075246180986 
-0.034338141219 0.12811973717 1.0824335079 0.64636159325 -0.14755632589 -0.2023400575 -0.13381346931 -0.070292902596 -0.030244958289 
-0.0082087638641 -0.0021124169651 -0.011014319618 -0.032419233953 -0.058968977793 -0.073482529848 -0.053149580244 0.030529800944 0.31766741218 
1.8737470721 1.0745103076 0.21879987849 0.023027959813 -0.098265138208 -0.25878067161 -0.42739148896 -0.32935661585 -0.025306392191 
0.15656403153 0.20692433144 0.21273783951 0.22248141853 0.26464366948 0.36845014989 0.57047660588 0.78951916164 0.67145795732 
0.36902082612 0.14374975218 -0.043579612309 -0.26532033383 -0.47075033805 -0.40614904213 -0.17754268165 0.0072172877534 0.15643199295 
0.30164258778 0.42556982174 0.45892405427 0.38640777294 0.28630894993 0.20439507276 0.14085698232 0.081943993111 0.03342806497 
0.0083135060618 0.0098547619324 0.023007096445 0.046449678563 0.081835200938 0.18176472125 0.78486801817 2.4844636998 0.3144412736 
0.087322842143 -0.017296981765 -0.15265065315 -0.40898126872 -0.62240023111 -0.41294627839 -0.15198971536 -0.015907115543 0.063224350644 
0.15121693964 0.33712675042 0.78403589576 0.86678599745 0.21403568973 -0.22687811382 -0.49473352862 -0.45963209659 -0.26158539425 
-0.11369630481 -0.011498323314 0.069629808047 0.15280420248 0.27030152848 0.46250130796 0.72027695645 0.73208207746 0.47354984325 
0.27027343214 0 0 
FrenetTangent 3 120 double
-0.49613670431 -0.8655072411 -0.068888215558 -0.49613670431 -0.8655072411 -0.068888215558 -0.57871312854 -0.81450422465 0.040914335928 
-0.62554617832 -0.76723910993 0.14154902681 -0.64285626491 -0.73028792696 0.23111764626 -0.63744742122 -0.70625936147 0.30799107053 
-0.61661158947 -0.69552486203 0.36882965449 -0.58870779952 -0.69778448973 0.40806853918 -0.5629246352 -0.71331091867 0.41749657292 
-0.548151396 -0.74314136495 0.38375898525 -0.55020590893 -0.7858726028 0.28227240379 -0.56278524503 -0.82331615171 0.07364293792 
-0.55012826117 -0.79597385726 -0.25255596374 -0.47913170588 -0.66383309284 -0.57424596931 -0.39225288279 -0.51145611085 -0.76455890722 
-0.33342375914 -0.412876014 -0.84756238349 -0.30505301801 -0.37167044562 -0.87681453915 -0.29639490226 -0.37251282518 -0.87942268392 
-0.29585455448 -0.40154899371 -0.8667343816 -0.29217315205 -0.44775306517 -0.84507516935 -0.27444144414 -0.50201420405 -0.82016073588 
-0.23250048465 -0.55678009363 -0.79745811926 -0.1576324842 -0.60515839862 -0.78034307359 -0.045015611698 -0.63913573917 -0.76777542395 
0.10001395142 -0.64958875186 -0.75367875317 0.25616383139 -0.63181521541 -0.73156655546 0.39327903681 -0.59359974456 -0.70211889482 
0.49146017928 -0.55231878827 -0.67335789021 0.54949972313 -0.52248115771 -0.65196893647 0.57754558194 -0.50989758528 -0.63753082537 
0.5891781961 -0.51359818219 -0.62376755326 0.59761237694 -0.52985202332 -0.6017609827 0.6137262957 -0.55474108227 -0.56178498165 
0.64452596106 -0.58422797086 -0.49321796762 0.69098306998 -0.61287958294 -0.38330277041 0.7445891854 -0.63092502446 -0.2179921065 
0.78344780576 -0.62138876904 0.0092484251633 0.77617320053 -0.56550943246 0.27884448099 0.7054426215 -0.46047290764 0.53880925113 
0.58810118876 -0.32698113937 0.73974341921 0.45680814222 -0.19022073107 0.86898929491 0.33431511205 -0.064049781489 0.94028242105 
0.22990225748 0.046017265454 0.97212517881 0.14595216108 0.13519243034 0.98001070068 0.082552970746 0.19647341143 0.97702774046 
0.038768502882 0.22154740457 0.97437864853 0.012473349083 0.2041404267 0.97886214645 -4.4226310179e-05 0.14483496215 0.98945582609 
-0.0043465361237 0.055249661771 0.99846311023 -0.0074009491688 -0.043205626955 0.99903878791 -0.015782703833 -0.13021565353 0.99136007073 
-0.03393481017 -0.19734992956 0.97974559655 -0.063962247938 -0.24837033118 0.96655108992 -0.1062237507 -0.29411979077 0.94984738956 
-0.15944412689 -0.34776769344 0.92392380736 -0.21977364563 -0.42011034771 0.88045831272 -0.27900059738 -0.51463349982 0.81074720322 
-0.32405993978 -0.62369734006 0.71132747974 -0.34168420188 -0.72992735237 0.59199490408 -0.3265140764 -0.81685100111 0.47554495046 
-0.28316240566 -0.87840098276 0.3850074876 -0.22052092576 -0.91681006388 0.33291114139 -0.14665325947 -0.93583355777 0.32048147161 
-0.067838050565 -0.93771185053 0.34072640676 0.010774562341 -0.92443828847 0.38117943232 0.085559392811 -0.90032850481 0.42671790884 
0.15580188943 -0.8723384271 0.46341281797 0.22427454083 -0.84735273299 0.48134631631 0.29586144352 -0.82872395431 0.47506064222 
0.3748538142 -0.81419696492 0.44335980908 0.46209717827 -0.79640140294 0.39014228587 0.55350502518 -0.76643838125 0.32589015764 
0.64195525603 -0.71894064615 0.26649164449 0.72086093635 -0.65478964914 0.22717840088 0.78571710883 -0.57960243154 0.21612414545 
0.83400058588 -0.50038824171 0.23249651677 0.86493433631 -0.42390117294 0.26869385825 0.88021470919 -0.35520974413 0.31471908648 
0.88356702838 -0.2967040473 0.36232032053 0.87921812763 -0.24735604564 0.40717375988 0.87017732822 -0.20364942506 0.44868511133 
0.85754260734 -0.16109114807 0.48853896325 0.84077981242 -0.11594476631 0.52881576961 0.81874218806 -0.06701222146 0.57023731171 
0.79134758014 -0.016667768286 0.61113925819 0.76112701305 0.028968465698 0.64795562965 0.73323717373 0.062957863817 0.67705210615 
0.71346507933 0.079965636668 0.69611283391 0.70544642338 0.078279620942 0.70442717486 0.70938104995 0.059503796022 0.70230892364 
0.7222969716 0.027979957552 0.69101679198 0.7391280462 -0.01018749843 0.6734878961 0.75452170456 -0.049754080017 0.65438637583 
0.76398002772 -0.087418685939 0.63929061514 0.76421747626 -0.12323232303 0.63307617515 0.7528657252 -0.15979970125 0.63848042671 
0.72849431265 -0.20036621255 0.65509496816 0.69132946612 -0.24703538738 0.6789971183 0.64485740381 -0.2984913364 0.70360631808 
0.59653888794 -0.35022544491 0.72213813977 0.55623759148 -0.39675877862 0.73019327127 0.53226283604 -0.43436850181 0.72665003819 
0.52767048758 -0.46277501801 0.71232235627 0.53895385747 -0.48488466062 0.68877834273 0.55733882947 -0.50661747705 0.65780860523 
0.57189658266 -0.5352930649 0.62160729839 0.57228150527 -0.57732923215 0.58239577302 0.55107555693 -0.63600141993 0.54020174417 
0.50563315278 -0.70810064554 0.4928778658 0.4397586338 -0.78400649426 0.43811660657 0.36463533606 -0.85188430019 0.37594442513 
0.29471602451 -0.90389830442 0.31001664497 0.2413326392 -0.93885341955 0.24558667279 0.21020860657 -0.95962121316 0.18692102338 
0.20260743607 -0.96972306677 0.13633561759 0.21808562545 -0.97130213573 0.094925344904 0.25586135098 -0.96466174315 0.062949903661 
0.31613537636 -0.94786000213 0.040247238043 0.39938208662 -0.91639084322 0.026865802714 0.39938208662 -0.91639084322 0.026865802714 

FrenetNormal 3 120 double
-0.63682907723 0.30882226965 0.70645419679 -0.63682907723 0.30882226965 0.70645419679 -0.47778677678 0.37927524056 0.79238253882 
-0.28280342287 0.39207652083 0.87538461594 -0.050694733587 0.3416266649 0.9384675092 0.20210927097 0.23246497452 0.95137367959 
0.45480282281 0.067703644018 0.88801498239 0.71921232918 -0.22171105839 0.65846627259 0.67626272875 -0.68791804024 -0.26350994597 
0.098227001315 -0.51285851428 -0.85283503712 -0.066649158486 -0.29563020951 -0.95297464232 -0.033252878245 -0.066469034159 -0.99723423206 
0.11325525124 0.22852332716 -0.96692829983 0.27958236846 0.50473236563 -0.81674900571 0.38464812151 0.66381301138 -0.64140323397 
0.44683614626 0.72241144328 -0.52769230146 0.59646325835 0.64318324705 -0.48015298828 0.10099483569 -0.92786039944 0.3589918137 
-0.014770845653 -0.90532230307 0.42446831412 0.13818154956 -0.89412425064 0.4259667637 0.40894332243 -0.83286944864 0.37295286641 
0.70679491079 -0.65996917363 0.25471875459 0.90107996999 -0.41142937907 0.13704289006 0.98061933877 -0.17496835359 0.088157743155 
0.99366453078 0.026181547455 0.10929467897 0.9658813999 0.19715129126 0.16794192353 0.91459744068 0.33068543063 0.23272014839 
0.86161076228 0.42098211071 0.28355062472 0.82820717998 0.44347171159 0.34264516346 0.79614989171 0.17911890344 0.57798076816 
0.34259440531 -0.54036812223 0.76852544911 0.2645218195 -0.57821211493 0.77181536468 0.35106556723 -0.44559213086 0.82352936828 
0.39061529495 -0.30293550959 0.86928117912 0.35656908028 -0.17227509245 0.91824821454 0.25197468626 -0.036753199526 0.96703565591 
0.081978410213 0.11808738072 0.98961351586 -0.13432003614 0.28379365953 0.94943103315 -0.34973183018 0.43506493363 0.82970244696 
-0.51680092397 0.55162999079 0.65469165127 -0.61865753166 0.63400977038 0.46399835084 -0.66381965466 0.69221203066 0.28317127448 
-0.67580919559 0.72632354901 0.125443347 -0.68822631311 0.72549204541 0.0024153663763 -0.75936104291 0.64731265523 -0.066008581948 
-0.9912143609 0.13192781406 0.0094415369474 -0.40428068571 -0.89432800815 0.19166257067 -0.083908802198 -0.98596698735 0.14432052098 
-0.018394692238 -0.99830801809 0.05516100353 -0.043769720883 -0.99809464208 -0.043489044446 -0.15636894871 -0.97896254255 -0.13107666519 
-0.37662685823 -0.90551339257 -0.19544233305 -0.60821034004 -0.7581696484 -0.23507225805 -0.6922999024 -0.66381338516 -0.28297108478 
-0.64322320484 -0.6733728963 -0.36446241409 -0.52772005028 -0.70787800146 -0.46948938602 -0.37957623309 -0.71641713109 -0.58537883252 
-0.20736925439 -0.68678639084 -0.69665087791 -0.0092385138609 -0.62726677789 -0.77874966402 0.22793069476 -0.55631866513 -0.79909770442 
0.52792613382 -0.47790360963 -0.70206989476 0.85468154358 -0.34609083291 -0.38696329856 0.98861650915 -0.1276519892 0.079638982241 
0.9183169211 0.074807606845 0.38871307462 0.8345484171 0.21830256992 0.50583883548 0.81014447684 0.31216823659 0.49620249768 
0.8605510414 0.35019245037 0.36988802744 0.9486671733 0.30286095021 0.091136376646 0.94864188649 0.19659590818 -0.24784797777 
0.8723610783 0.14790524417 -0.46595084271 0.80810866595 0.19693962101 -0.55513527153 0.76859698998 0.31937024267 -0.55431156861 
0.74112700976 0.49273716242 -0.45600531156 0.69302649168 0.67692111739 -0.24797597194 0.58607982284 0.80928261643 0.039649564949 
0.42510412775 0.85134918018 0.30739397192 0.2544982508 0.8318780623 0.49316278225 0.10467227504 0.79213718568 0.60130058532 
-0.01926945856 0.74999541111 0.66116228816 -0.11253015789 0.72264867469 0.68199402969 -0.18452879247 0.70964326466 0.67996732398 
-0.23882397449 0.7164718557 0.6554625765 -0.29483865164 0.72116456276 0.6268906148 -0.35482088227 0.72176672512 0.59426840402 
-0.42281661622 0.70709837971 0.56677860798 -0.49409631991 0.67307898997 0.55030309822 -0.56824098674 0.60358889272 0.55926972882 
-0.67306545272 0.35442078426 0.64912926604 -0.15333708347 -0.95348803749 0.25951551243 0.32299803114 -0.91308642254 -0.24888844259 
0.37940275221 -0.85143163177 -0.36210181999 0.36327610979 -0.83596668882 -0.41132731886 0.2968607106 -0.86340288979 -0.40793279888 
0.1450789517 -0.94213760131 -0.30220661472 -0.14166421591 -0.98967826872 -0.021637336997 -0.411540233 -0.87134715731 0.26718676627 
-0.54245466144 -0.75273627123 0.37300274295 -0.61085186774 -0.70173865978 0.36663721721 -0.65175913422 -0.69559906759 0.30224488105 
-0.6657331316 -0.71846911741 0.20149820053 -0.61664891678 -0.78608398305 0.042615549154 -0.38754732371 -0.88813590314 -0.24702568581 
0.16112558413 -0.76881756419 -0.61883608422 0.45478941602 -0.5207688665 -0.72247240415 0.42013188972 -0.51127360591 -0.74972561324 
0.18749474119 -0.65240310484 -0.73431322392 -0.14282014043 -0.76950300712 -0.62246889843 -0.38760960599 -0.76839193454 -0.50924711908 
-0.53199512073 -0.70564864324 -0.46801835842 -0.61543979897 -0.61833826546 -0.48876542769 -0.64668668138 -0.52217090812 -0.55599809247 
-0.62682405627 -0.42774073497 -0.65125222927 -0.5340431533 -0.33978532698 -0.7741730052 -0.32267630511 -0.2485787215 -0.91328452376 
0.086690903291 -0.12091494082 -0.98887019592 0.59008194212 0.053764078766 -0.80555119355 0.85500667485 0.19542900598 -0.48038639613 
0.92558146816 0.29883833057 -0.23236737717 0.91437046543 0.39603412257 -0.084164278141 0.91437046543 0.39603412257 -0.084164278141 

FrenetBinormal 3 120 double
-0.59016700774 0.39436787568 -0.70439824077 -0.59016700774 0.39436787568 -0.70439824077 -0.66091672001 0.43901384936 -0.60865090921 
-0.72712736354 0.50756295178 -0.46223981566 -0.7643074425 0.59158327019 -0.25663859369 -0.74351370382 0.6686985494 -0.0054426338731 
-0.64260760974 0.71530509776 0.27457981904 -0.36899424431 0.68113215492 0.63237823744 0.47516794589 0.13400113144 0.86963160015 
0.83059105658 -0.42978722181 0.35412065839 0.83236491243 -0.54314549744 0.11027974048 0.82593402525 -0.56367755129 0.010030159926 
0.82736457764 -0.56053787339 -0.035568921419 0.83202554508 -0.55187939256 -0.056237251001 0.83557375411 -0.545678415 -0.063651935073 
0.83016025877 -0.55466665997 -0.056381212086 0.74241109747 -0.66945977517 0.025482774375 -0.94971053752 0.017586194069 0.31263496397 
-0.95511879089 0.13838328374 0.26191250843 -0.94633012664 0.0076822556222 0.323110313 -0.87031445626 -0.233045533 0.43386925077 
-0.668120108 -0.50441710637 0.54697248933 -0.40398872212 -0.68154910213 0.61015074677 -0.19068116619 -0.74892695382 0.6346251734 
-0.051264118057 -0.75983483733 0.64809182233 0.038121028464 -0.74962717529 0.66076159487 0.094037868454 -0.73368010006 0.67295645481 
0.12686128842 -0.71952624593 0.68277975579 0.11010413847 -0.72824877677 0.67641022895 -0.18051717568 -0.84138033668 0.50940423863 
-0.73177737509 -0.66649771172 -0.1424172517 -0.7568934231 -0.6204253247 -0.20538929511 -0.7071725401 -0.70264499184 -0.078721115153 
-0.65727161575 -0.7529327693 0.032958580697 -0.62880910298 -0.77116788661 0.099494736948 -0.61813890225 -0.77497278393 0.1316111002 
-0.61602684675 -0.77455236636 0.14345576272 -0.61604650042 -0.77437732444 0.1443137856 -0.6164725093 -0.77374621476 0.14587131457 
-0.6221364776 -0.76732502094 0.15543009839 -0.63920980884 -0.74956499687 0.1719393374 -0.66901186233 -0.71884638839 0.18889943877 
-0.70030485016 -0.68581084377 0.19808231473 -0.71066342851 -0.67482167928 0.19893011977 -0.64541135219 -0.73646759941 0.2026318373 
-0.12645589716 -0.96618414363 0.22471561287 0.91454991265 -0.39812573393 0.071374766247 0.99647343716 -0.083017670431 0.012196533872 
0.9998213555 -0.01812666233 0.0053554823877 0.99901423287 -0.044049509105 0.0054957494792 0.98757260905 -0.15708667624 -0.0049110089754 
0.92574328964 -0.37563080436 -0.04359885886 0.79119467459 -0.60290211712 -0.10256716855 0.7137488073 -0.68763750506 -0.13310635491 
0.74889350321 -0.65240062379 -0.11632689679 0.82049441998 -0.567816899 -0.066127724776 0.88208874266 -0.47106141336 0.0045381622642 
0.92302933202 -0.37326409064 0.093224304084 0.93976941642 -0.27155561055 0.20758370441 0.91729829189 -0.15252535796 0.36783129133 
0.80069535358 0.0044557140781 0.59905517055 0.46998934068 0.19919950336 0.85990091144 -0.033618734734 0.32851259003 0.94390108532 
-0.38998978361 0.339264362 0.85604185724 -0.55082923698 0.31266249981 0.773840625 -0.57995302995 0.3032483726 0.7561050903 
-0.48495121032 0.34116112955 0.80525238733 -0.22300566056 0.43619788024 0.87177972254 0.11200257781 0.52399108431 0.84432740458 
0.31380052112 0.56143329174 0.76571658718 0.36527603515 0.5718038047 0.73458411845 0.32076604263 0.55729243297 0.76585526704 
0.19653041663 0.49023916214 0.84914154253 0.0085902426908 0.33619684147 0.94175256385 -0.19788649816 0.095512659338 0.975560488 
-0.35175204807 -0.15753152371 0.92274282209 -0.432572808 -0.35817130683 0.82740200673 -0.4628885185 -0.49633125706 0.73443141457 
-0.46790810457 -0.59116291463 0.65695389035 -0.46293892428 -0.64544084133 0.60753079982 -0.45688132179 -0.67448747105 0.57993629753 
-0.45561363654 -0.67876190377 0.57593271499 -0.4540478791 -0.682992302 0.57215560724 -0.45140156291 -0.68888471945 0.56716353225 
-0.44158251375 -0.70691871309 0.55251318232 -0.42018388433 -0.7390030455 0.52661181348 -0.37345070364 -0.79480611218 0.47834905245 
-0.19480882149 -0.93166056299 0.3066889604 0.69197766046 -0.29108909856 -0.66063155702 0.62645893548 0.40340114431 -0.66694581408 
0.57822196122 0.52371872069 -0.62560216205 0.56720384288 0.54868562042 -0.6141855506 0.58529540905 0.50205575529 -0.63668618857 
0.62871823182 0.32362743016 -0.70709169944 0.62920815229 -0.073148608891 -0.77378703925 0.51364173938 -0.46391614213 -0.72177141578 
0.41837659676 -0.62708969601 -0.65705367851 0.38590616081 -0.66823376954 -0.6360346408 0.39921042034 -0.65348669402 -0.64310666381 
0.448264155 -0.60095279771 -0.66175145053 0.55708514185 -0.47397726019 -0.68191033249 0.75266416499 -0.15012868547 -0.64106008497 
0.83402781889 0.44131489404 -0.33111744385 0.70901010331 0.70262838939 -0.060149977804 0.71614427625 0.69421756809 -0.072106475058 
0.79861130769 0.53649932289 -0.27274247151 0.80752478984 0.27304959209 -0.52282658124 0.73896855407 0.071246254546 -0.66996227305 
0.67920269901 -0.025563021597 -0.73350543665 0.65409953206 -0.05469557955 -0.75442839007 0.66995328779 -0.040381701374 -0.74130419558 
0.72127253336 -0.0023914229475 -0.69264725056 0.81028172117 0.055679333394 -0.58338953039 0.92287179166 0.13166528197 -0.36190041403 
0.97541525215 0.21217151284 0.059567902457 0.77733002101 0.23169286776 0.58487302338 0.45110814118 0.17673490012 0.87479495886 
0.2082243252 0.11071164591 0.97179502049 0.06648759921 0.058179001555 0.99608965607 0.06648759921 0.058179001555 0.99608965607 

plain_curvature_peaks 1 120 unsigned_char
0 0 0 0 0 0 0 0 0 
0 0 1 0 0 0 0 0 0 
0 0 0 0 0 0 0 0 0 
0 0 0 0 0 0 0 0 0 
0 0 0 0 0 0 0 0 0 
0 1 0 0 0 0 0 0 0 
0 0 0 0 0 0 0 0 0 
0 0 0 0 0 0 0 0 0 
1 0 0 0 0 0 0 0 0 
0 0 0 0 0 0 0 0 0 
0 0 0 0 0 0 0 0 0 
0 0 0 0 0 0 1 0 0 
0 0 0 0 0 0 0 0 0 
0 0 0 
weighted_curvature_peaks 1 120 unsigned_char
0 0 0 0 0 0 0 0 0 
0 0 0 0 1 0 0 0 0 
0 0 0 0 0 0 0 0 0 
0 0 0 0 0 0 0 0 0 
0 0 0 0 0 0 0 0 1 
0 0 0 0 0 0 0 0 0 
0 0 0 0 0 0 0 0 0 
0 0 0 0 0 0 0 0 0 
0 0 0 0 0 1 0 0 0 
0 0 0 0 0 0 0 0 0 
0 0 0 0 0 0 0 0 0 
0 0 0 0 0 0 0 0 0 
1 0 0 0 0 0 0 0 0 
0 0 0 
plain_torsion_tp 1 120 unsigned_char
0 0 0 0 0 0 0 0 0 
0 0 1 0 0 0 0 0 0 
0 0 0 0 0 0 0 0 0 
0 0 0 0 0 0 0 0 0 
0 0 0 0 0 0 0 0 0 
0 1 0 0 0 0 0 0 0 
0 0 0 0 0 0 0 0 0 
0 0 0 0 0 0 0 0 0 
1 0 0 0 0 0 0 0 0 
0 0 0 0 0 0 0 0 0 
0 0 0 0 0 0 0 0 0 
0 0 0 0 0 0 1 0 0 
0 0 0 0 0 0 0 0 0 
0 0 0 
plain_torsion_tn 1 120 unsigned_char
2 0 0 0 0 0 0 0 0 
0 0 0 0 0 0 0 0 0 
0 0 0 0 0 0 0 0 0 
0 0 0 0 0 0 0 0 0 
2 0 0 0 0 0 0 0 0 
0 0 0 0 0 0 2 0 0 
0 0 0 0 0 0 0 0 0 
0 0 0 0 0 0 0 0 0 
0 0 0 0 0 0 0 0 0 
0 0 0 0 2 0 0 0 0 
0 0 0 0 0 0 0 0 0 
0 0 0 0 0 0 0 0 0 
0 0 0 0 0 0 0 0 0 
0 0 0 
plain_torsion_tz 1 120 unsigned_char
0 3 0 0 0 0 0 0 0 
0 0 0 0 0 0 0 0 0 
0 0 0 0 0 0 0 0 0 
0 0 3 0 0 0 0 0 0 
0 0 0 0 0 0 0 3 0 
0 0 0 0 0 0 0 0 0 
0 0 0 3 0 0 0 0 0 
0 0 0 0 0 0 0 0 0 
0 0 0 0 0 0 0 3 0 
0 0 0 0 0 0 0 0 0 
0 0 3 0 0 0 0 0 0 
0 0 0 0 0 0 0 0 0 
0 0 0 0 0 0 0 0 0 
0 0 0 
weighted_torsion_tp 1 120 unsigned_char
0 0 0 0 0 0 0 0 0 
0 0 0 0 1 0 0 0 0 
0 0 0 0 0 0 0 0 0 
0 0 0 0 0 0 0 0 0 
0 0 0 0 0 0 0 0 1 
0 0 0 0 0 0 0 0 0 
0 0 0 0 0 0 0 0 0 
0 0 0 0 0 0 0 0 0 
0 0 0 0 0 1 0 0 0 
0 0 0 0 0 0 0 0 0 
0 0 0 0 0 0 0 0 0 
0 0 0 0 0 0 0 0 0 
1 0 0 0 0 0 0 0 0 
0 0 0 
weighted_torsion_tn 1 120 unsigned_char
0 0 0 2 0 0 0 0 0 
0 0 0 0 0 0 0 0 0 
0 0 0 0 0 0 0 0 0 
0 0 0 0 0 0 0 0 0 
0 0 0 2 0 0 0 0 0 
0 0 0 0 0 0 0 0 0 
0 2 0 0 0 0 0 0 0 
0 0 0 0 0 0 0 0 0 
0 0 0 0 0 0 0 0 0 
0 0 0 0 0 0 0 0 0 
0 2 0 0 0 0 0 0 0 
0 0 0 0 0 0 0 0 0 
0 0 0 0 0 0 0 0 0 
0 0 0 
weighted_torsion_tz 1 120 unsigned_char
0 0 0 3 0 0 0 0 0 
0 0 0 0 0 0 0 0 0 
0 0 0 0 0 0 0 0 0 
0 0 0 0 3 0 0 0 0 
0 0 0 0 0 0 0 3 0 
0 0 0 0 0 0 0 0 0 
0 0 0 0 0 0 0 0 3 
0 0 0 0 0 0 0 0 0 
0 0 0 0 0 0 0 0 0 
0 0 0 0 3 0 0 0 0 
0 0 0 0 0 0 0 3 0 
0 0 0 0 0 0 0 0 0 
0 0 0 0 0 0 0 0 0 
0 0 0 
plain_torsion_tp_raw 1 120 unsigned_char
0 0 0 0 0 0 0 0 0 
0 0 0 0 0 0 0 1 0 
0 0 0 0 0 0 0 0 0 
0 0 0 0 0 0 0 0 0 
0 0 0 1 0 0 0 0 0 
0 0 0 0 0 0 0 0 0 
1 0 0 0 0 0 0 0 0 
0 0 0 0 0 0 0 0 0 
0 0 1 0 0 0 0 0 0 
0 0 0 0 0 0 0 0 0 
0 0 0 0 0 0 1 0 0 
0 0 0 0 0 0 0 0 1 
0 0 0 0 0 0 0 0 0 
0 0 0 
plain_torsion_tn_raw 1 120 unsigned_char
0 0 0 0 0 0 0 2 0 
0 0 0 0 0 0 0 0 0 
0 0 0 0 0 0 0 0 0 
0 0 0 0 0 2 0 0 0 
0 0 0 0 0 0 0 0 0 
0 0 2 0 0 0 0 0 0 
0 0 0 0 0 0 0 0 2 
0 0 0 0 0 0 0 0 0 
0 0 0 0 0 0 0 0 0 
0 0 0 0 0 2 0 0 0 
0 0 0 0 0 0 0 0 0 
0 0 2 0 0 0 0 0 0 
0 0 0 0 0 0 0 0 0 
0 0 0 
plain_torsion_tz_raw 1 120 unsigned_char
3 0 0 0 0 0 0 0 0 
0 0 0 3 0 0 0 0 0 
3 0 0 0 0 0 0 0 0 
0 0 0 0 0 0 0 0 3 
0 0 0 0 0 0 0 0 0 
0 0 0 0 0 0 0 0 0 
0 0 0 0 0 0 0 0 0 
0 0 0 0 0 0 0 0 0 
0 0 0 0 0 0 0 0 0 
0 0 0 0 0 0 0 0 0 
0 0 0 0 0 0 0 0 0 
0 0 0 0 0 0 0 0 0 
0 0 0 0 0 0 0 0 0 
0 0 0 
weighted_torsion_tp_raw 1 120 unsigned_char
0 0 0 0 0 0 0 0 0 
0 0 0 0 0 0 0 0 0 
0 1 0 0 0 0 0 0 0 
0 0 0 0 0 0 0 0 0 
0 0 0 0 0 1 0 0 0 
0 0 0 0 0 0 0 0 0 
0 0 0 0 0 1 0 0 0 
0 0 0 0 0 0 0 0 0 
0 0 0 0 0 0 0 1 0 
0 0 0 0 0 0 0 0 0 
0 0 0 0 0 0 0 0 0 
0 1 0 0 0 0 0 0 0 
0 0 0 1 0 0 0 0 0 
0 0 0 
weighted_torsion_tn_raw 1 120 unsigned_char
0 0 0 0 0 0 0 0 0 
2 0 0 0 0 0 0 0 0 
0 0 0 0 0 0 0 0 0 
0 0 0 0 0 0 0 2 0 
0 0 0 0 0 0 0 0 0 
0 0 0 0 2 0 0 0 0 
0 0 0 0 0 0 0 0 0 
0 0 0 0 2 0 0 0 0 
0 0 0 0 0 0 0 0 0 
0 0 0 0 0 0 0 0 0 
0 0 2 0 0 0 0 0 0 
0 0 0 0 0 0 2 0 0 
0 0 0 0 0 0 0 0 0 
0 0 0 
weighted_torsion_tz_raw 1 120 unsigned_char
0 0 0 3 0 0 0 0 0 
0 0 0 0 0 3 0 0 0 
0 0 0 3 0 0 0 0 0 
0 0 0 0 0 0 0 0 0 
0 0 3 0 0 0 0 0 0 
0 0 0 0 0 0 0 0 0 
0 0 0 0 0 0 0 0 0 
0 0 0 0 0 0 0 0 0 
0 0 0 0 0 0 0 0 0 
0 0 0 0 0 0 0 0 0 
0 0 0 0 0 0 0 0 0 
0 0 0 0 0 0 0 0 0 
0 0 0 0 0 0 0 0 0 
0 0 0 
