# vtk DataFile Version 5.1
vtk output
ASCII
DATASET POLYDATA
POINTS 120 float
-0.986394 20.7273 -5.84341 -1.64461 20.2905 -5.33938 -2.20657 19.8015 -4.93066 
-2.68817 19.2733 -4.62647 -3.10516 18.7188 -4.43557 -3.47277 18.1506 -4.36537 
-3.80488 17.5804 -4.4204 -4.11295 17.0185 -4.60079 -4.40498 16.4735 -4.901 
-4.68478 15.9516 -5.30936 -4.95178 15.4571 -5.80866 -5.20154 14.9921 -6.37798 
-5.42644 14.5573 -6.99505 -5.61681 14.152 -7.63875 -5.76216 13.7745 -8.29144 
-5.85283 13.4222 -8.94044 -5.88146 13.0919 -9.57899 -5.84413 12.7794 -10.206 
-5.74107 12.4798 -10.825 -5.5768 12.1865 -11.4418 -5.35993 11.8909 -12.0615 
-5.10236 11.5816 -12.685 -4.8181 11.2455 -13.3063 -4.52227 10.8695 -13.9107 
-4.23024 10.4437 -14.4755 -3.95711 9.96385 -14.9711 -3.71734 9.4334 -15.3653 
-3.52395 8.86454 -15.6275 -3.38737 8.27764 -15.7334 -3.31428 7.6992 -15.6695 
-3.30685 7.15902 -15.4353 -3.36245 6.68689 -15.044 -3.47417 6.30909 -14.5205 
-3.63177 6.04615 -13.8977 -3.82261 5.91115 -13.2116 -4.03276 5.90912 -12.4967 
-4.24799 6.03644 -11.7818 -4.45442 6.28247 -11.0875 -4.63922 6.63032 -10.4247 
-4.7913 7.05838 -9.79545 -4.90219 7.54191 -9.19443 -4.96683 8.05407 -8.61137 
-4.98409 8.5672 -8.03413 -4.95716 9.05398 -7.45166 -4.89349 9.48947 -6.85628 
-4.80442 9.85268 -6.24514 -4.7045 10.1274 -5.62039 -4.61026 10.303 -4.98823 
-4.5387 10.3749 -4.35748 -4.50538 10.3428 -3.73802 -4.52208 10.2105 -3.13968 
-4.59461 9.98385 -2.57168 -4.72154 9.67043 -2.04258 -4.8944 9.27894 -1.56063 
-5.09967 8.81947 -1.13446 -5.32183 8.30374 -0.773399 -5.54691 7.74401 -0.487272 
-5.76488 7.15206 -0.285103 -5.97058 6.53809 -0.172715 -6.16303 5.9094 -0.15006 
-6.34358 5.26999 -0.209286 -6.51392 4.62064 -0.334896 -6.67448 3.95952 -0.505795 
-6.82369 3.28347 -0.698813 -6.95805 2.58904 -0.892927 -7.07272 1.87327 -1.07228 
-7.16255 1.13443 -1.22765 -7.22301 0.372378 -1.3559 -7.25084 -0.411767 -1.45815 
-7.24428 -1.21522 -1.53741 -7.20266 -2.03304 -1.59632 -7.12546 -2.85798 -1.63584 
-7.01119 -3.67992 -1.65472 -6.85647 -4.48573 -1.6498 -6.65564 -5.25962 -1.61691 
-6.40111 -5.98399 -1.55174 -6.08456 -6.64169 -1.4506 -5.6988 -7.21803 -1.311 
-5.23987 -7.70304 -1.13177 -4.70889 -8.09361 -0.913066 -4.11289 -8.3939 -0.656036 
-3.46463 -8.61451 -0.362455 -2.78122 -8.77051 -0.0342748 -2.08193 -8.87849 0.326683 
-1.38567 -8.95337 0.718733 -0.708616 -9.00582 1.14009 -0.06236 -9.04064 1.58834 
0.547335 -9.05637 2.05979 1.12084 -9.04688 2.549 1.66392 -9.0027 3.04882 
2.18628 -8.91467 3.55108 2.6995 -8.77607 4.04779 3.2152 -8.58489 4.53235 
3.74368 -8.34501 5.00056 4.29282 -8.06647 5.45079 4.86748 -7.76452 5.88399 
5.46882 -7.45778 6.30372 6.09382 -7.16685 6.71551 6.73517 -6.91207 7.12618 
7.38169 -6.7123 7.54343 8.01939 -6.58386 7.97484 8.63305 -6.53984 8.4263 
9.20825 -6.58901 8.90118 9.73359 -6.7354 9.39939 10.2017 -6.97859 9.91667 
10.6102 -7.31379 10.4449 10.9623 -7.7327 10.9736 11.265 -8.22498 11.491 
11.5278 -8.77898 11.986 11.7607 -9.38253 12.4509 11.9713 -10.0242 12.8817 
12.1642 -10.6934 13.2787 12.3409 -11.3816 13.6462 12.4995 -12.0824 13.9903 
12.6359 -12.7914 14.3179 12.7461 -13.5064 14.6344 12.8265 -14.2267 14.943 
12.875 -14.9528 15.2437 12.8917 -15.6856 15.5331 12.8775 -16.4259 15.8052 

LINES 2 120
OFFSETS vtktypeint64
0 120 
CONNECTIVITY vtktypeint64
0 1 2 3 4 5 6 7 8 
9 10 11 12 13 14 15 16 17 
18 19 20 21 22 23 24 25 26 
27 28 29 30 31 32 33 34 35 
36 37 38 39 40 41 42 43 44 
45 46 47 48 49 50 51 52 53 
54 55 56 57 58 59 60 61 62 
63 64 65 66 67 68 69 70 71 
72 73 74 75 76 77 78 79 80 
81 82 83 84 85 86 87 88 89 
90 91 92 93 94 95 96 97 98 
99 100 101 102 103 104 105 106 107 
108 109 110 111 112 113 114 115 116 
117 118 119 
CELL_DATA 1
FIELD FieldData 2
Length 1 1 double
87.928341017 
Tortuosity 1 1 double
0.94618295311 
POINT_DATA 120
FIELD FieldData 19
Curvature 1 120 double
0 0.14608480818 0.17751660199 0.21606984031 0.25752817848 0.28875849461 0.29278906799 0.26455227066 0.21678652837 
0.16729410161 0.12701016255 0.099362991681 0.08516760081 0.085027564037 0.097077283815 0.11595011439 0.13288989879 0.13802674977 
0.12544997085 0.098403103873 0.06933584238 0.057750209225 0.074559367452 0.10804135034 0.15323917498 0.21494845339 0.3004262889 
0.40881927441 0.51240040399 0.5538858981 0.50889610104 0.42160139513 0.34242018065 0.28772416659 0.2537786426 0.23001737991 
0.20936563072 0.18507687578 0.15558875295 0.12353349005 0.094526694057 0.078754205364 0.085419612394 0.10947819219 0.14073769785 
0.17501761596 0.21042867856 0.24599777882 0.27890423814 0.30133255252 0.30371386371 0.28371931512 0.25054613605 0.21873902523 
0.19918942012 0.19588854898 0.204531821 0.21494316949 0.21358155059 0.18970703031 0.145217707 0.092085632403 0.046247910647 
0.035120150564 0.054305087512 0.069170304059 0.074349718035 0.072386968408 0.066914013447 0.061585643132 0.059144113531 0.061813245688 
0.071569099677 0.090384526524 0.12051052417 0.16247629531 0.21151563127 0.25236915418 0.26278360627 0.23478066029 0.1839255004 
0.13201257826 0.092401454026 0.070282745865 0.064695016806 0.068238111307 0.073192685477 0.076489895119 0.080938655851 0.088342163058 
0.097348070118 0.10092023639 0.094140660707 0.077734618932 0.057672834397 0.042871519895 0.04452865239 0.061584411401 0.086336591119 
0.11596252528 0.1487818613 0.18017774395 0.20285273777 0.21024491166 0.20006428744 0.1767522931 0.14944954509 0.12421755454 
0.10333440318 0.087174364572 0.073303446679 0.06035605294 0.050140523438 0.045283228178 0.046240867834 0.0501996529 0.05379440044 
0.055420216395 0.05829458395 0 
Torsion 1 120 double
0 0 -0.21920591682 -0.23066910694 -0.21617533142 -0.18346204458 -0.14427374342 -0.10264538649 -0.055576886067 
0.003620132927 0.085271704172 0.19510741946 0.29889688849 0.31023204077 0.22699442103 0.13476580302 0.075946613752 0.056215593013 
0.087880842889 0.22009751309 0.56472144441 0.82994997764 0.42294002597 0.1429414416 0.03608031823 -0.0037813855689 -0.018528334415 
-0.023106461667 -0.023621477028 -0.023511873819 -0.023984853226 -0.025106403098 -0.028260279187 -0.035425396638 -0.04705694377 -0.065358856049 
-0.092689992422 -0.13456552535 -0.2026072402 -0.32356707739 -0.54229140547 -0.77215144237 -0.6699671383 -0.44149114719 -0.315656705 
-0.26004006303 -0.23531317749 -0.21494793279 -0.18101246038 -0.12893993942 -0.062870610386 0.012228703084 0.088744483374 0.14647088422 
0.15625087843 0.11028538739 0.044065340672 -0.0022277124386 -0.016880407124 -0.0018821136762 0.055705106023 0.23721930346 0.98270019296 
1.3127805833 0.29558518904 0.031033893054 -0.059630736163 -0.095712996238 -0.09818929541 -0.072688795776 -0.03471873337 -0.0071237909912 
-0.0057477877085 -0.018567212984 -0.027113393413 -0.026762840065 -0.018700422392 -0.0056091091015 0.01260182563 0.040618446856 0.089174173407 
0.17695041843 0.31470586202 0.41921809039 0.31271126245 0.081265727969 -0.12631880846 -0.30839911909 -0.4233094311 -0.42388366475 
-0.35270653253 -0.29186433871 -0.28225586753 -0.35135367467 -0.5529408235 -0.91360360547 -0.83876300314 -0.47858133192 -0.28798544487 
-0.18547900345 -0.1207567807 -0.073678162104 -0.032611017849 0.0062248427778 0.047009330379 0.094194368643 0.14216480766 0.17626873894 
0.17616549378 0.12884253369 0.040769502985 -0.09357894384 -0.26092881578 -0.34686222815 -0.25047022155 -0.089587582059 0.056341116916 
0.16429352316 0 0 
FrenetTangent 3 120 double
-0.68435350518 -0.51921844439 0.51193015828 -0.68435350518 -0.51921844439 0.51193015828 -0.64324518269 -0.62700229661 0.43943572339 
-0.60243609952 -0.72587893878 0.33191943636 -0.56269254873 -0.80517872141 0.18725469871 -0.52359892233 -0.8518892297 0.01135380361 
-0.48436184835 -0.85654242834 -0.1781254286 -0.44527613916 -0.82131678993 -0.35660607185 -0.40768776698 -0.76064995716 -0.50517554111 
-0.37240121661 -0.69223307245 -0.61816721627 -0.33856485324 -0.62864659243 -0.70012663281 -0.30372140756 -0.57573370227 -0.75913372384 
-0.26435411009 -0.53477124442 -0.80258122369 -0.21642962317 -0.50464012002 -0.83576107081 -0.1562184323 -0.48301982569 -0.86156116985 
-0.081591887588 -0.46686464638 -0.8805567363 0.0061295061669 -0.45287937102 -0.89155073016 0.10061921967 -0.43868846564 -0.89298835533 
0.19143329419 -0.42453008789 -0.88494491261 0.26809753132 -0.41420444876 -0.86980364929 0.32458508907 -0.41384277525 -0.85051671196 
0.36045589216 -0.42937427458 -0.82807565001 0.37873143368 -0.46490103351 -0.80026841134 0.38304266565 -0.52239923338 -0.76182501748 
0.37560730269 -0.60192265225 -0.70470438829 0.35599679287 -0.70127315641 -0.61764248847 0.32046275894 -0.81330119451 -0.48563853548 
0.26249962962 -0.91942011839 -0.29284909143 0.17696959589 -0.98357734765 -0.035459319257 0.069384830709 -0.96393312077 0.2569410126 
-0.040445996958 -0.84999373211 0.5252378287 -0.13281731081 -0.67464315882 0.72609652954 -0.20090821967 -0.47798425127 0.85508300346 
-0.24681528727 -0.28188242184 0.92715937909 -0.27396225122 -0.093615776953 0.9571733235 -0.2841593156 0.083692720887 0.95511727648 
-0.27784017748 0.24600142731 0.92859470898 -0.25533822509 0.38760094286 0.88575837557 -0.21814330308 0.50244431737 0.83663803838 
-0.16926783009 0.58676005249 0.7918718599 -0.11273667756 0.63948593777 0.76049206237 -0.052819697691 0.66124107268 0.74831164854 
0.0063144903297 0.65298705635 0.75734274371 0.060455919323 0.61537867586 0.78590977034 0.10497642027 0.54894966459 0.8292371295 
0.13464413387 0.45446803189 0.88052811721 0.14391201946 0.33377901878 0.93160125444 0.12778095323 0.19074665792 0.9732870802 
0.083552814079 0.031724435131 0.99599823668 0.013518840244 -0.13374347502 0.99092377298 -0.072929806885 -0.29338481835 0.95320857719 
-0.1609807509 -0.43589054474 0.88548553396 -0.23633961923 -0.55572239031 0.79706725519 -0.29071528494 -0.65423925999 0.69818021584 
-0.3227897814 -0.73645535062 0.59450843019 -0.33565031085 -0.80711470652 0.48570023609 -0.33385337424 -0.86784407287 0.36795188501 
-0.32185750394 -0.91613380179 0.23896988175 -0.30350181131 -0.94725389063 0.1029403576 -0.28208363542 -0.95899110833 -0.027656405589 
-0.2602293428 -0.9557669 -0.1370777955 -0.23913182873 -0.94704828092 -0.21427907527 -0.2181486807 -0.94166484614 -0.25627811194 
-0.19528489595 -0.94381345439 -0.26660827582 -0.16826632912 -0.95289155969 -0.25235712383 -0.13573793912 -0.96551258731 -0.22217258071 
-0.097920821026 -0.97788778876 -0.18478902945 -0.056390716299 -0.98749569924 -0.14721525432 -0.013313148598 -0.99343974449 -0.11357919763 
0.029598555299 -0.99595166931 -0.084877546668 0.072014356144 -0.99561800253 -0.059655054722 0.11541445388 -0.99269347226 -0.035201902805 
0.16303570962 -0.98658390043 -0.0084595977007 0.21951794002 -0.97532907403 0.023346763195 0.29021977627 -0.9549169087 0.062499431431 
0.37954744342 -0.91854630953 0.11052789437 0.48766719606 -0.85687744091 0.16715788089 0.60620069128 -0.76168563119 0.22881372585 
0.71723036089 -0.63439078557 0.28832089866 0.80219032011 -0.49175305302 0.33862903768 0.85401800625 -0.35753121076 0.37792152403 
0.87773952276 -0.24823633615 0.4098195354 0.88221198408 -0.16843168889 0.43969623757 0.87426821851 -0.11455232048 0.4717338741 
0.85768008253 -0.079517856987 0.5079978213 0.83443663899 -0.055030236622 0.54834949491 0.80638598399 -0.032460314749 0.59049807179 
0.77632764194 -0.0040997949691 0.63031625717 0.74808739988 0.03596080933 0.66262512956 0.72547837316 0.090024345054 0.68233184549 
0.7109472457 0.15558463224 0.68581880701 0.70495195345 0.2259464761 0.67230270955 0.7065771477 0.29169521195 0.64471903778 
0.71468100616 0.34382101706 0.60911260672 0.72840053403 0.37624275303 0.57260287531 0.74661509756 0.38644462313 0.54150387751 
0.76758211841 0.37409281856 0.52045389286 0.78871836522 0.33988015566 0.51225464385 0.80638699448 0.2846087903 0.51839931676 
0.81594651102 0.208535105 0.53920719684 0.81197068637 0.11190876801 0.57286999583 0.78881263179 -0.003418510992 0.6146242313 
0.74260351051 -0.13195997207 0.65660230882 0.67440153934 -0.26446911637 0.68937555093 0.59153277125 -0.39028476407 0.70552589142 
0.50544477296 -0.5011446822 0.70240984404 0.42683982375 -0.5940006323 0.68188783072 0.36209718173 -0.66988122108 0.64818576089 
0.31306275306 -0.73106097526 0.60625206235 0.27773172249 -0.77986704999 0.56095674938 0.25191327155 -0.81824813844 0.51672980131 
0.23087694902 -0.84778293953 0.47745148639 0.21001742642 -0.87015318771 0.44578706859 0.18562276487 -0.88708614203 0.42263739278 
0.15584848815 -0.89999676546 0.40708361659 0.12080201975 -0.91009054055 0.3964115034 0.081830487884 -0.91847831177 0.38691260262 
0.041420630983 -0.92625802203 0.37460700469 0.0015856176309 -0.93442425229 0.35615839532 0.0015856176309 -0.93442425229 0.35615839532 

FrenetNormal 3 120 double
0.31379162923 -0.84346940986 -0.43599789915 0.31379162923 -0.84346940986 -0.43599789915 0.28639298756 -0.72930023728 -0.62136963281 
0.24998084659 -0.56652114719 -0.78521549025 0.21780995288 -0.36291836686 -0.9060072204 0.20106837889 -0.13651139549 -0.97001863173 
0.20138686489 0.088974623067 -0.97546237606 0.21418768949 0.28900210441 -0.93306024313 0.2373764492 0.44593305433 -0.86301571969 
0.27636610704 0.55314377256 -0.78590949972 0.3458478824 0.60884631122 -0.71392955644 0.46626915688 0.60502013337 -0.64540197672 
0.63957921505 0.52565422012 -0.56091538447 0.81150271561 0.38294966764 -0.44137613735 0.91974913628 0.24685373765 -0.30516349473 
0.96915023687 0.16900230588 -0.17940467938 0.98708494679 0.14546534538 -0.067105447653 0.98780910771 0.15120329588 0.037023371622 
0.97845643236 0.15355779722 0.13799642348 0.96323286553 0.098849930625 0.24982221273 0.90579398059 -0.12292793329 0.40549474465 
0.60471503367 -0.56835728732 0.55793343869 0.18282897656 -0.81006010896 0.55711415814 -0.02540006509 -0.8303710496 0.55663161667 
-0.11739359052 -0.78515607765 0.60806963305 -0.17460437867 -0.69921932724 0.69325727068 -0.22673009002 -0.56363082822 0.79430079677 
-0.28041854402 -0.36308058742 0.88855946745 -0.32809050202 -0.092922134448 0.94006494425 -0.35294209052 0.21718366125 0.91008963186 
-0.34338593945 0.50547488869 0.79156884318 -0.30419568366 0.72497671856 0.61795933813 -0.24713436131 0.86937819548 0.42790905655 
-0.17888990455 0.95356902544 0.24229014792 -0.10099018421 0.99254914106 0.068170266748 -0.012321883359 0.99578179414 -0.090921887649 
0.090702470906 0.96905394414 -0.22958117328 0.2132164406 0.91614582803 -0.33943419281 0.36464985971 0.83715577697 -0.40767718222 
0.55987492736 0.71848204521 -0.41270281853 0.80632094442 0.50613151407 -0.30606768053 0.993901974 0.10744489756 -0.024788305181 
0.88427651013 -0.35727956507 0.30067651391 0.61665841442 -0.6421540591 0.45537958267 0.37471748573 -0.79422013579 0.47833166506 
0.16786230285 -0.88623763319 0.43174657474 -0.018751387045 -0.94031198985 0.33979662628 -0.18943809048 -0.95857064703 0.2127334589 
-0.33466984744 -0.94054678023 0.058033157821 -0.43869749888 -0.89133390639 -0.1143169795 -0.48929697788 -0.82230225776 -0.29052962725 
-0.4816118692 -0.7484221224 -0.45597624296 -0.41690483504 -0.68296748956 -0.59978810152 -0.30323217438 -0.62908360305 -0.71575419579 
-0.16335645024 -0.57535550236 -0.80142417986 -0.033116067148 -0.50518344774 -0.86237637388 0.05933144937 -0.40892068675 -0.91063914426 
0.11364630133 -0.2879585313 -0.95087559778 0.14646265627 -0.15313155058 -0.97729187991 0.17468265957 -0.022994336176 -0.98435625103 
0.21769292342 0.080236468021 -0.97271367848 0.32231732747 0.13074619005 -0.93755905105 0.6482035063 0.056500654047 -0.75936808631 
0.95822413348 -0.2415383675 0.15318527032 0.73741369075 -0.29157048796 0.60926816694 0.67972892739 -0.25390174165 0.68811517267 
0.70399290314 -0.19930736352 0.68166749019 0.75594223774 -0.13855019847 0.63980870243 0.81018939113 -0.077288449643 0.58105046774 
0.84956758133 -0.01967371119 0.52711276767 0.86865814156 0.033214065944 0.49429733859 0.87005804336 0.083931140398 0.48575154644 
0.8623322331 0.13832622736 0.48708210251 0.85337068442 0.20355668385 0.47991994274 0.84051773528 0.28558486365 0.46040332571 
0.81407264048 0.38834025252 0.43183050412 0.76274938379 0.51133219834 0.39592014405 0.67718421092 0.64521072285 0.35372965326 
0.55778144552 0.77066542816 0.30814713509 0.41767253034 0.86746547008 0.27028376869 0.27344077804 0.92648102509 0.25857890683 
0.12774716771 0.94560966391 0.29917056115 -0.036293684523 0.90672664632 0.42015420659 -0.22824327519 0.76064904071 0.60771543027 
-0.39359246078 0.53419835662 0.74814242668 -0.48598162437 0.3957285242 0.77924373332 -0.52573623933 0.41789932545 0.74091940212 
-0.51763255093 0.56646834955 0.64122550727 -0.43450626957 0.78126050125 0.4481476664 -0.29163852071 0.93821151409 0.18629580799 
-0.14348536886 0.98679717426 -0.075121806426 -0.025360634321 0.95532369789 -0.29447151046 0.074009736228 0.87562986295 -0.47727864195 
0.19105443433 0.74176819815 -0.64286712728 0.36910018748 0.48861375851 -0.79058310543 0.59687742341 -0.029677981881 -0.80178336152 
0.61357700624 -0.66363670874 -0.42791304752 0.41111995946 -0.9111367672 -0.02846349222 0.21227488643 -0.95746257839 0.19546043994 
0.041191999632 -0.95127878022 0.30556816174 -0.11147968777 -0.93365073238 0.34039475487 -0.25537921433 -0.91140283283 0.32268612179 
-0.38856145147 -0.88341518987 0.26191143684 -0.50266732047 -0.84833407091 0.16629753177 -0.58777325895 -0.80771745739 0.045990271702 
-0.63364322179 -0.76812714 -0.092070431014 -0.63295345417 -0.734778463 -0.24386581386 -0.58605379718 -0.70435093861 -0.40053801579 
-0.5041269156 -0.66890267215 -0.5462831392 -0.42291913209 -0.62355681325 -0.6575076489 -0.37786568666 -0.57473152791 -0.72587959999 
-0.41079498954 -0.52976233382 -0.74202381783 -0.54600887561 -0.48261444717 -0.68480479199 -0.74873708747 -0.40623043763 -0.52380302156 
-0.89138142319 -0.30571538128 -0.33463004056 -0.94657298121 -0.22589413058 -0.23015523678 -0.9548214818 -0.1835305883 -0.23373587882 
-0.92454604156 -0.17768198897 -0.33711085393 -0.85566182021 -0.18559194745 -0.48311331846 -0.85566182021 -0.18559194745 -0.48311331846 

FrenetBinormal 3 120 double
0.65817557944 -0.13773729212 0.74015764874 0.65817557944 -0.13773729212 0.74015764874 0.71008076415 -0.27384171331 0.6486879253 
0.75801076664 -0.39006865552 0.52274862184 0.79745590476 -0.46901757491 0.3795874002 0.82789834856 -0.50561781933 0.24276520597 
0.85137355521 -0.50834888109 0.1294004814 0.86939794891 -0.49185009325 0.047230204314 0.88172734222 -0.4717577278 -0.001241065229 
0.88596789374 -0.46351412091 -0.014681654463 0.87507890067 -0.48384876887 0.011282130766 0.83087085635 -0.54998303819 0.084689301439 
0.72184162539 -0.66159455636 0.20306971916 0.54279053121 -0.77374924964 0.32663517554 0.36007961302 -0.84009230457 0.40569396358 
0.23257382109 -0.86802973599 0.43867276548 0.16008040781 -0.87962498179 0.44792204058 0.11878105642 -0.88582729323 0.44855441945 
0.077306557654 -0.89229715195 0.4447802702 -0.017497441522 -0.90480018006 0.42547676047 -0.27236333211 -0.9020104659 0.33495572056 
-0.71020509563 -0.70186018998 0.054781345845 -0.90726846439 -0.35730889845 -0.22179784627 -0.9233813692 -0.1938632532 -0.33133651485 
-0.91931381969 -0.14566761632 -0.36557221788 -0.91803027968 -0.13895428206 -0.37136520177 -0.91972663678 -0.14443495589 -0.36502254328 
-0.9232872709 -0.15112621527 -0.35313097067 -0.92792154012 -0.15472904744 -0.33914677835 -0.93306892886 -0.15383171317 -0.3251433192 
-0.93832308824 -0.14834349422 -0.31232033204 -0.94330511924 -0.13879973272 -0.30151299508 -0.94792430854 -0.12534994519 -0.29279155813 
-0.95240779922 -0.10605854037 -0.28578133248 -0.95642337257 -0.077989030518 -0.28137527169 -0.95869789535 -0.037605145042 -0.28192942116 
-0.95633566155 0.020438960645 -0.29155505713 -0.94304885359 0.10218772375 -0.31656994306 -0.90523145059 0.2161478962 -0.36583617622 
-0.81110324091 0.37349188948 -0.45012813852 -0.58063497667 0.57869562454 -0.57269049059 -0.096793313926 0.74243911386 -0.66288401443 
0.46692095781 0.66780177944 -0.57967715371 0.7849060337 0.45710748155 -0.41830045251 0.92117683269 0.26051610633 -0.28907542487 
0.97657217065 0.089675333868 -0.19561474893 0.98941281381 -0.066369634388 -0.12906337782 0.97354262252 -0.21156093012 -0.086352388372 
0.93862400378 -0.33817941157 -0.067968118396 0.89853310759 -0.4331703478 -0.070722728666 0.86906254706 -0.48759034572 -0.083581960114 
0.86147269561 -0.49986374114 -0.089448504764 0.87768669974 -0.47405488407 -0.070271075024 0.90748822115 -0.41979138993 -0.01550217446 
0.93226682188 -0.35580832262 0.065414144993 0.94140437375 -0.3055413796 0.14283651645 0.94075592139 -0.28218883239 0.18800999774 
0.93994269259 -0.27888840327 0.19679683222 0.9415069521 -0.28153293752 0.18521302396 0.94335295148 -0.28250188432 0.17400544325 
0.94068617521 -0.28296950732 0.18718380723 0.91592986025 -0.2932660693 0.27398449537 0.7295501131 -0.33177551694 0.59806491189 
-0.20897444685 -0.2255557145 0.95155362446 -0.6541463836 -0.083572280166 0.75173677761 -0.72079386592 -0.057613794567 0.69075093451 
-0.70342412892 -0.063340725008 0.70794240402 -0.65220504468 -0.075206957759 0.75430265358 -0.5860169883 -0.084285049755 0.80590329433 
-0.52664869722 -0.087710988434 0.84554593738 -0.49014994197 -0.087416353552 0.86724357335 -0.47924785344 -0.086690448129 0.87338780686 
-0.47937717629 -0.086706760001 0.87331521264 -0.47283226306 -0.085427593918 0.87700158336 -0.45749581215 -0.08108626962 0.88550697273 
-0.43957874632 -0.073922429018 0.89515696963 -0.42472824655 -0.065577695868 0.90294267946 -0.41706386367 -0.059482117945 0.90692866934 
-0.41768465192 -0.060192433276 0.90659605257 -0.42666186579 -0.075382975911 0.90126414509 -0.44258715063 -0.1174918869 0.88899509032 
-0.46179431712 -0.21024054065 0.86171046399 -0.4694515775 -0.38662327275 0.79381210708 -0.42843913154 -0.63897637103 0.63886548493 
-0.33086228379 -0.84161097082 0.42687366159 -0.25987950339 -0.91671730004 0.3034666959 -0.27081922288 -0.90791325673 0.31992259496 
-0.359683103 -0.8240732981 0.43764285071 -0.50156708808 -0.62316839568 0.60007633412 -0.62340043577 -0.33414782976 0.70690672974 
-0.68845185943 -0.04499732312 0.72388485145 -0.70880151069 0.19053824336 0.67918745297 -0.70375513731 0.38494966741 0.59711176531 
-0.67285159029 0.57581858987 0.46443911226 -0.57723280713 0.78720898482 0.21703525195 -0.29377412671 0.92183500186 -0.25281810028 
0.18531311046 0.64779694497 -0.73893042242 0.45705986401 0.23304778747 -0.85836181734 0.55197770582 -0.047573600609 -0.83250066955 
0.57665805319 -0.2271162528 -0.7847825797 0.57295364882 -0.34025393102 -0.74562147148 0.55906715948 -0.41150114227 -0.71979908384 
0.54549062742 -0.44962669859 -0.70730177952 0.54084020622 -0.45867787239 -0.70505778537 0.5519162768 -0.44189400535 -0.70719029366 
0.5856806715 -0.39854071849 -0.70579277889 0.64589293982 -0.3275116168 -0.68960746164 0.72486314418 -0.23483803976 -0.64762992309 
0.80488990901 -0.13460707876 -0.57795602664 0.8625569535 -0.054628609704 -0.50300220374 0.89093053964 -0.012395756403 -0.45397039415 
0.8820109472 -0.024818483199 -0.47057489511 0.81102835237 -0.099582756072 -0.57646880778 0.63634657461 -0.21921452542 -0.73959991132 
0.42561767718 -0.3107151876 -0.84988567764 0.29900913577 -0.3474292011 -0.88875558336 0.28569163296 -0.35030574356 -0.89200122023 
0.37881255044 -0.33237807905 -0.86372788782 0.51753293156 -0.30398510782 -0.79984543443 0.51753293156 -0.30398510782 -0.79984543443 

plain_curvature_peaks 1 120 unsigned_char
0 0 0 0 0 0 0 0 0 
0 0 0 1 0 0 0 0 0 
0 0 0 0 0 0 0 0 0 
0 0 0 0 0 0 0 0 1 
0 0 0 0 0 0 0 0 0 
0 0 0 0 0 0 0 0 0 
0 0 0 0 0 0 0 0 0 
0 0 0 0 0 0 0 0 0 
0 0 0 0 0 0 1 0 0 
0 0 0 0 0 0 0 0 0 
0 0 0 0 0 0 0 0 0 
0 0 0 0 0 0 0 0 0 
0 0 1 0 0 0 0 0 0 
0 0 0 
weighted_curvature_peaks 1 120 unsigned_char
0 0 0 0 0 0 0 0 0 
0 0 0 0 0 0 1 0 0 
0 0 0 0 0 0 0 0 0 
0 0 0 0 0 0 0 0 0 
0 0 1 0 0 0 0 0 0 
0 0 0 0 0 0 0 0 0 
0 0 0 0 0 0 0 0 0 
0 0 0 0 0 0 0 0 0 
0 0 0 0 0 0 0 0 0 
0 1 0 0 0 0 0 0 0 
0 0 0 0 0 0 0 0 0 
0 0 0 0 0 0 0 0 0 
0 0 0 0 0 0 1 0 0 
0 0 0 
plain_torsion_tp 1 120 unsigned_char
0 0 0 0 0 0 0 0 0 
0 0 0 1 0 0 0 0 0 
0 0 0 0 0 0 0 0 0 
0 0 0 0 0 0 0 0 1 
0 0 0 0 0 0 0 0 0 
0 0 0 0 0 0 0 0 0 
0 0 0 0 0 0 0 0 0 
0 0 0 0 0 0 0 0 0 
0 0 0 0 0 0 1 0 0 
0 0 0 0 0 0 0 0 0 
0 0 0 0 0 0 0 0 0 
0 0 0 0 0 0 0 0 0 
0 0 1 0 0 0 0 0 0 
0 0 0 
plain_torsion_tn 1 120 unsigned_char
0 0 0 0 0 0 2 0 0 
0 0 0 0 0 0 0 0 0 
0 0 0 0 0 0 0 2 0 
0 0 0 0 0 0 0 0 0 
0 0 0 0 0 0 0 0 0 
0 0 0 0 0 0 2 0 0 
0 0 0 0 0 0 0 0 0 
0 0 0 0 0 0 0 0 0 
0 0 0 0 0 0 0 0 0 
0 0 0 0 0 0 0 0 0 
0 0 0 0 2 0 0 0 0 
0 0 0 0 0 0 0 0 0 
0 0 0 0 0 0 0 0 0 
0 0 0 
plain_torsion_tz 1 120 unsigned_char
0 0 0 0 0 0 3 0 0 
0 0 0 0 0 0 0 0 0 
0 3 0 0 0 0 0 0 0 
0 3 0 0 0 0 0 0 0 
0 0 0 0 0 0 0 0 0 
0 0 0 0 0 0 0 0 0 
0 0 0 3 0 0 0 0 0 
0 0 0 0 0 0 0 0 0 
0 0 0 0 0 0 0 0 0 
0 0 0 0 0 3 0 0 0 
0 0 0 0 0 0 0 0 0 
3 0 0 0 0 0 0 0 0 
0 0 0 0 0 0 0 0 0 
0 0 0 
weighted_torsion_tp 1 120 unsigned_char
0 0 0 0 0 0 0 0 0 
0 0 0 0 0 0 1 0 0 
0 0 0 0 0 0 0 0 0 
0 0 0 0 0 0 0 0 0 
0 0 1 0 0 0 0 0 0 
0 0 0 0 0 0 0 0 0 
0 0 0 0 0 0 0 0 0 
0 0 0 0 0 0 0 0 0 
0 0 0 0 0 0 0 0 0 
0 1 0 0 0 0 0 0 0 
0 0 0 0 0 0 0 0 0 
0 0 0 0 0 0 0 0 0 
0 0 0 0 0 0 1 0 0 
0 0 0 
weighted_torsion_tn 1 120 unsigned_char
0 0 0 0 0 0 0 2 0 
0 0 0 0 0 0 0 0 0 
0 0 0 0 0 0 0 0 0 
0 2 0 0 0 0 0 0 0 
0 0 0 0 0 0 0 0 0 
0 0 0 0 0 0 0 0 0 
0 0 2 0 0 0 0 0 0 
0 0 0 0 0 0 0 0 0 
0 0 0 0 0 0 0 0 0 
0 0 0 0 0 0 0 0 0 
0 0 0 0 0 0 0 0 0 
2 0 0 0 0 0 0 0 0 
0 0 0 0 0 0 0 0 0 
0 0 0 
weighted_torsion_tz 1 120 unsigned_char
0 0 0 0 0 0 0 3 0 
0 0 0 0 0 0 0 0 0 
0 0 0 0 3 0 0 0 0 
0 0 0 0 3 0 0 0 0 
0 0 0 0 0 0 0 0 0 
0 0 0 0 0 0 0 0 0 
0 0 0 0 0 0 0 0 3 
0 0 0 0 0 0 0 0 0 
0 0 0 0 0 0 0 0 0 
0 0 0 0 0 0 0 0 0 
0 0 3 0 0 0 0 0 0 
0 0 0 0 0 3 0 0 0 
0 0 0 0 0 0 0 0 0 
0 0 0 
plain_torsion_tp_raw 1 120 unsigned_char
0 0 0 0 0 0 0 0 0 
0 0 0 0 0 0 1 0 0 
0 0 0 0 0 0 0 0 1 
0 0 0 0 0 0 0 0 0 
0 0 0 0 0 0 0 0 0 
0 0 0 0 0 0 0 0 0 
1 0 0 0 0 0 0 0 0 
0 0 0 0 0 0 0 0 0 
0 0 0 0 0 0 0 0 1 
0 0 0 0 0 0 0 0 0 
0 0 0 0 0 0 0 0 0 
0 0 0 0 1 0 0 0 0 
0 0 0 0 1 0 0 0 0 
0 0 0 
plain_torsion_tn_raw 1 120 unsigned_char
0 0 0 0 0 0 0 0 0 
0 0 2 0 0 0 0 0 0 
0 0 2 0 0 0 0 0 0 
0 0 0 0 0 0 0 0 0 
0 0 0 0 0 0 0 0 0 
2 0 0 0 0 0 0 0 0 
0 0 0 0 0 0 0 0 0 
2 0 0 0 0 0 0 0 0 
0 0 0 0 0 0 0 0 0 
0 0 0 0 0 0 0 0 0 
0 0 0 0 0 2 0 0 0 
0 0 0 0 0 0 0 0 2 
0 0 0 0 0 0 0 0 0 
0 0 0 
plain_torsion_tz_raw 1 120 unsigned_char
0 0 0 0 0 0 3 0 0 
0 0 0 0 3 0 0 3 0 
0 0 0 0 0 0 0 3 0 
0 0 0 0 0 0 0 0 0 
0 0 0 0 0 0 0 0 0 
0 0 0 0 0 0 0 0 0 
0 0 0 0 0 0 0 0 0 
0 0 0 0 0 0 0 0 0 
0 0 0 0 0 0 0 0 0 
0 0 0 0 0 0 0 0 0 
0 0 0 0 0 0 0 0 0 
0 0 0 0 0 0 0 0 0 
0 0 0 0 0 0 0 0 0 
0 0 0 
weighted_torsion_tp_raw 1 120 unsigned_char
0 0 0 0 0 0 0 0 0 
0 0 0 0 0 0 0 0 0 
1 0 0 0 0 0 0 0 0 
0 0 1 0 0 0 0 0 0 
0 0 0 0 0 0 0 0 0 
0 0 0 0 0 0 0 0 0 
0 0 0 0 0 1 0 0 0 
0 0 0 0 0 0 0 0 0 
0 0 0 0 0 0 0 0 0 
0 0 0 0 1 0 0 0 0 
0 0 0 0 0 0 0 0 0 
0 0 0 0 0 0 0 0 0 
1 0 0 0 0 0 0 1 0 
0 0 0 
weighted_torsion_tn_raw 1 120 unsigned_char
0 0 0 0 0 0 0 0 0 
0 0 0 2 0 0 0 0 0 
0 0 0 0 0 2 0 0 0 
0 0 0 0 0 0 0 0 0 
0 0 0 0 0 0 0 0 0 
0 0 0 0 2 0 0 0 0 
0 0 0 0 0 0 0 0 0 
0 0 0 0 0 2 0 0 0 
0 0 0 0 0 0 0 0 0 
0 0 0 0 0 0 0 0 0 
0 0 0 0 0 0 0 0 0 
0 2 0 0 0 0 0 0 0 
0 0 0 0 2 0 0 0 0 
0 0 0 
weighted_torsion_tz_raw 1 120 unsigned_char
0 0 0 0 0 0 0 3 0 
0 0 0 0 0 0 0 3 0 
0 3 0 0 0 0 0 0 0 
3 0 0 0 0 0 0 0 0 
0 0 0 0 0 0 0 0 0 
0 0 0 0 0 0 0 0 0 
0 0 0 0 0 0 0 0 0 
0 0 0 0 0 0 0 0 0 
0 0 0 0 0 0 0 0 0 
0 0 0 0 0 0 0 0 0 
0 0 0 0 0 0 0 0 0 
0 0 0 0 0 0 0 0 0 
0 0 0 0 0 0 0 0 0 
0 0 0 
