# vtk DataFile Version 5.1
vtk output
ASCII
DATASET POLYDATA
POINTS 120 float
0.713235 20.5114 -5.80715 0.393508 19.9742 -6.18696 -0.0130818 19.4568 -6.36796 
-0.484623 18.961 -6.38362 -0.999556 18.4891 -6.26788 -1.53734 18.0439 -6.0559 
-2.07926 17.6286 -5.78506 -2.6094 17.2472 -5.49555 -3.11504 16.9028 -5.22962 
-3.58684 16.5972 -5.02891 -4.01891 16.3281 -4.92979 -4.4087 16.0888 -4.95797 
-4.75729 15.8678 -5.12348 -5.06911 15.6493 -5.41894 -5.35094 15.4154 -5.8208 
-5.61014 15.1478 -6.29361 -5.85234 14.8307 -6.79694 -6.07967 14.4527 -7.2929 
-6.29015 14.0085 -7.75209 -6.47833 13.4998 -8.15728 -6.63675 12.9347 -8.50414 
-6.75752 12.3267 -8.79943 -6.83348 11.6915 -9.05761 -6.85917 11.0447 -9.29666 
-6.83136 10.3994 -9.53437 -6.74961 9.76466 -9.78546 -6.61634 9.14477 -10.06 
-6.43659 8.54004 -10.3627 -6.21736 7.9486 -10.6931 -5.96639 7.36784 -11.0452 
-5.6907 6.7963 -11.4082 -5.39543 6.23552 -11.7655 -5.08304 5.69026 -12.0955 
-4.75386 5.16871 -12.3728 -4.40748 4.68058 -12.5704 -4.04491 4.23654 -12.6632 
-3.67058 3.84563 -12.6322 -3.29331 3.51466 -12.4674 -2.9256 3.24744 -12.1695 
-2.58201 3.0448 -11.7506 -2.2769 2.90543 -11.2315 -2.02277 2.82538 -10.6388 
-1.8295 2.7986 -10.0003 -1.704 2.81705 -9.34154 -1.64987 2.87135 -8.68211 
-1.6668 2.95159 -8.03444 -1.7501 3.04895 -7.4035 -1.89093 3.15532 -6.78826 
-2.07774 3.2629 -6.18395 -2.29887 3.36287 -5.5851 -2.54498 3.4436 -4.9883 
-2.81034 3.4908 -4.3943 -3.09222 3.48783 -3.80875 -3.38819 3.41872 -3.24154 
-3.69295 3.26998 -2.70512 -3.99561 3.03303 -2.21212 -4.27924 2.70559 -1.77314 
-4.52295 2.29196 -1.39473 -4.70612 1.80193 -1.07828 -4.81334 1.24941 -0.819533 
-4.83856 0.650397 -0.609008 -4.78723 0.0204075 -0.433117 -4.67568 -0.626706 -0.276026 
-4.52783 -1.28057 -0.121951 -4.37 -1.93489 0.0425458 -4.22564 -2.58744 0.226592 
-4.11103 -3.23963 0.433982 -4.03268 -3.89505 0.662948 -3.98682 -4.5581 0.906915 
-3.96085 -5.23252 1.15611 -3.93626 -5.91857 1.39963 -3.89253 -6.61241 1.62781 
-3.81121 -7.3046 1.83451 -3.67976 -7.98005 2.01897 -3.49425 -8.61883 2.18697 
-3.26042 -9.19884 2.35077 -2.99241 -9.69876 2.52765 -2.70912 -10.1019 2.73692 
-2.42912 -10.4004 2.99606 -2.16524 -10.5971 3.31668 -1.92074 -10.7064 3.70146 
-1.68815 -10.7516 4.14317 -1.45091 -10.7601 4.62579 -1.18762 -10.7569 5.12761 
-0.877502 -10.7597 5.62547 -0.505548 -10.7761 6.09968 -0.0656022 -10.8041 6.53683 
0.43894 -10.8364 6.93201 0.996707 -10.8636 7.28772 1.5914 -10.8795 7.61237 
2.20549 -10.8829 7.91792 2.8235 -10.8778 8.21627 3.43459 -10.8715 8.51724 
4.03359 -10.8707 8.8263 4.62075 -10.8793 9.14492 5.20063 -10.8967 9.47003 
5.77998 -10.9184 9.79622 6.36561 -10.9381 10.1173 6.96236 -10.9491 10.4281 
7.57178 -10.9458 10.7263 8.19195 -10.9236 11.0125 8.81779 -10.879 11.2908 
9.44248 -10.8086 11.5673 10.059 -10.7102 11.8488 10.6622 -10.5834 12.141 
11.2493 -10.4322 12.4467 11.8213 -10.2654 12.7657 12.3816 -10.0973 13.0947 
12.9342 -9.94637 13.4288 13.4828 -9.83312 13.7631 14.0283 -9.77678 14.0946 
14.569 -9.7923 14.4228 15.1014 -9.88829 14.7501 15.6216 -10.0653 15.0805 
16.1269 -10.3166 15.4191 16.6164 -10.6281 15.771 17.0909 -10.9812 16.1411 
17.5528 -11.3541 16.534 18.0049 -11.724 16.9541 18.4503 -12.0676 17.4055 

LINES 2 120
OFFSETS vtktypeint64
0 120 
CONNECTIVITY vtktypeint64
0 1 2 3 4 5 6 7 8 
9 10 11 12 13 14 15 16 17 
18 19 20 21 22 23 24 25 26 
27 28 29 30 31 32 33 34 35 
36 37 38 39 40 41 42 43 44 
45 46 47 48 49 50 51 52 53 
54 55 56 57 58 59 60 61 62 
63 64 65 66 67 68 69 70 71 
72 73 74 75 76 77 78 79 80 
81 82 83 84 85 86 87 88 89 
90 91 92 93 94 95 96 97 98 
99 100 101 102 103 104 105 106 107 
108 109 110 111 112 113 114 115 116 
117 118 119 
CELL_DATA 1
FIELD FieldData 2
Length 1 1 double
77.238850803 
Tortuosity 1 1 double
0.76510983405 
POINT_DATA 120
FIELD FieldData 19
Curvature 1 120 double
0 0.43478550469 0.38975551132 0.28853437887 0.19473392979 0.12343150898 0.066751167485 0.035895788577 0.11158645346 
0.27304426691 0.52695437049 0.72453744719 0.61740915169 0.35701815035 0.17541236357 0.11696598691 0.13960715999 0.17321940437 
0.19170094818 0.18757332912 0.16464488409 0.13567970753 0.11576229324 0.11283696023 0.11972659735 0.12320192084 0.11549219661 
0.097341351464 0.07400716393 0.052202759181 0.042880844306 0.060057185439 0.10419410134 0.17701518997 0.28473035259 0.41705987228 
0.51960219879 0.52186230753 0.43500010837 0.33343858072 0.25709796097 0.21119355089 0.18809695915 0.1792515691 0.17539471064 
0.16696609713 0.14636533489 0.11524771733 0.085150457202 0.074473284409 0.091349028421 0.12625991886 0.16733548447 0.20997086402 
0.24821454227 0.27895006167 0.30100080193 0.31182944322 0.30289361614 0.26775440741 0.2099409124 0.14141592611 0.075023931211 
0.028373565182 0.04957860582 0.078648127109 0.08681906895 0.071581212935 0.040273767411 0.0180387702 0.04791674703 0.081019604264 
0.10724430525 0.12707125182 0.14709580627 0.18486014664 0.26760452194 0.40566430189 0.53532924832 0.51697527107 0.34322416923 
0.15352472845 0.061414553839 0.12957850187 0.18593473957 0.2044642405 0.18707183 0.14921444055 0.10488755061 0.06207519107 
0.024894304349 0.011881275767 0.030140309919 0.037331473028 0.028824694385 0.010221988139 0.017542851272 0.037484210037 0.048597542341 
0.052323974587 0.051894252095 0.054905524117 0.062907105379 0.070501515404 0.069395315504 0.055083274479 0.032602610128 0.039957058768 
0.083940727692 0.13394135666 0.17725972858 0.20305290239 0.20186128677 0.17669181104 0.13513410794 0.092608598067 0.059489281333 
0.054795946821 0.079760352432 0 
Torsion 1 120 double
0 0 -0.011129888028 -0.0085685552555 0.014577964988 0.10890010985 0.59671070186 3.1140517208 0.56574157805 
0.21415450129 0.14139197253 0.13717260613 0.2041796447 0.42813819189 1.0318496243 1.313773122 0.50095579505 0.12935659266 
-0.02421810716 -0.1296422546 -0.25438715043 -0.42688654251 -0.57159636927 -0.51857105176 -0.34830360674 -0.21233697731 -0.12541734368 
-0.048138100441 0.088776383849 0.42899107825 0.89002287358 0.5318434456 0.20512395867 0.0914600642 0.063493268016 0.061382611481 
0.065703994336 0.074382041281 0.083107034208 0.08951672973 0.10025872361 0.11568974422 0.13394204212 0.14460345529 0.13815261012 
0.13117528948 0.1589955048 0.27016839188 0.55481254799 0.71782151057 0.38189372996 0.13565286767 0.069669520844 0.085898245142 
0.13318353849 0.18502053304 0.22004495979 0.22647369037 0.21290955366 0.19640723966 0.1971086295 0.25313857235 0.55829524166 
2.80636076 0.74804070759 0.25629329303 0.18360600081 0.23739830125 0.65964528807 3.0916449137 0.50544506381 0.26127684794 
0.26216391636 0.35102725728 0.50310627411 0.61089232523 0.53386886301 0.35601862839 0.21038007914 0.11213647199 -0.029626591605 
-0.67107408496 -3.536469705 -0.3816315602 0.012485491517 0.11343371498 0.16902568647 0.21115561037 0.2501671579 0.34507372768 
0.90972580047 2.4614299473 0.33892269666 0.20863937807 0.30907161682 2.1796399094 0.80680846314 0.23238989887 0.23038290001 
0.32893198046 0.47805827109 0.49924025041 0.36832466855 0.25210406613 0.22454285061 0.40155156502 1.5260805554 1.2140661086 
0.24175145522 0.028144175204 -0.048963179122 -0.085605824216 -0.11155497448 -0.14786273585 -0.22933897556 -0.43273026481 -0.95833362113 
-1.0612852375 0 0 
FrenetTangent 3 120 double
-0.51955955645 -0.75440260718 -0.40116651603 -0.51955955645 -0.75440260718 -0.40116651603 -0.647996643 -0.74769054038 -0.14511790545 
-0.71202640455 -0.69842756471 0.072231129586 -0.73405193734 -0.63949080345 0.22851535087 -0.73818393409 -0.58831600133 0.33010416846 
-0.74013290991 -0.55004083418 0.38685702321 -0.74983903459 -0.52541199472 0.40209906492 -0.77379394168 -0.51456519588 0.3694124998 
-0.81259958706 -0.51674181669 0.26955482929 -0.84818505391 -0.52461502529 0.073220144542 -0.82835642488 -0.51634093221 -0.21729628411 
-0.71978899261 -0.47903887541 -0.50241970698 -0.58117223611 -0.44294656452 -0.68266915337 -0.47282940714 -0.43830561978 -0.76440861809 
-0.40325449626 -0.47018708044 -0.78505408771 -0.35988971903 -0.53274192761 -0.76594087807 -0.32814951691 -0.61626459476 -0.71591608712 
-0.29597228136 -0.70750814403 -0.64174187552 -0.25560755674 -0.79188063493 -0.55460782267 -0.20436323251 -0.85866337164 -0.47003498104 
-0.14307356238 -0.90416457419 -0.40251258182 -0.073721921395 -0.92979123389 -0.36062908881 0.0015431617375 -0.93816685753 -0.34617996199 
0.079703717538 -0.93123192683 -0.35560429674 0.15612394394 -0.9110210583 -0.38166208281 0.22526502546 -0.8812978747 -0.41541512293 
0.28277617083 -0.8477779836 -0.44867597187 0.32752819882 -0.81651454989 -0.47542535564 0.36200238487 -0.79204260017 -0.49155141427 
0.39150267418 -0.77642289424 -0.49385538916 0.42286639644 -0.76968444153 -0.47829893501 0.46318383037 -0.77018935699 -0.43848499821 
0.51792701355 -0.77407306908 -0.36409132421 0.587558217 -0.77255780194 -0.24068607001 0.66069061497 -0.74860882163 -0.055432332352 
0.70881172147 -0.68078403764 0.18471339314 0.7017682919 -0.56349306725 0.4358862554 0.63863601109 -0.42186599976 0.64356283578 
0.54483284651 -0.28725115493 0.78780958572 0.44253097162 -0.17362409977 0.87978463907 0.34040983741 -0.081279782615 0.93675756711 
0.23862327813 -0.0062397267511 0.97109216707 0.13482170574 0.054599710804 0.98936443197 0.028302003194 0.10235043247 0.99434570728 
-0.077417489445 0.13716890443 0.98751770819 -0.17476286096 0.15886157101 0.97171031881 -0.2558088442 0.1670449973 0.95218580335 
-0.31690301723 0.16123037348 0.93465354241 -0.36042449534 0.13939227696 0.92231446713 -0.39274955939 0.098232975804 0.91438398174 
-0.42060981108 0.033992642013 0.90660459248 -0.44742593174 -0.055810070194 0.89257787989 -0.4710542421 -0.17082617206 0.8654052923 
-0.48362840323 -0.30709332295 0.81963239235 -0.47385936379 -0.4561527479 0.75324761794 -0.43123833901 -0.60600878453 0.66842116067 
-0.35069684538 -0.74239035267 0.57084874258 -0.23693525679 -0.85064597929 0.46932195986 -0.10591014021 -0.92084626896 0.37526682659 
0.02026234748 -0.95376284368 0.29987643338 0.12248383962 -0.96036383388 0.25039771486 0.19037489683 -0.95478153158 0.2283629252 
0.22140130137 -0.94749286784 0.23073519268 0.2180433191 -0.94297825333 0.2514937867 0.18676826432 -0.94096959451 0.28230096996 
0.13863051816 -0.93941833625 0.31348806829 0.088325124321 -0.93759857968 0.33631469756 0.050322263593 -0.93706016542 0.34552267099 
0.034922265834 -0.93966187383 0.34031749619 0.046802778925 -0.94520500376 0.32310524717 0.085769936038 -0.95062288227 0.29826104972 
0.14792873548 -0.95087096042 0.27195864731 0.2268654019 -0.94068447301 0.2522792335 0.31507217894 -0.91574042869 0.24929699021 
0.40516281077 -0.87188739948 0.27505537515 0.4894672584 -0.80179733172 0.34284521552 0.5552991452 -0.69167597678 0.46176531105 
0.58072346996 -0.52873648796 0.61902986821 0.55153108177 -0.33193943172 0.7652644507 0.49350670495 -0.15983132194 0.85492986888 
0.45250843406 -0.051759377811 0.89025675168 0.45321855644 -0.0047847709093 0.8913865862 0.49755515125 0.00033431527223 0.86743227961 
0.57430404454 -0.016119317771 0.81848337309 0.6647445774 -0.036374645771 0.74618465005 0.74938687265 -0.047916520019 0.66039633721 
0.81574724839 -0.04566713256 0.57660293075 0.86068916355 -0.03216931759 0.50811347036 0.88663628474 -0.014128172993 0.46225154766 
0.89794154714 0.0012190775091 0.44011304431 0.89880846446 0.008315701203 0.43826269899 0.89293760362 0.0052427788563 0.4501499187 
0.88386104451 -0.0058008509221 0.46771359199 0.87546323615 -0.019452536728 0.48289307404 0.87144532777 -0.029420903548 0.48960948841 
0.87370954492 -0.031081990206 0.48545395353 0.88172110513 -0.022844370997 0.47121760098 0.89267226883 -0.0056746369516 0.45067063245 
0.90302123074 0.018661031931 0.42919042711 0.90978789607 0.048737922302 0.41220213379 0.91085800384 0.083776627409 0.40412766986 
0.9051248833 0.12314984748 0.40691898542 0.89255259609 0.16479877126 0.41975138857 0.8747616161 0.20424799641 0.43940285726 
0.85568153782 0.23478529546 0.4611778083 0.84064628422 0.24869871255 0.48110578379 0.83415100135 0.23910837206 0.49701035538 
0.83742553238 0.20087595471 0.50829846404 0.84684004985 0.13127238431 0.51539256017 0.85425948761 0.032103547675 0.51885459433 
0.85005277871 -0.088332731763 0.51923751975 0.82827895787 -0.21481844697 0.51750072734 0.79058055375 -0.33019711427 0.51570558826 
0.74498786301 -0.42146110818 0.51707215963 0.70081108243 -0.48309087915 0.52486858281 0.66446378571 -0.51514200569 0.54140243022 
0.63864620517 -0.51905780608 0.56807571553 0.62318145222 -0.49546118558 0.60511411419 0.62318145222 -0.49546118558 0.60511411419 

FrenetNormal 3 120 double
-0.53061558943 -0.083123185256 0.84352690077 -0.53061558943 -0.083123185256 0.84352690077 -0.35615237387 0.12904075186 0.92547499747 
-0.19165690429 0.29228549988 0.93692946245 -0.068784721342 0.40478553666 0.9118208878 -0.0085541789231 0.4974574326 0.86744621088 
-0.088130435478 0.64966471634 0.75509521432 -0.64456926641 0.71720910458 -0.26484252134 -0.46070457231 0.056925949429 -0.88572610514 
-0.28696231626 -0.047819753797 -0.95674756346 -0.075744407472 -0.016687100615 -0.9969876255 0.20753620529 0.077437503748 -0.97515750344 
0.49211791242 0.15834496104 -0.85600632801 0.71192090168 0.1296384256 -0.69019019724 0.87609739539 -0.14104192287 -0.46104287196 
0.73698325198 -0.67541237279 0.025957907803 0.38047232526 -0.83338714512 0.40088237185 0.2567854412 -0.78753917315 0.56021717926 
0.27147496018 -0.70644320712 0.6536354803 0.35873301265 -0.61039728963 0.70620519288 0.50345821706 -0.50399114353 0.70179965155 
0.70585128639 -0.37830163109 0.59888382631 0.91400321659 -0.20765376527 0.34853699063 0.99990171907 -0.0033762587249 0.013607096394 
0.95474586997 0.17386465975 -0.24131183947 0.87270208584 0.30820283483 -0.37868467354 0.79826386331 0.41140169824 -0.43991299961 
0.74309488254 0.48940079745 -0.45639550283 0.72905081188 0.53846963589 -0.42253445411 0.80354130373 0.53243371017 -0.2661498027 
0.9192921555 0.35355317379 0.17292219676 0.79376669111 0.059976526921 0.60525800805 0.64798182636 -0.043237889686 0.76042753607 
0.54544060771 -0.029042823784 0.83764614119 0.43906494427 0.054532125511 0.89679887489 0.28899079494 0.18550703456 0.93918659518 
0.088098946922 0.3452432036 0.93436914863 -0.13830267805 0.49245070124 0.85928148827 -0.34603929745 0.58955316422 0.72985195155 
-0.50951768909 0.63276819638 0.58309187454 -0.63473973642 0.63238026301 0.44407282056 -0.73380425177 0.59995999047 0.31871512345 
-0.81702912578 0.53921542462 0.20423058897 -0.88507664058 0.45554890367 0.095470082554 -0.93394148345 0.3572805724 -0.010193040686 
-0.95848790443 0.26239083505 -0.11158847045 -0.96670507148 0.15967044248 -0.19996663364 -0.96467716133 0.020005125476 -0.26267426475 
-0.93187148154 -0.23641723548 -0.27517709326 -0.74748503038 -0.63464665789 -0.19618804495 -0.47975525969 -0.87014907156 -0.11258545231 
-0.3280779474 -0.93736934982 -0.11706221611 -0.24288931265 -0.95295375668 -0.18133923853 -0.15198141261 -0.95068059724 -0.27038500745 
-0.025658757309 -0.93105337298 -0.36397973135 0.14082180491 -0.88362422164 -0.44651702564 0.33382137989 -0.79544215989 -0.50580140035 
0.52451383213 -0.66069268375 -0.53700131987 0.68458735945 -0.48895276544 -0.54061570496 0.79966688914 -0.30318365411 -0.51827843704 
0.87386299925 -0.12883000206 -0.46879237315 0.9258693475 0.019702446779 -0.37732978274 0.97346433557 0.15350856955 -0.16971242279 
0.65493020042 0.31977654324 0.68469657146 -0.56872599574 0.086643216005 0.81795091228 -0.79021177027 0.026835270015 0.61224605054 
-0.87809255415 0.029784237708 0.47756294404 -0.94161567507 0.031535429828 0.33520954212 -0.99759702163 -0.030664858763 0.062127682086 
-0.17900614502 -0.34089953744 -0.92289994334 0.74381909414 -0.18292275505 -0.64286267654 0.88231885724 -0.066576570827 -0.46591951492 
0.94267950206 0.05239684666 -0.32956020218 0.96871240582 0.19118213411 -0.15825822699 0.93442251449 0.34528458251 0.087367737189 
0.78271496391 0.48627120925 0.38845539812 0.52177160434 0.58430165534 0.62156734829 0.24155353813 0.66544399605 0.70628335414 
-0.013118912446 0.75420812744 0.65650437519 -0.22361273207 0.82500078244 0.51900968684 -0.34935584157 0.86375640391 0.36314648652 
-0.28846189297 0.93614571342 0.20104959474 0.6930537436 0.630778226 -0.34899188828 0.85896506621 -0.13957187601 -0.49264460462 
0.79976714341 -0.20240867269 -0.5651577174 0.73519170764 -0.14555735036 -0.66204698533 0.65897808721 -0.04326568908 -0.75091674687 
0.57811834096 0.09594712857 -0.81029212779 0.4991204375 0.25024285186 -0.82961274337 0.4208096793 0.43923032207 -0.79372283449 
0.30681906695 0.71520390725 -0.62796929161 -0.42676485947 0.24486447693 0.87058207118 -0.41052758656 -0.40086183893 0.81900969882 
-0.39171922271 -0.5556438213 0.73335938967 -0.35900135736 -0.6951067948 0.62285196414 -0.15468752863 -0.96374443412 0.21741304972 
0.47435667638 0.27555936675 -0.83609376207 0.41146604084 0.52586095998 -0.74442323177 0.34870595312 0.64221262158 -0.68261783374 
0.25869434506 0.77398519221 -0.57794823131 0.12212697844 0.91769149661 -0.37805729484 -0.059087650805 0.99556492303 -0.07320610332 
-0.21680822512 0.95702199178 0.19262165185 -0.33034701183 0.87256315997 0.359867175 -0.41630229978 0.78083826892 0.46581540655 
-0.49107499149 0.64953151565 0.58047753006 -0.5261209514 0.16424702559 0.83439778229 -0.05451309483 -0.86098277738 0.50570443893 
0.13769182051 -0.97755262902 0.15947357167 0.11980628219 -0.9912381255 0.055618641761 0.029784711817 -0.99947434127 0.012802815243 
-0.097945837917 -0.9951515333 -0.0089464293202 -0.24030328628 -0.97052612522 -0.01825844666 -0.38102146305 -0.92453284021 -0.0078531563918 
-0.5157223161 -0.855535931 0.045702991679 -0.64828046176 -0.738324579 0.18603563893 -0.74657132369 -0.42513812862 0.51175075011 
-0.52327620529 0.24832495415 0.81517895589 -0.18783372725 0.65626021593 0.73078110258 -0.18783372725 0.65626021593 0.73078110258 

FrenetBinormal 3 120 double
-0.6697051318 0.65112766978 -0.35711033881 -0.6697051318 0.65112766978 -0.35711033881 -0.67324277734 0.65138877806 -0.34990973489 
-0.67548947458 0.65327492177 -0.3419734585 -0.67560078108 0.65360552446 -0.34112080411 -0.67454525828 0.63751108644 -0.37224764498 
-0.66666055981 0.52477694031 -0.52931357522 -0.14923767288 -0.45776995982 -0.87645580657 0.4347346695 -0.85555952188 -0.28111149328 
0.50728151963 -0.85480475316 -0.10942711644 0.52425652029 -0.85117601935 -0.025582904907 0.52034061619 -0.85287482946 0.04301358395 
0.48961593764 -0.86339366986 0.12176865134 0.39421753098 -0.88712581948 0.24000066392 0.094264020385 -0.88769102714 0.45068718065 
-0.54244031703 -0.56810407151 0.61888307974 -0.85189212923 -0.14714586272 0.50262102546 -0.90905397625 -1.8315572115e-06 0.41667837508 
-0.91580661422 0.019241134177 0.40115835289 -0.89776132829 -0.018444751162 0.44009588567 -0.83950312261 -0.093220928144 0.53529838939 
-0.69376070604 -0.19842958119 0.69233068982 -0.39895262673 -0.30392133054 0.86514081309 -0.013934519981 -0.34616693705 0.93806944351 
0.28654430929 -0.32027828296 0.90294749586 0.46261904792 -0.27395555101 0.84316781993 0.55859687866 -0.23251386784 0.79618266021 
0.60650443754 -0.20435104594 0.76837036464 0.60100764776 -0.20821729282 0.77164458548 0.472520525 -0.29863500096 0.82918121641 
0.040343387742 -0.52169688767 0.85217648903 -0.43717096295 -0.63560103578 0.63631193016 -0.60463236102 -0.63634804884 0.47904161482 
-0.65897355948 -0.63242975745 0.40716882223 -0.67970384458 -0.63259836386 0.37124384669 -0.69280028271 -0.63653120294 0.33890381521 
-0.69987464525 -0.64601874931 0.30468878627 -0.69885165359 -0.66330073873 0.26765368719 -0.68731422942 -0.68880777058 0.23052766695 
-0.66599466504 -0.71909052534 0.19839335297 -0.63346018515 -0.75495024666 0.1696417369 -0.58792215699 -0.79589044897 0.14458883274 
-0.52490221828 -0.84214475695 0.12357131375 -0.44549124342 -0.88853478713 0.10974280886 -0.35630366559 -0.92837222145 0.10570107063 
-0.27442206432 -0.95516267795 0.11116109605 -0.18692043014 -0.9743040342 0.12566782302 -0.06292701832 -0.9857462979 0.15602700579 
0.17660130111 -0.95818143242 0.22516732225 0.55799669579 -0.76012723458 0.33293584177 0.78459076875 -0.4828984114 0.38887845127 
0.8458441034 -0.34667449041 0.40541898136 0.8607059994 -0.29793350549 0.4128205529 0.86891285594 -0.25889152356 0.42185972527 
0.87489724869 -0.19706168492 0.44240422305 0.86926780833 -0.10551258459 0.48294986477 0.83821046361 0.0050123184458 0.54532384449 
0.77582018699 0.1110933927 0.62109684877 0.68934884592 0.19320096035 0.69819163383 0.59102953278 0.24519751388 0.76848049459 
0.48574982844 0.27154975344 0.83084766088 0.35744042914 0.27805236947 0.89158466757 0.12698262098 0.25461214823 0.95866994734 
-0.72252882041 -0.00047726598457 0.69134063665 -0.79310015305 -0.32137978603 -0.51740427169 -0.58368054068 -0.33742568142 -0.73855327225 
-0.45796838949 -0.34147633697 -0.82076724199 -0.32489781913 -0.34628661546 -0.88007214879 -0.047621972147 -0.34781879308 -0.93635155521 
0.98322796715 -0.028689165917 -0.18011023393 0.66674032058 0.27041961199 0.69450023641 0.46277095008 0.30312323554 0.83304222693 
0.29911945042 0.3051212662 0.90411756276 0.10063977461 0.28028933949 0.95462533066 -0.16608457629 0.20542157712 0.96447803976 
-0.47244087676 0.05790227707 0.87945832435 -0.6986960683 -0.12534996773 0.70435160945 -0.79579818268 -0.28065749815 0.53659726161 
-0.8139951754 -0.38936849745 0.43104991315 -0.80362355111 -0.45737284861 0.38078769079 -0.79649333213 -0.4778899698 0.37043157078 
-0.84381624386 -0.3477817851 0.40868322273 -0.56059740329 0.77594841038 0.28919650042 0.12090445196 0.99021188625 -0.069731871016 
0.17477809001 0.97916847213 -0.10335241865 0.13269438511 0.98868091056 -0.070016121411 0.064553819929 0.99791386765 -0.00084680272427 
-0.018319677518 0.99433830336 0.10466961303 -0.10046368808 0.96764851578 0.23143767472 -0.19182104264 0.89826339061 0.39538281285 
-0.31553611216 0.69891479087 0.64183726678 -0.10007546617 -0.96952165373 0.22363511357 0.18474181094 -0.91612351752 -0.35579230449 
0.25562805904 -0.83140020085 -0.49338423308 0.32354620622 -0.71864326521 -0.61552393114 0.46546193098 -0.26520006813 -0.84440163114 
-0.10778392589 0.9607814243 0.25550279849 -0.23078905953 0.85026371526 0.47306238967 -0.28555275995 0.76650554282 0.57526417767 
-0.34297214562 0.63292865959 0.69409755741 -0.39670012012 0.39429295198 0.82895240075 -0.40846829298 0.042801410501 0.91176844258 
-0.36570909088 -0.26257003315 0.89292431848 -0.30695392976 -0.45986399821 0.83324929532 -0.24796070293 -0.59040185784 0.76807625667 
-0.1632619324 -0.72317679388 0.67108931315 0.12849346023 -0.95455322793 0.26891925501 0.54883552129 -0.44892743675 -0.70515510854 
0.52892290581 -0.063558699775 -0.84628650668 0.51817794696 0.014647173142 -0.85514739993 0.51899286967 0.0045170081776 -0.85476663357 
0.51751027647 -0.043252216846 -0.85458314955 0.50617022686 -0.10923403826 -0.85548794634 0.47937984181 -0.19028634502 -0.85672987235 
0.42311177796 -0.30071382586 -0.85472078382 0.29765125507 -0.47063788472 -0.8306044256 -0.033453491815 -0.74423536974 -0.66707913947 
-0.56419237642 -0.81787145145 -0.11301880947 -0.75918599073 -0.56907006824 0.31590487321 -0.75918599073 -0.56907006824 0.31590487321 

plain_curvature_peaks 1 120 unsigned_char
0 0 0 0 0 0 0 0 0 
0 0 0 0 0 0 0 0 0 
0 0 0 1 0 0 0 0 0 
0 0 0 0 0 0 0 0 0 
0 0 0 0 0 0 0 0 0 
0 0 0 0 0 0 0 0 0 
0 0 1 0 0 0 0 0 0 
0 0 0 0 0 0 0 0 0 
0 0 0 0 0 0 0 0 0 
0 0 0 0 0 0 0 0 0 
0 1 0 0 0 0 0 0 0 
0 0 0 0 0 0 0 0 0 
0 0 0 0 0 0 0 0 1 
0 0 0 
weighted_curvature_peaks 1 120 unsigned_char
0 0 0 0 0 0 0 0 0 
0 0 0 0 0 0 0 0 0 
0 0 0 0 0 0 1 0 0 
0 0 0 0 0 0 0 0 0 
0 0 0 0 0 0 0 0 0 
0 0 0 0 0 0 0 0 0 
0 0 0 0 0 0 0 0 1 
0 0 0 0 0 0 0 0 0 
0 0 0 0 0 0 0 0 0 
0 0 0 0 0 0 0 0 0 
0 0 0 0 0 0 1 0 0 
0 0 0 0 0 0 0 0 0 
0 0 0 0 0 0 0 0 0 
0 1 0 
plain_torsion_tp 1 120 unsigned_char
0 0 0 0 0 0 0 0 0 
0 0 0 0 0 0 0 0 0 
0 0 0 1 0 0 0 0 0 
0 0 0 0 0 0 0 0 0 
0 0 0 0 0 0 0 0 0 
0 0 0 0 0 0 0 0 0 
0 0 1 0 0 0 0 0 0 
0 0 0 0 0 0 0 0 0 
0 0 0 0 0 0 0 0 0 
0 0 0 0 0 0 0 0 0 
0 1 0 0 0 0 0 0 0 
0 0 0 0 0 0 0 0 0 
0 0 0 0 0 0 0 0 1 
0 0 0 
plain_torsion_tn 1 120 unsigned_char
0 0 0 0 0 0 0 0 2 
0 0 0 0 0 0 0 0 0 
0 0 0 0 0 0 0 0 0 
0 0 0 0 0 0 0 0 0 
0 0 0 2 0 0 0 0 0 
0 0 0 0 0 0 0 0 0 
0 0 0 0 0 0 0 0 0 
0 0 0 0 0 0 0 0 0 
2 0 0 0 0 0 0 0 0 
0 0 0 0 0 0 0 0 0 
0 0 0 0 0 0 0 0 0 
0 0 0 0 0 0 2 0 0 
0 0 0 0 0 0 0 0 0 
0 0 0 
plain_torsion_tz 1 120 unsigned_char
0 0 0 0 0 0 0 0 0 
3 0 0 0 0 0 0 0 0 
0 0 0 0 0 0 0 0 0 
0 0 0 0 0 3 0 0 0 
0 0 0 0 0 0 0 0 0 
3 0 0 0 0 0 0 0 0 
0 0 0 0 0 0 0 0 0 
0 0 0 0 0 0 0 0 0 
0 0 0 0 0 3 0 0 0 
0 0 0 0 0 0 0 0 0 
0 0 0 0 0 0 0 0 0 
3 0 0 0 0 0 0 0 0 
0 3 0 0 0 0 0 0 0 
0 0 0 
weighted_torsion_tp 1 120 unsigned_char
0 0 0 0 0 0 0 0 0 
0 0 0 0 0 0 0 0 0 
0 0 0 0 0 0 1 0 0 
0 0 0 0 0 0 0 0 0 
0 0 0 0 0 0 0 0 0 
0 0 0 0 0 0 0 0 0 
0 0 0 0 0 0 0 0 1 
0 0 0 0 0 0 0 0 0 
0 0 0 0 0 0 0 0 0 
0 0 0 0 0 0 0 0 0 
0 0 0 0 0 0 1 0 0 
0 0 0 0 0 0 0 0 0 
0 0 0 0 0 0 0 0 0 
0 1 0 
weighted_torsion_tn 1 120 unsigned_char
0 0 0 0 0 0 0 0 0 
0 2 0 0 0 0 0 0 0 
0 0 0 0 0 0 0 0 0 
0 0 0 0 0 0 0 0 0 
0 0 0 0 0 0 0 2 0 
0 0 0 0 0 0 0 0 0 
0 0 0 0 0 0 0 0 0 
0 0 0 0 0 0 0 0 0 
0 0 0 0 0 0 2 0 0 
0 0 0 0 0 0 0 0 0 
0 0 0 0 0 0 0 0 0 
0 0 0 0 0 0 0 0 0 
0 2 0 0 0 0 0 0 0 
0 0 0 
weighted_torsion_tz 1 120 unsigned_char
0 0 0 0 0 0 0 0 0 
0 0 3 0 0 0 0 0 0 
0 0 0 0 0 0 0 0 0 
0 0 0 0 0 0 0 0 0 
3 0 0 0 0 0 0 0 0 
0 0 0 0 3 0 0 0 0 
0 0 0 0 0 0 0 0 0 
0 0 0 0 0 0 0 0 0 
0 0 0 0 0 0 0 0 0 
0 3 0 0 0 0 0 0 0 
0 0 0 0 0 0 0 0 0 
0 0 0 0 0 3 0 0 0 
0 0 0 0 0 3 0 0 0 
0 0 0 
plain_torsion_tp_raw 1 120 unsigned_char
0 0 0 0 0 0 0 0 0 
0 0 0 0 0 0 0 0 0 
0 0 0 0 0 0 0 0 0 
1 0 0 0 0 0 0 0 0 
0 0 0 0 0 0 1 0 0 
0 0 0 0 0 0 0 0 0 
0 0 0 0 0 0 0 0 0 
0 0 0 0 0 0 0 0 0 
0 0 0 1 0 0 0 0 0 
0 0 0 0 0 0 0 0 0 
0 0 0 0 1 0 0 0 0 
0 0 0 0 0 0 0 0 0 
0 0 0 1 0 0 0 0 0 
1 0 0 
plain_torsion_tn_raw 1 120 unsigned_char
0 0 0 0 0 0 0 0 0 
0 0 0 0 0 0 0 2 0 
0 0 0 0 0 0 0 0 0 
0 0 0 0 0 0 0 2 0 
0 0 0 0 0 0 0 0 0 
0 0 0 0 0 0 0 0 0 
0 0 0 0 0 0 0 0 0 
0 0 0 0 2 0 0 0 0 
0 0 0 0 0 0 0 0 0 
2 0 0 0 0 0 0 0 0 
0 0 0 0 0 0 0 0 0 
0 0 0 0 0 0 0 2 0 
0 0 0 0 0 0 2 0 0 
0 0 0 
plain_torsion_tz_raw 1 120 unsigned_char
0 0 0 0 0 0 0 0 3 
0 0 0 0 0 0 0 0 0 
0 0 0 0 0 3 0 0 0 
0 0 3 0 0 0 0 0 0 
0 0 3 0 0 0 0 0 0 
0 0 0 0 0 0 0 0 0 
0 0 0 0 0 0 0 0 0 
0 0 0 0 0 0 0 0 0 
0 0 0 0 0 0 0 0 0 
0 0 0 0 0 0 0 0 0 
0 0 0 0 0 0 0 0 0 
0 0 0 0 0 0 0 0 0 
0 0 0 0 0 0 0 0 0 
0 0 0 
weighted_torsion_tp_raw 1 120 unsigned_char
0 0 0 0 0 0 0 0 0 
0 0 0 0 0 0 0 0 0 
0 0 0 0 0 0 0 0 0 
0 0 0 1 0 0 0 0 0 
0 0 0 0 0 0 0 0 0 
1 0 0 0 0 0 0 0 0 
0 0 0 0 0 0 0 0 0 
0 0 0 0 0 0 0 0 0 
0 0 0 0 0 0 0 0 1 
0 0 0 0 0 0 0 0 0 
0 0 0 0 0 0 0 0 0 
1 0 0 0 0 0 0 0 0 
0 0 0 0 0 0 0 1 0 
0 1 0 
weighted_torsion_tn_raw 1 120 unsigned_char
0 0 0 0 0 0 0 0 0 
0 0 0 0 0 0 0 0 0 
0 2 0 0 0 0 0 0 0 
0 0 0 0 0 0 0 0 0 
0 0 2 0 0 0 0 0 0 
0 0 0 0 0 0 0 0 0 
0 0 0 0 0 0 0 0 0 
0 0 0 0 0 0 0 0 0 
2 0 0 0 0 0 0 0 0 
0 0 0 0 2 0 0 0 0 
0 0 0 0 0 0 0 0 0 
0 0 0 0 0 0 0 0 0 
0 0 2 0 0 0 0 0 2 
0 0 0 
weighted_torsion_tz_raw 1 120 unsigned_char
0 0 0 0 0 0 0 0 0 
0 3 0 0 0 0 0 0 0 
0 0 0 0 0 0 0 0 3 
0 0 0 0 3 0 0 0 0 
0 0 0 0 0 0 3 0 0 
0 0 0 0 0 0 0 0 0 
0 0 0 0 0 0 0 0 0 
0 0 0 0 0 0 0 0 0 
0 0 0 0 0 0 0 0 0 
0 0 0 0 0 0 0 0 0 
0 0 0 0 0 0 0 0 0 
0 0 0 0 0 0 0 0 0 
0 0 0 0 0 0 0 0 0 
0 0 0 
