# vtk DataFile Version 5.1
vtk output
ASCII
DATASET POLYDATA
POINTS 120 float
0.406355 13.5656 -3.14636 0.142608 12.872 -3.15174 -0.18549 12.2671 -3.12919 
-0.57229 11.7434 -3.07236 -1.01198 11.2935 -2.97537 -1.49832 10.9093 -2.83369 
-2.02429 10.5822 -2.64585 -2.58197 10.3028 -2.41557 -3.1625 10.0618 -2.15388 
-3.75613 9.85023 -1.88022 -4.3522 9.66016 -1.62155 -4.93887 9.48444 -1.40956 
-5.50309 9.31638 -1.27612 -6.03085 9.14947 -1.24797 -6.50812 8.97768 -1.34207 
-6.92201 8.79631 -1.56282 -7.26225 8.6036 -1.9019 -7.52254 8.40232 -2.34037 
-7.70186 8.20041 -2.85238 -7.80493 8.00975 -3.40965 -7.84158 7.84296 -3.98556 
-7.82497 7.70881 -4.55816 -7.76898 7.60818 -5.11201 -7.68531 7.53217 -5.639 
-7.58132 7.46351 -6.13793 -7.45901 7.38116 -6.61298 -7.31481 7.26581 -7.07188 
-7.14091 7.10442 -7.52354 -6.92697 6.89271 -7.97625 -6.66268 6.63443 -8.43633 
-6.34075 6.33891 -8.90728 -5.95955 6.01786 -9.38914 -5.52504 5.6829 -9.8777 
-5.05129 5.34388 -10.3633 -4.55951 5.00873 -10.83 -4.07554 4.68419 -11.2549 
-3.62643 4.37694 -11.6098 -3.23651 4.09434 -11.8634 -2.92392 3.84418 -11.9868 
-2.69832 3.63321 -11.9585 -2.56033 3.46516 -11.7697 -2.5035 3.33924 -11.426 
-2.51681 3.25023 -10.9473 -2.58753 3.18851 -10.3649 -2.70362 3.14377 -9.71589 
-2.85456 3.10718 -9.03676 -3.0311 3.07495 -8.35877 -3.22442 3.04912 -7.70478 
-3.4256 3.03773 -7.08818 -3.62528 3.05259 -6.51363 -3.81339 3.10606 -5.97885 
-3.97873 3.20667 -5.4767 -4.10878 3.35575 -4.99717 -4.19074 3.54607 -4.52913 
-4.21368 3.76197 -4.06165 -4.1716 3.98143 -3.58512 -4.06585 4.17841 -3.09235 
-3.90581 4.32593 -2.57975 -3.70739 4.39912 -2.04855 -3.48974 4.37824 -1.50568 
-3.27155 4.25112 -0.963874 -3.06823 4.01431 -0.440588 -2.89022 3.67298 0.0437931 
-2.74244 3.2394 0.4683 -2.62503 2.73066 0.813832 -2.53499 2.16565 1.06556 
-2.46733 1.56283 1.216 -2.41609 0.938715 1.26755 -2.37501 0.306169 1.23393 
-2.33795 -0.325579 1.13961 -2.29928 -0.951226 1.017 -2.25444 -1.56901 0.901509 
-2.20045 -2.17977 0.825629 -2.13618 -2.78659 0.813469 -2.0621 -3.39391 0.877355 
-1.9795 -4.00618 1.01699 -1.88921 -4.62741 1.22099 -1.79025 -5.25953 1.47054 
-1.6787 -5.90156 1.74378 -1.54751 -6.54823 2.01997 -1.38684 -7.18964 2.2829 
-1.18566 -7.81125 2.52304 -0.933667 -8.39495 2.73839 -0.623485 -8.92069 2.93394 
-0.25221 -9.36944 3.12007 0.177943 -9.72618 3.3101 0.66002 -9.98254 3.51748 
1.1836 -10.139 3.75323 1.73644 -10.2047 4.02424 2.30613 -10.1965 4.33259 
2.88168 -10.1357 4.67592 3.45456 -10.044 5.04848 4.01932 -9.94015 5.44237 
4.57374 -9.83791 5.84867 5.11857 -9.74503 6.25844 5.65681 -9.66384 6.66351 
6.19266 -9.59321 7.0573 6.73049 -9.52977 7.43549 7.27358 -9.46971 7.79689 
7.82337 -9.40961 8.14377 8.37933 -9.3469 8.48116 8.9395 -9.2795 8.8161 
9.50159 -9.20641 9.15559 10.0638 -9.12727 9.50514 10.6258 -9.04249 9.86724 
11.1879 -8.95369 10.2417 11.7511 -8.86459 10.6256 12.3149 -8.78109 11.0149 
12.8766 -8.71246 11.4057 13.4303 -8.67109 11.7951 13.9667 -8.67224 12.1813 
14.4741 -8.73256 12.5641 14.9395 -8.8675 12.9427 15.3499 -9.08963 13.3168 
15.6943 -9.40731 13.6841 15.9632 -9.82447 14.042 16.1496 -10.3411 14.3865 
16.2472 -10.955 14.7137 16.2513 -11.6626 15.019 16.1569 -12.4601 15.298 

LINES 2 120
OFFSETS vtktypeint64
0 120 
CONNECTIVITY vtktypeint64
0 1 2 3 4 5 6 7 8 
9 10 11 12 13 14 15 16 17 
18 19 20 21 22 23 24 25 26 
27 28 29 30 31 32 33 34 35 
36 37 38 39 40 41 42 43 44 
45 46 47 48 49 50 51 52 53 
54 55 56 57 58 59 60 61 62 
63 64 65 66 67 68 69 70 71 
72 73 74 75 76 77 78 79 80 
81 82 83 84 85 86 87 88 89 
90 91 92 93 94 95 96 97 98 
99 100 101 102 103 104 105 106 107 
108 109 110 111 112 113 114 115 116 
117 118 119 
CELL_DATA 1
FIELD FieldData 2
Length 1 1 double
73.918621815 
Tortuosity 1 1 double
1.0777998247 
POINT_DATA 120
FIELD FieldData 19
Curvature 1 120 double
0 0.19568313502 0.22339555126 0.23639684202 0.22897431503 0.20155169988 0.16103797032 0.11544359245 0.072365760199 
0.052309895841 0.092231678173 0.176803454 0.30045239925 0.44906670334 0.55545680569 0.5443256006 0.44327684151 0.33365510962 
0.25365142686 0.2038585492 0.17394922051 0.15088162498 0.12196449455 0.091491632043 0.11134463968 0.17373048896 0.21077144339 
0.19847903203 0.15904108741 0.12054826384 0.09276773036 0.072611187034 0.056736820293 0.04597050627 0.047974078131 0.077064213835 
0.16100081195 0.39955108979 1.1262326894 2.3109900425 1.5792662509 0.58178150598 0.22585982354 0.10740442073 0.065338325823 
0.052349008697 0.048645814077 0.051915148041 0.073384384702 0.11852692294 0.17389338571 0.21944217945 0.24203008788 0.24438951707 
0.23990015329 0.23918817708 0.2480619577 0.26652195077 0.28818860829 0.3040184983 0.30911702995 0.30493934855 0.29728132912 
0.29181089692 0.29047036644 0.28483031158 0.26258135618 0.21650223507 0.14959652423 0.070924400727 0.021663457168 0.10129193252 
0.17079685711 0.20462910611 0.19102286385 0.143190302 0.087081671564 0.042430499557 0.03651942371 0.06394455011 0.097193534287 
0.13592088132 0.18392699761 0.24167061384 0.29947938064 0.33429333137 0.32315953614 0.26969294043 0.1987106929 0.13421340973 
0.084561008679 0.051918826746 0.033406284907 0.025093577971 0.022653817938 0.026891447904 0.034449696047 0.039477196421 0.037028986777 
0.027203679755 0.014355998879 0.01384240813 0.022840349173 0.026214242182 0.023264232443 0.015504661895 0.015420061064 0.031323086012 
0.05748806407 0.095316437164 0.14729733278 0.21081910068 0.2786954026 0.32971817908 0.34440088662 0.31741973011 0.26836019729 
0.21446489116 0.1687771286 0 
Torsion 1 120 double
0 0 -0.12642235247 -0.13171774225 -0.12757271326 -0.10512710947 -0.043584489879 0.11679477014 0.6368212417 
1.6347372341 0.66542881714 0.25549195756 0.14468668412 0.10695766132 0.088524495663 0.071283912541 0.03673965265 -0.031738086333 
-0.12452034885 -0.19803494811 -0.1922515122 -0.052869398262 0.3475186064 1.3475932677 1.062971281 0.25853495343 -0.050746799111 
-0.23356986663 -0.37154222681 -0.42249090071 -0.34970265312 -0.19634231161 0.021985758904 0.35096450608 0.56455908128 0.30930087172 
0.050528919262 -0.069977848673 -0.072245307731 -0.039891522437 -0.035656908822 0.0066469641174 0.1627637388 0.33611206132 0.38693419315 
0.11153901591 -0.33666013232 -0.78594336034 -0.74551849937 -0.51409911305 -0.43771073742 -0.47435450973 -0.57398941967 -0.6817337906 
-0.73827757604 -0.71730523359 -0.61230191729 -0.45423789524 -0.29572456644 -0.16834015396 -0.071702559214 0.0042481568699 0.062745408362 
0.098293803555 0.10700268823 0.098301198983 0.086118930436 0.083930578632 0.11801710673 0.41200712587 4.2304204265 0.20864947007 
0.076735324057 0.043697632096 0.020290863111 -0.030203138738 -0.21279081445 -1.0628076696 -1.1428166043 -0.11042815683 0.1550153483 
0.24827841402 0.27519744354 0.26592045604 0.23933874117 0.21202260276 0.19675976036 0.19944221844 0.22753758234 0.29510481315 
0.43588920264 0.66125300037 0.93064565734 1.0686411538 1.120675649 0.82489870263 0.48902698825 0.30766999665 0.26915938858 
0.43952656159 1.4958241535 1.3505978813 0.34068336415 0.17426778717 0.27713428696 0.95478070364 1.2048833757 0.19850161309 
-0.048314606578 -0.088063848203 -0.072278173653 -0.060203354567 -0.037386488856 -0.023247670956 -0.015350441375 -0.0090636865744 -0.0063325808101 
-0.0033566785001 0 0 
FrenetTangent 3 120 double
-0.41469540973 -0.90988072152 0.012032861518 -0.41469540973 -0.90988072152 0.012032861518 -0.53416158604 -0.84329922072 0.059311249723 
-0.64252376177 -0.75687769518 0.11957997361 -0.72976958489 -0.65731302248 0.18808493681 -0.79065191953 -0.55554856953 0.25736225254 
-0.82700331544 -0.46286106043 0.31910054058 -0.84640489478 -0.38697923559 0.36584945717 -0.85861178063 -0.33095462174 0.39147777524 
-0.87231582353 -0.29448638419 0.39031125213 -0.89299781227 -0.27617879598 0.35535922662 -0.92084317214 -0.27506281891 0.27638433018 
-0.94660365487 -0.29037890654 0.14007716168 -0.9458083952 -0.318739698 -0.062060329427 -0.88323643471 -0.35002345385 -0.31205285155 
-0.74594387831 -0.37002685536 -0.55375794055 -0.56733321415 -0.37220705202 -0.734571259 -0.39175626405 -0.3593005957 -0.84701246243 
-0.24063075733 -0.33451460171 -0.91115137045 -0.11678365481 -0.29876370517 -0.94715459479 -0.016876466814 -0.25343411939 -0.96720542389 
0.06296651142 -0.2036404956 -0.97701881609 0.12650086361 -0.15999469405 -0.97897866646 0.1782259881 -0.13739239177 -0.97435046459 
0.2237780389 -0.14933058855 -0.96313226746 0.26888704393 -0.19947113938 -0.94229030673 0.31700775152 -0.27579383082 -0.90743806861 
0.36854291984 -0.35453115251 -0.85935078875 0.42224142448 -0.41496086276 -0.80592782669 0.47592901183 -0.44960630535 -0.75587416009 
0.52666279969 -0.46182965213 -0.71368036812 0.57146897035 -0.45959165337 -0.67985198984 0.60845837221 -0.45151166793 -0.65262211348 
0.63753474899 -0.44515155585 -0.62880007646 0.66052163184 -0.44656765713 -0.60356317107 0.68091025061 -0.46103894294 -0.56903806877 
0.70356237367 -0.49461025644 -0.51025550519 0.73260259673 -0.55559163488 -0.39320652399 0.75263252674 -0.64487748748 -0.13295602968 
0.63976468473 -0.66690863984 0.38201310747 0.30502961917 -0.4602829796 0.83372448094 0.051130455269 -0.25252057692 0.96623963631 
-0.078160632615 -0.1402037549 0.98703283766 -0.1494348731 -0.085161257729 0.98509734488 -0.19675015623 -0.059923964305 0.97862071025 
-0.23429123311 -0.049239301821 0.97091869343 -0.26732133152 -0.04196809325 0.96269308965 -0.29640240467 -0.027960770627 0.95465376436 
-0.31894867431 0.0027607500234 0.94776796813 -0.32943999925 0.058041240978 0.94239084314 -0.3194941711 0.13927983604 0.93729643225 
-0.27995084847 0.23664664466 0.93039018052 -0.20610916519 0.32996598386 0.92121738017 -0.10231073788 0.39620331577 0.91244476298 
0.01840776956 0.41871232251 0.90793234605 0.13877029065 0.39091880799 0.90990400152 0.24261962119 0.31447421428 0.91773726522 
0.31848706026 0.19610502689 0.92742051459 0.36085412783 0.045374281067 0.93151783292 0.36989559791 -0.12560906112 0.92054310622 
0.35069878998 -0.30280239808 0.88618342708 0.3118646783 -0.47282641358 0.82412111067 0.26316032234 -0.62592273435 0.73414397455 
0.21291844703 -0.75658473408 0.61825987665 0.16647734605 -0.86170998057 0.47931326149 0.12665357186 -0.93789144728 0.32298375478 
0.095189200523 -0.98223686015 0.16170889484 0.073257710581 -0.99721156776 0.014226628589 0.061378663237 -0.99304289362 -0.10049114948 
0.059248964252 -0.98371087691 -0.16971290727 0.065812280296 -0.98002588249 -0.18766463014 0.079233955485 -0.98497768138 -0.15343059498 
0.096426199672 -0.99274831289 -0.071782834126 0.11311497368 -0.99268144732 0.042291215025 0.12571360303 -0.97853464976 0.16329736443 
0.13380625201 -0.9546551878 0.26594991885 0.1405757529 -0.93099004231 0.33689167221 0.15109442568 -0.91453165024 0.37523637249 
0.1707241137 -0.90637901656 0.38643286007 0.20459403691 -0.90294757263 0.37792454424 0.25720214502 -0.89776431558 0.35758396254 
0.33178435642 -0.88244638389 0.3334779159 0.42919083655 -0.84698693778 0.31370105681 0.54565623299 -0.78029261001 0.30561858281 
0.66957954821 -0.67297314229 0.31427754992 0.78051233907 -0.5245739914 0.34003325736 0.856663662 -0.35162554072 0.37747430287 
0.88938668707 -0.18352121725 0.41870190313 0.88770197412 -0.04553389127 0.45816140158 0.86794862863 0.052292564648 0.49389337487 
0.84327788038 0.11202956227 0.52567270582 0.8210405903 0.14109961771 0.55315752455 0.80449533555 0.14811624882 0.57519460351 
0.79489491441 0.14109555153 0.5901136504 0.79258820395 0.12738488311 0.59630280103 0.79728867506 0.11269570151 0.59298435687 
0.80777810502 0.10086925826 0.58079249805 0.82165423073 0.093879376485 0.56220191017 0.8356294565 0.091874898231 0.54155555072 
0.84658220549 0.094025626545 0.52388715473 0.85235691431 0.099359980401 0.51343479131 0.85224062969 0.10668533303 0.51215637146 
0.84699650192 0.11468273006 0.51908072316 0.83859561171 0.12227551164 0.53085412241 0.8295521877 0.12809771453 0.54353853903 
0.8222534767 0.12998569342 0.55407845975 0.81808109162 0.12528686528 0.56129005774 0.81683666432 0.11040952194 0.56620455782 
0.81678658467 0.080549569199 0.57128928049 0.81442558161 0.030048800037 0.57948946638 0.80416017954 -0.04736033337 0.59252291472 
0.77781608232 -0.15613102666 0.60878998398 0.72457549169 -0.29539884137 0.62267959767 0.63550767147 -0.45445626586 0.62417906239 
0.5107342304 -0.61191634815 0.60391135837 0.36303484033 -0.74461220591 0.56014138172 0.21104125167 -0.84034257384 0.49928543808 
0.06923351476 -0.89986815373 0.43063212413 -0.055839806024 -0.93075150294 0.36136346778 -0.055839806024 -0.93075150294 0.36136346778 

FrenetNormal 3 120 double
-0.87016199474 0.4003914502 0.28723646967 -0.87016199474 0.4003914502 0.28723646967 -0.77516338955 0.51658173533 0.36368259543 
-0.65287083333 0.62243101817 0.43167036336 -0.51224355975 0.7078708909 0.48633870637 -0.36945743248 0.76809410861 0.52300348555 
-0.24744199189 0.80933981954 0.53267393137 -0.17856284395 0.8534502262 0.48963049554 -0.23026665199 0.93128831091 0.28227531055 
-0.46087915413 0.76178925686 -0.45526644223 -0.40676306232 0.15735456686 -0.89987963163 -0.26856704464 -0.066483858969 -0.96096391141 
-0.10510490677 -0.13279556996 -0.98555481591 0.11034153647 -0.13571683532 -0.9845840167 0.36654871446 -0.10030063653 -0.92497666037 
0.60893631576 -0.042164339704 -0.7920976782 0.78542977179 0.023470934289 -0.61850560938 0.88640838292 0.099342957518 -0.45211851929 
0.92599304487 0.20224425089 -0.31880110388 0.9149876735 0.33849371069 -0.21958953791 0.86519945408 0.48114550014 -0.14116979974 
0.8141720236 0.57666074387 -0.06772224502 0.83638875377 0.54782290589 0.01854498169 0.97529313961 0.15602248611 0.15639781218 
0.77656037546 -0.56983436293 0.26878017428 0.5301535425 -0.78613364898 0.31769656485 0.46722344232 -0.78721910622 0.40247774316 
0.50445573689 -0.70020158772 0.50521495037 0.60289506257 -0.53536822357 0.59152211177 0.71666272058 -0.29991963813 0.62963700303 
0.78778385323 -0.05029616114 0.61389485807 0.80225669856 0.1385924427 0.58066885954 0.78359199683 0.21172294318 0.58408644723 
0.73593606118 0.1104241494 0.66798549467 0.58746121361 -0.19320589198 0.78585037113 0.38500288246 -0.43562159681 0.81363788314 
0.2642237702 -0.48447816822 0.83394646338 0.16501896602 -0.41547453611 0.89451084437 -0.02490404838 -0.22966133197 0.97295193148 
-0.38992851013 0.14667839155 0.90908811808 -0.67551690003 0.51251672867 0.53009765196 -0.73635067436 0.64406482924 0.20728767476 
-0.76330967823 0.64527823048 0.031214426064 -0.8310791126 0.55059017767 -0.078472701309 -0.92496999813 0.34235267263 -0.16500045484 
-0.95837123924 0.17934879641 -0.22216790279 -0.93779635595 0.24101330766 -0.24990114107 -0.77732386935 0.58782157475 -0.22412808481 
-0.3920237434 0.91005844842 -0.13457713431 -0.031702762181 0.9968659575 -0.072478946192 0.2403872272 0.96869465159 -0.062005265729 
0.48884727667 0.86922539487 -0.073996979672 0.72897514812 0.67980256668 -0.080397162627 0.92467690742 0.37605752356 -0.059610031491 
0.99979311452 -0.015567986266 -0.01309068195 0.90817535353 -0.4166272848 0.040487440124 0.67797616216 -0.73160239365 0.071458107628 
0.3986026043 -0.91537107712 0.056672347881 0.14986608668 -0.9886567578 -0.0098980460351 -0.039013690694 -0.99204460449 -0.11968890774 
-0.16967713772 -0.95116695781 -0.25785865762 -0.24789673388 -0.8778298466 -0.40983163587 -0.2788131341 -0.77783805776 -0.56323280459 
-0.27145657191 -0.65366358744 -0.70642426631 -0.24113277303 -0.50691544604 -0.82758184872 -0.20259571662 -0.34320046226 -0.91715234193 
-0.1634699701 -0.17566516058 -0.97078283887 -0.12372621469 -0.023242152279 -0.99204416543 -0.071296925799 0.096061690193 -0.99281866423 
0.057490780263 0.1730919813 -0.98322630975 0.77268565906 -0.068947604296 0.63103335898 0.25717704488 -0.128506349 0.95778185713 
0.17128757685 -0.054492253924 0.98371294608 0.12102529023 0.056013169708 0.99106780996 0.08394952283 0.17450572566 0.98107096039 
0.06880403227 0.27666476894 0.95850018819 0.12485506566 0.35422385038 0.92678836656 0.46534758119 0.40070732482 0.78923080814 
0.98416926139 0.17580280449 -0.022455263871 0.92946070318 0.058119419304 -0.36431433452 0.92542748348 0.12227349332 -0.35865466071 
0.93204026117 0.2520525655 -0.26032759321 0.90303513721 0.40930163766 -0.13038293742 0.82023335594 0.5720149818 -0.0040127797361 
0.68196443583 0.72467765273 0.098827161754 0.49741257718 0.85059992465 0.17047139423 0.28726377367 0.93292305554 0.21710388475 
0.07891738237 0.96376892924 0.25479697366 -0.10874020212 0.94621230583 0.30472584521 -0.27299006973 0.88097716126 0.38646560413 
-0.42455573633 0.73860267409 0.52365877877 -0.5512255119 0.44795441492 0.70390857161 -0.56911007714 -0.084952730668 0.81786108457 
-0.34259329342 -0.69833921807 0.62845220328 0.089390551776 -0.99164301879 0.093023935257 0.44442229764 -0.77437235837 -0.45037348052 
0.56400466901 -0.4187946518 -0.71169499995 0.56967853856 -0.16766308656 -0.80458402427 0.54262452003 0.015094831507 -0.83983973252 
0.49518487579 0.22177672594 -0.84000418012 0.29764699521 0.71508000381 -0.63250838286 -0.33057869789 0.86858448851 0.3691594653 
-0.49364526781 0.53200940021 0.68795373947 -0.53046251803 0.40504444765 0.744680141 -0.55554152642 0.28816284419 0.77995883715 
-0.54993902109 -0.069163499935 0.83233616007 -0.23834095143 -0.81436200195 0.52915793546 -0.0015929764898 -0.98107774679 0.1936076372 
-0.0071959911855 -0.98870648042 0.14969206153 -0.07825459335 -0.9838476659 0.16099685999 -0.17479489016 -0.97158862645 0.15956906755 
-0.28706018773 -0.94996590574 0.12313093255 -0.41982366466 -0.90569490007 0.058862879516 -0.55266204168 -0.83228092081 -0.043279747477 
-0.67659598959 -0.71946647495 -0.15679878283 -0.76874005901 -0.57905956561 -0.27153036874 -0.82690271886 -0.42586467479 -0.36724810728 
-0.85108409989 -0.27847840621 -0.44509058874 -0.85454625745 -0.14262677974 -0.49940794505 -0.85454625745 -0.14262677974 -0.49940794505 

FrenetBinormal 3 120 double
-0.26616878115 0.1086451067 -0.95778412011 -0.26616878115 0.1086451067 -0.95778412011 -0.33733235762 0.14828936262 -0.9296328014 
-0.40115195442 0.19928818869 -0.89407009083 -0.45281661681 0.25856989829 -0.85328700871 -0.48823226821 0.31842931274 -0.81254662947 
-0.50481479466 0.36156423391 -0.78385797683 -0.50171113687 0.34909852853 -0.79146456176 -0.45799899469 0.15222063039 -0.87582292762 
-0.16326515029 -0.57702244121 -0.8002434586 0.192610276 -0.94813754959 -0.25285661676 0.28270053917 -0.95912477924 -0.012651600775 
0.3047859563 -0.94765258784 0.095184523974 0.30540338063 -0.93807566088 0.16353235023 0.29246442576 -0.93135565927 0.21688982365 
0.26974857509 -0.92806373422 0.25677502112 0.24745322328 -0.92785291166 0.27902665934 0.24659117638 -0.92791920916 0.27956883412 
0.29091875065 -0.92043318292 0.26109200733 0.38621125735 -0.89227924794 0.23383457486 0.5011437813 -0.83920805217 0.21115102567 
0.5771993888 -0.79119715307 0.2021087097 0.53333983919 -0.82115270301 0.20311783347 0.13053271234 -0.97815147831 0.16180511888 
-0.58896296366 -0.80807745554 -0.011552198328 -0.804137413 -0.58498303437 -0.10563082184 -0.82535346393 -0.5515649025 -0.12069721581 
-0.78083322531 -0.61969782835 -0.079209063825 -0.67692667475 -0.73565504658 0.024123213979 -0.50979027121 -0.84136934865 0.17947562098 
-0.31941023155 -0.88554145504 0.33733282585 -0.17264821327 -0.87725004815 0.44791176304 -0.12554677135 -0.86678175399 0.48262552683 
-0.22792006864 -0.88862061621 0.39800231501 -0.46754731992 -0.87364112249 0.13472450676 -0.62300402175 -0.77309567162 -0.1191178887 
-0.65968612659 -0.72155498663 -0.21017282329 -0.66035004059 -0.72020750142 -0.21269456691 -0.65796965588 -0.72896412719 -0.18891064872 
-0.66231178848 -0.73056027511 -0.1662070374 -0.6712926703 -0.72489046174 -0.15459614896 -0.67466536959 -0.72208992097 -0.15301236917 
-0.64128718265 -0.75097197843 -0.15745423774 -0.53570208819 -0.83042038537 -0.15305311583 -0.32514593428 -0.9376586618 -0.12278581098 
-0.16319370665 -0.98255254332 -0.089209381371 -0.22153397141 -0.96961397715 -0.10378552323 -0.55489928514 -0.80850726129 -0.19596630269 
-0.86289578036 -0.41447074532 -0.28917965611 -0.94364411817 -0.053753856761 -0.32656745264 -0.91659012412 0.20550376944 -0.34297338835 
-0.826229909 0.43410318875 -0.35902445459 -0.65277426838 0.65497398408 -0.38065054147 -0.36674941008 0.83761785531 -0.40483477946 
0.0086534484509 0.90798547829 -0.41891226891 0.39491813542 0.82073393442 -0.41283831606 0.69389051222 0.60486684994 -0.39070711651 
0.86004764769 0.35162282292 -0.36970181783 0.92050228381 0.14317468306 -0.363560938 0.92825383306 0.0083586160739 -0.37185340519 
0.92098861428 -0.059934348186 -0.38495174538 0.91721733071 -0.07648492038 -0.39097624633 0.9235853404 -0.056468456017 -0.37921159327 
0.93860378461 -0.017419948934 -0.34455693419 0.95610683452 0.022195493919 -0.2921764553 0.9710375113 0.050725494786 -0.23348035428 
0.98194530651 0.06597349411 -0.17728765635 0.98960857496 0.070914677451 -0.12508387939 0.99556486884 0.068102592475 -0.064904767369 
0.99658635874 0.048498213019 0.066809826479 -0.63136805117 -0.18653551272 0.75271434585 -0.9631105585 -0.11534767204 0.24313158303 
-0.98049097601 -0.10715120868 0.16479097198 -0.98618349299 -0.10698630267 0.12647548849 -0.9885082537 -0.10962522943 0.10408526044 
-0.98861615001 -0.10995489093 0.10270360214 -0.9821658059 -0.088221340559 0.16603410733 -0.87213651638 0.055366962628 0.48611973447 
-0.047583000563 0.38414899749 0.92204414525 0.30699198898 0.42580255304 0.85114517242 0.27826431574 0.42316477464 0.86226477609 
0.14567117902 0.3971874668 0.90610265634 -0.017965711382 0.33924223887 0.94052747785 -0.17168726571 0.25286815409 0.95214556631 
-0.29425794277 0.14815346571 0.94417308462 -0.37865712278 0.036081792212 0.92483343778 -0.42849375089 -0.077550316242 0.90021056087 
-0.45029253561 -0.19357017809 0.87164626915 -0.44739330973 -0.32032629777 0.83500316728 -0.41489950577 -0.47026027796 0.77891826984 
-0.32959800245 -0.66476722769 0.67041009074 -0.14846812491 -0.88285204878 0.44556646626 0.17000286814 -0.98531447284 0.015950374226 
0.50077131542 -0.70172243932 -0.50676790329 0.60316935285 -0.02042583736 -0.79735156421 0.40843553957 0.62261314591 -0.6674827942 
0.17144464524 0.90246131904 -0.39518388284 0.018726660999 0.98136423008 -0.1912421504 -0.085334879746 0.99565614001 -0.037239886707 
-0.19516789728 0.97055358707 0.14119216157 -0.42999297305 0.69194521636 0.57992918592 -0.40546717944 -0.48392068156 0.7755108899 
-0.19725941119 -0.83893615342 0.50722268796 -0.12396336954 -0.90608371285 0.40453107214 -0.05671666687 -0.94897478932 0.31020971767 
0.14651379844 -0.98910066716 0.014614276713 0.52338983407 -0.56667250787 -0.63635316486 0.57686681847 -0.15904776711 -0.80120439435 
0.57689504488 -0.12637746031 -0.8069825554 0.57496712136 -0.17646767387 -0.79891925088 0.56813128062 -0.23188906781 -0.78959122856 
0.55910516963 -0.27053258666 -0.78371776096 0.54656970958 -0.30406623047 -0.78025975166 0.53916107722 -0.31745546345 -0.78008163774 
0.53044171478 -0.32852149746 -0.7814763035 0.52654005202 -0.33202813478 -0.78263202805 0.52124225043 -0.33535598601 -0.7847565731 
0.52044459392 -0.33568896791 -0.78514351649 0.51636480316 -0.33668864175 -0.78740596173 0.51636480316 -0.33668864175 -0.78740596173 

plain_curvature_peaks 1 120 unsigned_char
0 0 0 0 0 0 0 0 0 
0 0 0 0 0 0 0 0 0 
0 1 0 0 0 0 0 0 0 
0 0 0 0 0 0 0 0 0 
0 0 0 0 0 0 0 0 0 
0 0 0 0 0 0 0 0 0 
0 0 0 1 0 0 0 0 0 
0 0 0 0 0 0 0 0 0 
0 0 0 0 0 0 0 0 0 
0 0 0 0 0 0 0 0 0 
0 0 0 0 1 0 0 0 0 
0 0 0 0 0 0 0 0 0 
0 0 0 0 0 0 0 0 1 
0 0 0 
weighted_curvature_peaks 1 120 unsigned_char
0 0 0 0 0 0 0 0 0 
0 0 0 0 0 0 0 0 0 
0 0 0 1 0 0 0 0 0 
0 0 0 0 0 0 0 0 0 
0 0 0 0 0 0 0 0 0 
0 0 0 0 0 0 0 0 0 
0 0 0 0 0 0 0 0 1 
0 0 0 0 0 0 0 0 0 
0 0 0 0 0 0 0 0 0 
0 0 0 0 0 0 0 0 0 
0 0 0 0 0 0 0 0 1 
0 0 0 0 0 0 0 0 0 
0 0 0 0 0 0 0 0 0 
0 1 0 
plain_torsion_tp 1 120 unsigned_char
0 0 0 0 0 0 0 0 0 
0 0 0 0 0 0 0 0 0 
0 1 0 0 0 0 0 0 0 
0 0 0 0 0 0 0 0 0 
0 0 0 0 0 0 0 0 0 
0 0 0 0 0 0 0 0 0 
0 0 0 1 0 0 0 0 0 
0 0 0 0 0 0 0 0 0 
0 0 0 0 0 0 0 0 0 
0 0 0 0 0 0 0 0 0 
0 0 0 0 1 0 0 0 0 
0 0 0 0 0 0 0 0 0 
0 0 0 0 0 0 0 0 1 
0 0 0 
plain_torsion_tn 1 120 unsigned_char
0 0 0 0 0 0 0 0 2 
0 0 0 0 0 0 0 0 0 
0 0 0 0 0 0 0 0 0 
0 0 0 0 0 0 0 0 0 
0 0 0 0 0 0 2 0 0 
0 0 0 0 0 0 0 0 0 
0 0 0 0 0 0 0 0 0 
0 0 0 0 0 0 0 0 0 
0 2 0 0 0 0 0 0 0 
0 0 0 0 0 0 0 0 0 
0 0 0 0 0 0 0 0 0 
0 0 0 0 0 0 0 2 0 
0 0 0 0 0 0 0 0 0 
0 0 0 
plain_torsion_tz 1 120 unsigned_char
0 0 0 0 0 0 0 0 0 
3 0 0 0 0 0 0 0 0 
0 0 0 0 0 0 0 0 0 
0 0 0 0 0 0 3 0 0 
0 0 0 0 0 0 0 0 0 
0 0 0 0 3 0 0 0 0 
0 0 0 0 0 0 0 0 0 
0 0 0 0 0 0 0 0 0 
0 0 0 0 0 0 3 0 0 
0 0 0 0 0 0 0 0 0 
0 0 0 0 0 0 0 0 0 
0 0 3 0 0 0 0 0 0 
0 3 0 0 0 0 0 0 0 
0 0 0 
weighted_torsion_tp 1 120 unsigned_char
0 0 0 0 0 0 0 0 0 
0 0 0 0 0 0 0 0 0 
0 0 0 1 0 0 0 0 0 
0 0 0 0 0 0 0 0 0 
0 0 0 0 0 0 0 0 0 
0 0 0 0 0 0 0 0 0 
0 0 0 0 0 0 0 0 1 
0 0 0 0 0 0 0 0 0 
0 0 0 0 0 0 0 0 0 
0 0 0 0 0 0 0 0 0 
0 0 0 0 0 0 0 0 1 
0 0 0 0 0 0 0 0 0 
0 0 0 0 0 0 0 0 0 
0 1 0 
weighted_torsion_tn 1 120 unsigned_char
0 0 0 0 0 0 0 0 0 
2 0 0 0 0 0 0 0 0 
0 0 0 0 0 0 0 0 0 
0 0 0 0 0 0 0 0 0 
0 0 0 0 0 0 0 0 0 
0 2 0 0 0 0 0 0 0 
0 0 0 0 0 0 0 0 0 
0 0 0 0 0 0 0 0 0 
0 0 0 0 0 0 2 0 0 
0 0 0 0 0 0 0 0 0 
0 0 0 0 0 0 0 0 0 
0 0 0 0 0 0 0 0 0 
0 0 0 2 0 0 0 0 0 
0 0 0 
weighted_torsion_tz 1 120 unsigned_char
0 0 0 0 0 0 0 0 0 
0 3 0 0 0 0 0 0 0 
0 0 0 0 0 0 0 0 0 
0 0 0 0 0 0 0 0 0 
0 3 0 0 0 0 0 0 0 
0 0 0 0 0 0 0 3 0 
0 0 0 0 0 0 0 0 0 
0 0 0 0 0 0 0 0 0 
0 0 0 0 0 0 0 0 0 
0 0 3 0 0 0 0 0 0 
0 0 0 0 0 0 0 0 0 
0 0 0 0 0 0 0 3 0 
0 0 0 0 0 0 3 0 0 
0 0 0 
plain_torsion_tp_raw 1 120 unsigned_char
0 0 0 0 0 0 0 0 0 
0 0 0 0 0 0 0 0 0 
0 0 0 0 0 0 0 0 1 
0 0 0 0 0 0 0 0 0 
0 0 0 0 0 0 0 0 0 
1 0 0 0 0 0 0 0 0 
0 0 0 0 0 0 0 0 0 
0 0 0 0 0 0 0 0 0 
0 0 0 1 0 0 0 0 0 
0 0 0 0 0 0 0 0 0 
0 0 0 0 0 0 0 1 0 
0 0 0 0 0 0 0 0 0 
0 0 0 0 1 0 0 0 0 
1 0 0 
plain_torsion_tn_raw 1 120 unsigned_char
0 0 0 0 0 0 0 0 0 
0 0 0 0 0 2 0 0 0 
0 0 0 0 0 0 0 0 0 
0 0 0 0 0 0 0 0 0 
2 0 0 0 0 0 0 0 0 
0 0 0 0 0 0 0 0 0 
0 0 0 0 0 0 0 0 0 
0 0 0 0 0 2 0 0 0 
0 0 0 0 0 0 0 0 0 
0 0 0 2 0 0 0 0 0 
0 0 0 0 0 0 0 0 0 
0 0 0 0 0 0 0 0 2 
0 0 0 0 0 0 2 0 0 
0 0 0 
plain_torsion_tz_raw 1 120 unsigned_char
0 0 0 0 0 0 0 0 3 
0 0 0 0 0 0 0 0 0 
0 0 3 0 0 0 0 0 3 
0 0 0 0 0 0 0 0 0 
0 0 0 0 0 3 0 0 0 
0 0 0 0 0 0 0 0 0 
0 0 0 0 0 0 0 0 0 
0 0 0 0 0 0 0 0 0 
0 0 0 0 0 0 0 0 0 
0 0 0 0 0 0 0 0 0 
0 0 0 0 0 0 0 0 0 
0 0 0 0 0 0 0 0 0 
0 0 0 0 0 0 0 0 0 
0 0 0 
weighted_torsion_tp_raw 1 120 unsigned_char
0 0 0 0 0 0 0 0 0 
0 0 0 0 0 0 0 0 0 
0 0 0 0 0 0 0 0 0 
0 1 0 0 0 0 0 0 0 
0 0 0 0 0 0 0 0 0 
0 0 0 1 0 0 0 0 0 
0 0 0 0 0 0 0 0 0 
0 0 0 0 0 0 0 0 0 
0 0 0 0 0 0 0 0 1 
0 0 0 0 0 0 0 0 0 
0 0 0 0 0 0 0 0 0 
0 0 1 0 0 0 0 0 0 
0 0 0 0 0 0 0 1 0 
0 1 0 
weighted_torsion_tn_raw 1 120 unsigned_char
0 0 0 0 0 0 0 0 0 
0 0 0 0 0 0 0 0 2 
0 0 0 0 0 0 0 0 0 
0 0 0 0 0 0 0 0 0 
0 0 0 0 2 0 0 0 0 
0 0 0 0 0 0 0 0 0 
0 0 0 0 0 0 0 0 0 
0 0 0 0 0 0 0 0 0 
0 2 0 0 0 0 0 0 0 
0 0 0 0 0 0 0 0 2 
0 0 0 0 0 0 0 0 0 
0 0 0 0 0 0 0 0 0 
0 0 0 0 2 0 0 0 2 
0 0 0 
weighted_torsion_tz_raw 1 120 unsigned_char
0 0 0 0 0 0 0 0 0 
3 0 0 0 0 0 0 0 0 
0 0 0 0 3 0 0 0 0 
0 0 0 3 0 0 0 0 0 
0 0 0 0 0 0 0 0 0 
3 0 0 0 0 0 0 0 0 
0 0 0 0 0 0 0 0 0 
0 0 0 0 0 0 0 0 0 
0 0 0 0 0 0 0 0 0 
0 0 0 0 0 0 0 0 0 
0 0 0 0 0 0 0 0 0 
0 0 0 0 0 0 0 0 0 
0 0 0 0 0 0 0 0 0 
0 0 0 
