# vtk DataFile Version 5.1
vtk output
ASCII
DATASET POLYDATA
POINTS 120 float
-5.77053 17.9282 -3.74995 -5.97584 17.4884 -3.96875 -6.2586 17.1126 -4.14409 
-6.60131 16.7903 -4.28969 -6.98655 16.5107 -4.41921 -7.39717 16.2638 -4.5461 
-7.81669 16.0394 -4.68326 -8.22983 15.8285 -4.84247 -8.62323 15.6233 -5.03355 
-8.98595 15.4174 -5.26361 -9.30975 15.2065 -5.53636 -9.58908 14.9884 -5.85189 
-9.82071 14.763 -6.20689 -10.003 14.5327 -6.59543 -10.1352 14.3024 -7.01011 
-10.2168 14.0788 -7.44317 -10.2473 13.8695 -7.8873 -10.226 13.682 -8.33632 
-10.1526 13.5217 -8.78536 -10.0272 13.3906 -9.231 -9.85134 13.287 -9.6711 
-9.62812 13.2048 -10.1046 -9.36272 13.1344 -10.531 -9.06244 13.0635 -10.9502 
-8.73642 12.9785 -11.3609 -8.39515 12.8656 -11.7607 -8.0498 12.7128 -12.1444 
-7.71156 12.511 -12.5044 -7.3909 12.2551 -12.8299 -7.09694 11.9453 -13.108 
-6.83702 11.5868 -13.3246 -6.6163 11.19 -13.466 -6.43758 10.7694 -13.5204 
-6.30117 10.3422 -13.4801 -6.20492 9.92705 -13.3426 -6.14444 9.54149 -13.1111 
-6.11353 9.20056 -12.7944 -6.10478 8.91519 -12.406 -6.11025 8.691 -11.9625 
-6.12227 8.52762 -11.4816 -6.13414 8.41841 -10.9807 -6.14067 8.35097 -10.4753 
-6.13853 8.30835 -9.97772 -6.12632 8.27093 -9.4969 -6.10448 8.21889 -9.03787 
-6.07492 8.13504 -8.60201 -6.04041 8.00717 -8.18755 -6.0039 7.8293 -7.79043 
-5.9678 7.6018 -7.40534 -5.93344 7.33027 -7.02675 -5.90075 7.02385 -6.64994 
-5.8684 6.69287 -6.27174 -5.83424 6.34676 -5.89082 -5.796 5.99296 -5.50761 
-5.75199 5.63625 -5.12391 -5.70162 5.27844 -4.74245 -5.64573 4.91893 -4.36636 
-5.58639 4.55538 -3.9988 -5.52634 4.18454 -3.64287 -5.46824 3.80306 -3.30164 
-5.41385 3.40796 -2.97826 -5.36316 2.99698 -2.67606 -5.314 2.56924 -2.39853 
-5.26197 2.12533 -2.14896 -5.20083 1.66731 -1.92992 -5.12335 1.19883 -1.74247 
-5.02225 0.725135 -1.58541 -4.8914 0.252764 -1.45455 -4.72673 -0.210868 -1.34255 
-4.52671 -0.657907 -1.23924 -4.29252 -1.08089 -1.13258 -4.0276 -1.47354 -1.01011 
-3.73688 -1.83107 -0.860834 -3.42573 -2.15134 -0.677056 -3.09894 -2.43493 -0.4558 
-2.75993 -2.68494 -0.199462 -2.41027 -2.90663 0.0843629 -2.04967 -3.10655 0.383917 
-1.67646 -3.29122 0.68523 -1.28838 -3.46585 0.974366 -0.883417 -3.63339 1.23959 
-0.460586 -3.7938 1.47311 -0.0205268 -3.94373 1.67219 0.434321 -4.077 1.83931 
0.899958 -4.18589 1.98149 1.37135 -4.26254 2.10879 1.84315 -4.30047 2.23256 
2.31057 -4.29602 2.3637 2.77013 -4.24958 2.51096 3.22015 -4.16588 2.67988 
3.66093 -4.05389 2.87242 4.09445 -3.92551 3.0873 4.52373 -3.79409 3.32075 
4.95205 -3.67307 3.56766 5.38213 -3.57402 3.82279 5.81514 -3.50577 4.08179 
6.25051 -3.47401 4.34181 6.68611 -3.48146 4.60171 7.11829 -3.52844 4.86193 
7.54235 -3.61367 5.12416 7.95338 -3.73468 5.39074 8.34687 -3.88854 5.66434 
8.71928 -4.07208 5.94748 9.06842 -4.28182 6.24221 9.39327 -4.51399 6.5497 
9.69417 -4.76527 6.86992 9.97233 -5.03295 7.20113 10.2294 -5.31556 7.53957 
10.4669 -5.61331 7.87947 10.6856 -5.92795 8.21344 10.8854 -6.26246 8.53334 
11.0651 -6.6201 8.83115 11.222 -7.00344 9.10035 11.3531 -7.41359 9.3368 
11.4543 -7.84975 9.53899 11.5217 -8.30886 9.70827 11.5521 -8.78641 9.84827 
11.5431 -9.27675 9.96389 11.4939 -9.77401 10.0604 11.4049 -10.2726 10.1429 

LINES 2 120
OFFSETS vtktypeint64
0 120 
CONNECTIVITY vtktypeint64
0 1 2 3 4 5 6 7 8 
9 10 11 12 13 14 15 16 17 
18 19 20 21 22 23 24 25 26 
27 28 29 30 31 32 33 34 35 
36 37 38 39 40 41 42 43 44 
45 46 47 48 49 50 51 52 53 
54 55 56 57 58 59 60 61 62 
63 64 65 66 67 68 69 70 71 
72 73 74 75 76 77 78 79 80 
81 82 83 84 85 86 87 88 89 
90 91 92 93 94 95 96 97 98 
99 100 101 102 103 104 105 106 107 
108 109 110 111 112 113 114 115 116 
117 118 119 
CELL_DATA 1
FIELD FieldData 2
Length 1 1 double
59.226106218 
Tortuosity 1 1 double
0.65329780642 
POINT_DATA 120
FIELD FieldData 19
Curvature 1 120 double
0 0.39737448437 0.34677625465 0.25825165676 0.16910963674 0.10755011759 0.10796247855 0.15727558302 0.21409244618 
0.25790423198 0.27792376214 0.27371438596 0.25525134504 0.23535276616 0.22335521988 0.22357977032 0.23503607389 0.25047867753 
0.25833549304 0.24765760737 0.21548761159 0.1696588584 0.12552257575 0.10344014159 0.11558919311 0.1493709662 0.19107846702 
0.2359874883 0.28384814187 0.33609536934 0.39371384299 0.45367327598 0.50559172925 0.53266191359 0.52212599693 0.47714071146 
0.41329169981 0.34573415348 0.28181678004 0.2215680867 0.16190823482 0.099519825306 0.045637974389 0.087789066281 0.17527563467 
0.24992643302 0.27959676236 0.25408058768 0.19375161802 0.12743743074 0.073168562463 0.036695931389 0.020239484685 0.021333994567 
0.024687662964 0.027569128791 0.035357564966 0.049921221725 0.067914503788 0.085817364501 0.1015884807 0.11379979408 0.1238098335 
0.13321191851 0.14218885556 0.14951907386 0.15361201022 0.15496756862 0.15778407627 0.1680769815 0.18867074328 0.21551065278 
0.23465324618 0.23358645801 0.20738944014 0.16145754682 0.10939549424 0.074013997712 0.082029044317 0.1140861879 0.141825146 
0.15480206606 0.15294920068 0.14510150107 0.14484423527 0.15966680458 0.18175842159 0.19440264046 0.18646254669 0.15599829148 
0.11271497922 0.073086595735 0.065156350059 0.090667664602 0.12022156473 0.14153586993 0.15228225395 0.15464129377 0.15293001551 
0.15032308325 0.14929164225 0.14894048765 0.14632114401 0.13994467041 0.12989853415 0.11667612057 0.103165179 0.095207481395 
0.099975917473 0.11902196852 0.14910252664 0.18045505739 0.20484673048 0.21737559723 0.21658435568 0.20534703686 0.19051616496 
0.17514899663 0.16096050738 0 
Torsion 1 120 double
0 0 0.15298541104 0.29242718225 0.65921143705 1.5218493255 1.3875952258 0.58705034954 0.27284595706 
0.15068927676 0.091088452205 0.047463985798 -0.0026619369322 -0.063845200505 -0.11926796914 -0.14089696105 -0.11413572062 -0.054087068225 
0.018536340203 0.10212206226 0.21814698529 0.4199127425 0.78508858433 1.0815327558 0.75601590528 0.35793735767 0.13581961811 
0.0099301249003 -0.069882548167 -0.12331874698 -0.15732249441 -0.17428930204 -0.17820305896 -0.17505399197 -0.17060839974 -0.1675814458 
-0.16607663144 -0.16664015678 -0.17304553801 -0.19878693728 -0.29019744099 -0.70056997607 -3.6129368719 -1.1813427391 -0.35807887881 
-0.18955789422 -0.13164147173 -0.10321068634 -0.075542686638 -0.018214999971 0.14542690398 0.67763200263 1.5239879196 0.42587719345 
-0.39977196991 -0.83722536705 -0.76213244916 -0.43783139997 -0.19036056989 -0.016347434172 0.12078088603 0.23516113996 0.32320331375 
0.37872462078 0.40996839052 0.43708821973 0.48394597734 0.56174686725 0.6395489816 0.64539423824 0.54639713651 0.39518844446 
0.25770133837 0.13918205063 0.015560942038 -0.17612441978 -0.61621070047 -1.4387929589 -0.99070366335 -0.30856454445 0.00029405989335 
0.20542975156 0.41700405318 0.64657217009 0.76292012206 0.65566755616 0.47629549199 0.35655536708 0.31759943915 0.37824828047 
0.62798337197 1.3595531381 1.5319865534 0.6317164582 0.23005150067 0.053085180859 -0.060104381256 -0.153000792 -0.22250736851 
-0.26050778915 -0.26196783579 -0.23662580445 -0.2049499005 -0.15733265823 -0.078741108475 0.046040028571 0.24585158605 0.46544058915 
0.5181129271 0.36139398863 0.16829481785 0.038198372504 -0.050315854817 -0.12491492796 -0.18501684827 -0.23221301254 -0.25749372482 
-0.25669063893 0 0 
FrenetTangent 3 120 double
-0.4743640475 -0.79261454721 -0.38306778773 -0.4743640475 -0.79261454721 -0.38306778773 -0.63129140856 -0.70466004871 -0.32392186284 
-0.73993287163 -0.61179928261 -0.27964438716 -0.80545306996 -0.53282813212 -0.25949861986 -0.83813435147 -0.47587504168 -0.26659661211 
-0.84518327478 -0.44177823777 -0.30082755969 -0.82908017797 -0.42774825612 -0.36007983544 -0.78912051226 -0.42907385897 -0.43952751982 
-0.72453587037 -0.43983085353 -0.53065675614 -0.63792679453 -0.45375975696 -0.62221498519 -0.53639292538 -0.46563233251 -0.70389570287 
-0.42878541764 -0.47206368517 -0.77025901018 -0.32158178615 -0.47101116243 -0.82142171854 -0.21701701071 -0.46080379949 -0.86055997783 
-0.11386335099 -0.43965850231 -0.89091836812 -0.0094766829327 -0.40595662451 -0.91384320947 0.097820223309 -0.35947239496 -0.92801444018 
0.20671681822 -0.30301681711 -0.93029509598 0.31234115312 -0.24331178579 -0.91828229808 0.40799351351 -0.18995105924 -0.8930060963 
0.48824585618 -0.15244383527 -0.85928857842 0.55073547721 -0.13751697414 -0.823273658 0.59571758583 -0.14833478736 -0.78937782385 
0.62459311128 -0.18529697992 -0.75864911163 0.63864347485 -0.24710594952 -0.72874766671 0.63853092853 -0.33121551797 -0.69467584812 
0.62443243829 -0.43369725395 -0.64960820648 0.59637813786 -0.5488721153 -0.58572392621 0.5543835902 -0.66893336948 -0.49516359127 
0.4984993002 -0.78338748288 -0.37121759032 0.42919378425 -0.87837902467 -0.210340164 0.34837327514 -0.93722476229 -0.015678204846 
0.26090419663 -0.9445550686 0.19936078494 0.17501810168 -0.89415961464 0.41212528147 0.099913293761 -0.79424025637 0.59933275305 
0.04202474829 -0.66353493731 0.74696406038 0.0033681138577 -0.52231620726 0.85274523478 -0.017446785154 -0.38658122527 0.92209032419 
-0.023438531062 -0.26745947949 0.96328399867 -0.018005138783 -0.1728726641 0.98477959818 -0.0043500386958 -0.10907278992 0.99402424702 
0.014613307645 -0.081529890695 0.99656376021 0.036033787599 -0.094699357919 0.99485355594 0.056697256695 -0.14988445082 0.98707652818 
0.072928348746 -0.2409692574 0.96778885762 0.081619363528 -0.35135715617 0.93267702251 0.082134928061 -0.45856348703 0.88485783149 
0.077002907473 -0.54539956584 0.8346315749 0.070316937898 -0.60614083637 0.79224290135 0.065680419263 -0.64369411224 0.76245916113 
0.065247250804 -0.66421967949 0.74468450611 0.069694745722 -0.67379223005 0.73562672133 0.07843460752 -0.67751826526 0.7313118436 
0.089793038098 -0.67975309051 0.72792372282 0.10132332702 -0.68402680831 0.72238556804 0.110414838 -0.69284848225 0.71257950026 
0.11504826034 -0.70764391099 0.69713986619 0.11443121815 -0.72866999808 0.67523738805 0.10939163433 -0.75519568221 0.64630716529 
0.10244467302 -0.78584450809 0.60987990463 0.097458838454 -0.81869794924 0.56589349061 0.098856465877 -0.85151747112 0.51492270831 
0.11066139941 -0.88192674579 0.45821312698 0.13574210543 -0.90726540472 0.39804970319 0.17526180643 -0.92464606707 0.33810198146 
0.22835015762 -0.93140074392 0.28345874432 0.292264764 -0.92568548052 0.24018263649 0.36311835998 -0.90674437827 0.21438211007 
0.43649208894 -0.87459836093 0.21107430764 0.50759322422 -0.8294872492 0.23302365149 0.57147707337 -0.77155591632 0.27949136408 
0.62324372107 -0.70187240159 0.34488026332 0.6595017483 -0.62427987559 0.41872673777 0.68090672924 -0.54570753308 0.48843557857 
0.69265216613 -0.47442261616 0.54328276067 0.70238530569 -0.41693470577 0.57690582721 0.71700126374 -0.37578667299 0.5871060928 
0.74037407833 -0.34943314237 0.57423227282 0.77271604349 -0.33339286814 0.54014730547 0.81111953277 -0.32134318069 0.48869588067 
0.85104372809 -0.30607835203 0.42666217936 0.88819687749 -0.28107658844 0.36345874352 0.91974705942 -0.24196610861 0.30905945864 
0.94410662297 -0.18693497209 0.27151059035 0.95975891171 -0.11659794884 0.25547553645 0.96451732981 -0.034381181603 0.26177137898 
0.95641641326 0.05251389419 0.28724542704 0.93605007004 0.13391961815 0.32538562084 0.90800429852 0.19945863708 0.36843513128 
0.87951654296 0.24180358127 0.40985568038 0.8572771126 0.25814243512 0.44546429196 0.84503666876 0.24875092552 0.47332441888 
0.84281702738 0.21607753095 0.49291983018 0.84745504304 0.16426721664 0.50481306596 0.85420088171 0.098372124324 0.51055242517 
0.85840231696 0.023960626712 0.51241716463 0.85649443487 -0.053724155808 0.51335270343 0.8463214343 -0.1306807767 0.51639380752 
0.82704371248 -0.20425130126 0.52371757998 0.79870871986 -0.27288423637 0.53628217792 0.76195220517 -0.33565423181 0.55386376818 
0.7182420989 -0.39148021957 0.57521432967 0.66990901215 -0.43924208245 0.5985718908 0.6197964723 -0.47884231204 0.62174140375 
0.57084651763 -0.51158938643 0.64219199077 0.52542523563 -0.54019471666 0.65735682081 0.48461797935 -0.56865836112 0.6646601255 
0.44788233073 -0.60131277409 0.66168297963 0.41352816051 -0.64147839438 0.64614234501 0.37863483313 -0.69054068837 0.61627041211 
0.33939172956 -0.74702494559 0.5716353598 0.29266265337 -0.80640061344 0.51387413047 0.23669366007 -0.86260570523 0.44708780858 
0.17138979974 -0.90997698919 0.37758100546 0.098683011938 -0.94494010924 0.31200937982 0.021420224986 -0.9666274166 0.25528927013 
-0.057521894547 -0.97608136375 0.20965782358 -0.13535459457 -0.97516907192 0.17528381241 -0.13535459457 -0.97516907192 0.17528381241 

FrenetNormal 3 120 double
-0.87522446805 0.37783206979 0.3020348615 -0.87522446805 0.37783206979 0.3020348615 -0.77435127126 0.54953551873 0.31367311384 
-0.67179761628 0.69337588293 0.2606105288 -0.56757627457 0.81952593145 0.078958344838 -0.35524541565 0.84710177177 -0.39524585124 
0.091177969229 0.43541901962 -0.89559860165 0.36807260291 0.067242359179 -0.92736240172 0.51504132119 -0.072306273161 -0.85411020386 
0.63041587041 -0.11167364351 -0.76818280876 0.73183828727 -0.1057064968 -0.67323016704 0.81652330421 -0.075350756612 -0.57237396618 
0.88019717371 -0.026278846477 -0.47388010891 0.92136753332 0.044369379596 -0.3861518182 0.94028107901 0.13815845917 -0.31110083993 
0.93837810418 0.24694576971 -0.24179396273 0.92106873081 0.3522333582 -0.16602425874 0.89756707907 0.43466415423 -0.073759145819 
0.87437204373 0.48386751962 0.036684500726 0.85507171977 0.4931497175 0.16017399969 0.8444614259 0.45029561014 0.29003234931 
0.84607897875 0.32405035231 0.42325138025 0.83357130796 0.039798447852 0.550976368 0.6748103056 -0.44057933259 0.59204805815 
0.34274739936 -0.80784211095 0.47949488424 0.08258794531 -0.91955595013 0.38418236018 -0.073474339256 -0.92476299089 0.37338309035 
-0.17338338801 -0.8878958272 0.42612111048 -0.24318656648 -0.81894015915 0.51980506886 -0.29496493763 -0.71426453395 0.63468248842 
-0.33346655777 -0.5685548013 0.75202758777 -0.36044594206 -0.38010197059 0.85182229063 -0.37495317078 -0.15466337414 0.91405107101 
-0.37335438984 0.091714086094 0.92314409818 -0.35177815187 0.33416541305 0.87440586034 -0.30898613545 0.54780007981 0.77745909259 
-0.24792571275 0.71731540878 0.65114625491 -0.17360366775 0.83949601511 0.51488659641 -0.089786298273 0.9191104743 0.38363310164 
0.0045987649251 0.9635096655 0.26763403344 0.12505303831 0.97681566323 0.17376103614 0.34061594281 0.9344301691 0.10402422111 
0.93786509532 0.34669235769 0.014610684676 0.52868841942 -0.84297679732 -0.099391520559 0.24247434231 -0.95699908676 -0.15924490968 
0.11728644021 -0.96156730505 -0.24825835094 0.035380786911 -0.9341879781 -0.35502256476 -0.028354940965 -0.88857350788 -0.45785709388 
-0.077863292093 -0.83785001119 -0.54031904139 -0.10549502623 -0.79427365067 -0.59833115186 -0.080309820017 -0.76504033001 -0.63895510505 
0.10609679759 -0.73742680768 -0.66704210726 0.65550875163 -0.52493257083 -0.54291258285 0.94830794825 -0.17556908843 -0.26436249822 
0.93560087944 -0.1929994179 -0.29563866302 0.75671972086 -0.41839401274 -0.50231634869 0.39233544488 -0.62835358364 -0.67174747682 
0.077382804502 -0.69328274881 -0.71649908009 -0.093202672526 -0.68457884902 -0.72295578102 -0.15490130153 -0.65521725825 -0.73938889042 
-0.13576807508 -0.61841419307 -0.77403547438 -0.049920954938 -0.57190588704 -0.81879884869 0.089848080754 -0.50770593136 -0.85683254469 
0.26290672612 -0.41864446358 -0.86926225414 0.44423490044 -0.3033805071 -0.84298020211 0.61437996836 -0.16562546489 -0.77143078747 
0.76153545006 -0.0105167164 -0.64803792866 0.87423456553 0.15679980828 -0.45948639214 0.92538034095 0.32411942627 -0.19651417784 
0.87884429599 0.46470046946 0.10810262299 0.73925192848 0.55820390426 0.37671605687 0.56110587137 0.61591960046 0.55299479825 
0.3906830617 0.66147660693 0.64016829332 0.2486945216 0.70687310791 0.66217931426 0.14864702325 0.75602036947 0.63744589058 
0.11289528895 0.81525623806 0.56798936613 0.198208215 0.89300025307 0.40405946533 0.48978500271 0.87089180536 -0.040719951842 
0.6685607073 0.47150715691 -0.57507180564 0.61959515346 0.21131687809 -0.75594115039 0.55597642289 0.16420235489 -0.81481765067 
0.50246449358 0.23872429603 -0.83098745067 0.45322076662 0.40601950349 -0.79356102443 0.39032718155 0.64678268183 -0.6552227513 
0.28400029206 0.87941808699 -0.38205714544 0.13562718208 0.98905387005 -0.058118066166 -0.017608305667 0.98090057355 0.1937111571 
-0.15796259988 0.92038302333 0.35769107819 -0.28268824011 0.8368492731 0.46879702752 -0.39033275774 0.72223832116 0.57097473296 
-0.47351620933 0.53022857744 0.7033065158 -0.4801993475 0.088824151611 0.872650478 -0.20701628823 -0.66396881771 0.71853299542 
0.046844786612 -0.94184330063 0.33277133744 0.11072509087 -0.98470188189 0.13454426061 0.089173267665 -0.99510726631 0.04254006206 
0.023519075419 -0.9996963942 0.0073465987375 -0.072380020844 -0.99724234473 0.016396294176 -0.18934986317 -0.97992862312 0.06234198345 
-0.31452992279 -0.94030685323 0.12997672654 -0.43605679774 -0.87663959709 0.20336540011 -0.54374413464 -0.7961288905 0.26555810241 
-0.63452635087 -0.70773095893 0.31063354587 -0.70888612688 -0.61805932751 0.33982808418 -0.76509283217 -0.54497510068 0.3429797338 
-0.80455486772 -0.5045630075 0.31322138542 -0.8216451415 -0.52279351729 0.22712595565 -0.7916516732 -0.60833192013 0.056744191585 
-0.68976609693 -0.70325622699 -0.17220165714 -0.56061066118 -0.73857755374 -0.37445812007 -0.48529338049 -0.71509793397 -0.50311557288 
-0.47426695942 -0.66070532355 -0.58184132427 -0.50712489323 -0.58649559777 -0.63154355072 -0.56975102624 -0.49596960895 -0.65528460618 
-0.65391925772 -0.39173040971 -0.64725334336 -0.7423503621 -0.2787080822 -0.60929282353 -0.82711919685 -0.16057459202 -0.53859969792 
-0.89177952062 -0.044170468866 -0.45030906751 -0.93385414726 0.066452151802 -0.35142644061 -0.93385414726 0.066452151802 -0.35142644061 

FrenetBinormal 3 120 double
-0.094661929886 0.47854478013 -0.87294559535 -0.094661929886 0.47854478013 -0.87294559535 -0.043026342751 0.44884844815 -0.8925714562 
0.034457339292 0.38069872966 -0.92405690788 0.17059462076 0.21088250117 -0.96251028362 0.4139220984 -0.23656190092 -0.87903752109 
0.5266420131 -0.78437380501 -0.32772843033 0.42089026775 -0.90139330734 0.10169310691 0.33469576424 -0.9003707161 0.27804913053 
0.27861012703 -0.89111044076 0.35818791086 0.23971259063 -0.88483231151 0.39951177003 0.21347675115 -0.88176459126 0.42061726346 
0.20346007227 -0.88117268419 0.42677710767 0.2183277888 -0.88101069405 0.41970600855 0.26225008963 -0.87668243882 0.40330235799 
0.32631529368 -0.8635497601 0.38444783903 0.38928471021 -0.84328576437 0.37057594905 0.42988898855 -0.82574007429 0.36516953218 
0.43902355996 -0.82100732762 0.36497298776 0.41387843398 -0.83522615562 0.36207997854 0.34702477302 -0.87244051865 0.34412403044 
0.21393070289 -0.93367673542 0.28719576617 -0.043003589203 -0.98969953287 0.13654862117 -0.4356048776 -0.88537373044 -0.16236301319 
-0.70171765375 -0.55951421162 -0.44106255952 -0.76505799997 -0.30554132992 -0.56686043467 -0.76608078868 -0.18737580244 -0.61482561257 
-0.76159197132 -0.15345257231 -0.62962685559 -0.76497935304 -0.1675601885 -0.62187633229 -0.77823808728 -0.20580165875 -0.59328842629 
-0.80018654234 -0.25109657421 -0.54465769789 -0.82817354366 -0.28978057385 -0.47974555819 -0.85909614182 -0.31255237264 -0.40529598255 
-0.89024462917 -0.31528439353 -0.32872519136 -0.91957642203 -0.29801352363 -0.25606082048 -0.94580383898 -0.26286400992 -0.19067671714 
-0.96786711975 -0.21255585453 -0.13436237277 -0.98480984071 -0.14977389709 -0.087848491143 -0.9958082297 -0.07609791258 -0.050745220177 
-0.99971470261 0.010702865272 -0.02135326795 -0.99198666956 0.12627827238 0.0040305503041 -0.94019245725 0.33903301546 0.033087123779 
-0.34669224714 0.93442885553 0.081530360789 0.84805077756 0.52954900698 0.019690806992 0.96849967187 0.2483694815 -0.017916089245 
0.99041675415 0.13161358158 -0.041863089366 0.9960353806 0.061975562763 -0.063816535516 0.99621777284 0.012515967894 -0.08598546175 
0.99398584496 -0.023381024957 -0.10698349259 0.99193060629 -0.041504871207 -0.1197957344 0.99460364736 -0.019266118811 -0.10194312793 
0.99221281276 0.12253130498 0.022356509021 0.75196470592 0.52004790818 0.40509166154 0.30750617493 0.71424400273 0.62872526348 
0.34145014965 0.70759236897 0.61864758521 0.64583964531 0.59753976907 0.47522350207 0.91317110239 0.35374108408 0.20244945837 
0.99034125399 0.13637861067 -0.02500150375 0.98904942149 0.019794781533 -0.14625118282 0.98185490635 -0.019230861965 -0.18865608081 
0.9854299157 -0.0035064095991 -0.17004583597 0.99398675699 0.051549241276 -0.096607466888 0.99103719483 0.13096825429 0.026317196429 
0.95845401978 0.21666109058 0.18553669122 0.88556729504 0.29125547773 0.36185744796 0.76929874151 0.34292543802 0.53905620326 
0.60656406407 0.36384344558 0.70689319086 0.38767929035 0.34426764482 0.85509330284 0.1087027195 0.26974289608 0.95677713643 
-0.19263270673 0.13831551157 0.97147385943 -0.44255587779 -0.018955334178 0.89654056815 -0.59881061758 -0.15919960351 0.78490848544 
-0.67744668384 -0.26424199205 0.68647080069 -0.70937189042 -0.33257336972 0.6214390355 -0.717126271 -0.36143670162 0.59589715738 
-0.71238166069 -0.33208500054 0.61824907758 -0.68364346399 -0.16945795684 0.70987013954 -0.49600386987 0.31675201618 0.80848520167 
-0.069805478229 0.80967739255 0.58270894553 0.13788314597 0.91880050746 0.36985654726 0.18159108111 0.93261789972 0.3118469695 
0.15249264105 0.9215892539 0.35695831903 0.075480086887 0.86956547437 0.48801500209 -0.041352606105 0.7232735062 0.6893224189 
-0.16735148214 0.43781176832 0.88335402696 -0.24590262072 0.090428759032 0.96506711718 -0.26343171425 -0.19144711845 0.94549020765 
-0.24559206314 -0.38747565252 0.88856466125 -0.20951760137 -0.53080017896 0.82119032187 -0.15221212863 -0.66225981271 0.73365074004 
-0.047255160106 -0.81264302357 0.58084272061 0.18570013159 -0.96201494442 0.20010674113 0.49300840242 -0.70517259317 -0.50958250459 
0.53615764876 -0.25737462516 -0.80392367672 0.51919158725 -0.058124739565 -0.85267907819 0.51223918439 0.0091898695471 -0.85879366804 
0.51243762092 0.0057452405626 -0.85870523283 0.51105617658 -0.051199814089 -0.85802107399 0.49788217398 -0.15054045365 -0.85407898502 
0.46590731408 -0.27222128445 -0.84191801678 0.41463098047 -0.39627920757 -0.81917271664 0.35181124638 -0.50350275707 -0.78912218353 
0.28549010038 -0.58809873955 -0.75672668456 0.22068614492 -0.6519732055 -0.72541613213 0.17460037539 -0.68826752055 -0.70413246557 
0.16378558587 -0.6954800293 -0.69962976688 0.2209696432 -0.65945174681 -0.71853727141 0.37206591139 -0.55367855592 -0.74498792896 
0.56887973188 -0.37928040671 -0.72974120326 0.71743302617 -0.20738530967 -0.66504224399 0.7881154725 -0.1085748706 -0.60587581193 
0.81233250896 -0.073635630619 -0.57852717204 0.81066202205 -0.075769152277 -0.58059118282 0.78699420543 -0.09962702593 -0.60886334783 
0.7368956106 -0.13597486992 -0.66219007379 0.66270476311 -0.17149342511 -0.72898038526 0.56161820498 -0.19961772936 -0.80295563636 
0.4487989731 -0.2128711841 -0.8679086016 0.33105220943 -0.21125669855 -0.91966028616 0.33105220943 -0.21125669855 -0.91966028616 

plain_curvature_peaks 1 120 unsigned_char
0 0 0 0 0 0 0 0 0 
0 0 0 0 0 0 0 0 0 
0 0 0 0 0 0 0 0 0 
0 0 0 1 0 0 0 0 0 
0 0 0 0 0 0 0 0 0 
0 0 0 0 0 0 0 0 0 
0 0 0 0 0 0 0 0 0 
0 0 0 0 1 0 0 0 0 
0 0 0 0 0 0 0 0 0 
0 0 0 0 0 0 0 0 0 
0 0 0 0 0 0 1 0 0 
0 0 0 0 0 0 0 0 0 
0 0 0 0 0 0 0 0 0 
0 1 0 
weighted_curvature_peaks 1 120 unsigned_char
0 0 0 0 1 0 0 0 0 
0 0 0 0 0 0 0 0 0 
0 0 0 0 0 0 0 0 0 
0 0 0 0 0 0 0 0 0 
0 0 0 0 0 0 1 0 0 
0 0 0 0 0 0 0 0 0 
0 0 0 0 0 0 0 0 0 
0 0 0 0 0 0 1 0 0 
0 0 0 0 0 0 0 0 0 
0 0 0 0 0 0 0 0 0 
0 0 0 0 0 0 0 0 0 
0 0 0 0 0 1 0 0 0 
0 0 0 0 0 0 0 0 0 
0 0 0 
plain_torsion_tp 1 120 unsigned_char
0 0 0 0 0 0 0 0 0 
0 0 0 0 0 0 0 0 0 
0 0 0 0 0 0 0 0 0 
0 0 0 1 0 0 0 0 0 
0 0 0 0 0 0 0 0 0 
0 0 0 0 0 0 0 0 0 
0 0 0 0 0 0 0 0 0 
0 0 0 0 1 0 0 0 0 
0 0 0 0 0 0 0 0 0 
0 0 0 0 0 0 0 0 0 
0 0 0 0 0 0 1 0 0 
0 0 0 0 0 0 0 0 0 
0 0 0 0 0 0 0 0 0 
0 1 0 
plain_torsion_tn 1 120 unsigned_char
0 0 0 0 0 0 0 0 0 
0 2 0 0 0 0 0 0 0 
0 0 0 0 0 0 0 0 0 
0 0 0 0 0 0 0 0 0 
0 0 0 0 0 0 0 0 0 
0 0 0 0 0 0 0 0 2 
0 0 0 0 0 0 0 0 0 
0 0 0 0 0 0 0 0 0 
0 2 0 0 0 0 0 0 0 
0 0 0 0 0 0 0 0 0 
0 0 0 0 0 0 0 0 0 
0 0 0 0 0 0 0 0 0 
0 0 0 0 2 0 0 0 0 
0 0 0 
plain_torsion_tz 1 120 unsigned_char
0 0 0 0 0 0 0 0 0 
0 0 0 3 0 0 0 0 0 
0 0 0 0 0 0 0 0 0 
0 0 0 0 0 0 0 0 0 
0 0 0 0 0 0 0 0 0 
0 3 0 0 0 0 0 0 0 
0 0 0 0 0 3 0 0 0 
0 0 0 0 0 0 0 0 0 
0 0 0 0 0 0 3 0 0 
0 0 0 0 0 0 0 0 0 
0 0 0 0 0 0 0 0 0 
0 0 0 0 0 0 0 0 3 
0 0 0 0 0 0 0 3 0 
0 0 0 
weighted_torsion_tp 1 120 unsigned_char
0 0 0 0 1 0 0 0 0 
0 0 0 0 0 0 0 0 0 
0 0 0 0 0 0 0 0 0 
0 0 0 0 0 0 0 0 0 
0 0 0 0 0 0 1 0 0 
0 0 0 0 0 0 0 0 0 
0 0 0 0 0 0 0 0 0 
0 0 0 0 0 0 1 0 0 
0 0 0 0 0 0 0 0 0 
0 0 0 0 0 0 0 0 0 
0 0 0 0 0 0 0 0 0 
0 0 0 0 0 1 0 0 0 
0 0 0 0 0 0 0 0 0 
0 0 0 
weighted_torsion_tn 1 120 unsigned_char
0 2 0 0 0 0 0 0 0 
0 0 0 0 0 0 0 0 0 
0 0 0 0 0 0 0 0 0 
2 0 0 0 0 0 0 0 0 
0 0 0 0 0 0 0 0 0 
0 0 2 0 0 0 0 0 0 
0 0 0 0 0 0 0 0 0 
0 0 0 0 0 0 0 0 0 
0 0 0 0 0 0 0 0 0 
0 0 0 0 0 0 0 2 0 
0 0 0 0 0 0 0 0 0 
0 0 0 0 0 0 0 0 0 
0 0 0 0 0 0 0 0 0 
0 0 0 
weighted_torsion_tz 1 120 unsigned_char
0 3 0 0 0 0 0 0 0 
0 0 0 0 0 0 0 0 0 
0 3 0 0 0 0 0 0 0 
0 0 0 0 0 0 0 3 0 
0 0 0 0 0 0 0 0 0 
0 0 0 0 0 0 0 3 0 
0 0 0 0 0 0 0 0 0 
0 0 0 0 0 0 0 0 0 
0 0 0 0 0 0 0 0 3 
0 0 0 0 0 0 0 0 0 
0 0 0 0 3 0 0 0 0 
0 0 0 0 0 0 0 0 0 
0 0 0 0 0 0 0 0 0 
0 0 0 
plain_torsion_tp_raw 1 120 unsigned_char
0 0 0 0 0 0 0 0 0 
0 0 0 0 0 0 0 0 0 
0 0 0 0 0 0 0 0 0 
0 0 0 0 0 0 0 0 0 
0 1 0 0 0 0 0 0 0 
0 0 0 0 0 0 0 0 0 
0 0 1 0 0 0 0 0 0 
0 0 0 0 0 0 0 0 0 
0 0 0 1 0 0 0 0 0 
0 0 0 0 0 0 0 0 0 
0 0 0 0 0 0 0 0 0 
0 1 0 0 0 0 0 0 0 
0 0 0 0 0 0 0 0 1 
0 1 0 
plain_torsion_tn_raw 1 120 unsigned_char
0 0 0 0 0 0 0 0 0 
0 0 0 0 0 0 0 0 0 
0 0 0 0 0 2 0 0 0 
0 0 0 0 0 0 0 0 0 
0 0 0 0 0 0 0 0 0 
0 0 0 2 0 0 0 0 0 
0 0 0 0 0 0 0 0 0 
0 0 0 0 0 0 0 2 0 
0 0 0 0 0 0 0 0 0 
0 0 0 2 0 0 0 0 0 
0 0 0 0 0 0 0 0 0 
0 0 0 0 0 0 0 0 0 
0 0 0 0 0 2 0 0 0 
2 0 0 
plain_torsion_tz_raw 1 120 unsigned_char
0 0 0 0 0 0 0 0 0 
0 3 0 0 0 0 0 0 0 
0 0 0 0 0 0 0 0 0 
0 0 0 0 0 3 0 0 0 
0 0 0 3 0 0 0 0 0 
0 0 0 0 0 0 0 3 0 
0 0 0 0 0 0 0 0 0 
0 0 0 0 0 0 0 0 0 
0 0 0 0 0 0 0 0 0 
0 0 0 0 0 0 0 0 0 
0 0 0 0 0 0 0 0 0 
0 0 0 0 0 0 0 0 0 
0 0 0 0 0 0 0 0 0 
0 0 0 
weighted_torsion_tp_raw 1 120 unsigned_char
0 0 0 0 0 0 0 0 0 
0 1 0 0 0 0 0 0 0 
0 0 0 0 0 0 0 0 0 
0 0 0 1 0 0 0 0 0 
0 0 0 0 0 0 0 0 0 
0 0 0 0 1 0 0 0 0 
0 0 0 0 0 0 0 0 0 
0 0 0 0 0 0 0 0 0 
0 1 0 0 0 0 0 0 0 
0 0 0 0 0 0 0 0 0 
0 0 0 0 0 0 0 0 1 
0 0 0 0 0 1 0 0 0 
0 0 0 0 0 0 0 0 0 
0 0 0 
weighted_torsion_tn_raw 1 120 unsigned_char
0 0 2 0 0 0 0 0 0 
0 0 0 0 0 0 0 0 0 
0 0 0 2 0 0 0 0 0 
0 0 0 0 0 0 0 0 0 
0 0 0 0 0 0 0 0 2 
0 0 0 0 0 0 0 0 0 
0 0 0 2 0 0 0 0 0 
0 0 0 0 0 0 0 0 0 
0 0 0 0 0 0 0 0 0 
0 0 0 0 0 0 0 0 2 
0 0 0 0 0 0 0 0 0 
0 0 0 2 0 0 0 0 0 
0 0 0 0 0 0 0 0 0 
0 0 0 
weighted_torsion_tz_raw 1 120 unsigned_char
0 3 0 0 0 3 0 0 0 
0 0 3 0 0 0 0 0 0 
0 0 0 0 0 0 0 0 3 
0 0 0 0 0 0 0 0 0 
0 0 0 0 0 0 0 0 0 
0 0 0 0 0 0 0 0 0 
0 0 0 0 0 0 0 0 0 
0 0 0 0 0 0 0 0 0 
0 0 0 0 0 0 0 0 0 
0 0 0 0 0 0 0 0 0 
0 0 0 0 0 0 0 0 0 
0 0 0 0 0 0 0 0 0 
0 0 0 0 0 0 0 0 0 
0 0 0 
