# vtk DataFile Version 5.1
vtk output
ASCII
DATASET POLYDATA
POINTS 120 float
-5.71129 20.3288 -2.37855 -5.72356 19.9333 -2.80617 -5.83793 19.4929 -3.13936 
-6.03401 19.0158 -3.39489 -6.29164 18.5103 -3.58954 -6.59133 17.9844 -3.74018 
-6.91492 17.4462 -3.86372 -7.24615 16.9037 -3.97709 -7.57115 16.3646 -4.0969 
-7.8787 15.8362 -4.23889 -8.16014 15.3247 -4.41693 -8.40905 14.8352 -4.64179 
-8.62077 14.3712 -4.92015 -8.79187 13.9344 -5.25408 -8.91973 13.5247 -5.64087 
-9.00219 13.1405 -6.07373 -9.03731 12.7789 -6.54313 -9.02337 12.4363 -7.03835 
-8.95896 12.1083 -7.54887 -8.84329 11.79 -8.06554 -8.67655 11.4764 -8.58103 
-8.46055 11.1617 -9.08989 -8.19945 10.8403 -9.58817 -7.90049 10.5065 -10.0727 
-7.57446 10.1552 -10.5402 -7.23563 9.78278 -10.9861 -6.90098 9.38737 -11.4036 
-6.58903 8.96927 -11.7831 -6.31816 8.53136 -12.1116 -6.1049 8.07924 -12.3739 
-5.96246 7.62062 -12.5542 -5.8997 7.16535 -12.6386 -5.92068 6.7247 -12.6175 
-6.02482 6.31058 -12.4878 -6.20741 5.93486 -12.2539 -6.46026 5.60847 -11.927 
-6.77245 5.34092 -11.5243 -7.13105 5.13997 -11.0659 -7.5216 5.01164 -10.5724 
-7.92848 4.96021 -10.0625 -8.33525 4.98792 -9.5505 -8.72508 5.09441 -9.04569 
-9.08137 5.27619 -8.55171 -9.38846 5.5258 -8.06728 -9.6325 5.83152 -7.58743 
-9.80261 6.17698 -7.10529 -9.89173 6.54196 -6.61413 -9.89727 6.90322 -6.1093 
-9.82137 7.23567 -5.58976 -9.67051 7.51429 -5.05911 -9.45479 7.71623 -4.52584 
-9.18688 7.82224 -4.00297 -8.88074 7.81895 -3.50696 -8.55038 7.69963 -3.05617 
-8.2087 7.46478 -2.66896 -7.86679 7.1221 -2.36165 -7.53363 6.68521 -2.14646 
-7.21613 6.17229 -2.02982 -6.91952 5.6043 -2.01136 -6.64769 5.00284 -2.08358 
-6.40337 4.38851 -2.23218 -6.18806 3.77929 -2.43703 -6.00174 3.1895 -2.67367 
-5.84258 2.62906 -2.9152 -5.70656 2.10285 -3.13461 -5.58746 1.61106 -3.3073 
-5.47713 1.14931 -3.41377 -5.36616 0.709946 -3.44191 -5.24475 0.283008 -3.38839 
-5.10375 -0.142176 -3.25846 -4.9355 -0.574952 -3.06452 -4.73444 -1.02217 -2.82369 
-4.49745 -1.48686 -2.55453 -4.2236 -1.96739 -2.27371 -3.91386 -2.45797 -1.99367 
-3.57038 -2.94908 -1.72152 -3.19596 -3.42855 -1.45915 -2.79342 -3.8833 -1.20446 
-2.36515 -4.30036 -0.953155 -1.91303 -4.66848 -0.700636 -1.43842 -4.97945 -0.443354 
-0.942446 -5.22839 -0.179522 -0.426346 -5.4143 0.0909392 0.108097 -5.53996 0.366998 
0.658269 -5.61133 0.647361 1.22061 -5.63705 0.93123 1.7908 -5.62754 1.21867 
2.36413 -5.59346 1.51065 2.93604 -5.54496 1.80862 3.50279 -5.49067 2.11401 
4.06185 -5.43688 2.4277 4.6122 -5.3874 2.74976 5.15442 -5.34347 3.07938 
5.69057 -5.30441 3.41506 6.22367 -5.26777 3.75497 6.75768 -5.23037 4.09717 
7.29682 -5.18874 4.43983 7.84496 -5.13991 4.78124 8.4053 -5.08251 5.11989 
8.97946 -5.01739 5.45441 9.56664 -4.94836 5.78361 10.1635 -4.88241 6.10653 
10.7631 -4.82984 6.4225 11.355 -4.80328 6.73126 11.9258 -4.81668 7.03295 
12.4596 -4.88411 7.32812 12.9399 -5.01768 7.61755 13.3509 -5.2263 7.90187 
13.6805 -5.51408 8.1817 13.9206 -5.88002 8.45713 14.0684 -6.31826 8.72795 
14.1272 -6.81849 8.99383 14.1049 -7.36729 9.2542 14.0134 -7.95035 9.50903 
13.8672 -8.55359 9.75862 13.681 -9.16491 10.0039 13.4696 -9.77509 10.246 
13.2462 -10.3779 10.4864 13.0216 -10.9704 10.7265 12.8048 -11.5523 10.9671 

LINES 2 120
OFFSETS vtktypeint64
0 120 
CONNECTIVITY vtktypeint64
0 1 2 3 4 5 6 7 8 
9 10 11 12 13 14 15 16 17 
18 19 20 21 22 23 24 25 26 
27 28 29 30 31 32 33 34 35 
36 37 38 39 40 41 42 43 44 
45 46 47 48 49 50 51 52 53 
54 55 56 57 58 59 60 61 62 
63 64 65 66 67 68 69 70 71 
72 73 74 75 76 77 78 79 80 
81 82 83 84 85 86 87 88 89 
90 91 92 93 94 95 96 97 98 
99 100 101 102 103 104 105 106 107 
108 109 110 111 112 113 114 115 116 
117 118 119 
CELL_DATA 1
FIELD FieldData 2
Length 1 1 double
72.556811363 
Tortuosity 1 1 double
0.85050482221 
POINT_DATA 120
FIELD FieldData 19
Curvature 1 120 double
0 0.44818438332 0.36732944352 0.25576635254 0.15959209059 0.086537819867 0.029501750788 0.019946811115 0.067617792325 
0.11592898765 0.16245686266 0.20043933795 0.22148093287 0.22167141929 0.20556659608 0.1830399666 0.16236210517 0.14758509857 
0.13823682479 0.1310955048 0.12243686977 0.11006179243 0.094521654805 0.079644654809 0.072561073694 0.080572580136 0.10614448577 
0.15049698586 0.22093625341 0.33194001836 0.49056998211 0.65862808245 0.72419344257 0.63050567134 0.47052001382 0.33811861178 
0.25488198108 0.20964724564 0.18963316587 0.18549776833 0.19099759299 0.20128206977 0.21155804612 0.21859115004 0.22077403084 
0.22061446278 0.22173945188 0.22827520872 0.24323283887 0.26744093908 0.30186116301 0.34255758608 0.38390073287 0.41360368753 
0.41796970742 0.39207610787 0.34295346237 0.28492166801 0.2294053042 0.1807933459 0.13853708514 0.099363357228 0.059950892873 
0.039267277372 0.10115252095 0.21264802469 0.34010009332 0.41221347831 0.36930711987 0.25448610796 0.14681492995 0.085010023218 
0.069243420507 0.071575095852 0.074790912197 0.078495175754 0.087213596126 0.10462093563 0.12850348758 0.15280536448 0.17122976837 
0.17731819589 0.16849817597 0.14754331229 0.11889249667 0.087858143252 0.059653688979 0.037166721376 0.025664016312 0.026439870791 
0.029804494598 0.029280210896 0.023796796519 0.014268459925 0.0039428178331 0.011304349658 0.021433213411 0.027537508243 0.02868475722 
0.025414172046 0.023410217268 0.032769633409 0.05621056466 0.092567508535 0.14522701113 0.2177167987 0.30991980307 0.40063753648 
0.44882282582 0.42263479001 0.34114367741 0.25130710089 0.17706866721 0.12216019541 0.082830470033 0.05284792307 0.029204259597 
0.012034396811 0.013494648302 0 
Torsion 1 120 double
0 0 -0.023931356146 -0.035599087607 -0.05056566182 -0.072190469541 -0.19520908342 -0.32235754432 -0.067634211695 
-0.037759083069 -0.013441646213 0.013869379471 0.047061048425 0.089995100579 0.14478800671 0.20563180282 0.25663260799 0.27897839578 
0.2704776566 0.25055648548 0.24380246929 0.26998092118 0.35126991506 0.50110255251 0.62719100862 0.52775514693 0.30048888805 
0.12655588217 0.023981048139 -0.028198061721 -0.044493031445 -0.038152172246 -0.023887806396 -0.0064849952144 0.01617687455 0.0370734129 
0.037410303372 0.009528334409 -0.044298860178 -0.11127205447 -0.17862389872 -0.24039634559 -0.29644066483 -0.34602462287 -0.38598794781 
-0.40683189709 -0.40329275606 -0.36896401023 -0.30647576675 -0.23373229181 -0.15948570424 -0.093032063211 -0.03771507521 0.0054720982274 
0.03506055641 0.051999754076 0.057617268053 0.051325379966 0.033001586679 0.00058424618607 -0.058306067723 -0.19972288779 -0.8076638809 
-2.8256413546 -0.6927555024 -0.27286026635 -0.17697671897 -0.16349286683 -0.20693383305 -0.3363241212 -0.64080836678 -1.0662310521 
-0.77925836223 -0.2309374311 0.10163776362 0.29093143467 0.34504220161 0.27669439351 0.17358613255 0.091717190349 0.036920379736 
0.0049922641217 -0.0073241706148 0.00024777103072 0.032203250226 0.10636224685 0.2720408168 0.6534599554 1.0794176171 0.69101624533 
0.30675224383 0.1340988529 0.010367613319 -0.27330886438 -4.397071722 -0.52791424744 -0.19142233445 -0.19951248083 -0.31366425748 
-0.63912623939 -1.1326324574 -0.83513884243 -0.41107466668 -0.2314600096 -0.15119983628 -0.10556946868 -0.078899879365 -0.062015828082 
-0.050822002719 -0.046244116885 -0.046499001292 -0.05004849467 -0.059088060799 -0.076915064274 -0.10771790995 -0.17502143728 -0.41264743569 
-1.8276871493 0 0 
FrenetTangent 3 120 double
-0.11134732462 -0.73495539556 -0.66891130939 -0.11134732462 -0.73495539556 -0.66891130939 -0.27390446916 -0.80944117939 -0.51940477364 
-0.38705187766 -0.83827280211 -0.38404368663 -0.45599264291 -0.84395314217 -0.28251336857 -0.49336507358 -0.8423126066 -0.21702621253 
-0.50934359423 -0.84060154849 -0.18427734449 -0.51013596483 -0.84077560257 -0.18126688473 -0.49879639012 -0.84177317085 -0.20644633695 
-0.47605388809 -0.84051188226 -0.25867445063 -0.44112099787 -0.83253421049 -0.33511050953 -0.39290248578 -0.81326056682 -0.42922591618 
-0.33158042583 -0.7802564363 -0.53033415393 -0.25967214177 -0.73531886978 -0.62600043015 -0.18125544895 -0.68423077216 -0.70638142151 
-0.099943641086 -0.63390185767 -0.76692874731 -0.01772926399 -0.58951758847 -0.80756094884 0.0646757099 -0.55363185496 -0.83024624162 
0.14677759236 -0.52676650115 -0.83724153722 0.22725431119 -0.50847190007 -0.83054909842 0.30348415649 -0.49818076643 -0.81222736393 
0.37181381062 -0.49568659211 -0.7848880765 0.42842164023 -0.5012447071 -0.75180359256 0.47025603033 -0.51551065664 -0.71631559304 
0.49555249129 -0.53939955438 -0.68079060592 0.50357220096 -0.5740955339 -0.64562323097 0.49372760798 -0.62117309601 -0.60858609409 
0.46460861295 -0.68238964767 -0.56434316291 0.41279063543 -0.75887362048 -0.50370102188 0.33141785279 -0.84857562544 -0.41240952312 
0.21081438125 -0.93891995464 -0.27200480776 0.046473050179 -0.99643565337 -0.070400598712 -0.14266903477 -0.97472010471 0.17194843409 
-0.31318424233 -0.86268279261 0.39710707586 -0.43609494775 -0.70315083607 0.56160493078 -0.51487118766 -0.54120664415 0.66483308314 
-0.56469766398 -0.39440134121 0.72495801971 -0.5968017248 -0.26231621473 0.75829935037 -0.61614137092 -0.13889387446 0.77529239818 
-0.62277112084 -0.018159332417 0.78219330711 -0.61341415085 0.10333626507 0.78297170821 -0.58308917384 0.22527945673 0.78054864149 
-0.52717785109 0.34282373405 0.77753160752 -0.44382862377 0.44721398449 0.77654092281 -0.33581639257 0.52800554089 0.78002403762 
-0.21031178073 0.57639155361 0.78964658665 -0.076569454813 0.58743657754 0.80563973708 0.056774526596 0.55981938196 0.82666735312 
0.1834678043 0.49438911453 0.84965814786 0.29958592432 0.39273621481 0.86948636535 0.40244165589 0.25625420063 0.87884839322 
0.48898650984 0.087499129418 0.86789175336 0.55471645772 -0.10685691848 0.82514922924 0.59416160115 -0.31312616462 0.74089405231 
0.60346106934 -0.50983616265 0.61310833059 0.58394207468 -0.67434195819 0.45196745109 0.54305041132 -0.79271228902 0.27695392686 
0.49109615971 -0.86437960554 0.10803915703 0.43678957895 -0.89861449194 -0.041314145312 0.38542713924 -0.90788453888 -0.16489870954 
0.33946887775 -0.90366807545 -0.26104576314 0.29987206148 -0.89522087726 -0.32963059274 0.26725743269 -0.88979993785 -0.36990476515 
0.24260642678 -0.89309840142 -0.37883686075 0.22771608416 -0.90865738621 -0.34998162738 0.22499232756 -0.93511009903 -0.27376551138 
0.23603089838 -0.96108141526 -0.14356854899 0.25898153685 -0.96546798987 0.028286464925 0.28826589678 -0.93610385485 0.20152504978 
0.31954507486 -0.88651040895 0.33464942843 0.35215175885 -0.83911436942 0.41457956266 0.38664773108 -0.80490505415 0.45014596061 
0.42322832423 -0.78310567238 0.45565698882 0.46163237631 -0.76816190409 0.44364720019 0.50168939246 -0.75395960326 0.42409040327 
0.54374771984 -0.73513799644 0.40485867085 0.588372949 -0.70746017957 0.39155761671 0.63601989075 -0.66740640956 0.38735950104 
0.68633236764 -0.61211132932 0.3927691455 0.73729234508 -0.54027471537 0.40558997746 0.78541613339 -0.4530946987 0.42169502181 
0.82666967647 -0.3551910735 0.43641327581 0.85793714104 -0.25444252465 0.44632148018 0.87834920806 -0.15955506099 0.45060498356 
0.88916549275 -0.077600451888 0.45095775452 0.892757037 -0.012782660608 0.45035705443 0.89150894865 0.033987429208 0.45172629891 
0.88716327023 0.063970001142 0.45700018699 0.88081915215 0.079510652225 0.46672869784 0.87316832326 0.083825200477 0.48015665676 
0.86481820246 0.080503373497 0.49558922864 0.85652482637 0.073228436363 0.51088434887 0.84924281847 0.065354765911 0.5239421627 
0.84388047299 0.05974455958 0.53319446256 0.84113536892 0.058364224981 0.53766616817 0.84134824098 0.061965169103 0.53692965574 
0.8443245836 0.070245037989 0.53120771094 0.8495424194 0.081415713725 0.52119973063 0.85631489959 0.092481316676 0.50810628691 
0.86387666101 0.09979008024 0.49371961117 0.87160098834 0.0993553156 0.48004191315 0.87877045932 0.087041571245 0.46924007149 
0.88412341134 0.058715165276 0.4635496984 0.88534258775 0.010020292312 0.46483125547 0.87796267427 -0.064245007528 0.47439869476 
0.8538467716 -0.169242586 0.49224245826 0.80018341468 -0.30721163171 0.51509952069 0.70198097455 -0.47046703362 0.5346807287 
0.55323293244 -0.63490650837 0.53928382888 0.37054012282 -0.76832519973 0.52189692932 0.18770550641 -0.85264006973 0.48761824654 
0.03108428569 -0.89340315912 0.44817916335 -0.091075907288 -0.90636713984 0.41255761651 -0.18132879228 -0.90500808444 0.38481194912 
-0.24566928068 -0.8977013035 0.36575808156 -0.28934090061 -0.88906880633 0.35473722789 -0.31600254377 -0.8815614003 0.35070199575 
-0.32848250461 -0.87633674243 0.35232535821 -0.32856094264 -0.87410250746 0.35776041342 -0.32856094264 -0.87410250746 0.35776041342 

FrenetNormal 3 120 double
-0.71906832023 -0.40502347455 0.56470942608 -0.71906832023 -0.40502347455 0.56470942608 -0.66541086092 -0.23044019377 0.71001810066 
-0.59352427695 -0.092240989802 0.79951268437 -0.52299833143 -0.0027383417629 0.85232930655 -0.45996007675 0.040871191861 0.88699846306 
-0.391643903 0.03575137446 0.91942204262 0.45263049541 -0.083224688765 -0.88780588295 0.40198437428 -0.01365868645 -0.91554464835 
0.40241918674 0.053335931966 -0.91390047407 0.42646894872 0.1340900295 -0.89450774159 0.46954618476 0.22390423807 -0.85404524034 
0.52706004015 0.31302774931 -0.79007679515 0.59549392443 0.38839190388 -0.70323446656 0.67409330713 0.43655374644 -0.59583474199 
0.76158941936 0.44728745611 -0.46895147716 0.84990714567 0.41653710868 -0.32273004328 0.92260248539 0.35023589248 -0.16167706567 
0.96444964117 0.26425165957 0.0028195855599 0.97176347985 0.17400937749 0.15936271763 0.94911253752 0.08276260779 0.30386796782 
0.89851560601 -0.020315834827 0.43847117648 0.80915412879 -0.15748161515 0.5660999353 0.64240747406 -0.3565781418 0.67835438088 
0.34606217441 -0.59628854212 0.72434863566 -0.015519429423 -0.75317998234 0.65763140247 -0.27866111342 -0.77594033601 0.56591923347 
-0.42463632529 -0.73093835984 0.53424068112 -0.5072887862 -0.65085394157 0.56484266318 -0.56280726209 -0.52863670844 0.63544568314 
-0.603526024 -0.34390815963 0.7193632713 -0.62047891761 -0.084026995869 0.77970852039 -0.59256430231 0.22326655447 0.77396356069 
-0.51661032306 0.50562010698 0.69098631066 -0.42086255306 0.7109795922 0.56336731438 -0.33496434993 0.84088095801 0.42510951382 
-0.26336116041 0.91861006109 0.29461238068 -0.19480359757 0.96414548231 0.1802083442 -0.11123484814 0.98980775417 0.088923665805 
0.0020471551624 0.99968937786 0.024838618107 0.15044861161 0.9885375494 -0.012598757777 0.32888836089 0.94398949266 -0.026763479328 
0.5239506496 0.8515091733 -0.020195162087 0.71416885537 0.69995508241 0.0050723390538 0.87249250983 0.48642308487 0.046361652234 
0.97000769414 0.22372148194 0.09504615634 0.98851775846 -0.06084258408 0.13831421176 0.9290279688 -0.33285320716 0.16160376129 
0.81374479599 -0.56129539664 0.15088699317 0.67294287065 -0.73300903615 0.09922522744 0.52601952762 -0.85044287632 0.0070972306135 
0.3826730717 -0.91561993178 -0.12329420394 0.24207041362 -0.92809296859 -0.28292288083 0.10448574186 -0.88326266596 -0.45708838607 
-0.025884241002 -0.78101115784 -0.6239804303 -0.14162388618 -0.63283651406 -0.76122310878 -0.235248967 -0.46024324431 -0.85605728757 
-0.30562155478 -0.28710911807 -0.90783468736 -0.35867792826 -0.13185666395 -0.9241017065 -0.40445495299 -0.0055968774882 -0.91454079514 
-0.45793105888 0.083641008721 -0.88504425142 -0.54583885927 0.12237301537 -0.8289057756 -0.74775981224 0.050624977285 -0.6620365359 
-0.84966950942 -0.38407325625 0.3613162861 -0.16414392552 -0.39010243469 0.90602255058 0.03758422471 -0.27243123953 0.96144092163 
0.11175800946 -0.11991519364 0.98647376734 0.14752236021 0.068480160562 0.98668516805 0.18308234795 0.26045786684 0.94796759094 
0.26008132852 0.42165660851 0.86865609251 0.43719465848 0.53913586552 0.71985647813 0.7414924933 0.56155303154 0.36721529808 
0.90282139991 0.40675986524 -0.13949885981 0.8691852005 0.29176690214 -0.39923572241 0.8428783081 0.31577840239 -0.43570650479 
0.83611706776 0.43288177853 -0.33692968823 0.80083870471 0.57673989037 -0.16133340602 0.72044506783 0.69341165001 0.011797790772 
0.62149610757 0.77411032545 0.12039847301 0.52371680552 0.83633991378 0.16203782348 0.42970256288 0.88949789794 0.15540011911 
0.33848013462 0.93347206365 0.11857952969 0.25094872429 0.96560233465 0.06809455992 0.16889854214 0.98543643596 0.019705662921 
0.092226293886 0.99568261821 -0.010508782451 0.015805790814 0.99987072122 -0.0029525970123 -0.078504764712 0.99368494546 0.080170013571 
-0.22913095585 0.92069982417 0.3159285344 -0.43037852024 0.54529678903 0.7193231132 -0.47987826146 -0.02476492495 0.87698549171 
-0.4469102491 -0.32642685364 0.83289659531 -0.43031423127 -0.44519658289 0.78525770607 -0.42965157115 -0.49123611853 0.75768502906 
-0.46372482883 -0.41862821001 0.78083910309 -0.51134540237 0.40956839648 0.75549957517 0.23393578532 0.85378858194 -0.46510117791 
0.30567180242 0.75109313248 -0.58516993733 0.34326142682 0.66491259096 -0.66337232324 0.38707755767 0.53638720348 -0.74997315438 
0.45585176706 0.26209249721 -0.85059196409 0.48373275071 -0.33305024073 -0.80937022619 0.29729145875 -0.86899395682 -0.39555946653 
0.10288133438 -0.99218857813 -0.070549673702 -0.03279673323 -0.9959313217 0.08393555118 -0.15319348319 -0.97655046785 0.15126447188 
-0.28254291569 -0.9449191444 0.16521897996 -0.42920142119 -0.89320986523 0.13402341852 -0.59017172321 -0.80449621395 0.066956544634 
-0.74238399833 -0.66944780044 -0.026563913759 -0.8576151284 -0.49877293098 -0.1253868209 -0.92380574421 -0.32190629993 -0.20726620814 
-0.95074016179 -0.16479237688 -0.26255783606 -0.95631832236 -0.035955178434 -0.29010772391 -0.95410679527 0.067066574645 -0.29186006541 
-0.95240908292 0.15329129049 -0.26347432328 -0.95237347619 0.23010844463 -0.20008714492 -0.94534417705 0.32389544005 -0.037631513845 
-0.72947874019 0.47233776553 0.49473003029 0.65304585945 0.063404392057 0.75465951828 0.65304585945 0.063404392057 0.75465951828 

FrenetBinormal 3 120 double
-0.68596102232 0.54387181541 -0.48338486143 -0.68596102232 0.54387181541 -0.48338486143 -0.69440962547 0.54009470855 -0.4754923531 
-0.70563430804 0.53739213712 -0.46183321046 -0.72009961458 0.5364099135 -0.44013742147 -0.7382598675 0.53743745537 -0.40759458976 
-0.7662794244 0.54047282623 -0.34742620489 0.73135964614 -0.53494863052 0.42301658443 0.76786113591 -0.53965856717 0.34519256486 
0.78194085056 -0.53916143606 0.31284733031 0.78964327453 -0.53750037428 0.29590006191 0.79066681798 -0.53709788924 0.29389086465 
0.78247181117 -0.54149194064 0.30744811423 0.76023507204 -0.55538985294 0.33702336195 0.71606192156 -0.58416528218 0.38210763874 
0.64030682092 -0.63095353747 0.43806941074 0.52663413955 -0.69207358711 0.49365031457 0.38029160719 -0.75553066701 0.53343388036 
0.21975720245 -0.80789115213 0.54682598538 0.063491867759 -0.84331314669 0.53365880424 -0.084159122346 -0.86311428832 0.49794675159 
-0.23328993973 -0.86826382469 0.43782843074 -0.40214984029 -0.85085444378 0.33811569242 -0.60512139543 -0.77916672906 0.16348487732 
-0.79666096918 -0.59454864837 -0.1088264899 -0.86381374481 -0.3211451886 -0.38819013655 -0.82376030068 -0.10982067086 -0.5561999526 
-0.77706037604 -0.0085722149368 -0.62936768992 -0.75647999227 0.022360118146 -0.65363448992 -0.75723853084 0.021509030696 -0.65278416725 
-0.76896920291 0.012509857204 -0.63916341295 -0.78284491977 0.0074466540954 -0.62217230647 -0.79278817735 0.0085301302693 -0.60943756262 
-0.79688732232 0.011256409415 -0.6040230863 -0.79542184279 0.0093231545489 -0.60598446416 -0.78911757324 -0.0038187412417 -0.61423030927 
-0.78214924886 -0.024558862171 -0.62260695049 -0.77838246361 -0.04017079084 -0.62650382913 -0.77974137994 -0.03144998282 -0.62531134564 
-0.78240139328 0.017070045106 -0.62254049937 -0.77529884226 0.11006875012 -0.62192971905 -0.74285897815 0.24110786824 -0.62452184465 
-0.66899867721 0.39674174869 -0.62851949432 -0.54127534466 0.55683259125 -0.63004640034 -0.35494248939 0.69613413312 -0.6240297252 
-0.12187710285 0.78595259109 -0.60615550509 0.13026803063 0.80697983081 -0.57603280538 0.36562779751 0.7588221149 -0.53898544658 
0.55150609406 0.66372199085 -0.50528620313 0.67631070285 0.55538816921 -0.48388822543 0.74922905053 0.45943519541 -0.47704835295 
0.78387085249 0.39240800563 -0.48120935541 0.79604746491 0.35668619348 -0.48896154551 0.79753038906 0.34899723203 -0.49208354024 
0.79697223531 0.36067805393 -0.48450655058 0.79934618801 0.38050081458 -0.46504279568 0.80607330578 0.39972913693 -0.43642003025 
0.81573281605 0.41281503346 -0.40517122426 0.82496364011 0.41845646734 -0.379906801 0.8293745302 0.4191829422 -0.36935558697 
0.82162036632 0.41998594152 -0.3854241593 0.78239164519 0.42849087042 -0.45195009405 0.60780648883 0.45353410267 -0.651826733 
-0.46819210422 0.23422847651 -0.85201712092 -0.9597927676 -0.1488685492 -0.23798318917 -0.97363539305 -0.22660609527 -0.026149550592 
-0.96529765478 -0.24888322479 0.079104855013 -0.9545500075 -0.25136035514 0.1601632138 -0.93988490073 -0.23637104843 0.24646521222 
-0.91117981084 -0.19053870818 0.36530309744 -0.82755662606 -0.072246754583 0.55671396347 -0.5483542782 0.19179688886 0.813954261 
-0.076100626954 0.47041674919 0.87915685555 0.17723610347 0.5699117159 0.80236400699 0.19458651348 0.57604593327 0.79391886962 
0.072433874456 0.52171399445 0.85003990602 -0.11168993654 0.40849870646 0.90589964394 -0.27647351195 0.27156761241 0.92185325789 
-0.37774392041 0.16147112606 0.91172178105 -0.42675602574 0.092945040482 0.89957796435 -0.44550780562 0.059149670945 0.89332195292 
-0.44949799162 0.049691122901 0.89189817122 -0.44829521501 0.053582954015 0.89227813334 -0.44718670728 0.058798071383 0.89250593031 
-0.44819531146 0.050934209125 0.89248342793 -0.45026109077 0.009754201154 0.89284366252 -0.44614885004 -0.10693495132 0.88854719616 
-0.4005500431 -0.38499308141 0.83146857442 -0.19731181039 -0.83446358102 0.51452753223 0.085404528227 -0.99617269299 0.018601943478 
0.2288246183 -0.94178804201 -0.2463221021 0.28494716033 -0.8924335262 -0.34981068756 0.30689764205 -0.86857114298 -0.38909896798 
0.26986113177 -0.90619038253 -0.32556713621 -0.17611692316 -0.91041053698 0.37434674238 -0.48724448252 0.51691911859 0.70383765109 
-0.44009174808 0.65644858213 0.61269446895 -0.40056119446 0.74247069164 0.53692457715 -0.3419002151 0.83888972696 0.4235189121 
-0.21428084616 0.959869503 0.18092610695 0.079462840475 0.93765988419 -0.3383483391 0.37333666894 0.48710703945 -0.78952293427 
0.4557863804 0.11006522971 -0.88325784494 0.46378106538 -0.089556664768 -0.88141178072 0.45355628018 -0.20547934873 -0.86721677679 
0.43716723507 -0.28015131202 -0.85463445458 0.41891842036 -0.32832476301 -0.84658738892 0.39864777497 -0.36255566748 -0.84239737624 
0.37788797479 -0.38565965321 -0.841705002 0.35664591532 -0.40112585404 -0.84374269793 0.33369085968 -0.41155952857 -0.8480973792 
0.30842650978 -0.41794050749 -0.85451671737 0.27777769068 -0.42095823186 -0.86350085211 0.23832769941 -0.42007432873 -0.87563546413 
0.18045371512 -0.4130788665 -0.89263783627 0.096263207329 -0.39573572157 -0.91330533426 -0.0804162872 -0.34342574367 -0.93573071946 
-0.59996667556 -0.094503698987 -0.79442371509 -0.68233335872 0.48158559936 0.54999681641 -0.68233335872 0.48158559936 0.54999681641 

plain_curvature_peaks 1 120 unsigned_char
0 0 0 0 0 0 0 0 0 
0 0 1 0 0 0 0 0 0 
0 0 0 0 0 0 0 0 0 
0 0 0 0 0 0 0 0 0 
0 0 0 0 1 0 0 0 0 
0 0 0 0 0 0 0 0 0 
0 0 0 0 0 0 0 0 0 
0 0 0 0 0 0 0 0 0 
0 0 0 1 0 0 0 0 0 
0 0 0 0 0 0 0 0 0 
0 0 0 0 0 0 0 0 0 
0 0 0 0 0 0 0 1 0 
0 0 0 0 0 0 0 0 0 
0 0 0 
weighted_curvature_peaks 1 120 unsigned_char
0 0 0 0 0 0 0 0 0 
0 0 0 0 1 0 0 0 0 
0 0 0 0 0 0 0 0 0 
0 0 0 0 0 0 0 0 0 
0 0 0 0 0 0 0 0 1 
0 0 0 0 0 0 0 0 0 
0 0 0 0 0 0 0 0 0 
0 0 0 0 0 0 0 0 0 
0 0 0 0 0 0 0 0 1 
0 0 0 0 0 0 0 0 0 
0 0 0 0 0 0 0 0 0 
0 0 0 0 0 0 0 0 0 
0 0 1 0 0 0 0 0 0 
0 0 0 
plain_torsion_tp 1 120 unsigned_char
0 0 0 0 0 0 0 0 0 
0 0 1 0 0 0 0 0 0 
0 0 0 0 0 0 0 0 0 
0 0 0 0 0 0 0 0 0 
0 0 0 0 1 0 0 0 0 
0 0 0 0 0 0 0 0 0 
0 0 0 0 0 0 0 0 0 
0 0 0 0 0 0 0 0 0 
0 0 0 1 0 0 0 0 0 
0 0 0 0 0 0 0 0 0 
0 0 0 0 0 0 0 0 0 
0 0 0 0 0 0 0 1 0 
0 0 0 0 0 0 0 0 0 
0 0 0 
plain_torsion_tn 1 120 unsigned_char
0 0 0 2 0 0 0 0 0 
0 0 0 0 0 0 0 0 0 
0 0 0 0 0 0 0 0 2 
0 0 0 0 0 0 0 0 0 
0 0 0 0 0 0 0 0 0 
0 0 0 0 0 0 0 0 0 
0 2 0 0 0 0 0 0 0 
0 0 0 0 0 0 0 0 0 
0 0 0 0 0 0 0 0 0 
0 0 0 0 0 0 0 0 0 
2 0 0 0 0 0 0 0 0 
0 0 0 0 0 0 0 0 0 
0 0 0 0 0 0 0 0 0 
0 0 0 
plain_torsion_tz 1 120 unsigned_char
0 0 0 0 0 3 0 0 0 
0 0 0 0 0 0 0 0 0 
3 0 0 0 0 0 0 0 0 
0 0 0 3 0 0 0 0 0 
0 0 0 0 0 0 0 0 0 
0 0 0 0 0 0 0 0 0 
0 0 0 0 0 0 0 0 3 
0 0 0 0 0 0 0 0 0 
0 0 0 0 0 0 0 0 0 
0 0 3 0 0 0 0 0 0 
0 0 0 0 3 0 0 0 0 
0 0 0 0 0 0 0 0 0 
0 0 0 0 0 0 0 0 0 
0 0 0 
weighted_torsion_tp 1 120 unsigned_char
0 0 0 0 0 0 0 0 0 
0 0 0 0 1 0 0 0 0 
0 0 0 0 0 0 0 0 0 
0 0 0 0 0 0 0 0 0 
0 0 0 0 0 0 0 0 1 
0 0 0 0 0 0 0 0 0 
0 0 0 0 0 0 0 0 0 
0 0 0 0 0 0 0 0 0 
0 0 0 0 0 0 0 0 1 
0 0 0 0 0 0 0 0 0 
0 0 0 0 0 0 0 0 0 
0 0 0 0 0 0 0 0 0 
0 0 1 0 0 0 0 0 0 
0 0 0 
weighted_torsion_tn 1 120 unsigned_char
0 0 0 0 0 0 2 0 0 
0 0 0 0 0 0 0 0 0 
0 0 0 0 0 0 0 0 0 
0 2 0 0 0 0 0 0 0 
0 0 0 0 0 0 0 0 0 
0 0 0 0 0 0 0 0 0 
0 0 0 0 0 0 0 2 0 
0 0 0 0 0 0 0 0 0 
0 0 0 0 0 0 0 0 0 
0 0 0 0 0 0 0 0 0 
0 0 0 0 2 0 0 0 0 
0 0 0 0 0 0 0 0 0 
0 0 0 0 0 0 0 0 0 
0 0 0 
weighted_torsion_tz 1 120 unsigned_char
0 0 0 0 0 0 3 0 0 
0 0 0 0 0 0 0 0 0 
0 0 3 0 0 0 0 0 0 
0 0 0 0 0 0 3 0 0 
0 0 0 0 0 0 0 0 0 
0 0 0 0 0 0 0 0 0 
0 0 0 0 0 0 0 0 0 
0 0 0 0 3 0 0 0 0 
0 0 0 0 0 0 0 0 0 
0 0 0 0 0 0 0 3 0 
0 0 0 0 0 0 0 0 0 
3 0 0 0 0 0 0 0 0 
0 0 0 0 0 0 0 0 0 
0 0 0 
plain_torsion_tp_raw 1 120 unsigned_char
0 0 0 0 0 0 0 0 0 
0 0 0 0 0 1 0 0 0 
0 0 0 0 0 0 0 0 0 
1 0 0 0 0 0 0 0 0 
0 0 0 0 0 0 0 0 0 
0 0 0 0 0 0 0 0 0 
0 0 0 0 0 1 0 0 0 
0 0 0 0 0 0 0 0 0 
0 0 0 0 0 0 1 0 0 
0 0 0 0 0 0 0 0 0 
0 0 0 0 0 0 0 0 1 
0 0 0 0 0 0 0 0 0 
1 0 0 0 0 0 0 0 0 
0 0 0 
plain_torsion_tn_raw 1 120 unsigned_char
0 0 0 0 0 0 0 0 0 
2 0 0 0 0 0 0 0 0 
0 2 0 0 0 0 0 0 0 
0 0 0 0 0 0 0 0 0 
0 0 0 0 0 0 0 0 0 
0 0 0 0 0 2 0 0 0 
0 0 0 0 0 0 0 0 0 
0 0 0 2 0 0 0 0 0 
0 0 0 0 0 0 0 0 0 
0 0 0 0 0 0 0 0 0 
0 2 0 0 0 0 0 0 0 
0 0 0 0 2 0 0 0 0 
0 0 0 0 0 0 0 0 0 
0 0 0 
plain_torsion_tz_raw 1 120 unsigned_char
0 0 0 3 0 0 0 0 0 
0 0 0 3 0 0 3 0 0 
0 0 0 0 0 0 0 3 0 
0 0 0 0 0 0 0 0 0 
0 0 0 0 0 0 0 0 0 
0 0 0 0 0 0 0 0 0 
0 0 0 0 0 0 0 0 0 
0 0 0 0 0 0 0 0 0 
0 0 0 0 0 0 0 0 0 
0 0 0 0 0 0 0 0 0 
0 0 0 0 0 0 0 0 0 
0 0 0 0 0 0 0 0 0 
0 0 0 0 0 0 0 0 0 
0 0 0 
weighted_torsion_tp_raw 1 120 unsigned_char
0 0 0 0 0 0 0 0 0 
0 0 0 0 0 0 0 0 1 
0 0 0 0 0 0 0 0 0 
0 0 0 1 0 0 0 0 0 
0 0 0 0 0 0 0 0 0 
0 0 0 0 0 0 0 0 0 
0 0 0 0 0 0 0 0 0 
0 0 1 0 0 0 0 0 0 
0 0 0 0 0 0 0 0 0 
0 0 1 0 0 0 0 0 0 
0 0 0 0 0 0 0 0 0 
0 0 0 0 1 0 0 0 0 
0 0 0 0 1 0 0 0 0 
0 0 0 
weighted_torsion_tn_raw 1 120 unsigned_char
0 0 0 0 0 0 0 0 0 
0 2 0 0 0 0 0 0 0 
0 0 0 0 2 0 0 0 0 
0 0 0 0 0 0 0 0 0 
0 0 0 0 0 0 0 0 0 
0 0 0 0 0 0 0 0 0 
0 2 0 0 0 0 0 0 0 
0 0 0 0 0 0 0 0 2 
0 0 0 0 0 0 0 0 0 
0 0 0 0 0 0 0 0 0 
0 0 0 0 0 2 0 0 0 
0 0 0 0 0 0 0 0 2 
0 0 0 0 0 0 0 0 0 
0 0 0 
weighted_torsion_tz_raw 1 120 unsigned_char
0 0 0 0 0 0 3 0 0 
0 0 0 0 0 3 0 0 3 
0 0 0 0 0 0 0 0 0 
3 0 0 0 0 0 0 0 0 
0 0 0 0 0 0 0 0 0 
0 0 0 0 0 0 0 0 0 
0 0 0 0 0 0 0 0 0 
0 0 0 0 0 0 0 0 0 
0 0 0 0 0 0 0 0 0 
0 0 0 0 0 0 0 0 0 
0 0 0 0 0 0 0 0 0 
0 0 0 0 0 0 0 0 0 
0 0 0 0 0 0 0 0 0 
0 0 0 
