# vtk DataFile Version 5.1
vtk output
ASCII
DATASET POLYDATA
POINTS 120 float
-1.59826 20.0067 -5.15144 -1.90095 19.707 -4.54949 -2.27582 19.3497 -4.03022 
-2.70565 18.9442 -3.59409 -3.17327 18.4996 -3.24153 -3.66171 18.0253 -2.97296 
-4.15461 17.5301 -2.78885 -4.6369 17.0227 -2.68968 -5.09562 16.5106 -2.6758 
-5.52091 16.0002 -2.74704 -5.90696 15.4964 -2.90213 -6.25231 15.002 -3.13814 
-6.55988 14.5182 -3.45009 -6.83607 14.0448 -3.83075 -7.08912 13.5809 -4.27093 
-7.32719 13.1257 -4.76007 -7.55634 12.6801 -5.287 -7.77888 12.247 -5.84076 
-7.99238 11.8315 -6.41122 -8.18918 11.4407 -6.98948 -8.35695 11.0814 -7.56798 
-8.48013 10.759 -8.1405 -8.54203 10.475 -8.70204 -8.52756 10.2258 -9.24877 
-8.42587 10.0019 -9.77791 -8.23257 9.78893 -10.2876 -7.95115 9.56921 -10.7769 
-7.59347 9.32498 -11.2452 -7.17879 9.04114 -11.6916 -6.73193 8.70793 -12.1138 
-6.28062 8.32194 -12.5067 -5.85255 7.88655 -12.8614 -5.47259 7.41103 -13.1651 
-5.16051 6.90938 -13.4019 -4.92982 6.39888 -13.555 -4.78765 5.89757 -13.6092 
-4.73581 5.42331 -13.5546 -4.77235 4.99168 -13.3885 -4.89298 4.61541 -13.1167 
-5.09195 4.30411 -12.7525 -5.36203 4.06443 -12.3146 -5.69406 3.90069 -11.8237 
-6.07662 3.81544 -11.2996 -6.49603 3.80964 -10.7585 -6.93709 3.88248 -10.2119 
-7.38403 4.03053 -9.66602 -7.82161 4.24702 -9.12227 -8.23575 4.52147 -8.57803 
-8.61382 4.83917 -8.02822 -8.94455 5.1818 -7.46688 -9.21787 5.52874 -6.88877 
-9.42487 5.85813 -6.29103 -9.55815 6.14871 -5.67421 -9.61257 6.3811 -5.04294 
-9.58615 6.53867 -4.40565 -9.4809 6.60794 -3.77383 -9.30325 6.57916 -3.16077 
-9.06382 6.44671 -2.5802 -8.77649 6.2094 -2.04509 -8.45707 5.8707 -1.56688 
-8.12148 5.43871 -1.15509 -7.78423 4.92549 -0.817224 -7.45705 4.34539 -0.55867 
-7.14829 3.71386 -0.382694 -6.86252 3.04607 -0.289958 -6.60069 2.35559 -0.2779 
-6.36052 1.65389 -0.340089 -6.13695 0.950392 -0.465694 -5.92264 0.252695 -0.639359 
-5.70848 -0.432587 -0.841722 -5.48414 -1.09927 -1.05067 -5.23871 -1.74078 -1.24314 
-4.96147 -2.35005 -1.39739 -4.64283 -2.91955 -1.49527 -4.27538 -3.44171 -1.52423 
-3.85482 -3.90992 -1.47836 -3.38053 -4.31936 -1.35826 -2.85599 -4.66756 -1.16999 
-2.28846 -4.95515 -0.923072 -1.68821 -5.18568 -0.628215 -1.06727 -5.3651 -0.295501 
-0.437881 -5.50084 0.0666898 0.18916 -5.60071 0.451817 0.8059 -5.67158 0.854622 
1.40822 -5.71854 1.27021 1.99611 -5.74465 1.69319 2.57324 -5.75024 2.1172 
3.14585 -5.73383 2.53512 3.72123 -5.69225 2.93981 4.30624 -5.62197 3.32502 
4.90592 -5.52011 3.68637 5.5226 -5.38567 4.02188 6.15563 -5.22058 4.33231 
6.80167 -5.03029 4.62091 7.4549 -4.82452 4.89316 8.10776 -4.61641 5.15626 
8.75157 -4.42189 5.41811 9.37759 -4.25809 5.68704 9.97781 -4.14185 5.97095 
10.5451 -4.08735 6.27634 11.0739 -4.1046 6.60802 11.5605 -4.19881 6.96872 
12.0021 -4.37025 7.35813 12.3969 -4.61561 7.773 12.7434 -4.92946 8.20727 
13.0397 -5.30584 8.65238 13.2839 -5.73911 9.09815 13.474 -6.224 9.53355 
13.6086 -6.75488 9.94805 13.6864 -7.32546 10.3326 13.7076 -7.9288 10.68 
13.672 -8.55716 10.986 13.5817 -9.20302 11.2491 13.4393 -9.85941 11.4708 
13.2498 -10.5205 11.6552 13.0203 -11.1823 11.8091 12.7594 -11.8424 11.9407 
12.4774 -12.5 12.0597 12.1848 -13.1555 12.1751 11.8914 -13.8101 12.2954 

LINES 2 120
OFFSETS vtktypeint64
0 120 
CONNECTIVITY vtktypeint64
0 1 2 3 4 5 6 7 8 
9 10 11 12 13 14 15 16 17 
18 19 20 21 22 23 24 25 26 
27 28 29 30 31 32 33 34 35 
36 37 38 39 40 41 42 43 44 
45 46 47 48 49 50 51 52 53 
54 55 56 57 58 59 60 61 62 
63 64 65 66 67 68 69 70 71 
72 73 74 75 76 77 78 79 80 
81 82 83 84 85 86 87 88 89 
90 91 92 93 94 95 96 97 98 
99 100 101 102 103 104 105 106 107 
108 109 110 111 112 113 114 115 116 
117 118 119 
CELL_DATA 1
FIELD FieldData 2
Length 1 1 double
81.171704467 
Tortuosity 1 1 double
1.010570478 
POINT_DATA 120
FIELD FieldData 19
Curvature 1 120 double
0 0.23074308291 0.2067752253 0.1853973325 0.17061542996 0.16430722099 0.1671463441 0.17849724505 0.19531799692 
0.21087808961 0.21585147046 0.20274009086 0.17236182699 0.1336359201 0.097030647109 0.069432013457 0.053216580677 0.047788130949 
0.052808959459 0.070126216195 0.1024966045 0.15069895818 0.20937766582 0.26054077032 0.27782508221 0.25061879912 0.19819121034 
0.14999567488 0.1228982562 0.11905610505 0.13230081105 0.15972503981 0.20544144403 0.2803259939 0.39936906824 0.5555073551 
0.67895325178 0.66804685756 0.53852058523 0.39480086304 0.29096876285 0.22676550262 0.18803958169 0.1636775902 0.14573917986 
0.13011981156 0.11576891789 0.10398437677 0.10059094292 0.11100081974 0.13504572898 0.16899290988 0.20800934739 0.24715956261 
0.28058091423 0.30206357931 0.30764941985 0.29777901476 0.27714111405 0.25203907359 0.22774193879 0.20750237082 0.19111342762 
0.17663828943 0.16131338201 0.142189486 0.11761250399 0.087792069364 0.055364697319 0.033944325951 0.058299112657 0.10843454714 
0.16766959219 0.22539100598 0.26501059623 0.2718263878 0.24659762826 0.20429191858 0.16096705137 0.12461885048 0.09704830374 
0.077456919496 0.064450665921 0.055236805514 0.047010173478 0.041566422984 0.043639568099 0.056540209971 0.072568324467 0.084561302781 
0.087709472989 0.080879675569 0.065518516133 0.043034680348 0.016584057229 0.020471056426 0.058356882575 0.10469618892 0.15600188976 
0.2055139443 0.24103249469 0.25118680316 0.23831865576 0.21413516234 0.1907570485 0.17441778995 0.16503171989 0.16076259832 
0.15857207447 0.15628555751 0.15322502222 0.14593304596 0.13576515885 0.11906595056 0.098403559967 0.07391437266 0.046735390328 
0.021279099447 0.0094857864724 0 
Torsion 1 120 double
0 0 0.058793474082 0.072084059417 0.083423841156 0.087658213893 0.080548695895 0.062115491668 0.036796371588 
0.011512685936 -0.012084014589 -0.035260058764 -0.060355585828 -0.09201490687 -0.12931452516 -0.15050792872 -0.089912966688 0.093038321418 
0.2657681777 0.30381144676 0.2700202629 0.2387894397 0.22718272373 0.23514796708 0.26531983694 0.32800195002 0.4325766954 
0.55279984597 0.58260526867 0.44000466713 0.23807175983 0.073418368027 -0.04063046845 -0.1040419138 -0.11611917988 -0.089278346354 
-0.048382033999 -0.0060951640405 0.036740300286 0.066760209714 0.061967674504 0.018078966107 -0.047741123955 -0.11561864445 -0.17982639212 
-0.24909633987 -0.33835484237 -0.45203797586 -0.52068928438 -0.46050908771 -0.32945710749 -0.21876136225 -0.15215036483 -0.1194504373 
-0.10795092693 -0.1074005429 -0.11096693368 -0.11239283725 -0.10595455427 -0.088999451029 -0.063483497456 -0.032623677355 -0.00060894880201 
0.026689686834 0.048291625954 0.070635941189 0.10776250114 0.20587185372 0.58274711748 1.786183676 0.67657657206 0.19242371488 
0.055460407747 -0.00045770846266 -0.028690936827 -0.044565368899 -0.049791826564 -0.040589023165 -0.01324199041 0.033694166967 0.092528199018 
0.13576205729 0.11858720325 0.012576573094 -0.21059316849 -0.52136582766 -0.59815061667 -0.35586186431 -0.171818634 -0.07719192633 
-0.033525905405 -0.018447456805 -0.035281653342 -0.13552534275 -1.2346358762 -0.97696723999 -0.12607709999 -0.040293276221 -0.023239436729 
-0.018672852966 -0.015390838375 -0.0082595327562 0.0056598801524 0.029579713194 0.059739900478 0.084188537527 0.089471740151 0.073318383285 
0.053397966413 0.022568519433 -0.003686447832 -0.022789054858 -0.040221534657 -0.048650073493 -0.063797001234 -0.089412617737 -0.17086846349 
-0.66712909069 0 0 
FrenetTangent 3 120 double
-0.46233412263 -0.44824630312 0.76506366453 -0.46233412263 -0.44824630312 0.76506366453 -0.54980106416 -0.52117920571 0.65275648246 
-0.61203109462 -0.57975699198 0.53786594005 -0.65289648283 -0.62753484752 0.42417708314 -0.67592603439 -0.66776314771 0.31179540503 
-0.68337619584 -0.70255994124 0.19851071486 -0.67600655732 -0.73240709246 0.08120951529 -0.65344799875 -0.75578289248 -0.042402032639 
-0.61540259749 -0.76929194652 -0.17166695669 -0.56353865903 -0.76916602158 -0.30134334409 -0.50323257781 -0.753915739 -0.42233639569 
-0.44298110601 -0.72632269843 -0.52556928893 -0.39095691858 -0.69244088521 -0.60636483102 -0.35173220148 -0.6582631767 -0.66556295618 
-0.32535860652 -0.62728172909 -0.70757290049 -0.30847254395 -0.60011821149 -0.73803985114 -0.29573372338 -0.575490231 -0.76246479189 
-0.28060465554 -0.55141153542 -0.78562481242 -0.25564396696 -0.52601408676 -0.81114446474 -0.21252330827 -0.49795919978 -0.84075589727 
-0.14244580848 -0.46674006294 -0.87284758423 -0.038540806985 -0.43320923961 -0.90046896721 0.098352350295 -0.4005446221 -0.91098343613 
0.25322288075 -0.3750120846 -0.89176460407 0.39969708139 -0.3643467271 -0.84112645041 0.51489288961 -0.37377669287 -0.77147669835 
0.59027675262 -0.40357533786 -0.69907102786 0.6287575419 -0.45033023201 -0.63392951946 0.63697249787 -0.51004453358 -0.5780316693 
0.62076180163 -0.57982193225 -0.52769433625 0.58373380006 -0.65806065094 -0.475616474 0.52676435127 -0.74379913729 -0.41143913474 
0.44750205128 -0.83450005987 -0.32148338087 0.33956376064 -0.92143515928 -0.18882187296 0.19504723659 -0.98079377125 0.00039214243464 
0.016408453739 -0.97144192466 0.2367094203 -0.16858102027 -0.86658579414 0.46969085685 -0.32295928517 -0.69477937363 0.64263436113 
-0.43421094601 -0.51004787877 0.74250388264 -0.51107308854 -0.34242994592 0.78838190638 -0.56440813296 -0.19666389827 0.80172736674 
-0.60005071193 -0.068121990463 0.79705616962 -0.61969794662 0.048283524578 0.78335378739 -0.62313697785 0.15500726903 0.76659836511 
-0.61001890033 0.25140408443 0.75144722208 -0.5808448149 0.33480635852 0.74197304756 -0.53714512397 0.40150263144 0.74180236772 
-0.48082549508 0.44793716423 0.75376331841 -0.4130434322 0.47152021552 0.7791429968 -0.33378156639 0.46999660374 0.81712487321 
-0.24211188086 0.44111301786 0.86417656912 -0.13739218949 0.3828013015 0.91355708625 -0.021093934553 0.29376757736 0.95564410552 
0.10160655154 0.17503730337 0.97930488159 0.22148371982 0.031706930055 0.97464846609 0.32721375344 -0.12648755113 0.9364465062 
0.40897753531 -0.28708653263 0.86620938485 0.4617376973 -0.43834686956 0.77113573438 0.48617939861 -0.57204532132 0.66060104657 
0.48708736512 -0.6842678536 0.54270010436 0.47070244806 -0.77453995371 0.42252463301 0.44294115462 -0.84392067264 0.30265662366 
0.40891780357 -0.89366017181 0.18481809232 0.37296433229 -0.92509639726 0.071374103282 0.33900766956 -0.94017426308 -0.033854911331 
0.31089779908 -0.94206784662 -0.12589968583 0.29227013616 -0.93524218068 -0.19975042173 0.28643721186 -0.92453386241 -0.25137792447 
0.29635912241 -0.91372711078 -0.27798208143 0.32469586078 -0.90420759973 -0.27745488749 0.37353875435 -0.89390527738 -0.24779458041 
0.44314240455 -0.87662280921 -0.1875026924 0.52956429352 -0.84260117185 -0.097902626261 0.62257493676 -0.78244610047 0.013362184587 
0.70775589144 -0.69415392261 0.13127044547 0.77366590088 -0.58684776446 0.23885304092 0.81711449918 -0.47570901609 0.32561453782 
0.84152915232 -0.37337088661 0.3904137124 0.85224724627 -0.28610182276 0.43797303369 0.85360295618 -0.21515798693 0.47441441152 
0.84851119 -0.15911480416 0.50468925048 0.83913287669 -0.1151942926 0.53158845944 0.82759622306 -0.079993000312 0.55559482672 
0.8164526433 -0.050123685645 0.57523273323 0.80864148888 -0.021998074908 0.58789031899 0.80678493728 0.0075931172621 0.59079641972 
0.8121719578 0.0410261665 0.58197385218 0.82403657592 0.079436231619 0.56093993141 0.83970480876 0.12201048534 0.52915902677 
0.85561947995 0.16622080145 0.49018970888 0.86887499118 0.20824833123 0.44909785374 0.87823285881 0.2440101218 0.4112980746 
0.88413982222 0.26951321906 0.38165350714 0.88790821027 0.28136239623 0.36394259454 0.89075705395 0.2765954739 0.36062004195 
0.8928753998 0.25195298671 0.37322005964 0.89249593723 0.20382048561 0.40237819484 0.88521535131 0.12945137655 0.44680658334 
0.86420965782 0.029370285938 0.50227388308 0.8228251325 -0.090316578502 0.56107193565 0.75917749715 -0.21728210975 0.61354544461 
0.67838913329 -0.33804595279 0.65231366507 0.58912747471 -0.44442785629 0.67484272175 0.49846347983 -0.53525514358 0.68193554721 
0.40958876518 -0.61355963551 0.6751160027 0.32300660654 -0.6828166411 0.65530768862 0.23811439296 -0.74488752143 0.623252851 
0.15420409391 -0.79975651285 0.58018153847 0.071384237299 -0.84639625328 0.52774773624 -0.010330331869 -0.88333810145 0.46862253762 
-0.089815787115 -0.90937608164 0.40616285715 -0.16521179743 -0.92430448116 0.34404402059 -0.23404442615 -0.92909470155 0.28636732032 
-0.2933016617 -0.92620846417 0.23687975039 -0.34094453171 -0.91889227385 0.19847875292 -0.37520722707 -0.91062081695 0.17317408726 
-0.39561274325 -0.90412702653 0.16138425351 -0.40291284523 -0.9007676449 0.16210764652 -0.40291284523 -0.9007676449 0.16210764652 

FrenetNormal 3 120 double
-0.59784762222 -0.47962326036 -0.64229257253 -0.59784762222 -0.47962326036 -0.64229257253 -0.4906982686 -0.43088423333 -0.75733347124 
-0.37426976407 -0.38679687921 -0.84279909702 -0.25152401436 -0.34861041722 -0.90288783756 -0.12522715801 -0.31285624687 -0.94150896315 
0.00041338445735 -0.27228007155 -0.96221795439 0.12057147405 -0.21865474005 -0.96832464819 0.23123598194 -0.14596090313 -0.96188634225 
0.32918207555 -0.052951581309 -0.94278061667 0.41170418116 0.054750467315 -0.90967139866 0.47237935257 0.16925111842 -0.86499237348 
0.50636450987 0.28107077881 -0.81522647188 0.50911499147 0.38614619952 -0.76921585921 0.47688064452 0.48581689929 -0.73250719535 
0.41174002614 0.57964264638 -0.7031959566 0.34232957741 0.65385570464 -0.67474675097 0.34672475549 0.67907006982 -0.64702842612 
0.4716227628 0.63367403084 -0.61321219186 0.64317723073 0.53387038903 -0.54891297815 0.78376128948 0.42697977419 -0.45100611253 
0.88291902152 0.33867959515 -0.32519245574 0.94850072483 0.26768818138 -0.16937949271 0.9793509525 0.20143754742 0.01716468271 
0.9670802332 0.12212006125 0.22325436883 0.90462462271 0.0086563926726 0.42612129595 0.78220068343 -0.16340109909 0.60121724165 
0.57238420115 -0.40138732761 0.71502764947 0.26246162942 -0.64449153302 0.71815357476 -0.06245230762 -0.78150507439 0.62076527607 
-0.29480353715 -0.79631431598 0.52818025773 -0.43101267511 -0.74756828236 0.5053412086 -0.50596077349 -0.66332078432 0.55137032273 
-0.54762511723 -0.53991675728 0.63921563356 -0.5754989068 -0.36232102659 0.7331606113 -0.59601641894 -0.11821028048 0.79422336779 
-0.59701616063 0.18038769884 0.78168534722 -0.56111156209 0.47613780966 0.67708684902 -0.49813922118 0.70214353146 0.50877478077 
-0.43311513279 0.84094294259 0.32438595693 -0.37409280587 0.91440421232 0.15465933235 -0.30949401195 0.95077756637 0.015345222893 
-0.22304747195 0.97110160719 -0.084920514381 -0.10547190758 0.9839286831 -0.14408339006 0.04466969557 0.98561715057 -0.16298297701 
0.22538149443 0.96421378806 -0.13962432772 0.43416199204 0.898447834 -0.065535137532 0.6579960406 0.74969650656 0.070684924879 
0.84066046693 0.47982555211 0.25111236306 0.90750323359 0.14135296817 0.39554673479 0.88020728947 -0.15484948666 0.44861649996 
0.82988603604 -0.3672894525 0.41998526791 0.7844207461 -0.52111899203 0.33633181418 0.73920370241 -0.63899694655 0.21274583108 
0.68024168455 -0.7305285292 0.059994321593 0.59725349467 -0.79449065092 -0.10987660669 0.48690762111 -0.82674459914 -0.28180549374 
0.35363946961 -0.82518722646 -0.44046017621 0.20894889547 -0.79114281243 -0.57483337536 0.067551232032 -0.7290939235 -0.68107186241 
-0.05760806337 -0.64521792674 -0.76182356097 -0.15920215868 -0.5455950863 -0.82278835339 -0.23310211251 -0.43437295085 -0.87004801288 
-0.27962273019 -0.31548372498 -0.90679719234 -0.30250328473 -0.19395776294 -0.93320530909 -0.30281095059 -0.074975234854 -0.95009696472 
-0.27508178921 0.037606234268 -0.96068505786 -0.19674928905 0.14559929962 -0.96958267374 0.035052230317 0.27230813737 -0.96157143233 
0.74147758856 0.40357105366 -0.53604234004 0.90959129226 0.21811076206 0.35365431781 0.7854705166 0.16269951566 0.59713058467 
0.70494383269 0.21155676457 0.6769770514 0.63259638714 0.31539071661 0.70735458354 0.54820093938 0.4482493168 0.70607951397 
0.44911404381 0.5855371937 0.67486500165 0.34442887637 0.70595850682 0.6188629378 0.24389502254 0.79707068543 0.55244324632 
0.15132803683 0.8566999773 0.49311760682 0.062449810917 0.88685450391 0.45780903226 -0.031106343444 0.88803872682 0.45871517858 
-0.13280643133 0.85917039432 0.49415451564 -0.22964605472 0.81090911183 0.53822774167 -0.29508704965 0.77998854966 0.55185278429 
-0.29716853916 0.81768462379 0.49303419288 -0.17868755524 0.94290633706 0.28106653505 0.053616976737 0.99485093175 -0.086004903383 
0.22531722099 0.89807392826 -0.37775040611 0.28379930059 0.79905477007 -0.53006549729 0.27806297952 0.74039223786 -0.6119643074 
0.2426024816 0.70778385018 -0.66346518925 0.1973670993 0.68625789352 -0.70006880497 0.15703658245 0.66520461891 -0.72996049671 
0.1463120648 0.6160598905 -0.77399159621 0.25559489581 0.3560488265 -0.89883284452 0.17316845837 -0.94018118236 0.29338034931 
0.032099986128 -0.8623224391 0.50534107483 -0.040058658882 -0.85273929764 0.52079841984 -0.12593128973 -0.85794674492 0.49806494873 
-0.23396884787 -0.860328265 0.4528728902 -0.35710957922 -0.8501863819 0.38685380243 -0.48116140351 -0.82215532467 0.30421098909 
-0.59027779534 -0.77941579447 0.20995986203 -0.67537804697 -0.72932950927 0.10928385322 -0.73188692629 -0.68142608744 0.00012037185921 
-0.762693547 -0.63634481432 -0.11560203564 -0.77130131065 -0.59117477156 -0.23581068181 -0.77010799321 -0.53581815635 -0.34616843028 
-0.76530178917 -0.46808325338 -0.4418271601 -0.75815923424 -0.38985394716 -0.52269348133 -0.76113212482 -0.29699478224 -0.57660383964 
-0.75972602124 -0.20114410856 -0.61835056419 -0.76466729901 -0.1002682888 -0.63657693336 -0.76551320058 -0.0054717294748 -0.64339692252 
-0.76914369735 0.081452057435 -0.63386397213 -0.77976585801 0.15849854451 -0.6056760009 -0.80715542726 0.22910992389 -0.54406686998 
-0.8835848895 0.32675144811 -0.33542694317 -0.14240069343 0.23666120203 0.96110016021 -0.14240069343 0.23666120203 0.96110016021 

FrenetBinormal 3 120 double
0.65484760032 -0.75434526568 -0.046236787219 0.65484760032 -0.75434526568 -0.046236787219 0.67596893349 -0.73668922417 -0.018841123853 
0.69666353638 -0.71712621238 0.019746204775 0.71446613139 -0.69618301628 0.069766431277 0.72625212904 -0.67543567225 0.12784560107 
0.73006630114 -0.657474784 0.18636014686 0.72696468559 -0.64480226083 0.2361194408 0.720788203 -0.63834758102 0.27014205932 
0.71618349893 -0.63669932547 0.28582366034 0.71618701957 -0.63669931488 0.28581486216 0.7236122718 -0.63479533505 0.27096155206 
0.73983966024 -0.62725955955 0.24327499273 0.76678198549 -0.60943968781 0.20156550708 0.80552424503 -0.57504045993 0.14303552047 
0.85124140409 -0.52012694109 0.069685271826 0.88749938032 -0.46079371714 0.0037416811503 0.89012555788 -0.45571354413 -0.0012872105557 
0.83596231787 -0.54258874043 0.082246348627 0.72178196987 -0.66203594181 0.20183953956 0.58356840606 -0.75480123727 0.29953799035 
0.44739601371 -0.81697603727 0.36385019093 0.31442166147 -0.86062349042 0.40058235924 0.17663104776 -0.89386068277 0.4120856134 
0.025179261823 -0.91894103567 0.39359036793 -0.14797477868 -0.93122313616 0.33305695542 -0.35078113272 -0.91301208353 0.20823432054 
-0.5691657769 -0.82220141079 -0.0059294609198 -0.73196847377 -0.61792665099 -0.28703450561 -0.76835261842 -0.35931099687 -0.52965069744 
-0.72646105203 -0.17230797151 -0.665255066 -0.68810095521 -0.089988015235 -0.72001335581 -0.68302489993 -0.082270167507 -0.72574692946 
-0.70699974899 -0.10999793309 -0.69860704952 -0.7439740995 -0.14028799285 -0.6533160172 -0.77892297684 -0.15514479645 -0.60762577981 
-0.8020613858 -0.15414559715 -0.57700664492 -0.81039142055 -0.14940497856 -0.56651910637 -0.80470778326 -0.15580784065 -0.57286062908 
-0.78985576919 -0.18073773449 -0.58605608538 -0.77385972293 -0.2158857768 -0.59542796425 -0.76528224599 -0.23946885062 -0.59749288997 
-0.76823757287 -0.22873797875 -0.59790464851 -0.77772111433 -0.17190999923 -0.60464602909 -0.78083604241 -0.067317004141 -0.62109862005 
-0.7596578988 0.084188819045 -0.64485046293 -0.68856565821 0.28407075154 -0.6672189614 -0.52774646029 0.5260710836 -0.66688296473 
-0.24919234061 0.7544002495 -0.60727542428 0.076374106416 0.87045276997 -0.48629103542 0.33737959852 0.86897918787 -0.36200853243 
0.50266390793 0.81885149054 -0.27714839368 0.60482020415 0.76282249555 -0.22867960323 0.67315149281 0.71090330763 -0.20367512106 
0.72591139906 0.66006818621 -0.19329415476 0.77086524436 0.60644808201 -0.19490381951 0.80984697818 0.54817357398 -0.2089344508 
0.84123510456 0.4864641447 -0.23595790891 0.86205490427 0.42655019903 -0.27370836621 0.87124418128 0.37574752305 -0.31582807902 
0.87145120906 0.33981072899 -0.35369684574 0.86780981676 0.3200216585 -0.38012137539 0.86571735497 0.31483017306 -0.38912134796 
0.86867563491 0.31912617661 -0.37889460898 0.87714843075 0.3264613943 -0.35218402642 0.89071843373 0.33234179574 -0.31011224196 
0.90976511681 0.33330758094 -0.24745401334 0.93587813564 0.32268081353 -0.14145390701 0.95745760471 0.26661848318 0.11040615752 
0.60198194012 -0.047256445935 0.79711013799 -0.25926102489 -0.3672006428 0.89327902074 -0.49346212271 -0.41768675187 0.76291081443 
-0.55378606162 -0.43217610501 0.7117196163 -0.56514022155 -0.43652257796 0.70004611913 -0.55845875244 -0.43226224662 0.70800647735 
-0.54532391638 -0.41868428025 0.72617167371 -0.53179866767 -0.39652526779 0.74830334027 -0.522340036 -0.3719936215 0.76732107514 
-0.51858317662 -0.35589230101 0.77743948897 -0.51939835613 -0.36281515392 0.77368631353 -0.51999460439 -0.4063179301 0.75133970418 
-0.51224136132 -0.48632161439 0.70788422438 -0.49307068946 -0.57372178563 0.65400658093 -0.47750196304 -0.62066011819 0.62191067927 
-0.49507165196 -0.57348014103 0.65270559004 -0.56050842997 -0.33233074523 0.75854240205 -0.58840741395 0.10106417847 0.80222362658 
-0.53815319462 0.43792701795 0.72014655874 -0.49032813353 0.59598771761 0.63590640972 -0.46645129817 0.66100890734 0.58778432341 
-0.45723007497 0.68659498002 0.56526807088 -0.45398510747 0.69690941745 0.55517095211 -0.45171512869 0.70566413784 0.54588603855 
-0.44372238444 0.74015730495 0.50525004649 -0.38247909664 0.89110293184 0.24422388396 0.42019585417 -0.19888259891 -0.88537063199 
0.44915822526 -0.43922625549 -0.77803417995 0.44927308609 -0.48092920467 -0.75290158335 0.44781144701 -0.49716166787 -0.7431656504 
0.44542142466 -0.50889356721 -0.73663226355 0.44207640714 -0.51867719409 -0.73180763769 0.43833004869 -0.52616452455 -0.72870958654 
0.4374474919 -0.52748076091 -0.72828822502 0.44361392247 -0.5201560799 -0.72982486963 0.46462424216 -0.49915971255 -0.7314122606 
0.50053531024 -0.46755732371 -0.72859766143 0.54841683081 -0.42927127099 -0.71761072705 0.59180673759 -0.39754431671 -0.70122984933 
0.62492741092 -0.37588241254 -0.68423544414 0.64815034229 -0.36280474407 -0.66953256192 0.64851458951 -0.36264017682 -0.66926895143 
0.64401047898 -0.36411013408 -0.67281075588 0.62288761732 -0.36824923133 -0.69021990685 0.59934359622 -0.36980142744 -0.70995363084 
0.56779583308 -0.36810792337 -0.73627742644 0.52509240423 -0.36126887556 -0.77056003438 0.45576271567 -0.34391622602 -0.82097623382 
0.2505360262 -0.27529586095 -0.92814001558 -0.90409251831 0.36415535883 -0.22362377552 -0.90409251831 0.36415535883 -0.22362377552 

plain_curvature_peaks 1 120 unsigned_char
0 0 0 0 0 0 0 0 0 
0 0 0 0 0 0 0 0 0 
0 0 0 0 0 0 0 0 0 
0 0 0 0 0 0 1 0 0 
0 0 0 0 0 0 0 0 0 
0 0 0 0 0 0 0 0 0 
0 0 0 1 0 0 0 0 0 
0 0 0 0 0 0 0 0 0 
0 0 0 0 0 0 0 0 0 
0 0 0 0 1 0 0 0 0 
0 0 0 0 0 0 0 0 0 
0 0 0 0 0 0 0 0 0 
0 0 0 0 0 1 0 0 0 
0 0 0 
weighted_curvature_peaks 1 120 unsigned_char
0 0 0 0 0 0 0 0 0 
0 0 0 0 0 0 0 0 0 
0 0 0 0 0 0 0 0 0 
0 0 0 0 0 0 0 0 0 
0 1 0 0 0 0 0 0 0 
0 0 0 0 0 0 0 0 0 
0 0 0 0 0 0 0 0 0 
1 0 0 0 0 0 0 0 0 
0 0 0 0 0 0 0 0 0 
0 0 0 0 0 0 0 0 0 
1 0 0 0 0 0 0 0 0 
0 0 0 0 0 0 0 0 0 
0 0 0 0 0 0 0 0 1 
0 0 0 
plain_torsion_tp 1 120 unsigned_char
0 0 0 0 0 0 0 0 0 
0 0 0 0 0 0 0 0 0 
0 0 0 0 0 0 0 0 0 
0 0 0 0 0 0 1 0 0 
0 0 0 0 0 0 0 0 0 
0 0 0 0 0 0 0 0 0 
0 0 0 1 0 0 0 0 0 
0 0 0 0 0 0 0 0 0 
0 0 0 0 0 0 0 0 0 
0 0 0 0 1 0 0 0 0 
0 0 0 0 0 0 0 0 0 
0 0 0 0 0 0 0 0 0 
0 0 0 0 0 1 0 0 0 
0 0 0 
plain_torsion_tn 1 120 unsigned_char
0 0 0 0 0 0 0 0 0 
0 0 0 2 0 0 0 0 0 
0 0 0 0 0 0 0 0 0 
0 0 0 0 0 0 0 0 0 
0 0 0 0 0 0 0 0 0 
0 0 0 0 0 0 0 2 0 
0 0 0 0 0 0 0 0 0 
0 0 0 0 0 0 0 0 2 
0 0 0 0 0 0 0 0 0 
0 0 0 0 0 0 0 0 0 
0 0 0 2 0 0 0 0 0 
0 0 0 0 0 0 0 0 0 
0 0 0 0 0 0 0 0 0 
0 0 0 
plain_torsion_tz 1 120 unsigned_char
0 0 0 0 0 0 0 0 0 
0 0 0 0 3 0 0 0 0 
0 0 0 0 0 0 0 0 0 
0 0 0 0 0 0 0 0 0 
0 0 0 0 0 0 0 0 0 
0 3 0 0 0 0 0 0 0 
3 0 0 0 0 0 0 0 0 
0 0 0 0 0 0 0 0 0 
0 0 0 3 0 0 0 0 0 
0 0 0 0 0 0 0 3 0 
0 0 0 0 0 0 0 0 0 
3 0 0 0 0 0 0 0 0 
0 0 0 0 0 0 0 0 0 
0 0 0 
weighted_torsion_tp 1 120 unsigned_char
0 0 0 0 0 0 0 0 0 
0 0 0 0 0 0 0 0 0 
0 0 0 0 0 0 0 0 0 
0 0 0 0 0 0 0 0 0 
0 1 0 0 0 0 0 0 0 
0 0 0 0 0 0 0 0 0 
0 0 0 0 0 0 0 0 0 
1 0 0 0 0 0 0 0 0 
0 0 0 0 0 0 0 0 0 
0 0 0 0 0 0 0 0 0 
1 0 0 0 0 0 0 0 0 
0 0 0 0 0 0 0 0 0 
0 0 0 0 0 0 0 0 1 
0 0 0 
weighted_torsion_tn 1 120 unsigned_char
0 0 0 0 0 0 0 0 0 
0 0 0 0 0 2 0 0 0 
0 0 0 0 0 0 0 0 0 
0 0 0 0 0 0 0 0 0 
0 0 0 0 0 0 0 0 0 
0 0 0 0 0 0 0 0 0 
0 0 0 2 0 0 0 0 0 
0 0 0 0 0 0 0 0 0 
0 0 0 0 2 0 0 0 0 
0 0 0 0 0 0 0 0 0 
0 0 0 0 0 0 0 0 2 
0 0 0 0 0 0 0 0 0 
0 0 0 0 0 0 0 0 0 
0 0 0 
weighted_torsion_tz 1 120 unsigned_char
0 0 0 0 0 0 0 0 0 
0 0 0 0 0 0 0 3 0 
0 0 0 0 0 0 0 0 0 
0 0 0 0 0 0 0 0 0 
0 0 0 0 0 0 0 0 0 
0 0 0 0 0 0 3 0 0 
0 0 0 0 0 0 3 0 0 
0 0 0 0 0 0 0 0 0 
0 0 0 0 0 0 0 0 3 
0 0 0 0 0 0 0 0 0 
0 0 0 3 0 0 0 0 0 
0 0 0 0 0 3 0 0 0 
0 0 0 0 0 0 0 0 0 
0 0 0 
plain_torsion_tp_raw 1 120 unsigned_char
0 0 0 0 0 0 0 0 0 
0 0 0 0 0 0 0 0 0 
0 0 0 0 0 0 0 0 0 
0 0 0 0 0 0 0 0 0 
0 0 0 1 0 0 0 0 0 
0 0 0 0 0 0 0 0 1 
0 0 0 0 0 0 0 0 0 
0 0 0 0 0 0 0 0 0 
0 0 1 0 0 0 0 0 0 
0 0 0 0 0 1 0 0 0 
0 0 0 0 0 0 0 0 0 
0 0 0 0 0 0 1 0 0 
0 0 0 0 0 0 0 1 0 
0 0 0 
plain_torsion_tn_raw 1 120 unsigned_char
0 0 0 0 0 0 0 0 0 
0 0 0 0 0 0 0 0 0 
0 0 0 0 0 0 0 0 0 
0 2 0 0 0 0 0 0 0 
0 0 0 0 0 0 0 0 0 
0 0 0 2 0 0 0 0 0 
0 0 0 0 0 0 0 0 0 
0 0 0 2 0 0 0 0 0 
0 0 0 0 0 0 0 2 0 
0 0 0 0 0 0 0 0 0 
0 0 0 0 2 0 0 0 0 
0 0 0 0 0 0 0 0 0 
0 0 2 0 0 0 0 0 0 
0 0 0 
plain_torsion_tz_raw 1 120 unsigned_char
0 0 0 0 0 0 0 0 0 
0 0 0 3 0 0 0 0 0 
0 0 0 0 0 0 0 0 0 
0 0 0 0 0 0 0 3 0 
0 0 0 0 3 0 0 0 0 
0 0 0 0 0 0 3 0 0 
0 0 0 0 0 0 0 0 0 
0 0 0 0 0 0 0 0 0 
0 0 0 0 0 0 0 0 0 
0 0 0 0 0 0 0 0 0 
0 0 0 0 0 0 0 0 0 
0 0 0 0 0 0 0 0 0 
0 0 0 0 0 0 0 0 0 
0 0 0 
weighted_torsion_tp_raw 1 120 unsigned_char
0 0 0 0 0 0 0 0 0 
0 0 0 0 0 0 0 0 0 
0 0 0 0 0 0 0 0 0 
0 0 0 0 0 0 0 0 0 
0 0 0 0 0 0 0 1 0 
0 0 0 0 0 0 0 0 0 
0 0 0 0 1 0 0 0 0 
0 0 0 0 0 0 0 0 0 
0 0 0 0 0 0 0 1 0 
0 0 0 0 0 0 0 0 0 
0 1 0 0 0 0 0 0 0 
0 0 0 0 0 0 0 0 0 
0 0 1 0 0 0 0 0 0 
1 0 0 
weighted_torsion_tn_raw 1 120 unsigned_char
0 0 0 0 0 0 0 0 0 
0 0 0 0 0 0 0 0 0 
0 0 0 0 0 0 0 0 0 
0 0 0 0 2 0 0 0 0 
0 0 0 0 0 0 0 0 0 
0 0 0 0 0 0 0 2 0 
0 0 0 0 0 0 0 0 0 
0 0 0 0 0 0 0 0 2 
0 0 0 0 0 0 0 0 0 
0 0 0 2 0 0 0 0 0 
0 0 0 0 0 0 0 0 0 
2 0 0 0 0 0 0 0 0 
0 0 0 0 0 0 2 0 0 
0 0 0 
weighted_torsion_tz_raw 1 120 unsigned_char
0 0 0 0 0 0 0 0 0 
0 0 0 0 0 3 0 0 0 
0 0 0 0 0 0 0 0 0 
0 0 0 0 0 0 0 0 0 
0 0 3 0 0 0 0 0 3 
0 0 0 0 0 0 0 0 0 
0 0 3 0 0 0 0 0 0 
0 0 0 0 0 0 0 0 0 
0 0 0 0 0 0 0 0 0 
0 0 0 0 0 0 0 0 0 
0 0 0 0 0 0 0 0 0 
0 0 0 0 0 0 0 0 0 
0 0 0 0 0 0 0 0 0 
0 0 0 
