# vtk DataFile Version 5.1
vtk output
ASCII
DATASET POLYDATA
POINTS 120 float
-1.58131 14.2369 -7.02251 -1.8498 13.7307 -6.91301 -2.15872 13.2001 -6.80349 
-2.50398 12.6652 -6.69957 -2.88108 12.146 -6.60718 -3.28432 11.661 -6.53308 
-3.70564 11.2256 -6.48571 -4.13354 10.8497 -6.47577 -4.55295 10.5358 -6.5161 
-4.94653 10.2778 -6.6201 -5.29772 10.0624 -6.79875 -5.59458 9.87151 -7.05677 
-5.83309 9.68669 -7.38975 -6.01804 9.49188 -7.78369 -6.16117 9.27591 -8.21768 
-6.27639 9.03419 -8.66914 -6.37427 8.76978 -9.11972 -6.4574 8.4933 -9.55972 
-6.51866 8.22024 -9.98894 -6.54272 7.96572 -10.4138 -6.51021 7.73809 -10.8417 
-6.40314 7.53409 -11.2755 -6.20981 7.33795 -11.7095 -5.92827 7.12534 -12.1296 
-5.56737 6.87096 -12.5153 -5.14604 6.55745 -12.8442 -4.69123 6.18254 -13.096 
-4.23492 5.76232 -13.256 -3.81088 5.3299 -13.3166 -3.45114 4.92901 -13.2773 
-3.18239 4.60424 -13.144 -3.02262 4.39015 -12.9268 -2.97842 4.30225 -12.6378 
-3.04384 4.33268 -12.289 -3.20132 4.45271 -11.891 -3.42482 4.62107 -11.4518 
-3.68429 4.7954 -10.9778 -3.95034 4.94282 -10.4743 -4.19803 5.04595 -9.94704 
-4.40923 5.10283 -9.40293 -4.57333 5.12182 -8.84988 -4.68691 5.11459 -8.29621 
-4.75224 5.08994 -7.74939 -4.7751 5.05106 -7.21445 -4.76217 4.99654 -6.69287 
-4.71897 4.92396 -6.18227 -4.64907 4.83374 -5.67732 -4.55451 4.73051 -5.17161 
-4.43688 4.62102 -4.66001 -4.29801 4.5098 -4.14112 -4.14007 4.39494 -3.61881 
-3.96538 4.26633 -3.10262 -3.77689 4.10745 -2.60629 -3.57971 3.89985 -2.14488 
-3.38345 3.62849 -1.73116 -3.20333 3.28598 -1.37262 -3.05891 2.87429 -1.06993 
-2.97017 2.40346 -0.817396 -2.95226 1.88904 -0.604768 -3.01095 1.34753 -0.419644 
-3.1406 0.793081 -0.249565 -3.32514 0.235273 -0.0833069 -3.54194 -0.321703 0.0886411 
-3.76674 -0.877473 0.274085 -3.97811 -1.43383 0.479402 -4.16002 -1.99228 0.709429 
-4.30186 -2.55203 0.967065 -4.39661 -3.10897 1.25258 -4.43814 -3.65568 1.56291 
-4.41907 -4.1816 1.89141 -4.33037 -4.67499 2.22843 -4.16285 -5.12422 2.56272 
-3.90991 -5.51968 2.88346 -3.57021 -5.85572 3.1825 -3.14924 -6.13103 3.45609 
-2.65901 -6.34946 3.70512 -2.11615 -6.51837 3.93533 -1.53921 -6.64739 4.15535 
-0.945946 -6.74607 4.37506 -0.351307 -6.82246 4.60407 0.233537 -6.8815 4.85029 
0.801388 -6.92453 5.11898 1.3486 -6.94971 5.41261 1.87459 -6.95282 5.73012 
2.38143 -6.92878 6.06721 2.87353 -6.873 6.41619 3.35732 -6.78299 6.76702 
3.84067 -6.65857 7.10868 4.33166 -6.50266 7.43121 4.8372 -6.32095 7.72816 
5.36148 -6.12146 7.99855 5.90468 -5.9147 8.24739 6.46246 -5.71259 8.48484 
7.02627 -5.52954 8.72409 7.58452 -5.38115 8.97791 8.12447 -5.28416 9.25572 
8.63441 -5.25443 9.56129 9.10594 -5.30542 9.89157 9.53548 -5.44555 10.2383 
9.92468 -5.67595 10.5908 10.2798 -5.98961 10.939 10.6096 -6.37135 11.2775 
10.9221 -6.80046 11.6069 11.2215 -7.25354 11.9333 11.5057 -7.70938 12.2661 
11.7653 -8.15273 12.6133 11.985 -8.57657 12.9792 12.1465 -8.98241 13.3611 
12.2335 -9.37884 13.75 12.2357 -9.77807 14.1326 12.1517 -10.1926 14.495 
11.9899 -10.6324 14.8256 11.7669 -11.1031 15.1178 11.5045 -11.6061 15.3705 
11.2269 -12.1387 15.5877 10.9583 -12.6952 15.7774 10.7216 -13.2684 15.9497 
10.5387 -13.8499 16.1162 10.4305 -14.4311 16.2888 10.418 -15.0033 16.4796 

LINES 2 120
OFFSETS vtktypeint64
0 120 
CONNECTIVITY vtktypeint64
0 1 2 3 4 5 6 7 8 
9 10 11 12 13 14 15 16 17 
18 19 20 21 22 23 24 25 26 
27 28 29 30 31 32 33 34 35 
36 37 38 39 40 41 42 43 44 
45 46 47 48 49 50 51 52 53 
54 55 56 57 58 59 60 61 62 
63 64 65 66 67 68 69 70 71 
72 73 74 75 76 77 78 79 80 
81 82 83 84 85 86 87 88 89 
90 91 92 93 94 95 96 97 98 
99 100 101 102 103 104 105 106 107 
108 109 110 111 112 113 114 115 116 
117 118 119 
CELL_DATA 1
FIELD FieldData 2
Length 1 1 double
68.148084887 
Tortuosity 1 1 double
0.73022583616 
POINT_DATA 120
FIELD FieldData 19
Curvature 1 120 double
0 0.06754570087 0.075219867892 0.088951688776 0.10906829865 0.13608281542 0.1721766206 0.22444390632 0.30638617543 
0.41934659821 0.50830833659 0.48604848408 0.36173784817 0.22717709884 0.1395765129 0.099656001195 0.075703306669 0.07543686558 
0.15125157835 0.25800327714 0.33008104238 0.33304655412 0.29956552235 0.27616496936 0.26654932727 0.25811660678 0.25100954764 
0.25880890211 0.31186343586 0.4876219469 0.99263986899 1.868219341 1.6053350983 0.67337813285 0.21957362833 0.061172427183 
0.10458035964 0.15373574667 0.17653907625 0.17888760828 0.17101158136 0.16020088732 0.14905078555 0.14014343605 0.1336372012 
0.12141792749 0.099417204742 0.077379996586 0.064138598246 0.057225581185 0.071722915248 0.12369105018 0.19837460884 0.27443079494 
0.32776586069 0.34461738374 0.33246866698 0.30362892574 0.26295952241 0.20898607707 0.14535523273 0.081022805893 0.037669191317 
0.060524178777 0.097029392397 0.12216630303 0.13712559614 0.14962716719 0.1690584922 0.20244398994 0.25128410665 0.30498738052 
0.3377232613 0.32562949596 0.27006031838 0.19756208921 0.13076174226 0.08205592572 0.05878427348 0.06345894688 0.07853683778 
0.092205068265 0.10002342198 0.10223636192 0.099795074432 0.096347188173 0.097492704719 0.10214199755 0.10378042391 0.094134794407 
0.071173751152 0.0441609748 0.04913280787 0.092072796875 0.148242557 0.20900330989 0.26647375196 0.30468888403 0.30532184704 
0.26512250658 0.19846018835 0.12737762309 0.06561577402 0.041360729845 0.0737414001 0.11937786683 0.17000049926 0.22566230431 
0.27371291432 0.29329109319 0.27118844923 0.21980975943 0.16167299529 0.11444747999 0.08915406861 0.095940814114 0.13162011218 
0.18896478859 0.26254439439 0 
Torsion 1 120 double
0 0 0.01015863104 0.04592775243 0.11189032884 0.21677031837 0.36280908338 0.51359271881 0.57251416218 
0.50836545595 0.42136484738 0.39553865763 0.46548143969 0.66678394259 0.88424641032 0.55221504165 -0.56180880776 -1.5487210794 
-0.33381259182 0.10832066569 0.32048472468 0.51449285551 0.6437306264 0.56330569587 0.36456206736 0.19290954425 0.060461613136 
-0.058700485268 -0.16259502258 -0.18951670036 -0.097781534352 -0.0095150992457 0.053075488338 0.23465825658 0.85711823005 4.3921000941 
0.85984709837 0.36278906196 0.31034161923 0.31106022971 0.26450499136 0.1262713881 -0.070017508575 -0.20333074285 -0.1512244244 
0.053499733492 0.3283701477 0.48449624921 0.11749015869 -0.74970651708 -0.95820840215 -0.46685161073 -0.27992935486 -0.25722664049 
-0.29991262149 -0.36331872761 -0.40289178966 -0.3883183556 -0.33482253491 -0.29532217409 -0.33349131357 -0.69440668388 -2.5353038471 
-0.77533791472 -0.19830213453 -0.066428422923 -0.042681864291 -0.068318831668 -0.10878533834 -0.12572316427 -0.10819450721 -0.076379519206 
-0.041007976733 -0.0079292582762 0.035297282606 0.11406696076 0.26824045784 0.61446946963 0.96372709378 0.5518284221 0.13954387721 
-0.083217470676 -0.22782874577 -0.35213111636 -0.48153636087 -0.59560758841 -0.60931690319 -0.51327813036 -0.40206697288 -0.37761233535 
-0.55530300439 -1.462291102 -1.2972922199 -0.337485727 -0.060446773073 0.058824800406 0.12064045301 0.14944325125 0.1636718916 
0.15780005475 0.12023852023 -0.0096635593934 -0.6406409603 -1.6846752819 -0.14381533056 0.27633669661 0.40217335938 0.40877978521 
0.37019737743 0.33583806283 0.32996990798 0.36553577464 0.47278301932 0.70145966651 0.98335347643 0.83531960414 0.48556848041 
0.27135268096 0 0 
FrenetTangent 3 120 double
-0.47846201938 -0.8591488867 0.1814863259 -0.47846201938 -0.8591488867 0.1814863259 -0.51575984896 -0.84004466684 0.16827577342 
-0.55875861902 -0.81530969453 0.15185159751 -0.60841313205 -0.78293210387 0.12981055996 -0.66404736554 -0.74126317571 0.097826380155 
-0.72219219291 -0.68997300924 0.048740978945 -0.77520862959 -0.63109314291 -0.027803337691 -0.80942608115 -0.56936659993 -0.14370488521 
-0.80370282308 -0.51090606614 -0.30501928424 -0.7357881398 -0.46131831946 -0.4957834421 -0.60734671914 -0.42616487246 -0.67045765283 
-0.45880834611 -0.41131869093 -0.78759877858 -0.33452369033 -0.41885243776 -0.84418986963 -0.25090030509 -0.44450063316 -0.85992338265 
-0.20179582887 -0.47926029611 -0.85415924278 -0.1711553197 -0.5114410473 -0.84210089162 -0.1390388566 -0.52919437785 -0.83703136548 
-0.08468775612 -0.52365218361 -0.84771243625 0.0086243743539 -0.4921485913 -0.8704684855 0.14334260861 -0.4432528821 -0.88486144626 
0.29988750968 -0.39945427954 -0.86631620099 0.44827670555 -0.38585677768 -0.80632657303 0.56781017003 -0.41274021378 -0.71220581768 
0.65071851778 -0.47241747571 -0.59446374091 0.69729077373 -0.5478963691 -0.46216354853 0.71321775716 -0.62241833075 -0.32235981824 
0.70696911049 -0.68471373709 -0.17709256071 0.68500642466 -0.72829958834 -0.018598596591 0.64435985529 -0.7439847008 0.17688171718 
0.55468164674 -0.69749327469 0.45368645839 0.32697328375 -0.48412018824 0.81161327925 -0.033127679446 -0.089700100908 0.99541772576 
-0.28081705189 0.18955605311 0.94085614527 -0.39523126898 0.29918199854 0.86849431534 -0.44374337713 0.3148592123 0.83902055498 
-0.45477692154 0.27844218501 0.84595975155 -0.43588858434 0.21258629464 0.87453313795 -0.39007601122 0.13600878203 0.91068233577 
-0.32296199131 0.065288744792 0.94415726019 -0.24334700059 0.010312514112 0.96988447217 -0.16039980993 -0.028586544946 0.98663808482 
-0.081115821269 -0.058432408398 0.9949903905 -0.0093633446349 -0.08805715833 0.99607141543 0.053885310576 -0.1220414494 0.99106117769 
0.1093019385 -0.15733550929 0.98147777548 0.15782018669 -0.18564106466 0.9698609095 0.20004252041 -0.20053745152 0.95904521299 
0.23649283021 -0.2034896797 0.95008583376 0.26835845488 -0.20441065904 0.94138197463 0.29770007364 -0.21790084265 0.92945892267 
0.32617948424 -0.25819469766 0.90936375679 0.3520259021 -0.33450696368 0.874175529 0.36687263341 -0.44662049743 0.81604816165 
0.35645907294 -0.58138168203 0.73139064057 0.30784607844 -0.71541413022 0.62722676464 0.21823086394 -0.82602024313 0.51967860064 
0.097427702405 -0.89998175856 0.42490078496 -0.036115339741 -0.93520063597 0.3522718449 -0.16133920327 -0.93882196261 0.3042745208 
-0.26101696926 -0.92401178788 0.27941431177 -0.32572456311 -0.90474426901 0.27448372754 -0.3534558864 -0.8906405767 0.2860564621 
-0.34702577921 -0.88482605662 0.31089541341 -0.31218624538 -0.88493805424 0.34557833895 -0.25650299978 -0.88595539724 0.38637966458 
-0.18716115454 -0.88337792264 0.42966748541 -0.10802680432 -0.87479918368 0.47228868056 -0.017984337724 -0.85902841773 0.5116119048 
0.088186545028 -0.83406390653 0.54457371686 0.21617013123 -0.79528373578 0.56638701783 0.36605293862 -0.73538999693 0.57026905802 
0.52579171171 -0.64898786418 0.54987073759 0.67227507784 -0.54030268475 0.50608223499 0.78505237818 -0.42538924757 0.45026298046 
0.85882944588 -0.32200413331 0.39840346512 0.90077567453 -0.23965368146 0.36217302099 0.92093686668 -0.17920101244 0.346066879 
0.92671625873 -0.13658154262 0.35006064906 0.92232719207 -0.10590020852 0.37161498437 0.91007716453 -0.080583287936 0.40652907437 
0.89155892142 -0.054537277485 0.44960913581 0.86875550719 -0.022904700693 0.49471127277 0.84452019002 0.017113872935 0.53525018823 
0.82252485626 0.065724679668 0.56491869088 0.80673025064 0.12051494055 0.57850017443 0.80016967052 0.17741404262 0.57293346548 
0.80387181204 0.23128570933 0.54799364091 0.81617000894 0.27651154026 0.50735380614 0.8331851796 0.30840838402 0.45900623652 
0.85081535736 0.32379413962 0.41384850226 0.86613130008 0.32165692031 0.38256162464 0.8775414047 0.30135569365 0.3729689383 
0.88376136025 0.26104929108 0.38835438166 0.88241215176 0.19716239546 0.42717184393 0.86929541828 0.10492495038 0.48302818814 
0.83912697877 -0.018177264571 0.54363176926 0.78821960313 -0.16718322033 0.59224963324 0.71903438912 -0.3254019352 0.61408723144 
0.64279650043 -0.46983118282 0.6050382787 0.57388301615 -0.58270325069 0.57542610769 0.52159201904 -0.65854814814 0.54245377892 
0.48637841918 -0.70121671614 0.52127838087 0.46121238769 -0.71827417458 0.520927388 0.43450613899 -0.71837837833 0.54326505569 
0.39260046191 -0.71035467163 0.58417558816 0.32299678276 -0.70299732328 0.63361490023 0.2180170064 -0.70374692715 0.67617220251 
0.080166708766 -0.7156095016 0.69388496167 -0.07397193217 -0.7355953548 0.67337034925 -0.218030064 -0.75795452444 0.61479088321 
-0.32934891853 -0.77933241129 0.53307624463 -0.39890318568 -0.80021710766 0.44780445404 -0.42890582611 -0.82260791154 0.37330418722 
-0.42521504667 -0.84784935623 0.31677063187 -0.39189646132 -0.87612697363 0.2807466646 -0.32927549388 -0.90603161762 0.26586529863 
-0.23368500475 -0.93342546141 0.27222826186 -0.099309429583 -0.94907560833 0.29898683394 -0.099309429583 -0.94907560833 0.29898683394 

FrenetNormal 3 120 double
-0.85944488581 0.41579682274 -0.29743485076 -0.85944488581 0.41579682274 -0.29743485076 -0.83783740885 0.45353494826 -0.30386596887 
-0.80756106634 0.49321627416 -0.32339268858 -0.76238549985 0.53115884797 -0.36964662564 -0.69109040735 0.55856633603 -0.45869128739 
-0.5742396273 0.55878691717 -0.59833605243 -0.38633964511 0.50846664916 -0.76954749386 -0.12265837143 0.40325315617 -0.90683064348 
0.17631556648 0.28511114236 -0.94213823695 0.46174577274 0.19378379905 -0.86558574421 0.69700276806 0.11911424107 -0.70710603087 
0.85997283786 0.017376396155 -0.5100438991 0.94217683837 -0.16758164958 -0.29020543752 0.8865030378 -0.46230376854 -0.019687294426 
0.67215154988 -0.70208484054 0.23513649373 0.65476082409 -0.69771066651 0.29066834895 0.98036725379 -0.19289256255 -0.040896295883 
0.93287766421 0.25725556154 -0.25210878539 0.9153514476 0.35433035439 -0.19126350235 0.9430795363 0.33228586922 -0.013678060454 
0.950340715 0.20427988187 0.23478129245 0.86577558889 -0.037053465294 0.49905878451 0.65569681 -0.29628434289 0.6944618647 
0.40163398037 -0.45026590642 0.79746520886 0.18245925584 -0.48785681137 0.8536418169 0.016965786774 -0.44443106151 0.89565238438 
-0.095722927421 -0.34073129146 0.93527499068 -0.16841801898 -0.18314050127 0.96855300716 -0.23889662625 0.023888568723 0.97075112065 
-0.36864496176 0.28281360216 0.88550401388 -0.56498114381 0.58830206712 0.5785300208 -0.65854985739 0.75114385027 0.045771186721 
-0.63965735812 0.6938774829 -0.33071513864 -0.70785301651 0.50337955585 -0.49553317726 -0.83286750181 -0.49048815425 -0.25642366303 
0.077646589864 -0.93385746451 0.34911494249 0.37095665235 -0.84288617536 0.3897871951 0.56464405311 -0.74591328326 0.3532569421 
0.73042544635 -0.61717495203 0.29252990602 0.85545084727 -0.46900957408 0.21962210119 0.92329613662 -0.35776808981 0.13973631605 
0.93798649567 -0.34205633689 0.056380815231 0.9049327617 -0.42456347943 -0.029026690017 0.84587427958 -0.52186264691 -0.11025461852 
0.8211554124 -0.54212020074 -0.17835211417 0.87253853036 -0.43365463204 -0.22498927341 0.95441362592 -0.18143500062 -0.23701470672 
0.97159570275 0.040932497962 -0.23308007423 0.95059602607 -0.10210888624 -0.29315690436 0.71735095847 -0.59134665417 -0.36839752576 
0.40921239751 -0.82860520949 -0.38204531213 0.21190438674 -0.88122562083 -0.42253749664 0.038447863192 -0.86918623312 -0.49298788419 
-0.15812108812 -0.80905953901 -0.56605687331 -0.38407563618 -0.69658416772 -0.60601683391 -0.61130674103 -0.53079983342 -0.58698859035 
-0.79517049338 -0.32713475676 -0.51057490869 -0.90640127076 -0.11780087845 -0.40565957329 -0.95373092156 0.069061741487 -0.29262229088 
-0.96159191566 0.22341308262 -0.15946028426 -0.92915644445 0.36000858674 0.084036416007 -0.40922627068 0.42219932887 0.80887674345 
0.59130596763 0.050883210582 0.80484045097 0.77512565232 -0.026943516118 0.63123234238 0.83170340205 0.0013440200113 0.55521855573 
0.86175737669 0.062307887187 0.50347984161 0.8885851702 0.1280727621 0.44046993417 0.91709884394 0.18964452939 0.35066317587 
0.94035960696 0.2500321583 0.23066800692 0.94143038978 0.32354982227 0.094996493152 0.90755564439 0.41761868786 -0.044015723192 
0.83276149319 0.52448453081 -0.17726892675 0.72215156361 0.62907127905 -0.28769157973 0.59656256948 0.71490929723 -0.36471605041 
0.47516704371 0.791329486 -0.38472577917 0.36349422034 0.87240110516 -0.32678473572 0.22905041871 0.96733402677 -0.10863142427 
-6.6499402582e-05 0.93154276842 0.3636317728 -0.21828889816 0.65075914237 0.72722932804 -0.31943193814 0.48857903962 0.81194443094 
-0.37058806347 0.4828374995 0.7934308012 -0.39378730362 0.57382532271 0.71809195687 -0.38562371298 0.71296339503 0.58564285134 
-0.32629998465 0.8680892805 0.37409801003 -0.20102100581 0.97656487976 0.076886870456 -0.023852568507 0.9639067302 -0.26516951267 
0.14073607258 0.82118305132 -0.55303865515 0.2490518108 0.62395977751 -0.74070735894 0.31471034681 0.41806621758 -0.85216080368 
0.38586958864 0.14960188817 -0.91034275722 0.48852428227 -0.38302593686 -0.78398670737 0.29093377136 -0.95292162658 0.085427830854 
0.047885186809 -0.87602277514 0.47988655567 -0.07229792256 -0.84034439181 0.53720974819 -0.16869051192 -0.85556665686 0.48943764349 
-0.26196615911 -0.88940016599 0.37462124368 -0.35503615534 -0.90961768722 0.21574288284 -0.43581679798 -0.89940397443 0.033707705086 
-0.48883789845 -0.85968895519 -0.14823093254 -0.51889657939 -0.80233211649 -0.29497375265 -0.54277925599 -0.74666350546 -0.38455726347 
-0.67181400278 -0.68158230459 -0.29001984026 -0.86797960779 -0.24341492327 0.43285167851 -0.67421925579 0.14050759436 0.72504207536 
-0.73470363429 0.13984687555 0.66381731008 -0.86524264853 0.051902726746 0.4986594691 -0.96373810525 -0.046006060361 0.26285415519 
-0.99384967993 -0.11073585523 0.0006197391514 -0.95687162623 -0.13786145134 -0.25571646633 -0.86103632767 -0.14715899803 -0.48678606362 
-0.71259354736 -0.16524446712 -0.68183920564 -0.49866695601 -0.22051871735 -0.83827367982 -0.16889727427 -0.33293337615 -0.92770096356 
0.33316065739 -0.47203443324 -0.81620308147 0.77333528441 -0.47900774034 -0.41533615611 0.93376345646 -0.35426498344 -0.050814652366 
0.96911772573 -0.20092448538 0.14296917446 0.97357837412 -0.030583486596 0.22629582364 0.97357837412 -0.030583486596 0.22629582364 

FrenetBinormal 3 120 double
0.18007938322 -0.29828877397 -0.93733410429 0.18007938322 -0.29828877397 -0.93733410429 0.17894204239 -0.29770960418 -0.9377359634 
0.18876951499 -0.30332789008 -0.93400121055 0.22045818281 -0.32386354989 -0.92006010167 0.28536843763 -0.3721996139 -0.88319437397 
0.38559990526 -0.46010262738 -0.79976139275 0.49979321647 -0.5858183265 -0.63798403515 0.57426852871 -0.71638576684 -0.3962412018 
0.56830853697 -0.81097880866 -0.13906393754 0.49538535978 -0.86581363316 0.070427962868 0.38120480595 -0.89676936782 0.22469445224 
0.22347621728 -0.9113259545 0.34575046633 -0.019917475954 -0.89245673627 0.4506930974 -0.38879480562 -0.76726423917 0.51004331817 
-0.71238384137 -0.52667489523 0.46381334316 -0.73620249917 -0.50162523957 0.45428845379 -0.13981503517 -0.82628431533 0.54562440028 
0.35009605479 -0.81216252478 0.46671702965 0.4025634702 -0.79513506025 0.4535448031 0.30008979453 -0.83253407355 0.46565344581 
0.083186579174 -0.89370353497 0.44087865068 -0.22244240815 -0.9218142914 0.31745517357 -0.49764777119 -0.86131359219 0.10239917842 
-0.64440325607 -0.75768221713 -0.10325745206 -0.69317688711 -0.67956258014 -0.24020928969 -0.70073717823 -0.64426427272 -0.30641630822 
-0.70073661099 -0.64425870988 -0.3064293014 -0.7088029127 -0.66033269373 -0.24811119388 -0.72644943311 -0.6677694971 -0.16234260032 
-0.74594179594 -0.65842205173 -0.10025586701 -0.75755183245 -0.64771005949 -0.081159718971 -0.75180758322 -0.65401590814 -0.08395564135 
-0.71552795024 -0.6946960065 -0.073601704968 -0.58543688903 -0.8106165274 0.012825539512 0.33079229084 -0.81257925581 0.47988687558 
0.88721415606 0.22445530868 0.40307673672 0.81999530738 0.49431767389 0.28854416154 0.72733609752 0.65200842407 0.21416632831 
0.60180912214 0.78411252916 0.15163549094 0.45714995922 0.88313287306 0.10531022417 0.34899304446 0.93337281049 0.083779780114 
0.3370483014 0.93786092575 0.082554990674 0.42545155374 0.90110586992 0.083661141653 0.53065344289 0.84425426406 0.075110992283 
0.56014004938 0.8254400193 0.069942116171 0.46235192409 0.88174886177 0.09353952675 0.22153469407 0.96273883847 0.15510096142 
0.0085400031965 0.97822107975 0.20738994064 0.15604786098 0.97354509799 0.16691017723 0.6299065554 0.77642021958 -0.019732564172 
0.85214562006 0.49673826599 -0.16461754862 0.9116876083 0.33398577281 -0.23933075113 0.92947632174 0.21223907139 -0.30170903849 
0.92083367163 0.086127824369 -0.3803253174 0.87046923994 -0.054342612871 -0.48921384153 0.76070977277 -0.18958400455 -0.62078864908 
0.59850791913 -0.28812442655 -0.74751092672 0.42087102371 -0.33395018118 -0.84341262612 0.25370650513 -0.3374074664 -0.90652590193 
0.084918369632 -0.31030438344 -0.94683687091 -0.17484796461 -0.22766559945 -0.95791260776 -0.84119129558 0.16884042715 -0.51370235974 
-0.72796315924 0.4631346979 0.5055451418 -0.54929042529 0.46492869033 0.69434958169 -0.4924181781 0.46376850659 0.73650737278 
-0.47153464979 0.46450099352 0.74959582514 -0.44581005468 0.46725127699 0.76349829031 -0.39825403204 0.47550513142 0.78440333755 
-0.32855280074 0.49175331177 0.80636947951 -0.25880358492 0.51267854657 0.8186460849 -0.20578629319 0.53366298725 0.82027789046 
-0.17335331366 0.55111770892 0.81622172206 -0.16292126596 0.55887595647 0.81308937171 -0.16675090467 0.5549312433 0.81501254653 
-0.19138511819 0.51972202446 0.83262281606 -0.23764497881 0.42600754064 0.87295042205 -0.31529540638 0.17930944703 0.93189963457 
-0.37576185461 -0.33700675487 0.8632667466 -0.318845586 -0.7518628096 0.57709601266 -0.2640507366 -0.8687904556 0.41890375118 
-0.26035970666 -0.87401008829 0.41026721623 -0.30032553709 -0.81865736038 0.48949432895 -0.37159117405 -0.70099237706 0.60871149708 
-0.46581238804 -0.49203787209 0.73547097263 -0.55567693666 -0.1783176512 0.81205046477 -0.59929921855 0.19851466685 0.77552071132 
-0.57791302779 0.52169465867 0.62757566511 -0.5213825007 0.73090051591 0.44039155738 -0.45470853754 0.85446176414 0.25126726708 
-0.35667616718 0.93422514963 0.002341272487 -0.10564372517 0.86592606919 -0.48888796878 0.38115433057 0.033542801132 -0.92390273123 
0.46548132832 -0.40550877309 -0.78669547344 0.4648890242 -0.50492404674 -0.72727567139 0.46461703255 -0.50694817335 -0.72604033125 
0.47669659636 -0.45676791895 -0.75108150239 0.50265215173 -0.38032280228 -0.77633458021 0.54134394414 -0.29186653002 -0.78851801679 
0.58978824003 -0.20048331595 -0.78227633989 0.6335650114 -0.12930621211 -0.76280749854 0.65827991382 -0.093850659039 -0.74689999923 
0.55866088017 -0.20914272418 -0.80259413273 -0.18410468192 -0.65179090608 -0.7357133143 -0.5971874164 -0.68131499431 -0.42329312329 
-0.5532408581 -0.68981091025 -0.46699621094 -0.38344261303 -0.70929603863 -0.59149885215 -0.15387478484 -0.7089595933 -0.68825783371 
0.076394453437 -0.68966702951 -0.72008560317 0.28093565842 -0.66324482224 -0.69367244547 0.45943370972 -0.63549128097 -0.6205412945 
0.61946729222 -0.60442969716 -0.50092416099 0.76955020332 -0.55769532534 -0.31107621037 0.88741957555 -0.46094640786 0.003860830688 
0.84154390286 -0.24152631943 0.48318619245 0.49836703491 0.054342531881 0.86526134072 0.1402264473 0.23152328044 0.96266999231 
-0.078753744217 0.29723098622 0.95155219962 -0.20562778665 0.31356042483 0.92703671628 -0.20562778665 0.31356042483 0.92703671628 

plain_curvature_peaks 1 120 unsigned_char
0 0 0 0 0 0 0 0 0 
0 0 0 0 0 0 0 0 0 
0 0 0 1 0 0 0 0 0 
0 0 0 0 0 0 0 0 0 
0 0 0 0 0 0 0 0 0 
0 0 0 0 0 0 0 0 0 
0 1 0 0 0 0 0 0 0 
0 0 0 0 0 0 0 0 0 
0 0 0 0 0 0 0 0 0 
0 0 0 1 0 0 0 0 0 
0 0 0 0 0 0 0 0 0 
0 0 0 0 0 0 0 1 0 
0 0 0 0 0 0 0 0 0 
0 0 0 
weighted_curvature_peaks 1 120 unsigned_char
0 0 0 0 0 0 0 0 0 
0 0 0 0 0 0 0 0 0 
0 0 0 0 0 0 0 1 0 
0 0 0 0 0 0 0 0 0 
0 0 0 0 0 0 0 0 0 
0 0 0 0 0 0 0 0 0 
0 0 0 0 0 0 1 0 0 
0 0 0 0 0 0 0 0 0 
0 0 0 0 0 0 0 0 0 
0 0 0 0 0 0 0 0 1 
0 0 0 0 0 0 0 0 0 
0 0 0 0 0 0 0 0 0 
0 0 1 0 0 0 0 0 0 
0 0 0 
plain_torsion_tp 1 120 unsigned_char
0 0 0 0 0 0 0 0 0 
0 0 0 0 0 0 0 0 0 
0 0 0 1 0 0 0 0 0 
0 0 0 0 0 0 0 0 0 
0 0 0 0 0 0 0 0 0 
0 0 0 0 0 0 0 0 0 
0 1 0 0 0 0 0 0 0 
0 0 0 0 0 0 0 0 0 
0 0 0 0 0 0 0 0 0 
0 0 0 1 0 0 0 0 0 
0 0 0 0 0 0 0 0 0 
0 0 0 0 0 0 0 1 0 
0 0 0 0 0 0 0 0 0 
0 0 0 
plain_torsion_tn 1 120 unsigned_char
0 0 0 2 0 0 0 0 0 
0 0 0 0 0 0 0 0 0 
0 0 0 0 0 0 0 0 0 
0 0 0 0 0 0 0 0 0 
0 0 0 0 0 0 0 0 0 
0 2 0 0 0 0 0 0 0 
0 0 0 0 0 0 0 0 0 
0 0 2 0 0 0 0 0 0 
0 0 0 0 0 0 0 0 0 
0 0 0 0 0 0 0 0 0 
0 0 0 0 0 0 2 0 0 
0 0 0 0 0 0 0 0 0 
0 0 0 0 0 0 0 0 0 
0 0 0 
plain_torsion_tz 1 120 unsigned_char
0 0 0 0 0 3 0 0 0 
0 0 0 0 0 0 0 0 0 
0 0 0 0 0 0 0 0 0 
0 0 0 0 0 0 0 0 0 
3 0 0 0 0 0 0 0 0 
0 0 0 0 0 3 0 0 0 
0 0 0 0 0 0 0 0 0 
0 0 0 0 0 0 0 3 0 
0 0 0 0 0 0 0 0 0 
0 0 0 0 0 0 0 0 0 
0 0 3 0 0 0 0 0 0 
0 3 0 0 0 0 0 0 0 
0 0 0 0 0 0 0 0 0 
0 0 0 
weighted_torsion_tp 1 120 unsigned_char
0 0 0 0 0 0 0 0 0 
0 0 0 0 0 0 0 0 0 
0 0 0 0 0 0 0 1 0 
0 0 0 0 0 0 0 0 0 
0 0 0 0 0 0 0 0 0 
0 0 0 0 0 0 0 0 0 
0 0 0 0 0 0 1 0 0 
0 0 0 0 0 0 0 0 0 
0 0 0 0 0 0 0 0 0 
0 0 0 0 0 0 0 0 1 
0 0 0 0 0 0 0 0 0 
0 0 0 0 0 0 0 0 0 
0 0 1 0 0 0 0 0 0 
0 0 0 
weighted_torsion_tn 1 120 unsigned_char
0 0 0 0 0 2 0 0 0 
0 0 0 0 0 0 0 0 0 
0 0 0 0 0 0 0 0 0 
0 0 0 0 0 0 0 0 0 
0 0 0 0 0 0 0 0 0 
0 0 0 0 0 2 0 0 0 
0 0 0 0 0 0 0 0 0 
0 0 0 0 0 0 2 0 0 
0 0 0 0 0 0 0 0 0 
0 0 0 0 0 0 0 0 0 
0 0 0 0 0 0 0 0 0 
0 0 2 0 0 0 0 0 0 
0 0 0 0 0 0 0 0 0 
0 0 0 
weighted_torsion_tz 1 120 unsigned_char
0 0 0 0 0 0 3 0 0 
0 0 0 0 0 0 0 0 0 
0 0 0 0 0 0 0 0 0 
0 0 0 0 0 0 0 0 0 
0 0 0 0 3 0 0 0 0 
0 0 0 0 0 0 0 0 0 
3 0 0 0 0 0 0 0 0 
0 0 0 0 0 0 0 0 0 
0 0 0 3 0 0 0 0 0 
0 0 0 0 0 0 0 0 0 
0 0 0 0 0 0 0 3 0 
0 0 0 0 0 3 0 0 0 
0 0 0 0 0 0 0 0 0 
0 0 0 
plain_torsion_tp_raw 1 120 unsigned_char
0 0 0 0 0 0 0 0 0 
0 0 0 0 0 0 0 0 0 
0 0 0 0 0 0 0 0 0 
0 0 0 0 1 0 0 0 0 
0 0 0 0 0 0 0 0 0 
0 0 0 1 0 0 0 0 0 
0 0 0 0 0 0 0 0 0 
0 0 0 0 0 1 0 0 0 
0 0 0 0 0 0 0 0 0 
0 0 0 0 0 0 1 0 0 
0 0 0 0 0 0 0 0 0 
0 0 0 1 0 0 0 0 1 
0 0 0 0 0 0 0 0 0 
0 0 0 
plain_torsion_tn_raw 1 120 unsigned_char
0 0 0 0 0 0 0 0 0 
0 0 0 0 0 0 0 2 0 
0 0 0 0 0 0 0 0 0 
0 0 0 0 0 0 0 0 0 
0 0 0 2 0 0 0 0 0 
0 0 0 0 0 0 0 0 0 
0 0 0 0 0 2 0 0 0 
0 0 0 0 0 0 0 0 0 
0 0 2 0 0 0 0 0 0 
0 0 0 0 0 0 0 0 0 
0 0 0 0 0 0 0 2 0 
0 0 0 0 0 2 0 0 0 
0 0 0 0 0 0 0 0 0 
0 0 0 
plain_torsion_tz_raw 1 120 unsigned_char
0 0 0 3 0 0 0 0 0 
0 0 0 0 0 0 0 0 0 
0 0 0 0 0 3 0 0 0 
0 0 0 0 0 3 0 0 0 
0 0 0 0 0 0 0 0 0 
3 0 0 0 0 0 0 0 0 
0 0 0 0 0 0 0 0 0 
0 0 0 0 0 0 0 0 0 
0 0 0 0 0 0 0 0 0 
0 0 0 0 0 0 0 0 0 
0 0 0 0 0 0 0 0 0 
0 0 0 0 0 0 0 0 0 
0 0 0 0 0 0 0 0 0 
0 0 0 
weighted_torsion_tp_raw 1 120 unsigned_char
0 0 0 0 0 0 0 0 0 
0 0 0 0 0 0 0 0 0 
0 0 0 0 0 0 0 0 0 
0 0 0 0 0 0 0 1 0 
0 0 0 0 0 0 0 0 0 
0 0 0 0 0 0 0 1 0 
0 0 0 0 0 0 0 0 0 
0 0 0 0 0 0 0 0 0 
1 0 0 0 0 0 0 0 0 
0 0 0 0 0 0 0 0 0 
0 0 1 0 0 0 0 0 0 
0 0 0 0 0 0 0 1 0 
0 0 0 0 1 0 0 0 0 
0 0 0 
weighted_torsion_tn_raw 1 120 unsigned_char
0 0 0 0 0 0 0 0 0 
0 0 0 0 0 0 0 0 0 
0 2 0 0 0 0 0 0 0 
0 0 0 0 0 0 0 0 0 
0 0 0 0 0 0 0 2 0 
0 0 0 0 0 0 0 0 0 
0 0 0 0 0 0 0 0 0 
0 0 2 0 0 0 0 0 0 
0 0 0 0 0 0 0 2 0 
0 0 0 0 0 0 0 0 0 
0 0 0 0 0 0 0 0 0 
0 0 2 0 0 0 0 0 0 
2 0 0 0 0 0 0 0 0 
0 0 0 
weighted_torsion_tz_raw 1 120 unsigned_char
0 0 0 0 0 3 0 0 0 
0 0 0 0 0 0 0 0 0 
0 0 0 0 0 0 0 0 0 
3 0 0 0 0 0 0 0 3 
0 0 0 0 0 0 0 0 0 
0 0 0 0 3 0 0 0 0 
0 0 0 0 0 0 0 0 0 
0 0 0 0 0 0 0 0 0 
0 0 0 0 0 0 0 0 0 
0 0 0 0 0 0 0 0 0 
0 0 0 0 0 0 0 0 0 
0 0 0 0 0 0 0 0 0 
0 0 0 0 0 0 0 0 0 
0 0 0 
