# vtk DataFile Version 5.1
vtk output
ASCII
DATASET POLYDATA
POINTS 120 float
-4.9956 19.5064 -5.34547 -4.974 18.7562 -5.19299 -5.08288 18.04 -5.04874 
-5.30438 17.3599 -4.92259 -5.62051 16.7178 -4.82435 -6.01291 16.1153 -4.76364 
-6.46251 15.5538 -4.74969 -6.94939 15.0342 -4.79097 -7.4527 14.5564 -4.89473 
-7.95114 14.1192 -5.0664 -8.42367 13.7203 -5.30887 -8.85049 13.3556 -5.62175 
-9.21403 13.0195 -6.00073 -9.49986 12.7045 -6.43739 -9.69743 12.4023 -6.9194 
-9.80054 12.1044 -7.43159 -9.80756 11.8041 -7.95759 -9.72131 11.4976 -8.48171 
-9.54886 11.1844 -8.99084 -9.30096 10.8672 -9.47596 -8.99134 10.551 -9.93301 
-8.63564 10.2415 -10.3632 -8.25015 9.94391 -10.7725 -7.85031 9.66198 -11.1709 
-7.44937 9.39778 -11.57 -7.05707 9.15171 -11.9823 -6.67881 8.92254 -12.418 
-6.31529 8.70712 -12.8838 -5.9628 8.49971 -13.3809 -5.61458 8.29244 -13.904 
-5.26258 8.07541 -14.4418 -4.89952 7.83746 -14.9772 -4.52096 7.56782 -15.4892 
-4.12663 7.25795 -15.9547 -3.72091 6.90333 -16.3504 -3.31228 6.50494 -16.6548 
-2.91182 6.07001 -16.85 -2.53135 5.6121 -16.9234 -2.18162 5.1495 -16.8686 
-1.87082 4.70304 -16.6861 -1.60367 4.29364 -16.3835 -1.38119 3.93943 -15.9747 
-1.20102 3.65388 -15.4779 -1.05832 3.44481 -14.9144 -0.94691 3.31445 -14.3056 
-0.860512 3.26043 -13.6709 -0.793954 3.27718 -13.0267 -0.744227 3.35713 -12.3846 
-0.711211 3.49181 -11.7518 -0.697869 3.67198 -11.1317 -0.709825 3.88805 -10.5245 
-0.754613 4.13025 -9.92851 -0.840629 4.38846 -9.34134 -0.97589 4.65209 -8.76086 
-1.16683 4.90995 -8.18585 -1.4173 5.14941 -7.61632 -1.72784 5.35673 -7.05367 
-2.09532 5.51746 -6.5007 -2.51315 5.6172 -5.96148 -2.97159 5.64284 -5.44114 
-3.45835 5.58406 -4.9455 -3.95912 5.43435 -4.48065 -4.45824 5.19165 -4.05226 
-4.93915 4.85821 -3.66504 -5.38505 4.44034 -3.32196 -5.77954 3.94741 -3.0237 
-6.10756 3.39093 -2.76814 -6.35641 2.78409 -2.55017 -6.51696 2.14085 -2.3616 
-6.58451 1.47574 -2.1916 -6.5592 0.803656 -2.0274 -6.4458 0.139608 -1.85528 
-6.25291 -0.501609 -1.66183 -5.99178 -1.10584 -1.43515 -5.67483 -1.66019 -1.16612 
-5.31425 -2.15383 -0.849165 -4.9209 -2.5786 -0.482617 -4.50351 -2.9295 -0.0687142 
-4.06829 -3.20518 0.386755 -3.6189 -3.40807 0.875057 -3.15666 -3.54403 1.38532 
-2.68106 -3.6212 1.90552 -2.19032 -3.64922 2.42351 -1.68212 -3.63763 2.92818 
-1.15432 -3.59502 3.41038 -0.605556 -3.52844 3.86367 -0.0356729 -3.44315 4.2848 
0.554075 -3.34291 4.67371 1.16104 -3.23025 5.03345 1.78135 -3.10733 5.36951 
2.41037 -2.97658 5.68899 3.04321 -2.84133 5.99947 3.67531 -2.70633 6.30803 
4.30305 -2.57774 6.62047 4.92419 -2.46336 6.94007 5.53801 -2.37196 7.26786 
6.14532 -2.31278 7.60268 6.74809 -2.29483 7.94196 7.34867 -2.32599 8.28276 
7.94891 -2.41209 8.62266 8.54951 -2.55649 8.96074 9.14893 -2.75986 9.29798 
9.74248 -3.02011 9.63667 10.3223 -3.33299 9.9803 10.8768 -3.6927 10.3322 
11.3913 -4.0923 10.6944 11.8486 -4.52444 11.0673 12.2304 -4.98194 11.4486 
12.5187 -5.45749 11.8339 12.6981 -5.94461 12.2174 12.7577 -6.43726 12.5922 
12.6932 -6.93003 12.9518 12.5073 -7.41886 13.2907 12.2109 -7.90136 13.6049 
11.8218 -8.37702 13.8926 11.3633 -8.84783 14.1537 10.862 -9.31825 14.3897 
10.3452 -9.79445 14.6029 9.8374 -10.2835 14.7962 9.35999 -10.7927 14.972 

LINES 2 120
OFFSETS vtktypeint64
0 120 
CONNECTIVITY vtktypeint64
0 1 2 3 4 5 6 7 8 
9 10 11 12 13 14 15 16 17 
18 19 20 21 22 23 24 25 26 
27 28 29 30 31 32 33 34 35 
36 37 38 39 40 41 42 43 44 
45 46 47 48 49 50 51 52 53 
54 55 56 57 58 59 60 61 62 
63 64 65 66 67 68 69 70 71 
72 73 74 75 76 77 78 79 80 
81 82 83 84 85 86 87 88 89 
90 91 92 93 94 95 96 97 98 
99 100 101 102 103 104 105 106 107 
108 109 110 111 112 113 114 115 116 
117 118 119 
CELL_DATA 1
FIELD FieldData 2
Length 1 1 double
80.397406963 
Tortuosity 1 1 double
1.0507695155 
POINT_DATA 120
FIELD FieldData 19
Curvature 1 120 double
0 0.23571426016 0.22328457527 0.20239366683 0.18068580954 0.16332920666 0.15328811708 0.1524103496 0.16174948429 
0.18088071836 0.20720449201 0.23565811944 0.25964829514 0.27362452322 0.27590360665 0.26805269374 0.2523186109 0.22996333502 
0.20182747744 0.16897048519 0.13251055145 0.094139461161 0.058178332267 0.04208043122 0.060836455075 0.083599325499 0.090501207114 
0.075962794677 0.045333905872 0.015145962729 0.045196853281 0.088720879338 0.13360881169 0.1803957072 0.23008499482 0.2823399823 
0.33400400338 0.37899062 0.40691354375 0.40862434661 0.38358610896 0.33992978285 0.29017610505 0.24433128152 0.20689753524 
0.17813131322 0.15600054458 0.13818080909 0.12237700779 0.11002470175 0.10458861744 0.10805586925 0.11820776462 0.13035095285 
0.14156079359 0.15128380076 0.16044624964 0.17048288254 0.18144785034 0.19172124649 0.19985502273 0.20472638427 0.2069480011 
0.20750759533 0.20824533757 0.21002420946 0.21152086974 0.21082607576 0.20572828878 0.19619230031 0.18514562366 0.17686915736 
0.17463386295 0.17886453796 0.18665517381 0.19353117138 0.19479934127 0.18710885656 0.17000278176 0.14653411701 0.12213231216 
0.10132809824 0.088509983963 0.083950402215 0.08403443164 0.083916182917 0.079967671645 0.07078558441 0.056719650876 0.039424841192 
0.020895172749 0.0027120676495 0.015664078037 0.032645760458 0.049846751543 0.067794727079 0.086312250751 0.10294101535 0.11422671934 
0.11791746216 0.11411654134 0.10584939024 0.098299691401 0.096309237848 0.10294283395 0.1197939403 0.14805582703 0.18918690204 
0.24192218915 0.29606955715 0.33083272402 0.32430346902 0.27635171377 0.20931789423 0.14365944989 0.088820442342 0.050768261201 
0.046953016967 0.073838229973 0 
Torsion 1 120 double
0 0 0.12127947903 0.15823975603 0.20285258273 0.25177925807 0.29642219532 0.32270424568 0.32117920576 
0.29907009043 0.27407229264 0.25860910507 0.25360660476 0.25212060251 0.24162166296 0.21262588309 0.16526171955 0.10657774625 
0.043807667659 -0.023955519127 -0.11544835171 -0.300170537 -0.85561052792 -1.5985794586 -0.65049415268 -0.24469917111 -0.13582941977 
-0.14637709754 -0.41746064659 -4.1496678787 -0.43314004155 -0.076936165285 -0.010148178031 0.0051994226705 -0.00027927092591 -0.018974052355 
-0.043316821656 -0.067211622739 -0.089093140261 -0.10601170172 -0.117523107 -0.12538256932 -0.12829868258 -0.12489180463 -0.11041937566 
-0.075631546623 -0.011825653494 0.085998910238 0.2172717331 0.36182855237 0.45639463191 0.44151231312 0.35969245676 0.29300017473 
0.25571422196 0.23186057266 0.21305582044 0.19032416305 0.16233665993 0.13677197559 0.11879308203 0.11102610036 0.11376865515 
0.12573037909 0.14330283977 0.16202951874 0.18016357543 0.19863375238 0.22167070787 0.25125917248 0.2817772446 0.2976039389 
0.28091326457 0.23074687174 0.16523417548 0.10037699828 0.042062679497 -0.011457332029 -0.067077264069 -0.13511488092 -0.22270033829 
-0.32048934542 -0.37357018586 -0.33359352453 -0.23593893169 -0.1408384099 -0.066410823584 -0.010786896564 0.02977315891 0.057540584412 
0.0256247863 -4.9747121008 0.11167294946 0.21478178513 0.22495151175 0.20632654855 0.16160024298 0.10767446989 0.053027171864 
-0.0060581602231 -0.07055102624 -0.14178531384 -0.20641218635 -0.2283442261 -0.19458627536 -0.12510073315 -0.063706739422 -0.021014507601 
0.0052248452136 0.017162541809 0.024097642275 0.033040014145 0.048047624358 0.079284311521 0.15794182669 0.38069219855 1.0503261581 
1.1083954561 0 0 
FrenetTangent 3 120 double
-0.058235830934 -0.97847115725 0.19799692529 -0.058235830934 -0.97847115725 0.19799692529 -0.22627886194 -0.95629565063 0.18519315654 
-0.37209024338 -0.91511287133 0.1552974034 -0.49170181787 -0.86374842136 0.11030859849 -0.58533408059 -0.80912934758 0.051900992164 
-0.65463122754 -0.75570691972 -0.01910516744 -0.70078601299 -0.70594731294 -0.1026516213 -0.72358893728 -0.66093638292 -0.19895262648 
-0.72105678455 -0.62087930974 -0.30754836399 -0.68972118887 -0.58557298729 -0.42589782598 -0.62593331913 -0.55496938659 -0.54792012187 
-0.52829822466 -0.52970175443 -0.6635638908 -0.4002547227 -0.51108081305 -0.76065271937 -0.25064947629 -0.50029885095 -0.82877976555 
-0.091522174813 -0.49712033852 -0.86284127193 0.065189631636 -0.49923817477 -0.86400900272 0.20992397201 -0.50291023372 -0.83845883787 
0.3362607862 -0.50430687894 -0.79536359957 0.4408052213 -0.50078468116 -0.74491976748 0.52251519157 -0.49139372152 -0.69678553733 
0.58183895916 -0.47657260861 -0.65904626114 0.61990135333 -0.45745358161 -0.63754100481 0.63797973563 -0.43510011763 -0.63535009606 
0.63756778612 -0.41012482476 -0.65215408165 0.62120904723 -0.38313098818 -0.68360073547 0.59376996657 -0.35588173864 -0.72165463686 
0.56278757113 -0.33234746339 -0.75684563377 0.53680849153 -0.31768527863 -0.78160905008 0.52251554341 -0.3166175162 -0.79166334722 
0.52291441676 -0.33271458439 -0.7847684487 0.53734974105 -0.36777976458 -0.75894222479 0.56236992332 -0.42166641628 -0.71129283894 
0.59250364157 -0.49211032676 -0.63778276946 0.62089036906 -0.57411794121 -0.53374501327 0.63991153289 -0.6590722613 -0.39514172706 
0.6420921466 -0.73411504494 -0.22089086914 0.62138893713 -0.7833427119 -0.015810898814 0.57513062517 -0.79152490597 0.20667144751 
0.50654348715 -0.75010917525 0.42514694028 0.42473085708 -0.66239380043 0.61712085705 0.34132663978 -0.54234191775 0.76769874901 
0.26602389056 -0.40753816049 0.8735810995 0.20383676566 -0.27227003355 0.94038268901 0.15544513292 -0.14488744894 0.97716141849 
0.1187014237 -0.028919631849 0.99250875407 0.089778581487 0.074656216039 0.99315973323 0.06387362882 0.16567770303 0.9841092715 
0.035863971876 0.24357220168 0.96921945817 0.0010750744834 0.30723781948 0.95163215924 -0.044029208615 0.35558111694 0.93360778599 
-0.10129777404 0.38752521132 0.91627668942 -0.17048179495 0.40204816862 0.89960726303 -0.24919727201 0.39838451145 0.88271767891 
-0.33347115921 0.3757125766 0.86466007527 -0.4185928021 0.33336461798 0.84477695134 -0.49987364203 0.27134154083 0.8224962676 
-0.57313906899 0.19010157721 0.79710287789 -0.63466938593 0.090813318778 0.76742928775 -0.68094914619 -0.023875197523 0.73194141518 
-0.70878320929 -0.1496382206 0.68937273311 -0.71573415069 -0.28089402992 0.63939281314 -0.70044767723 -0.41177875592 0.58293336466 
-0.66254968681 -0.53709299011 0.52207186524 -0.602257614 -0.65271906849 0.45961242805 -0.52007920038 -0.75537887523 0.39864819101 
-0.41737413028 -0.84167824169 0.34260264569 -0.29735708023 -0.90795787875 0.29528165749 -0.16581381411 -0.95108508247 0.2606586752 
-0.030628064254 -0.96970402033 0.24235518283 0.10017119141 -0.96487409629 0.24286562277 0.22040417737 -0.93926541355 0.26306364535 
0.32648644648 -0.89561601277 0.30212341506 0.41695545933 -0.83565223699 0.35753808714 0.49144314922 -0.76014937617 0.42503712425 
0.5499970366 -0.66998660109 0.49861930778 0.59317830305 -0.56751990134 0.57101721723 0.62259753409 -0.45754480517 0.63484254884 
0.64138121223 -0.34698344889 0.6842752566 0.6540017289 -0.24309167725 0.71637153423 0.66534625782 -0.15120557102 0.73106171593 
0.67945861612 -0.073960523839 0.72997659545 0.69871651333 -0.011490981784 0.71530636188 0.72355072931 0.037847707229 0.68923282943 
0.75262819101 0.076333063775 0.6540061693 0.78339218831 0.10635593739 0.61236026478 0.81283574466 0.13004864545 0.56778992772 
0.83829006465 0.14914169779 0.52442971073 0.85803756715 0.16470144745 0.48646168047 0.87152871665 0.17695815052 0.45730023947 
0.87920301463 0.18533657534 0.43892187564 0.8821160274 0.18845692357 0.43168889512 0.88156213682 0.18444844563 0.43454225322 
0.87909705786 0.17103322293 0.44489998822 0.87619427068 0.14599617915 0.45931330886 0.87382341053 0.10775339318 0.4741538289 
0.87223938761 0.055595658064 0.48590901772 0.87054638134 -0.0095633012115 0.49199343614 0.86683018299 -0.084644881369 0.49136613427 
0.85888166529 -0.16485564057 0.48491741853 0.84494780927 -0.24487045211 0.47550148401 0.82420903145 -0.32031086528 0.46699081582 
0.79637265997 -0.38899606285 0.46311191902 0.76082462944 -0.45112269613 0.46651280398 0.71597545869 -0.50854144656 0.4782935706 
0.65868119862 -0.56377569329 0.49829313285 0.58400502506 -0.61919921402 0.52490995805 0.48520922372 -0.67561663899 0.55508032423 
0.35491033378 -0.73054133854 0.58339352727 0.18948326277 -0.77649621468 0.60095733768 -0.0039777069996 -0.80181369912 0.59756085025 
-0.20356841788 -0.79772854482 0.56761700822 -0.38097404798 -0.76726044257 0.51591684217 -0.51811448546 -0.72424079971 0.45500839991 
-0.61240067819 -0.68389295044 0.39655496679 -0.66965698774 -0.65672157784 0.34680871956 -0.69689825544 -0.64792665973 0.30744733724 
-0.69931796553 -0.65878047265 0.27742146986 -0.67931132383 -0.68831573606 0.25447509273 -0.67931132383 -0.68831573606 0.25447509273 

FrenetNormal 3 120 double
-0.99825369868 0.055107987091 -0.021275874448 -0.99825369868 0.055107987091 -0.021275874448 -0.96995671727 0.20377687781 -0.13288698469 
-0.90937955621 0.32589008747 -0.25850430099 -0.81782132324 0.41458766623 -0.39910568809 -0.69197069853 0.46516710306 -0.55208343445 
-0.52654440474 0.4739618662 -0.70576989112 -0.32260702419 0.4419587931 -0.83701680577 -0.094980395264 0.38084320378 -0.91974843226 
0.13432248088 0.31019080749 -0.94113714945 0.34986439141 0.24545746985 -0.90407164435 0.54573714266 0.19019886137 -0.81608539029 
0.71715265903 0.13998881567 -0.6827116486 0.85520750488 0.089919315131 -0.51042594013 0.94951613165 0.03979149969 -0.31118443454 
0.99456147517 -0.0023774798054 -0.10412405914 0.99554337989 -0.026590464187 0.090478317673 0.96602257061 -0.02555688308 0.25719105504 
0.9216741437 0.0026910731706 0.3879555786 0.87567153486 0.057591197486 0.47946075649 0.8377082454 0.14364853396 0.52688707926 
0.8114805395 0.28594404356 0.5096423628 0.75569578931 0.56682598491 0.32807343211 0.31585142005 0.90033023664 -0.29940498566 
-0.24723251344 0.69282165808 -0.6774025645 -0.45341057767 0.5357644645 -0.71230280544 -0.55310671593 0.47085462432 -0.68729097444 
-0.62984672849 0.42054291694 -0.65302125051 -0.72299322879 0.30429284955 -0.62023112856 -0.71945276864 -0.66200331538 -0.210093608 
0.25348582867 -0.81832091082 0.515844765 0.3380114318 -0.73054554108 0.59333926583 0.31481180447 -0.686243089 0.65571636441 
0.25215232662 -0.63863843282 0.72702142768 0.16626070891 -0.56894883749 0.8053909591 0.065220497677 -0.46577088466 0.88249859472 
-0.042970930026 -0.3221444128 0.94571479658 -0.15202820851 -0.14034396193 0.97836138322 -0.25255200183 0.068500307502 0.96515552853 
-0.33245751935 0.28503691905 0.89901387787 -0.38416580971 0.48537525845 0.78538365729 -0.40344742113 0.65315283138 0.6407975946 
-0.39341937958 0.78142536409 0.48435069126 -0.36149322221 0.87173718406 0.33075207063 -0.31771509401 0.929294531 0.18833160565 
-0.27661093599 0.95904231676 0.061026426611 -0.25866468762 0.96471667726 -0.049135648885 -0.28693178054 0.94753274069 -0.14089662397 
-0.38354035332 0.89892898646 -0.21171555133 -0.5529279155 0.79311049095 -0.25543388461 -0.75571671059 0.59936557762 -0.26391884681 
-0.9101434653 0.33580283048 -0.24264239449 -0.97356304789 0.072127324149 -0.21673172561 -0.96704321309 -0.15151954636 -0.20461977197 
-0.91594154913 -0.34631932526 -0.20276588355 -0.83110830295 -0.5156046069 -0.20835277323 -0.71851458093 -0.66017017238 -0.2188884202 
-0.58400204255 -0.77711956312 -0.2345779165 -0.43620715626 -0.86183871941 -0.2587611612 -0.28296442822 -0.91326782039 -0.29304098791 
-0.12753521619 -0.93395698935 -0.33385492459 0.028184290264 -0.92641850137 -0.37543895123 0.18399267565 -0.89334869234 -0.40996927837 
0.33911729926 -0.83657570164 -0.43027962161 0.49181079091 -0.75687292309 -0.43042481834 0.63753118471 -0.65392208066 -0.4073572154 
0.7691604041 -0.52797204976 -0.36005247872 0.87814448634 -0.38147705118 -0.28868238696 0.9564912987 -0.21944965351 -0.19226607886 
0.99645059496 -0.048643448712 -0.068702450411 0.98909196911 0.12306127629 0.08095059551 0.92645726103 0.28595054781 0.24476361593 
0.81143316793 0.42950514114 0.39636037607 0.66534607335 0.54860569665 0.50630661884 0.51588039904 0.64728681107 0.5611481071 
0.38098933103 0.73256469948 0.56408872592 0.26827565037 0.80807776326 0.52444113487 0.18144898988 0.8735543435 0.45164042448 
0.12535132129 0.92729461582 0.35272048668 0.10816418584 0.96728263118 0.22948817031 0.14065970222 0.98712502131 0.076151431272 
0.2286287096 0.96671407749 -0.11485993877 0.35184397957 0.87610690062 -0.32960963688 0.45774602193 0.72106161516 -0.52013337381 
0.51030684061 0.56005770017 -0.65262722967 0.51509875588 0.44024761 -0.73542865975 0.49213079461 0.3681450612 -0.78884503859 
0.4544377075 0.34034006156 -0.82319803966 0.41224952945 0.34403189093 -0.84361862443 0.36984261674 0.37511098179 -0.85000481774 
0.33561396618 0.41297671266 -0.84664839249 0.43405506619 0.03072063712 -0.9003623948 -0.17726048962 -0.72380864823 0.66684312966 
-0.1311886263 -0.81053105088 0.57081429545 -0.082971042393 -0.89309353972 0.44215352022 -0.043013468918 -0.95418414324 0.29611224608 
-0.023546922158 -0.98759227103 0.1552644475 -0.032174404153 -0.99877792657 0.037516144722 -0.068169048354 -0.99635002876 -0.051377047718 
-0.12849634443 -0.98585899767 -0.10756731 -0.21203091108 -0.96955203567 -0.12252241784 -0.31489099427 -0.94464181494 -0.092171054023 
-0.43426377577 -0.90073227762 -0.0098151467418 -0.55370583038 -0.82617960532 0.10410145608 -0.65524201432 -0.72592527215 0.20902249142 
-0.7359322231 -0.62060839517 0.27064549295 -0.80476204379 -0.52630686398 0.2745161886 -0.87064461097 -0.4320514329 0.23517976256 
-0.93170996424 -0.32789292675 0.15621386342 -0.97818386966 -0.20236711114 0.046945388079 -0.99513775735 -0.055634469841 -0.081275147903 
-0.97212516016 0.095805203947 -0.2139954109 -0.91375799604 0.22729939579 -0.33672141208 -0.8369836945 0.31977904522 -0.44407168045 
-0.75430680834 0.35535614291 -0.55203555192 -0.64999127866 0.29236371374 -0.70145192035 -0.3787354683 -0.031544658578 -0.92496723162 
0.26521136659 -0.59952850037 -0.75513476167 0.58635954085 -0.7176165583 -0.37577781216 0.58635954085 -0.7176165583 -0.37577781216 

FrenetBinormal 3 120 double
0.0099066174903 -0.19889018122 -0.9799717112 0.0099066174903 -0.19889018122 -0.9799717112 0.089341162247 -0.20969886184 -0.97367579002 
0.18595072876 -0.23741121205 -0.95344545878 0.29899432363 -0.28645371634 -0.91024538605 0.42256427496 -0.35906721532 -0.83217195844 
0.54241031127 -0.45195929117 -0.70818348848 0.63625755158 -0.55345353604 -0.53746210238 0.68366495769 -0.64662319156 -0.33834992799 
0.67973125909 -0.71992398605 -0.14026713704 0.63393973629 -0.77256385306 0.035573918905 0.55711619176 -0.80983539876 0.18381560271 
0.45452508123 -0.83655196063 0.30592117889 0.32926627607 -0.85481630734 0.40108951638 0.18866360481 -0.86493797251 0.46506811106 
0.049710799828 -0.8676783486 0.49463432934 -0.068144630615 -0.86605669102 0.49527983731 -0.15077240809 -0.86396072975 0.48045763435 
-0.19350828536 -0.86352031243 0.46571151318 -0.19720578063 -0.86365384101 0.46390939094 -0.15881678178 -0.85900949304 0.4867031135 
-0.054431237491 -0.83133299746 0.55310278223 0.21129644142 -0.6851602174 0.69707194057 0.70229604682 -0.0096619164684 0.71181943637 
0.72964608023 0.59312374612 0.34032457947 0.6391542597 0.75244075147 0.15910608986 0.58438872986 0.80724476515 0.082738754825 
0.53531602665 0.84420898988 0.027348364244 0.43487634397 0.89804338729 -0.06633731979 -0.45756444419 0.67934156274 -0.5736983707 
-0.81382150832 -0.46867034496 -0.34357336967 -0.77266003376 -0.5753618489 -0.26824469252 -0.76461336446 -0.59267854371 -0.25317690794 
-0.76508734071 -0.5915812526 -0.25430883324 -0.76606300412 -0.58880031411 -0.25780159778 -0.76567585619 -0.59049236861 -0.25506713989 
-0.76542221972 -0.59774415773 -0.23839200376 -0.76861122333 -0.60553923742 -0.20629837448 -0.77810169667 -0.60728579029 -0.16050457483 
-0.79554113247 -0.59673292181 -0.1049958407 -0.81976846103 -0.57065340763 -0.048315201161 -0.84895600791 -0.52844737023 0.0041320131134 
-0.88002981849 -0.47253258946 0.04754440529 -0.90982043463 -0.40736140067 0.079268316366 -0.93535764801 -0.33973416341 0.098421382431 
-0.9536227567 -0.28178269917 0.10584020195 -0.96178603945 -0.25248402329 0.10592182162 -0.95581918419 -0.27337264685 0.1080605529 
-0.92282748816 -0.36414181285 0.12565893218 -0.83322839875 -0.52590937568 0.17073301994 -0.65341692825 -0.71716314297 0.24232899999 
-0.40171835101 -0.85852237573 0.31868745948 -0.15202285803 -0.91277320251 0.37912284476 0.05223163438 -0.90461682944 0.42301329561 
0.22326680129 -0.85959466304 0.45961826629 0.36611344526 -0.78931610957 0.49289047909 0.48359398156 -0.70039211284 0.52496452192 
0.57485060832 -0.59995547748 0.55641729229 0.63790131478 -0.49898593452 0.58659607035 0.67545495236 -0.40665939455 0.61513311092 
0.69380193922 -0.32455006544 0.64288888944 0.69780389174 -0.25069364626 0.67098615813 0.68957939845 -0.17990655928 0.70150829158 
0.66785280552 -0.10803802757 0.73641049337 0.62881468838 -0.033184272344 0.77684676207 0.5683938897 0.042292638643 0.82166886205 
0.48393295831 0.11323979924 0.86774745158 0.37475462366 0.17345820774 0.91075310716 0.24006285543 0.21743738291 0.94609238976 
0.078410034276 0.23939074305 0.96775200267 -0.10799448619 0.23210751946 0.96667641451 -0.30512119244 0.18977030093 0.93321395768 
-0.48475025967 0.11574666908 0.86696014577 -0.61924369001 0.026779253531 0.7847420748 -0.70167730829 -0.056504071667 0.71025083239 
-0.74320279156 -0.12027849112 0.65816616078 -0.7590570968 -0.15789708711 0.63158596697 -0.761215196 -0.16599867535 0.62689382287 
-0.75691293215 -0.14045348579 0.63824417857 -0.74872040676 -0.072599916385 0.65889832648 -0.73316383256 0.052163853441 0.67804846952 
-0.69718354982 0.2449361821 0.6737517084 -0.62289730137 0.48197993321 0.61619339166 -0.51666519287 0.69183646781 0.50440002011 
-0.41609822702 0.82492947326 0.38256192913 -0.34780734752 0.89155507764 0.29010272756 -0.31161728642 0.92062835267 0.23524052174 
-0.30125759329 0.92839937337 0.21752808096 -0.30630354034 0.92440007098 0.2272941925 -0.32195362228 0.90993272516 0.26147332712 
-0.33817942689 0.89168413053 0.30088882762 -0.18294128491 0.98160085086 -0.054701516055 0.43752361965 -0.66489082687 -0.60538687679 
0.45823346363 -0.560166986 -0.69009784857 0.4747624734 -0.4255220852 -0.77040998751 0.48433716427 -0.27914481375 -0.8291535951 
0.48851201946 -0.14686942842 -0.86010777106 0.49103340584 -0.048489139684 -0.86979020326 0.49392146613 0.011039213908 -0.86943643877 
0.49579327798 0.030077474711 -0.86791956484 0.49102555164 0.0027040356673 -0.87114097357 0.47066244188 -0.071082987146 -0.8794453222 
0.42095790705 -0.19329621604 -0.88624545886 0.33846083473 -0.33751381125 -0.87836705913 0.24090879026 -0.46305301681 -0.85296240152 
0.15666155108 -0.54497907071 -0.82368378089 0.10628350567 -0.58274644425 -0.80567387828 0.080931888719 -0.59738908297 -0.79785732618 
0.077169926221 -0.59899547684 -0.79702523248 0.085161084207 -0.59674213938 -0.79790125255 0.098412508088 -0.59497865312 -0.79769378873 
0.1163295845 -0.59535748225 -0.79499490319 0.14108543315 -0.59970525923 -0.78768553536 0.17611267729 -0.61091458181 -0.77185989572 
0.2366149789 -0.63719105772 -0.73348545161 0.35926432671 -0.6951548231 -0.62264670197 0.60900925003 -0.7610492613 -0.22340938936 
0.663790113 -0.45450397809 0.59397712059 0.44126932159 -0.10605622451 0.89108555317 0.44126932159 -0.10605622451 0.89108555317 

plain_curvature_peaks 1 120 unsigned_char
0 0 0 0 0 0 0 0 0 
0 0 0 0 0 0 0 0 0 
1 0 0 0 0 0 0 0 0 
0 0 0 0 0 0 0 0 0 
0 0 0 0 0 0 0 1 0 
0 0 0 0 0 0 0 1 0 
0 0 0 0 0 0 0 0 0 
0 0 0 0 0 0 0 0 0 
0 0 0 0 0 0 0 0 0 
0 0 0 0 0 0 0 0 0 
0 0 0 0 0 0 0 0 1 
0 0 0 0 0 0 0 0 0 
0 0 0 0 0 0 0 0 0 
0 0 0 
weighted_curvature_peaks 1 120 unsigned_char
0 0 0 0 0 0 0 0 0 
0 0 0 0 0 0 0 0 0 
0 0 1 0 0 0 0 0 0 
0 0 0 0 0 0 0 0 0 
0 0 0 0 0 0 0 0 0 
0 0 1 0 0 0 0 0 0 
0 0 0 0 0 0 0 0 0 
0 0 0 0 0 0 0 0 0 
0 0 0 0 0 0 0 0 0 
0 0 0 0 0 0 0 0 1 
0 0 0 0 0 0 0 0 0 
0 0 0 0 0 0 0 0 1 
0 0 0 0 0 0 0 0 0 
0 0 0 
plain_torsion_tp 1 120 unsigned_char
0 0 0 0 0 0 0 0 0 
0 0 0 0 0 0 0 0 0 
1 0 0 0 0 0 0 0 0 
0 0 0 0 0 0 0 0 0 
0 0 0 0 0 0 0 1 0 
0 0 0 0 0 0 0 1 0 
0 0 0 0 0 0 0 0 0 
0 0 0 0 0 0 0 0 0 
0 0 0 0 0 0 0 0 0 
0 0 0 0 0 0 0 0 0 
0 0 0 0 0 0 0 0 1 
0 0 0 0 0 0 0 0 0 
0 0 0 0 0 0 0 0 0 
0 0 0 
plain_torsion_tn 1 120 unsigned_char
0 2 0 0 0 0 0 0 0 
0 0 0 0 0 0 0 0 0 
0 0 0 0 0 0 0 0 0 
0 0 0 0 0 0 0 0 0 
0 0 2 0 0 0 0 0 0 
0 0 2 0 0 0 0 0 0 
0 0 0 0 0 0 0 0 0 
0 0 0 0 0 0 2 0 0 
0 0 0 0 0 0 0 0 0 
0 0 0 0 0 0 0 0 0 
0 0 0 0 0 0 0 0 0 
0 0 0 0 0 0 0 0 0 
0 0 0 0 0 0 0 0 0 
0 0 0 
plain_torsion_tz 1 120 unsigned_char
0 3 0 0 0 0 0 0 0 
0 0 0 0 0 0 0 0 0 
0 0 0 0 0 0 0 0 0 
0 0 0 0 0 3 0 0 0 
0 0 0 0 3 0 0 0 0 
0 0 3 0 0 0 0 0 0 
0 0 0 0 0 3 0 0 0 
0 0 0 0 0 0 0 0 0 
0 0 0 0 3 0 0 0 0 
0 0 0 0 0 0 0 0 0 
0 0 0 0 0 0 0 0 0 
0 0 0 0 0 0 0 0 0 
0 0 0 0 0 0 0 0 0 
0 0 0 
weighted_torsion_tp 1 120 unsigned_char
0 0 0 0 0 0 0 0 0 
0 0 0 0 0 0 0 0 0 
0 0 1 0 0 0 0 0 0 
0 0 0 0 0 0 0 0 0 
0 0 0 0 0 0 0 0 0 
0 0 1 0 0 0 0 0 0 
0 0 0 0 0 0 0 0 0 
0 0 0 0 0 0 0 0 0 
0 0 0 0 0 0 0 0 0 
0 0 0 0 0 0 0 0 1 
0 0 0 0 0 0 0 0 0 
0 0 0 0 0 0 0 0 1 
0 0 0 0 0 0 0 0 0 
0 0 0 
weighted_torsion_tn 1 120 unsigned_char
0 0 0 2 0 0 0 0 0 
0 0 0 0 0 0 0 0 0 
0 0 0 0 0 0 0 0 0 
0 0 0 0 0 0 0 0 0 
0 0 0 0 0 0 0 2 0 
0 0 0 0 0 0 0 0 0 
0 0 0 0 0 0 0 0 0 
0 0 0 0 0 0 0 0 0 
0 2 0 0 0 0 0 0 0 
0 0 0 0 0 0 0 0 0 
0 0 0 0 0 0 0 0 0 
0 0 0 2 0 0 0 0 0 
0 0 0 0 0 0 0 0 0 
0 0 0 
weighted_torsion_tz 1 120 unsigned_char
0 0 0 0 3 0 0 0 0 
0 0 0 0 0 0 0 0 0 
0 0 0 0 0 0 0 0 0 
0 0 0 0 0 0 0 0 3 
0 0 0 0 0 0 0 0 3 
0 0 0 0 0 0 0 0 0 
0 0 0 0 0 0 0 0 0 
0 0 0 0 0 0 0 0 0 
0 0 0 0 0 0 0 0 0 
0 3 0 0 0 0 0 0 0 
0 0 0 0 0 0 0 3 0 
0 0 0 0 3 0 0 0 0 
0 0 0 0 0 0 0 0 0 
0 0 0 
plain_torsion_tp_raw 1 120 unsigned_char
0 0 0 0 0 0 0 0 0 
0 0 0 0 0 0 0 0 0 
0 0 0 0 0 0 0 1 0 
0 0 0 0 0 0 0 0 0 
0 0 0 1 0 0 0 0 0 
0 0 1 0 0 0 0 0 0 
1 0 0 0 0 0 0 0 0 
0 0 0 0 0 0 0 0 0 
0 0 0 0 0 0 0 0 0 
0 0 0 0 0 1 0 0 0 
0 0 0 0 0 0 0 0 0 
0 0 0 1 0 0 0 0 0 
0 0 0 0 0 0 0 0 0 
0 0 0 
plain_torsion_tn_raw 1 120 unsigned_char
0 0 0 0 0 0 0 0 0 
0 0 0 2 0 0 0 0 0 
0 0 0 0 0 0 0 0 0 
0 0 0 0 0 0 0 2 0 
0 0 0 0 0 0 0 0 0 
0 2 0 0 2 0 0 0 0 
0 0 0 0 0 0 0 0 0 
0 0 0 0 0 0 0 0 2 
0 0 0 0 0 0 0 0 0 
0 0 0 0 0 0 0 0 0 
0 0 0 0 2 0 0 0 0 
0 0 0 0 0 0 0 0 0 
0 0 0 0 0 0 0 0 0 
0 0 0 
plain_torsion_tz_raw 1 120 unsigned_char
0 3 0 0 0 0 0 0 0 
0 0 0 0 0 0 0 0 0 
0 3 0 0 0 0 0 0 3 
0 0 0 0 0 0 0 0 0 
0 0 3 0 0 0 0 0 0 
0 0 0 0 0 0 0 0 0 
0 0 0 0 0 0 0 0 0 
0 0 0 0 0 0 0 0 0 
0 0 0 0 0 0 0 0 0 
0 0 0 0 0 0 0 0 0 
0 0 0 0 0 0 0 0 0 
0 0 0 0 0 0 0 0 0 
0 0 0 0 0 0 0 0 0 
0 0 0 
weighted_torsion_tp_raw 1 120 unsigned_char
0 0 0 0 0 0 0 0 0 
0 0 0 0 0 0 0 0 0 
0 0 0 0 0 0 0 0 0 
1 0 0 0 0 0 0 0 0 
0 0 0 0 0 0 0 0 1 
0 0 0 0 0 0 0 0 0 
0 0 0 0 0 0 0 0 0 
0 0 0 0 0 0 0 0 0 
0 0 0 0 0 0 0 1 0 
0 0 0 0 0 0 0 0 0 
0 0 1 0 0 0 0 0 0 
0 0 0 0 0 1 0 0 0 
1 0 0 0 0 0 0 0 0 
0 0 0 
weighted_torsion_tn_raw 1 120 unsigned_char
0 0 0 0 0 0 0 0 0 
0 0 0 0 0 2 0 0 0 
0 0 0 0 0 0 0 0 0 
0 0 0 0 0 0 0 0 0 
0 0 2 0 0 0 0 0 0 
0 0 0 0 0 0 0 0 0 
0 0 0 0 0 0 0 0 0 
2 0 0 0 0 0 0 0 0 
0 0 0 0 0 0 0 0 0 
0 0 0 0 2 0 0 0 0 
0 0 0 0 0 0 0 0 0 
0 0 0 2 0 0 2 0 0 
0 0 0 0 0 0 0 0 0 
0 0 0 
weighted_torsion_tz_raw 1 120 unsigned_char
0 0 0 3 0 0 0 0 0 
0 0 0 0 0 0 0 0 0 
0 0 0 3 0 0 0 0 0 
0 0 3 0 0 0 0 0 0 
0 0 0 0 0 0 3 0 0 
0 0 0 0 0 0 0 0 0 
0 0 0 0 0 0 0 0 0 
0 0 0 0 0 0 0 0 0 
0 0 0 0 0 0 0 0 0 
0 0 0 0 0 0 0 0 0 
0 0 0 0 0 0 0 0 0 
0 0 0 0 0 0 0 0 0 
0 0 0 0 0 0 0 0 0 
0 0 0 
