# vtk DataFile Version 5.1
vtk output
ASCII
DATASET POLYDATA
POINTS 120 float
-4.27936 19.6209 -7.57488 -4.68576 19.2673 -7.57628 -5.09309 18.8924 -7.55419 
-5.49928 18.5002 -7.5126 -5.90225 18.0944 -7.45565 -6.29995 17.679 -7.38787 
-6.69028 17.2581 -7.31466 -7.07118 16.8363 -7.24292 -7.44056 16.4186 -7.18155 
-7.79636 16.0102 -7.14153 -8.1366 15.6159 -7.13526 -8.45945 15.2399 -7.17504 
-8.76317 14.8843 -7.27118 -9.04609 14.5486 -7.42992 -9.30647 14.2288 -7.65205 
-9.54234 13.9175 -7.93242 -9.75125 13.6052 -8.26067 -9.93018 13.2815 -8.62284 
-10.0753 12.9372 -9.00382 -10.1821 12.5662 -9.38985 -10.2452 12.1669 -9.7706 
-10.2588 11.7424 -10.1404 -10.2172 11.3004 -10.4983 -10.1157 10.8518 -10.8469 
-9.95135 10.4088 -11.1908 -9.72447 9.98318 -11.5335 -9.43905 9.58462 -11.8758 
-9.10344 9.21945 -12.2135 -8.73034 8.89037 -12.537 -8.33626 8.59688 -12.8312 
-7.9403 8.33665 -13.0773 -7.56246 8.10668 -13.2548 -7.22155 7.90522 -13.3447 
-6.93323 7.73261 -13.3324 -6.7086 7.59112 -13.2096 -6.55325 7.48454 -12.9759 
-6.46695 7.41685 -12.6383 -6.44428 7.39059 -12.2099 -6.47576 7.40594 -11.7086 
-6.54925 7.45993 -11.1537 -6.6516 7.54635 -10.5645 -6.77003 7.65543 -9.95844 
-6.8931 7.77441 -9.34987 -7.01112 7.88805 -8.74999 -7.11614 7.97955 -8.16689 
-7.2018 8.03203 -7.60617 -7.2632 8.02997 -7.0716 -7.29693 7.96098 -6.56569 
-7.30128 7.81706 -6.09008 -7.27645 7.59535 -5.64553 -7.22451 7.29816 -5.2319 
-7.14917 6.93233 -4.84803 -7.05531 6.50826 -4.4917 -6.94829 6.03859 -4.15994 
-6.83335 5.53597 -3.84937 -6.71508 5.01261 -3.55667 -6.59709 4.47859 -3.27908 
-6.48208 3.94117 -3.01471 -6.37194 3.40485 -2.76263 -6.26799 2.87143 -2.52275 
-6.1711 2.34051 -2.29551 -6.08167 1.81024 -2.08135 -5.99944 1.27822 -1.88025 
-5.92315 0.742256 -1.69126 -5.85022 0.201036 -1.51235 -5.7766 -0.345456 -1.34049 
-5.69672 -0.895682 -1.17208 -5.60379 -1.44663 -1.00358 -5.4903 -1.99416 -0.832202 
-5.34866 -2.53299 -0.656467 -5.17191 -3.05728 -0.47641 -4.95432 -3.56079 -0.293412 
-4.69189 -4.03715 -0.109665 -4.38276 -4.48029 0.0726226 -4.02739 -4.88457 0.252018 
-3.62846 -5.24504 0.428445 -3.19067 -5.55805 0.603443 -2.72017 -5.82135 0.779948 
-2.22392 -6.03442 0.961731 -1.70901 -6.19852 1.15265 -1.18208 -6.31691 1.3559 
-0.648817 -6.39452 1.57344 -0.113687 -6.43709 1.80562 0.4202 -6.45075 2.05122 
0.951063 -6.44153 2.30776 1.47822 -6.41451 2.57173 2.00183 -6.37375 2.83953 
2.52254 -6.32214 3.10782 3.04125 -6.26157 3.37392 3.55869 -6.19335 3.6364 
4.07532 -6.11829 3.8949 4.59114 -6.03679 4.15079 5.10562 -5.94907 4.40648 
5.61792 -5.85517 4.66509 6.12678 -5.75499 4.93026 6.63081 -5.64878 5.2056 
7.12878 -5.5375 5.49408 7.61961 -5.42322 5.79778 8.10272 -5.31003 6.11753 
8.57731 -5.20398 6.45288 9.04279 -5.11299 6.80221 9.49825 -5.04674 7.16296 
9.94221 -5.01577 7.53192 10.3722 -5.03013 7.90573 10.7847 -5.09839 8.2812 
11.1757 -5.22686 8.655 11.5405 -5.41816 9.02423 11.8743 -5.67203 9.38616 
12.1726 -5.9852 9.73819 12.4322 -6.35207 10.0778 12.6512 -6.76577 10.4027 
12.8296 -7.21877 10.7113 12.9692 -7.70341 11.0023 13.0743 -8.21256 11.2749 
13.1498 -8.73965 11.5292 13.2016 -9.2794 11.766 13.235 -9.82752 11.9862 
13.2547 -10.3808 12.1908 13.2637 -10.9372 12.3809 13.2641 -11.4954 12.5574 

LINES 2 120
OFFSETS vtktypeint64
0 120 
CONNECTIVITY vtktypeint64
0 1 2 3 4 5 6 7 8 
9 10 11 12 13 14 15 16 17 
18 19 20 21 22 23 24 25 26 
27 28 29 30 31 32 33 34 35 
36 37 38 39 40 41 42 43 44 
45 46 47 48 49 50 51 52 53 
54 55 56 57 58 59 60 61 62 
63 64 65 66 67 68 69 70 71 
72 73 74 75 76 77 78 79 80 
81 82 83 84 85 86 87 88 89 
90 91 92 93 94 95 96 97 98 
99 100 101 102 103 104 105 106 107 
108 109 110 111 112 113 114 115 116 
117 118 119 
CELL_DATA 1
FIELD FieldData 2
Length 1 1 double
66.343264707 
Tortuosity 1 1 double
0.61798206155 
POINT_DATA 120
FIELD FieldData 19
Curvature 1 120 double
0 0.093022238259 0.073811073214 0.058138748412 0.044463762256 0.031697132545 0.022914591661 0.033580317699 0.066416691446 
0.11638697134 0.18144513691 0.25252700755 0.30702384065 0.3176825727 0.27909867569 0.21682503354 0.1658359721 0.14783038085 
0.15593049921 0.17022933612 0.17970371202 0.18327555672 0.18471007137 0.18666797292 0.1872543442 0.18193976664 0.16884240582 
0.15066521438 0.13612406496 0.14343782774 0.20314039181 0.36184480593 0.71005394204 1.304978943 1.6241410808 1.1469142471 
0.60643817807 0.31779854736 0.17893351091 0.10639973355 0.061014331403 0.025183755176 0.01213249379 0.056345691289 0.11373550433 
0.18645934511 0.26740454472 0.33546220441 0.36173127114 0.33499569361 0.2738796645 0.2056565642 0.1469113136 0.10280941161 
0.070593483574 0.049038736234 0.036199562472 0.030459591484 0.030553362713 0.034543714217 0.039758601542 0.043369684206 0.042472552403 
0.035778051152 0.025123488098 0.021858639483 0.03773802762 0.061559865274 0.087208679539 0.11242449418 0.13629566833 0.15772223615 
0.17516542955 0.18725676673 0.19314418845 0.19219361951 0.18582522753 0.17565253775 0.16289219042 0.14749249891 0.12984612954 
0.11141949951 0.092466530561 0.073522144371 0.056422066832 0.042229931341 0.032129855585 0.026817387641 0.024358626095 0.022866513547 
0.020437505862 0.018801704614 0.021225612666 0.028516087797 0.037239642875 0.044388319798 0.049100378964 0.051101616959 0.054892205508 
0.064484306201 0.083406041495 0.11076912102 0.14284481338 0.17562721722 0.20449865712 0.22246514764 0.23012893397 0.22636631924 
0.21452127059 0.19806937275 0.17847333228 0.15720688654 0.13472094396 0.11261966403 0.092060185355 0.074503242251 0.061210610636 
0.052387156331 0.046538232895 0 
Torsion 1 120 double
0 0 -0.087637926469 -0.13732279506 -0.26141897835 -0.65365061133 -1.7113069611 -1.1034538747 -0.37217959861 
-0.13834626957 -0.039064941986 0.023201840177 0.081422398558 0.15934279019 0.28983236476 0.51292856047 0.76995169131 0.72149043766 
0.38395942214 0.092272174631 -0.10671682745 -0.24128460936 -0.30666299104 -0.29154912256 -0.21708444864 -0.11487074265 0.013815236126 
0.20226358311 0.49091735368 0.75130134105 0.64413575299 0.35858726328 0.14402437664 0.022119393406 -0.035156978377 -0.090492596018 
-0.15366184011 -0.19678444549 -0.21620719056 -0.2207999329 -0.22832555724 -0.44539875349 -1.5328113152 -0.15622962731 -0.079637207818 
-0.048783027711 -0.033351176807 -0.02687403978 -0.025939105305 -0.029616174632 -0.037203577433 -0.048024798609 -0.065863074789 -0.092001956527 
-0.12785937424 -0.18780464879 -0.24814649871 -0.23879075715 -0.13802968802 -0.037860236693 0.021091784237 0.065004133362 0.13865208281 
0.33747039317 1.0094974842 1.6525396985 0.55837182291 0.15771264305 0.025515046203 -0.025205063942 -0.039183818295 -0.03111630682 
-0.0069712883542 0.02897609592 0.070994463448 0.1145221605 0.15337687569 0.18057003856 0.19231887855 0.18990444478 0.17389966184 
0.14276335946 0.10091759025 0.032730233249 -0.076417223944 -0.22219323116 -0.40043950129 -0.43433715277 -0.27663477733 0.013158404736 
0.40133669916 0.75512792541 0.73148611743 0.45664786243 0.29907836457 0.26101353366 0.32648046158 0.46100322023 0.56148280241 
0.53730124663 0.38397941342 0.22357939805 0.11268339491 0.053120218012 0.012222145087 -0.018537478412 -0.034156235831 -0.040274105708 
-0.038625011836 -0.030421968607 -0.015068933265 0.012226506921 0.039200906094 0.064261379634 0.10262361027 0.13178718186 0.13793929259 
0.11814417991 0 0 
FrenetTangent 3 120 double
-0.74495233405 -0.66684881021 0.018938962998 -0.74495233405 -0.66684881021 0.018938962998 -0.72640699557 -0.68490831601 0.056863656574 
-0.70932195501 -0.69957211951 0.086378317528 -0.69398516457 -0.71182620021 0.10811129476 -0.68068496204 -0.72238271784 0.12178337908 
-0.66980164431 -0.73179155661 0.12588437138 -0.66178473447 -0.74044189078 0.11741708392 -0.65688744809 -0.74837359842 0.091846816681 
-0.65449337667 -0.75481369015 0.043528301777 -0.65205562808 -0.75745441218 -0.032958630897 -0.64410798086 -0.75206387525 -0.1397313012 
-0.62289015115 -0.73400842538 -0.27062795692 -0.58248218139 -0.70283954987 -0.40832716724 -0.52395906415 -0.66632268526 -0.53054780953 
-0.45465360149 -0.6373657001 -0.62213749846 -0.38185215452 -0.62618247285 -0.67976793304 -0.30850419418 -0.63591707599 -0.70741404753 
-0.23359413215 -0.66316593071 -0.71108700577 -0.15444117271 -0.70023347178 -0.69700861485 -0.068651347432 -0.73746627319 -0.67188577035 
0.024751890516 -0.76553916938 -0.64291299883 0.12494774338 -0.77728727473 -0.61661378022 0.22922995369 -0.76874598577 -0.59706217238 
0.33314515361 -0.73968348474 -0.58470731912 0.4313042405 -0.69383387035 -0.57668987549 0.51909548236 -0.63837247244 -0.56834889515 
0.59444180216 -0.58231670347 -0.55456848152 0.65840353558 -0.53429718395 -0.53012385681 0.71446485086 -0.50075627631 -0.48865440612 
0.76673865345 -0.48572955332 -0.41973639149 0.8168560407 -0.49030676483 -0.30388399948 0.85478953135 -0.50816072735 -0.10539227808 
0.83210129935 -0.50953213203 0.21905349584 0.65849935689 -0.42991042149 0.61770189126 0.37501043034 -0.27045164107 0.8866922166 
0.13982194853 -0.12053890512 0.98281239057 -0.0094721169333 -0.011732706616 0.99988630483 -0.098681551033 0.065185237723 0.9929817905 
-0.15081302289 0.12042172908 0.98120030539 -0.17934389432 0.15880574969 0.97088439138 -0.19178363865 0.18111340337 0.9645812413 
-0.19224847019 0.18549417754 0.96365576624 -0.18264389599 0.16798243507 0.96872241058 -0.16318627952 0.12322258418 0.97886997754 
-0.13293417157 0.045581494258 0.99007617556 -0.090834550999 -0.06785385127 0.99355167919 -0.037882231684 -0.21184198277 0.97656946034 
0.020680114584 -0.36918561756 0.92912556345 0.076327233133 -0.51590727825 0.85323726696 0.12180442576 -0.63453256004 0.76323791318 
0.15442701632 -0.72093315374 0.6755795175 0.17534341926 -0.78009325463 0.60059070872 0.18710706166 -0.81963318439 0.54147242823 
0.19228535922 -0.84593755427 0.49740928309 0.1929657395 -0.86360367353 0.46578205037 0.19049688461 -0.87599822782 0.44310048725 
0.18567709142 -0.88550549835 0.42591551993 0.17889093333 -0.89387313523 0.41108253682 0.17026661035 -0.90232357427 0.39600687962 
0.16001982034 -0.91141674345 0.37909520817 0.14882728268 -0.92099523833 0.36002529202 0.13809029511 -0.9303038468 0.33980262363 
0.12997911185 -0.9382988499 0.32046949741 0.12718539116 -0.94400572075 0.30442909762 0.13250594395 -0.94666438647 0.29371536258 
0.1484071619 -0.94565537673 0.28932891794 0.176691573 -0.94028705902 0.29093011992 0.21830913967 -0.92958109406 0.29701870159 
0.27319603589 -0.91222759086 0.30529452738 0.34019363531 -0.88666387695 0.31320194732 0.41700761765 -0.85123464434 0.31859728042 
0.50010351428 -0.80456108777 0.32027789659 0.58494631724 -0.74596877827 0.31838402565 0.66660522632 -0.675837646 0.31445341228 
0.74038355245 -0.59593177029 0.31096224919 0.80261121347 -0.50925446094 0.31060446556 0.85120556541 -0.41943920825 0.31546764652 
0.88561669939 -0.33034254414 0.32643049075 0.90659754748 -0.24582175559 0.34300517691 0.9160429514 -0.16934784858 0.3635747755 
0.91676305987 -0.10312468087 0.38588961148 0.91191593661 -0.047966973837 0.407564098 0.90445660726 -0.003769409125 0.42654898562 
0.89686704936 0.030716456019 0.44123235953 0.89077261745 0.057458485691 0.45080224759 0.88689070009 0.078446566532 0.45527027389 
0.88527863698 0.095544863504 0.4551405431 0.88537435632 0.11004768345 0.45166553614 0.88630112693 0.12280412905 0.44653046738 
0.88692916554 0.13449575023 0.44189087849 0.88612957149 0.14554151038 0.43999096729 0.8831332799 0.15621580004 0.4423485433 
0.87732039753 0.16674570132 0.45000532349 0.86832513625 0.17693414258 0.46336353649 0.85631847827 0.18587022393 0.48184118092 
0.84194169922 0.19205788353 0.50423005116 0.82638367001 0.19300136313 0.52899953098 0.81102675141 0.18566129463 0.5547661599 
0.79697297556 0.16704987187 0.58045535275 0.78478733912 0.13399280971 0.60510722959 0.7738436332 0.083648148719 0.62782881312 
0.76189753199 0.014475890985 0.64753579 0.74524519598 -0.073086229438 0.66277296334 0.71990650455 -0.17626166075 0.6713169532 
0.68270357321 -0.28884643147 0.67118072839 0.63224870705 -0.40291573121 0.66175560895 0.56976171499 -0.51110561476 0.64353915086 
0.49863722555 -0.60772471874 0.61808703557 0.42302084977 -0.68995195999 0.58738373621 0.3470963384 -0.75712815744 0.55342667543 
0.2747589583 -0.81006385513 0.51798075779 0.20946986 -0.85056446672 0.48235097773 0.15349271939 -0.88080482715 0.44790941222 
0.10772169361 -0.90307909515 0.41574533627 0.072034863181 -0.91957108316 0.38626416026 0.044986529718 -0.93206317456 0.35949193422 
0.02434070715 -0.94188984945 0.33503886562 0.0079834182094 -0.94991867421 0.3123952263 0.0079834182094 -0.94991867421 0.3123952263 

FrenetNormal 3 120 double
0.3768894131 -0.39726797246 0.83673922362 0.3768894131 -0.39726797246 0.83673922362 0.43248647808 -0.39124819088 0.8123301665 
0.49058033271 -0.40195403876 0.77315191772 0.5613850101 -0.44095551027 0.70028930336 0.66523429539 -0.53988979839 0.51573475531 
0.72598612414 -0.68098769372 -0.095916153794 0.34175197994 -0.43735534553 -0.83182082563 0.09355545582 -0.20177329607 -0.97495380079 
0.027677548945 -0.081452824664 -0.99629282374 0.042170649801 0.0071698759558 -0.9990846957 0.10651687557 0.09270854145 -0.98997943492 
0.20871488466 0.17747334542 -0.96173869039 0.3395914411 0.24598596939 -0.90783729599 0.49497109234 0.26871967999 -0.82631310732 
0.67932128737 0.20360379558 -0.70503055462 0.86892713286 0.0073549113802 -0.49488538375 0.94905921623 -0.2559068039 -0.18384317179 
0.90929647849 -0.40802583915 0.081821933385 0.87686371933 -0.42221634668 0.22987686773 0.89266624962 -0.34612297801 0.28869681481 
0.93741077152 -0.20567590931 0.28099549067 0.97459356933 -0.020286811502 0.22306012619 0.9733591283 0.17784715896 0.14471487622 
0.93166209753 0.35359900387 0.083507367898 0.87036183232 0.48830890214 0.063440499138 0.81227931538 0.57537740838 0.095619829154 
0.7737329398 0.60203631243 0.19720450394 0.74936774807 0.5311921177 0.3953263364 0.67629453033 0.31523594312 0.66577173896 
0.50216227694 0.046476380685 0.86352359184 0.29995149458 -0.088947222518 0.94979865893 0.079427759554 -0.072588017379 0.99419425202 
-0.21497510334 0.06777794799 0.97426477649 -0.55113536295 0.28343473827 0.78480224315 -0.76091311481 0.45654162589 0.46106504481 
-0.81246907159 0.55338671439 0.18345885654 -0.78307979025 0.62192123902 -0.00012061761923 -0.71565588599 0.68869708075 -0.11633135357 
-0.62423727585 0.75803334453 -0.18897955453 -0.5180941436 0.82369807405 -0.23043424479 -0.36657779517 0.89847474389 -0.24158612269 
0.64284244571 -0.71815054911 0.26648335559 0.42428466996 -0.87536096664 0.23178804311 0.3734355632 -0.91063521994 0.17688803336 
0.35190025033 -0.93168700148 0.090141805414 0.3449450181 -0.93805910273 -0.032527746344 0.34017251207 -0.92163688101 -0.18673007682 
0.32889016036 -0.87508944754 -0.35503481692 0.30684793883 -0.80204989237 -0.51240639397 0.27449289147 -0.71743838478 -0.64026230295 
0.23472217996 -0.63743489897 -0.73388163065 0.18890071351 -0.5720488691 -0.79817079112 0.13073837511 -0.5255262112 -0.84067215882 
0.059861616726 -0.49581299687 -0.86636369902 -0.037864068003 -0.48090422684 -0.87595515693 -0.17137535644 -0.47411012245 -0.86362612223 
-0.3174294 -0.46426716894 -0.82685825379 -0.422895229 -0.44711527342 -0.78819258913 -0.46788594991 -0.42771364649 -0.77339755267 
-0.47355124517 -0.40784574845 -0.7806478487 -0.45598056827 -0.38697931648 -0.80145413467 -0.41173792698 -0.36595985402 -0.83459287364 
-0.29999166251 -0.34527824661 -0.88926257924 0.039510528596 -0.30185623968 -0.9525343714 0.79318805621 -0.076425765155 -0.60416207255 
0.98887586523 0.13895024547 -0.053078738236 0.96836283944 0.21898911184 0.11965441943 0.950095125 0.27195927718 0.15283129593 
0.9365606622 0.32467792024 0.13205443626 0.91903806825 0.38401470045 0.088891726004 0.89136102778 0.45154681782 0.039761658313 
0.84999541396 0.52677533293 -0.0039426972247 0.79325379009 0.60800441883 -0.032848914552 0.72069152038 0.69208182727 -0.040329602326 
0.63282295836 0.77393891587 -0.023529935778 0.530692073 0.84737364554 0.017995235106 0.4168515644 0.90551805763 0.079194826654 
0.29590424775 0.9431087373 0.1516132771 0.17442265019 0.9584188778 0.22585392133 0.059535703301 0.95385965939 0.29429109775 
-0.041527360405 0.93625413282 0.34886054107 -0.12375680698 0.91476504763 0.38456359729 -0.18436607914 0.89828323304 0.39886887833 
-0.21151725421 0.90590504375 0.36687396048 -0.20261368951 0.93814037424 0.28078520448 -0.14057421986 0.98457195152 0.10419674177 
-0.034156038056 0.98938321743 -0.14125938597 0.052020495968 0.94202168693 -0.33149511212 0.083833399936 0.90572659078 -0.41548923429 
0.012152500022 0.94954387842 -0.31339869128 -0.1591414612 0.98723722334 -0.0060547647023 -0.34512914379 0.85501323258 0.38708945506 
-0.44526195921 0.63262969422 0.63365720833 -0.48970035931 0.45418949271 0.74424825348 -0.51644810329 0.30793198782 0.79903644941 
-0.53309722738 0.15179364207 0.83232567928 -0.52358129515 -0.082398146628 0.84798182339 -0.46273780159 -0.3766019301 0.80252396427 
-0.34743240165 -0.65931879908 0.66677541006 -0.23220590181 -0.84166116611 0.48753143552 -0.1689074348 -0.92808952526 0.33184350463 
-0.16499821404 -0.96242864724 0.21565409417 -0.20532084903 -0.97083143132 0.12381308861 -0.27028198397 -0.96206051776 0.037245258901 
-0.35604391229 -0.93362826701 -0.039635735931 -0.44891999432 -0.8866576525 -0.11094613996 -0.5389186998 -0.82356316569 -0.17694730042 
-0.61892705324 -0.74884654403 -0.23697712179 -0.68455361253 -0.66805225256 -0.29170625536 -0.73402623728 -0.58661943931 -0.34217410249 
-0.76519966756 -0.51042268564 -0.39234952624 -0.77441293621 -0.44548484371 -0.44925255509 -0.77046782254 -0.3904974408 -0.50387605932 
-0.74546998909 -0.35004989273 -0.56722091637 -0.70049324935 -0.3223271044 -0.63672163885 -0.64272392867 -0.30249254433 -0.70384956641 
-0.58489061754 -0.28521004904 -0.75931429161 -0.53703950387 -0.26760115486 -0.79998637063 -0.53703950387 -0.26760115486 -0.79998637063 

FrenetBinormal 3 120 double
-0.5504547123 0.63046873227 0.54727396004 -0.5504547123 0.63046873227 0.54727396004 -0.53412388362 0.61467507822 0.58041900827 
-0.5061554122 0.59078913355 0.62831114774 -0.45081200271 0.54668244774 0.70562514096 -0.30680827025 0.43206737271 0.84804862523 
0.15591633923 0.02714550934 0.98739719287 0.66726797423 -0.51035880331 0.54248257341 0.74816191913 -0.6318421434 0.20255677867 
0.75556096589 -0.65086229766 0.074201727107 0.7569974202 -0.65284868564 0.027267186787 0.75748205537 -0.65253739654 0.020393182776 
0.75395355064 -0.65554164104 0.042652084887 0.73850671053 -0.66746345968 0.095395851556 0.69315980613 -0.69556007123 0.18901235533 
0.5760318491 -0.74317592719 0.34040688898 0.31488818628 -0.77964185109 0.54129845203 -0.064123055689 -0.72809421107 0.68247128404 
-0.34440339085 -0.62747578673 0.69832688724 -0.45525590813 -0.57567911339 0.67921691419 -0.44545926781 -0.57995032546 0.68207306113 
-0.34734477017 -0.60962873987 0.71253379581 -0.18589092512 -0.62881868437 0.75500438816 -0.0050631690927 -0.61432890002 0.78903381861 
0.1449829047 -0.57256972227 0.80693486136 0.23758563292 -0.52929101301 0.81449621889 0.2659740476 -0.51129387279 0.81721256822 
0.21903488696 -0.54631450225 0.8084331654 0.070375865862 -0.65754197837 0.7501238459 -0.1793479443 -0.80614480827 0.56388373179 
-0.39993110023 -0.87287269809 0.27955029601 -0.49272234542 -0.86699923182 0.074411170898 -0.51286069074 -0.85819791127 -0.02168540929 
-0.51126620518 -0.85777803434 -0.053138604151 -0.51247283701 -0.85722912844 -0.050297243306 -0.52950770424 -0.84759993728 -0.034582329013 
-0.56598924939 -0.82415624531 -0.020558523639 -0.62184911441 -0.78299190037 -0.015078556135 -0.69144674729 -0.72211302146 -0.021311497064 
-0.76653979386 -0.64100238358 -0.039149568024 -0.83630988631 -0.54433649213 -0.065448891464 -0.91040636863 -0.39992633035 -0.10592060353 
0.74148102855 0.67070984704 0.018819813678 0.88691810563 0.45334873949 0.088606965321 0.91319007787 0.39441056142 0.10258747842 
0.92654990143 0.36039098025 0.10781290047 0.93421732955 0.33976605872 0.10861402536 0.93959970123 0.32512833451 0.1069764813 
0.94414172415 0.31292241625 0.10332456692 0.94869304621 0.30092465899 0.097086835838 0.95384345382 0.28749016381 0.086787506659 
0.95971755994 0.27190464764 0.07078183191 0.96621488591 0.25340600907 0.047055167717 0.97360075223 0.22808692289 0.0088278455068 
0.97951157598 0.19636477894 -0.044698390561 0.98047464818 0.1513929314 -0.12549758799 0.96661337884 0.088581581812 -0.24044100983 
0.92992612273 0.018330527637 -0.36728925661 0.88834546167 -0.032844335635 -0.45799955278 0.86723239058 -0.053602275296 -0.49500987547 
0.86610788895 -0.054601879373 -0.49686593712 0.8774577832 -0.044886296188 -0.47754901227 0.9007790794 -0.024660451615 -0.43357688158 
0.94504520151 0.01944738294 -0.32636079175 0.99109171846 0.13317661118 -0.0010935388927 0.59438613906 0.31302658324 0.74075601643 
0.0099918700335 0.29398764896 0.95575699045 -0.17622003071 0.26058398942 0.949232577 -0.22284607467 0.24883155169 0.94256166159 
-0.21958609246 0.24985009622 0.94305719732 -0.19909123439 0.25760411322 0.94551721362 -0.17770808921 0.26740428492 0.94705585022 
-0.16554235484 0.27420650004 0.94731543009 -0.16907462982 0.27177418664 0.94739250632 -0.19037122866 0.25350783147 0.94841582372 
-0.22664354973 0.21420522791 0.95013094977 -0.27236219206 0.15039215023 0.95036889547 -0.31887906591 0.06409210477 0.94562590036 
-0.35794376362 -0.037679081238 0.93298260912 -0.38426244418 -0.14493073918 0.91177708615 -0.39663687578 -0.24793760579 0.88385866088 
-0.39726687553 -0.33584743407 0.85404070783 -0.39127174353 -0.40112850441 0.82825258567 -0.38466530184 -0.43940075648 0.81176325414 
-0.38844555209 -0.42236542358 0.81897344403 -0.40678229661 -0.34145447815 0.84731163247 -0.4400724654 -0.15641038483 0.88423527227 
-0.46380502367 0.10950811896 0.87914326017 -0.46195899945 0.31699313672 0.82831710963 -0.45545831144 0.40568274383 0.79245141043 
-0.4617455707 0.28333251865 0.84054370012 -0.43525668044 -0.064655499396 0.8979817863 -0.31774436902 -0.49451895407 0.80900526575 
-0.17902711459 -0.7562906459 0.62926445248 -0.078771922989 -0.87315875641 0.48102886634 0.00014277112352 -0.93307564041 0.35968017582 
0.083315792466 -0.96957333895 0.23018692214 0.20725022874 -0.97773259088 0.032959420858 0.35792364475 -0.9075796769 -0.21952174063 
0.49408987291 -0.73307097984 -0.46742072697 0.57462096335 -0.52311796796 -0.62941110578 0.61043943994 -0.3628399376 -0.70406737593 
0.62632877957 -0.27114857099 -0.73088351489 0.63439179284 -0.22835221703 -0.73851358698 0.63928262439 -0.20825798213 -0.74023397587 
0.63808194118 -0.21191035384 -0.74023336744 0.63145261986 -0.22692977067 -0.74146508215 0.62043389909 -0.2459974851 -0.74467913505 
0.60686919518 -0.26438517304 -0.74954003243 0.59366633072 -0.27869783054 -0.75490913825 0.58372049378 -0.28746232211 -0.75936539196 
0.58221729929 -0.28855715654 -0.76010379805 0.59699830987 -0.27943396713 -0.75200377395 0.61872394452 -0.26775848295 -0.73857029136 
0.65777696227 -0.24882367353 -0.7109263305 0.71001421542 -0.22470928059 -0.66737212492 0.76477589113 -0.19939031885 -0.61266739516 
0.81074687511 -0.17747884221 -0.55784474998 0.84351931591 -0.16138195158 -0.51228022545 0.84351931591 -0.16138195158 -0.51228022545 

plain_curvature_peaks 1 120 unsigned_char
0 0 0 0 0 0 0 0 0 
0 0 0 0 0 0 1 0 0 
0 0 0 0 0 0 0 0 0 
0 0 0 0 0 0 0 0 0 
0 1 0 0 0 0 0 0 0 
0 0 0 0 0 0 0 0 0 
0 0 0 1 0 0 0 0 0 
0 0 0 0 0 0 0 0 0 
0 0 0 0 0 0 0 0 0 
0 0 0 0 0 0 0 0 0 
0 0 0 0 0 0 0 0 0 
0 1 0 0 0 0 0 0 0 
0 0 0 0 0 0 0 0 0 
0 0 0 
weighted_curvature_peaks 1 120 unsigned_char
0 0 0 0 0 0 0 0 0 
0 0 0 0 0 0 0 0 1 
0 0 0 0 0 0 0 0 0 
0 0 0 0 0 0 0 0 0 
0 0 0 0 1 0 0 0 0 
0 0 0 0 0 0 0 0 0 
0 0 0 0 0 0 0 0 0 
1 0 0 0 0 0 0 0 0 
0 0 0 0 0 0 0 0 0 
0 0 0 0 0 0 0 0 0 
0 0 0 0 0 0 0 0 0 
0 0 0 0 0 1 0 0 0 
0 0 0 0 0 0 0 0 0 
0 0 0 
plain_torsion_tp 1 120 unsigned_char
0 0 0 0 0 0 0 0 0 
0 0 0 0 0 0 1 0 0 
0 0 0 0 0 0 0 0 0 
0 0 0 0 0 0 0 0 0 
0 1 0 0 0 0 0 0 0 
0 0 0 0 0 0 0 0 0 
0 0 0 1 0 0 0 0 0 
0 0 0 0 0 0 0 0 0 
0 0 0 0 0 0 0 0 0 
0 0 0 0 0 0 0 0 0 
0 0 0 0 0 0 0 0 0 
0 1 0 0 0 0 0 0 0 
0 0 0 0 0 0 0 0 0 
0 0 0 
plain_torsion_tn 1 120 unsigned_char
0 2 0 0 0 0 0 0 0 
0 0 0 0 0 0 0 0 0 
0 0 0 0 0 0 0 0 2 
0 0 0 0 0 0 0 0 0 
0 0 0 0 0 0 0 2 0 
0 0 0 0 0 0 0 0 0 
0 0 0 0 0 0 0 0 0 
0 0 0 0 0 0 0 0 0 
0 0 2 0 0 0 0 0 0 
0 0 0 0 0 0 0 0 0 
0 0 0 0 0 0 0 0 0 
0 0 0 0 0 0 0 0 0 
0 0 0 0 0 0 0 0 0 
0 0 0 
plain_torsion_tz 1 120 unsigned_char
0 3 0 0 0 0 0 0 0 
0 0 0 0 0 0 0 0 0 
0 0 0 0 0 3 0 0 0 
0 0 0 3 0 0 0 0 0 
0 0 0 0 0 0 0 0 0 
0 0 0 0 3 0 0 0 0 
0 0 0 0 0 0 0 0 0 
0 0 0 3 0 0 0 0 0 
0 0 0 0 0 0 0 0 0 
3 0 0 0 0 0 0 0 0 
0 0 0 0 0 0 0 0 0 
0 0 0 0 0 0 0 0 0 
0 0 0 0 0 0 0 0 0 
0 0 0 
weighted_torsion_tp 1 120 unsigned_char
0 0 0 0 0 0 0 0 0 
0 0 0 0 0 0 0 0 1 
0 0 0 0 0 0 0 0 0 
0 0 0 0 0 0 0 0 0 
0 0 0 0 1 0 0 0 0 
0 0 0 0 0 0 0 0 0 
0 0 0 0 0 0 0 0 0 
1 0 0 0 0 0 0 0 0 
0 0 0 0 0 0 0 0 0 
0 0 0 0 0 0 0 0 0 
0 0 0 0 0 0 0 0 0 
0 0 0 0 0 1 0 0 0 
0 0 0 0 0 0 0 0 0 
0 0 0 
weighted_torsion_tn 1 120 unsigned_char
0 0 0 0 2 0 0 0 0 
0 0 0 0 0 0 0 0 0 
0 0 0 0 0 0 0 0 0 
0 2 0 0 0 0 0 0 0 
0 0 0 0 0 0 0 0 0 
0 0 0 2 0 0 0 0 0 
0 0 0 0 0 0 0 0 0 
0 0 0 0 0 0 0 0 0 
0 0 0 0 0 0 0 2 0 
0 0 0 0 0 0 0 0 0 
0 0 0 0 0 0 0 0 0 
0 0 0 0 0 0 0 0 0 
0 0 0 0 0 0 0 0 0 
0 0 0 
weighted_torsion_tz 1 120 unsigned_char
0 0 0 0 3 0 0 0 0 
0 0 0 0 0 0 0 0 0 
0 0 0 0 3 0 0 0 0 
0 0 0 0 0 0 0 3 0 
0 0 0 0 0 0 0 0 0 
0 0 0 0 0 0 0 0 3 
0 0 0 0 0 0 0 0 0 
0 0 0 0 0 0 0 3 0 
0 0 0 0 0 0 0 0 0 
0 0 0 0 0 3 0 0 0 
0 0 0 0 0 0 0 0 0 
0 0 0 0 0 0 0 0 0 
0 0 0 0 0 0 0 0 0 
0 0 0 
plain_torsion_tp_raw 1 120 unsigned_char
0 0 0 0 0 0 0 0 0 
0 0 0 0 0 0 0 0 0 
0 0 0 1 0 0 0 0 0 
0 1 0 0 0 0 0 0 0 
0 0 0 0 0 0 0 0 0 
0 1 0 0 0 0 0 0 0 
0 0 0 0 0 1 0 0 0 
0 0 0 0 0 0 0 0 0 
0 0 0 0 0 0 0 0 0 
0 0 0 0 0 0 1 0 0 
0 0 0 0 0 0 0 0 0 
0 0 0 0 1 0 0 0 0 
0 0 0 0 0 0 0 0 0 
0 0 0 
plain_torsion_tn_raw 1 120 unsigned_char
0 0 0 0 0 0 0 0 0 
0 0 2 0 0 0 0 0 0 
0 0 0 0 0 2 0 0 0 
0 0 0 0 0 0 0 0 0 
0 0 0 2 0 0 0 0 0 
0 0 0 0 0 0 0 2 0 
0 0 0 0 0 0 0 0 0 
0 0 0 0 0 0 0 0 0 
0 0 0 2 0 0 0 0 0 
0 0 0 0 0 0 0 0 0 
0 0 0 0 2 0 0 0 0 
0 0 0 0 0 0 0 0 0 
0 0 0 0 0 0 0 0 0 
0 0 0 
plain_torsion_tz_raw 1 120 unsigned_char
0 3 0 0 0 0 0 0 0 
0 0 0 0 0 0 0 3 0 
0 0 0 3 0 0 0 3 0 
0 0 0 0 0 0 0 0 0 
0 0 0 0 0 0 0 0 0 
0 0 0 0 0 0 0 0 0 
0 0 0 0 0 0 0 0 0 
0 0 0 0 0 0 0 0 0 
0 0 0 0 0 0 0 0 0 
0 0 0 0 0 0 0 0 0 
0 0 0 0 0 0 0 0 0 
0 0 0 0 0 0 0 0 0 
0 0 0 0 0 0 0 0 0 
0 0 0 
weighted_torsion_tp_raw 1 120 unsigned_char
0 0 0 0 0 0 0 0 0 
0 0 0 0 0 0 0 0 0 
0 0 0 1 0 0 0 0 0 
0 0 0 0 1 0 0 0 0 
0 0 0 0 0 0 0 0 0 
0 0 0 0 0 0 1 0 0 
0 0 0 0 0 0 0 0 0 
0 0 1 0 0 0 0 0 0 
0 0 0 0 0 0 0 0 0 
0 0 0 0 0 0 0 0 0 
0 0 1 0 0 0 0 0 0 
0 0 0 0 0 0 0 0 0 
1 0 0 0 0 0 0 0 0 
0 0 0 
weighted_torsion_tn_raw 1 120 unsigned_char
0 0 0 0 0 0 0 0 0 
0 0 0 0 2 0 0 0 0 
0 0 0 0 0 2 0 0 0 
0 0 0 0 0 0 0 0 0 
0 0 0 0 0 0 0 2 0 
0 0 0 0 0 0 0 0 0 
0 0 0 2 0 0 0 0 0 
0 0 0 0 0 0 0 0 0 
0 0 0 0 0 0 0 0 2 
0 0 0 0 0 0 0 0 0 
0 0 0 0 0 0 0 0 0 
2 0 0 0 0 0 0 0 0 
0 0 0 0 0 0 0 0 0 
0 0 0 
weighted_torsion_tz_raw 1 120 unsigned_char
0 0 0 0 3 0 0 0 0 
0 0 0 0 0 0 0 0 0 
3 0 0 3 0 0 0 0 3 
0 0 0 0 0 0 0 0 0 
0 0 0 0 0 0 0 0 0 
0 0 0 0 0 0 0 0 0 
0 0 0 0 0 0 0 0 0 
0 0 0 0 0 0 0 0 0 
0 0 0 0 0 0 0 0 0 
0 0 0 0 0 0 0 0 0 
0 0 0 0 0 0 0 0 0 
0 0 0 0 0 0 0 0 0 
0 0 0 0 0 0 0 0 0 
0 0 0 
