# vtk DataFile Version 5.1
vtk output
ASCII
DATASET POLYDATA
POINTS 120 float
0 0 0 -0.115235 -0.528465 -0.803154 -0.355513 -0.99655 -1.35807 
-0.694014 -1.41327 -1.7007 -1.10432 -1.78753 -1.86735 -1.56132 -2.12791 -1.89528 
-2.04286 -2.44224 -1.82329 -2.53114 -2.73714 -1.6915 -3.01273 -3.01813 -1.54008 
-3.47873 -3.28974 -1.40739 -3.92599 -3.55569 -1.3263 -4.35715 -3.81969 -1.31996 
-4.77839 -4.0864 -1.3993 -5.19655 -4.3613 -1.56699 -5.6165 -4.64978 -1.81942 
-6.03892 -4.95527 -2.14655 -6.45965 -5.2763 -2.53541 -6.87095 -5.60556 -2.97342 
-7.26316 -5.93122 -3.44985 -7.62544 -6.23924 -3.95607 -7.94625 -6.51708 -4.48464 
-8.21366 -6.75699 -5.02815 -8.41603 -6.95774 -5.57855 -8.54272 -7.12533 -6.1272 
-8.585 -7.27203 -6.66554 -8.53716 -7.41443 -7.18608 -8.39745 -7.57086 -7.68351 
-8.16882 -7.75829 -8.15564 -7.85947 -7.98921 -8.60411 -7.48205 -8.27005 -9.03371 
-7.05181 -8.6015 -9.45055 -6.58518 -8.9799 -9.85977 -6.09875 -9.39898 -10.2635 
-5.60888 -9.85108 -10.6594 -5.13145 -10.3278 -11.0385 -4.68132 -10.8197 -11.3818 
-4.2713 -11.3157 -11.662 -3.91074 -11.8026 -11.8483 -3.60368 -12.2653 -11.9138 
-3.3474 -12.6888 -11.8425 -3.13281 -13.0609 -11.6325 -2.94724 -13.3736 -11.2937 
-2.77726 -13.6242 -10.8435 -2.61086 -13.8149 -10.3045 -2.4392 -13.952 -9.70075 
-2.25796 -14.0439 -9.05615 -2.06866 -14.1007 -8.39208 -1.87875 -14.1321 -7.72627 
-1.70008 -14.147 -7.07236 -1.54667 -14.1534 -6.44023 -1.43215 -14.1599 -5.8362 
-1.36715 -14.1763 -5.26344 -1.35782 -14.2152 -4.72277 -1.40542 -14.2908 -4.21323 
-1.50605 -14.4171 -3.73201 -1.65083 -14.6052 -3.27433 -1.82747 -14.8603 -2.83379 
-2.02167 -15.1794 -2.40301 -2.2193 -15.5519 -1.97494 -2.40825 -15.9629 -1.54438 
-2.57941 -16.3972 -1.10925 -2.72697 -16.8431 -0.671276 -2.84829 -17.2944 -0.236102 
-2.94362 -17.7504 0.187587 -3.01574 -18.2147 0.589326 -3.06929 -18.6936 0.958323 
-3.1097 -19.1937 1.28512 -3.14091 -19.7203 1.56317 -3.16342 -20.276 1.78962 
-3.17292 -20.8607 1.96564 -3.16045 -21.4705 2.09619 -3.11418 -22.0995 2.18907 
-3.02197 -22.7401 2.25373 -2.87367 -23.3837 2.30005 -2.6633 -24.0217 2.33733 
-2.39025 -24.6454 2.37343 -2.0584 -25.2461 2.41419 -1.67392 -25.8152 2.46355 
-1.24328 -26.3443 2.52391 -0.77216 -26.8266 2.59652 -0.265265 -27.2571 2.68182 
0.273432 -27.6341 2.77965 0.840046 -27.9591 2.88948 1.43044 -28.2362 3.01058 
2.04014 -28.4712 3.14223 2.66441 -28.6713 3.28377 3.29849 -28.8438 3.43476 
3.93779 -28.9962 3.59512 4.57827 -29.1349 3.7652 5.21671 -29.2652 3.94569 
5.85112 -29.3905 4.13741 6.48068 -29.5128 4.3408 7.1058 -29.6331 4.55548 
7.72777 -29.7522 4.7798 8.34836 -29.8713 5.01087 8.96934 -29.9926 5.24478 
9.59194 -30.1196 5.4771 10.2165 -30.2572 5.70344 10.842 -30.4111 5.9201 
11.4655 -30.5883 6.12472 12.082 -30.7958 6.31693 12.6845 -31.0405 6.49876 
13.2644 -31.328 6.67448 13.8127 -31.662 6.85 14.321 -32.0433 7.03217 
14.783 -32.47 7.22752 15.1949 -32.9373 7.44164 15.5553 -33.4389 7.67846 
15.8652 -33.9672 7.93969 16.1274 -34.5153 8.22441 16.3454 -35.0772 8.52898 
16.5227 -35.6491 8.84729 16.6628 -36.229 9.17139 16.7686 -36.8163 9.49223 
16.8426 -37.4117 9.80019 16.8874 -38.0166 10.0855 16.9053 -38.6331 10.3385 
16.8985 -39.2635 10.5499 16.8695 -39.9103 10.7104 16.8206 -40.5758 10.811 

LINES 2 120
OFFSETS vtktypeint64
0 120 
CONNECTIVITY vtktypeint64
0 1 2 3 4 5 6 7 8 
9 10 11 12 13 14 15 16 17 
18 19 20 21 22 23 24 25 26 
27 28 29 30 31 32 33 34 35 
36 37 38 39 40 41 42 43 44 
45 46 47 48 49 50 51 52 53 
54 55 56 57 58 59 60 61 62 
63 64 65 66 67 68 69 70 71 
72 73 74 75 76 77 78 79 80 
81 82 83 84 85 86 87 88 89 
90 91 92 93 94 95 96 97 98 
99 100 101 102 103 104 105 106 107 
108 109 110 111 112 113 114 115 116 
117 118 119 
CELL_DATA 1
FIELD FieldData 2
Length 1 1 double
76.080617831 
Tortuosity 1 1 double
0.68189609394 
POINT_DATA 120
FIELD FieldData 19
Curvature 1 120 double
0 0.26989675947 0.42289742213 0.51573219306 0.46112765139 0.32253632984 0.18612236277 0.070251161306 0.042259227751 
0.16114684634 0.27758498327 0.3404872586 0.32409442057 0.25265477714 0.17367911762 0.1200827242 0.093402406075 0.086206377112 
0.094279961038 0.11360758812 0.14019182972 0.17217528369 0.20962648683 0.25367218979 0.29959009921 0.32997040836 0.32156225989 
0.2687801119 0.19595891325 0.1309081896 0.085300209701 0.05966624275 0.050465260824 0.053773867265 0.070711269766 0.10937134639 
0.1845596517 0.3169494044 0.50547377793 0.65163036301 0.61753385347 0.45086170898 0.29005919253 0.18338230638 0.11929396007 
0.079749337713 0.053021066272 0.037756081425 0.046744497707 0.080190661162 0.12860443147 0.18803816129 0.25163903574 0.29900284815 
0.30400705157 0.26219505389 0.19359549315 0.12826646106 0.084478541621 0.066167717169 0.063828122073 0.065072542917 0.068195504671 
0.079637902813 0.10326190054 0.13318865612 0.15772659755 0.16735489695 0.16035285476 0.14442191985 0.1318245041 0.12954101116 
0.1347495855 0.13959512039 0.13910266184 0.13480515491 0.13127166349 0.13149253365 0.13545072988 0.14047463839 0.14223564754 
0.13701256489 0.12456424604 0.10711764832 0.087252917182 0.067496788133 0.049873415185 0.036644524531 0.029538114633 0.028110556751 
0.028387302685 0.027094345385 0.02267011362 0.015056306319 0.0070616716141 0.012801868992 0.026394260528 0.041342011378 0.05675982242 
0.072643518265 0.089429435463 0.10751197807 0.12559291308 0.14155180796 0.15224789461 0.15542048733 0.1513432229 0.14097567433 
0.12673762058 0.11098511013 0.096003002339 0.083790250645 0.076697349318 0.076725264908 0.084136178061 0.097325581735 0.11367286177 
0.13059445739 0.14569434476 0 
Torsion 1 120 double
0 0 -0.035726331244 -0.043809660429 -0.053276618853 -0.053978481923 -0.020989347655 0.28555203279 0.9494842358 
0.018602603324 -0.0069084441062 0.0067152284564 0.033070996434 0.07414861874 0.11029849487 0.070170991745 -0.056240641677 -0.15270917152 
-0.12181932588 -0.013244448881 0.10183454978 0.21124764758 0.30611174415 0.36090866416 0.36282214927 0.32836247007 0.28522328913 
0.25619232148 0.25295138882 0.28415658934 0.35530842813 0.41006470078 0.29266754425 -0.016543328422 -0.25238765224 -0.28470612854 
-0.24395898638 -0.20763410559 -0.18246915327 -0.17433733655 -0.18899321297 -0.22041956035 -0.25211448165 -0.26457153807 -0.22744160923 
-0.082379126901 0.28945904792 1.0466530642 0.91666033231 0.46963302412 0.35013976722 0.33095682224 0.32435206146 0.31782625315 
0.31811513108 0.33448729417 0.39577843019 0.54010104649 0.74024301967 0.6683565528 0.25085000846 -0.16631153689 -0.48485057806 
-0.56530750899 -0.42006804033 -0.23965871415 -0.090526262851 0.046268866398 0.19902087611 0.36493396307 0.47302731454 0.44653248216 
0.33799300304 0.23848631895 0.17251184426 0.12874390062 0.09346059001 0.061938258337 0.036616857769 0.020137957169 0.013632607495 
0.015532477111 0.024388650833 0.041264865967 0.072393391138 0.13224048378 0.24547469076 0.41535522349 0.49997266833 0.35288210976 
0.17080335304 0.068199221037 0.073668312558 0.33537171014 2.2926673968 0.66996130139 0.029989781269 -0.1127006666 -0.17761773739 
-0.2167837796 -0.2323731618 -0.22508050984 -0.20727862755 -0.1843933163 -0.1647323075 -0.14930715091 -0.13132803012 -0.10402855178 
-0.056107707769 0.020904938785 0.1291737414 0.25618536921 0.36588064371 0.40111539865 0.35013395207 0.26828047463 0.1988766888 
0.14893637646 0 0 
FrenetTangent 3 120 double
-0.20650284629 -0.57885534382 -0.78884920321 -0.20650284629 -0.57885534382 -0.78884920321 -0.41732157907 -0.63797809782 -0.6471681747 
-0.62276832708 -0.65784247095 -0.42355978822 -0.76044650959 -0.626591029 -0.17060125566 -0.81955596938 -0.57170609938 0.038472704304 
-0.83368692467 -0.52371727837 0.1751751237 -0.83395468357 -0.4951938302 0.2435213672 -0.83624964255 -0.4876698303 0.25072828311 
-0.84477419558 -0.49724090254 0.19775753668 -0.85315612764 -0.51469889369 0.084909779747 -0.84667310196 -0.52714972999 -0.072510830876 
-0.81569737975 -0.5263207083 -0.24005061275 -0.76625983664 -0.51508106239 -0.3841059254 -0.71237035666 -0.50230506393 -0.49012049304 
-0.6632462251 -0.49283614041 -0.56322019103 -0.62035684488 -0.48485113506 -0.61650365923 -0.58128503956 -0.47379132933 -0.66153569748 
-0.54219530007 -0.45537424405 -0.70615759887 -0.49811095476 -0.42721218629 -0.75456956249 -0.44295577083 -0.38989491306 -0.80732406248 
-0.37006585382 -0.34712696724 -0.86171580724 -0.27308804437 -0.30568888586 -0.91212785567 -0.14769378277 -0.27470911888 -0.95011654366 
0.0050583558485 -0.26338464452 -0.96467763635 0.17408383791 -0.27736703141 -0.94486102008 0.33710118792 -0.31468523318 -0.88731955524 
0.46968154145 -0.36524921251 -0.80373643838 0.55989354283 -0.41722429622 -0.7158513165 0.61164195162 -0.46368389781 -0.6410080857 
0.63567410476 -0.50311802203 -0.58548329476 0.64179336831 -0.53703008959 -0.54744858687 0.63666746626 -0.56811362044 -0.52144170497 
0.62453620811 -0.59967374445 -0.5003458054 0.60890108735 -0.63585770215 -0.474262004 0.5929010337 -0.68099284603 -0.42978728214 
0.57799030508 -0.73724445339 -0.34985400265 0.56206320829 -0.79945568388 -0.21202726097 0.53644413408 -0.84391803096 0.005481608915 
0.48728841459 -0.82329362838 0.29109723887 0.41489317253 -0.70996354041 0.56904782459 0.34432057887 -0.5455110585 0.76410799238 
0.29656888767 -0.38913286714 0.87213674764 0.27352498993 -0.26521138208 0.92457936528 0.26790296035 -0.1738226947 0.9476358344 
0.2708146018 -0.1087019513 0.95647443104 0.2736596491 -0.063630054988 0.95971954891 0.26883906636 -0.033749100653 0.96259366017 
0.24998448996 -0.016072653825 0.96811643131 0.2118164886 -0.010204580856 0.97725618017 0.15077851859 -0.0192110157 0.9883808857 
0.066528358375 -0.049521525221 0.99655486355 -0.036200367088 -0.10828400129 0.99346067284 -0.14504900635 -0.19755936686 0.96950042925 
-0.24057929808 -0.30819163958 0.92040182237 -0.30556051888 -0.42129490459 0.85389892415 -0.33485442158 -0.51850268324 0.78678299665 
-0.33482028441 -0.59100767805 0.73389733726 -0.31558653404 -0.63959526945 0.70094438498 -0.28526759162 -0.66959469316 0.68575895769 
-0.24897738195 -0.68761616381 0.68205151898 -0.20997969865 -0.7006661833 0.68189106588 -0.17086975541 -0.71553704395 0.67735534649 
-0.13421892839 -0.73773016924 0.66161883033 -0.1026196331 -0.77028341405 0.62939071564 -0.077997032077 -0.81261037342 0.57756457993 
-0.06000133954 -0.86003491218 0.5066949665 -0.044937771093 -0.90545943802 0.42204715711 -0.026455827971 -0.94266538127 0.33268914639 
0.0024093510771 -0.96860321358 0.24860009991 0.046608614136 -0.98305381665 0.17729306433 0.1076130402 -0.98662521216 0.12243416314 
0.18342627783 -0.97938289703 0.084640070938 0.26896819997 -0.96110658859 0.062691568571 0.35725614746 -0.93243109186 0.054224570391 
0.44222914005 -0.89514054503 0.056185339091 0.52111186533 -0.85096617543 0.065566699536 0.5940920552 -0.8004117799 0.079972573768 
0.66230162446 -0.7428455022 0.097658169658 0.72602424097 -0.67760408532 0.11722416589 0.78395334633 -0.60544533404 0.13730658493 
0.83373630023 -0.52947991927 0.15663587318 0.87350843428 -0.45451845162 0.1743444647 0.90296444984 -0.38534272997 0.19017408549 
0.92317533817 -0.32553962525 0.20438015408 0.93588037552 -0.27711526193 0.21756620673 0.94285903982 -0.24055969845 0.23053820186 
0.94558898245 -0.21506220757 0.24415102528 0.94517308409 -0.1988022278 0.25908592269 0.9424595765 -0.18925305415 0.27559613235 
0.93819234692 -0.18380853501 0.29327383558 0.93314210591 -0.18047112191 0.31092761914 0.92816985456 -0.17817517797 0.32673280681 
0.92409009009 -0.17708413374 0.33867198728 0.92146114787 -0.17838236614 0.34509286346 0.92040416788 -0.18380273387 0.34506915651 
0.92047334666 -0.19528440597 0.33851561099 0.92057963144 -0.21470300284 0.32624494288 0.91898586998 -0.24367601392 0.3099789848 
0.91338137435 -0.28336309601 0.292300908 0.90103477863 -0.33421820566 0.27646793432 0.87908679019 -0.39565861044 0.26582076535 
0.84503518822 -0.46551238697 0.26308505896 0.79735154949 -0.53978738346 0.26992607725 0.73625747421 -0.61308478008 0.28644717507 
0.66427185921 -0.67959730623 0.31127222561 0.585692281 -0.73483809765 0.34201976876 0.50554984897 -0.776740346 0.37562452676 
0.42833656364 -0.80589117082 0.4087385583 0.35690984454 -0.82507644956 0.43802307616 0.2922597983 -0.83819239913 0.4604538113 
0.23403822567 -0.8490882699 0.47357704636 0.18131529679 -0.8607585061 0.47562543806 0.13304073738 -0.87510845412 0.46527986818 
0.088391305626 -0.89296049357 0.44137119753 0.046867436552 -0.91405703529 0.40286868782 0.0083494858981 -0.9370860949 0.34899847682 
-0.02685104366 -0.95978040032 0.279464854 -0.058107477614 -0.97911903843 0.19480613344 -0.058107477614 -0.97911903843 0.19480613344 

FrenetNormal 3 120 double
-0.84860027272 -0.29538070215 0.43889385725 -0.84860027272 -0.29538070215 0.43889385725 -0.75435565674 -0.15391296236 0.63816795842 
-0.57944199097 0.024019627012 0.81465946052 -0.35900261816 0.1867127758 0.91447004298 -0.1618622078 0.29539589362 0.94156353568 
-0.028551170781 0.3576619628 0.93341456546 0.011481472465 0.42562952208 0.90482467126 -0.22578649972 -0.11045330612 -0.96789489291 
-0.11977770246 -0.18447702364 -0.97551090703 -0.025677183262 -0.1211380612 -0.9923035082 0.10757943838 -0.036122950318 -0.99354003286 
0.25471454247 0.0457941894 -0.96593136095 0.39177605771 0.099275970398 -0.91468891013 0.51058200541 0.10819459672 -0.85299469224 
0.60014106106 0.099391737135 -0.79369514892 0.64475583845 0.13231973802 -0.75284885317 0.64187471951 0.23268071156 -0.73065486444 
0.61726100395 0.35434625607 -0.7024440076 0.62107680329 0.43148511448 -0.65428143822 0.67507068105 0.44751929163 -0.58652029736 
0.76894527141 0.40606047939 -0.49379961184 0.87901828883 0.30592332844 -0.36570174325 0.96754224277 0.15904179401 -0.1963866498 
0.99996889425 -0.0045058430943 0.0064736323834 0.96309938473 -0.15205307396 0.22207980059 0.86585690303 -0.26644067604 0.42343971192 
0.73095613649 -0.3496490801 0.58604491919 0.57930765358 -0.42057636467 0.69822500956 0.41596736017 -0.50071760326 0.75911332294 
0.22417299179 -0.60544634693 0.76366300862 -0.013889389507 -0.72188987041 0.69186855678 -0.24524252314 -0.79025940768 0.56155691913 
-0.35859737041 -0.78930888185 0.49839684487 -0.31102983989 -0.7413776536 0.59465924144 -0.20103167181 -0.64198619468 0.73989187911 
-0.12292994652 -0.50248902183 0.85579963262 -0.10203760641 -0.3214175985 0.94142395033 -0.13541364227 -0.07966214302 0.98758143383 
-0.20270526793 0.21760279533 0.95475630284 -0.25753723719 0.50820718029 0.82182725275 -0.26143417072 0.72597365251 0.63609309872 
-0.20785882031 0.86502719988 0.4566428082 -0.10837338684 0.94661813893 0.30359398556 0.011554309776 0.98409900907 0.17724457193 
0.092822118642 0.99192268287 0.086449091979 0.021633807258 0.99796410195 0.059996913312 -0.40581971279 0.90238117653 0.14497783606 
-0.89153934719 0.38622163026 0.23662300127 -0.97727867294 -0.010148245818 0.21171539509 -0.96135225602 -0.23583374465 0.14207140715 
-0.91021434703 -0.41217371685 0.040282373436 -0.82313254586 -0.56049632418 -0.091086126998 -0.69742733948 -0.67462622881 -0.24181513092 
-0.53405421439 -0.74978328579 -0.39065473304 -0.34100000934 -0.78889009864 -0.51124495685 -0.11882606594 -0.80508462111 -0.58113605886 
0.15614686463 -0.80288265995 -0.57532390096 0.50903727089 -0.73751986207 -0.44378543227 0.82304277673 -0.53778266842 -0.182730373 
0.94132329139 -0.33748931689 0.0033796556269 0.95476666401 -0.2971407294 -0.011313895681 0.8928518174 -0.40317246265 -0.20066787865 
0.69990347943 -0.54322276399 -0.46372852852 0.44940354031 -0.60037694933 -0.66150130512 0.25876208878 -0.57597624416 -0.77543120106 
0.16104613623 -0.50930007116 -0.84538605354 0.14893312651 -0.42382487084 -0.89341558229 0.22614622308 -0.32982145032 -0.91655643399 
0.39968816627 -0.22694734866 -0.88811275786 0.63344602522 -0.10814916822 -0.76619181054 0.83108327792 0.021685710306 -0.55572503554 
0.93130177875 0.1455652153 -0.33389783616 0.95373633374 0.25669706397 -0.15650438667 0.93399201289 0.35632529151 -0.026290806024 
0.89269924398 0.44534973798 0.0689323631 0.83990892355 0.52495446792 0.13775270145 0.78074169225 0.59769753476 0.18220885522 
0.71683044473 0.66616896356 0.2058470925 0.6480275444 0.73119885408 0.21309279078 0.57414492625 0.79119446896 0.21063930294 
0.49686908831 0.84315960233 0.2054336732 0.41970303026 0.88459332978 0.20333225837 0.34604297682 0.9144460204 0.20986360801 
0.27730752747 0.93226520385 0.2323405365 0.21084941389 0.93527098368 0.28427224935 0.13722690085 0.91086338942 0.38922572306 
0.039004560483 0.81991081331 0.57116101275 -0.087510344994 0.61015638293 0.78743325297 -0.19343783526 0.36365770613 0.91122712682 
-0.25441152165 0.20827062332 0.94440358169 -0.28685617272 0.14755039647 0.94654234806 -0.30809003351 0.12460722684 0.94316147625 
-0.33932932289 0.027504996297 0.9402654337 -0.37938657699 -0.60421698338 0.70070511786 -0.037343532272 -0.91989595755 -0.39038043993 
0.022576474065 -0.83818210606 -0.5449229853 -0.010637040986 -0.84881044078 -0.52859028461 -0.079086815383 -0.88411025046 -0.46053701334 
-0.16999661203 -0.91787898365 -0.35860747799 -0.27462995122 -0.93294735633 -0.23278234513 -0.38275551694 -0.91830685808 -0.10104815015 
-0.4873941579 -0.87293133134 0.020924283056 -0.58508345554 -0.80106599959 0.12637489606 -0.67261872354 -0.70944602947 0.21040528512 
-0.74748944407 -0.60306741246 0.27851252581 -0.80699385859 -0.48928323402 0.33070051271 -0.85079810081 -0.37644075347 0.36665372055 
-0.88289248017 -0.27692275756 0.37922902685 -0.9113555136 -0.20462208765 0.357156729 -0.94325983374 -0.17329412371 0.28324906484 
-0.97176824051 -0.18933054388 0.14078505565 -0.96683963864 -0.2444714899 -0.073856643476 -0.89359071266 -0.30897726359 -0.32562046746 
-0.76054088924 -0.34664777087 -0.54901081842 -0.61571398976 -0.34401885151 -0.7089057149 -0.48850590401 -0.30835203252 -0.81626037867 
-0.38383781583 -0.24823591685 -0.88940848924 -0.29722362665 -0.16931908942 -0.93967502985 -0.29722362665 -0.16931908942 -0.93967502985 

FrenetBinormal 3 120 double
-0.48706688617 0.76005047972 -0.4302198469 -0.48706688617 0.76005047972 -0.4302198469 -0.50674475112 0.75451623357 -0.41703118647 
-0.52574384436 0.75277243635 -0.39614021404 -0.54114529122 0.75665184975 -0.36693289858 -0.54966229517 0.76543673936 -0.33463107941 
-0.55149881439 0.77317406365 -0.31313084329 -0.55171347776 0.75737875628 -0.34927017908 0.49970690598 -0.86601281964 -0.017742726243 
0.52154564563 -0.84777338516 0.096283056378 0.52102332398 -0.84877006248 0.090133661383 0.52112505491 -0.84900429601 0.08729480229 
0.51938260129 -0.84905206215 0.096707338103 0.50927142406 -0.85137288004 0.12572523916 0.48149194251 -0.85789483737 0.17939330341 
0.44714108703 -0.86442687446 0.22985000977 0.44659522366 -0.86452927294 0.23052514492 0.50010453631 -0.84934178204 0.16886085999 
0.5700992103 -0.81674538791 0.088959888418 0.60510253772 -0.79455040361 0.050404116652 0.5899743729 -0.80480335511 0.064975371708 
0.52131989547 -0.84535067025 0.11665252203 0.39083214802 -0.90164584077 0.18516211788 0.20505744315 -0.94828297874 0.24230319282 
-0.00605174143 -0.96468037526 0.26335365958 -0.2052666376 -0.9486555711 0.24066203461 -0.36966824665 -0.911033792 0.18265491303 
-0.49507815155 -0.86275056276 0.10275743433 -0.59238658256 -0.80562982077 0.0062232372139 -0.6729526568 -0.73094399559 -0.11338252514 
-0.7386913444 -0.61669034118 -0.27208109235 -0.76675182247 -0.43643292482 -0.47076315157 -0.73110234732 -0.22964534146 -0.64245807248 
-0.69380289038 -0.13184418551 -0.70799340396 -0.72972591055 -0.21457902355 -0.64919637871 -0.77977857829 -0.3522818041 -0.51753540878 
-0.80673132794 -0.45163635691 -0.38106320426 -0.82077602107 -0.50750501168 -0.26223155103 -0.83300110234 -0.53052455173 -0.15701230368 
-0.84938835368 -0.52424862893 -0.06085063438 -0.87266157635 -0.48752152074 0.028009640626 -0.90171808973 -0.41878388329 0.10735243708 
-0.93211673394 -0.3167073652 0.17565545576 -0.95574017856 -0.18324033906 0.23018186122 -0.96337661471 -0.03653506754 0.26565143907 
-0.95814586872 0.065370306696 0.27871709179 -0.96158326464 0.0043436534991 0.2744790663 -0.87351927117 -0.4296151888 0.22889926267 
-0.37771066596 -0.92226597146 0.082220013952 0.0077569690757 -0.99989643446 -0.012122285031 0.23036422938 -0.97160351058 -0.054027215935 
0.40875887758 -0.90975845458 -0.07249644349 0.56669422564 -0.82104716408 -0.068841912974 0.70182326258 -0.71123114946 -0.039929439469 
0.81049842531 -0.58552791364 0.015791292649 0.88901730182 -0.4473958154 0.097392101482 0.9347474966 -0.28808630709 0.2079745111 
0.9292542891 -0.078034343977 0.36110539645 0.80080346926 0.21675411035 0.55832916749 0.4911445702 0.51228190329 0.70451704218 
0.22786119539 0.64287243856 0.73129631708 0.21054487279 0.64867116978 0.73136623523 0.41667632384 0.5704898808 0.70775853019 
0.70151293555 0.40082817525 0.58925068959 0.8874151615 0.21496739463 0.40777855558 0.96278691537 0.088970484843 0.25519719518 
0.98512130281 0.030876970961 0.16906398613 0.98782565291 0.022708697717 0.15389865007 0.97373403707 0.050988134574 0.22190591515 
0.91664800484 0.1015022935 0.38659244644 0.77238188108 0.14801672535 0.61767084989 0.5456372593 0.16155624622 0.82230138062 
0.31469317994 0.14007108588 0.93880151971 0.13432465559 0.10188592994 0.98568562137 0.005192779115 0.060037867721 0.99818259326 
-0.086726279118 0.019672710074 0.99603791945 -0.15164242138 -0.016714511177 0.98829408637 -0.19364152431 -0.045810910695 0.98000220435 
-0.21796942847 -0.066328514566 0.97369905844 -0.23010672136 -0.078746043313 0.96997420453 -0.23616679368 -0.086297507332 0.9678729182 
-0.24084204524 -0.09344998713 0.96605497212 -0.2466422138 -0.10443954251 0.96346250593 -0.25477335129 -0.12369097069 0.95905739309 
-0.26617255719 -0.15781489816 0.9509188334 -0.28225953903 -0.2201711123 0.93373134998 -0.30362083051 -0.33534894855 0.89182704264 
-0.32301721398 -0.53056055743 0.78368703854 -0.31462641439 -0.7669334147 0.5593061387 -0.27267517408 -0.91210545129 0.3061239866 
-0.23466976335 -0.96064445552 0.1486348958 -0.21670105296 -0.97245002682 0.085916232368 -0.20876123286 -0.97607717163 0.060762675063 
-0.17582126156 -0.98381130546 -0.034672744688 0.08351753206 -0.77659614244 -0.62443835035 0.38918071425 0.34642168279 -0.85353991667 
0.39015268923 0.50922957286 -0.76711545494 0.39041003515 0.48313916855 -0.78368140738 0.38627742157 0.39871175712 -0.83175638761 
0.36991298557 0.27785522705 -0.88654433387 0.33573012614 0.1338186135 -0.9324043442 0.28408560252 -0.012914270482 -0.95871194426 
0.21991467782 -0.14590787624 -0.96454570972 0.1480130284 -0.25869450121 -0.95455188359 0.074222533046 -0.34758219704 -0.93470724395 
-0.0015582266267 -0.41768073621 -0.90859252392 -0.075666797097 -0.46969659052 -0.87957924525 -0.14339435788 -0.50494236703 -0.85115877726 
-0.19242831577 -0.52330985767 -0.83013139692 -0.20505240962 -0.52666749817 -0.82496960894 -0.15762327347 -0.51710990006 -0.84128012869 
-0.029876339576 -0.49315621771 -0.86942759863 0.17984959358 -0.44646218743 -0.87654186374 0.42871412439 -0.37244898189 -0.82309535015 
0.64324531314 -0.28715306002 -0.7097736169 0.78657467936 -0.21482729351 -0.57892098576 0.87252064035 -0.1636724619 -0.46034667087 
0.92301005011 -0.13115072534 -0.36173461909 0.95303810879 -0.11250313123 -0.28117860632 0.95303810879 -0.11250313123 -0.28117860632 

plain_curvature_peaks 1 120 unsigned_char
0 0 0 0 0 0 1 0 0 
0 0 0 0 0 0 0 0 0 
0 0 0 0 0 0 0 0 0 
0 0 0 0 0 0 0 0 0 
0 0 0 0 0 0 1 0 0 
0 0 0 0 0 0 0 0 0 
0 0 0 0 0 0 0 0 0 
1 0 0 0 0 0 0 0 0 
0 0 0 0 0 0 0 0 0 
0 0 0 0 0 0 0 0 0 
0 0 0 0 0 0 0 0 0 
0 0 1 0 0 0 0 0 0 
0 0 0 0 0 0 0 0 0 
0 0 0 
weighted_curvature_peaks 1 120 unsigned_char
0 0 0 0 0 0 0 1 0 
0 0 0 0 0 0 0 0 0 
0 0 0 0 0 0 0 0 0 
0 0 0 0 0 0 0 0 0 
0 0 0 0 0 0 0 0 0 
0 1 0 0 0 0 0 0 0 
0 0 0 0 0 0 0 0 0 
0 0 0 0 0 0 0 0 1 
0 0 0 0 0 0 0 0 0 
0 0 0 0 0 0 0 0 0 
0 0 0 0 0 0 0 0 0 
0 0 0 0 0 0 1 0 0 
0 0 0 0 0 0 0 0 0 
0 0 0 
plain_torsion_tp 1 120 unsigned_char
0 0 0 0 0 0 1 0 0 
0 0 0 0 0 0 0 0 0 
0 0 0 0 0 0 0 0 0 
0 0 0 0 0 0 0 0 0 
0 0 0 0 0 0 1 0 0 
0 0 0 0 0 0 0 0 0 
0 0 0 0 0 0 0 0 0 
1 0 0 0 0 0 0 0 0 
0 0 0 0 0 0 0 0 0 
0 0 0 0 0 0 0 0 0 
0 0 0 0 0 0 0 0 0 
0 0 1 0 0 0 0 0 0 
0 0 0 0 0 0 0 0 0 
0 0 0 
plain_torsion_tn 1 120 unsigned_char
0 2 0 0 0 0 0 0 0 
0 0 0 0 0 0 0 0 0 
0 0 0 0 0 0 0 2 0 
0 0 0 0 0 0 0 0 0 
0 0 0 0 0 0 0 0 0 
0 0 0 0 0 0 0 0 0 
0 0 0 0 0 2 0 0 0 
0 0 0 0 0 0 0 0 0 
0 0 0 0 0 0 0 0 2 
0 0 0 0 0 0 0 0 0 
0 0 0 0 0 0 0 0 0 
0 0 0 0 0 0 0 0 0 
0 0 0 0 0 0 0 0 0 
0 0 0 
plain_torsion_tz 1 120 unsigned_char
0 3 0 0 0 0 0 0 0 
0 0 0 0 0 0 0 3 0 
0 0 0 0 0 0 0 0 0 
0 0 0 0 0 3 0 0 0 
0 0 0 0 0 0 0 0 0 
0 0 0 0 0 0 0 0 0 
0 0 0 0 0 0 3 0 0 
0 0 0 0 0 0 0 0 0 
0 3 0 0 0 0 0 0 0 
0 0 0 0 0 0 3 0 0 
0 0 0 0 0 0 0 0 0 
0 0 0 0 0 0 0 0 0 
0 0 0 0 0 0 0 0 0 
0 0 0 
weighted_torsion_tp 1 120 unsigned_char
0 0 0 0 0 0 0 1 0 
0 0 0 0 0 0 0 0 0 
0 0 0 0 0 0 0 0 0 
0 0 0 0 0 0 0 0 0 
0 0 0 0 0 0 0 0 0 
0 1 0 0 0 0 0 0 0 
0 0 0 0 0 0 0 0 0 
0 0 0 0 0 0 0 0 1 
0 0 0 0 0 0 0 0 0 
0 0 0 0 0 0 0 0 0 
0 0 0 0 0 0 0 0 0 
0 0 0 0 0 0 1 0 0 
0 0 0 0 0 0 0 0 0 
0 0 0 
weighted_torsion_tn 1 120 unsigned_char
0 0 2 0 0 0 0 0 0 
0 0 0 0 0 0 0 0 0 
0 0 0 0 0 0 0 0 0 
2 0 0 0 0 0 0 0 0 
0 0 0 0 0 0 0 0 0 
0 0 0 0 0 0 0 0 0 
0 0 0 0 0 0 0 0 0 
0 0 0 2 0 0 0 0 0 
0 0 0 0 0 0 0 0 0 
0 0 0 0 2 0 0 0 0 
0 0 0 0 0 0 0 0 0 
0 0 0 0 0 0 0 0 0 
0 0 0 0 0 0 0 0 0 
0 0 0 
weighted_torsion_tz 1 120 unsigned_char
0 0 3 0 0 0 0 0 0 
0 0 0 0 0 0 0 0 0 
0 3 0 0 0 0 0 0 0 
0 0 0 0 0 0 0 3 0 
0 0 0 0 0 0 0 0 0 
0 0 0 0 0 0 0 0 0 
0 0 0 0 0 0 0 0 0 
0 0 0 0 0 0 3 0 0 
0 0 0 0 0 0 0 3 0 
0 0 0 0 0 0 0 0 0 
0 0 3 0 0 0 0 0 0 
0 0 0 0 0 0 0 0 0 
0 0 0 0 0 0 0 0 0 
0 0 0 
plain_torsion_tp_raw 1 120 unsigned_char
0 0 0 0 0 0 0 0 0 
0 1 0 0 0 0 0 0 0 
0 0 0 0 0 0 0 0 0 
1 0 0 0 0 0 0 0 0 
0 0 0 0 0 0 0 0 0 
0 0 0 0 0 0 0 0 0 
0 0 0 0 0 0 1 0 0 
0 0 0 1 0 0 0 0 0 
0 0 0 0 0 0 0 0 0 
0 0 0 0 0 0 0 0 0 
0 0 1 0 0 0 0 0 0 
0 0 0 0 1 0 0 0 0 
0 0 0 0 0 0 0 0 0 
0 0 0 
plain_torsion_tn_raw 1 120 unsigned_char
0 0 2 0 0 0 0 0 0 
0 0 0 0 0 0 0 0 0 
2 0 0 0 0 0 0 0 0 
0 0 0 0 0 0 0 0 0 
0 0 0 0 0 0 0 0 0 
0 0 0 0 0 0 0 0 0 
2 0 0 0 0 0 0 2 0 
0 0 0 0 0 0 0 0 0 
0 0 0 0 0 0 0 0 0 
0 2 0 0 0 0 0 0 0 
0 0 0 0 0 0 0 2 0 
0 0 0 0 0 0 0 0 0 
0 0 0 0 0 0 0 0 0 
0 0 0 
plain_torsion_tz_raw 1 120 unsigned_char
0 3 0 0 0 0 0 3 0 
0 0 3 0 0 0 0 0 0 
0 0 0 0 0 3 0 0 0 
0 0 0 0 0 0 0 0 0 
0 0 0 0 0 0 0 0 0 
0 0 0 0 0 0 0 0 0 
0 0 0 0 0 0 0 0 0 
0 0 0 0 0 0 0 0 0 
0 0 0 0 0 0 0 0 0 
0 0 0 0 0 0 0 0 0 
0 0 0 0 0 0 0 0 0 
0 0 0 0 0 0 0 0 0 
0 0 0 0 0 0 0 0 0 
0 0 0 
weighted_torsion_tp_raw 1 120 unsigned_char
0 0 0 0 0 0 0 0 0 
0 0 1 0 0 0 0 0 0 
0 0 0 0 0 0 0 0 0 
0 0 0 1 0 0 0 0 0 
0 0 0 0 0 0 0 0 0 
0 0 0 0 0 0 0 0 0 
0 0 0 0 0 0 0 0 0 
0 0 0 0 0 1 0 0 0 
0 0 1 0 0 0 0 0 0 
0 0 0 0 0 0 0 0 0 
0 0 0 0 0 0 0 1 0 
0 0 0 0 0 0 0 0 0 
1 0 0 0 0 0 0 0 0 
0 0 0 
weighted_torsion_tn_raw 1 120 unsigned_char
0 0 0 0 0 2 0 0 0 
0 0 0 0 0 0 0 0 0 
0 0 0 2 0 0 0 0 0 
0 0 0 0 0 0 0 0 0 
0 0 0 0 0 0 0 0 0 
0 0 0 0 0 0 0 0 0 
0 0 0 0 0 0 0 2 0 
0 0 0 0 0 0 0 2 0 
0 0 0 0 0 0 0 0 0 
0 0 0 0 0 0 2 0 0 
0 0 0 0 0 0 0 0 0 
0 0 0 2 0 0 0 0 0 
0 0 0 0 0 0 0 0 0 
0 0 0 
weighted_torsion_tz_raw 1 120 unsigned_char
0 0 3 0 0 0 0 0 3 
0 0 0 3 0 0 0 0 0 
0 0 0 0 0 0 0 3 0 
0 0 0 0 0 0 0 0 0 
0 0 0 0 0 0 0 0 0 
0 0 0 0 0 0 0 0 0 
0 0 0 0 0 0 0 0 0 
0 0 0 0 0 0 0 0 0 
0 0 0 0 0 0 0 0 0 
0 0 0 0 0 0 0 0 0 
0 0 0 0 0 0 0 0 0 
0 0 0 0 0 0 0 0 0 
0 0 0 0 0 0 0 0 0 
0 0 0 
