# vtk DataFile Version 5.1
vtk output
ASCII
DATASET POLYDATA
POINTS 120 float
-1.24204 16.3036 -4.75584 -1.69504 15.8691 -4.82739 -2.13938 15.406 -4.76483 
-2.5749 14.9318 -4.60925 -3.00135 14.4637 -4.40174 -3.41841 14.0183 -4.18307 
-3.82535 13.6098 -3.99262 -4.2209 13.2486 -3.86626 -4.60279 12.9391 -3.83314 
-4.96756 12.6779 -3.91209 -5.31032 12.4537 -4.10918 -5.62474 12.2494 -4.41762 
-5.90321 12.0454 -4.82021 -6.13774 11.8241 -5.29351 -6.32148 11.5722 -5.81202 
-6.45075 11.2817 -6.3512 -6.52659 10.949 -6.88917 -6.55505 10.5728 -7.40749 
-6.54595 10.1538 -7.89162 -6.51049 9.69362 -8.33143 -6.45828 9.19614 -8.72208 
-6.39484 8.66856 -9.06491 -6.32004 8.12252 -9.36794 -6.22805 7.57405 -9.64537 
-6.10875 7.04196 -9.91552 -5.95024 6.54468 -10.1974 -5.74195 6.09616 -10.5061 
-5.47753 5.70183 -10.8482 -5.15693 5.35629 -11.2181 -4.7872 5.04393 -11.5972 
-4.38166 4.74269 -11.9559 -3.95795 4.43098 -12.2583 -3.53538 4.09506 -12.4691 
-3.13228 3.73507 -12.56 -2.76399 3.36705 -12.5157 -2.44208 3.02004 -12.3358 
-2.17459 2.72936 -12.0341 -1.96677 2.52722 -11.6353 -1.82164 2.43491 -11.1692 
-1.73979 2.45805 -10.6657 -1.71855 2.58652 -10.1501 -1.75106 2.79815 -9.63982 
-1.82637 3.0644 -9.1435 -1.93073 3.35511 -8.66104 -2.04976 3.64166 -8.1852 
-2.17069 3.89985 -7.70431 -2.28377 4.11194 -7.20602 -2.38294 4.2701 -6.6812 
-2.46578 4.37639 -6.12711 -2.53321 4.44228 -5.54885 -2.58865 4.48322 -4.95886 
-2.63688 4.51275 -4.3749 -2.68288 4.53559 -3.81678 -2.73111 4.54385 -3.30277 
-2.78516 4.51709 -2.84606 -2.84762 4.42865 -2.45194 -2.91992 4.25419 -2.11649 
-3.00231 3.98023 -1.82718 -3.09402 3.60833 -1.56565 -3.19369 3.15408 -1.31203 
-3.29997 2.64152 -1.04998 -3.41196 2.09611 -0.77073 -3.52921 1.5385 -0.474655 
-3.65142 0.981278 -0.170004 -3.7777 0.428762 0.130805 -3.90565 -0.12054 0.415981 
-4.03059 -0.670984 0.678361 -4.14517 -1.22599 0.917296 -4.23951 -1.78698 1.1382 
-4.30207 -2.35204 1.35017 -4.32109 -2.9173 1.56302 -4.28651 -3.47688 1.78487 
-4.19169 -4.02479 2.02106 -4.03464 -4.55525 2.27435 -3.81819 -5.0626 2.5457 
-3.54887 -5.54178 2.83482 -3.23482 -5.9881 3.13999 -2.88346 -6.39719 3.45735 
-2.49974 -6.76531 3.7805 -2.08575 -7.08971 4.10115 -1.64168 -7.36844 4.41101 
-1.16768 -7.60133 4.70431 -0.665576 -7.79007 4.97986 -0.139702 -7.93861 5.24154 
0.403395 -8.05303 5.49705 0.956201 -8.14121 5.75521 1.51185 -8.21157 6.02339 
2.06543 -8.27113 6.30516 2.61457 -8.3241 6.59988 3.15911 -8.3699 6.90353 
3.70026 -8.40351 7.21095 4.23964 -8.41734 7.51725 4.77849 -8.40363 7.81931 
5.31751 -8.35897 8.11622 5.85705 -8.2869 8.40787 6.39751 -8.19903 8.69443 
6.93957 -8.11398 8.97515 7.48413 -8.05374 9.24795 8.03181 -8.03883 9.51063 
8.58216 -8.08446 9.76134 9.13296 -8.1969 10.001 9.67949 -8.37362 10.2342 
10.2141 -8.60436 10.4698 10.7271 -8.87414 10.7201 11.2067 -9.16746 10.9988 
11.6412 -9.47094 11.3175 12.0206 -9.77664 11.6839 12.338 -10.0824 12.0983 
12.5901 -10.3919 12.5537 12.7778 -10.7131 13.0368 12.9041 -11.0554 13.5313 
12.9738 -11.4271 14.0197 12.992 -11.8338 14.4879 12.9637 -12.277 14.9255 
12.8939 -12.7538 15.3272 12.7875 -13.2585 15.6919 12.6493 -13.7829 16.0215 
12.4843 -14.3176 16.3198 12.2974 -14.853 16.5912 12.0937 -15.3789 16.8405 

LINES 2 120
OFFSETS vtktypeint64
0 120 
CONNECTIVITY vtktypeint64
0 1 2 3 4 5 6 7 8 
9 10 11 12 13 14 15 16 17 
18 19 20 21 22 23 24 25 26 
27 28 29 30 31 32 33 34 35 
36 37 38 39 40 41 42 43 44 
45 46 47 48 49 50 51 52 53 
54 55 56 57 58 59 60 61 62 
63 64 65 66 67 68 69 70 71 
72 73 74 75 76 77 78 79 80 
81 82 83 84 85 86 87 88 89 
90 91 92 93 94 95 96 97 98 
99 100 101 102 103 104 105 106 107 
108 109 110 111 112 113 114 115 116 
117 118 119 
CELL_DATA 1
FIELD FieldData 2
Length 1 1 double
70.290566457 
Tortuosity 1 1 double
0.73147231278 
POINT_DATA 120
FIELD FieldData 19
Curvature 1 120 double
0 0.33963391026 0.217486161 0.12010996325 0.046050883953 0.061475854707 0.17051732563 0.33647285417 0.53126778571 
0.61915590139 0.5164005925 0.35312105683 0.24365803222 0.19445800017 0.17654873212 0.16908559028 0.16460924463 0.16236096615 
0.16188384305 0.15826246532 0.14372110031 0.11378125458 0.076836765361 0.079351161434 0.14288568935 0.21471686442 0.24996791849 
0.22399078132 0.1575729042 0.11153414091 0.15645862735 0.25985555768 0.38089703735 0.48813008765 0.55479910411 0.58606426536 
0.60182934859 0.59692374137 0.54664554737 0.44880615723 0.33148788332 0.22089589653 0.12352003594 0.048924841678 0.086354715362 
0.16058514819 0.20038546099 0.1904721289 0.14089149089 0.083222470323 0.036896993393 0.016721835876 0.050591202674 0.1598042833 
0.3809232805 0.65789521156 0.70192545048 0.45322816544 0.20619169791 0.065628851809 0.0031421540735 0.023609637097 0.021164209175 
0.012693901287 0.031638322571 0.053253828413 0.06521315864 0.072896607987 0.089417152125 0.11871486987 0.1502517971 0.17343015531 
0.18202926327 0.1768413789 0.16322509779 0.14870158476 0.13854745614 0.1348395906 0.13820269286 0.14768391849 0.15523741868 
0.1520112347 0.13330610486 0.10375311085 0.073260982953 0.05261276903 0.044422146876 0.038769898384 0.03156287525 0.033535522221 
0.050931813524 0.072411000364 0.082314503566 0.073305135949 0.043543338208 0.016998099467 0.06846829281 0.12475823947 0.16804882914 
0.18286615368 0.16974361761 0.14085543015 0.11839379303 0.12535605178 0.15637502904 0.19233587011 0.21337141066 0.2112667587 
0.19305946239 0.17596763798 0.16904422911 0.17118303066 0.17220280737 0.16467217771 0.14905246148 0.12780453833 0.10573264869 
0.086072596376 0.069213369772 0 
Torsion 1 120 double
0 0 0.097409774277 0.2798873807 1.9009770288 1.3738336843 0.33066766477 0.2060290035 0.19200409445 
0.23057654227 0.33912477362 0.51222902478 0.62481651804 0.54668860851 0.40363226521 0.32638782517 0.30909790031 0.29982279907 
0.25108685841 0.15455496062 0.0081451334588 -0.27979509124 -1.1304624256 -1.3546753776 -0.41431507389 -0.11032206056 0.032402979167 
0.20377143849 0.64730915287 1.5043367497 0.75860883265 0.20557782686 -0.0041860640328 -0.12086121347 -0.20585090404 -0.24687167673 
-0.2197409415 -0.14462883444 -0.062432354842 0.0083241202014 0.07270862815 0.16558835673 0.49580815764 3.0955141855 0.9273789643 
0.2247343175 0.10736450313 0.084543934923 0.10116032355 0.12953195291 -0.052281457137 -2.1035784879 0.19605585968 0.22995270793 
0.13236717317 0.080757966852 0.066365196437 0.07699551005 0.11352760096 0.25370595962 23.305751195 0.31778589595 0.7077418234 
2.9356137707 0.71222885029 0.45793056933 0.57624883775 0.74682588975 0.63804519684 0.37598520297 0.20116545493 0.11583676901 
0.089564548601 0.0918798837 0.095744805231 0.069575729362 -0.0093784891383 -0.1160436999 -0.18000170513 -0.160457402 -0.085032826955 
0.015509501975 0.13899084162 0.31349868299 0.58254406949 0.80928020256 0.59817283635 0.12264531734 -0.60487963831 -0.86722384423 
-0.33811575177 -0.088228038754 -0.036416328568 -0.084987893751 -0.48168756158 -4.4692920225 -0.28794487016 -0.077895018346 -0.058573669539 
-0.10104016621 -0.20738730562 -0.42211909184 -0.6932489063 -0.60360377412 -0.29260209014 -0.071844620167 0.074955315884 0.20915006424 
0.34827105181 0.43921506952 0.4111694072 0.28993515851 0.16890573902 0.078521147668 0.009717958159 -0.049565940526 -0.11115969028 
-0.19396285906 0 0 
FrenetTangent 3 120 double
-0.70697274684 -0.70720529094 -0.0070860205822 -0.70697274684 -0.70720529094 -0.0070860205822 -0.67474900852 -0.71883786914 0.16728984846 
-0.64923550797 -0.70972011605 0.27347872323 -0.64174918035 -0.69499880424 0.32424474032 -0.65645295055 -0.68031996094 0.32593599748 
-0.69408738308 -0.66570396531 0.27400900574 -0.74820811145 -0.6454669892 0.15348285838 -0.79353573196 -0.60657184063 -0.048699530438 
-0.7849774195 -0.5385352895 -0.30625184545 -0.70413915137 -0.45913437579 -0.54164903811 -0.58596818682 -0.40351761329 -0.70271958831 
-0.46613396668 -0.3863951547 -0.79587556158 -0.35572089095 -0.40243216561 -0.84351111422 -0.25465116346 -0.44125139994 -0.86049403659 
-0.16262702476 -0.49416412564 -0.85402240471 -0.081715053928 -0.55541446119 -0.82754904765 -0.015124719794 -0.6213796805 -0.78336360364 
0.034916903513 -0.68892890094 -0.72398741653 0.068994925743 -0.75369432859 -0.65359357346 0.09137017734 -0.80984132345 -0.57948988044 
0.10967217653 -0.85172813688 -0.51237798016 0.13342520199 -0.87555203672 -0.46433430464 0.17182928358 -0.87873801577 -0.44530236575 
0.23138656249 -0.85735272475 -0.45978969548 0.31247618043 -0.80573179238 -0.50314502423 0.40573274555 -0.72343598637 -0.55858867945 
0.49504004943 -0.6260726809 -0.60246854499 0.56928961498 -0.54254593528 -0.61769996146 0.62842429097 -0.49737681678 -0.59807960394 
0.6769835668 -0.50039723416 -0.53971831387 0.71551544918 -0.54756530789 -0.43383162123 0.7364405447 -0.62070658772 -0.26903281601 
0.72656174211 -0.68569640272 -0.043914441906 0.67747755248 -0.7018510048 0.22006665571 0.59359717409 -0.64222932198 0.4849576197 
0.4852387635 -0.50311895311 0.71513261806 0.36032432259 -0.30060488248 0.88306459966 0.22738502611 -0.069292158714 0.97133652595 
0.099563451756 0.14642328122 0.98419883245 -0.010419752044 0.3146665411 0.94914508727 -0.096319091227 0.42688462947 0.899161913 
-0.15755608071 0.48839447627 0.85828137402 -0.19581790848 0.50600171636 0.84001048194 -0.2129527926 0.48344827617 0.84907530431 
-0.21059110891 0.4232289415 0.88120862906 -0.19146692142 0.33399390117 0.92292388201 -0.16169591727 0.23493196387 0.95846825857 
-0.13008898193 0.14904774931 0.98023549477 -0.10416772674 0.090571931617 0.9904270846 -0.087805161899 0.059690272248 0.99434768816 
-0.0821385893 0.045649545834 0.99557489478 -0.087517765067 0.028879263727 0.9957442588 -0.1047709637 -0.018950959137 0.99431579808 
-0.13446335341 -0.13294968484 0.98195925979 -0.17120664238 -0.33400659866 0.92689151342 -0.19720255888 -0.57165332882 0.79644436241 
-0.20091253819 -0.7453432681 0.63568668752 -0.19287469933 -0.83261731479 0.51917988932 -0.18472378818 -0.86715611335 0.46251205082 
-0.18064908781 -0.87559488726 0.44799497818 -0.18121797095 -0.87195631151 0.45481011183 -0.18579539881 -0.86500158976 0.46610333564 
-0.19287235918 -0.86136445502 0.46994843195 -0.19961648877 -0.86513269505 0.46010724551 -0.20162753376 -0.87679542029 0.43655025896 
-0.1936009038 -0.89349553579 0.40519676403 -0.17055164073 -0.91104092669 0.37538855568 -0.12896762494 -0.92561164059 0.35582361153 
-0.067401876228 -0.93394139669 0.35101346788 0.012902596331 -0.93269307648 0.36044021432 0.10735094078 -0.91874533266 0.37997735358 
0.20802644722 -0.890665066 0.40427804474 0.30579438123 -0.84969559225 0.42954300939 0.39357611371 -0.79930420647 0.45410420416 
0.46856323773 -0.74336993723 0.47733597044 0.53240725283 -0.68442915573 0.49809562126 0.58954668063 -0.6233338661 0.51370186171 
0.64482653232 -0.55979185931 0.52041504347 0.7011713227 -0.49285155617 0.5152243393 0.75761811449 -0.4222086958 0.49774954525 
0.809457209 -0.34964294242 0.47172962554 0.85102078026 -0.27921834626 0.44474795859 0.87888425109 -0.21620448807 0.425227107 
0.89304556746 -0.165097181 0.41858396442 0.89588784518 -0.12813303282 0.42540203896 0.89103694256 -0.10436835752 0.44176963786 
0.88260212188 -0.090068462635 0.46141214385 0.87453844663 -0.07897841713 0.47848188574 0.86968269208 -0.063612004977 0.48949517661 
0.86890136755 -0.038143349476 0.49351342267 0.87093449901 -9.3980153803e-05 0.49139911436 0.87312639552 0.047278451748 0.48519588359 
0.87387549575 0.094575919024 0.47686162928 0.87418249148 0.12946428851 0.46802133455 0.87701073586 0.14009490558 0.45959284874 
0.88479683225 0.11829792047 0.45071073612 0.89619230255 0.061657771878 0.4393605308 0.90558555751 -0.025335651711 0.42340630933 
0.90576845971 -0.13002664859 0.40333183367 0.89260266498 -0.2352132523 0.38462346315 0.86707627645 -0.32677503894 0.37602766486 
0.83234053958 -0.39767685268 0.38608593216 0.78912812091 -0.44769808724 0.42052732548 0.7345338409 -0.47957415764 0.48007151957 
0.66391485612 -0.4969019232 0.55884303927 0.57490243304 -0.5045055102 0.64417496277 0.47143408846 -0.50930423042 0.71997159743 
0.36253844642 -0.51978482366 0.77355646979 0.25684391698 -0.54271501688 0.79968219485 0.15925103826 -0.58024657832 0.79871960985 
0.071060631237 -0.62957761759 0.77368107778 -0.0081456682216 -0.68421156078 0.72923808745 -0.078506970193 -0.73645480727 0.67191589689 
-0.14008459 -0.78041474479 0.60936781484 -0.19330120764 -0.81334401504 0.54873140636 -0.23906318809 -0.83524891373 0.49518485862 
-0.27876852843 -0.84771172359 0.45130138627 -0.31381879388 -0.85242574222 0.41819626805 -0.31381879388 -0.85242574222 0.41819626805 

FrenetNormal 3 120 double
0.13133567625 -0.1411242853 0.98124149741 0.13133567625 -0.1411242853 0.98124149741 0.22384804848 0.016665266316 0.97448156478 
0.21948442304 0.16944456291 0.96078880517 -0.11202849383 0.50321002927 0.8568718008 -0.69386059921 0.37498701208 -0.61477004614 
-0.49531176492 0.16540114772 -0.85282396535 -0.32736753304 0.15795418777 -0.93160129502 -0.10708386749 0.21797327306 -0.97006221324 
0.16848148832 0.29013308528 -0.94203863027 0.44815801271 0.30431997484 -0.84056156738 0.69042992881 0.2053546274 -0.693639669 
0.86547068082 -0.012549092066 -0.50080237712 0.92768378487 -0.26157643453 -0.26642177876 0.89702429122 -0.44019133528 -0.039736750076 
0.82161733714 -0.54709249559 0.160108565 0.71160680589 -0.61386756605 0.34173434883 0.56491131942 -0.6517433907 0.50606892205 
0.40133990829 -0.65378193008 0.64147912353 0.26532239614 -0.6176964362 0.74030746235 0.19884205098 -0.55536786123 0.80748274128 
0.25958647101 -0.47305410925 0.84192319946 0.60591673206 -0.29869227432 0.73732478534 0.9846730248 0.16691947391 0.050566030741 
0.83063761073 0.42014099305 -0.36540758831 0.71627049412 0.54775874923 -0.4323389086 0.6512065289 0.65764713118 -0.37872193963 
0.62966560796 0.7362992466 -0.24775924124 0.6942544606 0.71968824049 0.0077188365325 0.77345852143 0.31776445128 0.5484411264 
0.45781018536 -0.28788036577 0.84115083617 0.20277707668 -0.43148071027 0.87903688992 0.031997332621 -0.36527752787 0.93034858969 
-0.11728384848 -0.18674061418 0.97538322823 -0.2454075414 0.066365111107 0.96714570291 -0.33792736796 0.3479919466 0.87447509918 
-0.40006433982 0.59949532647 0.69321993447 -0.44731120107 0.77503747221 0.44635143784 -0.48804907648 0.85504208447 0.17524592072 
-0.52160901691 0.84999632399 -0.073690451774 -0.5531712273 0.78891209358 -0.26761782804 -0.59787664441 0.69742252808 -0.39515229393 
-0.70512863837 0.55284019617 -0.44402851356 -0.98059412639 -0.10934561196 -0.16272275943 -0.13900134553 -0.87515943058 0.46343780273 
0.1333599424 -0.88055877581 0.45478716793 0.23787498746 -0.89649591056 0.37377877505 0.30600497603 -0.91143865788 0.27502823048 
0.37141176032 -0.90932710719 0.18755670191 0.44340029102 -0.88717110775 0.12776387401 0.51127949428 -0.85398937477 0.096412792216 
0.012822407638 -0.99881934386 0.046856207541 -0.41624747275 -0.90919397352 -0.010215671242 -0.30720850526 -0.95030228818 -0.050482624416 
-0.21628826172 -0.96312715051 -0.16001712344 -0.13707610097 -0.92355677258 -0.3581243225 -0.05299760602 -0.80499342129 -0.5909118762 
0.025625364146 -0.65269539181 -0.75718694272 0.094443618527 -0.54241103754 -0.83478779895 0.180250515 -0.49252147168 -0.85142959297 
0.93473532976 -0.01112904217 0.35517039251 -0.18779015498 0.48463860594 0.85431860528 -0.46719949099 0.49507969547 0.73254401284 
-0.95891944927 0.063926306035 -0.27638183226 -0.28006703403 -0.39959589658 -0.8728605707 0.051228410429 -0.45453421664 -0.88925491051 
0.3579450682 -0.4488697933 -0.81877422823 0.71023488523 -0.37773085252 -0.59404192685 0.94720182841 -0.2212051523 -0.23211414615 
0.99757887968 -0.057044012746 0.039778881769 0.98147327689 0.080727892855 0.17376194652 0.95412250901 0.20264629174 0.22041941438 
0.91931124461 0.31919546015 0.23017622324 0.87156676691 0.43141417241 0.23292312609 0.81024010535 0.53497294543 0.23940534528 
0.74217825563 0.62431473978 0.24372636821 0.6851884942 0.69396858037 0.2211884646 0.65659859249 0.74023532077 0.14467189853 
0.64889801981 0.7607414242 0.014277443452 0.63241052508 0.763613825 -0.13019544551 0.59062318396 0.76805963985 -0.24748463428 
0.52423051043 0.79222264857 -0.31235500162 0.43906107781 0.84293971775 -0.31093086402 0.33124153738 0.91805240703 -0.21785045755 
0.17573909765 0.98434684331 0.01330645044 -0.060316781839 0.91356470596 0.40219574073 -0.27716823801 0.64563388423 0.71157196079 
-0.37884891771 0.44487996095 0.811514213 -0.35069684358 0.57847390686 0.73646429852 -0.13390282378 0.92407362954 0.35799156551 
0.035547889083 0.99926066143 0.014645071151 0.060856046761 0.99232250944 -0.10766883869 0.030100320691 0.98815857013 -0.15045468079 
0.0018782150672 0.98023032375 -0.19785091535 0.030380530594 0.94733566301 -0.31879800023 0.4747546985 -0.39978490198 -0.784079083 
0.24401626797 -0.94164106524 -0.23187963518 0.15335158926 -0.97230819343 -0.17635211099 0.059572161776 -0.98072360299 -0.18609774873 
-0.055330102662 -0.97990309973 -0.19164679721 -0.18965543807 -0.96986078993 -0.1529734061 -0.34802329755 -0.93740749649 -0.012123113881 
-0.51787783206 -0.80621362955 0.28604568619 -0.6116152458 -0.50964240162 0.60513751625 -0.63576161567 -0.23906354702 0.73393173288 
-0.68051324566 -0.091634242961 0.72698341659 -0.7577221806 -0.031163142382 0.65183276658 -0.84978184763 -0.044020673024 0.52529324362 
-0.92881243797 -0.13325840652 0.34575952938 -0.9523272305 -0.28307612591 0.11375743046 -0.89292699472 -0.42974589291 -0.1341635182 
-0.78982112082 -0.50923842977 -0.34184619165 -0.69968230773 -0.51710801106 -0.49299490175 -0.6404687488 -0.47924140624 -0.60010620423 
-0.6117232935 -0.41571719268 -0.67303330371 -0.60936790937 -0.33880928729 -0.71685355399 -0.63383685289 -0.25210041414 -0.73122925619 
-0.68426064818 -0.1544080383 -0.71270296973 -0.76993354388 -0.029281600325 -0.63745190085 -0.76993354388 -0.029281600325 -0.63745190085 

FrenetBinormal 3 120 double
-0.69493918825 0.69278034944 0.19265230875 -0.69493918825 0.69278034944 0.19265230875 -0.70328218142 0.69497797576 0.14966558226 
-0.72823062503 0.68380252776 0.045763083312 -0.75868808222 0.51357212593 -0.40079429308 0.29601856796 -0.62972175722 -0.71820854625 
0.5224068914 -0.72765423857 -0.44453385575 0.5770746228 -0.74727695028 -0.32948754044 0.59902761825 -0.76456409436 -0.23792363939 
0.59617483927 -0.79107681978 -0.1370146935 0.5507653322 -0.83461666523 -0.0085188594102 0.42420254294 -0.89162941448 0.15826935834 
0.18352009628 -0.9222479627 0.34026323567 -0.11342593635 -0.87728337553 0.46637799689 -0.36124812237 -0.7820030629 0.50790845996 
-0.54634915772 -0.67564163445 0.49498583784 -0.69780971889 -0.56096469377 0.44539893193 -0.82501299629 -0.43487681628 0.36088185133 
-0.91526339808 -0.31296350801 0.25366662135 -0.96168795684 -0.22449047141 0.15735406547 -0.97576294737 -0.18900679762 0.11028644976 
-0.95947218707 -0.22534194144 0.16921622753 -0.78425928702 -0.37972563287 0.4906585518 0.029895343101 -0.44716595227 0.89395127361 
0.50645969073 -0.29736820833 0.80936439898 0.6239512929 -0.22529232431 0.74828347082 0.64133532251 -0.21009670266 0.73793521371 
0.59871242815 -0.25670297563 0.75871405067 0.44036357502 -0.43323520703 0.78637597699 -0.082733464469 -0.80724349216 0.58439123729 
-0.57628385754 -0.8165338346 0.034196673697 -0.66852008134 -0.71693558306 -0.1976974218 -0.67574514044 -0.69375475465 -0.24914422644 
-0.67701738072 -0.70352568277 -0.21609969896 -0.69339693143 -0.70922552062 -0.12727865647 -0.73037489614 -0.68296639968 -0.010459828294 
-0.77749075004 -0.62247624256 0.089618419118 -0.81858357664 -0.55583596618 0.14480092113 -0.84267677602 -0.5139081927 0.16060579263 
-0.8473553874 -0.50603010969 0.16100427177 -0.83300241419 -0.52782826422 0.16584420833 -0.79578021509 -0.57564861717 0.18804924571 
-0.69135351651 -0.67515816891 0.25727759747 0.009513464636 -0.8555733751 0.51759414004 0.96712446669 -0.01933223547 0.2535676056 
0.96843508332 0.21329206603 0.1289960618 0.95223731724 0.29110677821 0.09220051701 0.93819794552 0.33776699849 0.07548555985 
0.91930961111 0.38847005104 0.062935350675 0.89025011465 0.45246452986 0.052254976685 0.85491726633 0.51685512397 0.044466263103 
0.99653842776 0.016614369922 0.081456274785 0.9050296582 -0.41537008394 0.091591545117 0.94585727225 -0.3107513833 0.093742190712 
0.96702584993 -0.2339027004 0.10074985019 0.97565282152 -0.18836793749 0.11233473184 0.97892921324 -0.1587389786 0.12845050466 
0.97927396203 -0.13583864769 0.15023438049 0.97666767801 -0.11197621832 0.18325275784 0.96611949257 -0.073911264424 0.24728576803 
-0.30599962478 0.48291794109 0.820459927 -0.96534703848 0.069409022807 -0.25157003568 -0.86441003315 -0.08165993415 -0.4961118319 
0.20802341904 -0.50394910757 -0.83830874629 0.93899718522 -0.30309823389 -0.16252921815 0.97812166298 -0.15693449865 0.13656344876 
0.91345170545 -0.013477247262 0.40672391817 0.6829923467 0.16529922247 0.71147566466 0.2935575718 0.30710156529 0.90526934148 
-0.017127927662 0.3528447933 0.93552508568 -0.19116414348 0.35152045802 0.91645492952 -0.27951030984 0.33888271446 0.898349872 
-0.33405363758 0.32377461052 0.88519950791 -0.38322469548 0.30314882872 0.8724904701 -0.43429116316 0.27370921282 0.85818089726 
-0.47918673721 0.24006716168 0.84424393913 -0.49705054526 0.2235270459 0.83843688803 -0.47043915621 0.2520050818 0.84568341538 
-0.40389367796 0.32848981684 0.85379408357 -0.32926540054 0.41712260769 0.84710862713 -0.27781117178 0.48148126322 0.83126214036 
-0.26450217151 0.50013307021 0.82456383219 -0.28807811703 0.45988014455 0.83995312437 -0.34328052247 0.33231821689 0.87847770923 
-0.4142286615 0.061678301613 0.90808061487 -0.44016684868 -0.38598115748 0.81072294367 -0.35948704403 -0.75648141648 0.54635604846 
-0.27836485411 -0.89104965764 0.35852965793 -0.33495407038 -0.81186843067 0.47820019032 -0.47510214574 -0.3768838548 0.79513301472 
-0.49370716123 0.0048182380592 0.86961487081 -0.48761628357 0.12367711356 0.86425362688 -0.48656373493 0.14597050482 0.86136423398 
-0.4861461614 0.17379271543 0.8564216262 -0.48464625754 0.29290636659 0.82421105638 0.073892796879 0.90583963789 -0.41712636573 
0.39697685903 0.31514711843 -0.86202764871 0.41632036574 0.22542204007 -0.88083043597 0.41995946896 0.19375066269 -0.88661983123 
0.42014530479 0.15127123256 -0.89475970912 0.40901258816 0.063598538561 -0.91030979816 0.35645268294 -0.12035472345 -0.92652912818 
0.19751399248 -0.43803276632 -0.87699231377 -0.056600352439 -0.73473195463 -0.6759921264 -0.23720709227 -0.84430873963 -0.4804951067 
-0.310030299 -0.8629551809 -0.39898567576 -0.30877870639 -0.86284590092 -0.40019078169 -0.23584043691 -0.85945993579 -0.45355033579 
-0.076637653484 -0.84383999324 -0.53109390496 0.16463307188 -0.79077703393 -0.58954866996 0.42109439429 -0.69183262128 -0.58655531301 
0.60920684812 -0.58677784985 -0.53344050384 0.71440766817 -0.51425076082 -0.47451853353 0.76396101827 -0.47745365367 -0.43405249816 
0.77856979124 -0.46704608105 -0.41916230549 0.7689638445 -0.47294796758 -0.43013349765 0.73559474986 -0.4886764096 -0.46914361414 
0.67385122461 -0.50748693717 -0.53701167184 0.55562586569 -0.52202772137 -0.6471220561 0.55562586569 -0.52202772137 -0.6471220561 

plain_curvature_peaks 1 120 unsigned_char
0 0 0 0 0 0 0 0 0 
0 0 0 0 0 0 0 0 0 
0 0 0 0 0 1 0 0 0 
0 0 0 0 0 0 0 0 0 
0 0 0 0 0 0 0 0 0 
0 0 0 0 0 0 0 0 0 
0 0 0 0 0 0 0 0 0 
1 0 0 0 0 0 0 0 0 
0 0 0 0 0 0 0 0 0 
0 0 0 0 0 0 0 0 1 
0 0 0 0 0 0 0 0 0 
0 0 0 0 1 0 0 0 0 
0 0 0 0 0 0 0 0 0 
0 0 0 
weighted_curvature_peaks 1 120 unsigned_char
0 0 0 1 0 0 0 0 0 
0 0 0 0 0 0 0 0 0 
0 0 0 0 0 0 0 0 0 
0 0 0 0 0 0 0 0 0 
0 1 0 0 0 0 0 0 0 
0 0 0 0 0 0 0 0 0 
0 0 0 0 0 0 0 0 0 
0 0 0 0 0 0 0 0 0 
0 1 0 0 0 0 0 0 0 
0 0 0 0 0 0 0 0 0 
0 0 0 0 0 0 0 0 0 
0 0 0 0 0 0 0 0 0 
1 0 0 0 0 0 0 0 0 
0 0 0 
plain_torsion_tp 1 120 unsigned_char
0 0 0 0 0 0 0 0 0 
0 0 0 0 0 0 0 0 0 
0 0 0 0 0 1 0 0 0 
0 0 0 0 0 0 0 0 0 
0 0 0 0 0 0 0 0 0 
0 0 0 0 0 0 0 0 0 
0 0 0 0 0 0 0 0 0 
1 0 0 0 0 0 0 0 0 
0 0 0 0 0 0 0 0 0 
0 0 0 0 0 0 0 0 1 
0 0 0 0 0 0 0 0 0 
0 0 0 0 1 0 0 0 0 
0 0 0 0 0 0 0 0 0 
0 0 0 
plain_torsion_tn 1 120 unsigned_char
0 0 0 0 0 0 0 0 2 
0 0 0 0 0 0 0 0 0 
0 0 0 0 0 0 0 0 0 
0 0 0 0 0 0 0 0 0 
0 0 0 0 0 0 0 0 2 
0 0 0 0 0 0 0 0 0 
0 0 0 0 0 0 0 0 0 
0 0 0 0 0 0 0 0 0 
0 0 0 0 0 0 0 2 0 
0 0 0 0 0 0 0 0 0 
0 2 0 0 0 0 0 0 0 
0 0 0 0 0 0 0 0 0 
0 0 0 0 0 0 0 0 0 
0 0 0 
plain_torsion_tz 1 120 unsigned_char
0 0 0 0 0 0 0 0 0 
3 0 0 0 0 0 0 0 0 
0 0 0 0 0 0 0 0 0 
0 0 0 0 0 0 0 0 0 
3 0 0 0 0 0 0 0 0 
0 0 0 0 0 0 3 0 0 
0 0 0 0 0 0 0 0 0 
0 0 0 0 0 0 0 0 0 
0 0 0 0 0 0 0 0 0 
0 0 0 3 0 0 0 0 0 
3 0 0 0 3 0 0 0 0 
0 0 0 0 0 0 0 0 0 
0 0 0 0 0 0 0 0 0 
0 0 0 
weighted_torsion_tp 1 120 unsigned_char
0 0 0 1 0 0 0 0 0 
0 0 0 0 0 0 0 0 0 
0 0 0 0 0 0 0 0 0 
0 0 0 0 0 0 0 0 0 
0 1 0 0 0 0 0 0 0 
0 0 0 0 0 0 0 0 0 
0 0 0 0 0 0 0 0 0 
0 0 0 0 0 0 0 0 0 
0 1 0 0 0 0 0 0 0 
0 0 0 0 0 0 0 0 0 
0 0 0 0 0 0 0 0 0 
0 0 0 0 0 0 0 0 0 
1 0 0 0 0 0 0 0 0 
0 0 0 
weighted_torsion_tn 1 120 unsigned_char
0 2 0 0 0 0 0 0 0 
0 0 0 0 0 0 0 2 0 
0 0 0 0 0 0 0 0 0 
0 0 0 0 0 0 0 0 0 
0 0 0 0 0 0 0 0 0 
0 0 0 0 0 0 0 0 2 
0 0 0 0 0 0 0 0 0 
0 0 0 0 0 0 0 0 0 
0 0 0 0 0 0 0 0 0 
0 0 0 0 0 0 0 0 0 
0 0 0 0 2 0 0 0 0 
0 0 0 0 0 0 0 0 0 
0 0 0 0 0 0 0 0 0 
0 0 0 
weighted_torsion_tz 1 120 unsigned_char
0 3 0 0 0 0 0 0 3 
0 0 0 0 0 0 0 0 0 
0 0 0 0 0 0 0 3 0 
0 0 0 0 0 0 0 0 0 
0 0 0 0 0 0 0 0 0 
0 0 0 0 0 0 0 0 0 
0 0 0 3 0 0 0 0 0 
0 0 0 0 0 0 0 0 0 
0 0 0 0 0 0 0 0 0 
0 0 0 0 3 0 0 0 0 
0 0 0 0 0 0 0 0 0 
3 0 0 0 0 0 0 0 0 
0 0 0 0 0 0 0 0 0 
0 0 0 
plain_torsion_tp_raw 1 120 unsigned_char
0 0 0 0 0 0 0 0 0 
0 0 0 0 0 0 0 0 0 
0 0 0 0 0 0 0 0 0 
0 0 1 0 0 0 0 0 0 
0 0 0 0 0 0 0 0 0 
0 0 0 1 0 0 0 0 0 
0 0 0 0 0 0 0 0 0 
0 0 0 0 0 0 0 0 0 
0 0 0 0 0 0 0 0 0 
0 1 0 0 0 0 0 0 1 
0 0 0 0 0 0 0 0 1 
0 0 0 0 0 0 1 0 0 
0 0 0 0 0 0 0 0 0 
0 0 0 
plain_torsion_tn_raw 1 120 unsigned_char
0 0 0 0 0 0 0 0 0 
0 0 0 0 0 0 0 0 0 
2 0 0 0 0 0 0 0 0 
0 0 0 0 0 0 0 0 0 
0 0 2 0 0 0 0 0 0 
0 0 0 0 0 0 0 0 0 
0 0 0 0 0 0 0 0 0 
0 0 0 0 0 0 0 0 0 
0 0 2 0 0 0 0 0 0 
0 0 0 0 0 0 2 0 0 
0 2 0 0 0 0 0 0 0 
0 0 2 0 0 0 0 0 0 
0 0 0 0 0 0 0 0 0 
0 0 0 
plain_torsion_tz_raw 1 120 unsigned_char
0 0 0 0 0 0 0 0 3 
0 0 0 0 0 0 0 0 0 
0 0 0 0 0 0 0 3 0 
0 0 0 3 0 0 0 0 0 
0 0 0 0 0 0 0 3 0 
0 0 0 0 0 0 0 0 0 
0 0 0 0 0 0 0 0 0 
0 0 0 0 0 0 0 0 0 
0 0 0 0 0 0 0 0 0 
0 0 0 0 0 0 0 0 0 
0 0 0 0 0 0 0 0 0 
0 0 0 0 0 0 0 0 0 
0 0 0 0 0 0 0 0 0 
0 0 0 
weighted_torsion_tp_raw 1 120 unsigned_char
0 0 0 0 1 0 0 0 0 
0 0 0 0 0 0 0 0 0 
0 1 0 0 0 0 0 0 0 
0 0 0 0 0 0 0 0 0 
0 0 0 0 0 0 0 0 0 
0 0 0 0 0 0 0 0 0 
0 1 0 0 0 0 0 0 0 
0 0 0 0 0 0 0 0 0 
0 0 0 0 0 0 0 1 0 
0 0 0 0 0 0 0 0 0 
0 0 0 0 0 0 0 0 0 
0 0 0 1 0 0 0 0 0 
0 1 0 0 0 0 0 0 0 
0 0 0 
weighted_torsion_tn_raw 1 120 unsigned_char
0 0 2 0 0 0 0 0 0 
0 2 0 0 0 0 0 0 0 
0 0 0 0 0 0 0 0 0 
0 0 0 0 0 0 0 0 0 
0 0 0 0 0 0 0 0 0 
0 0 0 2 0 0 0 0 0 
0 0 0 0 0 0 0 2 0 
0 0 0 0 0 0 0 0 0 
0 0 0 0 0 0 0 0 0 
0 0 0 0 0 0 0 0 0 
0 0 0 0 0 2 0 0 0 
0 0 0 0 0 0 0 2 0 
0 0 0 0 0 0 0 0 0 
0 0 0 
weighted_torsion_tz_raw 1 120 unsigned_char
0 3 0 3 3 0 0 0 0 
0 0 0 0 0 3 0 0 0 
0 0 0 0 0 0 0 0 0 
0 0 0 0 0 0 0 0 0 
0 0 0 0 0 0 0 0 0 
0 0 0 0 0 0 0 0 0 
0 0 0 0 0 0 0 0 0 
0 0 0 0 0 0 0 0 0 
0 0 0 0 0 0 0 0 0 
0 0 0 0 0 0 0 0 0 
0 0 0 0 0 0 0 0 0 
0 0 0 0 0 0 0 0 0 
0 0 0 0 0 0 0 0 0 
0 0 0 
