# vtk DataFile Version 5.1
vtk output
ASCII
DATASET POLYDATA
POINTS 120 float
0 0 0 -0.18217 -0.541439 0.112228 -0.445405 -1.10124 0.281613 
-0.774226 -1.66802 0.484846 -1.15318 -2.23037 0.698537 -1.56687 -2.77695 0.899213 
-2.00011 -3.29679 1.06355 -2.43812 -3.78007 1.16924 -2.86708 -4.2193 1.1966 
-3.27493 -4.61062 1.13076 -3.65245 -4.95467 0.963543 -3.99412 -5.25656 0.694332 
-4.29871 -5.52535 0.330221 -4.56924 -5.77297 -0.114648 -4.8112 -6.01248 -0.621894 
-5.0304 -6.25651 -1.17154 -5.23116 -6.51616 -1.74357 -5.4143 -6.79979 -2.31963 
-5.57647 -7.11253 -2.88419 -5.71052 -7.45606 -3.42499 -5.80608 -7.8283 -3.93365 
-5.85054 -8.22319 -4.40623 -5.83083 -8.63146 -4.84339 -5.73601 -9.04263 -5.25 
-5.56043 -9.44803 -5.63413 -5.30591 -9.84379 -6.00511 -4.98145 -10.2315 -6.37172 
-4.60158 -10.6168 -6.74109 -4.18572 -11.0081 -7.11727 -3.75731 -11.4142 -7.49863 
-3.34109 -11.8402 -7.87542 -2.95928 -12.2839 -8.22876 -2.62837 -12.7339 -8.53237 
-2.35866 -13.1727 -8.75692 -2.15478 -13.5797 -8.87523 -2.01647 -13.9355 -8.86777 
-1.93981 -14.2269 -8.72644 -1.91855 -14.4481 -8.45487 -1.94451 -14.6018 -8.0665 
-2.00776 -14.6974 -7.58167 -2.09678 -14.7488 -7.02398 -2.19929 -14.771 -6.41677 
-2.30384 -14.7774 -5.78048 -2.40204 -14.7788 -5.13084 -2.48998 -14.783 -4.47898 
-2.56861 -14.7966 -3.83239 -2.64293 -14.8247 -3.19592 -2.72025 -14.8727 -2.57269 
-2.80749 -14.9459 -1.96499 -2.9087 -15.0499 -1.37475 -3.02314 -15.1903 -0.803822 
-3.14422 -15.3727 -0.253912 -3.26026 -15.6017 0.273637 -3.35673 -15.8805 0.778135 
-3.41942 -16.2095 1.25985 -3.43828 -16.5861 1.72015 -3.41009 -17.0048 2.16142 
-3.33952 -17.4584 2.58673 -3.23832 -17.9391 2.9995 -3.123 -18.4394 3.40301 
-3.01121 -18.9532 3.79998 -2.91783 -19.476 4.19198 -2.85161 -20.0055 4.5791 
-2.81382 -20.5405 4.96017 -2.79923 -21.0804 5.33325 -2.79716 -21.6243 5.69626 
-2.79214 -22.17 6.04742 -2.76574 -22.7139 6.38555 -2.69958 -23.2515 6.70999 
-2.57871 -23.7779 7.02029 -2.39339 -24.2889 7.31594 -2.13965 -24.7818 7.59639 
-1.81935 -25.2555 7.86123 -1.43965 -25.7107 8.11056 -1.01141 -26.1495 8.34553 
-0.54715 -26.5744 8.56857 -0.0589341 -26.988 8.78355 0.442917 -27.3921 8.99542 
0.950466 -27.7868 9.20977 1.45821 -28.1707 9.43212 1.96273 -28.5402 9.66724 
2.46254 -28.8892 9.91841 2.95793 -29.2102 10.1869 3.45094 -29.4938 10.4716 
3.94512 -29.7314 10.7692 4.44509 -29.9161 11.075 4.95566 -30.0445 11.3833 
5.48113 -30.1171 11.6891 6.02436 -30.1393 11.9886 6.58594 -30.1216 12.2805 
7.1638 -30.077 12.5658 7.75339 -30.0185 12.8477 8.3484 -29.9551 13.1305 
8.94158 -29.8902 13.4187 9.52585 -29.8212 13.7157 10.0951 -29.7414 14.0234 
10.645 -29.6426 14.3426 11.1735 -29.5186 14.673 11.6806 -29.367 15.0143 
12.1681 -29.1908 15.3664 12.6395 -28.9982 15.7304 13.0991 -28.8025 16.1081 
13.5517 -28.6198 16.5019 14.0013 -28.4663 16.913 14.4502 -28.3555 17.3408 
14.899 -28.298 17.7829 15.3462 -28.3019 18.2353 15.7874 -28.3732 18.6924 
16.2149 -28.5156 19.1474 16.618 -28.7306 19.5936 16.9859 -29.0174 20.0253 
17.3096 -29.3724 20.4395 17.584 -29.7895 20.8352 17.8071 -30.2602 21.2133 
17.9803 -30.7742 21.5759 18.108 -31.3199 21.926 18.1962 -31.8851 22.2669 
18.2521 -32.4571 22.6021 18.2834 -33.0233 22.935 18.298 -33.5709 23.2693 

LINES 2 120
OFFSETS vtktypeint64
0 120 
CONNECTIVITY vtktypeint64
0 1 2 3 4 5 6 7 8 
9 10 11 12 13 14 15 16 17 
18 19 20 21 22 23 24 25 26 
27 28 29 30 31 32 33 34 35 
36 37 38 39 40 41 42 43 44 
45 46 47 48 49 50 51 52 53 
54 55 56 57 58 59 60 61 62 
63 64 65 66 67 68 69 70 71 
72 73 74 75 76 77 78 79 80 
81 82 83 84 85 86 87 88 89 
90 91 92 93 94 95 96 97 98 
99 100 101 102 103 104 105 106 107 
108 109 110 111 112 113 114 115 116 
117 118 119 
CELL_DATA 1
FIELD FieldData 2
Length 1 1 double
74.308658261 
Tortuosity 1 1 double
0.66023090371 
POINT_DATA 120
FIELD FieldData 19
Curvature 1 120 double
0 0.2194736463 0.13464843048 0.092212523145 0.079193490795 0.092172598548 0.12932224476 0.19171402179 0.27825442937 
0.36818052676 0.41165466309 0.37026098983 0.27058678724 0.17056484257 0.098589136447 0.063065762064 0.065632429551 0.084691616406 
0.10743764469 0.13255452718 0.16152206443 0.19564980411 0.22960728483 0.24623374702 0.22738350342 0.1764907173 0.11329579535 
0.052611803452 0.013594655506 0.047853374624 0.083037361086 0.12216043475 0.1913177524 0.34489787675 0.69035858135 1.2606683078 
1.4176446275 0.87818590962 0.4233998025 0.1997746131 0.093931076102 0.041811046287 0.023158902815 0.02517191781 0.029539281405 
0.036590524353 0.052179851129 0.074495810573 0.097363188151 0.11664651528 0.13235278629 0.14925766945 0.17013040127 0.18909879288 
0.19434946224 0.1783647698 0.14363106115 0.099054123387 0.055519753603 0.033073507977 0.048492705225 0.065191569696 0.068225206955 
0.057832437677 0.038062098469 0.02663976742 0.057335420984 0.10242322249 0.14518850818 0.1762676931 0.1888396506 0.18047397035 
0.15537086204 0.12213194567 0.08859800895 0.05925840594 0.036388826645 0.0243130149 0.028487715481 0.041214258718 0.056426163547 
0.073771383457 0.094062438819 0.11689600856 0.13845197455 0.15294178147 0.15478310114 0.14002083173 0.10936941563 0.071720570643 
0.036656895268 0.010645392072 0.013156640676 0.028909565185 0.047144289845 0.067012126181 0.083408058267 0.090118838463 0.084029316943 
0.06605380766 0.046927596255 0.055545633857 0.086445556826 0.11599259089 0.13854850416 0.15500260885 0.1670165243 0.17745891475 
0.18916305157 0.20094235609 0.20706003414 0.20225406845 0.18584184731 0.16047557816 0.13095824926 0.1016944648 0.075617838244 
0.055173307146 0.045869649026 0 
Torsion 1 120 double
0 0 0.3548994895 0.55336067737 0.66384272063 0.51765734418 0.32671731647 0.21070461132 0.15027207077 
0.1205109495 0.11081162645 0.12177635524 0.1681107591 0.29486199009 0.62217556104 1.0625856307 0.60992207962 0.13850018949 
-0.086895435591 -0.21840795598 -0.29631241718 -0.31364435256 -0.2754072632 -0.21105701334 -0.14949645467 -0.097816932599 -0.03053264998 
0.27062717035 4.8374909516 0.094201423996 -0.22423917234 -0.36284633965 -0.41002214575 -0.35792577591 -0.23772624732 -0.1282175606 
-0.083346947326 -0.072787166707 -0.073629410047 -0.12393835525 -0.31015219174 -0.90513171096 -1.6559820321 -0.98414077174 -0.83055453058 
-0.77130456946 -0.45252263659 -0.15872474496 0.044516351332 0.21211673939 0.35023282938 0.41150881697 0.37392856285 0.28528243038 
0.19474519241 0.11243259825 0.019061437554 -0.15033776559 -0.68627049286 -1.77192534 -0.5457718352 -0.1022976625 0.067290944362 
0.25012706916 0.84584160782 2.254137186 0.59748819312 0.20516081312 0.091865724303 0.042280568135 0.013823787717 -0.0057001580474 
-0.017798479653 -0.017598781789 0.012566705727 0.12046249117 0.45259128731 1.0299918194 0.55391093405 0.064395527128 -0.1414493882 
-0.23178535549 -0.25973192317 -0.2477176323 -0.21914157876 -0.19076654683 -0.16853604945 -0.15439087057 -0.15181851293 -0.15225109074 
-0.075351706594 1.5492978411 0.43480418172 -0.34869712316 -0.33000113046 -0.21843705676 -0.11179964534 -0.010129014324 0.13494851942 
0.47366360632 1.3060269411 1.0100131763 0.38513578264 0.18263318763 0.10436075984 0.057337910892 0.013479977541 -0.030805635662 
-0.064567776316 -0.079014924048 -0.081434629659 -0.082147164556 -0.08606470578 -0.097749037421 -0.12501527441 -0.18541998898 -0.3218376298 
-0.62689716786 0 0 
FrenetTangent 3 120 double
-0.36483768242 -0.90204383149 0.23067377737 -0.36483768242 -0.90204383149 0.23067377737 -0.44646246309 -0.8495395684 0.28098717191 
-0.50688410956 -0.80864916524 0.29858839066 -0.5563657252 -0.77837242219 0.29084970722 -0.60070931757 -0.75638770472 0.25889371553 
-0.64260172683 -0.73986413922 0.19915841979 -0.68107949068 -0.72471081309 0.10452255625 -0.70937672315 -0.70407432251 -0.032619212668 
-0.71342011303 -0.66799189597 -0.21170396606 -0.67808160221 -0.60900907053 -0.41147696504 -0.60410516947 -0.53345739577 -0.592013641 
-0.51401228369 -0.46154807393 -0.72302472134 -0.43213679204 -0.41075250025 -0.80283259557 -0.36881035255 -0.38670708485 -0.84524348822 
-0.32321613034 -0.38765369406 -0.86328207822 -0.28931859963 -0.40943809856 -0.8652486298 -0.25911767938 -0.44751121183 -0.85591573389 
-0.22455193993 -0.49747858356 -0.83790899576 -0.17786970622 -0.55447712517 -0.81296831751 -0.11171058218 -0.61205704099 -0.78288372343 
-0.020387652534 -0.6616922097 -0.74949834106 0.096912333247 -0.69340697773 -0.71399913368 0.2314256002 -0.6988704764 -0.67677341023 
0.36388405463 -0.67782198918 -0.63886285364 0.47383204756 -0.64117358432 -0.60363865472 0.55078905286 -0.60448082439 -0.57552962755 
0.59439184875 -0.58013768273 -0.55690088814 0.60888812806 -0.57512576709 -0.54633835628 0.60015716608 -0.59127055678 -0.53871189396 
0.57500588124 -0.62658230857 -0.52608254783 0.54059062406 -0.67784138017 -0.49828991611 0.50230006693 -0.74336840811 -0.44169905205 
0.46061864789 -0.82257217455 -0.33347485493 0.40574132287 -0.90448667034 -0.13144520565 0.3079602035 -0.92721360518 0.21315591343 
0.14714802597 -0.77028715459 0.62048783866 -0.0061870766848 -0.49393456269 0.86947706575 -0.097771145675 -0.27319094631 0.9569783226 
-0.14313738797 -0.13820514009 0.98000562622 -0.16192345025 -0.062196987764 0.98484127197 -0.16421285175 -0.022675215701 0.98616427329 
-0.15574549967 -0.0059806107779 0.98777911075 -0.14158065573 -0.0042890590146 0.98991743186 -0.1272232608 -0.013596898928 0.99178090637 
-0.11830670895 -0.032234634889 0.99245375254 -0.11930107451 -0.05992120457 0.99104828483 -0.13188250444 -0.097134364924 0.98649476439 
-0.15377526144 -0.14454939941 0.97747564681 -0.17881006474 -0.20262137133 0.96279361268 -0.19792285918 -0.27125586582 0.94193778832 
-0.20138554511 -0.34938764177 0.91508039975 -0.18168011616 -0.43414740385 0.88233121169 -0.13610847119 -0.51979598893 0.84337809668 
-0.069120168218 -0.59808938445 0.79844316677 0.0077632345241 -0.66150603282 0.74989966044 0.080056415081 -0.70714995625 0.7025168395 
0.13559488468 -0.73751216611 0.66158131177 0.16727406403 -0.7578599671 0.63060895789 0.17313484961 -0.77307014353 0.61023509981 
0.15557467253 -0.786047649 0.59826884823 0.12099916536 -0.79778841587 0.5906715208 0.078986187573 -0.80837152221 0.58334952152 
0.039856556748 -0.81798448313 0.57385785717 0.012718539635 -0.82717254788 0.56180407153 0.0054367572182 -0.83632541689 0.54820638334 
0.024359070097 -0.84485445032 0.53444138452 0.072782816592 -0.85046009266 0.52098012668 0.14926762687 -0.84916694395 0.50659123253 
0.24697117178 -0.83673195233 0.48875850915 0.35467419178 -0.81094469297 0.46537610879 0.45942167167 -0.77361273505 0.43641157612 
0.5504342926 -0.7304507049 0.40430663764 0.62214451831 -0.68837515156 0.37292874527 0.67423103292 -0.65245490975 0.34599870662 
0.7094845854 -0.62464027998 0.32627617704 0.73166977319 -0.60427859359 0.31544686451 0.74442005013 -0.58909763545 0.314329071 
0.7509751342 -0.57593378985 0.32301179161 0.75419449315 -0.56126286886 0.34084403844 0.75673860936 -0.54138063382 0.36640644976 
0.76119120701 -0.51246261458 0.3974544188 0.76982235707 -0.47089369647 0.43085109397 0.7840284899 -0.4139834664 0.46251163938 
0.80354332215 -0.34129798587 0.4876820832 0.82614838496 -0.25591667096 0.5019815769 0.84849716834 -0.16460610441 0.50294869093 
0.86752207218 -0.077019934537 0.49139941388 0.88162690264 -0.0035752537372 0.47193349331 0.89103192388 0.048718135576 0.45131879409 
0.89664756766 0.079135016593 0.43561541358 0.89878958625 0.092497839802 0.42851071082 0.89706186189 0.096901316285 0.43114980094 
0.89090151591 0.10134696475 0.44274516562 0.87994914281 0.11351737092 0.46130609423 0.86409618454 0.13784904675 0.48408204281 
0.84348336005 0.1742447985 0.50810881857 0.81883124333 0.21791713198 0.53106263146 0.79193850596 0.26096731847 0.55202306245 
0.76572105808 0.29449450929 0.57179038572 0.74355302976 0.31015606228 0.59239523037 0.72788763314 0.30195532633 0.61563184975 
0.7189307606 0.26790530435 0.64137766516 0.71459545555 0.21021854638 0.66720423985 0.71169926784 0.13344668419 0.68969278279 
0.70703692243 0.042289068598 0.70591106026 0.69753499422 -0.059076215213 0.71411128869 0.67994397434 -0.16726273771 0.71393232756 
0.65065986739 -0.2799470291 0.70588341662 0.60634872492 -0.39461537662 0.69037665686 0.54577039423 -0.50647963399 0.66754255081 
0.47139524613 -0.60854991919 0.63832085802 0.38909603545 -0.69441993841 0.60529763285 0.30623354843 -0.76073498533 0.57227903676 
0.22937981728 -0.8076716456 0.54318635138 0.1627814183 -0.83783005079 0.52109789469 0.10824511056 -0.85452841911 0.50800017418 
0.065931979098 -0.86050872407 0.50515117533 0.035365741128 -0.85728447522 0.51362690049 0.035365741128 -0.85728447522 0.51362690049 

FrenetNormal 3 120 double
-0.72832197758 0.43083646286 0.53284804517 -0.72832197758 0.43083646286 0.53284804517 -0.77156536306 0.52453307183 0.35993325366 
-0.83409918598 0.54754180285 0.06690681642 -0.81941662896 0.45585907675 -0.34748941038 -0.66140026844 0.2882721078 -0.69242246987 
-0.46630187461 0.17138805849 -0.86786444514 -0.28958671713 0.13549558466 -0.94751278609 -0.11678657547 0.16305393937 -0.97968071771 
0.068839844535 0.23384411887 -0.96983400841 0.26275877573 0.32197931906 -0.9095532661 0.44211135172 0.39372798478 -0.80592544735 
0.59143492108 0.41980947731 -0.68845096913 0.72490042765 0.37135546243 -0.58018487615 0.87039018444 0.17543653482 -0.46004668141 
0.92897861807 -0.3038415005 -0.21137424096 0.69213777286 -0.71388319383 0.10637710724 0.54209055008 -0.80082388295 0.25459564807 
0.54915898809 -0.77492508601 0.31291455203 0.64233596854 -0.69128690071 0.33094852231 0.77033039078 -0.5510277104 0.32087310796 
0.88532001984 -0.36026126661 0.29397326792 0.95209736186 -0.14445877205 0.26952231211 0.9626531715 0.064037245841 0.26305532221 
0.93079583107 0.23902976241 0.27655721569 0.88005394105 0.36924619372 0.29860058483 0.83205940822 0.45189548167 0.32166382271 
0.80378694524 0.45011757885 0.38899962965 0.15272869276 -0.59084779955 0.79219494076 -0.56469889787 -0.7901839784 0.23816892122 
-0.55725606797 -0.77074296317 0.3089028317 -0.47157601065 -0.73464793836 0.4877586215 -0.35242110102 -0.64246110542 0.6804727001 
-0.25956391684 -0.48411342702 0.83561998711 -0.24151190965 -0.2448018639 0.93901227091 -0.30207800086 0.11715699472 0.94605661564 
-0.3706891805 0.53865051396 0.75660105424 -0.37289868295 0.80791605583 0.45630934571 -0.33685137936 0.91391302954 0.22648205814 
-0.28231823689 0.95476222367 0.093410435026 -0.16892493909 0.98502721242 0.034434804341 0.16053323633 0.98579353909 0.049398161131 
0.84003994204 0.52529703154 0.13563157607 0.95347312523 -0.26946195964 0.13520078316 0.67291913223 -0.73577736714 0.076233243934 
0.20299300753 -0.97915065758 -0.0076045148396 -0.20732390931 -0.97466894829 -0.083888246277 -0.3951208739 -0.90755878285 -0.14218491721 
-0.42611989661 -0.88282522214 -0.19758912131 -0.34911815997 -0.90182103268 -0.25462783705 -0.17164866675 -0.93650828933 -0.30575964288 
0.07706653162 -0.93697635752 -0.34078740464 0.32940682476 -0.8722931824 -0.36138033669 0.52716589288 -0.75877098222 -0.38257380717 
0.65685209278 -0.62966940059 -0.41480329576 0.72818540158 -0.51022461642 -0.45762087117 0.75115587123 -0.42049653018 -0.50886886839 
0.71698039164 -0.38780520323 -0.57926353445 0.52512945538 -0.47285326808 -0.70756543298 -0.31882077082 -0.63022248748 -0.70793568378 
-0.88289912855 -0.38227927963 -0.27267504684 -0.95369538595 -0.25849502022 -0.15377072331 -0.9581401102 -0.22310038638 -0.17942615982 
-0.92649289201 -0.24533038864 -0.28534877161 -0.76445688582 -0.37021276708 -0.52777663535 0.26241091243 -0.5278092104 -0.8078105907 
0.90539917832 -0.20801980955 -0.37010820949 0.97685214336 -0.044566774955 -0.20922163508 0.98259194208 0.070079292527 -0.17205222496 
0.96647792373 0.17616387931 -0.18677984517 0.93343849042 0.27844752851 -0.22618478831 0.88664860269 0.37023846959 -0.2770879481 
0.83263925815 0.44484902858 -0.32988059591 0.77951221851 0.50037688135 -0.3768072157 0.7344550627 0.54328779912 -0.40671135735 
0.70290278272 0.59400391544 -0.39126337228 0.67817503418 0.6920258151 -0.24734367638 0.54039642487 0.80804779685 0.2345857242 
0.2176938409 0.67775416169 0.70232377714 0.07857186432 0.59246918457 0.80175228561 0.074989725318 0.62868680612 0.77403452178 
0.12368141629 0.71631903159 0.68672407286 0.18421624051 0.81024028584 0.55639469437 0.23150251876 0.88637178987 0.40093844156 
0.2528653829 0.93741561413 0.23939729429 0.24821373133 0.96509846545 0.083515840216 0.22569661077 0.97218547551 -0.06258147565 
0.19635518026 0.9607301805 -0.19606673214 0.17264308988 0.9331059003 -0.31544847812 0.16496852917 0.89149420251 -0.42192827741 
0.16938308824 0.84773332993 -0.50265054536 0.0550995828 0.945898354 -0.31975043373 -0.44117943257 0.25227192567 0.86123143451 
-0.4484358149 0.35103004938 0.82199952819 -0.43736570692 0.57268372912 0.6933574726 -0.42482852692 0.7155203098 0.5545731773 
-0.43144423525 0.78326046905 0.44761468865 -0.4623534674 0.7986739748 0.38516120412 -0.5169885235 0.76762212424 0.37878640543 
-0.60180816044 0.64173118688 0.47540300989 -0.6556748223 0.16432470456 0.7369449904 -0.34851246559 -0.61029023931 0.71139643318 
-0.11244898587 -0.86575373823 0.48767375397 -0.041155841804 -0.93949241139 0.34008852617 -0.036732210242 -0.9733786423 0.22624049911 
-0.065931486715 -0.98992067839 0.12533989608 -0.12059670028 -0.99205845935 0.035727427907 -0.19978219319 -0.97905962331 -0.039106640029 
-0.30043169355 -0.94862158765 -0.099286861918 -0.41232803389 -0.89837345765 -0.15136288532 -0.52237910568 -0.82855086087 -0.20155282408 
-0.62265818235 -0.74222711079 -0.24778156501 -0.70888681707 -0.64532818276 -0.28465947572 -0.78121984219 -0.54435347956 -0.3055729822 
-0.84336437177 -0.44352785535 -0.30334728936 -0.90235750693 -0.34002847968 -0.26482364451 -0.96231766515 -0.21829380443 -0.16214970334 
-0.99681260842 -0.034011838777 0.072165216778 -0.83380872766 0.25800993497 0.488051103 -0.83380872766 0.25800993497 0.488051103 

FrenetBinormal 3 120 double
-0.58003496658 0.026398264168 -0.81416372382 -0.58003496658 0.026398264168 -0.81416372382 -0.45316460539 -0.056103282329 -0.88965963274 
-0.21759376698 -0.21513833153 -0.95203384965 0.13788969504 -0.43165828443 -0.8914356721 0.44910800561 -0.58717700229 -0.67344277209 
0.60796840576 -0.65055913559 -0.45513429742 0.67251041675 -0.67559986969 -0.30214988902 0.69508672872 -0.69115321112 -0.19789309821 
0.69734698546 -0.70647275601 -0.12084463945 0.6864132622 -0.72487051955 -0.058305774765 0.66301922816 -0.74859968 -0.0020055406456 
0.62128584914 -0.78149432385 0.057188420536 0.53644865827 -0.83269292303 0.13727830485 0.32618989972 -0.90536161437 0.27188324065 
-0.18036091666 -0.87029015624 0.45832846703 -0.66124129581 -0.5680943839 0.48992725959 -0.79937216848 -0.3980135975 0.45009922513 
-0.80498498873 -0.38987968653 0.44720576691 -0.74549773382 -0.46333307518 0.47911959917 -0.62778327062 -0.56723420291 0.53304176589 
-0.46453504291 -0.65755246134 0.59315424174 -0.29003208997 -0.70591672767 0.64619111754 -0.1405028931 -0.71237580557 0.68758973863 
-0.034749325945 -0.69528564178 0.71789300086 0.031436468379 -0.67272110357 0.7392280198 0.065639625527 -0.65604375356 0.75186304136 
0.024997535696 -0.67884787271 0.73385331567 -0.77841453861 -0.5657996375 -0.27192200406 -0.56650377823 0.16127122798 -0.80812440891 
-0.59902747119 0.11554174707 -0.79234853028 -0.69669063677 -0.028696166804 -0.71679752138 -0.78961636908 -0.18613741656 -0.5846869691 
-0.84879740474 -0.2983441091 -0.43650172769 -0.88150211368 -0.34925049836 -0.31777053511 -0.90216927151 -0.35573750007 -0.24401114028 
-0.91702616643 -0.34134048 -0.20627575427 -0.92785143872 -0.32140363176 -0.18918618648 -0.9364678058 -0.30021605769 -0.18137907104 
-0.94858215316 -0.26330293486 -0.17568000231 -0.97223719391 -0.16078844956 -0.17000562719 -0.97327448305 0.16642395525 -0.15823984253 
-0.51968859436 0.85089791453 -0.076788696719 0.26616520693 0.96300148301 0.042240103443 0.72869340836 0.67708698875 0.1027576093 
0.97200687318 0.20056150694 0.12238349734 0.97097067425 -0.21547596265 0.10385595444 0.90911302929 -0.40853637638 0.08131131005 
0.89150154385 -0.44690614034 0.074161304211 0.91986057157 -0.38165875452 0.090515876909 0.96507164346 -0.22219918827 0.13879569056 
0.97647560744 0.0018924153111 0.21561958826 0.92654383555 0.22499030129 0.30148944448 0.83879115723 0.39252863136 0.37729387499 
0.75084467805 0.49578779147 0.43637911873 0.68533623363 0.54961860353 0.4777380428 0.65525249142 0.56843786598 0.49751639672 
0.68377857911 0.55288600017 0.47619735989 0.83442102238 0.44950868416 0.31887850394 0.93186782322 -0.071987286754 -0.35558429465 
0.44304136384 -0.48578971362 -0.75347375805 0.27536214846 -0.54471457482 -0.79212481288 0.27518850158 -0.54475838652 -0.79215502834 
0.37419563859 -0.52030220619 -0.76763483395 0.64454938405 -0.42276244291 -0.63704631573 0.96494090737 0.14824720731 0.2165913452 
0.42386196291 0.49289828222 0.75986335599 0.20115305522 0.52414829329 0.82753006895 0.1105995069 0.52345429033 0.8448451663 
0.070183069489 0.51850354636 0.85219035971 0.053840526389 0.51462187946 0.85572514215 0.052782411318 0.51424392248 0.85601822717 
0.061106098817 0.51821917128 0.8530620934 0.072779801689 0.52513105728 0.84790357538 0.077383946137 0.52833792033 0.84550030563 
0.050589535731 0.50693576424 0.86049801267 -0.06883288464 0.39490207972 0.91614102704 -0.39218680874 -0.0047680103689 0.91987323753 
-0.62341458071 -0.45711001522 0.63435376135 -0.65193337746 -0.57789640713 0.49093646634 -0.64940220064 -0.55826508859 0.51634956441 
-0.63662457825 -0.47357060048 0.60863785023 -0.61109566786 -0.34895530634 0.71048735309 -0.57593915549 -0.20727455141 0.79077895111 
-0.53886661389 -0.069048180466 0.83955650269 -0.50583474535 0.055602243747 0.86083657037 -0.47865811933 0.16661401981 0.86204766295 
-0.45700120072 0.26658103825 0.84857790013 -0.4392361188 0.35958392121 0.82326850757 -0.42290364743 0.45040496241 0.78631283522 
-0.40906296437 0.52448627292 0.74671389481 -0.43490380043 0.31099912143 0.84506699784 -0.025312530906 -0.96279229869 0.26905439108 
-0.072109700136 -0.93086341488 0.35818081185 -0.18547437691 -0.81187877968 0.55358116172 -0.2699231494 -0.68485642771 0.67684057713 
-0.31998702033 -0.59677616224 0.73584408607 -0.34021267778 -0.56092067672 0.75473394538 -0.32489424333 -0.58536512799 0.74282662687 
-0.22693214676 -0.70813421594 0.66861628232 0.13122278513 -0.93637631778 0.32554565296 0.59052405104 -0.73237203982 -0.33898752254 
0.68592549671 -0.42272593088 -0.59229131374 0.69832623579 -0.27048506743 -0.66270528646 0.70152326896 -0.18634913787 -0.6878510754 
0.70409646313 -0.13516170007 -0.69712228873 0.70632950365 -0.11104059627 -0.69911988833 0.70552339936 -0.11604064194 -0.69912180796 
0.6974113094 -0.1474677739 -0.70133495649 0.6799461863 -0.19288295705 -0.70743858293 0.65517535571 -0.23870871644 -0.71677290823 
0.62456649757 -0.28065265338 -0.72880091813 0.58828883703 -0.31832763888 -0.74335977733 0.54398214307 -0.35349904014 -0.76100056284 
0.48592328187 -0.38852227018 -0.7828978284 0.39906533243 -0.42710822867 -0.81137255405 0.24945482033 -0.47130562894 -0.84595703008 
-0.044917678279 -0.50829905629 -0.86000841365 -0.55091947691 -0.44552688135 -0.70568656495 -0.55091947691 -0.44552688135 -0.70568656495 

plain_curvature_peaks 1 120 unsigned_char
0 0 0 0 0 0 0 0 0 
0 0 0 0 0 0 0 0 0 
0 0 0 0 0 0 0 0 0 
0 1 0 0 0 0 0 0 0 
0 0 0 0 0 0 0 0 0 
0 0 0 0 0 0 0 0 0 
0 0 0 0 0 0 0 0 0 
0 0 0 0 1 0 0 0 0 
0 0 0 0 0 0 0 0 0 
0 0 0 0 0 0 1 0 0 
0 0 0 0 0 0 0 0 0 
0 0 0 0 0 0 0 0 0 
0 0 0 0 0 0 0 1 0 
0 0 0 
weighted_curvature_peaks 1 120 unsigned_char
0 0 0 0 0 0 0 0 0 
0 0 0 0 0 0 0 0 0 
0 0 0 0 0 0 0 0 0 
0 0 0 0 1 0 0 0 0 
0 0 0 0 0 0 0 0 0 
0 0 0 0 0 0 0 0 0 
0 0 0 0 0 0 0 0 0 
0 0 0 0 0 0 0 0 0 
1 0 0 0 0 0 0 0 0 
0 0 0 0 0 0 0 0 0 
0 0 0 1 0 0 0 0 0 
0 0 0 0 0 0 0 0 0 
0 0 0 0 0 0 0 0 0 
1 0 0 
plain_torsion_tp 1 120 unsigned_char
0 0 0 0 0 0 0 0 0 
0 0 0 0 0 0 0 0 0 
0 0 0 0 0 0 0 0 0 
0 1 0 0 0 0 0 0 0 
0 0 0 0 0 0 0 0 0 
0 0 0 0 0 0 0 0 0 
0 0 0 0 0 0 0 0 0 
0 0 0 0 1 0 0 0 0 
0 0 0 0 0 0 0 0 0 
0 0 0 0 0 0 1 0 0 
0 0 0 0 0 0 0 0 0 
0 0 0 0 0 0 0 0 0 
0 0 0 0 0 0 0 1 0 
0 0 0 
plain_torsion_tn 1 120 unsigned_char
0 0 0 0 0 0 0 0 0 
0 2 0 0 0 0 0 0 0 
0 0 0 0 0 0 0 0 0 
0 0 0 0 0 0 0 0 0 
0 0 0 0 0 0 0 0 0 
0 0 0 0 0 0 2 0 0 
0 0 0 0 0 0 0 0 0 
0 0 0 0 0 0 0 0 2 
0 0 0 0 0 0 0 0 0 
0 0 0 0 0 0 0 0 0 
0 0 0 0 0 0 0 0 0 
0 0 0 2 0 0 0 0 0 
0 0 0 0 0 0 0 0 0 
0 0 0 
plain_torsion_tz 1 120 unsigned_char
0 0 0 0 0 0 0 0 0 
0 0 3 0 0 0 0 0 0 
0 0 0 0 0 0 0 0 0 
0 0 0 0 0 0 0 0 0 
0 0 0 0 0 0 0 0 3 
0 0 0 0 0 0 0 0 0 
0 0 0 0 3 0 0 0 0 
0 0 0 0 0 0 0 0 0 
0 3 0 0 0 0 0 0 0 
0 0 0 0 0 0 0 0 0 
0 0 0 0 0 0 3 0 0 
0 0 0 0 0 0 0 0 3 
0 0 0 0 0 0 0 0 0 
0 0 0 
weighted_torsion_tp 1 120 unsigned_char
0 0 0 0 0 0 0 0 0 
0 0 0 0 0 0 0 0 0 
0 0 0 0 0 0 0 0 0 
0 0 0 0 1 0 0 0 0 
0 0 0 0 0 0 0 0 0 
0 0 0 0 0 0 0 0 0 
0 0 0 0 0 0 0 0 0 
0 0 0 0 0 0 0 0 0 
1 0 0 0 0 0 0 0 0 
0 0 0 0 0 0 0 0 0 
0 0 0 1 0 0 0 0 0 
0 0 0 0 0 0 0 0 0 
0 0 0 0 0 0 0 0 0 
1 0 0 
weighted_torsion_tn 1 120 unsigned_char
0 0 0 0 0 0 0 0 0 
0 0 0 2 0 0 0 0 0 
0 0 0 0 0 0 0 0 0 
0 0 0 0 0 0 0 0 0 
0 0 0 0 0 0 0 0 0 
0 0 0 0 0 0 0 0 0 
0 2 0 0 0 0 0 0 0 
0 0 0 0 0 0 0 0 0 
0 0 0 0 2 0 0 0 0 
0 0 0 0 0 0 0 0 0 
0 0 0 0 0 0 0 0 0 
0 0 0 0 0 0 0 0 2 
0 0 0 0 0 0 0 0 0 
0 0 0 
weighted_torsion_tz 1 120 unsigned_char
0 0 0 0 0 0 0 0 0 
0 0 0 0 3 0 0 0 0 
0 0 0 0 0 0 0 0 0 
0 0 0 0 0 0 0 0 0 
0 0 0 0 0 0 0 0 0 
0 0 0 3 0 0 0 0 0 
0 0 0 0 0 0 0 0 0 
3 0 0 0 0 0 0 0 0 
0 0 0 0 0 0 0 3 0 
0 0 0 0 0 0 0 0 0 
0 0 0 0 0 0 0 0 0 
0 0 3 0 0 0 0 0 0 
0 0 0 0 3 0 0 0 0 
0 0 0 
plain_torsion_tp_raw 1 120 unsigned_char
0 0 0 0 0 0 0 0 0 
0 0 0 0 0 0 0 0 0 
0 0 0 0 0 0 0 0 0 
0 0 0 0 0 0 0 0 1 
0 0 0 0 0 0 0 0 0 
0 0 0 0 0 0 0 0 0 
1 0 0 0 0 0 0 0 0 
0 0 0 0 0 0 0 0 0 
1 0 0 0 0 0 0 0 0 
0 0 0 0 0 0 0 0 0 
0 1 0 0 0 0 0 0 0 
0 0 0 0 0 0 0 0 0 
0 0 1 0 0 0 0 0 0 
1 0 0 
plain_torsion_tn_raw 1 120 unsigned_char
0 0 0 0 0 0 0 0 0 
0 0 0 0 0 0 0 0 0 
0 0 2 0 0 0 0 0 0 
0 0 0 0 0 0 0 0 0 
0 0 0 0 0 0 0 0 0 
0 2 0 0 0 0 0 0 0 
0 0 0 0 0 0 0 0 0 
0 0 0 0 0 0 0 2 0 
0 0 0 0 0 2 0 0 0 
0 0 0 0 0 0 0 0 0 
0 0 0 0 0 0 0 0 0 
0 0 0 0 2 0 0 0 0 
0 0 0 0 0 2 0 0 0 
0 0 0 
plain_torsion_tz_raw 1 120 unsigned_char
0 0 0 0 0 0 0 0 0 
0 3 0 0 0 0 0 0 0 
0 0 0 0 0 0 0 0 0 
0 0 3 0 0 0 0 0 0 
3 0 0 0 0 0 0 0 0 
0 0 0 0 0 3 0 0 0 
0 0 0 0 0 0 0 0 0 
0 0 0 0 0 0 0 0 0 
0 0 0 0 0 0 0 0 0 
0 0 0 0 0 0 0 0 0 
0 0 0 0 0 0 0 0 0 
0 0 0 0 0 0 0 0 0 
0 0 0 0 0 0 0 0 0 
0 0 0 
weighted_torsion_tp_raw 1 120 unsigned_char
0 0 0 0 0 0 0 0 0 
0 0 0 0 0 0 0 0 0 
0 0 0 0 0 0 0 0 0 
0 0 0 0 0 0 0 0 0 
0 0 1 0 0 0 0 0 0 
0 0 0 0 0 0 0 0 0 
0 0 0 0 0 1 0 0 0 
0 0 0 0 0 0 0 0 0 
0 0 0 0 0 0 1 0 0 
0 0 0 0 0 0 0 0 0 
0 0 0 0 0 0 1 0 0 
0 0 0 0 0 0 0 0 0 
0 0 0 0 0 0 1 0 0 
0 1 0 
weighted_torsion_tn_raw 1 120 unsigned_char
0 0 0 0 0 0 0 0 0 
0 0 0 0 0 0 0 0 0 
0 0 0 0 0 0 2 0 0 
0 0 0 0 0 0 0 0 0 
0 0 0 0 0 0 0 0 0 
0 0 0 0 0 2 0 0 0 
0 0 0 0 0 0 0 0 0 
0 0 0 0 0 0 0 0 0 
0 0 0 2 0 0 0 0 0 
0 2 0 0 0 0 0 0 0 
0 0 0 0 0 0 0 0 0 
0 0 0 0 0 0 0 0 0 
2 0 0 0 0 0 0 0 2 
0 0 0 
weighted_torsion_tz_raw 1 120 unsigned_char
0 0 0 0 0 0 0 0 0 
0 0 0 3 0 0 0 0 0 
0 0 0 0 0 0 0 0 0 
0 0 0 0 0 0 3 0 0 
0 0 0 0 3 0 0 0 0 
0 0 0 0 0 0 0 0 0 
3 0 0 0 0 0 0 0 0 
0 0 0 0 0 0 0 0 0 
0 0 0 0 0 0 0 0 0 
0 0 0 0 0 0 0 0 0 
0 0 0 0 0 0 0 0 0 
0 0 0 0 0 0 0 0 0 
0 0 0 0 0 0 0 0 0 
0 0 0 
