# vtk DataFile Version 5.1
vtk output
ASCII
DATASET POLYDATA
POINTS 120 float
-2.43544 20.0268 -3.02188 -2.43086 19.3324 -3.53905 -2.54415 18.6682 -3.94182 
-2.76281 18.0326 -4.23874 -3.0738 17.4237 -4.43882 -3.46252 16.8388 -4.55242 
-3.91146 16.2737 -4.5924 -4.3992 15.7218 -4.57518 -4.90037 15.1749 -4.52112 
-5.38737 14.6235 -4.4542 -5.83367 14.0599 -4.40078 -6.21803 13.4796 -4.38798 
-6.52835 12.8836 -4.44144 -6.76364 12.2785 -4.58241 -6.93314 11.6752 -4.82448 
-7.05235 11.0861 -5.17078 -7.13719 10.5229 -5.61287 -7.19802 9.99428 -6.13188 
-7.23561 9.50599 -6.7021 -7.24041 9.06048 -7.29568 -7.19534 8.65777 -7.88757 
-7.08127 8.29505 -8.45933 -6.88338 7.96595 -9.00139 -6.59666 7.65899 -9.51324 
-6.22874 7.35846 -10.0019 -5.79964 7.04641 -10.4785 -5.33849 6.70546 -10.9529 
-4.87868 6.32284 -11.4283 -4.45275 5.89253 -11.8949 -4.08844 5.41622 -12.3276 
-3.80635 4.90363 -12.688 -3.61908 4.37179 -12.931 -3.53138 3.84444 -13.0158 
-3.541 3.34974 -12.917 -3.63959 2.91715 -12.6318 -3.81372 2.57384 -12.1815 
-4.04594 2.34096 -11.6064 -4.31594 2.2315 -10.9575 -4.60243 2.25026 -10.2857 
-4.88572 2.39503 -9.63333 -5.15044 2.65731 -9.0284 -5.38717 3.02377 -8.48189 
-5.59187 3.47611 -7.98839 -5.76328 3.99134 -7.52949 -5.89956 4.54336 -7.07956 
-5.9958 5.10382 -6.61282 -6.04364 5.64395 -6.10989 -6.03332 6.13481 -5.56236 
-5.95798 6.54761 -4.97469 -5.81835 6.85408 -4.3633 -5.62597 7.02842 -3.75365 
-5.40272 7.05016 -3.17585 -5.17669 6.90804 -2.65931 -4.97582 6.60359 -2.22685 
-4.82182 6.15187 -1.88911 -4.72651 5.58016 -1.64081 -4.69109 4.92313 -1.46074 
-4.7077 4.21754 -1.31634 -4.76231 3.49564 -1.17224 -4.83798 2.78119 -1.00005 
-4.91795 2.08693 -0.785926 -4.98798 1.41453 -0.533536 -5.03816 0.757463 -0.261629 
-5.06367 0.104423 0.00264389 -5.06466 -0.556434 0.232054 -5.04511 -1.23504 0.406852 
-5.01096 -1.93697 0.519639 -4.96769 -2.66285 0.576635 -4.91791 -3.40898 0.595704 
-4.85951 -4.16673 0.602046 -4.78487 -4.92412 0.6228 -4.68139 -5.66618 0.681781 
-4.53334 -6.37619 0.795449 -4.32472 -7.03675 0.970588 -4.04234 -7.63274 1.20411 
-3.67844 -8.15215 1.48478 -3.2322 -8.58897 1.79645 -2.70976 -8.94338 2.12186 
-2.12301 -9.22195 2.44638 -1.48743 -9.43651 2.76046 -0.819483 -9.60138 3.0606 
-0.134305 -9.7311 3.34853 0.556074 -9.83737 3.62934 1.24356 -9.92741 3.90909 
1.9239 -10.0023 4.19283 2.59587 -10.0584 4.48346 3.25989 -10.0882 4.78175 
3.91687 -10.0834 5.08698 4.5672 -10.0374 5.39814 5.21045 -9.94737 5.71468 
5.84563 -9.8153 6.03696 6.47173 -9.64756 6.36605 7.08845 -9.45264 6.70304 
7.69677 -9.23974 7.04822 8.29916 -9.01651 7.40032 8.89964 -8.78895 7.7567 
9.50327 -8.56265 8.11333 10.1154 -8.34485 8.46573 10.7404 -8.14713 8.81079 
11.3795 -7.98556 9.14749 12.0292 -7.87899 9.47807 12.6794 -7.84609 9.80805 
13.3132 -7.90069 10.1456 13.9082 -8.0493 10.5005 14.4384 -8.28967 10.8814 
14.8798 -8.6119 11.2951 15.2137 -9.00062 11.7443 15.431 -9.43742 12.2283 
15.5346 -9.90328 12.743 15.537 -10.3804 13.283 15.4598 -10.8538 13.8423 
15.3265 -11.3127 14.4154 15.161 -11.7517 14.9967 14.9841 -12.1718 15.5799 
14.8149 -12.5803 16.1574 14.6711 -12.9909 16.7197 14.5713 -13.4213 17.2554 
14.5344 -13.8923 17.7522 14.5801 -14.4255 18.1973 14.7281 -15.0427 18.5776 

LINES 2 120
OFFSETS vtktypeint64
0 120 
CONNECTIVITY vtktypeint64
0 1 2 3 4 5 6 7 8 
9 10 11 12 13 14 15 16 17 
18 19 20 21 22 23 24 25 26 
27 28 29 30 31 32 33 34 35 
36 37 38 39 40 41 42 43 44 
45 46 47 48 49 50 51 52 53 
54 55 56 57 58 59 60 61 62 
63 64 65 66 67 68 69 70 71 
72 73 74 75 76 77 78 79 80 
81 82 83 84 85 86 87 88 89 
90 91 92 93 94 95 96 97 98 
99 100 101 102 103 104 105 106 107 
108 109 110 111 112 113 114 115 116 
117 118 119 
CELL_DATA 1
FIELD FieldData 2
Length 1 1 double
84.422197065 
Tortuosity 1 1 double
0.89200235114 
POINT_DATA 120
FIELD FieldData 19
Curvature 1 120 double
0 0.21647998592 0.25095988619 0.25930368094 0.23592894812 0.18840317793 0.12988516977 0.070962486 0.034468598005 
0.07692124806 0.14336346789 0.2101831496 0.25920640875 0.2719592762 0.24750520105 0.20367630464 0.15885544282 0.12316869231 
0.1040679713 0.11449597896 0.15538175968 0.20348556102 0.22027625095 0.18336984734 0.11324672891 0.056353000313 0.064648996529 
0.10142241534 0.14236065771 0.20326272655 0.3189756551 0.52897307097 0.78879868899 0.84205809105 0.63074029151 0.41887445667 
0.30107605723 0.25189153399 0.24220641238 0.24852237579 0.2477368833 0.21753241375 0.15794997839 0.096500537562 0.080580211649 
0.11719907715 0.1627753925 0.20528423543 0.24823657477 0.30095707405 0.37777451855 0.48317223889 0.57360772656 0.55865525241 
0.4244541487 0.26535186401 0.14238933488 0.070276259635 0.065839481732 0.085401546931 0.083892338664 0.059427967123 0.049565562598 
0.087278990559 0.12455156712 0.13455639665 0.11345586395 0.072053724748 0.026523123326 0.037480081144 0.086282316895 0.13718886432 
0.18671104758 0.22774867675 0.25172405314 0.25106332475 0.2281776759 0.19127386867 0.14890845603 0.10827545955 0.072147521717 
0.044030632099 0.027879993897 0.028557320665 0.037969417991 0.052410003031 0.067649298863 0.080540131253 0.086041637405 0.082577511896 
0.070989004119 0.056075135198 0.040123872546 0.025582850007 0.011352268426 0.0045982853614 0.022999312642 0.045463361086 0.072404330903 
0.10331966999 0.1367553421 0.1696159854 0.20190844548 0.23404670584 0.26360518116 0.28355446167 0.28183389138 0.25157167526 
0.20499075074 0.15194973599 0.1069969381 0.069656324835 0.038204030695 0.014432066135 0.047763749909 0.10657769362 0.17681393366 
0.24295467035 0.27572886425 0 
Torsion 1 120 double
0 0 -0.016553341333 -0.023183424467 -0.038145831737 -0.073710884509 -0.17153498867 -0.59143826821 -2.5841767052 
-0.62105477868 -0.27554754412 -0.21965532382 -0.21614048505 -0.22212118933 -0.21656950351 -0.17450521225 -0.063268941941 0.15946435917 
0.46273227361 0.50362809395 0.30235511193 0.17807930231 0.14631966375 0.19618157736 0.46239127722 1.526788908 0.77299578921 
0.07764368223 -0.15990012618 -0.26097078604 -0.25319561101 -0.18057037419 -0.10833224119 -0.065503721799 -0.034590578785 -0.0059927545322 
0.0041553153487 -0.0069416922297 -0.024264925635 -0.039245937341 -0.060975703149 -0.11810653459 -0.29539723525 -0.86277405892 -1.10232901 
-0.38491753312 -0.13401332317 -0.077841643155 -0.094626243579 -0.13809208528 -0.16939260915 -0.16504489546 -0.14174150584 -0.12982190056 
-0.14971488492 -0.23323936345 -0.50768748264 -1.3623462257 -1.0508937345 -0.4611799966 -0.43498553388 -0.96682989616 -1.5985277242 
-0.53585000933 -0.22708544483 -0.12481847274 -0.057146542847 0.099592524802 1.6334674024 0.72888984316 0.0065263048786 -0.10076629846 
-0.13551962243 -0.14966777252 -0.15342434897 -0.15126107235 -0.14238207979 -0.12634358004 -0.10084255756 -0.056653175103 0.032565477039 
0.26064219691 0.63910495618 0.32281765121 -0.068187981594 -0.15168201678 -0.11292986089 -0.052572374427 0.0043091847914 0.059965994895 
0.11777571624 0.17409109906 0.21552292154 0.21103502083 0.3103813402 0.7791361635 -0.18406610184 -0.23092994604 -0.23691725415 
-0.23621195328 -0.23390727608 -0.23739696506 -0.23922847388 -0.22483896149 -0.19535126814 -0.16121135212 -0.13295560381 -0.12366779442 
-0.13601295545 -0.17452141666 -0.23591490009 -0.33368593923 -0.63080845096 -3.9547583131 -0.53421883117 -0.17386520144 -0.081793127574 
-0.044580142253 0 0 
FrenetTangent 3 120 double
-0.066117563326 -0.82620934696 -0.55946991235 -0.066117563326 -0.82620934696 -0.55946991235 -0.2193945295 -0.85907739122 -0.46244143016 
-0.36756681532 -0.86367357349 -0.34490954574 -0.4931608918 -0.84137706583 -0.22108136033 -0.58536455707 -0.80363520578 -0.10732563235 
-0.64246980121 -0.76615196356 -0.01561163856 -0.66817363678 -0.74244486454 0.048162373651 -0.66662168758 -0.74091465133 0.081614980767 
-0.63969117022 -0.7641931406 0.082486669316 -0.58693838957 -0.80827845545 0.046789585407 -0.50829282969 -0.86067015208 -0.0297537998 
-0.40917303793 -0.90073116659 -0.14581080404 -0.30417554156 -0.90809173688 -0.28783091795 -0.21217794895 -0.8763585055 -0.43240754828 
-0.14461067675 -0.81664801719 -0.55872512758 -0.099648836802 -0.7468751966 -0.65745535972 -0.065906948098 -0.68092085272 -0.72938540329 
-0.028396976825 -0.62556978521 -0.77965123969 0.027617440523 -0.5816777488 -0.81295035121 0.11352297057 -0.54599489608 -0.83006150893 
0.23146073798 -0.51329872638 -0.8264080979 0.36631001132 -0.48080036244 -0.79664796936 0.48812477406 -0.45296683988 -0.74602630444 
0.57191420948 -0.43956268589 -0.69260290366 0.61093493949 -0.44812447647 -0.65264305198 0.61073732886 -0.47984006292 -0.62988366319 
0.57994171677 -0.53226828589 -0.61673177069 0.52621309259 -0.60371401378 -0.59885655273 0.45426276683 -0.6949634907 -0.55737876284 
0.36264845392 -0.80695710379 -0.46616127199 0.2407098442 -0.92721367619 -0.2869382679 0.076166126556 -0.9970019934 0.0136288784 
-0.10719290318 -0.91860250701 0.3803670801 -0.24717865425 -0.70321423685 0.66662766967 -0.32654423198 -0.46303110758 0.82399700119 
-0.36750747614 -0.2505112793 0.89564633306 -0.38751137707 -0.063156548405 0.91969896327 -0.39272852493 0.11270988412 0.91272163759 
-0.38304810496 0.28451496755 0.87882044954 -0.35703804921 0.44766544144 0.81982893579 -0.31636221173 0.5868189999 0.74535790889 
-0.2669686843 0.68680360175 0.67603885556 -0.21439522514 0.74365228826 0.63325821084 -0.15924845923 0.76191326155 0.62779623296 
-0.097757433195 0.74673059877 0.65790341017 -0.025483419035 0.70023179873 0.71346059695 0.05893371188 0.62171785377 0.78102095228 
0.15195332034 0.50843446497 0.84758750773 0.24527201179 0.35519419153 0.90204142174 0.32642931557 0.15399531873 0.93259280704 
0.37783356278 -0.10123589552 0.92032227632 0.37699512346 -0.39436650372 0.8380630869 0.31233876458 -0.665526649 0.67787814215 
0.20682642258 -0.84903354501 0.48617370391 0.099956478504 -0.93953387392 0.32754358819 0.013428773474 -0.97271246283 0.23162498288 
-0.048843190046 -0.97901238589 0.19786129249 -0.088238850568 -0.9727933628 0.21421246121 -0.10594936353 -0.95896672744 0.26297822728 
-0.10331429662 -0.94131698564 0.32132302853 -0.083821706104 -0.92699850181 0.36557858146 -0.053394780477 -0.92417067174 0.37822951618 
-0.018873630965 -0.93593474897 0.35166735949 0.013266634541 -0.95727469328 0.28887567918 0.038048893176 -0.97827516678 0.2037890571 
0.053766309969 -0.99156784601 0.11790839948 0.063006072209 -0.99668336043 0.051502562188 0.071735291349 -0.9972813423 0.016851477182 
0.087453814318 -0.99600931461 0.017812230767 0.11780084553 -0.99163621998 0.052731091601 0.16952311747 -0.97863305863 0.11635827943 
0.24676747258 -0.94825077434 0.19981562364 0.34832342355 -0.8914158024 0.28991146897 0.4656604157 -0.80367721034 0.37049064608 
0.58443096089 -0.68981784415 0.42730761033 0.69011159495 -0.56369037367 0.45387129139 0.77405315618 -0.44173023622 0.4535593785 
0.83457960727 -0.33669239603 0.43602191412 0.87478805027 -0.25463382534 0.41219835286 0.89937765886 -0.19580768406 0.39086977065 
0.9127248736 -0.1565876953 0.37737726322 0.91831514561 -0.13083528085 0.3736032958 0.91891908325 -0.1108174788 0.37855938086 
0.91678112381 -0.088834378784 0.3893851874 0.91346430602 -0.058697386721 0.40266310785 0.90943625024 -0.017160261558 0.41548914807 
0.90394277009 0.035135963346 0.42620761664 0.89567871329 0.094170530978 0.43461655934 0.88393283591 0.15353407678 0.44168996918 
0.86933034794 0.2066427683 0.44895825247 0.8536130515 0.2490918978 0.45749096687 0.83891198868 0.27927291232 0.46715448803 
0.82719465745 0.29797761381 0.47640144873 0.81996070677 0.30728792243 0.48294779437 0.8184883008 0.30850627107 0.48466563955 
0.82379424456 0.30092026028 0.48042693471 0.83605240718 0.28080793365 0.47134199563 0.85383022698 0.24269367185 0.46051463076 
0.87325161144 0.18168725226 0.45212981043 0.88745821795 0.095210647027 0.4509466089 0.88715341369 -0.014996734272 0.46123087337 
0.86229416238 -0.14260940845 0.4859128874 0.8039545344 -0.27792761458 0.5257502712 0.70638423867 -0.40902041932 0.57768815457 
0.56988752422 -0.52254538171 0.63417232184 0.40458960959 -0.60592123246 0.68495744968 0.23181877675 -0.65226850309 0.72166879843 
0.074696945462 -0.66464996032 0.74341159298 -0.051389470175 -0.65317115647 0.7554644682 -0.14204164677 -0.62914960681 0.76419561817 
-0.20016682393 -0.6015463182 0.77335326317 -0.23029180035 -0.577681985 0.78310229913 -0.23582526221 -0.56462178606 0.79094164412 
-0.21762519908 -0.56962966282 0.79256628742 -0.17346519663 -0.5988833012 0.78182390415 -0.099254191786 -0.65441037697 0.74959700101 
0.0063725981368 -0.72933069596 0.68413165833 0.13552363187 -0.80500109751 0.57758685772 0.13552363187 -0.80500109751 0.57758685772 

FrenetNormal 3 120 double
-0.84416330102 -0.25262449235 0.47283103438 -0.84416330102 -0.25262449235 0.47283103438 -0.81147417419 -0.10246550091 0.57533510735 
-0.74765312843 0.053858558842 0.66190184709 -0.65887097341 0.19530161385 0.72646150622 -0.55457638032 0.30030900585 0.77605382507 
-0.4332185377 0.34632749551 0.83209312246 -0.22312353402 0.2617160294 0.93899979154 0.56616928917 -0.43207306725 0.70197236452 
0.71700525969 -0.63194587473 -0.29419019188 0.66037781384 -0.51137215336 -0.54990877767 0.63981947973 -0.35428650701 -0.68199127876 
0.61661935648 -0.15516790517 -0.77181830142 0.5654613514 0.071043320815 -0.82170938089 0.47956019169 0.29216416856 -0.82744312261 
0.37834546843 0.47611735263 -0.79383056948 0.30910435905 0.60481735118 -0.73392810746 0.34652923885 0.6698595774 -0.65666249564 
0.56102216932 0.63556239687 -0.53039095506 0.83087147634 0.46552297762 -0.30486217724 0.94997224908 0.30432958202 -0.070258319659 
0.9633347677 0.2394149501 0.1211057679 0.92993379784 0.21883867185 0.29552117915 0.87003711464 0.18490250569 0.45699724566 
0.78371180887 0.043393923107 0.61960694644 0.43476130566 -0.49903591878 0.74963041485 -0.36434190317 -0.87655744264 0.31448692715 
-0.57597053093 -0.803279796 0.15165591597 -0.60463866969 -0.76082588856 0.23570330166 -0.56811111096 -0.70791539182 0.41964933412 
-0.51163368128 -0.59048489612 0.62414626782 -0.47641179788 -0.37043737628 0.79737566372 -0.45634871605 -0.02270333705 0.88951133092 
-0.40330747885 0.38985638805 0.82786174824 -0.30957602264 0.70923057435 0.6333677278 -0.21674965866 0.88523864919 0.41154844119 
-0.14049908358 0.96694124282 0.21280188073 -0.069201841567 0.99682846732 0.039295188828 0.010272483549 0.99293721484 -0.11819544609 
0.099709989152 0.95856046302 -0.26687029958 0.19626643844 0.89403719752 -0.40271202439 0.30481112338 0.80692982067 -0.50591940423 
0.46192098123 0.70686040487 -0.53570269285 0.7681032169 0.5288594253 -0.36100575682 0.97160308397 0.0082280785117 0.23647356288 
0.76645747273 -0.36518473147 0.52837775729 0.65808741145 -0.52548449694 0.53924669899 0.60699647647 -0.64344708544 0.4664023218 
0.54735569127 -0.75733011438 0.35616407045 0.4462619919 -0.86738657599 0.22020618153 0.29385089489 -0.95428356255 0.054722333785 
0.10205827613 -0.98339317459 -0.1500732236 -0.10414389787 -0.91713613742 -0.38472763608 -0.29323950494 -0.74627538359 -0.59756476184 
-0.443373511 -0.52430124976 -0.72699940113 -0.57435793353 -0.32329168593 -0.75206080206 -0.75268509189 -0.16232679264 -0.63805576938 
-0.9943538673 0.028977553461 -0.10208177106 -0.58547516025 0.22463336337 0.77894716688 -0.11117304748 0.27423231603 0.95521578209 
0.20282052577 0.29632679729 0.93330287878 0.62582055304 0.23652181593 0.74324024782 0.97354296895 -0.13245226175 -0.18620012344 
0.56812554946 -0.29946800341 -0.76651958552 0.33637957608 -0.26779005736 -0.90284952566 0.21191609422 -0.19139866185 -0.95836220776 
0.1389861359 -0.10949857618 -0.98422198504 0.13584200914 -0.042560342122 -0.98981592523 0.51399756339 0.022482797615 -0.85749695547 
0.74413671399 0.077205018576 0.66355100483 0.6081609241 0.11402012763 0.78558239599 0.62949495941 0.1983673775 0.75125660038 
0.67099360633 0.3159610291 0.67077284408 0.69807947064 0.45309173033 0.55443028108 0.6959622553 0.59116391773 0.4076294415 
0.66150948782 0.71000804425 0.24144103759 0.60196615354 0.79523610646 0.072362179115 0.52996274831 0.8440028642 -0.082453930376 
0.45839776027 0.86341286711 -0.21068866674 0.39423015844 0.86864977597 -0.30005024393 0.33737716396 0.87947124022 -0.33571861264 
0.2669146885 0.92782493796 -0.26057135982 0.11842424293 0.99137748623 0.05609258854 -0.060462280531 0.90880953713 0.41280690141 
-0.10972461682 0.88141321961 0.45942490656 -0.096903596055 0.92969459472 0.355355672 -0.092608868669 0.9656985562 0.24258997507 
-0.11417960426 0.98026976498 0.16135118789 -0.16048497219 0.97990962519 0.11841326008 -0.2250794917 0.96763841516 0.11408382845 
-0.30211267497 0.9411040936 0.15182561254 -0.38384815073 0.89450621714 0.2291707326 -0.46329353486 0.81686529588 0.34364253075 
-0.52152491688 0.72274841901 0.45348261696 -0.55846266791 0.61461395254 0.55710783328 0.50518584408 -0.78822467334 -0.35141019803 
0.52054049567 -0.73716118873 -0.4308491316 0.46092696602 -0.82547287572 -0.32579266942 0.36775210786 -0.90734735784 -0.20366433017 
0.24317351732 -0.96657350829 -0.081254498564 0.089545716699 -0.99540426959 0.033939721669 -0.08755231951 -0.98678883038 0.13631726081 
-0.28045225176 -0.9334282465 0.2237369954 -0.47518994471 -0.83178330732 0.28693387063 -0.65338176866 -0.69068403542 0.30991583955 
-0.80185289353 -0.52232687369 0.29018369038 -0.90999472566 -0.34099179735 0.23586901749 -0.97272783729 -0.16137492889 0.16660938412 
-0.99383497091 0.011630873353 0.11025775883 -0.98003262023 0.17847774826 0.087645631149 -0.93138049946 0.34637487103 0.11204826614 
-0.82745351607 0.52646413246 0.19533611025 -0.61392404562 0.71062296521 0.3436746536 0.61064218472 0.54704948269 0.57258447911 
0.88180206756 -0.46284940883 -0.090529212927 0.78297316217 -0.56539837985 -0.25937945056 0.73937713248 -0.55265237707 -0.38457353793 
0.7169081202 -0.47362177951 -0.51159081028 0.68477700476 -0.3452089432 -0.64180311567 0.68477700476 -0.3452089432 -0.64180311567 

FrenetBinormal 3 120 double
-0.53199322272 0.50354640389 -0.68075269379 -0.53199322272 0.50354640389 -0.68075269379 -0.54164167588 0.50148465283 -0.67463874624 
-0.55309080251 0.50116585488 -0.66552486811 -0.56805050408 0.50392649535 -0.65067404443 -0.59143332145 0.51379466427 -0.62146735171 
-0.63210303996 0.54135795421 -0.55441619051 -0.70976043823 0.61666874664 -0.34052867316 -0.48483797463 0.51415789792 0.70751239873 
0.27694523706 -0.12904749236 0.95218069734 0.4684063085 -0.29186376825 0.83391310755 0.57642816781 -0.36568833761 0.73075482009 
0.67257564202 -0.40571700328 0.61889879545 0.76663596315 -0.41270115577 0.49188114015 0.85147081015 -0.38293063137 0.35827585885 
0.91429888914 -0.326187496 0.24012342402 0.94579310874 -0.27635739977 0.17059303341 0.93572098449 -0.29603198965 0.19181058441 
0.82731356645 -0.45246312946 0.3329104673 0.5557786131 -0.66703774545 0.49615600305 0.290972956 -0.78055946536 0.5532283976 
0.1356910171 -0.82413888342 0.54989367037 0.032250693503 -0.84908223817 0.52727530342 -0.069062465196 -0.87214225065 0.48435345621 
-0.24230133643 -0.89716309142 0.3693080689 -0.66162006228 -0.74171935754 -0.11005129635 -0.70303263988 0.037424106773 -0.71017219285 
-0.57612980539 0.26726773314 -0.77242631116 -0.59792295516 0.23806166608 -0.76538538191 -0.6862179714 0.12602200057 -0.71639608535 
-0.77892045489 0.012158128615 -0.62700486829 -0.84563027958 -0.05523539569 -0.53090345762 -0.88653514906 -0.073970153764 -0.45670980483 
-0.90876441337 -0.064663983884 -0.41226909923 -0.91818592839 -0.049816959959 -0.39300492543 -0.91999372282 -0.044212299095 -0.38943140934 
-0.9193466498 -0.047631206905 -0.3905547409 -0.91926385644 -0.04841752921 -0.39065292153 -0.91959707578 -0.037042805189 -0.39111257816 
-0.91833113164 -0.014596985034 -0.39554375318 -0.91323782037 0.01712138978 -0.40706699873 -0.89833464258 0.067139599853 -0.43415106136 
-0.84578763806 0.16926068842 -0.50595858591 -0.60336733059 0.40900975837 -0.68458665043 0.17500678687 0.64762680658 -0.74158758346 
0.63481211926 0.55590783837 -0.53663772555 0.75251016887 0.48326128701 -0.4474225902 0.79251630592 0.44659014603 -0.41530127174 
0.82298963279 0.40981153312 -0.39337332351 0.86063457682 0.34853638849 -0.37125531792 0.89838496955 0.25618025695 -0.3567577924 
0.92023144214 0.15062920576 -0.36122698579 0.92034163517 0.05776128613 -0.38682671625 0.90357904407 -0.012138011344 -0.42824943642 
0.87214835932 -0.065193856702 -0.48487833565 0.81247871762 -0.11295390906 -0.57194383276 0.65824373942 -0.16577236513 -0.7343260192 
0.094205782064 -0.20173014073 -0.97490010819 -0.80587389955 -0.056682672396 -0.58936773976 -0.98813728089 0.071968413197 -0.13566599286 
-0.97375047648 0.16159443604 0.16030361131 -0.77544990617 0.29108625564 0.56030905293 0.22217804804 0.35828057141 0.90679211902 
0.82272543786 0.18532420405 0.5373804921 0.94163303744 0.1091496532 0.31845498269 0.97654690145 0.07965080229 0.20002974517 
0.98883367557 0.069305617161 0.13192684902 0.98872502923 0.069360625182 0.13270991017 0.85478684641 0.070174412143 0.51421299 
-0.66227817514 -0.044775331495 0.74791897183 -0.78502436344 -0.060473281084 0.61650606736 -0.75828623139 -0.054108410532 0.64967243376 
-0.69919481887 -0.0314499135 0.71423911136 -0.625584403 0.0092601911669 0.78010153415 -0.54662319421 0.068030610431 0.83461063952 
-0.46994217674 0.14156242085 0.87127173231 -0.40172470238 0.22327717664 0.88812418382 -0.34638302039 0.3041932998 0.88740365085 
-0.30552965897 0.3757079336 0.87492581178 -0.28165306546 0.42498138982 0.8602687772 -0.27802243792 0.43380835457 0.85703782619 
-0.30933776714 0.33855749612 0.88864445514 -0.37772078581 -0.0072669861511 0.9258910297 -0.38978459574 -0.40222470288 0.82842214922 
-0.38402197786 -0.46391722263 0.79831568384 -0.39521216417 -0.36362422546 0.84355483992 -0.40540017783 -0.25909809722 0.8766520814 
-0.41212921077 -0.19451645673 0.89011957718 -0.41473391019 -0.17580966287 0.89279714727 -0.40988042649 -0.20025779577 0.88988474041 
-0.39114278438 -0.26762259118 0.88055974863 -0.35214394144 -0.37123018998 0.85917564593 -0.28563223872 -0.50471549295 0.8146634246 
-0.20919072577 -0.62357362395 0.75325638116 -0.12563394411 -0.72651484642 0.67556812389 0.2736131656 0.53247135608 -0.80100567449 
0.22450085747 0.60501270961 -0.76391032603 0.29759486629 0.48963398151 -0.8195705337 0.36841868936 0.34324998742 -0.86397170988 
0.42225379049 0.1809016181 -0.88824340188 0.45210560272 0.010260252377 -0.89190540486 0.45309316033 -0.16131615606 -0.87674607833 
0.42165781387 -0.32920246848 -0.84488485769 0.35756345319 -0.48051302867 -0.80078436937 0.27223807917 -0.59637057254 -0.75513480151 
0.17961109899 -0.67388497614 -0.71667209521 0.090646826093 -0.71873782021 -0.68934686386 0.0077851974481 -0.74061051316 -0.67188946896 
-0.081929341121 -0.74706435668 -0.65968358327 -0.19208119543 -0.73587575971 -0.64930091686 -0.33519328127 -0.6958413763 -0.63517733211 
-0.52464647272 -0.60081406799 -0.60313226938 -0.75502513396 -0.4016198769 -0.51830350334 -0.75597788853 0.61801221848 0.21577379329 
0.41840696263 0.67918515294 0.60302830916 0.59737999035 0.5671538271 0.56698649325 0.66593547839 0.51606434544 0.53870913302 
0.69713853514 0.49371970379 0.51984489698 0.71604036127 0.4824976876 0.50446227064 0.71604036127 0.4824976876 0.50446227064 

plain_curvature_peaks 1 120 unsigned_char
0 0 0 0 0 0 0 0 1 
0 0 0 0 0 0 0 0 0 
0 0 0 0 0 0 0 0 0 
0 0 0 0 0 0 0 0 0 
0 0 0 0 0 0 0 0 0 
0 0 0 1 0 0 0 0 0 
0 0 0 0 0 0 0 0 0 
0 0 0 0 0 0 0 0 0 
0 0 0 0 0 0 0 0 0 
0 0 0 0 0 0 0 1 0 
0 0 0 0 0 0 0 0 0 
0 0 0 0 0 0 0 0 0 
0 0 0 0 0 0 0 0 0 
0 1 0 
weighted_curvature_peaks 1 120 unsigned_char
0 0 0 0 0 0 0 0 0 
1 0 0 0 0 0 0 0 0 
0 0 0 0 0 0 0 0 0 
0 0 1 0 0 0 0 0 0 
0 0 0 0 0 0 0 0 0 
0 0 0 0 0 0 0 0 0 
0 0 0 0 0 0 0 0 1 
0 0 0 0 0 0 0 0 0 
0 0 0 0 0 0 0 0 0 
0 0 0 0 0 0 0 0 0 
0 0 0 0 0 0 0 0 1 
0 0 0 0 0 0 0 0 0 
0 0 0 0 0 0 0 0 0 
0 0 0 
plain_torsion_tp 1 120 unsigned_char
0 0 0 0 0 0 0 0 1 
0 0 0 0 0 0 0 0 0 
0 0 0 0 0 0 0 0 0 
0 0 0 0 0 0 0 0 0 
0 0 0 0 0 0 0 0 0 
0 0 0 1 0 0 0 0 0 
0 0 0 0 0 0 0 0 0 
0 0 0 0 0 0 0 0 0 
0 0 0 0 0 0 0 0 0 
0 0 0 0 0 0 0 1 0 
0 0 0 0 0 0 0 0 0 
0 0 0 0 0 0 0 0 0 
0 0 0 0 0 0 0 0 0 
0 1 0 
plain_torsion_tn 1 120 unsigned_char
0 0 0 0 0 2 0 0 0 
0 0 0 0 0 0 0 0 0 
0 0 0 0 0 0 0 0 0 
2 0 0 0 0 0 0 0 0 
0 0 0 0 0 0 0 0 0 
0 0 0 0 0 0 0 0 0 
0 0 0 0 0 0 0 0 0 
0 0 0 2 0 0 0 0 0 
0 0 0 0 0 0 0 0 0 
0 0 0 0 0 0 0 0 0 
0 0 0 0 0 0 0 0 0 
0 0 0 0 0 0 0 0 0 
2 0 0 0 0 0 0 0 0 
0 0 0 
plain_torsion_tz 1 120 unsigned_char
0 0 0 0 0 3 0 0 0 
0 0 0 0 0 0 0 0 0 
3 0 0 0 0 0 0 0 0 
0 0 0 0 0 0 0 3 0 
0 0 0 0 0 0 0 0 0 
0 0 0 0 0 0 0 0 0 
0 0 0 0 0 0 0 0 0 
0 0 0 0 0 0 0 0 0 
3 0 0 0 0 0 0 0 0 
0 0 0 0 0 0 0 0 0 
0 0 0 0 0 0 0 0 0 
0 3 0 0 0 0 0 0 0 
0 0 0 3 0 0 0 0 0 
0 0 0 
weighted_torsion_tp 1 120 unsigned_char
0 0 0 0 0 0 0 0 0 
1 0 0 0 0 0 0 0 0 
0 0 0 0 0 0 0 0 0 
0 0 1 0 0 0 0 0 0 
0 0 0 0 0 0 0 0 0 
0 0 0 0 0 0 0 0 0 
0 0 0 0 0 0 0 0 1 
0 0 0 0 0 0 0 0 0 
0 0 0 0 0 0 0 0 0 
0 0 0 0 0 0 0 0 0 
0 0 0 0 0 0 0 0 1 
0 0 0 0 0 0 0 0 0 
0 0 0 0 0 0 0 0 0 
0 0 0 
weighted_torsion_tn 1 120 unsigned_char
0 2 0 0 0 0 0 0 0 
0 0 0 0 0 0 0 0 0 
0 0 0 0 0 0 0 0 2 
0 0 0 0 0 0 0 0 0 
0 0 0 0 2 0 0 0 0 
0 0 0 0 0 0 0 0 0 
0 0 0 0 0 0 0 0 0 
0 0 0 0 0 0 0 0 0 
0 0 0 0 0 0 0 0 0 
0 2 0 0 0 0 0 0 0 
0 0 0 0 0 0 0 0 0 
0 0 0 0 0 0 0 0 0 
0 0 0 0 0 0 0 0 0 
0 0 0 
weighted_torsion_tz 1 120 unsigned_char
0 0 3 0 0 0 0 0 0 
0 0 0 0 0 0 0 0 0 
0 3 0 0 0 0 0 0 0 
3 0 0 0 0 0 0 0 0 
0 0 0 0 0 0 0 0 0 
0 3 0 0 0 0 0 0 0 
0 0 0 0 0 0 0 0 0 
0 0 0 0 0 0 0 0 0 
0 3 0 0 0 0 0 0 0 
0 0 0 0 0 3 0 0 0 
0 0 0 0 0 0 0 0 0 
0 0 0 0 0 0 0 0 0 
0 0 0 0 0 0 0 0 0 
0 0 0 
plain_torsion_tp_raw 1 120 unsigned_char
0 0 0 0 0 0 0 0 0 
0 0 0 1 0 0 0 0 0 
0 0 0 0 0 0 0 0 0 
0 0 0 1 0 0 0 0 0 
0 0 0 0 0 0 0 0 0 
0 0 0 0 0 0 0 0 0 
0 0 0 0 0 0 0 0 0 
0 0 0 0 0 0 0 1 0 
0 0 0 0 0 0 0 0 0 
0 0 0 0 0 0 0 0 0 
0 0 0 0 1 0 0 0 0 
0 0 0 0 0 0 0 0 0 
0 0 0 0 0 0 1 0 0 
0 1 0 
plain_torsion_tn_raw 1 120 unsigned_char
0 0 0 0 0 0 2 0 0 
0 0 0 0 0 0 0 0 0 
0 0 2 0 0 0 0 0 0 
0 0 0 0 0 0 0 0 0 
0 0 0 0 0 0 0 0 0 
0 0 0 0 0 0 0 0 0 
0 0 0 0 0 0 2 0 0 
0 0 0 0 0 0 0 0 0 
0 0 0 2 0 0 0 0 0 
0 0 0 0 0 0 0 0 0 
0 0 0 0 0 0 0 0 0 
0 0 0 0 0 0 0 0 0 
2 0 0 0 0 0 0 0 2 
0 0 0 
plain_torsion_tz_raw 1 120 unsigned_char
0 0 0 0 0 3 0 0 0 
3 0 0 0 3 0 0 0 0 
0 0 0 0 0 0 0 0 3 
0 0 0 0 0 0 0 0 0 
0 0 0 0 0 0 0 0 0 
0 0 0 0 0 0 0 0 0 
0 0 0 0 0 0 0 0 0 
0 0 0 0 0 0 0 0 0 
0 0 0 0 0 0 0 0 0 
0 0 0 0 0 0 0 0 0 
0 0 0 0 0 0 0 0 0 
0 0 0 0 0 0 0 0 0 
0 0 0 0 0 0 0 0 0 
0 0 0 
weighted_torsion_tp_raw 1 120 unsigned_char
0 0 0 0 0 0 0 0 0 
0 0 0 0 1 0 0 0 0 
0 0 0 0 0 0 0 0 0 
1 0 0 0 0 0 0 0 0 
0 0 0 0 0 0 0 0 1 
0 0 0 0 0 0 0 0 0 
0 0 0 0 0 0 0 0 0 
0 0 0 1 0 0 0 0 0 
0 0 0 0 0 0 0 0 0 
0 0 0 0 0 0 0 0 0 
0 1 0 0 0 0 0 0 0 
0 0 1 0 0 0 0 0 0 
0 0 0 0 0 0 0 0 0 
0 0 0 
weighted_torsion_tn_raw 1 120 unsigned_char
0 0 0 0 0 0 2 0 0 
0 0 0 0 0 0 0 0 0 
0 0 0 2 0 0 0 0 0 
0 0 0 0 0 0 0 0 2 
0 0 0 0 0 0 0 0 0 
0 0 0 0 2 0 0 0 0 
0 0 0 0 0 0 0 0 0 
0 0 0 0 0 0 0 0 0 
0 0 0 0 0 0 0 0 0 
0 2 0 0 0 0 0 0 0 
0 0 0 0 0 2 0 0 0 
0 0 0 0 0 0 0 0 0 
0 0 0 0 0 0 0 0 0 
0 0 0 
weighted_torsion_tz_raw 1 120 unsigned_char
0 3 0 0 0 0 0 0 0 
0 3 0 0 0 3 0 0 0 
0 0 0 0 0 0 0 3 0 
0 0 0 0 0 0 0 0 0 
0 0 0 0 0 0 0 0 0 
0 0 0 0 0 0 0 0 0 
0 0 0 0 0 0 0 0 0 
0 0 0 0 0 0 0 0 0 
0 0 0 0 0 0 0 0 0 
0 0 0 0 0 0 0 0 0 
0 0 0 0 0 0 0 0 0 
0 0 0 0 0 0 0 0 0 
0 0 0 0 0 0 0 0 0 
0 0 0 
