# vtk DataFile Version 5.1
vtk output
ASCII
DATASET POLYDATA
POINTS 120 float
0 0 0 -0.141334 -0.620868 -0.508678 -0.399809 -1.20126 -0.787966 
-0.750996 -1.74187 -0.880878 -1.17056 -2.24349 -0.830726 -1.6345 -2.70701 -0.681375 
-2.11972 -3.13352 -0.477207 -2.60504 -3.52435 -0.262274 -3.07295 -3.88115 -0.0782033 
-3.51165 -4.20627 0.0394546 -3.91622 -4.50325 0.0652764 -4.28788 -4.7773 -0.0140869 
-4.63198 -5.03539 -0.20079 -4.95581 -5.28578 -0.489103 -5.26732 -5.53752 -0.865745 
-5.57394 -5.79941 -1.31005 -5.88109 -6.07795 -1.79802 -6.19125 -6.37592 -2.30673 
-6.50312 -6.69146 -2.81749 -6.81064 -7.01793 -3.31823 -7.10247 -7.34513 -3.80425 
-7.36318 -7.6621 -4.27653 -7.57568 -7.96013 -4.73842 -7.72401 -8.23409 -5.19291 
-7.79547 -8.48266 -5.64143 -7.7819 -8.70739 -6.08373 -7.68025 -8.9115 -6.51859 
-7.49267 -9.09904 -6.94482 -7.22639 -9.27473 -7.3625 -6.89334 -9.44445 -7.77362 
-6.50861 -9.61579 -8.18174 -6.0889 -9.7984 -8.59077 -5.64972 -10.003 -9.0025 
-5.20287 -10.2392 -9.41414 -4.75605 -10.5136 -9.8179 -4.31383 -10.8294 -10.2018 
-3.8783 -11.1851 -10.5496 -3.44958 -11.5723 -10.8397 -3.02778 -11.974 -11.0468 
-2.61555 -12.3692 -11.1471 -2.21938 -12.7386 -11.1243 -1.84953 -13.0695 -10.975 
-1.51819 -13.3563 -10.708 -1.23751 -13.5979 -10.3384 -1.01812 -13.796 -9.88485 
-0.86775 -13.955 -9.36846 -0.789596 -14.0809 -8.80971 -0.781594 -14.1806 -8.22677 
-0.836743 -14.2616 -7.63447 -0.943711 -14.3314 -7.04387 -1.08791 -14.397 -6.46223 
-1.25297 -14.4655 -5.89357 -1.42264 -14.5439 -5.33952 -1.58291 -14.639 -4.80018 
-1.72335 -14.7575 -4.27496 -1.83733 -14.9051 -3.76325 -1.92193 -15.0868 -3.26469 
-1.97807 -15.3065 -2.77943 -2.0106 -15.5673 -2.30829 -2.02676 -15.872 -1.85259 
-2.03468 -16.223 -1.41381 -2.04213 -16.621 -0.993291 -2.05537 -17.0645 -0.591853 
-2.07839 -17.5495 -0.209815 -2.11275 -18.0695 0.152847 -2.15773 -18.6172 0.496248 
-2.21052 -19.1851 0.820425 -2.26638 -19.7664 1.12535 -2.31893 -20.3555 1.41092 
-2.36043 -20.9485 1.67719 -2.38249 -21.5432 1.92435 -2.37732 -22.1391 2.15281 
-2.33909 -22.7371 2.3631 -2.26445 -23.3376 2.55587 -2.15204 -23.9409 2.73193 
-2.00164 -24.5461 2.89226 -1.81346 -25.1509 3.03811 -1.58725 -25.7505 3.17105 
-1.32164 -26.3376 3.29291 -1.01404 -26.9023 3.40561 -0.661228 -27.4332 3.51103 
-0.260297 -27.919 3.61082 0.190362 -28.3492 3.70647 0.690339 -28.7157 3.7994 
1.23648 -29.0141 3.89115 1.82283 -29.2443 3.98368 2.44109 -29.4106 4.07973 
3.08112 -29.5212 4.18304 3.73184 -29.5874 4.2986 4.382 -29.6226 4.43247 
5.0211 -29.6409 4.59146 5.64058 -29.6561 4.78209 6.23488 -29.6802 5.00892 
6.80197 -29.7228 5.27331 7.34332 -29.7904 5.57272 7.86333 -29.887 5.90089 
8.36786 -30.0147 6.24946 8.86295 -30.174 6.60957 9.3538 -30.3649 6.9729 
9.84353 -30.5863 7.33297 10.3322 -30.8365 7.68595 10.8162 -31.1144 8.0308 
11.2887 -31.4193 8.36872 11.7402 -31.7517 8.70218 12.1602 -32.1133 9.03372 
12.5381 -32.5061 9.36484 12.8655 -32.9323 9.69523 13.1368 -33.3931 10.0227 
13.3497 -33.8887 10.3433 13.5051 -34.418 10.6522 13.6067 -34.9783 10.9437 
13.6608 -35.5659 11.2126 13.6752 -36.1758 11.4538 13.6586 -36.8028 11.6638 
13.6196 -37.4413 11.8397 13.5663 -38.086 11.98 13.5068 -38.7315 12.0838 
13.4484 -39.3729 12.1508 13.3983 -40.0051 12.1811 13.3637 -40.6232 12.1747 

LINES 2 120
OFFSETS vtktypeint64
0 120 
CONNECTIVITY vtktypeint64
0 1 2 3 4 5 6 7 8 
9 10 11 12 13 14 15 16 17 
18 19 20 21 22 23 24 25 26 
27 28 29 30 31 32 33 34 35 
36 37 38 39 40 41 42 43 44 
45 46 47 48 49 50 51 52 53 
54 55 56 57 58 59 60 61 62 
63 64 65 66 67 68 69 70 71 
72 73 74 75 76 77 78 79 80 
81 82 83 84 85 86 87 88 89 
90 91 92 93 94 95 96 97 98 
99 100 101 102 103 104 105 106 107 
108 109 110 111 112 113 114 115 116 
117 118 119 
CELL_DATA 1
FIELD FieldData 2
Length 1 1 double
73.186067505 
Tortuosity 1 1 double
0.64595755241 
POINT_DATA 120
FIELD FieldData 19
Curvature 1 120 double
0 0.41676702525 0.47017819925 0.38814087246 0.26016601999 0.15248712295 0.072661402482 0.060160816188 0.15669217874 
0.30487630117 0.46113935668 0.51699088345 0.42553325646 0.27154035312 0.14177856042 0.061416728909 0.028721969737 0.032018324274 
0.03263537503 0.027890209359 0.050606382085 0.10397045647 0.17679945475 0.26070306581 0.33658980288 0.37498637426 0.35664338793 
0.29147718198 0.20694411968 0.12789779965 0.068131096726 0.050477211976 0.068154108062 0.087479215779 0.10469515246 0.12332767599 
0.15078927335 0.20014087549 0.28175152931 0.38962790908 0.47952648947 0.50211857438 0.463348464 0.39651924028 0.32979766372 
0.2743018162 0.2277264926 0.18621211979 0.14613866326 0.10575950866 0.066272879348 0.040811706248 0.059024430972 0.096366763606 
0.13192988656 0.15844764137 0.17145540596 0.17112848804 0.16445317686 0.1560843865 0.14619420325 0.13240211286 0.1151193719 
0.096858486852 0.079902635292 0.065511587032 0.054378426309 0.048610180182 0.051167048237 0.062981426921 0.079061093362 0.092913170475 
0.10051389644 0.10185298535 0.09934894942 0.095696384764 0.094662105495 0.099765376705 0.113159973 0.13415438815 0.15989787724 
0.18553949044 0.20457357893 0.20952331899 0.19744481552 0.17220162573 0.13961453547 0.10728679174 0.081747631087 0.07233828692 
0.083968523128 0.10534101944 0.12292651365 0.12818993451 0.11916130537 0.10271726403 0.087138393579 0.076998412686 0.072086539677 
0.069279100338 0.067632206104 0.070155108201 0.081117512561 0.1010594057 0.12587594039 0.14974974241 0.16698226706 0.17423971805 
0.17073169241 0.15861995567 0.14171869195 0.12397592568 0.10845745815 0.096486068901 0.088490364984 0.084396304575 0.084500799207 
0.089289941041 0.099634476278 0 
Torsion 1 120 double
0 0 0.016317759902 0.031712276087 0.075767159142 0.23043327931 1.1422013894 2.0233782184 0.36293932165 
0.10887392487 0.050802934573 0.042891838428 0.060930904109 0.11698626129 0.2746991524 0.80933581099 1.8570372617 0.52716670109 
-0.29729779753 -1.4975053017 -0.68458134156 -0.1390902388 0.013293271008 0.065615214236 0.080853514402 0.08123762661 0.078976555547 
0.086972873535 0.13534851785 0.31837614801 0.98163321555 1.248773465 0.28203413322 -0.067504338063 -0.21654495151 -0.32867273169 
-0.39179780281 -0.33040077124 -0.19624363704 -0.071936123718 0.015481747378 0.074007114733 0.11612062695 0.1504704085 0.17076398328 
0.17145873181 0.16463101862 0.1626507097 0.18418647237 0.28449601068 0.7038357609 1.912440507 0.84922314323 0.23082776748 
0.038367494233 -0.063708494334 -0.15857467248 -0.25121042671 -0.30633000114 -0.3057749035 -0.26111642517 -0.20026741332 -0.14084620032 
-0.079155867217 0.0013964587853 0.12286904734 0.30727068282 0.50576051811 0.52969254531 0.35589685668 0.19458361704 0.10083371314 
0.057387889185 0.045392461567 0.05662466157 0.091710272581 0.13775277783 0.16254923384 0.14711526494 0.11066869832 0.0780493372 
0.056762135292 0.046473182425 0.047254600793 0.061713556196 0.09742464509 0.17356615187 0.33001692351 0.61361742797 0.80624634313 
0.58086575453 0.3469867569 0.24524177992 0.22791009027 0.27008707363 0.3533988971 0.43255854311 0.41851698862 0.26975391449 
0.053644403518 -0.1673699801 -0.3127919607 -0.29563505141 -0.18314111396 -0.078281131934 -0.0064193501012 0.040840563838 0.076214138983 
0.10768673502 0.13917501137 0.17263507134 0.20643942804 0.23573654301 0.25927286365 0.27776190715 0.29104574341 0.2961949634 
0.28801554717 0 0 
FrenetTangent 3 120 double
-0.26810796185 -0.80554943307 -0.52840158182 -0.26810796185 -0.80554943307 -0.52840158182 -0.45865607226 -0.84334384125 -0.28001030839 
-0.59426874652 -0.80359051674 -0.032968747696 -0.6675080914 -0.72918695157 0.15072935205 -0.70394363399 -0.66009159951 0.26218779609 
-0.7263040768 -0.61165070407 0.31363323202 -0.74736185565 -0.58616323643 0.31283049242 -0.77231357607 -0.58091737778 0.25703451211 
-0.79727987967 -0.58816894336 0.13565429419 -0.80427630995 -0.59166038613 -0.055476163739 -0.7690188392 -0.57174343983 -0.28586616443 
-0.6924934279 -0.52717409671 -0.49248383128 -0.60633999658 -0.47920764788 -0.63459580739 -0.53804312228 -0.44708377341 -0.71458078488 
-0.49492364387 -0.43578189009 -0.75176108639 -0.47251437608 -0.44127905604 -0.76289118431 -0.46329554836 -0.45695179252 -0.75931040701 
-0.45924826998 -0.47603057306 -0.7499906133 -0.45175379587 -0.49269179121 -0.74375621462 -0.43164523175 -0.5032241519 -0.74863064782 
-0.38965587118 -0.50641359691 -0.76922920571 -0.31682802094 -0.50222643308 -0.80460463276 -0.20614535166 -0.49008593342 -0.84694738435 
-0.057287868487 -0.46841817932 -0.88164761068 0.11720069976 -0.43619364413 -0.892187817 0.29238997372 -0.39593120868 -0.87048640498 
0.44289300069 -0.35445827781 -0.8235320997 0.55516478966 -0.31995929591 -0.76773570015 0.6288861997 -0.29881696189 -0.71778170157 
0.67033709431 -0.29494194809 -0.68092395115 0.6873790663 -0.3099109968 -0.65686010175 0.68825678728 -0.34240454399 -0.63957933285 
0.68059430116 -0.38880395318 -0.62098541306 0.67030400022 -0.44496292134 -0.59388597047 0.66222485258 -0.50668729953 -0.55202013109 
0.6617316247 -0.56884315611 -0.4883940219 0.67390121266 -0.62501281654 -0.39397478946 0.69862584282 -0.66753139874 -0.25753400443 
0.72473377164 -0.68551680198 -0.069481468388 0.72813710948 -0.66562398283 0.16358809028 0.6854510581 -0.60379383929 0.40692732347 
0.59469195001 -0.51344643571 0.61863902419 0.47229133606 -0.41532240355 0.7774626647 0.33683878203 -0.32537322264 0.88355639374 
0.20126137564 -0.25086540811 0.94686873731 0.073830337233 -0.1932719596 0.97836344522 -0.039619693893 -0.15186829721 0.98760634878 
-0.13471131266 -0.12529310204 0.98293158502 -0.20818135566 -0.11224653476 0.97162813802 -0.25800266978 -0.11194476355 0.95963690649 
-0.28350231396 -0.12440653197 0.95086773674 -0.28561148402 -0.15019063572 0.94650348818 -0.2669014329 -0.18959184218 0.94489076538 
-0.23121631315 -0.24183620663 0.94236631184 -0.183699809 -0.30465388614 0.93458032819 -0.13131337462 -0.37445316687 0.917900661 
-0.082564612173 -0.44736242767 0.890533516 -0.044798058981 -0.52035831143 0.8527721628 -0.021705749449 -0.59107347939 0.8063256181 
-0.013481186884 -0.65698026009 0.75378723487 -0.017591646888 -0.71528124205 0.69861525801 -0.029830874238 -0.76392241051 0.6446182356 
-0.045823331511 -0.8025902807 0.59476807549 -0.061864793204 -0.83251416578 0.55053874627 -0.074990706329 -0.85568740103 0.51203072729 
-0.082649175552 -0.87417753645 0.47852141912 -0.082413093343 -0.88977757814 0.44889190623 -0.071907425595 -0.90377490179 0.42192445892 
-0.049064210318 -0.91678649045 0.39635241162 -0.013171408493 -0.92856960975 0.37092451232 0.034099312149 -0.93807970913 0.34473714077 
0.088915075863 -0.94407614675 0.31751273742 0.14694916943 -0.94575108428 0.28975994923 0.20504743148 -0.94290563399 0.2624585991 
0.26181106326 -0.93562893348 0.23675613188 0.31782714866 -0.92372378514 0.21382299301 0.37554243289 -0.90615429419 0.19455661445 
0.43831790915 -0.88074172004 0.17936396825 0.5088920163 -0.84426199767 0.16807913326 0.58786857356 -0.79296619916 0.16004732805 
0.67274637877 -0.72358409111 0.15439680354 0.75772185441 -0.63503052293 0.15031242898 0.8347348967 -0.5305677372 0.1473618963 
0.89644613468 -0.4184552648 0.14587501149 0.93953610538 -0.30925555311 0.14708130256 0.96514995787 -0.21237368778 0.15291492915 
0.97705352045 -0.13385636731 0.16567706875 0.97924650858 -0.076316627956 0.18775528685 0.9743607622 -0.040410604099 0.22133252849 
0.96319774608 -0.025666014838 0.2675656137 0.94519049869 -0.030641335018 0.32507849787 0.91972110896 -0.052781304814 0.38900798912 
0.88784801776 -0.08823159736 0.45159836425 0.85324290726 -0.13206123498 0.50451597738 0.82082354356 -0.17967731476 0.54218518321 
0.79429113095 -0.22803878691 0.56311624995 0.77507739556 -0.27534439841 0.5687182898 0.76227831221 -0.32045906833 0.5623502114 
0.75302078501 -0.3629890111 0.54881570237 0.74337319025 -0.40365128077 0.5333497385 0.72918268545 -0.44426334115 0.52050234865 
0.70648149675 -0.48726406774 0.51328123192 0.67170148742 -0.53490501295 0.51253657326 0.62210490901 -0.58822410257 0.51669902974 
0.55659586097 -0.64628247448 0.5220344919 0.4766472896 -0.70608013363 0.52369667386 0.38656198817 -0.76349036 0.51735123416 
0.29276766754 -0.81477085469 0.50043535766 0.20229004027 -0.85772772759 0.47263292831 0.1209996925 -0.89203303591 0.43547231515 
0.052570036342 -0.91873253938 0.39136544606 -0.0016623106346 -0.93944091201 0.34270688579 -0.04204652636 -0.95567803417 0.29139592416 
-0.069654812805 -0.96859775969 0.2386767416 -0.085568154619 -0.9789716463 0.18518263055 -0.090505136907 -0.98723751615 0.13103780712 
-0.084632350457 -0.99351654081 0.075909475025 -0.067499508452 -0.99753644308 0.019101337538 -0.067499508452 -0.99753644308 0.019101337538 

FrenetNormal 3 120 double
-0.65141712503 -0.25250496676 0.71546975546 -0.65141712503 -0.25250496676 0.71546975546 -0.54236481297 0.016070826914 0.83998936789 
-0.40223455028 0.26146198961 0.87740811174 -0.29112609317 0.4418959633 0.8485125547 -0.25704695162 0.58089170766 0.77232874389 
-0.4147654717 0.75382829616 0.50961995977 -0.59041517106 0.36995788718 -0.71731519397 -0.28989142118 -0.037731700815 -0.95631547236 
-0.12584038404 -0.057835447449 -0.99036319538 0.050452174164 0.025032298072 -0.99841272136 0.24863107223 0.14445444831 -0.95776589117 
0.42876204277 0.24825774811 -0.86863755456 0.56702375396 0.29896021378 -0.76753296543 0.68392887948 0.26396952154 -0.68011865106 
0.82392176354 0.039495502976 -0.56532559893 0.74970304401 -0.65633108746 -0.084704483009 0.21536771582 -0.88918093304 0.40370040289 
0.15974151008 -0.87478393594 0.45742290649 0.62693475453 -0.76844333163 0.1282484294 0.90133535613 -0.20773563956 -0.38005325921 
0.88833562651 0.013673003972 -0.45899113677 0.90827085326 0.08373811971 -0.40991704579 0.9457481764 0.1223419677 -0.3009864279 
0.97585415592 0.16016959525 -0.14850712819 0.97894401183 0.20193133385 0.029872363566 0.94792880385 0.24016978568 0.20916370832 
0.89224685666 0.26439100919 0.36605046243 0.8307176118 0.25906322645 0.49274181287 0.77592582339 0.18254433184 0.60383498036 
0.6777063245 -0.13044220173 0.72367048423 0.22150570379 -0.77185615078 0.59596418154 -0.11892453949 -0.92293491676 0.36612578894 
-0.18014953767 -0.91036160379 0.37254247333 -0.15200325841 -0.86564990905 0.47701702737 -0.072895336092 -0.77677890149 0.62554041291 
0.046601315759 -0.61895071384 0.78404612824 0.15239886537 -0.40418512697 0.90189188319 0.17264519482 -0.19202861977 0.96608418158 
0.094223567752 -0.001291419679 0.99555022551 -0.065832743698 0.16964754843 0.98330349291 -0.26671713164 0.31181435745 0.91193956937 
-0.46222441966 0.41123608788 0.78564207238 -0.62910511095 0.45897310427 0.62735193387 -0.76119840464 0.45821316691 0.45893102144 
-0.85630943094 0.42431603431 0.29443176036 -0.91777935047 0.37064923015 0.14247881262 -0.95266266217 0.30391007868 0.0085156430048 
-0.96942210492 0.22200867619 -0.10456065317 -0.97501952862 0.10247088227 -0.19707013242 -0.9498663576 -0.15216964397 -0.27312689752 
-0.55021675682 -0.79100237148 -0.26753835021 0.27334490688 -0.95938380893 -0.069751480566 0.52434413482 -0.85120426393 -0.022683239522 
0.59439520617 -0.80193472475 -0.05995862009 0.60572491925 -0.78388355287 -0.1364694022 0.57323999301 -0.78410242311 -0.23786403782 
0.48513166544 -0.79860314891 -0.35620257962 0.34526746071 -0.8090903595 -0.4755661581 0.17782323758 -0.79593812915 -0.57867209259 
0.014668162398 -0.75390456241 -0.65682018527 -0.11906323679 -0.69225295651 -0.71176526316 -0.21613660041 -0.62471815367 -0.75034138793 
-0.27842658107 -0.56153825955 -0.77920050181 -0.29835248071 -0.51094930831 -0.80617405167 -0.25910976213 -0.47911856487 -0.83863432554 
-0.12088461593 -0.46782465057 -0.87551528025 0.1496965112 -0.45636605508 -0.87710944488 0.48677276183 -0.40102022206 -0.77603805309 
0.72306913995 -0.30636126788 -0.61912340643 0.8352847096 -0.21413547493 -0.50640443549 0.88180131732 -0.13410876392 -0.45215182873 
0.89882614044 -0.061308787324 -0.4339963155 0.90361396743 0.0091946992601 -0.42824905764 0.90365293249 0.079368330509 -0.42084681978 
0.90479816868 0.15258172075 -0.39756646292 0.90914718277 0.23288776169 -0.34527480435 0.90958965599 0.32008147686 -0.2649424577 
0.89493325241 0.40910649014 -0.17811893066 0.86078803753 0.49713663733 -0.10908307965 0.80785887431 0.58576919249 -0.06510370438 
0.7360414128 0.67573838153 -0.040257649858 0.64527361442 0.7634603176 -0.027391713539 0.53863032107 0.8423440019 -0.018274563885 
0.42353680047 0.90586917704 -0.0041967525244 0.30867826086 0.9507741651 0.027316995606 0.19937133144 0.97520690836 0.096034150604 
0.092037612624 0.96681001104 0.23834319879 -0.029624548064 0.86254816756 0.5051069637 -0.16787114373 0.52440624264 0.83475587556 
-0.26487450517 0.078737102967 0.96106293505 -0.32392200911 -0.21331990136 0.92172075582 -0.37810342209 -0.38564571522 0.84161462947 
-0.42948650719 -0.51111305757 0.74451647565 -0.465480953 -0.62908583808 0.62255802197 -0.46746206373 -0.75678012187 0.45690597076 
-0.4170697321 -0.87863979811 0.23247568421 -0.31601096474 -0.94832867075 -0.028457027171 -0.21819418977 -0.9452030224 -0.24286321666 
-0.18666520884 -0.91765075971 -0.35081787726 -0.24626893509 -0.90653748033 -0.34284312501 -0.38127862304 -0.89537063232 -0.23008268598 
-0.52891778636 -0.84539339511 -0.074538465064 -0.63885082525 -0.76852607313 0.035175246808 -0.71601277432 -0.69441164171 0.071541448576 
-0.77581440969 -0.62910681808 0.048338526684 -0.82368160162 -0.56686457445 -0.014600458532 -0.85747446 -0.50407211592 -0.10319327695 
-0.87235348239 -0.44189565337 -0.20911153313 -0.86385085363 -0.38363277532 -0.32647755879 -0.82794816023 -0.33269891807 -0.45145683502 
-0.76081054966 -0.29070020306 -0.58022469739 -0.66049205054 -0.25628427727 -0.70573976818 -0.52834752322 -0.22626925532 -0.81832213633 
-0.36769773863 -0.1974833327 -0.90873467322 -0.18516141925 -0.16700130668 -0.96841407073 0.0084514713911 -0.132334442 -0.99116909157 
0.19905093395 -0.09150487844 -0.97570773437 0.36934088541 -0.042767638862 -0.92830934469 0.36934088541 -0.042767638862 -0.92830934469 

FrenetBinormal 3 120 double
-0.70977027975 0.53603297719 -0.45705010377 -0.70977027975 0.53603297719 -0.45705010377 -0.70389986293 0.53713396275 -0.46477100708 
-0.69645676353 0.53467738815 -0.47861055894 -0.68533097536 0.52250774853 -0.50725447947 -0.6621104325 0.47628132887 -0.57858955309 
-0.54813501211 0.24005481898 -0.8012001575 0.30472968761 -0.72079388314 -0.62257208058 0.56523862584 -0.81308752232 -0.13926225945 
0.59034650097 -0.80666743772 -0.027904367131 0.5921099521 -0.80579859241 0.0097176685242 0.58889100425 -0.80761522483 0.031064992331 
0.58018614512 -0.81268417129 0.054115383602 0.55752656528 -0.82521683259 0.090450584423 0.49269756077 -0.85465559803 0.16374651862 
0.27604984024 -0.89918532546 0.33950292515 -0.4633308863 -0.61196592906 0.64095412587 -0.85963595891 0.023501651576 0.51036623176 
-0.87382702893 0.090266045342 0.47778485177 -0.63472145188 -0.40834990504 0.65603279916 0.03573471262 -0.83881544871 0.54324181845 
0.24295702651 -0.86218229965 0.44453747361 0.27324725482 -0.8606721427 0.42962704815 0.251126424 -0.86304589727 0.43827764986 
0.21077657955 -0.86886714177 0.44793205229 0.16713054081 -0.87690298279 0.45067564955 0.12625009348 -0.88631650782 0.44553783437 
0.087984866433 -0.89691511502 0.43336121161 0.04123476403 -0.91132447222 0.40961860379 -0.0494091532 -0.93668884385 0.34665940833 
-0.30226200179 -0.94656963783 0.11244377709 -0.6916973633 -0.55515156179 -0.46191070678 -0.71565323213 -0.17592688161 -0.6759365234 
-0.71016726291 -0.14168004922 -0.68962977194 -0.72635222635 -0.22947381898 -0.64788441074 -0.74575097359 -0.37400871473 -0.55133743451 
-0.74829110261 -0.54158792231 -0.38307042194 -0.72293273643 -0.66782734467 -0.17712960313 -0.69434542444 -0.71939338396 -0.018910067954 
-0.68255613654 -0.72805566164 0.063655903382 -0.68226270575 -0.72674921589 0.07970682248 -0.67750927568 -0.73362443125 0.052691320332 
-0.65779181393 -0.75316507997 0.0072313102396 -0.61738776572 -0.78539861896 -0.044512426132 -0.55418103873 -0.82714748362 -0.093329612932 
-0.47563433134 -0.87007037074 -0.12941998609 -0.39016681709 -0.90844102606 -0.15001585589 -0.30143677937 -0.94051830624 -0.15672008061 
-0.20511861139 -0.96696110898 -0.15136898291 -0.077443153076 -0.98838273645 -0.1307750906 0.17660273236 -0.98199428174 -0.067072390406 
0.78542215304 -0.59903110364 0.15580044412 0.91853614087 0.23880008396 0.31506487875 0.8085956056 0.48939374174 0.32659900819 
0.77021643414 0.54627460714 0.32916667235 0.77417808182 0.5410291907 0.32853570952 0.80879707471 0.49494263899 0.31761466599 
0.87053452086 0.40261627991 0.28296603886 0.93743453877 0.27313003841 0.21590847049 0.98382303115 0.1308229205 0.12238303336 
0.99980153161 0.0022019579077 0.019800221446 0.99273081931 -0.095700517069 -0.072985830329 0.97590731573 -0.16170893359 -0.14647570411 
0.95936377941 -0.2013048047 -0.19773091403 0.9524487097 -0.21412839167 -0.21677289329 0.96293225366 -0.19556194038 -0.18578751934 
0.9892199065 -0.13020649406 -0.067009294076 0.98529134604 -0.0050877502865 0.17080713748 0.87056395542 0.14957843559 0.4687693368 
0.68903100229 0.25621339636 0.67793139285 0.54965986564 0.30315751387 0.77844046264 0.4703867278 0.3194077312 0.82262690666 
0.42919189013 0.32397756363 0.84310904379 0.40235275502 0.32476198066 0.85594504289 0.37598793658 0.32346504218 0.86833371352 
0.33585002769 0.31830381293 0.88650292813 0.26914179095 0.30413427828 0.91381893017 0.17780477727 0.27646381914 0.94443274926 
0.083497809848 0.23859149674 0.96752375342 0.0085364036229 0.20019201562 0.97971949388 -0.042125757101 0.16756807611 0.98496008064 
-0.075202051151 0.14072562957 0.98718840587 -0.097363000593 0.11774794432 0.98825900842 -0.11443351545 0.094628001715 0.98891380405 
-0.13038752342 0.065545598214 0.98929412628 -0.14828903523 0.019735497017 0.98874712247 -0.16951882202 -0.062200503388 0.98356213142 
-0.19208200343 -0.21762553958 0.95694494538 -0.20049603885 -0.50018639618 0.84238643595 -0.14980114885 -0.85050871586 0.50417709195 
-0.045733996828 -0.99656496241 0.06904112713 0.041102958627 -0.97650178099 -0.21155334674 0.1055977459 -0.92113599224 -0.37464329684 
0.16512794284 -0.85497288121 -0.49168499559 0.23516807523 -0.76603579456 -0.59823501891 0.3282193311 -0.62849018266 -0.7051752697 
0.44176287515 -0.41951211764 -0.7930038747 0.54716734282 -0.15766481692 -0.82203996524 0.6093628396 0.062427814152 -0.79043007138 
0.63096418056 0.16172835563 -0.75876751501 0.62189059458 0.12351291546 -0.7733024299 0.56825981985 -0.030684107946 -0.82227687713 
0.47024447899 -0.2188235266 -0.8549774232 0.37508230413 -0.3510616784 -0.8579446154 0.31671941713 -0.41446939213 -0.85317286279 
0.29717511549 -0.43190690505 -0.85155350748 0.30717418588 -0.42440004611 -0.85177967832 0.33956940345 -0.40372487184 -0.84952860346 
0.39151819192 -0.37533543116 -0.84014095217 0.4613463366 -0.34224120006 -0.81855391923 0.54759557923 -0.30592236394 -0.77881357773 
0.64684132428 -0.26725252671 -0.71426352852 0.750831198 -0.22752833245 -0.62006723025 0.84798642933 -0.18836591808 -0.49541628614 
0.927333047 -0.1510586417 -0.34239554131 0.9789756584 -0.11715408363 -0.1669777858 0.99586012714 -0.088598432052 0.020320556415 
0.97632786038 -0.06746658702 0.20550466828 0.92683932088 -0.055605519539 0.37131778771 0.92683932088 -0.055605519539 0.37131778771 

plain_curvature_peaks 1 120 unsigned_char
0 0 0 0 0 0 0 0 0 
0 0 0 0 0 0 0 0 0 
0 0 1 0 0 0 0 0 0 
0 0 0 0 0 0 0 0 0 
0 0 0 0 0 0 0 0 0 
1 0 0 0 0 0 0 0 0 
0 0 0 0 0 0 0 0 0 
0 0 0 0 0 0 0 0 0 
0 0 0 0 0 0 0 0 0 
0 0 0 0 0 0 0 0 0 
0 0 0 0 0 1 0 0 0 
0 0 0 0 0 0 0 0 0 
0 0 0 0 0 0 0 0 0 
0 1 0 
weighted_curvature_peaks 1 120 unsigned_char
0 0 0 0 0 0 0 0 0 
0 0 0 0 0 0 0 0 0 
0 0 0 0 0 0 0 1 0 
0 0 0 0 0 0 0 0 0 
0 0 0 0 0 0 0 0 0 
0 0 0 1 0 0 0 0 0 
0 0 0 0 0 0 0 0 0 
0 0 0 0 0 0 0 0 0 
0 1 0 0 0 0 0 0 0 
0 0 0 0 0 0 0 0 0 
0 0 0 0 0 0 0 0 0 
0 0 0 0 0 0 0 1 0 
0 0 0 0 0 0 0 0 0 
0 0 0 
plain_torsion_tp 1 120 unsigned_char
0 0 0 0 0 0 0 0 0 
0 0 0 0 0 0 0 0 0 
0 0 1 0 0 0 0 0 0 
0 0 0 0 0 0 0 0 0 
0 0 0 0 0 0 0 0 0 
1 0 0 0 0 0 0 0 0 
0 0 0 0 0 0 0 0 0 
0 0 0 0 0 0 0 0 0 
0 0 0 0 0 0 0 0 0 
0 0 0 0 0 0 0 0 0 
0 0 0 0 0 1 0 0 0 
0 0 0 0 0 0 0 0 0 
0 0 0 0 0 0 0 0 0 
0 1 0 
plain_torsion_tn 1 120 unsigned_char
0 0 0 0 0 0 0 0 2 
0 0 0 0 0 0 0 0 0 
0 0 0 0 0 0 0 0 0 
2 0 0 0 0 0 0 0 0 
0 0 0 0 0 0 0 0 0 
0 0 0 0 0 0 0 0 0 
0 0 0 0 0 0 0 0 0 
0 0 0 2 0 0 0 0 0 
0 0 0 0 0 0 0 0 0 
0 0 0 0 0 0 0 0 0 
0 0 0 0 0 0 0 0 0 
0 0 0 0 0 0 0 0 0 
0 0 0 2 0 0 0 0 0 
0 0 0 
plain_torsion_tz 1 120 unsigned_char
0 0 0 0 0 0 0 0 0 
0 3 0 0 0 0 0 0 0 
0 0 0 0 0 3 0 0 0 
0 0 0 0 0 3 0 0 0 
0 0 0 0 0 0 0 0 0 
0 0 0 0 0 0 0 0 0 
0 0 0 0 0 0 0 0 0 
0 0 0 0 0 0 0 0 0 
0 3 0 0 0 0 0 0 0 
0 0 0 0 0 0 0 0 0 
0 0 0 0 0 0 0 0 0 
0 0 0 0 0 0 0 3 0 
0 0 0 0 0 0 0 3 0 
0 0 0 
weighted_torsion_tp 1 120 unsigned_char
0 0 0 0 0 0 0 0 0 
0 0 0 0 0 0 0 0 0 
0 0 0 0 0 0 0 1 0 
0 0 0 0 0 0 0 0 0 
0 0 0 0 0 0 0 0 0 
0 0 0 1 0 0 0 0 0 
0 0 0 0 0 0 0 0 0 
0 0 0 0 0 0 0 0 0 
0 1 0 0 0 0 0 0 0 
0 0 0 0 0 0 0 0 0 
0 0 0 0 0 0 0 0 0 
0 0 0 0 0 0 0 1 0 
0 0 0 0 0 0 0 0 0 
0 0 0 
weighted_torsion_tn 1 120 unsigned_char
0 0 0 0 0 0 0 0 0 
0 2 0 0 0 0 0 0 0 
0 0 0 0 0 0 0 0 0 
0 0 0 0 2 0 0 0 0 
0 0 0 0 0 0 0 0 0 
0 0 0 0 0 0 0 0 0 
0 0 0 0 0 0 0 0 0 
0 0 0 0 0 2 0 0 0 
0 0 0 0 0 0 0 0 0 
0 0 0 0 0 0 2 0 0 
0 0 0 0 0 0 0 0 0 
0 0 0 0 0 0 0 0 0 
0 0 0 0 0 0 0 0 0 
0 0 0 
weighted_torsion_tz 1 120 unsigned_char
0 0 0 0 0 0 0 0 0 
0 0 0 3 0 0 0 0 0 
0 0 0 0 0 0 0 0 0 
0 0 3 0 0 0 0 0 3 
0 0 0 0 0 0 0 0 0 
0 0 0 0 0 0 0 0 0 
0 0 0 0 0 0 0 0 0 
0 0 0 0 0 0 0 3 0 
0 0 0 0 0 0 0 3 0 
0 0 0 0 0 0 0 0 0 
0 0 0 0 3 0 0 0 0 
0 0 0 0 0 0 0 0 0 
0 0 0 0 0 0 0 0 0 
0 0 0 
plain_torsion_tp_raw 1 120 unsigned_char
0 0 0 0 0 0 0 0 0 
0 0 0 0 0 0 0 0 0 
0 0 0 0 1 0 0 0 0 
0 0 1 0 0 0 0 0 0 
0 0 0 0 0 0 0 0 0 
0 0 0 0 0 0 0 0 0 
0 0 0 0 0 0 0 0 0 
0 0 0 0 0 0 0 0 1 
0 0 0 0 0 0 0 0 0 
0 0 0 0 0 0 0 0 0 
0 0 0 0 0 0 0 0 0 
1 0 0 0 0 0 0 0 0 
0 0 0 0 0 0 0 0 1 
0 1 0 
plain_torsion_tn_raw 1 120 unsigned_char
0 0 0 0 0 0 0 0 0 
0 0 0 0 0 0 0 0 2 
0 0 0 0 0 2 0 0 0 
0 0 0 0 0 0 0 0 0 
0 0 0 0 0 0 0 0 0 
0 0 0 0 0 0 0 0 0 
0 0 0 0 2 0 0 0 0 
0 0 0 0 0 0 0 0 0 
0 0 0 0 0 0 0 0 2 
0 0 0 0 0 0 0 0 0 
0 0 0 0 0 0 0 0 0 
0 0 0 0 0 0 0 0 0 
0 0 0 0 2 0 0 0 0 
2 0 0 
plain_torsion_tz_raw 1 120 unsigned_char
0 0 0 0 0 0 0 0 3 
0 0 0 0 0 0 0 0 0 
0 0 0 3 3 0 0 0 3 
0 0 0 0 0 0 0 0 0 
0 0 0 0 0 0 0 0 0 
0 0 0 0 0 0 0 0 0 
0 0 0 0 0 0 0 0 0 
0 0 0 0 0 0 0 0 0 
0 0 0 0 0 0 0 0 0 
0 0 0 0 0 0 0 0 0 
0 0 0 0 0 0 0 0 0 
0 0 0 0 0 0 0 0 0 
0 0 0 0 0 0 0 0 0 
0 0 0 
weighted_torsion_tp_raw 1 120 unsigned_char
0 0 0 0 0 0 0 0 0 
0 0 0 0 0 0 0 0 0 
0 0 0 0 0 0 0 0 0 
0 1 0 0 0 1 0 0 0 
0 0 0 0 0 0 0 0 0 
0 0 0 0 0 0 0 0 0 
0 0 0 0 0 0 0 0 0 
0 0 0 0 0 0 1 0 0 
0 0 0 1 0 0 0 0 0 
0 0 0 0 0 0 0 0 0 
0 0 0 0 0 0 0 0 1 
0 0 0 0 0 0 0 0 1 
0 0 0 0 0 0 0 0 0 
0 0 0 
weighted_torsion_tn_raw 1 120 unsigned_char
0 0 0 0 0 0 0 0 0 
0 0 0 0 0 0 0 0 0 
0 0 0 2 0 0 0 0 0 
0 0 2 0 0 0 0 0 0 
0 0 0 0 0 0 0 0 0 
0 0 0 0 0 0 0 0 0 
0 0 0 0 0 0 0 0 0 
2 0 0 0 0 0 0 0 2 
0 0 0 0 0 0 0 0 0 
0 0 0 0 0 0 0 2 0 
0 0 0 0 0 0 0 0 0 
0 0 0 0 2 0 0 0 0 
0 0 0 0 0 0 0 0 0 
0 0 0 
weighted_torsion_tz_raw 1 120 unsigned_char
0 0 0 0 0 0 0 0 0 
0 3 0 0 0 0 0 0 0 
0 0 0 0 0 0 0 0 3 
0 3 0 3 0 0 0 0 0 
0 0 0 0 0 0 0 0 0 
0 0 0 0 0 0 0 0 0 
0 0 0 0 0 0 0 0 0 
0 0 0 0 0 0 0 0 0 
0 0 0 0 0 0 0 0 0 
0 0 0 0 0 0 0 0 0 
0 0 0 0 0 0 0 0 0 
0 0 0 0 0 0 0 0 0 
0 0 0 0 0 0 0 0 0 
0 0 0 
