# vtk DataFile Version 5.1
vtk output
ASCII
DATASET POLYDATA
POINTS 120 float
1.18962 21.5468 -6.4806 0.720601 21.2522 -6.3001 0.226204 20.875 -6.15754 
-0.278518 20.4254 -6.03709 -0.778939 19.914 -5.92347 -1.2616 19.3517 -5.80291 
-1.71522 18.7501 -5.6645 -2.13182 18.1229 -5.50186 -2.50753 17.4863 -5.31467 
-2.843 16.8587 -5.10985 -3.14287 16.26 -4.90207 -3.41476 15.709 -4.71328 
-3.66779 15.2199 -4.57085 -3.91085 14.7995 -4.50401 -4.15112 14.445 -4.53857 
-4.39269 14.1437 -4.69096 -4.63613 13.8748 -4.96402 -4.87851 13.6138 -5.34554 
-5.11403 13.3366 -5.81091 -5.33499 13.0241 -6.32862 -5.53276 12.6647 -6.86682 
-5.69909 12.2554 -7.39909 -5.82735 11.8004 -7.90828 -5.91344 11.3086 -8.38747 
-5.95564 10.7912 -8.83846 -5.95381 10.2575 -9.2685 -5.90844 9.71391 -9.68644 
-5.82054 9.16185 -10.0991 -5.69238 8.59837 -10.5085 -5.52896 8.01829 -10.9104 
-5.33921 7.41466 -11.2932 -5.13636 6.78288 -11.6391 -4.93709 6.12273 -11.9253 
-4.75936 5.44165 -12.1275 -4.61958 4.75633 -12.2235 -4.53004 4.0939 -12.1975 
-4.49756 3.48896 -12.0426 -4.52325 2.97989 -11.7631 -4.6035 2.60289 -11.3747 
-4.73123 2.38615 -10.902 -4.89705 2.34439 -10.3753 -5.08967 2.47606 -9.82507 
-5.29575 2.76444 -9.27697 -5.49975 3.17818 -8.74776 -5.68453 3.67763 -8.24331 
-5.83288 4.21856 -7.75909 -5.93019 4.75853 -7.28294 -5.96754 5.25973 -6.79896 
-5.94402 5.69139 -6.29173 -5.86709 6.03073 -5.75 -5.75114 6.2626 -5.16962 
-5.61412 6.37817 -4.55487 -5.47386 6.37449 -3.91828 -5.34488 6.25285 -3.27875 
-5.23623 6.01784 -2.65857 -5.15083 5.67701 -2.07962 -5.08603 5.24002 -1.55975 
-5.03558 4.71931 -1.11012 -4.99206 4.12925 -0.733864 -4.94928 3.4848 -0.426572 
-4.90377 2.80144 -0.178077 -4.85482 2.09281 0.0249317 -4.80338 1.37041 0.196231 
-4.75044 0.643057 0.347815 -4.69543 -0.0826193 0.488694 -4.63561 -0.803044 0.6247 
-4.56616 -1.51594 0.759017 -4.48101 -2.22071 0.893055 -4.37421 -2.91777 1.02735 
-4.24115 -3.60893 1.16236 -4.07968 -4.29617 1.29897 -3.8902 -4.98186 1.43893 
-3.67512 -5.6674 1.58496 -3.4374 -6.35346 1.74069 -3.17905 -7.03759 1.91026 
-2.89964 -7.71339 2.09768 -2.5957 -8.37159 2.30595 -2.26097 -8.99819 2.53615 
-1.88744 -9.57751 2.78675 -1.46722 -10.0923 3.05354 -0.994333 -10.5266 3.33018 
-0.466433 -10.8678 3.60948 0.114181 -11.109 3.88469 0.740439 -11.2499 4.15113 
1.40129 -11.2974 4.4069 2.08331 -11.2656 4.65337 2.77257 -11.1738 4.89511 
3.45658 -11.045 5.13877 4.12559 -10.9024 5.39257 4.77352 -10.767 5.66427 
5.3983 -10.6536 5.96078 6.00139 -10.5689 6.28606 6.58721 -10.5109 6.6415 
7.16159 -10.4714 7.02538 7.73056 -10.4389 7.43397 8.29854 -10.4043 7.86264 
8.86762 -10.3645 8.30658 9.43671 -10.3252 8.76147 10.0024 -10.3003 9.22322 
10.5587 -10.3102 9.68806 11.0988 -10.3771 10.1516 11.6146 -10.5213 10.6086 
12.0976 -10.7569 11.0538 12.5379 -11.0897 11.4831 12.9254 -11.5156 11.894 
13.2485 -12.0221 12.2873 13.4964 -12.5895 12.6664 13.6598 -13.1934 13.0378 
13.7321 -13.8089 13.4087 13.7106 -14.413 13.7862 13.5975 -14.9874 14.1747 
13.399 -15.5214 14.5747 13.125 -16.0126 14.9815 12.788 -16.4672 15.3852 
12.4015 -16.899 15.7714 11.98 -17.3269 16.1232 11.5381 -17.7727 16.4221 
11.0907 -18.2599 16.6495 10.6523 -18.8124 16.7866 10.2377 -19.4541 16.8147 

LINES 2 120
OFFSETS vtktypeint64
0 120 
CONNECTIVITY vtktypeint64
0 1 2 3 4 5 6 7 8 
9 10 11 12 13 14 15 16 17 
18 19 20 21 22 23 24 25 26 
27 28 29 30 31 32 33 34 35 
36 37 38 39 40 41 42 43 44 
45 46 47 48 49 50 51 52 53 
54 55 56 57 58 59 60 61 62 
63 64 65 66 67 68 69 70 71 
72 73 74 75 76 77 78 79 80 
81 82 83 84 85 86 87 88 89 
90 91 92 93 94 95 96 97 98 
99 100 101 102 103 104 105 106 107 
108 109 110 111 112 113 114 115 116 
117 118 119 
CELL_DATA 1
FIELD FieldData 2
Length 1 1 double
81.997320612 
Tortuosity 1 1 double
0.70768016546 
POINT_DATA 120
FIELD FieldData 19
Curvature 1 120 double
0 0.20625887753 0.13459695656 0.099614285766 0.087631853577 0.086455488847 0.086413644337 0.081800530195 0.069228673628 
0.04542438147 0.0095058000733 0.080231120717 0.23691184241 0.50279277974 0.73708638904 0.6414773504 0.3601336386 0.16602227066 
0.097398937146 0.1045431848 0.12278821967 0.13297750273 0.13213013318 0.12195341491 0.10916600806 0.098254842066 0.090182732075 
0.080893973287 0.070734454241 0.069344147901 0.085899678868 0.11863943609 0.16162695675 0.2132883154 0.27505027257 0.35283795462 
0.45266863498 0.56840758933 0.65700811748 0.64661558099 0.52964021597 0.38264312993 0.25666129594 0.16688022435 0.10747271385 
0.092239427833 0.13010833945 0.19439575455 0.2576266392 0.29686381117 0.30499566185 0.29174634359 0.2748527943 0.26318486247 
0.25632551266 0.24984630615 0.23516140988 0.20898937139 0.17352636091 0.1332719992 0.095122697964 0.062295892918 0.036754125594 
0.018889806969 0.011900494152 0.019183369781 0.031361696664 0.043459637523 0.052267063583 0.055603099598 0.052973618203 0.047077241909 
0.041812859291 0.042278260212 0.050359450649 0.064463345115 0.08653602089 0.11535081221 0.15161422557 0.19104527917 0.22510444354 
0.24116300087 0.2325759288 0.20144680769 0.15785404747 0.11204751066 0.068873142668 0.039772370759 0.047636432164 0.075177986172 
0.092808470133 0.092381618804 0.074610853634 0.050680109381 0.033694624535 0.023882630911 0.016342384282 0.030737832792 0.067319457451 
0.11284973015 0.16073023902 0.19958560402 0.2212401062 0.22047428658 0.20581092063 0.18787796458 0.17556635818 0.17528506716 
0.18369718103 0.19353402805 0.19500689655 0.18073711835 0.15164940464 0.11829884617 0.1016765966 0.12320424286 0.17065888962 
0.22051503987 0.24802425143 0 
Torsion 1 120 double
0 0 0.44420133729 0.51316120826 0.43564773724 0.29645551348 0.19304638382 0.12990458755 0.074455287649 
-0.10846857759 -9.4758229386 -0.089881812247 0.1052376715 0.1327641868 0.14899690352 0.22229961944 0.44868663098 1.0311230937 
1.417125471 0.58445712764 0.16550449381 -0.0045518804111 -0.11080563694 -0.20172426534 -0.26684860534 -0.24442174314 -0.089268414498 
0.14325499063 0.45278678457 0.6445380251 0.46945317907 0.24953736601 0.12104475787 0.047686808573 0.0038359559131 -0.02158021834 
-0.03079602738 -0.026332178515 -0.016565556894 -0.011301209849 -0.01945956179 -0.052127241271 -0.1320422161 -0.31849245274 -0.76307651136 
-1.0798833665 -0.62564444846 -0.35571108021 -0.26078309038 -0.22563232774 -0.19959711995 -0.15956418703 -0.096664325035 -0.023684939044 
0.039326287739 0.079568763032 0.097159355469 0.097731196262 0.085299261638 0.06356287833 0.035295840532 0.016605952096 0.068027038255 
0.4816093599 1.3250170861 0.3516338083 0.042602955389 -0.0066969584203 0.0051707876971 0.040298642251 0.10159545136 0.19271240879 
0.2738844322 0.2186106034 0.051796252666 -0.072995298914 -0.12271930044 -0.12606295036 -0.10805210815 -0.083964621295 -0.059956003697 
-0.035718011261 -0.0098576685439 0.020394659963 0.069871768642 0.17013206519 0.47081886437 1.4069401743 0.86616119344 0.2446505781 
0.050977272258 -0.068123642403 -0.21223579791 -0.4495895579 -0.56311482497 -0.056700022048 1.5426550715 0.65982604397 0.15850372296 
0.057316330965 0.016964475446 -0.01393901449 -0.048241161677 -0.097089322923 -0.16273152485 -0.23514272097 -0.28841811037 -0.28494897696 
-0.23143654298 -0.15079012361 -0.061751607317 0.04893962539 0.22962156215 0.55462177527 0.88519896828 0.64832303585 0.33773327378 
0.18314064397 0 0 
FrenetTangent 3 120 double
-0.79089329189 -0.55150112364 0.26520616786 -0.79089329189 -0.55150112364 0.26520616786 -0.75503770596 -0.62482844117 0.19876489049 
-0.71279712264 -0.68144481578 0.16599164136 -0.66671066563 -0.72819947167 0.15881567236 -0.61757096252 -0.76774175037 0.1708177713 
-0.56673777257 -0.80023088655 0.1960582193 -0.51714123693 -0.82488236357 0.2283287703 -0.47331259155 -0.84137239298 0.26089784786 
-0.44078319731 -0.85074666076 0.28625214789 -0.42544955293 -0.85552164074 0.2950854116 -0.43335352638 -0.85873777073 0.27344864654 
-0.46937349511 -0.86051288601 0.19800529059 -0.52893307011 -0.84792791211 0.035327937947 -0.5770775397 -0.78539658256 -0.22390560798 
-0.56329009237 -0.66224070502 -0.49410679054 -0.49966565914 -0.54504807884 -0.67324350783 -0.42997292956 -0.48428520929 -0.76196529836 
-0.36994117863 -0.47791560985 -0.7967058392 -0.31728855644 -0.50907748057 -0.8001050498 -0.26630835046 -0.56217842231 -0.78296569782 
-0.21268618917 -0.62402614343 -0.75190156088 -0.1547242617 -0.68344413546 -0.71341749106 -0.093067476617 -0.73209603861 -0.67481392624 
-0.029418312826 -0.76603550324 -0.64212473137 0.034405341032 -0.78531686404 -0.6181372789 0.09647539915 -0.79319683553 -0.60127471049 
0.1540579118 -0.79542011792 -0.58615100086 0.20360070216 -0.79852048751 -0.56649076348 0.24132960858 -0.80885409732 -0.53620431672 
0.26400665598 -0.83076427492 -0.49003184091 0.26925884145 -0.86508553764 -0.42323361029 0.25536611465 -0.90848913577 -0.33081057672 
0.22139543907 -0.95274947783 -0.20797233481 0.16751846932 -0.98454098179 -0.051152884659 0.094880376121 -0.98549361344 0.14071265788 
0.0056751673423 -0.93167357122 0.36325218397 -0.095045858114 -0.79494571812 0.59918911046 -0.19501431666 -0.5567499831 0.80746447142 
-0.27352911506 -0.24086894874 0.93121639416 -0.31481776226 0.07896974749 0.94586127712 -0.32109626237 0.33829431614 0.88456438203 
-0.30382503961 0.52019845238 0.79817536635 -0.27130778378 0.63725420002 0.72131766304 -0.22609954545 0.7061211792 0.67102300693 
-0.16749384606 0.7369967543 0.65481416881 -0.094653051135 0.73183661217 0.6748747832 -0.010160804887 0.6853120653 0.72817863962 
0.076931853872 0.59049002277 0.8033697921 0.15141729293 0.44841932542 0.88090459869 0.19918318989 0.27355879056 0.94100565619 
0.21551657077 0.08697301586 0.97261929974 0.20549092552 -0.095644308488 0.97397415047 0.1785880333 -0.26803632304 0.94671159489 
0.14435161763 -0.42835675683 0.89200510053 0.11087947148 -0.5742001294 0.81117196339 0.084265326966 -0.70026344023 0.70889383475 
0.067738837687 -0.80064223124 0.59530115691 0.061042233214 -0.87321413627 0.48349862253 0.061219301908 -0.92072174207 0.3853876889 
0.064420525908 -0.94923733047 0.30789362821 0.067709976977 -0.9652324603 0.25247110052 0.070102079813 -0.97368368079 0.21685430171 
0.072644807479 -0.9777486831 0.19680001182 0.077751874533 -0.97918538959 0.18748498292 0.088278869864 -0.97883951602 0.18460780867 
0.10653931008 -0.97695926608 0.18493233311 0.13328970493 -0.97340446133 0.18632661973 0.1672295511 -0.96787452146 0.18775832327 
0.2051806971 -0.96025782712 0.18922417126 0.24307634253 -0.95090430151 0.19155913205 0.27748031007 -0.94049338793 0.19615520586 
0.30685948097 -0.92952485413 0.2045013557 0.3322381915 -0.91768806129 0.21786786423 0.35723151999 -0.9034079142 0.23714928142 
0.38663591712 -0.88415695355 0.26225779128 0.42570372116 -0.85636622222 0.29225542806 0.47892059858 -0.81543710168 0.32511135547 
0.54840876284 -0.75595351406 0.35746624096 0.63251114858 -0.67216713999 0.38486488906 0.72376807957 -0.56081199095 0.40205680918 
0.80944595208 -0.4252593471 0.40490954344 0.87649870744 -0.27749384437 0.39337918372 0.91822711254 -0.13441933225 0.37254585345 
0.93657931446 -0.010994727644 0.35028317642 0.93869746342 0.0846055414 0.33419900438 0.93220354485 0.14974703408 0.32950322723 
0.92236839731 0.1850181296 0.33912362253 0.91143264278 0.19241621634 0.36368466749 0.89891456319 0.17574761826 0.40132951892 
0.88302545267 0.14250749736 0.44716625895 0.86315643719 0.10356294484 0.49420206535 0.84122314706 0.070650241073 0.53605238577 
0.82078234608 0.051692765917 0.56889735306 0.80431146363 0.047514221659 0.59230521542 0.79224922193 0.05183841777 0.60799173415 
0.78362520335 0.054444279797 0.61884356752 0.77716020424 0.0439690784 0.62776487405 0.7710184739 0.010290792912 0.63672962275 
0.76208852566 -0.053326688002 0.64527307662 0.74537257531 -0.14901123436 0.64978102158 0.71417157723 -0.27157751888 0.64513921716 
0.66283937904 -0.40803302806 0.62781606032 0.59023033965 -0.5410148431 0.59910857589 0.49982033377 -0.6558926025 0.56567174928 
0.39634786423 -0.74533044921 0.53608851135 0.28353401733 -0.80743554883 0.51735509614 0.16288273263 -0.84278614225 0.51301143636 
0.035482664069 -0.85176311612 0.52272418595 -0.09531050068 -0.83461090733 0.54253160445 -0.22332073667 -0.79427363862 0.56502852633 
-0.3405317556 -0.73888521013 0.58145229355 -0.44040348731 -0.68173220881 0.58419685366 -0.52037320422 -0.63754668183 0.5681073462 
-0.58062291501 -0.61774352835 0.53034890756 -0.62110883406 -0.62854470782 0.46814032781 -0.63875009177 -0.67017422703 0.37797463631 
-0.62663200238 -0.73544778875 0.2577768097 -0.5775820592 -0.80863038099 0.11187435733 -0.5775820592 -0.80863038099 0.11187435733 

FrenetNormal 3 120 double
0.24386985829 -0.68152020884 -0.68996934508 0.24386985829 -0.68152020884 -0.68996934508 0.44779164656 -0.71282014006 -0.53978707765 
0.63322466461 -0.72702059198 -0.26545730912 0.74257722858 -0.66725723092 0.057851943604 0.7737707087 -0.55412330086 0.30696295836 
0.77408829542 -0.43569303543 0.45930261242 0.76847416818 -0.33003437105 0.54820139252 0.76287454096 -0.24342052514 0.59897319029 
0.77250697342 -0.19714211707 0.60362899342 0.74769493933 -0.5159944479 -0.41797369227 -0.4510050435 -0.056050179323 -0.89075969158 
-0.41071961077 0.014258164629 -0.91165021037 -0.28177976764 0.13620200301 -0.94976269506 -0.075703408733 0.32442493409 -0.94287722215 
0.17028161574 0.4921246937 -0.85370806321 0.41509566902 0.53150647434 -0.73837419599 0.71294757182 0.33566975424 -0.61565540356 
0.92526030001 -0.26695362662 -0.26949793775 0.73897813123 -0.66149057648 0.12783402832 0.61802760528 -0.72293913923 0.30887032891 
0.60712405434 -0.68733698137 0.39870823503 0.65833433743 -0.60975356188 0.44135755792 0.75064977919 -0.4968528619 0.43550217293 
0.85569154879 -0.35134079234 0.37993633805 0.94037170634 -0.18398998378 0.28609218755 0.97169334922 -0.055826105473 0.229554963 
0.9602641387 -0.019193532414 0.27843202444 0.88164056227 -0.10207395482 0.46075028672 0.61052436809 -0.30294618231 0.7317674539 
0.22717100006 -0.44020672261 0.86868370429 -0.047204934718 -0.45079077028 0.89138060085 -0.20316756589 -0.38493791383 0.90030313932 
-0.292777284 -0.26836615408 0.91774782447 -0.34184262271 -0.10667462217 0.93368310807 -0.36290895751 0.097381251354 0.92672217004 
-0.3585047495 0.33721508466 0.87049430283 -0.32783400029 0.59333299602 0.7351740094 -0.26668818167 0.82235279554 0.50260649958 
-0.17735445465 0.96416761654 0.19729724942 -0.074826147175 0.991366422 -0.10767388273 0.029573166141 0.93715034099 -0.34767034131 
0.14656229964 0.85332640007 -0.50035342236 0.32440878901 0.76611933288 -0.55481537957 0.65369711818 0.62070250443 -0.43290700927 
0.9800313823 0.19666785389 0.029329932675 0.86957761315 -0.26924717163 0.41393324979 0.67290062708 -0.53397637612 0.51193161244 
0.5023744629 -0.71895559012 0.48033608907 0.33444652457 -0.86186046511 0.38123753865 0.1636637846 -0.95604648238 0.24328848955 
0.0061211889615 -0.99612647775 0.087718705887 -0.11616286558 -0.99056118389 -0.072764892841 -0.1875063211 -0.95381764938 -0.2346769509 
-0.20718695204 -0.89454913946 -0.39604974939 -0.18467839195 -0.81389323616 -0.55088264782 -0.13628562498 -0.71283798607 -0.68795947122 
-0.076513633759 -0.59908327612 -0.7970225167 -0.018640971528 -0.48531479425 -0.87414075792 0.027813429799 -0.38438833944 -0.92275241405 
0.054375794083 -0.3047371796 -0.9508830235 0.061632989993 -0.2485219132 -0.96666345395 0.07204480335 -0.21187954982 -0.97463665162 
0.22316673524 -0.176382964 -0.95868955261 0.80839001999 -0.048141023386 -0.58667539359 0.99576155194 0.081919654637 -0.041810308124 
0.99149894081 0.11835653319 0.054051655196 0.98825164909 0.14472583417 0.049123426191 0.98365117092 0.17669818223 0.034758111923 
0.97546237958 0.21640965387 0.040497008941 0.96178992776 0.26192123089 0.079733328424 0.93294198755 0.31252950318 0.17873040455 
0.86755838862 0.36153826788 0.34151504095 0.76130852986 0.39727750304 0.51242551453 0.68529385666 0.42603240798 0.59065109614 
0.67515942975 0.46508327563 0.57258823875 0.69837651864 0.51632283613 0.49566215016 0.7163324304 0.57709022715 0.39221769324 
0.70821196497 0.64718088857 0.2821218002 0.66620005844 0.72558296162 0.17235674616 0.58759422877 0.80637594994 0.067013802032 
0.47688115617 0.87842990637 -0.030745121293 0.34479931105 0.93212279292 -0.11072729577 0.20814861988 0.96404673979 -0.16519090638 
0.07976331545 0.97996318831 -0.18251017248 -0.040596928458 0.98980116685 -0.13654867081 -0.17227306973 0.98423337064 0.040083183104 
-0.36318827255 0.71446517111 0.59802491415 -0.33126385731 -0.18109610771 0.92599592689 -0.26352552703 -0.51490301044 0.81573843016 
-0.27913814298 -0.60647277707 0.74449490784 -0.33939079352 -0.60568582929 0.71969338296 -0.42492852442 -0.52666119225 0.73624977943 
-0.52917674304 -0.30628097996 0.79130521036 -0.59383532185 0.099569283483 0.79840188396 -0.58174150232 0.36489214285 0.7269322861 
-0.61402732824 -0.083411879991 0.78486489184 -0.25593879755 -0.88924435663 0.37913032865 -0.14156456463 -0.97208083698 0.18713182631 
-0.14492090718 -0.985366738 0.089723588322 -0.20119425815 -0.97953198542 0.0061611711575 -0.29112598325 -0.95341154647 -0.079070126691 
-0.40559562924 -0.90046608528 -0.1570127855 -0.53286114446 -0.81862295045 -0.21427894371 -0.66931663825 -0.70700873448 -0.22837225561 
-0.80441123717 -0.56336532303 -0.18852605742 -0.91931795902 -0.38237991993 -0.092952068608 -0.98425338876 -0.17498049434 0.025041831153 
-0.9917489427 0.034462713071 0.12347613557 -0.96031906068 0.22059919104 0.17065549683 -0.91496661893 0.37068847073 0.15945577414 
-0.8749749836 0.47540663501 0.091691381601 -0.85813929382 0.51090620825 -0.050712905359 -0.85336581387 0.41261765176 -0.31861177188 
-0.71573639625 0.076793914177 -0.6941355097 -0.35020721522 -0.3117864728 -0.88325766444 -0.035154696852 -0.46531645206 -0.8844460112 
0.19080803567 -0.46549451356 -0.86423790206 0.37373546784 -0.38377416824 -0.84441647773 0.37373546784 -0.38377416824 -0.84441647773 

FrenetBinormal 3 120 double
0.561262232 -0.48101633606 0.67350426233 0.561262232 -0.48101633606 0.67350426233 0.47895793537 -0.31855433922 0.8179990398 
0.30157384848 -0.084107204697 0.94972585099 0.063843150995 0.15650340966 0.9856118581 -0.14101417167 0.32174519761 0.93626653855 
-0.28212693604 0.41207051228 0.86637306333 -0.37684531827 0.45896230804 0.80457517106 -0.44045161531 0.48253387889 0.75707557766 
-0.45710299604 0.48720129811 0.74410466074 0.50984797304 0.042807148407 0.85919880844 0.78025583748 -0.50934057223 -0.36300552278 
0.78166356152 -0.50922910144 -0.36012192217 0.80051856311 -0.51231559632 -0.31097067366 0.81317311016 -0.52716284984 -0.24667554129 
0.80852238261 -0.56502259642 -0.16444154691 0.76028272021 -0.64840069362 -0.039328435904 0.5539215104 -0.80795646674 0.20094105643 
-0.08388624185 -0.83685866853 0.54095347983 -0.5943393757 -0.55069986018 0.58608051536 -0.73967678183 -0.40163966744 0.53996651373 
-0.7656141114 -0.37169778901 0.52504836545 -0.73665209089 -0.40137850899 0.54427841177 -0.65411264611 -0.46601783643 0.59578857184 
-0.51664933582 -0.53828361985 0.66582595953 -0.33840408747 -0.59112190699 0.73215952132 -0.21564909564 -0.60640104391 0.76535824389 
-0.23272074195 -0.60575444226 0.76085649892 -0.42574249616 -0.59325031713 0.68322572272 -0.75433415406 -0.50396295485 0.42071525305 
-0.9373866984 -0.34065930323 0.072508046378 -0.96191027151 -0.22003339293 -0.16221570687 -0.94525715425 -0.16269693505 -0.28287562579 
-0.93019649619 -0.14229560722 -0.33835844697 -0.92470599854 -0.13892292885 -0.3544280408 -0.92698155472 -0.13899363203 -0.34840489013 
-0.93351065182 -0.13516783406 -0.33209564823 -0.93994210094 -0.12655931843 -0.31700407854 -0.94384682553 -0.11732576859 -0.30884920912 
-0.9453714723 -0.11118883371 -0.30644709597 -0.94619808934 -0.10467280594 -0.3061907566 -0.9465847126 -0.085476277701 -0.31091990579 
-0.94138718795 -0.035037481162 -0.33550340875 -0.90617383767 0.083476058515 -0.41458500164 -0.72219046881 0.34076572784 -0.60192993404 
-0.10716483209 0.64665101824 -0.75522060312 0.48463963377 0.62603604821 -0.61090366812 0.73966310177 0.49519350046 -0.45572128872 
0.86122087114 0.366639322 -0.35195769444 0.93017112705 0.23688952545 -0.28047286345 0.96619885245 0.10554956961 -0.23520005502 
0.97648099765 -0.012951248164 -0.2152141408 0.97174053543 -0.098187103147 -0.21466165141 0.96589217509 -0.13560391318 -0.22059892299 
0.96759298126 -0.127641396 -0.21787954616 0.97652426204 -0.088724356958 -0.19628640843 0.98707931956 -0.038640909534 -0.15550336657 
0.99476485348 0.0084407241951 -0.10184125126 0.99796110142 0.044346619951 -0.045902258706 0.99773674393 0.067209212052 0.0020764437354 
0.99644029869 0.077998344978 0.031984204244 0.99579954487 0.081013309023 0.042662749545 0.9949347942 0.083947281863 0.055295652195 
0.97206961697 0.11356303411 0.20538767503 0.58348969279 0.19717610069 0.78782064185 0.025802573839 0.18751632481 0.9819225301 
-0.074694215212 0.17760158635 0.98126370092 -0.07478323768 0.17758994223 0.98125902787 -0.066818045364 0.17887611108 0.98160006403 
-0.079837507217 0.17627185585 0.9810984687 -0.12599216863 0.16485835793 0.97823703429 -0.22939905274 0.13340725955 0.96414655406 
-0.39138178454 0.072619738416 0.91735852987 -0.55680077808 -0.0043826628062 0.83063450795 -0.6346321542 -0.04848224319 0.77129209833 
-0.62822958544 -0.044317358011 0.77676480337 -0.57536647452 -0.0069008933607 0.81786661362 -0.50744744498 0.045046674997 0.8605044379 
-0.44461628571 0.098443801507 0.89029499405 -0.39510394716 0.1473794481 0.90673710039 -0.36179108517 0.18774380991 0.91315906201 
-0.34261000212 0.21798024519 0.91383970102 -0.33595156043 0.23268920315 0.91268410953 -0.33694676411 0.22922767422 0.91319305272 
-0.34125796874 0.19887499973 0.91869022704 -0.34234333872 0.11461043785 0.93255856973 -0.31830573418 -0.094130217819 0.94330321831 
-0.13164656592 -0.67476500427 0.7261965097 0.24403851032 -0.96445850064 -0.10131636601 0.3500098637 -0.83903972761 -0.41653983099 
0.37729026899 -0.78222911213 -0.49575162033 0.3738647539 -0.78893560742 -0.48765331244 0.33433421301 -0.84713430577 -0.41301828289 
0.2151471938 -0.95053659544 -0.22403541178 -0.021039961816 -0.99389554608 0.10830033924 -0.18416838717 -0.92960556288 0.31924207529 
0.094350309161 -0.99502677284 -0.031933375758 0.57490638268 -0.45531439066 -0.67983193277 0.62087839948 -0.23442044697 -0.74803547182 
0.63104596483 -0.16189087678 -0.7586648366 0.63556321044 -0.13532457861 -0.76009648332 0.63655684755 -0.13134715183 -0.7599627001 
0.62939347243 -0.15056519279 -0.76236079358 0.60637211914 -0.19276774768 -0.77146189056 0.54972254066 -0.26446841656 -0.7923771734 
0.44252788843 -0.35651372243 -0.82284083131 0.27287900477 -0.44925875764 -0.85070771563 0.068662086465 -0.5090121266 -0.85801641759 
-0.12318691163 -0.52279242098 -0.84351234097 -0.26211297211 -0.50473817993 -0.82251818191 -0.33610107827 -0.48137245939 -0.80951628799 
-0.34417568406 -0.47753238387 -0.80839713066 -0.26389717839 -0.52365641583 -0.81002607205 -0.031281241184 -0.65060041649 -0.75877571259 
0.38807015042 -0.78262099891 -0.48672983309 0.70112675221 -0.71254525867 -0.026467559168 0.76861073864 -0.57822755458 0.27366115466 
0.75559554466 -0.4923732404 0.43202310704 0.72575530653 -0.44590839276 0.52387492812 0.72575530653 -0.44590839276 0.52387492812 

plain_curvature_peaks 1 120 unsigned_char
0 0 0 0 0 0 0 0 0 
1 0 0 0 0 0 0 0 0 
0 0 0 0 0 0 0 0 0 
0 0 0 0 0 0 0 0 1 
0 0 0 0 0 0 0 0 0 
0 0 0 0 0 0 0 0 0 
0 0 0 0 0 0 0 0 0 
0 0 0 0 1 0 0 0 0 
0 0 0 0 0 0 0 0 0 
0 0 0 0 0 0 0 0 0 
0 0 0 0 0 0 0 0 0 
0 0 0 1 0 0 0 0 0 
0 0 0 0 0 0 0 0 0 
0 0 0 
weighted_curvature_peaks 1 120 unsigned_char
0 0 0 0 0 0 0 0 0 
1 0 0 0 0 0 0 0 0 
0 0 0 0 0 0 0 0 0 
0 0 0 0 0 0 0 0 0 
0 0 1 0 0 0 0 0 0 
0 0 0 0 0 0 0 0 0 
0 0 0 0 0 0 0 0 0 
0 0 0 0 0 0 0 0 1 
0 0 0 0 0 0 0 0 0 
0 0 0 0 0 0 0 0 0 
0 0 0 0 0 0 0 0 0 
0 0 0 0 0 0 0 1 0 
0 0 0 0 0 0 0 0 0 
0 0 0 
plain_torsion_tp 1 120 unsigned_char
0 0 0 0 0 0 0 0 0 
1 0 0 0 0 0 0 0 0 
0 0 0 0 0 0 0 0 0 
0 0 0 0 0 0 0 0 1 
0 0 0 0 0 0 0 0 0 
0 0 0 0 0 0 0 0 0 
0 0 0 0 0 0 0 0 0 
0 0 0 0 1 0 0 0 0 
0 0 0 0 0 0 0 0 0 
0 0 0 0 0 0 0 0 0 
0 0 0 0 0 0 0 0 0 
0 0 0 1 0 0 0 0 0 
0 0 0 0 0 0 0 0 0 
0 0 0 
plain_torsion_tn 1 120 unsigned_char
0 2 0 0 0 0 0 0 0 
0 0 0 0 0 0 0 0 0 
0 0 0 0 0 2 0 0 0 
0 0 0 0 0 0 0 0 0 
0 0 0 0 0 0 0 0 0 
0 2 0 0 0 0 0 0 0 
0 0 0 0 0 0 0 0 0 
0 0 0 0 0 0 0 0 0 
0 0 0 0 0 0 0 0 0 
0 2 0 0 0 0 0 0 0 
0 0 0 0 0 0 0 0 0 
0 0 0 0 0 0 0 0 0 
0 0 0 0 0 0 0 0 0 
0 0 0 
plain_torsion_tz 1 120 unsigned_char
0 3 0 0 0 0 0 0 0 
0 0 0 0 0 0 0 3 0 
0 0 0 0 0 0 0 0 0 
0 0 3 0 0 0 0 0 0 
0 0 0 0 0 0 0 0 0 
0 0 0 0 0 0 3 0 0 
0 0 0 0 0 0 0 0 0 
0 0 0 0 0 0 0 0 0 
0 0 0 3 0 0 0 0 0 
0 0 0 0 0 0 0 3 0 
0 0 0 0 0 0 0 0 0 
0 0 0 0 0 0 0 0 0 
0 0 0 0 0 0 0 0 0 
0 0 0 
weighted_torsion_tp 1 120 unsigned_char
0 0 0 0 0 0 0 0 0 
1 0 0 0 0 0 0 0 0 
0 0 0 0 0 0 0 0 0 
0 0 0 0 0 0 0 0 0 
0 0 1 0 0 0 0 0 0 
0 0 0 0 0 0 0 0 0 
0 0 0 0 0 0 0 0 0 
0 0 0 0 0 0 0 0 1 
0 0 0 0 0 0 0 0 0 
0 0 0 0 0 0 0 0 0 
0 0 0 0 0 0 0 0 0 
0 0 0 0 0 0 0 1 0 
0 0 0 0 0 0 0 0 0 
0 0 0 
weighted_torsion_tn 1 120 unsigned_char
0 0 2 0 0 0 0 0 0 
0 0 0 0 0 0 0 0 0 
0 0 0 0 0 0 0 0 2 
0 0 0 0 0 0 0 0 0 
0 0 0 0 0 0 0 0 0 
0 0 0 0 0 0 2 0 0 
0 0 0 0 0 0 0 0 0 
0 0 0 0 0 0 0 0 0 
0 0 0 0 0 0 0 0 0 
0 0 0 0 0 0 0 2 0 
0 0 0 0 0 0 0 0 0 
0 0 0 0 0 0 0 0 0 
0 0 0 0 0 0 0 0 0 
0 0 0 
weighted_torsion_tz 1 120 unsigned_char
0 0 3 0 0 0 0 0 0 
0 0 0 0 0 0 0 0 0 
0 3 0 0 0 0 0 0 0 
0 0 0 0 3 0 0 0 0 
0 0 0 0 0 0 0 0 0 
0 0 0 0 0 0 0 0 0 
0 0 3 0 0 0 0 0 0 
0 0 0 0 0 0 0 0 0 
0 0 0 0 0 0 0 0 3 
0 0 0 0 0 0 0 0 0 
0 0 0 0 3 0 0 0 0 
0 0 0 0 0 0 0 0 0 
0 0 0 0 0 0 0 0 0 
0 0 0 
plain_torsion_tp_raw 1 120 unsigned_char
0 0 0 0 0 0 0 0 0 
0 0 0 1 0 0 0 0 0 
0 0 0 0 0 0 0 0 1 
0 0 0 0 0 0 0 0 0 
0 0 0 0 0 0 0 0 0 
0 0 0 0 1 0 0 0 0 
0 0 0 0 0 0 0 0 0 
0 0 0 0 0 0 0 1 0 
0 0 0 0 0 0 0 0 0 
0 0 0 0 0 0 0 0 0 
0 0 0 0 1 0 0 0 0 
0 0 0 0 0 1 0 0 0 
0 0 0 0 0 0 0 0 0 
0 0 0 
plain_torsion_tn_raw 1 120 unsigned_char
0 0 0 2 0 0 0 0 0 
0 0 0 0 0 0 0 0 0 
2 0 0 0 0 0 0 0 0 
0 0 0 0 0 0 0 0 0 
0 0 0 0 0 0 0 2 0 
0 0 0 0 0 0 0 0 0 
0 0 2 0 0 0 0 0 0 
0 0 0 0 0 0 0 0 0 
0 0 0 0 0 0 0 0 0 
0 0 0 2 0 0 0 0 0 
0 0 0 0 0 0 0 0 2 
0 0 0 0 0 0 0 0 0 
0 0 0 0 0 0 0 0 0 
0 0 0 
plain_torsion_tz_raw 1 120 unsigned_char
0 3 0 0 0 0 0 0 0 
0 3 0 0 3 0 0 0 0 
0 0 0 3 0 0 0 0 0 
0 0 0 0 0 0 0 0 0 
0 0 0 0 0 0 0 0 0 
0 0 0 0 0 0 0 0 0 
0 0 0 0 0 0 0 0 0 
0 0 0 0 0 0 0 0 0 
0 0 0 0 0 0 0 0 0 
0 0 0 0 0 0 0 0 0 
0 0 0 0 0 0 0 0 0 
0 0 0 0 0 0 0 0 0 
0 0 0 0 0 0 0 0 0 
0 0 0 
weighted_torsion_tp_raw 1 120 unsigned_char
0 0 0 0 0 0 0 0 0 
0 0 0 0 0 1 0 0 0 
0 0 0 0 0 0 0 0 0 
0 1 0 0 0 0 0 0 0 
0 0 0 0 0 0 0 0 0 
0 0 0 0 0 0 0 0 0 
1 0 0 0 0 0 0 0 0 
0 0 0 0 0 0 0 0 0 
0 0 0 1 0 0 0 0 0 
0 0 0 0 0 0 0 0 0 
0 0 0 0 0 0 0 0 1 
0 0 0 0 0 0 0 0 0 
1 0 0 0 0 0 0 0 0 
0 0 0 
weighted_torsion_tn_raw 1 120 unsigned_char
0 0 0 0 0 0 2 0 0 
0 0 0 0 0 0 0 0 0 
0 0 0 2 0 0 0 0 0 
0 0 0 0 0 0 0 0 0 
0 0 0 0 0 0 0 0 0 
0 0 2 0 0 0 0 0 0 
0 0 0 0 0 0 0 2 0 
0 0 0 0 0 0 0 0 0 
0 0 0 0 0 0 0 0 0 
0 0 0 0 0 0 0 0 2 
0 0 0 0 0 0 0 0 0 
0 0 0 0 2 0 0 0 0 
0 0 0 0 0 0 0 0 0 
0 0 0 
weighted_torsion_tz_raw 1 120 unsigned_char
0 0 3 0 0 0 0 0 0 
0 3 0 0 0 0 3 0 0 
0 0 0 0 0 0 0 3 0 
0 0 0 0 0 0 0 0 0 
0 0 0 0 0 0 0 0 0 
0 0 0 0 0 0 0 0 0 
0 0 0 0 0 0 0 0 0 
0 0 0 0 0 0 0 0 0 
0 0 0 0 0 0 0 0 0 
0 0 0 0 0 0 0 0 0 
0 0 0 0 0 0 0 0 0 
0 0 0 0 0 0 0 0 0 
0 0 0 0 0 0 0 0 0 
0 0 0 
