# vtk DataFile Version 5.1
vtk output
ASCII
DATASET POLYDATA
POINTS 120 float
-5.69739 21.665 -6.95269 -6.08108 21.1678 -6.74608 -6.4552 20.6321 -6.48051 
-6.8185 20.0704 -6.17861 -7.16966 19.4952 -5.86298 -7.50739 18.9184 -5.55609 
-7.83027 18.3515 -5.27995 -8.13679 17.8045 -5.05554 -8.4253 17.2853 -4.90175 
-8.69415 16.7983 -4.83396 -8.94205 16.3437 -4.86237 -9.16846 15.9172 -4.99049 
-9.37387 15.5105 -5.21419 -9.55959 15.1117 -5.52203 -9.72714 14.7082 -5.89668 
-9.8773 14.2877 -6.31717 -10.0092 13.8408 -6.76174 -10.1198 13.3625 -7.21105 
-10.2041 12.8531 -7.65045 -10.2556 12.3185 -8.07141 -10.2672 11.769 -8.47191 
-10.2322 11.2186 -8.85584 -10.145 10.682 -9.23151 -10.002 10.1731 -9.60952 
-9.80211 9.70223 -10.0002 -9.54705 9.27389 -10.4112 -9.2418 8.88573 -10.8446 
-8.89466 8.52857 -11.2962 -8.51726 8.18775 -11.7547 -8.12428 7.84587 -12.2019 
-7.73287 7.48659 -12.6151 -7.36187 7.09842 -12.9691 -7.03061 6.67758 -13.239 
-6.75762 6.23012 -13.4036 -6.55896 5.77125 -13.4476 -6.44639 5.32374 -13.3636 
-6.4257 4.91434 -13.1531 -6.4953 4.57034 -12.8262 -6.64557 4.31636 -12.4006 
-6.85942 4.17153 -11.899 -7.11384 4.14755 -11.3461 -7.38241 4.24771 -10.7658 
-7.63841 4.46621 -10.1784 -7.85799 4.78851 -9.5987 -8.02279 5.19218 -9.03582 
-8.12184 5.64787 -8.49309 -8.15244 6.12132 -7.96948 -8.1197 6.57569 -7.46126 
-8.03493 6.97391 -6.96391 -7.9132 7.28229 -6.47382 -7.77065 7.47327 -5.98957 
-7.62171 7.5285 -5.51248 -7.47714 7.44031 -5.04631 -7.34305 7.21219 -4.59638 
-7.22078 6.85777 -4.16841 -7.10777 6.39827 -3.76747 -6.99924 5.85917 -3.39724 
-6.88987 5.26658 -3.05977 -6.7754 4.64359 -2.7556 -6.65361 4.00822 -2.48411 
-6.52454 3.37231 -2.24381 -6.38985 2.74194 -2.0326 -6.25191 2.11852 -1.84779 
-6.11264 1.50038 -1.68602 -5.97274 0.884996 -1.54318 -5.83145 0.270054 -1.41436 
-5.68661 -0.34558 -1.29391 -5.53496 -0.961185 -1.17561 -5.37232 -1.57432 -1.05293 
-5.1937 -2.18116 -0.919654 -4.99343 -2.77703 -0.770509 -4.76544 -3.35699 -0.602034 
-4.50366 -3.91627 -0.413355 -4.2027 -4.4508 -0.206411 -3.85842 -4.95728 0.0144565 
-3.46837 -5.43261 0.243619 -3.03208 -5.87377 0.475557 -2.55118 -6.27761 0.706145 
-2.02924 -6.6405 0.933433 -1.47149 -6.95858 1.15781 -0.884426 -7.22804 1.38169 
-0.275386 -7.44554 1.6087 0.347975 -7.60865 1.84287 0.978218 -7.71589 2.08783 
1.60858 -7.76684 2.34619 2.23334 -7.76244 2.61911 2.84817 -7.70512 2.90631 
3.45031 -7.59872 3.20612 4.03855 -7.44853 3.51579 4.61324 -7.26079 3.832 
5.17619 -7.04291 4.15132 5.73023 -6.80238 4.4705 6.27895 -6.54648 4.78674 
6.82647 -6.28183 5.09802 7.37686 -6.01383 5.40316 7.93359 -5.74672 5.70199 
8.4995 -5.48396 5.99567 9.07595 -5.22881 6.28608 9.66284 -4.98517 6.57637 
10.2582 -4.7586 6.87034 10.8582 -4.55678 7.17238 11.4571 -4.38992 7.48675 
12.047 -4.27024 7.81663 12.6186 -4.21041 8.16364 13.161 -4.22239 8.52686 
13.6625 -4.31563 8.90244 14.1113 -4.49529 9.2834 14.4957 -4.76193 9.66043 
14.8054 -5.11187 10.0227 15.0328 -5.53782 10.3596 15.1737 -6.02987 10.6623 
15.2285 -6.57683 10.9246 15.2024 -7.16715 11.1446 15.1056 -7.78975 11.3245 
14.9515 -8.43448 11.47 14.7551 -9.09262 11.5894 14.531 -9.75686 11.6919 
14.2919 -10.4212 11.7863 14.0471 -11.0812 11.879 13.8026 -11.7334 11.9733 

LINES 2 120
OFFSETS vtktypeint64
0 120 
CONNECTIVITY vtktypeint64
0 1 2 3 4 5 6 7 8 
9 10 11 12 13 14 15 16 17 
18 19 20 21 22 23 24 25 26 
27 28 29 30 31 32 33 34 35 
36 37 38 39 40 41 42 43 44 
45 46 47 48 49 50 51 52 53 
54 55 56 57 58 59 60 61 62 
63 64 65 66 67 68 69 70 71 
72 73 74 75 76 77 78 79 80 
81 82 83 84 85 86 87 88 89 
90 91 92 93 94 95 96 97 98 
99 100 101 102 103 104 105 106 107 
108 109 110 111 112 113 114 115 116 
117 118 119 
CELL_DATA 1
FIELD FieldData 2
Length 1 1 double
76.845933063 
Tortuosity 1 1 double
0.7847531056 
POINT_DATA 120
FIELD FieldData 19
Curvature 1 120 double
0 0.11946781585 0.06957144392 0.037249238478 0.024711242792 0.044293968679 0.083062740352 0.14160121299 0.2258638872 
0.3286442535 0.40601743195 0.39613820909 0.3015551664 0.18687227437 0.10077570334 0.065499551205 0.073733875984 0.088718889526 
0.097640980913 0.10175452588 0.10705590713 0.12051951007 0.14314925507 0.16617187857 0.1749263765 0.15878945343 0.12025836599 
0.071346391406 0.040696710834 0.077516074857 0.14395279908 0.23032208765 0.34442391873 0.4933981716 0.65752394543 0.76661273316 
0.74541834547 0.6229621978 0.48668793242 0.38233286133 0.3125175244 0.26539166355 0.23002664506 0.19920057036 0.16972707529 
0.14416440175 0.13194424989 0.15148861109 0.21896640844 0.33918100471 0.4901735267 0.58849118194 0.54629793611 0.40811880622 
0.27382384138 0.18045308964 0.12307465382 0.090268335239 0.072426340492 0.062961623812 0.057293555635 0.052995947752 0.048543871073 
0.042168860014 0.033043595936 0.021978440529 0.016967351735 0.028862496875 0.048328777673 0.069453594066 0.089639847466 0.10680624929 
0.11925707229 0.12675725203 0.13074124745 0.13187083499 0.13072274243 0.12808599738 0.12481922501 0.12206668427 0.12074590657 
0.12088139888 0.12229855343 0.12389352141 0.1236531629 0.12016568015 0.11280842792 0.10134815355 0.087071031157 0.069745240927 
0.052208227404 0.035422013953 0.021682124332 0.016095464726 0.018689625774 0.022840920753 0.02640531389 0.030645067972 0.039147945304 
0.053761350924 0.075322280725 0.10346512681 0.13727280119 0.17627356388 0.21793615622 0.25757496406 0.29240579617 0.31926784738 
0.33310370161 0.32858728886 0.30310720822 0.25860461131 0.20395337814 0.14966826444 0.10167568049 0.06265741999 0.032953808509 
0.014004727285 0.0070180171578 0 
Torsion 1 120 double
0 0 -0.25435690193 -0.75472192959 -1.6879967378 -0.57383738983 -0.1802931814 -0.05423415136 0.0019190903639 
0.032825632272 0.0563527057 0.089758216328 0.1615489943 0.34428994426 0.84164512623 1.2619141328 0.51242178436 0.069364493784 
-0.15417366069 -0.32505194372 -0.44667073344 -0.44842116815 -0.34557736111 -0.22531405775 -0.12478642109 -0.031205506157 0.1155709006 
0.60041477072 2.1572854572 0.60902453488 0.17285431034 0.060450234405 0.016563049914 -0.0082298810069 -0.026061258884 -0.043528453005 
-0.067456921895 -0.10063533241 -0.1390343613 -0.17452164751 -0.20035500464 -0.21772920676 -0.23590137457 -0.27111774898 -0.34933445129 
-0.50675957003 -0.7254651218 -0.74112753271 -0.51160200755 -0.29827102414 -0.16384047671 -0.085083592462 -0.032107765082 0.019329981475 
0.078581888234 0.14338427219 0.20485112391 0.23320883415 0.19381416908 0.094097879496 -0.017905359686 -0.093311156982 -0.096039726149 
-0.01877977086 0.17307811071 0.75748244678 1.6173516456 0.56227492057 0.14420239906 0.0025722858622 -0.069220079321 -0.11519813246 
-0.14481037121 -0.15466057706 -0.13785545425 -0.09587817457 -0.03549341684 0.031792286086 0.094045455726 0.14056950421 0.1627517368 
0.16055972261 0.13842155268 0.105141733 0.070554409271 0.038068114033 0.0083559821085 -0.020519377756 -0.050050222477 -0.091875406526 
-0.17143746056 -0.35039230879 -0.81067877343 -1.1827829203 -0.73047948404 -0.47682833805 -0.45096039719 -0.47047369823 -0.38106166948 
-0.23874014221 -0.12078532238 -0.053997008119 -0.017853281732 0.0040273186827 0.016410027248 0.021312293446 0.024358990253 0.025842003667 
0.023203237313 0.019930345015 0.016584973684 0.013090855908 0.0092768615247 -0.00085630949023 -0.022488384837 -0.07628251089 -0.24530996036 
-0.87017156742 0 0 
FrenetTangent 3 120 double
-0.55502473908 -0.75654017675 0.34582437734 -0.55502473908 -0.75654017675 0.34582437734 -0.51255409605 -0.76270213611 0.39442838411 
-0.48340842449 -0.7692458513 0.41782426377 -0.4655787593 -0.77860994611 0.4207172099 -0.45756597281 -0.79218411491 0.40382881102 
-0.45813917507 -0.81077646261 0.3643487669 -0.4655227838 -0.83411041561 0.29588570823 -0.47579216623 -0.8589768109 0.18915774603 
-0.48077729923 -0.87607661124 0.036646415559 -0.46833067861 -0.86992876018 -0.15456496266 -0.43084448608 -0.83135118844 -0.35103878746 
-0.37561162042 -0.77353665736 -0.51044779393 -0.31799858084 -0.72212844809 -0.61433493068 -0.2673442616 -0.69342555783 -0.66909494209 
-0.22435384286 -0.69003112376 -0.68812963999 -0.18525173583 -0.70674164424 -0.68278696727 -0.14518290579 -0.73549339644 -0.66179406741 
-0.099894382445 -0.76785108814 -0.63279208181 -0.046331102149 -0.79616107241 -0.60330835876 0.017363018929 -0.81403126344 -0.58056147626 
0.09180069042 -0.81623656456 -0.57037751 0.17582123652 -0.79853984268 -0.5756917686 0.26543517175 -0.75852627265 -0.59513197133 
0.35329485134 -0.69832475071 -0.62251529344 0.43055853918 -0.6274225068 -0.64881456696 0.49113188938 -0.56109071887 -0.6663082413 
0.5340794794 -0.51449660733 -0.67085941204 0.56188518739 -0.49793317074 -0.66056611605 0.57712004873 -0.51588460245 -0.63308413841 
0.57990593515 -0.56852818287 -0.58351076396 0.56646935225 -0.65257909098 -0.50324248924 0.5283573358 -0.7592397104 -0.37999156287 
0.4522959264 -0.86913730724 -0.20007182742 0.32447897802 -0.94497280176 0.041710870965 0.14549366388 -0.93562016533 0.32163099974 
-0.052772819971 -0.8129487085 0.57993915786 -0.22299020668 -0.60648240823 0.76318703882 -0.33934667599 -0.37167742691 0.86411788769 
-0.40158177777 -0.14477164742 0.90430815869 -0.41827514255 0.06092497447 0.90627482179 -0.39763698467 0.24155030642 0.88517697546 
-0.34678087403 0.39434058202 0.8510220507 -0.27315306601 0.5159001812 0.81193251294 -0.18515984326 0.60307590285 0.77589644144 
-0.091285314054 0.65419597353 0.75079599071 0.0015381079048 0.66863605556 0.74358823245 0.088781965207 0.64415253769 0.75972710287 
0.16765969237 0.57370037131 0.80172196646 0.23463861713 0.44336602653 0.86508455418 0.28183014167 0.2380449953 0.92946562683 
0.29695176451 -0.033353512119 0.95430979917 0.27632677591 -0.31366365695 0.90843746247 0.23642655041 -0.53722980791 0.80962128168 
0.19849745034 -0.68668229181 0.69933267643 0.1729410405 -0.77954142099 0.60200213411 0.16112180794 -0.83678666082 0.52328562686 
0.16073124695 -0.8728605605 0.46073843792 0.16829737099 -0.89639134675 0.41007139426 0.18006001639 -0.91248728352 0.36734908181 
0.19252617664 -0.92429316816 0.32956912872 0.20302424786 -0.93370497624 0.29491722929 0.21024990765 -0.94164832933 0.26285623485 
0.21459963516 -0.94821810412 0.2341568355 0.21781644572 -0.95303391273 0.21043373577 0.22219796962 -0.95559437963 0.1935650896 
0.23006171939 -0.95537900052 0.18526351676 0.2434481632 -0.95178236713 0.18666364792 0.26404836376 -0.9439585574 0.19804217606 
0.29320425752 -0.93073299921 0.21855742392 0.33171083455 -0.91073909236 0.24601265799 0.37953379852 -0.8828116933 0.27676273224 
0.4355079569 -0.84651497703 0.30617840084 0.49735695013 -0.8024284882 0.32976443939 0.56226474864 -0.75174722065 0.34457868286 
0.62727547198 -0.6957085969 0.35002147142 0.68955743571 -0.63528748088 0.3477360486 0.7468095019 -0.57097369064 0.34097597052 
0.79737851295 -0.50291223566 0.3335667704 0.84015474338 -0.43118741075 0.32896416824 0.87442023686 -0.35600096666 0.32962487937 
0.89969143601 -0.27785291237 0.3366794901 0.91570385716 -0.19747444593 0.34998612715 0.92246791427 -0.11575952727 0.3683105741 
0.92035959929 -0.03413774322 0.38958031584 0.91034893256 0.045324642679 0.41135203627 0.89415600421 0.12029425434 0.43129378908 
0.87416781383 0.18843088291 0.44757617857 0.85308333495 0.24789515639 0.45912614287 0.83356281995 0.29720143434 0.46566547286 
0.81781328194 0.33562583464 0.46747912788 0.80722165931 0.36339247118 0.46512267697 0.802401767 0.38101786835 0.45932209648 
0.80306458153 0.38960409033 0.45088350013 0.80812956373 0.39060052122 0.44086034189 0.8161372014 0.38520398019 0.43074117767 
0.82563727433 0.3743159627 0.42215003412 0.83536742384 0.35816800827 0.41698554536 0.84443054895 0.33584868587 0.41730409559 
0.85217793944 0.30539313716 0.42488562144 0.8578313053 0.26380075074 0.44106078441 0.86008272093 0.20731833517 0.46612961831 
0.8563894996 0.13235555989 0.49907818098 0.84266218781 0.036191239359 0.53722493559 0.81352334787 -0.081992354872 0.57572303777 
0.7633295873 -0.21920222663 0.60768275028 0.68766974489 -0.36836979545 0.62563089419 0.5848414114 -0.51952194264 0.62294259337 
0.45732132386 -0.66063014577 0.59533605404 0.31268337413 -0.77937498335 0.54295832517 0.16322429271 -0.86675324675 0.47127130139 
0.023193713712 -0.92037529064 0.39034776292 -0.095788617487 -0.94533841006 0.311704718 -0.18834217157 -0.95125137468 0.24422949979 
-0.25492677401 -0.94757706356 0.19263968568 -0.29920184987 -0.9410296478 0.15792863895 -0.32597746125 -0.93515751638 0.13863302026 
-0.34023132512 -0.93109571908 0.1315424164 -0.34634563772 -0.92872698384 0.13232871463 -0.34634563772 -0.92872698384 0.13232871463 

FrenetNormal 3 120 double
0.61205337393 -0.089873602132 0.78569294454 0.61205337393 -0.089873602132 0.78569294454 0.70834945653 -0.11595302916 0.69627289367 
0.84210010188 -0.27825126466 0.46199962352 0.69288578005 -0.6164362773 -0.37405295325 0.10701083143 -0.49992047064 -0.85943481719 
-0.079666235988 -0.37079367758 -0.92529202931 -0.11076305171 -0.27678379706 -0.95452725266 -0.073439335587 -0.17551205098 -0.98173427359 
0.0079185052423 -0.0461298596 -0.99890406613 0.12033660311 0.11050428558 -0.98656368513 0.24649510775 0.26578673181 -0.93198582341 
0.37571459986 0.37639275605 -0.84685715008 0.52951768672 0.40221453202 -0.74688318342 0.77379165987 0.25932015066 -0.57792692149 
0.97266807964 -0.20192923508 -0.11463590565 0.79862305742 -0.51314101456 0.31446384741 0.70326154759 -0.54720399824 0.45386229189 
0.73733095072 -0.48415911212 0.4710976791 0.84382973632 -0.35442011467 0.40291160124 0.95732042771 -0.15401150912 0.24457729606 
0.9955277987 0.088054198472 0.034217833724 0.94063122081 0.30875836106 -0.14100064156 0.84459371694 0.48063782358 -0.23589984284 
0.74943356235 0.60954922871 -0.25845516709 0.67611214734 0.70042107524 -0.22865406531 0.64784019313 0.74661992622 -0.15120109104 
0.72171758385 0.69073445075 0.044829094492 0.75919291335 -0.0067032153898 0.65083115108 0.17333331848 -0.6801714281 0.71226567312 
-0.048454863106 -0.73904396661 0.67191230206 -0.17106783261 -0.69048603555 0.70282631663 -0.28057407243 -0.57855925023 0.76586381547 
-0.39366056648 -0.3958442664 0.8296617836 -0.49834711989 -0.1333062784 0.85666772102 -0.56404115431 0.18864279169 0.80391011524 
-0.55799157171 0.50563332475 0.65801242147 -0.47654831274 0.75079405201 0.45739479347 -0.34135328169 0.90466543647 0.25506545265 
-0.17291258369 0.98165284522 0.080367467816 0.015437361753 0.99808069078 -0.059971848064 0.21202367073 0.9628049684 -0.16748897242 
0.40629727878 0.8809358575 -0.24264075549 0.59270755401 0.75504865712 -0.28035563273 0.77077846241 0.57890578419 -0.26602378636 
0.93021283066 0.32515874391 -0.17022303292 0.99811417805 -0.046657252121 0.039889702957 0.83832884017 -0.46021824323 0.29223949825 
0.54920462667 -0.72970511128 0.40731404177 0.30814813718 -0.87795664255 0.36638348675 0.12886873466 -0.96934768442 0.20918392851 
-0.016130138862 -0.99942240811 -0.029911014462 -0.12773065581 -0.94884222862 -0.28876167467 -0.19202144958 -0.84264464012 -0.50306835855 
-0.20291865807 -0.72686398345 -0.65611947675 -0.1604419934 -0.62534471504 -0.76367686499 -0.064739417724 -0.53803225248 -0.84043447281 
0.07255882821 -0.45509498352 -0.88748170259 0.20992922868 -0.37386861777 -0.90341129924 0.29560390409 -0.30599489402 -0.90497815262 
0.30621357838 -0.26249316328 -0.91505769416 0.2519905909 -0.24122313308 -0.93718308893 0.17040435889 -0.22945313625 -0.95828681131 
0.11792842197 -0.21283295671 -0.969945885 0.15031624608 -0.18028029458 -0.97206174781 0.39318545617 -0.093848068558 -0.91465716915 
0.92910231297 0.15898442267 -0.33390544377 0.8907742693 0.29554697032 0.34521470056 0.78682126928 0.32957072586 0.52181934312 
0.75065224224 0.36568932718 0.55026586957 0.74710995815 0.41283589173 0.5209541601 0.75841768612 0.46820255035 0.45341921576 
0.77208805883 0.52614188586 0.35644739493 0.77846417997 0.58056493069 0.23861659993 0.76889118859 0.62862204578 0.11679325179 
0.74000449419 0.67251926676 0.01054440199 0.69320612789 0.71798851332 -0.062910722457 0.63129809567 0.76988564868 -0.093481561552 
0.55553983768 0.8276108171 -0.080223588618 0.4654503561 0.88459012696 -0.029262147671 0.36196515735 0.93108645104 0.045378910775 
0.24970992282 0.96020027532 0.12514146284 0.13532324027 0.97159373237 0.19414746936 0.025558068908 0.97020778445 0.24092247739 
-0.075536987428 0.96190523253 0.26274034172 -0.16566664026 0.95077791261 0.26187005403 -0.242843145 0.93954761123 0.24140731795 
-0.30543524463 0.92986791599 0.20507308491 -0.35087516483 0.92381301414 0.15315395397 -0.37729608544 0.92200395337 0.086927405787 
-0.37425686834 0.92725988641 -0.010995433187 -0.31838890173 0.93161281738 -0.17528852143 -0.1257257346 0.86031442294 -0.49401632902 
0.29132634753 0.40336661244 -0.86742396508 0.53958436888 -0.19083532663 -0.82001865038 0.5777692375 -0.53088119039 -0.61995795816 
0.54178270584 -0.7348210915 -0.40805571082 0.44698161771 -0.88413953858 -0.13603201732 0.31155262875 -0.94164892624 0.12740588379 
0.18120579078 -0.93400554826 0.30789299637 0.079862793798 -0.91620880132 0.39266189853 -0.0027879960503 -0.91177888106 0.41067200919 
-0.085718478977 -0.91672933278 0.390204655 -0.17677107312 -0.92384244661 0.33951011996 -0.27905930306 -0.92361771629 0.262785501 
-0.39063359881 -0.90583104477 0.16393751798 -0.50595849905 -0.8611602642 0.049081530148 -0.61432679056 -0.78517982086 -0.078072039258 
-0.70663844056 -0.67638857263 -0.20775132526 -0.7748458671 -0.53991904833 -0.32878762673 -0.81319768035 -0.38866850408 -0.43318163235 
-0.82422464756 -0.2385769844 -0.51355112002 -0.81459254252 -0.10552145375 -0.57035446213 -0.79650748989 0.0024694064747 -0.60462361893 
-0.78227363471 0.084998748061 -0.61710872078 -0.78412243999 0.14817159041 -0.60265842639 -0.82716777999 0.21113019695 -0.52078546799 
-0.92874953515 0.31083549301 -0.20200395353 -0.60203908378 0.32822737538 0.72788442191 -0.60203908378 0.32822737538 0.72788442191 

FrenetBinormal 3 120 double
-0.56332779664 0.64774199848 0.51292504027 -0.56332779664 0.64774199848 0.51292504027 -0.48531365739 0.63627065515 0.59969184366 
-0.23913116389 0.57518436521 0.78229101521 0.55058670044 0.11735786227 0.82648739704 0.88271289924 -0.35003407137 0.31351887725 
0.88530321761 -0.45293882185 0.10528360056 0.87807749324 -0.47712738787 0.036460548624 0.87648643945 -0.48099309589 0.020424572658 
0.87680698322 -0.47996021427 0.029115406551 0.87532021422 -0.48063786271 0.052931724893 0.86810897396 -0.48807029686 0.090411252899 
0.84720390111 -0.50987207505 0.14925152269 0.78644003079 -0.56280900374 0.25447613497 0.5742590991 -0.67224553194 0.46723915919 
-0.05985114904 -0.69504074144 0.71647484792 -0.57261069369 -0.48703444178 0.6594804364 -0.69594907827 -0.39952127366 0.59668889075 
-0.66810491801 -0.41951717556 0.61452514834 -0.53460715022 -0.49042219474 0.68824506234 -0.28850671442 -0.56002996099 0.77661465253 
0.022294287425 -0.57096788772 0.82066962655 0.29034427708 -0.51672274396 0.80541778391 0.46497916395 -0.44002860843 0.76822470727 
0.55993935711 -0.37522297415 0.73869860974 0.59790610346 -0.34022244976 0.72578025333 0.58231653883 -0.35740158221 0.73018597469 
0.44032129048 -0.50811333341 0.7402283442 -0.32849833563 -0.86718949739 0.37426089711 -0.79805263615 -0.52079737456 -0.30312057764 
-0.8132411897 -0.36137199768 -0.45612393784 -0.80613167014 -0.31204096641 -0.502774468 -0.80132185518 -0.29803398485 -0.51870900155 
-0.80028729427 -0.2964922561 -0.52118383389 -0.80396737553 -0.29875715903 -0.51417955911 -0.81282788462 -0.29837694845 -0.50028194712 
-0.82816691275 -0.28887599113 -0.48030222399 -0.85039818518 -0.26170093613 -0.45643788918 -0.87653965716 -0.20841386321 -0.43386851816 
-0.89935160764 -0.12409214957 -0.41924673434 -0.90818918348 -0.011094241027 -0.41841286408 -0.8927098025 0.12107866162 -0.43406124709 
-0.84537893673 0.26162477012 -0.46571121202 -0.75768407529 0.40465853311 -0.51202179019 -0.60960347303 0.54878734354 -0.57202802138 
-0.35548710401 0.68286120074 -0.63822370639 0.061365477278 0.74212460277 -0.66744689089 0.53788708703 0.61095554403 -0.58087072987 
0.81869683375 0.37201926634 -0.43742103273 0.92194872141 0.1806064792 -0.34262494767 0.95077054039 0.060824723033 -0.30386795256 
0.95475623495 -0.006511021055 -0.29731824436 0.95253786932 -0.036242730273 -0.30225497849 0.95248635117 -0.036525935482 -0.30238321196 
0.95886536094 -0.011669604992 -0.28362129664 0.97177660152 0.035484649204 -0.23321894521 0.98480890065 0.10153511493 -0.14086181043 
0.98432752817 0.17607668187 -0.0098142447196 0.96312289655 0.23812771808 0.12525763855 0.93818799949 0.27154020374 0.21463735781 
0.9322912183 0.27709110149 0.23249431337 0.94619337182 0.26458725861 0.18631072353 0.96268236236 0.24627156176 0.11221847916 
0.96955653981 0.23576377915 0.066147989843 0.96434486681 0.24336264414 0.10398846715 0.89220695993 0.27934194394 0.35487296178 
0.28955223589 0.24894762244 0.92422106878 -0.38373714048 0.082233289818 0.91977360968 -0.55784473808 0.018038252612 0.8297492812 
-0.59207472045 0.0027203245949 0.80587848044 -0.57601617397 0.010992367405 0.81736438336 -0.52986480272 0.037813833713 0.84723869413 
-0.46283133956 0.081161010453 0.88272308314 -0.38292242644 0.1380321795 0.91340983833 -0.30440875898 0.19927478466 0.93146383057 
-0.24273201442 0.25240321718 0.93668232883 -0.20970409417 0.28443331623 0.93547949283 -0.20913699404 0.28507039928 0.93541252139 
-0.2357180431 0.24927819528 0.9393068644 -0.27838098567 0.17770122142 0.94388892499 -0.32306419521 0.07963248342 0.94302078098 
-0.358050659 -0.028516492918 0.93326659386 -0.37838349149 -0.13042032977 0.91641501021 -0.38522685818 -0.21282994819 0.8979441413 
-0.38370870662 -0.27124331904 0.88272005208 -0.37923526377 -0.30654043397 0.87304843912 -0.37618113597 -0.32059254297 0.86931477287 
-0.37754462596 -0.3159738299 0.87041403609 -0.38618058254 -0.29174904687 0.87506974083 -0.40351045725 -0.24815321353 0.88068115315 
-0.43716499446 -0.16596506312 0.88393572472 -0.4970127765 -0.0065932071647 0.86771817407 -0.58339047299 0.33865096734 0.73822156453 
-0.5198232749 0.82795170678 0.21042750321 -0.2361679849 0.90056266353 -0.36498160497 -0.010137883884 0.75483975474 -0.65583089892 
0.15746298262 0.56561959261 -0.80949359822 0.31995109096 0.3000215895 -0.89867588441 0.43574305218 0.022426767578 -0.89979166065 
0.49087393587 -0.18538788419 -0.85127792846 0.50768827622 -0.30161332248 -0.80702045692 0.51014697905 -0.35451146661 -0.78362725821 
0.50916536344 -0.3769473918 -0.77373205729 0.50859849089 -0.38105816884 -0.77208953303 0.51020159531 -0.37444301021 -0.77426530611 
0.51452243161 -0.36251965763 -0.77707539223 0.52068831291 -0.3502951515 -0.77857368799 0.52968209137 -0.33703056246 -0.77836192228 
0.53992529212 -0.32567822974 -0.77615357347 0.54940239332 -0.31790258977 -0.77271919456 0.558629898 -0.31253096356 -0.76828187137 
0.5657877535 -0.30982308966 -0.76412948582 0.57206951538 -0.30854580415 -0.75995786482 0.57454594677 -0.30840675121 -0.75814393809 
0.56838393742 -0.30801448251 -0.76293301033 0.54371890913 -0.30415190573 -0.78221567748 0.45774682795 -0.28443709231 -0.84235585237 
0.14719696452 -0.19089803087 -0.97051068796 -0.71943981043 0.17243253618 -0.67281006208 -0.71943981043 0.17243253618 -0.67281006208 

plain_curvature_peaks 1 120 unsigned_char
0 0 0 0 0 0 0 0 0 
0 0 0 0 0 0 0 0 0 
0 0 1 0 0 0 0 0 0 
0 0 0 0 0 0 0 0 0 
0 0 0 0 0 0 0 0 0 
0 0 0 0 0 0 0 0 0 
0 0 0 0 0 0 0 0 0 
1 0 0 0 0 0 0 0 0 
0 0 0 0 0 0 0 0 0 
1 0 0 0 0 0 0 0 0 
0 0 0 0 0 0 0 0 0 
0 0 0 0 0 0 0 0 0 
0 0 1 0 0 0 0 0 0 
0 0 0 
weighted_curvature_peaks 1 120 unsigned_char
0 0 0 0 0 0 0 0 0 
0 0 0 0 0 0 1 0 0 
0 0 0 0 0 0 0 0 0 
0 0 0 0 0 0 0 0 0 
0 1 0 0 0 0 0 0 0 
0 0 0 0 0 0 0 0 0 
0 0 0 0 0 0 0 0 0 
0 0 0 0 0 0 0 0 0 
0 0 0 0 0 0 0 0 0 
0 1 0 0 0 0 0 0 0 
0 0 0 0 0 0 0 0 0 
0 0 0 0 0 0 0 0 0 
0 0 0 0 0 0 1 0 0 
0 0 0 
plain_torsion_tp 1 120 unsigned_char
0 0 0 0 0 0 0 0 0 
0 0 0 0 0 0 0 0 0 
0 0 1 0 0 0 0 0 0 
0 0 0 0 0 0 0 0 0 
0 0 0 0 0 0 0 0 0 
0 0 0 0 0 0 0 0 0 
0 0 0 0 0 0 0 0 0 
1 0 0 0 0 0 0 0 0 
0 0 0 0 0 0 0 0 0 
1 0 0 0 0 0 0 0 0 
0 0 0 0 0 0 0 0 0 
0 0 0 0 0 0 0 0 0 
0 0 1 0 0 0 0 0 0 
0 0 0 
plain_torsion_tn 1 120 unsigned_char
0 0 0 0 0 0 2 0 0 
0 0 0 0 0 0 0 0 0 
0 0 0 0 0 0 0 0 0 
0 0 0 0 0 0 0 0 0 
0 0 0 0 0 0 0 0 0 
0 0 0 2 0 0 0 0 0 
0 0 0 0 0 0 0 0 0 
0 0 0 0 0 0 0 0 0 
0 0 0 0 0 2 0 0 0 
0 0 0 0 0 0 0 0 0 
0 0 2 0 0 0 0 0 0 
0 0 0 0 0 0 0 0 0 
0 0 0 0 0 0 0 0 0 
0 0 0 
plain_torsion_tz 1 120 unsigned_char
0 0 0 0 0 0 0 3 0 
0 0 0 0 0 0 0 0 0 
0 0 0 0 0 0 0 0 0 
0 0 0 0 0 0 0 0 0 
0 0 3 0 0 0 0 0 0 
0 0 0 0 0 0 0 0 3 
0 0 0 0 0 0 0 0 0 
0 0 0 0 0 0 0 0 0 
0 0 0 0 0 0 0 3 0 
0 0 0 0 0 3 0 0 0 
0 0 0 0 0 0 0 3 0 
0 0 0 0 0 0 0 0 0 
0 0 0 0 0 0 0 0 0 
0 0 0 
weighted_torsion_tp 1 120 unsigned_char
0 0 0 0 0 0 0 0 0 
0 0 0 0 0 0 1 0 0 
0 0 0 0 0 0 0 0 0 
0 0 0 0 0 0 0 0 0 
0 1 0 0 0 0 0 0 0 
0 0 0 0 0 0 0 0 0 
0 0 0 0 0 0 0 0 0 
0 0 0 0 0 0 0 0 0 
0 0 0 0 0 0 0 0 0 
0 1 0 0 0 0 0 0 0 
0 0 0 0 0 0 0 0 0 
0 0 0 0 0 0 0 0 0 
0 0 0 0 0 0 1 0 0 
0 0 0 
weighted_torsion_tn 1 120 unsigned_char
0 0 0 0 0 0 0 2 0 
0 0 0 0 0 0 0 0 0 
0 0 2 0 0 0 0 0 0 
0 0 0 0 0 0 0 0 0 
0 0 0 0 0 0 0 0 0 
0 0 0 0 0 0 0 0 2 
0 0 0 0 0 0 0 0 0 
0 0 0 0 0 0 0 0 0 
0 0 0 0 0 0 0 0 0 
0 0 0 0 0 0 0 0 0 
0 0 0 0 0 0 0 2 0 
0 0 0 0 0 0 0 0 0 
0 0 0 0 0 0 0 0 0 
0 0 0 
weighted_torsion_tz 1 120 unsigned_char
0 0 0 0 0 0 0 0 3 
0 0 0 0 0 0 0 3 0 
0 0 0 0 0 0 0 0 0 
0 3 0 0 0 0 0 0 0 
0 0 0 0 0 0 0 0 0 
0 0 0 0 0 0 0 0 0 
0 0 0 0 0 3 0 0 0 
0 0 0 0 0 0 0 0 0 
0 0 0 0 0 0 0 0 0 
0 0 0 0 0 0 0 0 3 
0 0 0 0 0 0 0 0 0 
0 0 0 3 0 0 0 0 0 
0 0 0 0 0 0 0 0 0 
0 0 0 
plain_torsion_tp_raw 1 120 unsigned_char
0 0 0 0 0 0 0 0 0 
0 0 0 0 0 0 0 0 0 
0 0 0 0 0 0 0 0 0 
0 0 0 1 0 0 0 0 0 
0 0 0 0 0 0 0 0 0 
0 0 0 0 0 1 0 0 0 
0 0 0 0 0 0 0 0 0 
0 0 0 0 0 0 0 0 0 
0 0 0 0 0 0 0 1 0 
0 1 0 0 0 0 0 0 0 
0 0 0 0 0 0 0 0 0 
0 0 0 1 0 0 0 0 0 
0 0 0 0 1 0 0 0 0 
0 0 0 
plain_torsion_tn_raw 1 120 unsigned_char
0 0 0 0 0 0 0 0 0 
0 0 0 0 2 0 0 0 0 
0 0 0 0 0 0 0 0 0 
0 0 0 0 0 0 0 0 0 
0 0 0 0 0 2 0 0 0 
0 0 0 0 0 0 0 0 0 
0 0 0 0 0 0 0 0 0 
0 0 0 0 0 0 0 0 0 
0 0 2 0 0 0 0 0 2 
0 0 0 0 0 0 0 0 0 
0 0 0 2 0 0 0 0 0 
0 0 0 0 0 0 0 0 2 
0 0 0 0 0 0 0 0 0 
0 0 0 
plain_torsion_tz_raw 1 120 unsigned_char
0 0 0 0 0 0 3 0 0 
0 0 0 0 0 0 0 0 0 
0 0 0 0 0 3 0 0 0 
0 0 0 0 0 3 0 0 0 
0 0 0 0 0 0 0 0 0 
0 3 0 0 0 0 0 0 0 
0 0 0 0 0 0 0 0 0 
0 0 0 0 0 0 0 0 0 
0 0 0 0 0 0 0 0 0 
0 0 0 0 0 0 0 0 0 
0 0 0 0 0 0 0 0 0 
0 0 0 0 0 0 0 0 0 
0 0 0 0 0 0 0 0 0 
0 0 0 
weighted_torsion_tp_raw 1 120 unsigned_char
0 0 0 0 0 0 0 0 0 
0 0 0 0 0 0 1 0 0 
0 0 0 0 0 1 0 0 0 
0 0 0 0 0 0 0 0 0 
0 0 0 0 0 0 0 0 0 
0 0 0 0 0 0 0 0 0 
0 0 0 1 0 0 0 0 0 
0 0 0 0 0 0 0 0 0 
0 0 0 0 0 0 0 0 0 
0 0 0 1 0 0 0 0 0 
0 0 0 0 0 0 0 0 0 
0 0 0 0 0 0 0 1 0 
0 0 0 0 0 0 0 1 0 
0 0 0 
weighted_torsion_tn_raw 1 120 unsigned_char
0 0 0 0 0 0 0 0 0 
0 0 0 0 0 2 0 2 0 
0 0 0 0 0 0 0 0 0 
0 0 0 0 0 0 0 0 0 
0 0 0 0 0 0 0 0 0 
0 0 0 2 0 0 0 0 0 
0 0 0 0 0 0 0 0 0 
0 2 0 0 0 0 0 0 0 
0 0 0 0 0 0 0 0 0 
0 0 0 0 0 0 0 0 0 
0 0 0 0 0 0 0 0 2 
0 0 0 0 0 0 0 0 0 
0 0 0 2 0 0 0 0 0 
0 0 0 
weighted_torsion_tz_raw 1 120 unsigned_char
0 0 0 0 0 0 0 3 0 
0 0 0 0 0 0 3 0 0 
0 3 0 0 0 0 0 0 0 
0 0 0 0 0 0 0 0 0 
0 0 0 0 0 0 0 0 0 
0 0 0 0 0 0 0 0 0 
0 0 0 0 0 0 0 0 0 
0 0 0 0 0 0 0 0 0 
0 0 0 0 0 0 0 0 0 
0 0 0 0 0 0 0 0 0 
0 0 0 0 0 0 0 0 0 
0 0 0 0 0 0 0 0 0 
0 0 0 0 0 0 0 0 0 
0 0 0 
