# vtk DataFile Version 5.1
vtk output
ASCII
DATASET POLYDATA
POINTS 120 float
-2.26137 17.7511 -5.10722 -2.31019 17.009 -4.73564 -2.49911 16.3766 -4.31932 
-2.79748 15.8297 -3.89565 -3.17449 15.3443 -3.50108 -3.59929 14.8966 -3.16953 
-4.04214 14.464 -2.92986 -4.4767 14.0265 -2.80303 -4.88313 13.5674 -2.79957 
-5.25084 13.076 -2.91804 -5.57896 12.5486 -3.14569 -5.8745 11.9893 -3.46144 
-6.14788 11.4101 -3.84095 -6.40719 10.8295 -4.26253 -6.65349 10.2703 -4.71151 
-6.87859 9.75587 -5.18223 -7.06639 9.30659 -5.67689 -7.19702 8.93585 -6.20225 
-7.25201 8.6475 -6.76579 -7.21887 8.43464 -7.37258 -7.09347 8.28061 -8.02367 
-6.88022 8.16139 -8.71561 -6.59064 8.04902 -9.44068 -6.24116 7.91524 -10.1871 
-5.85084 7.73492 -10.9389 -5.43976 7.48868 -11.6755 -5.02789 7.16497 -12.3713 
-4.63444 6.76112 -12.9958 -4.27728 6.28291 -13.5146 -3.97237 5.7447 -13.8933 
-3.7329 5.16728 -14.1018 -3.56873 4.57658 -14.12 -3.48607 4.00098 -13.9432 
-3.48766 3.46914 -13.5851 -3.57347 3.0084 -13.0773 -3.74121 2.64337 -12.4656 
-3.98643 2.39536 -11.8026 -4.30203 2.28133 -11.1395 -4.67735 2.31196 -10.5178 
-5.09778 2.48944 -9.96378 -5.54525 2.80498 -9.48539 -5.99976 3.23822 -9.07303 
-6.44132 3.75727 -8.70315 -6.85174 4.32205 -8.34433 -7.21547 4.88807 -7.96403 
-7.51968 5.41207 -7.53552 -7.75357 5.857 -7.04269 -7.90784 6.19541 -6.48234 
-7.97509 6.41204 -5.86352 -7.95139 6.50295 -5.2042 -7.83827 6.47357 -4.52645 
-7.64426 6.33544 -3.85157 -7.38497 6.10305 -3.19639 -7.08145 5.79082 -2.57144 
-6.75721 5.41118 -1.98138 -6.43482 4.97392 -1.42709 -6.13298 4.48562 -0.908772 
-5.86468 3.95048 -0.42868 -5.63619 3.37109 0.00723299 -5.44714 2.75013 0.389425 
-5.29143 2.09151 0.705972 -5.15868 1.40109 0.944601 -5.03629 0.68609 1.09505 
-4.91117 -0.0455686 1.15162 -4.77131 -0.786427 1.11538 -4.60655 -1.52946 0.995758 
-4.40868 -2.26878 0.810321 -4.17093 -2.99815 0.583244 -3.88735 -3.7104 0.342287 
-3.55246 -4.39674 0.115435 -3.16135 -5.04668 -0.0719702 -2.71045 -5.64884 -0.199415 
-2.19875 -6.19191 -0.252299 -1.62884 -6.66658 -0.222288 -1.00763 -7.06666 -0.106992 
-0.345934 -7.3889 0.0909079 0.342532 -7.63362 0.364677 1.04273 -7.80287 0.704645 
1.73993 -7.90043 1.09925 2.421 -7.9304 1.53604 3.0756 -7.89631 2.00266 
3.69704 -7.80118 2.48737 4.28297 -7.64755 2.97962 4.83596 -7.43808 3.47011 
5.3635 -7.17632 3.95104 5.8774 -6.86861 4.41631 6.39215 -6.52421 4.86201 
6.92237 -6.15551 5.28692 7.47988 -5.77799 5.69315 8.07092 -5.40933 6.08596 
8.69422 -5.06887 6.47365 9.34032 -4.77668 6.86617 9.99159 -4.5526 7.27396 
10.624 -4.41461 7.70633 11.2096 -4.37693 8.16989 11.7202 -4.44893 8.66654 
12.1318 -4.63408 9.19281 12.4284 -4.92995 9.73957 12.6046 -5.32876 10.2925 
12.6657 -5.81839 10.8349 12.6257 -6.3838 11.3498 12.5045 -7.00873 11.8231 
12.3238 -7.67736 12.2458 12.1048 -8.37537 12.6147 11.8658 -9.09138 12.9331 
11.6217 -9.81697 13.2089 11.3845 -10.5464 13.4537 11.1627 -11.2769 13.6801 
10.9627 -12.0072 13.8998 10.7889 -12.7374 14.1229 10.6442 -13.468 14.3563 
10.5306 -14.1994 14.6042 10.4489 -14.932 14.8679 10.3992 -15.6657 15.1468 
10.3806 -16.4001 15.4388 10.3911 -17.1346 15.7406 10.4277 -17.8685 16.0484 
10.487 -18.6011 16.3583 10.5651 -19.3317 16.666 10.6583 -20.0594 16.9675 

LINES 2 120
OFFSETS vtktypeint64
0 120 
CONNECTIVITY vtktypeint64
0 1 2 3 4 5 6 7 8 
9 10 11 12 13 14 15 16 17 
18 19 20 21 22 23 24 25 26 
27 28 29 30 31 32 33 34 35 
36 37 38 39 40 41 42 43 44 
45 46 47 48 49 50 51 52 53 
54 55 56 57 58 59 60 61 62 
63 64 65 66 67 68 69 70 71 
72 73 74 75 76 77 78 79 80 
81 82 83 84 85 86 87 88 89 
90 91 92 93 94 95 96 97 98 
99 100 101 102 103 104 105 106 107 
108 109 110 111 112 113 114 115 116 
117 118 119 
CELL_DATA 1
FIELD FieldData 2
Length 1 1 double
89.573278082 
Tortuosity 1 1 double
0.9622112598 
POINT_DATA 120
FIELD FieldData 19
Curvature 1 120 double
0 0.27483033053 0.2339088353 0.18504611951 0.16155214486 0.18872651875 0.26007819458 0.33317093639 0.34676225205 
0.28270803538 0.18918490335 0.11334087114 0.071104161613 0.063675310465 0.085951813401 0.13530002705 0.20852427617 0.28129839649 
0.30479477974 0.25767798191 0.17712076822 0.10863161534 0.073983112815 0.074472973668 0.091608281282 0.11422058259 0.1435224695 
0.18779412128 0.25879545674 0.37033450929 0.50684647022 0.58571697178 0.53189192957 0.41133988131 0.31647540142 0.27344872823 
0.27445032755 0.3017673785 0.32562915702 0.30932195078 0.24541355699 0.16119500015 0.09145382492 0.082418837474 0.14295735586 
0.22695054733 0.31135706304 0.36652826613 0.37043327082 0.33024095363 0.27189055659 0.21469257642 0.16716954743 0.13259065914 
0.1131901891 0.10961763612 0.11626871642 0.12678587463 0.13698442322 0.14698054412 0.15756450964 0.16810812175 0.1735619387 
0.16765033529 0.1477357938 0.11852999344 0.090825761695 0.078982064624 0.091935677846 0.12269527848 0.16075456349 0.1971552048 
0.22135258839 0.22540155579 0.21124709262 0.18633162392 0.16112555619 0.13976877392 0.12466685586 0.11580303272 0.1113495484 
0.10921374141 0.10636954808 0.10012985679 0.08746333064 0.071497892525 0.057786128487 0.051903237716 0.055224334449 0.065110712239 
0.081813444311 0.10694474093 0.14299473202 0.19144283164 0.25070985069 0.30885672719 0.34144856529 0.32954231076 0.28201707744 
0.22414474392 0.17443212676 0.13655071933 0.10825191248 0.085493696374 0.065225565455 0.047175898315 0.034946207161 0.034045085418 
0.041813076571 0.050471755084 0.05629164442 0.058236055431 0.057227380902 0.054036001783 0.048438338082 0.042254555902 0.03586001817 
0.030073674942 0.02557178162 0 
Torsion 1 120 double
0 0 0.26898679052 0.50929277116 0.77429534131 0.66483058169 0.39064409414 0.21938151218 0.13104197103 
0.074250445076 0.0047376525735 -0.13218081927 -0.34228926678 -0.23999270384 0.065403478492 0.16417947999 0.15953701934 0.14515648809 
0.15186891246 0.19695053065 0.31467269713 0.57124580417 0.8235678954 0.5516496091 0.24664517579 0.097056577551 0.020690112316 
-0.022532740706 -0.042168558532 -0.041799809011 -0.027972463173 -0.0082111603937 0.018576020395 0.057881733033 0.098358925607 0.10793742755 
0.073543774495 0.019879514446 -0.029408819119 -0.078455684663 -0.15570095414 -0.34993826981 -1.0066142008 -1.2042556185 -0.39947484648 
-0.1424510307 -0.041734369909 0.008432481321 0.03217759189 0.032525902456 0.0040893868199 -0.056765845646 -0.1510203906 -0.26288763155 
-0.32663667298 -0.25934053204 -0.1089187709 0.03484153979 0.14133644595 0.20700366255 0.22886679256 0.21556819829 0.19122739145 
0.18053908106 0.20612618649 0.30145493395 0.50728020815 0.65849711515 0.45705991882 0.22318862664 0.1001668024 0.045169623053 
0.023879035004 0.01693386424 0.017411389289 0.018725650093 0.014958162313 0.0055168709895 -0.015754249338 -0.045742619778 -0.080946241554 
-0.12145296903 -0.1708434857 -0.23382835016 -0.3356586673 -0.49724167112 -0.69575965653 -0.77956768453 -0.67947296913 -0.54519662699 
-0.42085275765 -0.31411145587 -0.22799966116 -0.15765784661 -0.10089764735 -0.05406678373 -0.011713796258 0.027253623339 0.066932769585 
0.10774104614 0.1411335194 0.16661975569 0.18569950168 0.21152288453 0.28148313365 0.46210385664 0.75311737194 0.69515461035 
0.36249329937 0.16592363343 0.060530475471 0.0040549511805 -0.031917637502 -0.06353233224 -0.08911923928 -0.11931633687 -0.17157624068 
-0.24809249371 0 0 
FrenetTangent 3 120 double
-0.14840145228 -0.85795732298 0.49181931733 -0.14840145228 -0.85795732298 0.49181931733 -0.31898414057 -0.77194570297 0.54986266442 
-0.45623487595 -0.69737071031 0.55274210113 -0.56125063424 -0.65319426753 0.50826663714 -0.63723854952 -0.64647002331 0.41952775828 
-0.68074546356 -0.67507916381 0.28434791442 -0.68029280993 -0.72532340699 0.10539282721 -0.62877241051 -0.77195871313 -0.093407713813 
-0.54303976534 -0.79507581925 -0.27011526225 -0.45664568445 -0.79571742293 -0.39788000919 -0.3922761155 -0.78504541234 -0.47939873776 
-0.35351274422 -0.76967469447 -0.53162919819 -0.33247948787 -0.74949879841 -0.57245868089 -0.31632695102 -0.72044970435 -0.61716244503 
-0.28971833437 -0.67618721924 -0.67737296319 -0.23640689953 -0.60879627482 -0.75728387915 -0.14430323172 -0.51239243003 -0.84654035637 
-0.017165911656 -0.3936284835 -0.91910932345 0.12012008798 -0.27798245935 -0.9530461252 0.23988180164 -0.19354856405 -0.95131260614 
0.33051878582 -0.15222949959 -0.93144163085 0.39374361347 -0.15166284215 -0.9066224954 0.43513664708 -0.18474391431 -0.88120700434 
0.45966409148 -0.24466665575 -0.85372545386 0.47090604333 -0.32614001337 -0.81968298142 0.4712053831 -0.42570312568 -0.77249099394 
0.46122680012 -0.54199865462 -0.70250074537 0.43874466687 -0.67356827077 -0.59481837725 0.39642281148 -0.81241040632 -0.42759593806 
0.32123961374 -0.92966224455 -0.18036968044 0.2052468022 -0.96978398375 0.13188167061 0.065780539903 -0.89851730892 0.43398106657 
-0.066215101987 -0.75190858692 0.65593371402 -0.17931297928 -0.58398818085 0.79170995957 -0.28026363064 -0.41605310502 0.86507347153 
-0.37775960077 -0.24386136455 0.89321291913 -0.47284815987 -0.057074824439 0.87929351307 -0.55457075117 0.14503297918 0.81940021778 
-0.60436177055 0.34331377581 0.71894540936 -0.61263682013 0.50857838954 0.60499929613 -0.58808551092 0.6249839686 0.5133716693 
-0.54636522813 0.69505388583 0.46731695163 -0.49719684161 0.7262563245 0.47470733281 -0.44154122992 0.7205475193 0.53465186309 
-0.37335578148 0.67227590266 0.63925782837 -0.28358353992 0.57230176039 0.7694485499 -0.1675698857 0.41986435106 0.8919833295 
-0.033108972641 0.23381141031 0.97171807657 0.10168758138 0.045729039241 0.99376480656 0.21982557427 -0.11989434056 0.96814361744 
0.31192988578 -0.25496148038 0.91525646126 0.37503285486 -0.36291348603 0.85302060903 0.40959129747 -0.4514237383 0.79274937877 
0.41783551776 -0.52785541366 0.739447187 0.4032105683 -0.59784238598 0.69282445045 0.37040198385 -0.66488993424 0.64863221144 
0.32559241262 -0.73046046298 0.60034747678 0.27624759849 -0.79417453981 0.54127078681 0.23012635664 -0.85411323839 0.46640372639 
0.19397891452 -0.9071875884 0.37334014005 0.17234127358 -0.94932920342 0.26281656903 0.16699134698 -0.97601583872 0.13966736415 
0.17709046686 -0.98410079096 0.01358674995 0.20003154686 -0.97442910455 -0.10234891536 0.23301084448 -0.95251290785 -0.1960232301 
0.2745810104 -0.92574191027 -0.2600138156 0.32525716937 -0.89941228245 -0.2920022602 0.38674308314 -0.87456062546 -0.29252948575 
0.46060923953 -0.84779875155 -0.26282390556 0.54626590042 -0.81232348057 -0.20426485001 0.63880538776 -0.76000430408 -0.11967094194 
0.72819395902 -0.6851980889 -0.015399253701 0.80212941861 -0.5890780814 0.097854022972 0.85230508747 -0.47987694851 0.20807246855 
0.87760737626 -0.36852447703 0.30658604496 0.88243916373 -0.26305618045 0.39000329261 0.87277776176 -0.16664149736 0.45879144493 
0.85359970856 -0.078981425936 0.51490724592 0.8283182451 0.0025507997299 0.56025206671 0.79908495968 0.080915206855 0.59574823249 
0.76759708595 0.15815578239 0.62111308322 0.7359751997 0.23463675685 0.63504810665 0.70738507737 0.30849690175 0.63595283939 
0.68607934874 0.37515844343 0.623338808 0.67632588954 0.42875914251 0.59895649996 0.68044319816 0.46434127359 0.56690760774 
0.69766442306 0.47862041416 0.53309178567 0.72432137384 0.47057194649 0.5039053389 0.75504397637 0.44091160543 0.48528914056 
0.78418605914 0.39082460627 0.48198376714 0.80611681081 0.32077967535 0.49726862681 0.81435346941 0.22969089052 0.53298266545 
0.80015200456 0.11540528004 0.58859017231 0.75200032683 -0.023546094518 0.65874205109 0.65822707032 -0.18353817025 0.73010332417 
0.5159479831 -0.35040674036 0.78167307428 0.34166020514 -0.50191960446 0.79457222131 0.16587540238 -0.62120673934 0.76589002989 
0.01411874333 -0.7062774464 0.70779434145 -0.10359079451 -0.76527579885 0.63531244202 -0.18842372188 -0.80734036535 0.55919409467 
-0.24536851895 -0.83886215602 0.4859059303 -0.27972426914 -0.86349217515 0.41968511615 -0.29593582372 -0.88313016336 0.36400975645 
-0.29735491371 -0.89894375587 0.32168335218 -0.28665720986 -0.91173815651 0.29421281073 -0.26617918036 -0.92189725047 0.28152105341 
-0.23791452716 -0.929496121 0.28183973959 -0.2037519604 -0.93445685034 0.29201974845 -0.16549597 -0.93675238257 0.3083927004 
-0.12493301784 -0.93663584332 0.32726906067 -0.083747609109 -0.93456246202 0.34580246174 -0.043314360661 -0.93113263464 0.36209927212 
-0.0051132355356 -0.92710454054 0.37476796251 0.029584411173 -0.92317416698 0.38324172533 0.06014713954 -0.91991586779 0.38747531249 
0.086229479308 -0.91785327003 0.38744012645 0.107803162 -0.91734281269 0.38322401055 0.107803162 -0.91734281269 0.38322401055 

FrenetNormal 3 120 double
-0.83859039774 0.37277241929 0.39724912617 -0.83859039774 0.37277241929 0.39724912617 -0.86548461788 0.47369653357 0.16293547896 
-0.87961322751 0.44741832026 -0.16154694884 -0.78352464103 0.22150429475 -0.58053852957 -0.47521311015 -0.098944547833 -0.87428969821 
-0.13958166951 -0.26152098531 -0.95505169063 0.13253505528 -0.26316062273 -0.95560501556 0.35195196727 -0.17541804364 -0.91943369674 
0.51315128308 -0.059593845498 -0.85622680071 0.60582863238 0.049379444674 -0.794061294 0.61909445874 0.16013550865 -0.76881640853 
0.50973514792 0.31803247038 -0.79939065966 0.31185948466 0.48547298092 -0.81673719557 0.27468630752 0.55313874441 -0.78650172402 
0.38030522082 0.56812806677 -0.72979342198 0.50970713028 0.58583049598 -0.63008036894 0.62441149838 0.61651594826 -0.47960230007 
0.71448055868 0.63822645417 -0.28667843391 0.78335764204 0.61626839228 -0.081018968951 0.85188998065 0.51189538668 0.11066423975 
0.92611844961 0.24244639237 0.28900582021 0.85710985536 -0.29582035499 0.42172623042 0.50742205656 -0.75817039893 0.40951251838 
0.21413693234 -0.90240464598 0.3739133979 0.051222102223 -0.91747676612 0.39447773052 -0.042023817218 -0.88565773005 0.46243311298 
-0.10437929724 -0.8193906924 0.56365224697 -0.15876072294 -0.70962002184 0.68646519027 -0.223491475 -0.53714233957 0.81334474096 
-0.30262853295 -0.28125556632 0.91066529387 -0.37937757289 0.045380785995 0.92412836849 -0.42842706254 0.3673619658 0.82552736972 
-0.45207498204 0.6086417262 0.65206093254 -0.47162747107 0.7572777821 0.45177194387 -0.48942113769 0.83719209807 0.24408265181 
-0.48016294244 0.87643169278 0.036208239276 -0.41912157018 0.8923524642 -0.16746399331 -0.2992471733 0.88406105175 -0.35900861558 
-0.13419335827 0.84563517332 -0.51661716603 0.058645332695 0.79260945571 -0.60690277283 0.29070176101 0.75565080879 -0.58692788427 
0.65458860642 0.70244112635 -0.27944627454 0.81400003819 0.2010632122 0.54495644094 0.56171377217 -0.24267389254 0.79094059197 
0.47576451669 -0.45280818673 0.75406423512 0.4847858441 -0.60674452464 0.6299553692 0.52926895842 -0.72502073568 0.44070319092 
0.56911623351 -0.79481968996 0.21063801466 0.58350625927 -0.81180098616 -0.022351829052 0.56346680502 -0.79453002659 -0.22633425831 
0.50349892666 -0.77257062246 -0.38681192351 0.39125343297 -0.77224223518 -0.50056236514 0.20681382031 -0.8004131698 -0.56264269419 
-0.046855118182 -0.82533755786 -0.56269220137 -0.29639342376 -0.80160367512 -0.51921333417 -0.45432157148 -0.73875394451 -0.49782980942 
-0.50803140729 -0.67065776865 -0.54048334531 -0.47947731312 -0.60197642511 -0.63853417278 -0.38717073311 -0.52005932298 -0.76133903355 
-0.25318144314 -0.41397177352 -0.87437207617 -0.10936079977 -0.28359938856 -0.95268651837 0.022319124435 -0.13787809273 -0.99019770159 
0.13741763675 0.011054087647 -0.99045151333 0.25418362358 0.15249332152 -0.95505836073 0.40599707553 0.27844719697 -0.87042146869 
0.63754133354 0.37769793365 -0.6714799468 0.88058158965 0.40062754651 -0.25312770086 0.91863077051 0.33752181801 0.20541793943 
0.83044372394 0.3070801394 0.46482793522 0.73155786934 0.34392656029 0.58867444733 0.62889886223 0.42621872565 0.65024904382 
0.511106998 0.52793511464 0.67827291802 0.37703597548 0.62668599287 0.68198866526 0.2362031019 0.70806398741 0.66547237687 
0.098078258756 0.76405033671 0.63765801032 -0.026730454722 0.79966384115 0.59985266854 -0.13583585633 0.81987274008 0.55619898437 
-0.22600589026 0.83441974873 0.50265795577 -0.29602135642 0.85100034986 0.43378538597 -0.34588374116 0.87236869526 0.34545230804 
-0.37420530944 0.8973466741 0.23396438375 -0.37566118152 0.9219017095 0.094741304176 -0.33940521069 0.93746446058 -0.077230098409 
-0.24521703221 0.92590166884 -0.28735815065 -0.054354895334 0.83996676813 -0.53990867171 0.25391553783 0.57629333086 -0.77679656054 
0.57091264296 0.078106896587 -0.81728701618 0.68740471462 -0.43646296257 -0.58049534074 0.5969048498 -0.76849274577 -0.2304853574 
0.4057549654 -0.91062733006 0.078235374333 0.19212971063 -0.93667922813 0.2927767031 -0.010351140964 -0.91245669273 0.40904234227 
-0.20106209891 -0.87292901689 0.44448730448 -0.38237105113 -0.8296178872 0.40684953054 -0.55437807912 -0.77430447309 0.30515164811 
-0.70027089163 -0.69809523225 0.14927734268 -0.79661500765 -0.60325776531 -0.038530483703 -0.83289195087 -0.50407751966 -0.22846630462 
-0.81120007686 -0.42194851789 -0.40486279597 -0.74372015782 -0.36452340426 -0.56035971892 -0.63966683641 -0.33116130163 -0.69365591665 
-0.50695432559 -0.31620040056 -0.80188192301 -0.34878623468 -0.31587168758 -0.88236797283 -0.15375917771 -0.33206756738 -0.93063915991 
0.13875008287 -0.3740327904 -0.91697758217 0.5757136264 -0.40940308219 -0.70777322404 0.92228986699 -0.32848546026 -0.20366321131 
0.96376188522 -0.18986616646 0.1873869457 0.92885525437 -0.090254870652 0.35927980009 0.90653247776 -0.021361650617 0.4215952403 
0.90634024802 0.026460515919 0.42171933312 0.91511557132 0.065217542959 0.39788209713 0.9336875573 0.091225815196 0.34627358547 
0.95492201637 0.10671188104 0.27701356844 0.97573212038 0.1098930337 0.18939469479 0.99251836318 0.096435488507 0.074883211067 
0.99431413799 0.054896545013 -0.091245626407 0.95155228911 -0.016446811532 -0.30704680993 0.95155228911 -0.016446811532 -0.30704680993 

FrenetBinormal 3 120 double
-0.52415947362 -0.3534826097 -0.77479474111 -0.52415947362 -0.3534826097 -0.77479474111 -0.38624538092 -0.42392384428 -0.81920881341 
-0.13464883197 -0.55990261572 -0.81754434311 0.26662119659 -0.72406705233 -0.6361132299 0.60671206593 -0.75649618995 -0.24415975025 
0.71909844346 -0.68983686248 0.083800547639 0.72085792767 -0.63612297704 0.27515705734 0.69337945493 -0.61098957044 0.38199041388 
0.66466801784 -0.60357519434 0.44035600467 0.65149550041 -0.60365176492 0.45951948779 0.68032455517 -0.59838141634 0.42319992935 
0.78434610896 -0.55358487378 0.27990171288 0.89005676896 -0.45007503372 0.072328500952 0.90801139449 -0.4183177655 0.02292497653 
0.87831157669 -0.469043009 0.092560412516 0.82723057197 -0.53494833932 0.17181343096 0.76765021853 -0.5977976942 0.23097848125 
0.69944468169 -0.66160683958 0.27028415988 0.60985405559 -0.73684395971 0.29178589739 0.46555362968 -0.83696001484 0.28767647009 
0.18182945171 -0.95814713185 0.22111563538 -0.33215758714 -0.94312708575 0.01351434119 -0.74376001162 -0.62533777458 -0.23616458837 
-0.86188995655 -0.35468871209 -0.36241084464 -0.88069506334 -0.22774783273 -0.41533977668 -0.8810218418 -0.18543795183 -0.43521636033 
-0.88112133169 -0.18664498814 -0.43449838577 -0.88447620101 -0.20674914563 -0.4182781857 -0.89044961404 -0.22686436201 -0.39450227643 
-0.89734111775 -0.23795675547 -0.37169275069 -0.90218978457 -0.23970734056 -0.35860003278 -0.90117876842 -0.24023286963 -0.36078386286 
-0.88951884234 -0.25335494083 -0.3802203349 -0.86337383791 -0.29238359284 -0.41121460412 -0.82578401978 -0.35497775245 -0.43825968095 
-0.79166990137 -0.41520973346 -0.44817367672 -0.77508175512 -0.44771591892 -0.44586851069 -0.7764679074 -0.44429887659 -0.44687369249 
-0.78532731577 -0.40870136406 -0.46499914207 -0.78818579763 -0.33633059987 -0.5154074854 -0.75475023551 -0.19592573637 -0.62607123223 
-0.52249286487 0.15322062458 -0.83876376076 0.30033188061 0.65736240829 -0.69114066995 0.69965633023 0.64955419659 -0.29759093611 
0.79640039245 0.58567043355 -0.1507864655 0.8273832614 0.55166273834 -0.10538103187 0.83174196904 0.54594767106 -0.10072952595 
0.82159023162 0.55999454003 -0.10675020582 0.80571712231 0.58214088831 -0.10923325947 0.79635537076 0.59527084924 -0.10710153836 
0.80572239463 0.58148884498 -0.11261503432 0.84039937468 0.52147457451 -0.14762506283 0.88851731146 0.3944050787 -0.23448160083 
0.90731366021 0.20046590197 -0.36958807361 0.86577836423 0.0040036926093 -0.50041162505 0.81018163398 -0.11029045659 -0.57570976641 
0.79742941384 -0.12901809711 -0.58945793791 0.83293983608 -0.083133530743 -0.54708321628 0.89282735364 -0.0053736947147 -0.4503670059 
0.94777177505 0.075086950781 -0.30998485809 0.97894775187 0.13544537771 -0.15269528074 0.98570571 0.16847170125 -0.0012406294687 
0.97455392855 0.17726657996 0.13719037856 0.94624418929 0.16502638306 0.27818739571 0.88366980316 0.12323278332 0.4515986715 
0.71982380953 0.018606087519 0.69390741223 0.34465031226 -0.174800215 0.92231287918 -0.080915357739 -0.34817055412 0.93393252975 
-0.31337254161 -0.43236450463 0.84549310187 -0.40794196873 -0.47100433548 0.78213698679 -0.44318607566 -0.49064351181 0.75023666044 
-0.45662150041 -0.5017849078 0.73464869949 -0.46306832001 -0.51014868456 0.72478690016 -0.46667347528 -0.51803812989 0.71683496249 
-0.46923975566 -0.52954394794 0.70668045035 -0.46966648285 -0.53975845254 0.69862307992 -0.46883643066 -0.54775843346 0.69293080452 
-0.46934941686 -0.54544075506 0.69441018685 -0.47566820513 -0.52515892638 0.70565420758 -0.49175976332 -0.48210537108 0.72508395814 
-0.52035093931 -0.41201419268 0.74798342562 -0.56322214279 -0.30829017233 0.76664071606 -0.62000843162 -0.1612142883 0.76785382591 
-0.68495527909 0.044297200295 0.72723725406 -0.73459433464 0.3325979948 0.59139642996 -0.68740377779 0.67251258609 0.2742314129 
-0.43280839515 0.87454091491 -0.21875804268 -0.053228805347 0.7668520884 -0.63961282726 0.27131751516 0.4636980223 -0.8434280942 
0.46948390038 0.13421621687 -0.8726802819 0.55969800931 -0.14047214481 -0.81670417833 0.58027690006 -0.33862202927 -0.74068471062 
0.56509362232 -0.47400058312 -0.67527227488 0.53692447113 -0.55783487043 -0.63287626723 0.50931529458 -0.60561235375 -0.61141770312 
0.49337445928 -0.62440224456 -0.6055604676 0.49867106774 -0.6198038232 -0.6059458614 0.52799275474 -0.60000670094 -0.60101215443 
0.58459823502 -0.56844667029 -0.57888970162 0.66041598568 -0.53054277814 -0.53138976883 0.74519986543 -0.48839914699 -0.45403021241 
0.82631204861 -0.44308869302 -0.34767917459 0.89448448603 -0.39320012772 -0.2128172075 0.94275134766 -0.33137930721 -0.037518678646 
0.94463139361 -0.22803419805 0.23594900874 0.76575548605 -0.033505973421 0.64225842566 0.28023212733 0.20543310825 0.93769248309 
-0.12066360825 0.31620847534 0.9409848531 -0.30937526576 0.34444804133 0.88636476225 -0.38834256872 0.34934031206 0.85273172551 
-0.40365715141 0.34930379058 0.84560497042 -0.39439805919 0.34977089168 0.84977084807 -0.35545943722 0.35308620386 0.86543556729 
-0.29681273133 0.35929061405 0.88476689426 -0.21695988542 0.36833813074 0.90402180812 -0.10625262514 0.38007235199 0.91883371015 
0.062480972232 0.39310525821 0.91736818349 0.28796999733 0.39775830147 0.87112663503 0.28796999733 0.39775830147 0.87112663503 

plain_curvature_peaks 1 120 unsigned_char
0 0 0 0 0 0 0 0 0 
0 0 0 0 0 0 0 0 0 
0 0 0 0 0 0 0 0 0 
0 0 0 0 0 0 0 1 0 
0 0 0 0 0 0 0 0 0 
0 0 0 0 0 0 0 0 0 
0 0 0 0 0 0 0 0 0 
0 1 0 0 0 0 0 0 0 
0 0 0 0 0 0 0 0 0 
0 0 0 0 0 1 0 0 0 
0 0 0 0 0 0 0 0 0 
0 0 0 0 0 0 0 0 0 
0 0 0 0 0 0 0 1 0 
0 0 0 
weighted_curvature_peaks 1 120 unsigned_char
0 0 0 0 0 0 0 0 0 
0 0 0 0 0 0 0 0 0 
0 0 0 0 0 0 0 0 0 
0 0 0 0 0 0 0 0 0 
0 1 0 0 0 0 0 0 0 
0 0 0 0 0 0 0 0 0 
0 0 0 0 0 0 0 0 0 
0 0 0 0 0 1 0 0 0 
0 0 0 0 0 0 0 0 0 
0 0 0 0 0 0 0 0 0 
0 1 0 0 0 0 0 0 0 
0 0 0 0 0 0 0 0 0 
0 0 0 0 0 0 0 0 0 
1 0 0 
plain_torsion_tp 1 120 unsigned_char
0 0 0 0 0 0 0 0 0 
0 0 0 0 0 0 0 0 0 
0 0 0 0 0 0 0 0 0 
0 0 0 0 0 0 0 1 0 
0 0 0 0 0 0 0 0 0 
0 0 0 0 0 0 0 0 0 
0 0 0 0 0 0 0 0 0 
0 1 0 0 0 0 0 0 0 
0 0 0 0 0 0 0 0 0 
0 0 0 0 0 1 0 0 0 
0 0 0 0 0 0 0 0 0 
0 0 0 0 0 0 0 0 0 
0 0 0 0 0 0 0 1 0 
0 0 0 
plain_torsion_tn 1 120 unsigned_char
0 0 0 0 0 0 0 0 0 
0 0 2 0 0 0 0 0 0 
0 0 0 0 0 0 0 0 0 
0 0 0 0 0 0 0 0 0 
0 0 0 0 0 0 0 0 0 
0 0 0 0 0 0 0 0 0 
2 0 0 0 0 0 0 0 0 
0 0 0 0 0 0 0 0 0 
0 0 2 0 0 0 0 0 0 
0 0 0 0 0 0 0 0 0 
0 0 0 0 0 0 0 0 0 
0 2 0 0 0 0 0 0 0 
0 0 0 0 0 0 0 0 0 
0 0 0 
plain_torsion_tz 1 120 unsigned_char
0 0 0 0 0 0 0 0 0 
0 0 0 0 3 0 0 0 0 
0 0 0 0 0 0 0 0 0 
0 0 0 0 0 0 0 0 0 
0 0 0 0 0 0 0 0 0 
0 0 0 3 0 0 0 0 0 
0 0 0 3 0 0 0 0 0 
0 0 0 0 0 0 0 0 0 
0 0 0 0 0 3 0 0 0 
0 0 0 0 0 0 0 0 0 
0 0 0 0 3 0 0 0 0 
0 0 0 0 0 3 0 0 0 
0 0 0 0 0 0 0 0 0 
0 0 0 
weighted_torsion_tp 1 120 unsigned_char
0 0 0 0 0 0 0 0 0 
0 0 0 0 0 0 0 0 0 
0 0 0 0 0 0 0 0 0 
0 0 0 0 0 0 0 0 0 
0 1 0 0 0 0 0 0 0 
0 0 0 0 0 0 0 0 0 
0 0 0 0 0 0 0 0 0 
0 0 0 0 0 1 0 0 0 
0 0 0 0 0 0 0 0 0 
0 0 0 0 0 0 0 0 0 
0 1 0 0 0 0 0 0 0 
0 0 0 0 0 0 0 0 0 
0 0 0 0 0 0 0 0 0 
1 0 0 
weighted_torsion_tn 1 120 unsigned_char
0 0 0 0 0 0 0 0 0 
0 0 0 0 0 2 0 0 0 
0 0 0 0 0 0 0 0 0 
0 0 0 0 0 0 0 0 0 
0 0 0 0 0 0 0 0 0 
0 0 0 0 0 0 0 0 0 
0 0 0 0 2 0 0 0 0 
0 0 0 0 0 0 0 0 0 
0 0 0 0 0 0 0 2 0 
0 0 0 0 0 0 0 0 0 
0 0 0 0 0 0 0 0 0 
0 0 0 0 0 2 0 0 0 
0 0 0 0 0 0 0 0 0 
0 0 0 
weighted_torsion_tz 1 120 unsigned_char
0 0 0 0 0 0 0 0 0 
0 0 0 0 0 0 0 3 0 
0 0 0 0 0 0 0 0 0 
0 0 0 0 0 0 0 0 0 
0 0 0 0 0 0 0 0 0 
0 0 0 0 0 0 3 0 0 
0 0 0 0 0 0 0 0 0 
3 0 0 0 0 0 0 0 0 
0 0 0 0 0 0 0 0 0 
0 3 0 0 0 0 0 0 0 
0 0 0 0 0 0 0 0 3 
0 0 0 0 0 0 0 0 0 
0 3 0 0 0 0 0 0 0 
0 0 0 
plain_torsion_tp_raw 1 120 unsigned_char
0 0 0 0 0 0 0 0 0 
0 0 0 0 0 0 0 0 0 
0 0 0 0 0 0 0 0 0 
0 0 0 0 0 0 0 0 0 
0 0 0 0 0 1 0 0 0 
0 0 0 0 0 0 0 0 0 
0 1 0 0 0 0 0 0 0 
0 0 0 0 0 0 0 0 0 
0 0 0 0 1 0 0 0 0 
0 0 0 0 0 0 0 1 0 
0 0 0 0 0 0 0 0 0 
0 0 0 0 0 0 0 0 0 
1 0 0 0 0 0 0 0 1 
0 0 0 
plain_torsion_tn_raw 1 120 unsigned_char
0 0 0 0 0 0 0 0 0 
0 0 0 0 0 0 0 0 0 
0 0 0 0 0 0 0 0 0 
2 0 0 0 0 0 0 0 0 
0 0 0 0 0 0 0 0 0 
0 0 0 0 2 0 0 0 0 
0 0 0 0 0 0 0 0 0 
0 0 0 0 0 0 0 0 2 
0 0 0 0 0 0 0 0 2 
0 0 0 0 0 0 0 0 0 
0 0 0 0 0 0 0 0 0 
0 0 2 0 0 0 0 0 0 
0 0 0 0 2 0 0 0 0 
0 0 0 
plain_torsion_tz_raw 1 120 unsigned_char
0 0 0 0 0 0 0 0 0 
0 0 3 0 0 0 0 0 0 
0 0 0 0 0 0 0 0 0 
0 0 0 0 0 0 0 0 3 
0 0 0 0 0 0 3 0 0 
0 0 0 0 0 0 0 0 3 
0 0 0 0 0 0 0 0 0 
0 0 0 0 0 0 0 0 0 
0 0 0 0 0 0 0 0 0 
0 0 0 0 0 0 0 0 0 
0 0 0 0 0 0 0 0 0 
0 0 0 0 0 0 0 0 0 
0 0 0 0 0 0 0 0 0 
0 0 0 
weighted_torsion_tp_raw 1 120 unsigned_char
0 0 0 0 0 0 0 0 0 
0 0 0 0 0 0 0 0 0 
0 0 0 0 0 0 0 0 0 
0 0 0 0 0 0 0 0 0 
0 0 0 0 0 0 0 0 0 
1 0 0 0 0 0 0 0 0 
0 0 0 0 0 0 1 0 0 
0 0 0 0 0 0 0 0 0 
0 0 0 0 0 0 0 0 0 
1 0 0 0 0 0 0 0 0 
0 0 0 0 1 0 0 0 0 
0 0 0 0 0 0 0 0 0 
0 0 0 0 0 1 0 0 0 
0 1 0 
weighted_torsion_tn_raw 1 120 unsigned_char
0 0 0 0 0 0 0 0 0 
0 0 0 0 0 0 0 0 0 
0 0 0 0 0 0 0 0 0 
0 0 0 0 2 0 0 0 0 
0 0 0 0 0 0 0 0 0 
0 0 0 0 0 0 0 0 2 
0 0 0 0 0 0 0 0 0 
0 0 0 0 0 0 0 0 0 
0 0 0 0 2 0 0 0 0 
0 0 0 2 0 0 0 0 0 
0 0 0 0 0 0 0 0 0 
0 0 0 0 0 0 2 0 0 
0 0 0 0 0 0 0 2 0 
0 0 0 
weighted_torsion_tz_raw 1 120 unsigned_char
0 0 0 0 0 0 0 0 0 
0 0 0 0 0 3 0 0 0 
0 0 0 0 0 0 0 0 0 
0 0 0 0 0 0 0 0 0 
0 0 3 0 0 0 0 0 0 
0 3 0 0 0 0 0 0 0 
0 0 0 3 0 0 0 0 0 
0 0 0 0 0 0 0 0 0 
0 0 0 0 0 0 0 0 0 
0 0 0 0 0 0 0 0 0 
0 0 0 0 0 0 0 0 0 
0 0 0 0 0 0 0 0 0 
0 0 0 0 0 0 0 0 0 
0 0 0 
