# vtk DataFile Version 5.1
vtk output
ASCII
DATASET POLYDATA
POINTS 120 float
-4.97845 19.9035 -7.03162 -5.05996 19.3237 -6.762 -5.19712 18.7678 -6.60228 
-5.38746 18.2422 -6.53112 -5.62846 17.7533 -6.52716 -5.91738 17.3071 -6.56923 
-6.25115 16.9083 -6.6368 -6.62613 16.56 -6.71092 -7.03801 16.2626 -6.7759 
-7.4818 16.0131 -6.8211 -7.95184 15.8053 -6.84264 -8.44181 15.6296 -6.84423 
-8.94474 15.4739 -6.83682 -9.45273 15.3246 -6.83648 -9.9567 15.1681 -6.86105 
-10.4461 14.9921 -6.92673 -10.9086 14.7873 -7.04538 -11.3308 14.5487 -7.22293 
-11.6981 14.2763 -7.45946 -11.9966 13.975 -7.75038 -12.2145 13.6538 -8.08785 
-12.3434 13.3243 -8.46222 -12.38 12.9983 -8.8631 -12.3267 12.6853 -9.28 
-12.191 12.3908 -9.70278 -11.9846 12.1149 -10.1217 -11.7215 11.8525 -10.5274 
-11.4156 11.5938 -10.911 -11.0792 11.3266 -11.2642 -10.7216 11.0387 -11.5793 
-10.3493 10.7201 -11.8494 -9.96652 10.365 -12.0689 -9.57685 9.97324 -12.2329 
-9.18473 9.55121 -12.3375 -8.79683 9.11134 -12.3797 -8.42262 8.67147 -12.3565 
-8.07399 8.25309 -12.2656 -7.76394 7.87877 -12.1055 -7.50433 7.56892 -11.8759 
-7.30341 7.33865 -11.5787 -7.16358 7.19425 -11.2188 -7.08042 7.13135 -10.8046 
-7.04309 7.13471 -10.3472 -7.0364 7.17918 -9.86044 -7.04433 7.23397 -9.35907 
-7.05361 7.26722 -8.85738 -7.0563 7.2509 -8.36764 -7.05089 7.16492 -7.89864 
-7.0417 6.99962 -7.45475 -7.03656 6.75644 -7.03577 -7.04352 6.44574 -6.63797 
-7.06761 6.08371 -6.25594 -7.10809 5.68883 -5.88488 -7.15698 5.27801 -5.52279 
-7.19942 4.86376 -5.17157 -7.2162 4.45361 -4.83672 -7.18745 4.05074 -4.52553 
-7.09683 3.65534 -4.24455 -6.93529 3.26634 -3.99694 -6.70361 2.88299 -3.78034 
-6.41276 2.50541 -3.58645 -6.08243 2.13439 -3.40207 -5.73804 1.7707 -3.21152 
-5.40665 1.41423 -2.99978 -5.11232 1.06327 -2.75613 -4.87176 0.714093 -2.47682 
-4.69146 0.361327 -2.16636 -4.56639 -0.000744178 -1.83693 -4.48074 -0.376481 -1.50611 
-4.41074 -0.767143 -1.19321 -4.32922 -1.1688 -0.914813 -4.21044 -1.57204 -0.681172 
-4.03414 -1.96276 -0.494152 -3.78829 -2.32398 -0.346985 -3.47008 -2.63902 -0.225951 
-3.08508 -2.89509 -0.113653 -2.64487 -3.08587 0.00715126 -2.16423 -3.21273 0.150246 
-1.65829 -3.28479 0.323583 -1.14001 -3.31722 0.528063 -0.618547 -3.32744 0.757855 
-0.0988904 -3.33164 1.00196 0.417745 -3.3415 1.24636 0.932769 -3.36169 1.47657 
1.44871 -3.38902 1.68014 1.96769 -3.41396 1.84887 2.4901 -3.42292 1.98037 
3.01401 -3.40182 2.0787 3.53503 -3.3398 2.15413 4.04685 -3.23208 2.22203 
4.54243 -3.08183 2.30073 5.01511 -2.89969 2.40858 5.46038 -2.70231 2.56096 
5.87698 -2.50948 2.76766 6.26713 -2.34053 3.03105 6.6372 -2.21129 3.34542 
6.9966 -2.13178 3.69854 7.35642 -2.10547 4.07401 7.72749 -2.12988 4.45433 
8.11838 -2.19815 4.82417 8.53369 -2.30144 5.17294 8.97293 -2.43138 5.49612 
9.43065 -2.58199 5.79494 9.89681 -2.75081 6.07502 10.358 -2.93914 6.34432 
10.7993 -3.15143 6.61085 11.2061 -3.39401 6.88057 11.5655 -3.67315 7.15623 
11.868 -3.9937 7.43704 12.1078 -4.35806 7.71904 12.2832 -4.76538 7.99617 
12.3968 -5.21185 8.26145 12.4539 -5.69141 8.50856 12.4619 -6.19666 8.73271 
12.4296 -6.71983 8.93117 12.3659 -7.25379 9.10373 12.2791 -7.79279 9.25263 
12.1763 -8.33242 9.38181 12.0631 -8.86988 9.49651 11.9441 -9.40354 9.60261 

LINES 2 120
OFFSETS vtktypeint64
0 120 
CONNECTIVITY vtktypeint64
0 1 2 3 4 5 6 7 8 
9 10 11 12 13 14 15 16 17 
18 19 20 21 22 23 24 25 26 
27 28 29 30 31 32 33 34 35 
36 37 38 39 40 41 42 43 44 
45 46 47 48 49 50 51 52 53 
54 55 56 57 58 59 60 61 62 
63 64 65 66 67 68 69 70 71 
72 73 74 75 76 77 78 79 80 
81 82 83 84 85 86 87 88 89 
90 91 92 93 94 95 96 97 98 
99 100 101 102 103 104 105 106 107 
108 109 110 111 112 113 114 115 116 
117 118 119 
CELL_DATA 1
FIELD FieldData 2
Length 1 1 double
62.640208464 
Tortuosity 1 1 double
0.66114337971 
POINT_DATA 120
FIELD FieldData 19
Curvature 1 120 double
0 0.30256629827 0.31014632483 0.29476385416 0.2700012313 0.249732918 0.24093638188 0.23982606989 0.23347155614 
0.20808395876 0.15830925269 0.090338612568 0.03722614294 0.093802899018 0.17222509194 0.24253879852 0.29604782243 0.33090033973 
0.35139505794 0.36307969767 0.36817281032 0.36311302766 0.34200057824 0.30323218239 0.25221225782 0.19932196141 0.15774059135 
0.14254694843 0.15614081389 0.18118600828 0.199362475 0.20310229704 0.19622644071 0.18971050073 0.19478193117 0.22298920898 
0.28900905535 0.40976385461 0.580766842 0.70793803589 0.6487775926 0.44094846876 0.22771718272 0.069157684264 0.084892641185 
0.2025327289 0.30950138748 0.37131147197 0.35609196362 0.28286531121 0.19547016243 0.12091389641 0.063851790259 0.040366877764 
0.092922981567 0.17753082135 0.26857558902 0.32764917079 0.31607496192 0.24038363648 0.14015902841 0.056062048151 0.089228281559 
0.17370689674 0.2423381044 0.26641306003 0.23319184802 0.1626543489 0.10905528597 0.14665163566 0.23756354139 0.33059522947 
0.39823330152 0.42334892036 0.40555493642 0.35869151779 0.29677526143 0.22899467518 0.16131365778 0.099702886536 0.045988256797 
0.017990071016 0.049964853695 0.08309994618 0.11172265716 0.13595343717 0.15499273859 0.16603031094 0.16895827134 0.16918400915 
0.17931376448 0.20463836033 0.23908302153 0.26675791884 0.27036734652 0.24866399114 0.21417979882 0.18438755101 0.1671532629 
0.155936378 0.13975254782 0.11448402627 0.084786880195 0.07014420119 0.095004784404 0.14610553523 0.20309629266 0.25269976791 
0.28306408964 0.2866101007 0.26629835019 0.23353420101 0.19740606848 0.16315828749 0.13261158373 0.10484614847 0.079291332505 
0.05569701289 0.032988036697 0 
Torsion 1 120 double
0 0 -0.20449408672 -0.28916150281 -0.39154616862 -0.4735066682 -0.47807353876 -0.39736626346 -0.27911565078 
-0.15228333388 0.02177500199 0.56344528737 4.2290317654 0.66712866173 0.20002804882 0.10835796141 0.073197490432 0.045086032094 
0.01431338958 -0.015334093622 -0.035078440728 -0.036144308435 -0.013621520597 0.03893405337 0.1398287982 0.32374999832 0.59358129076 
0.71025584829 0.49265762232 0.24506890607 0.089822067987 -0.0055279545427 -0.069763406869 -0.11443726383 -0.13818255838 -0.13190042726 
-0.10393844585 -0.074757606002 -0.049589988051 -0.031881163708 -0.018078063113 0.01680725507 0.18416072635 2.2151294286 1.1697251022 
0.055352351384 -0.092779444913 -0.1532977303 -0.20488913989 -0.25951154258 -0.29234119971 -0.19818116996 0.52526451237 2.471015381 
0.39746400507 0.042047963261 -0.0053756675196 0.01004676622 0.054447444663 0.15520989601 0.50749838013 3.0509773767 1.1897598391 
0.36168749058 0.24805967142 0.27313131196 0.42365845791 0.92985799296 2.1371073731 1.3293641559 0.66875879709 0.49920943143 
0.46889784947 0.47330495169 0.47234813298 0.45083418251 0.41655461193 0.39101340331 0.39928516628 0.48737727606 1.046089652 
4.3963018476 0.87679352892 0.62767025702 0.60425478462 0.60380477753 0.60167451794 0.63023078354 0.70956676063 0.81948061987 
0.84649448686 0.74831043273 0.60777749715 0.51709331077 0.50263490573 0.552299707 0.64864364557 0.7036660522 0.61527073664 
0.42127186362 0.20485788581 -0.065010828269 -0.57913291081 -1.1867015404 -0.65733027666 -0.20852043774 -0.032412953249 0.04531055247 
0.085377256779 0.1128973972 0.13217436877 0.14156695867 0.14827453939 0.14677484111 0.13227432164 0.11150294697 0.072849437937 
-0.0064213080353 0 0 
FrenetTangent 3 120 double
-0.17723675683 -0.92058975768 0.34799659494 -0.17723675683 -0.92058975768 0.34799659494 -0.28394689676 -0.9377128095 0.20017204282 
-0.39039004999 -0.91813539022 0.067992750292 -0.49273480694 -0.86945752502 -0.035440403809 -0.59003581274 -0.80066509994 -0.10389002566 
-0.68184037156 -0.71868831343 -0.13631146633 -0.76589374168 -0.62855016519 -0.13539374541 -0.83765766487 -0.5354398424 -0.10786014861 
-0.89237650072 -0.44656006401 -0.065178909057 -0.92842023168 -0.37085825088 -0.022361376656 -0.94855912949 -0.31655111641 0.0055649409657 
-0.95735786199 -0.28881162679 0.0073326878872 -0.956983756 -0.28923543366 -0.022911889295 -0.94476322265 -0.31631548415 -0.085831041134 
-0.91382014188 -0.36554416914 -0.17694690926 -0.85648274856 -0.42919832019 -0.28675094308 -0.76830433565 -0.49729282711 -0.40299912149 
-0.64958551183 -0.55969755173 -0.51456516925 -0.50421812434 -0.60775095475 -0.6135167969 -0.33838692344 -0.63488665336 -0.6945597364 
-0.16090611064 -0.63729054909 -0.75363783053 0.016144691551 -0.61565280328 -0.78785212746 0.17945764105 -0.5766344075 -0.79704938063 
0.31886166433 -0.5316814798 -0.78462860199 0.43035279866 -0.49342939992 -0.75585970655 0.51550027871 -0.47215788327 -0.71507090272 
0.57867589997 -0.4738014827 -0.66381198978 0.62417186966 -0.49919391784 -0.60101157187 0.65466499083 -0.54395878926 -0.5249024532 
0.67167537204 -0.59930304358 -0.43553192369 0.67707675247 -0.65467549986 -0.33610572911 0.67395295651 -0.70153378926 -0.23159826195 
0.66572573637 -0.73560074644 -0.1253027764 0.65467866969 -0.75573164542 -0.016294770831 0.64088439851 -0.76095192782 0.10109080722 
0.62095142591 -0.74729042527 0.23659320987 0.58614984575 -0.70397339256 0.40106086933 0.52098733189 -0.61101881498 0.59601024131 
0.41076234106 -0.45164136216 0.79201917852 0.26807168452 -0.24920897952 0.9306086484 0.13662044585 -0.067508665988 0.98832051167 
0.046510985165 0.050539864661 0.99763843668 -0.0012541318788 0.099943555551 0.99499231799 -0.017090732462 0.087420552535 0.99602487612 
-0.012070378596 0.017069329113 0.9997814481 0.00282634244 -0.10609688936 0.99435177973 0.015416697206 -0.26535692971 0.9640269837 
0.015011011909 -0.42782457689 0.90373713044 -0.0018346315418 -0.56124118491 0.82765026822 -0.03013486815 -0.65290162665 0.75684301916 
-0.060370535152 -0.70760500928 0.70402453745 -0.081769140149 -0.73714685707 0.67076696314 -0.083447836006 -0.75384278993 0.65173423014 
-0.05513017351 -0.7674782828 0.6387000465 0.011532016005 -0.78286759201 0.6220814625 0.11923768166 -0.79741470809 0.59153373411 
0.25758956189 -0.80129695385 0.53997297095 0.39995410503 -0.78556455006 0.47214939538 0.51724783897 -0.75322318175 0.40633669727 
0.59515787001 -0.71724139508 0.36242501426 0.63314297606 -0.68945137187 0.35183345164 0.63371525056 -0.67533922236 0.37725576994 
0.59678007678 -0.67469701815 0.43432415734 0.52205195522 -0.68333226193 0.51041039944 0.41718279031 -0.69582485297 0.58462491689 
0.30330556506 -0.70998911719 0.63554794286 0.20817080491 -0.72886623181 0.65224146764 0.15366570625 -0.75663930434 0.63551853934 
0.1514884871 -0.79217506454 0.59119362766 0.20548515392 -0.8257342805 0.52529872409 0.31202173486 -0.83951973768 0.44480225609 
0.45646587872 -0.81305977861 0.36134844398 0.61273228046 -0.73462625228 0.29134759643 0.7517109303 -0.61050508905 0.24942777213 
0.85342191601 -0.462121493 0.24107002921 0.91244864347 -0.31473848542 0.26149026526 0.93513981414 -0.18855356834 0.29993512611 
0.93393489009 -0.095278086735 0.34451082313 0.92208747844 -0.037819622976 0.38512901503 0.91007713386 -0.012604869092 0.41424718188 
0.90446848916 -0.012278766954 0.42636367574 0.9081544036 -0.026453235594 0.41779876203 0.92090494345 -0.042445991493 0.38746925419 
0.93990592465 -0.047474250247 0.33811691525 0.96039457224 -0.031258158625 0.2768848012 0.97665182675 0.011335867641 0.21452903629 
0.9834323129 0.078226466258 0.16352830314 0.97763961459 0.16066698472 0.13567204575 0.95925604644 0.24564296195 0.13959717984 
0.9304998975 0.3194250165 0.1792696282 0.89396341777 0.36959779824 0.25343021766 0.85169902933 0.38560599938 0.35484754005 
0.80565627778 0.36129398857 0.46945139886 0.75997028593 0.29809453205 0.57756801717 0.72184281123 0.20656429033 0.66051052212 
0.6987948374 0.10281207473 0.70789508581 0.69516468534 0.0018132112282 0.71884822635 0.70994086998 -0.086353153555 0.69894713248 
0.73724878765 -0.15689211655 0.65715225699 0.76859768368 -0.20976401133 0.60436467484 0.79588135901 -0.24893568868 0.55190930893 
0.81320676547 -0.28117338882 0.50954517171 0.81668405657 -0.31453680599 0.48383235673 0.80334568232 -0.35659189546 0.47694646953 
0.76983400441 -0.4128642157 0.48672245176 0.71241203616 -0.4850930604 0.50710335583 0.62896894694 -0.56987713747 0.52880819961 
0.52180645368 -0.65909044494 0.54158822945 0.39946314203 -0.74236199525 0.5378920581 0.27474215169 -0.81158608237 0.515601378 
0.1591675185 -0.86383269741 0.47797361008 0.059507746087 -0.9004430142 0.43088421453 -0.021785283019 -0.92473188356 0.37999519071 
-0.085335907951 -0.94013044095 0.32995838648 -0.13322262424 -0.94939188681 0.2844411673 -0.16785600423 -0.95459720323 0.24610676836 
-0.19189578122 -0.95718471652 0.21673354057 -0.20765138976 -0.95806078529 0.19748527041 -0.20765138976 -0.95806078529 0.19748527041 

FrenetNormal 3 120 double
-0.56178627359 -0.19569181788 -0.80380401543 -0.56178627359 -0.19569181788 -0.80380401543 -0.60165871881 0.011696754463 -0.79866762299 
-0.64362231477 0.21936779649 -0.73323126351 -0.68854751964 0.41446669713 -0.59507954945 -0.72044435805 0.58021087443 -0.37988849435 
-0.70947393557 0.69511013063 -0.11605447443 -0.64271937273 0.75427751293 0.13407923553 -0.53892304815 0.77811080612 0.3226538727 
-0.4277293213 0.79085935561 0.43770892993 -0.33628912849 0.81324291852 0.47491639005 -0.29318797474 0.88491260686 0.36189845218 
-0.21562611226 0.69740857901 -0.68346664413 0.11043010783 -0.29007341268 -0.95061170124 0.22518765471 -0.43618056587 -0.87122731484 
0.34331578154 -0.46257183259 -0.81741150826 0.47693221311 -0.44555170821 -0.75764064002 0.61433766378 -0.39612595789 -0.68240271127 
0.74135406562 -0.31618820546 -0.59196213402 0.84684916315 -0.2088238936 -0.48912071756 0.92315735275 -0.080894248243 -0.37581461208 
0.96587188401 0.05536218033 -0.25303464715 0.97561995798 0.18218362521 -0.12237166458 0.95987316377 0.28011089075 0.013468420421 
0.93184288538 0.32713106266 0.15701625652 0.90060492002 0.29119475573 0.32267071802 0.84152588647 0.12164111438 0.5263436346 
0.6761147999 -0.17646296072 0.7153527807 0.43033970953 -0.42238084101 0.79774818053 0.22925862973 -0.51880766916 0.82357700497 
0.09310901066 -0.51493583227 0.85215714559 0.0018904991685 -0.45517089198 0.89040209181 -0.056314763029 -0.36136172552 0.93072356304 
-0.090129852151 -0.24596086418 0.96508023658 -0.10812502041 -0.11495841661 0.98746824881 -0.12657204693 0.025136312447 0.99163888726 
-0.16549971249 0.17003953193 0.97144037529 -0.23676139304 0.32457621391 0.91574795885 -0.33905233863 0.49266890781 0.80144922418 
-0.45363914701 0.65228957045 0.60723129084 -0.54131890644 0.76009727218 0.35948015014 -0.5860106934 0.79888087203 0.13557588108 
-0.629026628 0.77731875377 -0.010052676483 -0.85625375736 0.51386064426 -0.052694793749 -0.063905283838 -0.99422908225 0.08616638968 
0.12927436773 -0.99143650678 0.018487587088 0.11319951455 -0.98793031192 -0.10573347957 0.045862011298 -0.96293917759 -0.26579092571 
-0.051731026771 -0.9029607986 -0.42659781651 -0.17531210448 -0.81465318585 -0.5528162921 -0.31755214878 -0.71170537456 -0.62660680864 
-0.44527343648 -0.61215499241 -0.65345071125 -0.41305440767 -0.58743493473 -0.69592115485 0.4982250799 -0.59796704186 -0.62785920922 
0.9269712518 -0.27705890743 -0.25290840269 0.95620729165 -0.17332620477 -0.23585088962 0.94881697706 -0.083974390178 -0.30445795414 
0.91960115538 0.031752954465 -0.39156795695 0.87141089424 0.16627630649 -0.46151407702 0.82131016504 0.30337290147 -0.48312989501 
0.79509407133 0.46008686623 -0.39515249367 0.64374026435 0.72142028602 0.25524741521 -0.38428520414 0.14841522465 0.91120678387 
-0.62656591212 -0.053694955002 0.77751656547 -0.75469615293 -0.091289321193 0.64969221681 -0.86168599822 -0.098364399626 0.49781691952 
-0.94428467551 -0.13449728783 0.30039462573 -0.95953477848 -0.28146815937 -0.0082875894679 -0.54574746336 -0.60115049216 -0.58376175963 
0.3551247599 -0.51454542822 -0.78046742866 0.71351375589 -0.24097002496 -0.6578993595 0.83446420622 0.018335486572 -0.55075702308 
0.85229762208 0.28299434215 -0.43988971993 0.78769487967 0.5378488089 -0.30042542388 0.65097348153 0.74747927337 -0.13231879017 
0.46537576661 0.88387234306 0.046851649012 0.26219835134 0.94032532755 0.21688776575 0.068390988914 0.92676004968 0.3693758018 
-0.10136710828 0.85365294073 0.51088292803 -0.24424382004 0.71507031699 0.65499572375 -0.37448504575 0.40317804122 0.83499007035 
-0.12362354563 -0.96422819064 0.23448073554 0.3011525098 -0.65196066836 -0.69588393626 0.35984699534 -0.28948307969 -0.88696656448 
0.34052131816 0.057998891281 -0.93844624806 0.26641406875 0.3941653475 -0.87957786625 0.15037043035 0.67711844198 -0.72034668682 
0.0093929399534 0.87889553887 -0.47692180118 -0.13973849952 0.97848243193 -0.15180672634 -0.27361097787 0.9308589695 0.24215410732 
-0.35872303762 0.69569450384 0.62235595892 -0.38247746707 0.33454959285 0.86127089647 -0.37248018313 -0.03083441341 0.92752776353 
-0.35544574211 -0.33913302453 0.87100351095 -0.32330522331 -0.59750982524 0.73379543561 -0.25465435157 -0.80817295942 0.53104390485 
-0.12380972709 -0.95729739675 0.26125245578 0.067799118992 -0.99570452171 -0.063053825468 0.2563808618 -0.89266477321 -0.37069995464 
0.37125413029 -0.71857788962 -0.58806138055 0.40255181098 -0.57565245755 -0.71174172815 0.3679529885 -0.52504282448 -0.76742467429 
0.23636671262 -0.64050954467 -0.73066976149 -0.10714997828 -0.90647763558 -0.40843258727 -0.42760352834 -0.90283436919 0.045225262407 
-0.56187770089 -0.80012120246 0.20999883481 -0.64915347529 -0.73004748137 0.21361282842 -0.7285841889 -0.66938704468 0.1452104132 
-0.79851760211 -0.60075449512 0.038258015109 -0.84929519093 -0.52057623753 -0.087738586553 -0.87226777461 -0.43599564752 -0.22148752724 
-0.86832892018 -0.35286049678 -0.34856040536 -0.84098408725 -0.27776616629 -0.46431855645 -0.79521383253 -0.2143350762 -0.56718201282 
-0.7414265925 -0.16130793378 -0.65135732009 -0.6873051446 -0.11827286733 -0.71667507774 -0.64034367967 -0.084230478513 -0.76345608806 
-0.62090024466 -0.052616667848 -0.78212171204 -0.6548221414 -0.013836564697 -0.75565634558 -0.6548221414 -0.013836564697 -0.75565634558 

FrenetBinormal 3 120 double
0.80807383006 -0.33796332712 -0.48249090633 0.80807383006 -0.33796332712 -0.48249090633 0.74657949737 -0.34721444791 -0.56750434471 
0.65829015244 -0.33000784095 -0.67657143016 0.53208525936 -0.26881400477 -0.80288499027 0.36444158193 -0.14930083367 -0.91917984879 
0.17815847566 0.017578806513 -0.98384477592 0.017848931914 0.18971063051 -0.98167779454 -0.088834591561 0.32840180963 -0.94035135283 
-0.14391597775 0.41848009376 -0.89675113743 -0.15794143052 0.44844187274 -0.8797467768 -0.11948384548 0.34165050699 -0.93220091276 
0.19227923391 -0.65590328414 -0.7299449144 0.26830445773 -0.91225011876 0.30953584411 0.23814485781 -0.84243161648 0.48331769909 
0.21694935454 -0.8077157669 0.54820453981 0.19741571748 -0.78566689968 0.58630585639 0.17971556049 -0.77187050053 0.60985100453 
0.16862031967 -0.76600500607 0.62032533277 0.16914661677 -0.76617971682 0.61996617938 0.18241379361 -0.76835867795 0.613473838 
0.2029796227 -0.76863241217 0.6066329102 0.21887221505 -0.76666860671 0.6035844605 0.21549585735 -0.76748332162 0.60376393275 
0.17319375274 -0.78121704531 0.59975315934 0.060887163848 -0.81959321711 0.56970142333 -0.16153527491 -0.87308096564 0.46003910964 
-0.45607343723 -0.86277052481 0.21822933206 -0.65208681287 -0.75657111863 -0.048815273643 -0.72031536877 -0.65950544957 -0.21493797131 
-0.73497136456 -0.61292491433 -0.29006920324 -0.73590997906 -0.60350596432 -0.30694796587 -0.7366247755 -0.61422149576 -0.28304751238 
-0.74073332157 -0.63118523044 -0.23004206394 -0.74813422553 -0.64471252707 -0.15697432284 -0.75713057308 -0.6483211622 -0.080205772637 
-0.76617828984 -0.64237339444 -0.018090060717 -0.77483701583 -0.63172125493 0.023576576636 -0.78333626986 -0.61962355912 0.049506901618 
-0.79087661709 -0.60871865115 0.063053788728 -0.7969387765 -0.60012250528 0.068859023886 -0.79870289908 -0.59768882566 0.069582660748 
-0.77599112722 -0.6270735819 0.067944781673 -0.5165538986 -0.85203199704 0.084932595949 0.99780961188 -0.062178605706 0.022578738474 
0.99153539715 0.12946926674 0.0097603872622 0.99356825719 0.11285897777 0.009217887002 0.99882881485 0.048309834639 -0.0026755392203 
0.99854823138 -0.040347584785 -0.035686159941 0.98451119859 -0.1461113245 -0.096897784818 0.94776184906 -0.25921984058 -0.18588316686 
0.89335713197 -0.35293259429 -0.27812158966 0.90702803927 -0.33396812509 -0.25644770891 0.86302272764 0.27231684656 0.42548243989 
0.37105924367 0.5781136975 0.72670461018 0.29246303699 0.59755866668 0.74658489931 0.29245293522 0.59756011004 0.74658770119 
0.29661647397 0.59742358644 0.74505283419 0.28404184069 0.59602057648 0.7510523984 0.2406330939 0.58362635404 0.7755488334 
0.11667273678 0.5233400966 0.84409870026 -0.4298004699 0.064881251073 0.90058979526 -0.67136418067 -0.72241944592 -0.16546987965 
-0.5012670922 -0.73613910744 -0.45478623195 -0.39736063318 -0.72437785695 -0.56336599787 -0.28888710588 -0.71144375665 -0.64061846772 
-0.12779744053 -0.69124954469 -0.71122561902 0.18962574947 -0.624123138 -0.75796595158 0.82373937441 -0.25712846769 -0.50531019597 
0.92246281398 0.32817932508 0.20337327113 0.66983130091 0.50999641674 0.53965700517 0.45421572575 0.54301972338 0.70627024184 
0.25539707311 0.50877106709 0.82214617699 0.06399944552 0.41357336499 0.90821866461 -0.10566079509 0.26183634607 0.95931096327 
-0.23472628555 0.072203925582 0.9693761726 -0.31414884623 -0.1293366312 0.94052248152 -0.34761501786 -0.32490515876 0.87954558561 
-0.3427686252 -0.51205345715 0.78759820124 -0.30016601818 -0.69802873714 0.65012017631 -0.1775403079 -0.91503474489 0.36220278121 
0.40823274131 -0.26478902594 -0.8736319595 0.29079674185 0.75779120689 -0.58411449365 0.14981396824 0.95624154081 -0.25131233663 
0.024941625816 0.99718720618 0.070679495811 -0.081644409417 0.91850781507 0.38688187353 -0.15342732151 0.73578673108 0.65960438399 
-0.1810322033 0.47055632154 0.86359949608 -0.15714304225 0.12945366133 0.979054551 -0.070461834798 -0.2704831125 0.9601427059 
0.074079167396 -0.64341030156 0.76192877672 0.23353885089 -0.86687602197 0.44043792714 0.36860178595 -0.92214817258 0.11736895329 
0.4738948053 -0.86859394742 -0.14480424033 0.563842972 -0.74439348378 -0.35771419349 0.64350145073 -0.55153210389 -0.53077134558 
0.70452602983 -0.27020616474 -0.65622534379 0.71564609949 0.092570069176 -0.69230155465 0.6559365936 0.44237171648 -0.61159990977 
0.56447727665 0.67751802951 -0.47152383168 0.49720181026 0.79033113798 -0.35800426284 0.48081541222 0.81385567231 -0.3262751661 
0.53181343887 0.71462511053 -0.45440666548 0.56705029221 0.28171775569 -0.77400844455 0.41447670291 -0.24027551249 -0.87776804501 
0.30273594914 -0.43514273609 -0.8479397056 0.26658742703 -0.48136825581 -0.83499445869 0.27122526334 -0.47661413388 -0.83622713656 
0.30014607115 -0.4524310135 -0.8397728943 0.34514761598 -0.42178080672 -0.83843549201 0.40455615119 -0.38889050677 -0.82770676829 
0.46975588067 -0.35955881395 -0.80625484301 0.5377774569 -0.33473621711 -0.77378748491 0.60593758919 -0.31453365262 -0.73069023489 
0.66558575011 -0.30022409047 -0.68327235035 0.71404717673 -0.2909752122 -0.63676530629 0.74952273731 -0.28574360199 -0.59713169416 
0.76003874594 -0.28465576531 -0.58421930809 0.72669722957 -0.286230818 -0.62448623312 0.72669722957 -0.286230818 -0.62448623312 

plain_curvature_peaks 1 120 unsigned_char
0 0 0 0 0 0 0 0 0 
0 0 0 0 0 0 1 0 0 
0 0 0 0 0 0 0 0 0 
0 0 0 0 0 0 0 0 0 
1 0 0 0 0 0 0 0 0 
0 0 0 0 0 0 0 0 0 
0 0 0 0 0 0 0 0 0 
0 0 0 0 0 0 1 0 0 
0 0 0 0 0 0 0 0 0 
0 0 0 0 0 0 0 0 0 
0 0 0 0 0 0 0 0 0 
0 0 0 0 0 0 1 0 0 
0 0 0 0 0 0 0 0 0 
0 0 0 
weighted_curvature_peaks 1 120 unsigned_char
0 0 0 0 0 0 0 0 0 
0 0 0 0 0 0 0 0 1 
0 0 0 0 0 0 0 0 0 
0 0 0 0 0 0 0 0 0 
0 0 0 1 0 0 0 0 0 
0 0 0 0 0 0 0 0 0 
0 0 0 0 0 0 0 0 0 
0 0 0 0 0 0 0 0 0 
0 0 1 0 0 0 0 0 0 
0 0 0 0 0 0 0 0 0 
0 0 0 0 0 0 0 0 0 
0 0 0 0 0 0 0 0 0 
0 0 1 0 0 0 0 0 0 
0 0 0 
plain_torsion_tp 1 120 unsigned_char
0 0 0 0 0 0 0 0 0 
0 0 0 0 0 0 1 0 0 
0 0 0 0 0 0 0 0 0 
0 0 0 0 0 0 0 0 0 
1 0 0 0 0 0 0 0 0 
0 0 0 0 0 0 0 0 0 
0 0 0 0 0 0 0 0 0 
0 0 0 0 0 0 1 0 0 
0 0 0 0 0 0 0 0 0 
0 0 0 0 0 0 0 0 0 
0 0 0 0 0 0 0 0 0 
0 0 0 0 0 0 1 0 0 
0 0 0 0 0 0 0 0 0 
0 0 0 
plain_torsion_tn 1 120 unsigned_char
0 0 0 2 0 0 0 0 0 
0 0 0 0 0 0 0 0 0 
0 0 0 0 0 0 0 0 0 
0 0 0 0 0 0 2 0 0 
0 0 0 0 0 0 0 2 0 
0 0 0 0 0 0 0 0 0 
0 0 0 0 0 0 0 0 0 
0 0 0 0 0 0 0 0 0 
0 0 0 0 0 0 0 0 0 
0 0 0 2 0 0 0 0 0 
0 0 0 0 0 0 0 0 0 
0 0 0 0 0 0 0 0 0 
0 0 0 0 0 0 0 0 0 
0 0 0 
plain_torsion_tz 1 120 unsigned_char
0 0 0 0 0 3 0 0 0 
0 0 0 0 0 0 0 0 0 
0 0 0 0 0 0 0 0 0 
0 0 3 0 0 0 0 0 3 
0 0 0 0 0 0 0 0 0 
0 0 0 0 3 0 0 0 0 
0 0 0 0 0 0 0 0 0 
0 0 0 0 0 0 0 0 0 
0 0 0 0 0 0 3 0 0 
0 0 0 0 0 0 0 0 0 
3 0 0 0 0 0 0 0 0 
0 0 0 0 0 0 0 0 0 
0 0 0 0 0 0 0 0 0 
0 0 0 
weighted_torsion_tp 1 120 unsigned_char
0 0 0 0 0 0 0 0 0 
0 0 0 0 0 0 0 0 1 
0 0 0 0 0 0 0 0 0 
0 0 0 0 0 0 0 0 0 
0 0 0 1 0 0 0 0 0 
0 0 0 0 0 0 0 0 0 
0 0 0 0 0 0 0 0 0 
0 0 0 0 0 0 0 0 0 
0 0 1 0 0 0 0 0 0 
0 0 0 0 0 0 0 0 0 
0 0 0 0 0 0 0 0 0 
0 0 0 0 0 0 0 0 0 
0 0 1 0 0 0 0 0 0 
0 0 0 
weighted_torsion_tn 1 120 unsigned_char
0 0 0 0 0 0 2 0 0 
0 0 0 0 0 0 0 0 0 
0 0 0 0 0 0 0 0 0 
0 0 0 0 0 0 0 0 0 
0 2 0 0 0 0 0 0 0 
0 0 2 0 0 0 0 0 0 
0 0 0 0 0 0 0 0 0 
0 0 0 0 0 0 0 0 0 
0 0 0 0 0 0 0 0 0 
0 0 0 0 0 0 0 0 2 
0 0 0 0 0 0 0 0 0 
0 0 0 0 0 0 0 0 0 
0 0 0 0 0 0 0 0 0 
0 0 0 
weighted_torsion_tz 1 120 unsigned_char
0 0 0 0 0 0 0 3 0 
0 0 0 0 0 0 0 0 0 
0 0 0 0 0 0 0 0 0 
0 0 0 0 3 0 0 0 0 
0 0 3 0 0 0 0 0 0 
0 0 0 0 0 0 0 0 3 
0 0 0 0 0 0 0 0 0 
0 0 0 0 0 0 0 0 0 
0 0 0 0 0 0 0 0 0 
0 0 3 0 0 0 0 0 0 
0 0 0 0 3 0 0 0 0 
0 0 0 0 0 0 0 0 0 
0 0 0 0 0 0 0 0 0 
0 0 0 
plain_torsion_tp_raw 1 120 unsigned_char
0 0 0 0 0 0 0 0 0 
0 0 0 0 0 0 0 0 0 
0 0 1 0 0 0 0 0 0 
0 0 0 0 0 0 0 1 0 
0 0 0 0 0 0 0 0 0 
1 0 0 0 0 0 0 0 0 
0 0 0 0 0 0 0 0 0 
0 0 0 0 0 0 0 0 0 
0 1 0 0 0 0 0 0 0 
0 0 0 0 0 0 0 0 0 
0 0 0 0 1 0 0 0 0 
0 0 0 0 0 0 0 0 0 
1 0 0 0 0 0 0 0 0 
0 0 0 
plain_torsion_tn_raw 1 120 unsigned_char
0 0 0 0 0 0 0 0 0 
0 0 2 0 0 0 0 0 0 
0 0 0 0 0 0 0 0 0 
0 0 0 2 0 0 0 0 0 
0 0 0 0 2 0 0 0 0 
0 0 0 0 0 0 0 0 0 
0 0 2 0 0 0 0 0 0 
0 0 0 0 0 0 0 0 0 
0 0 0 0 0 0 0 0 0 
0 0 0 0 2 0 0 0 0 
0 0 0 0 0 0 0 0 0 
0 2 0 0 0 0 0 0 0 
0 0 0 0 0 0 0 0 0 
0 0 0 
plain_torsion_tz_raw 1 120 unsigned_char
0 0 0 3 0 0 0 0 0 
0 0 0 0 0 0 0 3 0 
0 0 0 3 0 0 0 0 0 
0 0 0 0 0 0 3 0 0 
0 0 0 0 0 0 0 0 0 
0 0 0 0 0 0 0 0 0 
0 0 0 0 0 0 0 0 0 
0 0 0 0 0 0 0 0 0 
0 0 0 0 0 0 0 0 0 
0 0 0 0 0 0 0 0 0 
0 0 0 0 0 0 0 0 0 
0 0 0 0 0 0 0 0 0 
0 0 0 0 0 0 0 0 0 
0 0 0 
weighted_torsion_tp_raw 1 120 unsigned_char
0 0 0 0 0 0 0 0 0 
0 0 0 0 0 0 0 0 0 
0 0 0 0 0 1 0 0 0 
0 0 0 0 0 0 0 0 0 
0 1 0 0 0 0 0 0 0 
0 0 0 0 1 0 0 0 0 
0 0 0 0 0 0 0 0 0 
0 0 0 0 0 0 0 0 0 
0 0 0 0 0 0 0 1 0 
0 0 0 0 0 0 0 0 0 
0 0 0 0 0 0 0 0 1 
0 0 0 0 0 0 0 0 0 
0 0 0 0 0 1 0 0 0 
0 0 0 
weighted_torsion_tn_raw 1 120 unsigned_char
0 0 0 0 0 0 0 0 0 
0 0 0 0 2 0 0 0 0 
0 0 0 0 0 0 0 0 0 
0 0 0 0 0 0 2 0 0 
0 0 0 0 0 0 0 0 2 
0 0 0 0 0 0 0 0 0 
0 0 0 0 0 0 0 2 0 
0 0 0 0 0 0 0 0 0 
0 0 0 0 0 0 0 0 0 
0 0 0 0 0 0 0 0 0 
0 2 0 0 0 0 0 0 0 
0 0 0 0 0 0 2 0 0 
0 0 0 0 0 0 0 0 0 
0 0 0 
weighted_torsion_tz_raw 1 120 unsigned_char
0 0 0 0 0 0 3 0 0 
0 0 0 0 0 0 0 0 0 
0 3 0 0 0 0 0 3 0 
0 0 0 0 0 0 0 0 0 
3 0 0 0 0 0 0 0 0 
0 0 0 0 0 0 0 0 0 
0 0 0 0 0 0 0 0 0 
0 0 0 0 0 0 0 0 0 
0 0 0 0 0 0 0 0 0 
0 0 0 0 0 0 0 0 0 
0 0 0 0 0 0 0 0 0 
0 0 0 0 0 0 0 0 0 
0 0 0 0 0 0 0 0 0 
0 0 0 
