# vtk DataFile Version 5.1
vtk output
ASCII
DATASET POLYDATA
POINTS 120 float
0.536284 19.903 -5.83552 0.409575 19.4372 -5.34025 0.222517 18.9856 -4.91061 
-0.0207342 18.5471 -4.53927 -0.316124 18.1207 -4.21881 -0.659892 17.7051 -3.94169 
-1.04877 17.2995 -3.70018 -1.48 16.9027 -3.48614 -1.95075 16.5137 -3.29102 
-2.45713 16.1319 -3.10614 -2.9928 15.7571 -2.92336 -3.54773 15.3903 -2.73656 
-4.10763 15.0344 -2.54368 -4.65433 14.694 -2.34868 -5.16732 14.3762 -2.16268 
-5.62641 14.0894 -2.00379 -6.01504 13.8421 -1.89506 -6.32361 13.6408 -1.86098 
-6.55195 13.4885 -1.92319 -6.71003 13.3833 -2.0965 -6.81597 13.3189 -2.38619 
-6.89165 13.2853 -2.78721 -6.95734 13.2713 -3.28556 -7.02697 13.2652 -3.86082 
-7.10525 13.2559 -4.48886 -7.1875 13.2326 -5.14468 -7.2616 13.1845 -5.80451 
-7.31115 13.1014 -6.44762 -7.31889 12.9741 -7.05741 -7.2699 12.7956 -7.62208 
-7.15403 12.5628 -8.1348 -6.96701 12.2768 -8.59341 -6.71051 11.9426 -8.99958 
-6.39135 11.5682 -9.35734 -6.0203 11.1622 -9.67119 -5.61074 10.7326 -9.94415 
-5.17738 10.2846 -10.1762 -4.73511 9.82073 -10.3638 -4.29806 9.34197 -10.5003 
-3.87896 8.84903 -10.5772 -3.48878 8.34461 -10.5864 -3.13679 7.83456 -10.5213 
-2.83059 7.32769 -10.3783 -2.57631 6.83565 -10.1572 -2.37848 6.37023 -9.86169 
-2.23972 5.94142 -9.49852 -2.1603 5.55482 -9.07747 -2.13766 5.21001 -8.61029 
-2.16647 4.90128 -8.10961 -2.23887 4.61859 -7.58756 -2.34529 4.34966 -7.05445 
-2.4756 4.08267 -6.51794 -2.6202 3.8083 -5.98282 -2.77127 3.51993 -5.45167 
-2.92353 3.21441 -4.92583 -3.07439 2.89078 -4.40661 -3.22306 2.54909 -3.89627 
-3.36889 2.1893 -3.39862 -3.50966 1.8105 -2.919 -3.64017 1.40992 -2.46388 
-3.75219 0.984232 -2.04007 -3.83554 0.529729 -1.65389 -3.88025 0.044428 -1.31036 
-3.87859 -0.471906 -1.01285 -3.8266 -1.01674 -0.762897 -3.72454 -1.58577 -0.560224 
-3.57659 -2.17322 -0.402821 -3.38993 -2.77333 -0.286824 -3.1736 -3.38071 -0.206323 
-2.93733 -3.9912 -0.153296 -2.69051 -4.6016 -0.117576 -2.44136 -5.20995 -0.0871332 
-2.19635 -5.81434 -0.048667 -1.95984 -6.41293 0.0115421 -1.73394 -7.00293 0.1064 
-1.51829 -7.58062 0.246549 -1.31015 -8.14116 0.43901 -1.10445 -8.67879 0.686172 
-0.894089 -9.18747 0.985383 -0.670485 -9.66143 1.32933 -0.424489 -10.0963 1.70713 
-0.147451 -10.4896 2.10576 0.167577 -10.8421 2.51157 0.524842 -11.1579 2.91186 
0.925368 -11.4438 3.29632 1.36698 -11.7084 3.65799 1.84483 -11.9604 3.99381 
2.35238 -12.2069 4.30444 2.8824 -12.452 4.59355 3.42774 -12.6964 4.86671 
3.98178 -12.9368 5.13085 4.53832 -13.1666 5.39322 5.09128 -13.3779 5.66091 
5.6344 -13.5623 5.94109 6.16109 -13.7136 6.24024 6.66475 -13.8289 6.56424 
7.13953 -13.9096 6.91827 7.58142 -13.9616 7.30602 7.98936 -13.9937 7.72936 
8.36582 -14.016 8.18782 8.71689 -14.038 8.67823 9.05129 -14.0666 9.19433 
9.37877 -14.1062 9.72746 9.70789 -14.1599 10.2669 10.0435 -14.2317 10.8008 
10.3848 -14.3277 11.3183 10.7243 -14.457 11.8103 11.0488 -14.6303 12.2714 
11.3421 -14.8575 12.7007 11.5888 -15.145 13.1014 11.7783 -15.4935 13.4807 
11.9085 -15.8967 13.8482 11.9867 -16.3417 14.214 12.0299 -16.8113 14.5876 
12.0633 -17.2858 14.9761 12.1173 -17.7448 15.3838 12.2262 -18.1684 15.8126 
12.4256 -18.5376 16.2625 12.7519 -18.8339 16.7331 13.2411 -19.0391 17.2234 

LINES 2 120
OFFSETS vtktypeint64
0 120 
CONNECTIVITY vtktypeint64
0 1 2 3 4 5 6 7 8 
9 10 11 12 13 14 15 16 17 
18 19 20 21 22 23 24 25 26 
27 28 29 30 31 32 33 34 35 
36 37 38 39 40 41 42 43 44 
45 46 47 48 49 50 51 52 53 
54 55 56 57 58 59 60 61 62 
63 64 65 66 67 68 69 70 71 
72 73 74 75 76 77 78 79 80 
81 82 83 84 85 86 87 88 89 
90 91 92 93 94 95 96 97 98 
99 100 101 102 103 104 105 106 107 
108 109 110 111 112 113 114 115 116 
117 118 119 
CELL_DATA 1
FIELD FieldData 2
Length 1 1 double
72.45990097 
Tortuosity 1 1 double
0.54148648626 
POINT_DATA 120
FIELD FieldData 19
Curvature 1 120 double
0 0.17951911473 0.19154870869 0.19108819991 0.17844728657 0.15693394046 0.13058078552 0.10278945343 0.07634802402 
0.053679498688 0.037316167705 0.027889438478 0.021020279752 0.0083292788949 0.023292164295 0.10484718004 0.33329650828 0.98763959342 
2.0307637273 1.5501152416 0.56843155571 0.16988643953 0.037588146837 0.0090434769835 0.031831300516 0.058944479213 0.1001257788 
0.15786675935 0.22759855891 0.29103159995 0.31897234885 0.29670408549 0.24212672974 0.18396124256 0.13941610253 0.11380069295 
0.10808966494 0.12057539526 0.14584514961 0.17694711386 0.20829170268 0.23654906033 0.26029929641 0.27849014739 0.28724628675 
0.28024642431 0.25229912485 0.20755896065 0.15457949376 0.10317338449 0.062487283483 0.040295127158 0.039673390315 0.04491564264 
0.048282258685 0.050685342201 0.055841074251 0.066692810138 0.086527395257 0.11422089715 0.14887888047 0.18158714748 0.20429851802 
0.20902257966 0.19647563831 0.1718487593 0.14168457159 0.10993678031 0.078238520269 0.046414361957 0.013796696271 0.020023898401 
0.054610752385 0.088357108389 0.11799438037 0.13974333612 0.15112239605 0.15253577135 0.14840719269 0.1438123868 0.1431328816 
0.14445667725 0.14532060486 0.14145907557 0.13100360937 0.11444669774 0.094034304644 0.072062170613 0.050114891338 0.030015286621 
0.024638937941 0.042922087756 0.070204972988 0.098120971554 0.12437764927 0.1450419695 0.15523483503 0.15301023474 0.13725595114 
0.11066789194 0.077778233761 0.047151192848 0.034789541582 0.0494060333 0.072716783989 0.10137903021 0.14284325947 0.19827526124 
0.25653919958 0.28696068796 0.26311216445 0.1956364461 0.10983550786 0.036990001916 0.084783086392 0.18209737679 0.28794817292 
0.36970355742 0.37224921874 0 
Torsion 1 120 double
0 0 -0.033487811172 -0.043746010451 -0.060780581956 -0.088678415654 -0.13125319343 -0.19293461551 -0.28857361777 
-0.43895065245 -0.61487831839 -0.63609457796 -0.45379533424 -0.17491496056 -0.35023191697 -0.23151945176 -0.1843142307 -0.12829803829 
-0.086709137386 -0.11839322972 -0.24723068547 -0.45294079668 -1.0579273604 -2.313123141 -0.65742882721 -0.4249803577 -0.2396849712 
-0.1370369738 -0.084361591956 -0.059449705561 -0.049076418687 -0.043552428883 -0.030204947369 0.012725401052 0.10831773275 0.23688284877 
0.29031435422 0.21911252931 0.11614067982 0.041281871494 -0.0016250681176 -0.026573147151 -0.033741207919 -0.024466635942 -0.0031072571917 
0.030345878145 0.071704563275 0.12621822149 0.2172291948 0.39415390558 0.76805323611 1.2596474039 0.84309242159 0.3503112638 
0.098931008521 -0.009924564869 0.014693643294 0.11934160579 0.18937870082 0.19295329969 0.15854665357 0.11760630221 0.079986231473 
0.047852066352 0.018570214656 -0.0088844446798 -0.033981600544 -0.052993273753 -0.064676852049 -0.054530064269 0.26243636731 0.076049050988 
-0.088431781801 -0.11265043659 -0.13154492789 -0.16072966905 -0.20454373055 -0.26703006813 -0.33914284185 -0.3974561162 -0.41388398901 
-0.39490090365 -0.35810560802 -0.32624174755 -0.29949077214 -0.27065330134 -0.22093370713 -0.12828113828 0.085915948884 0.81586000639 
1.4826722289 0.51947929269 0.23505741791 0.18054940695 0.19160572243 0.22092213191 0.24988242193 0.27524397693 0.29964842833 
0.33517938365 0.46102007927 0.94933855655 1.4018943126 0.36028700509 -0.14535105665 -0.35741554568 -0.38384652638 -0.32482354612 
-0.26108881197 -0.21825721383 -0.21262732329 -0.26583939061 -0.54880808098 -3.8266285279 -0.80595994809 -0.22901053457 -0.10783459289 
-0.060339809853 0 0 
FrenetTangent 3 120 double
-0.23416463927 -0.68462462381 0.69025795627 -0.23416463927 -0.68462462381 0.69025795627 -0.33818459152 -0.69954650637 0.62949651904 
-0.43733796107 -0.70230552162 0.56169605848 -0.52635111047 -0.69338656679 0.49210728251 -0.60222241889 -0.67497840088 0.42630073484 
-0.66430557019 -0.65002107824 0.36901315322 -0.71341957649 -0.62152746789 0.32362959466 -0.75090568847 -0.59233794093 0.29202125052 
-0.77810598774 -0.5649607699 0.27453670121 -0.7962795636 -0.54140942 0.26984198438 -0.80680201594 -0.52304038221 0.27477129698 
-0.81140631221 -0.51061774314 0.28441047256 -0.81243928236 -0.50459757035 0.29210221579 -0.81308697671 -0.50563932614 0.28847606516 
-0.8174376051 -0.51497838496 0.25805624346 -0.82874511577 -0.5332580058 0.16975698022 -0.83432077491 -0.54954361695 -0.043711069719 
-0.74213564377 -0.49460263459 -0.45233054297 -0.47202944789 -0.30326646277 -0.82777874633 -0.25195181903 -0.13588932967 -0.95815153862 
-0.15507139447 -0.052151790688 -0.98652574895 -0.12502867919 -0.01859525137 -0.99197885361 -0.12198852894 -0.012715585795 -0.99245005551 
-0.12402911519 -0.025232530146 -0.99195770979 -0.11784090719 -0.053790263871 -0.99157457012 -0.094007844051 -0.099680506181 -0.99056868613 
-0.045044859852 -0.16549131385 -0.98518200635 0.033971949078 -0.25186379114 -0.96716624082 0.14151302227 -0.35302182101 -0.92485115474 
0.26520487229 -0.4542600913 -0.85047877409 0.38469500732 -0.53795601726 -0.75007537944 0.48356961646 -0.59527876621 -0.64171926614 
0.55683729395 -0.62956364939 -0.54183192913 0.60737014337 -0.65010458403 -0.4565802654 0.63977674568 -0.66615500853 -0.38330564866 
0.657353046 -0.68457036297 -0.31504030069 0.66155129896 -0.70916273621 -0.24379928715 0.65229078583 -0.74032325075 -0.16259832449 
0.62867621361 -0.77478340709 -0.066909569837 0.58985763667 -0.80628203043 0.044466345287 0.5355103459 -0.82737726089 0.16933852957 
0.46634486755 -0.83113161182 0.30289058808 0.38375814818 -0.812698312 0.43846452237 0.29002599904 -0.77053555584 0.56759129404 
0.18936440542 -0.70771861194 0.68064343695 0.088352991437 -0.63318309147 0.76894272971 -0.0052819578027 -0.55960457599 0.82874291517 
-0.085351428359 -0.49877316977 0.86251983096 -0.14852616665 -0.45815053437 0.87637780989 -0.1941107271 -0.43943482231 0.87705077537 
-0.22319857733 -0.4395313793 0.8700543441 -0.23817874892 -0.45332257524 0.85893511184 -0.24270616288 -0.47519377957 0.84574499133 
-0.24116383921 -0.50053785274 0.83144564502 -0.23736424236 -0.52724445659 0.81588694036 -0.23319320458 -0.5554663096 0.79817172854 
-0.22781339704 -0.58708616563 0.7768081425 -0.21756843059 -0.62505540312 0.74964639734 -0.1971045637 -0.67150733442 0.7143022405 
-0.16119347809 -0.72621582137 0.66830176074 -0.10701324199 -0.78532389953 0.60976597057 -0.036173534741 -0.84172483134 0.53869358979 
0.044893007416 -0.88780384404 0.4580272398 0.12708879052 -0.91891942752 0.37341066543 0.20214360617 -0.93508022971 0.29114073313 
0.26478142201 -0.93972665498 0.21634373685 0.312870311 -0.9374640451 0.15255599835 0.34652931482 -0.93245139244 0.10223421494 
0.36709160525 -0.92773701517 0.067437260082 0.37645303464 -0.92507354191 0.050220063426 0.37683098862 -0.92479031869 0.052547811353 
0.3705385146 -0.92570814615 0.075931794101 0.35991776994 -0.92514409744 0.12069630426 0.34759382676 -0.91921364947 0.18499945468 
0.33653020935 -0.90387179381 0.2641272393 0.3302263301 -0.87629251437 0.35080193865 0.33243661481 -0.83600622261 0.43655411222 
0.34661017702 -0.78484489718 0.51369239099 0.37509042009 -0.72592102568 0.57649444163 0.41846365031 -0.66256896041 0.62120089027 
0.47495765097 -0.59830800791 0.64532376173 0.54026163678 -0.53710864223 0.64778983495 0.60825378236 -0.48297190295 0.62989322683 
0.67232739185 -0.43948134688 0.5956777853 0.7271892116 -0.40852892906 0.55163390455 0.77007442074 -0.3895721212 0.50519199212 
0.80098695137 -0.37955030719 0.46299186608 0.82183209098 -0.37409227342 0.42970569603 0.83529673713 -0.36827749254 0.40822916287 
0.84395122202 -0.35729825939 0.40010534698 0.84931606962 -0.33766817621 0.40576152683 0.8512122831 -0.30726141042 0.42547394135 
0.84766209432 -0.26600814783 0.45903010701 0.83544286226 -0.21619584473 0.50526684101 0.81101318225 -0.16248096747 0.56201205808 
0.77248500853 -0.11183627948 0.62510763728 0.72155844886 -0.071362389625 0.68866596709 0.66393226478 -0.046051304015 0.74637338188 
0.6080484522 -0.03705795341 0.79303454393 0.56241132818 -0.041500475153 0.8258154809 0.53273404321 -0.054855948345 0.8445029687 
0.52069045221 -0.074014638516 0.85053117889 0.52394693453 -0.098929960983 0.84598609481 0.53649825358 -0.13300362109 0.83335446281 
0.54978966675 -0.18196653458 0.81524199023 0.55314887806 -0.25206675703 0.79403316599 0.53470180834 -0.34660126527 0.77068900282 
0.48392889611 -0.46117683342 0.74372626135 0.39765607036 -0.57983797884 0.71109603289 0.28884493715 -0.67916370678 0.67476311523 
0.18273471683 -0.74375816045 0.64298664219 0.10268877136 -0.77357143037 0.62533371758 0.063030025325 -0.77657409241 0.62686513295 
0.071065046544 -0.75893074812 0.64728191595 0.13277444415 -0.71939138673 0.68179687567 0.25206355259 -0.64824362902 0.71850133116 
0.41996622589 -0.53173132671 0.7354523542 0.60118632885 -0.36976092827 0.70841502944 0.60118632885 -0.36976092827 0.70841502944 

FrenetNormal 3 120 double
-0.86850208008 -0.17174909226 -0.46497998473 -0.86850208008 -0.17174909226 -0.46497998473 -0.84227472099 -0.073371529326 -0.53403175286 
-0.80545632908 0.028106194517 -0.59198829699 -0.76317485866 0.13010710595 -0.63295835257 -0.72163322092 0.2318793643 -0.6522863289 
-0.68746736347 0.33754657018 -0.64300150631 -0.66376635209 0.45135953321 -0.59639651375 -0.64885335834 0.57936282747 -0.49328291427 
-0.62736797974 0.72056309004 -0.29529350021 -0.55162618237 0.83295922863 0.043445118879 -0.36986155469 0.80978915195 0.45546016263 
-0.1496609661 0.65188935795 0.74339885675 0.013397720954 0.48470427609 0.87457547748 -0.10212031685 -0.36396934323 -0.92579574317 
-0.13593411324 -0.26288232642 -0.95520406161 -0.099178866623 -0.15858552026 -0.98235135526 0.054278978125 -0.002983644259 -0.998521352 
0.37528323334 0.25252450147 -0.89184856951 0.66804763181 0.48963636153 -0.56032900612 0.74597321659 0.60344486244 -0.28174147391 
0.70111644398 0.69771033005 -0.14709190095 0.51481853751 0.85347481135 -0.080886462579 -0.63932409178 -0.76384254337 0.088370100216 
-0.034103345788 -0.99897764961 0.029675198016 0.33387241155 -0.94254869931 0.011452608535 0.53362425252 -0.84502210998 0.0343917253 
0.63605873477 -0.76520424984 0.099457236809 0.68811968952 -0.69591892642 0.20539751885 0.70532453634 -0.61958819846 0.34442381272 
0.69167468728 -0.52490281929 0.49604753531 0.65281770633 -0.41592441669 0.63311604142 0.59991277422 -0.30846653574 0.73820936031 
0.53828825713 -0.22329159482 0.81264175127 0.45653668863 -0.18471435183 0.87031882673 0.32885165537 -0.21349904923 0.91993192397 
0.14933511702 -0.29142991936 0.9448638129 -0.031732043817 -0.3512907681 0.93572852561 -0.17263009968 -0.35398371291 0.91918136387 
-0.27614169671 -0.30284058095 0.91215861881 -0.35817414176 -0.21188461393 0.90929433879 -0.4289472926 -0.093745842063 0.89845196714 
-0.48827492537 0.043668068847 0.87159663665 -0.54210343712 0.18611966438 0.81944086669 -0.5899043109 0.32307774004 0.74002275496 
-0.63447188069 0.44084634071 0.63490151716 -0.67893445022 0.52658274855 0.51162351513 -0.72628124476 0.57182182988 0.38149095453 
-0.78803337168 0.56351987856 0.24788858704 -0.87645868146 0.4714175259 0.097906567518 -0.97130482612 0.21135096744 -0.10907659385 
-0.85930050885 -0.33267315795 -0.38849865567 -0.35310725642 -0.7834465975 -0.51139680711 -0.013477624674 -0.87007646608 -0.49273247996 
0.11407664577 -0.86541396658 -0.48789874496 0.12968781266 -0.84957135946 -0.51128228645 0.11956743159 -0.83095091419 -0.54334538511 
0.15711700211 -0.80949565995 -0.56571284603 0.25985709336 -0.77741923227 -0.57279457777 0.3861258999 -0.72287811473 -0.57302183263 
0.49823214489 -0.64441268382 -0.58008363426 0.58457517771 -0.54578297375 -0.60032725006 0.64104453122 -0.43307516634 -0.63364643871 
0.67069383773 -0.31301122655 -0.67245352857 0.67443380608 -0.1959894901 -0.71184770912 0.65749372581 -0.090749252479 -0.74797498199 
0.62266041828 -0.004698513455 -0.78247806837 0.57735130519 0.060176712093 -0.81427528129 0.52505062058 0.10249339274 -0.84487688468 
0.47676700809 0.12540641667 -0.87003818919 0.47035479411 0.14414380133 -0.87062559817 -0.26995647447 -0.055379989681 0.96127860615 
-0.25861276152 -0.024306295797 0.96567522675 -0.21606261629 0.043198917817 0.97542339491 -0.16785101124 0.13311431725 0.97678381261 
-0.11009844193 0.24079664589 0.96431079451 -0.03154570758 0.36119744208 0.9319556192 0.077538429379 0.48553995524 0.8707690531 
0.22583146934 0.6013550455 0.76640215077 0.40039410112 0.68776811829 0.60552421855 0.56755080628 0.72474308759 0.3906834259 
0.69116570139 0.70752907542 0.14728401358 0.75555995077 0.64852691532 -0.092422945719 0.7670906304 0.56159508525 -0.31013372112 
0.73841273304 0.45488108896 -0.4978251004 0.68191386117 0.33782802167 -0.64874163865 0.61092056008 0.22224491607 -0.75985739882 
0.54471053588 0.14113519304 -0.82666274223 0.50512341844 0.12957799904 -0.85326424647 0.53462229669 0.37081347856 -0.75939210162 
0.41973027328 0.90430934859 -0.077788815097 0.13644290008 0.88295705504 0.44918835023 -0.006958111902 0.80402372984 0.59455649565 
-0.11657823082 0.75068121768 0.65029779757 -0.23120857303 0.69579000569 0.68001387025 -0.36050239554 0.61779555725 0.69883236349 
-0.49508445856 0.51040275928 0.70312189712 -0.62081375664 0.3736506359 0.68918465005 -0.72451125313 0.20750015099 0.65728770826 
-0.79303873638 0.018162543443 0.60890038974 -0.81283409182 -0.2109092009 0.54297149846 -0.71148817067 -0.56936048844 0.41184125243 
-0.15368391319 -0.98808686529 0.0080994727424 0.31251793664 -0.90163059122 -0.29898965911 0.33257604609 -0.87426131326 -0.35363869939 
0.17758057169 -0.92821082391 -0.32694006628 -0.059304053309 -0.96262296659 -0.26427268767 -0.28852140894 -0.93208858333 -0.21901203028 
-0.48661623336 -0.84817101221 -0.2093097596 -0.65146340785 -0.72417620349 -0.22619516911 -0.77840231622 -0.57692625384 -0.24747915413 
-0.87752361949 -0.41830145494 -0.23447001947 -0.96454074861 -0.23109974662 -0.12749137766 -0.77896022109 0.3543793684 0.51733571035 
0.63903527064 0.53290179514 0.55466169834 0.80769299458 0.4772255285 0.34624820787 0.83450475916 0.52153363894 0.17777646189 
0.79015278084 0.61285630737 -0.0081073693118 0.67932492463 0.70332938885 -0.20939297399 0.67932492463 0.70332938885 -0.20939297399 

FrenetBinormal 3 120 double
0.43688792454 -0.70837234121 -0.55438034562 0.43688792454 -0.70837234121 -0.55438034562 0.41976716931 -0.71081031514 -0.5643972178 
0.39996951103 -0.71132060011 -0.57796833314 0.37485816467 -0.70872223753 -0.59765721481 0.3414288398 -0.70045422316 -0.62672978914 
0.29340540822 -0.68083398182 -0.67110234363 0.22460351227 -0.64029538374 -0.73455774711 0.12300392835 -0.55988791546 -0.81938730508 
-0.030991770521 -0.40200517626 -0.91511275175 -0.24828896777 -0.11425744338 -0.96192402253 -0.46073087311 0.26583883831 -0.84679204921 
-0.56499680684 0.56063337876 -0.60536668465 -0.58289185407 0.71445297728 -0.38703233678 0.57311517969 -0.78221172904 0.24430268471 
0.55974787058 -0.81589836713 0.14488676924 0.55076772373 -0.83095519254 0.078539050712 0.5486006171 -0.83545970037 0.032317982354 
0.555335197 -0.83162468098 -0.0017913575389 0.57523956918 -0.81748742255 -0.028526339138 0.61647728345 -0.7857406621 -0.050669230418 
0.69598031193 -0.71447917119 -0.071630435781 0.84813306905 -0.52080223024 -0.097135648267 -0.75919925216 0.64527736891 0.085050647864 
-0.99169236177 0.037509665337 0.12304180027 -0.93522336017 -0.32970980718 0.12902987891 -0.84048062582 -0.52535838276 0.13263064234 
-0.77032476691 -0.62215358319 0.1397307139 -0.72480148977 -0.6725038874 0.14967071143 -0.69461598237 -0.70106066658 0.16131515369 
-0.67175330494 -0.71980886335 0.17499342144 -0.65256324877 -0.73321906897 0.19118316677 -0.63738927616 -0.74195120246 0.20795029169 
-0.63259622216 -0.74417099852 0.21454963216 -0.65013518661 -0.73705131303 0.1846066117 -0.69465265022 -0.71460174964 0.082474450368 
-0.73863793278 -0.66815568564 -0.089341949925 -0.74922824042 -0.61129617193 -0.25490004697 -0.73804849394 -0.57150416919 -0.35870239084 
-0.72698829549 -0.55497590454 -0.40433867438 -0.72372595134 -0.55228090478 -0.41377113189 -0.72748394457 -0.55376762749 -0.40510310433 
-0.73763816453 -0.55435849737 -0.38545634595 -0.74756507889 -0.55216023417 -0.36914161054 -0.75358995737 -0.54945039001 -0.36084130177 
-0.74939078896 -0.55207686982 -0.36554695353 -0.72886333507 -0.5672651775 -0.38336465302 -0.68737737411 -0.59988541689 -0.4094506468 
-0.60968724671 -0.65853676555 -0.44114712922 -0.45799580512 -0.75356725256 -0.47156785128 -0.13743347623 -0.8730565878 -0.46785065363 
0.46020107623 -0.83435048786 -0.30343736232 0.90475750841 -0.4251000725 0.026528839626 0.97000622273 -0.1309878431 0.20476843709 
0.96375646382 -0.022815004152 0.26580623401 0.96272492837 -0.015549539883 0.27003504238 0.96505158341 -0.031269108003 0.2601877865 
0.96094500559 -0.0068271986387 0.27665517451 0.94081787241 0.070178916528 0.33156696252 0.90114182036 0.16286537711 0.4017689492 
0.85192804416 0.2394637211 0.46569918816 0.80425122172 0.29221108532 0.51748686357 0.76665075776 0.32240534828 0.5552489595 
0.74037449573 0.33738450849 0.58139255199 0.72731525526 0.34230864071 0.59484225973 0.72583742188 0.34262156554 0.59646500302 
0.73633199174 0.34189433731 0.58388651299 0.75417348063 0.34284096526 0.56007359664 0.77732829602 0.34645274596 0.52510114742 
0.79870956758 0.35153557622 0.48835004382 0.79815379493 0.35137089606 0.48937614678 -0.88607105127 -0.37642518939 -0.27052203032 
-0.89208780329 -0.37745679507 -0.24840635877 -0.90762114603 -0.37715017231 -0.18434099597 -0.92249908923 -0.37057636889 -0.10802122568 
-0.93521428094 -0.35359971107 -0.018479530552 -0.94337449576 -0.31882257932 0.091633638327 -0.93993281095 -0.2556257961 0.22623386853 
-0.91041832838 -0.1496348777 0.3856784551 -0.83605725913 0.0036986402495 0.54862972897 -0.70906576258 0.18907625362 0.67932018567 
-0.54470652925 0.37607198128 0.74957632159 -0.37046798055 0.53937662774 0.75619199205 -0.20395906696 0.67182520136 0.71207555626 
-0.052177714013 0.77455751281 0.63034763862 0.078672336214 0.84792472655 0.52424643215 0.18374290678 0.89377892102 0.40914274349 
0.24841565136 0.91434261719 0.31979249922 0.26351915753 0.91829434994 0.29545412585 0.12829014311 0.85256615732 0.50662864761 
-0.33402519746 0.23358629219 0.91316187588 -0.50994661377 -0.32613960468 0.79598204086 -0.5247754127 -0.50905428739 0.68225691547 
-0.51756979235 -0.60474571079 0.60531325389 -0.49857579129 -0.68493475945 0.53130646113 -0.46075551112 -0.76936895223 0.44246556286 
-0.39769119992 -0.85263220084 0.33891007598 -0.30650234005 -0.92482031316 0.22530802007 -0.18514154551 -0.97715043097 0.10440135721 
-0.03696812663 -0.99914805214 -0.018344686117 0.15163850799 -0.97662429805 -0.15235072484 0.45823468028 -0.82025572789 -0.34234707339 
0.83979920684 -0.13493027799 -0.52586225599 0.79234597814 0.42104054412 -0.44148919707 0.77560479464 0.46688027685 -0.42480584932 
0.81620859031 0.32451940878 -0.47800699831 0.83096892118 0.099092755482 -0.54742239436 0.79426026764 -0.10525414831 -0.59839133643 
0.72733586804 -0.26061823104 -0.63487059525 0.6461153751 -0.37330516281 -0.66571628903 0.55736741597 -0.45375407108 -0.69530482998 
0.44335123829 -0.52139015292 -0.7291035509 0.24313815107 -0.59006791916 -0.7698725156 -0.62389757962 -0.52091068549 -0.58258378615 
-0.76588751265 0.37421891493 0.5228542069 -0.57445885274 0.50470964687 0.64441073771 -0.48996507263 0.55478181377 0.67242201534 
-0.44641567181 0.58452454414 0.67752793689 -0.42082376927 0.6071281798 0.67401982798 -0.42082376927 0.6071281798 0.67401982798 

plain_curvature_peaks 1 120 unsigned_char
0 0 0 0 0 0 0 0 0 
0 0 0 0 0 0 0 0 0 
0 0 0 0 0 0 1 0 0 
0 0 0 0 0 0 0 0 0 
0 0 0 0 0 0 0 0 0 
0 0 0 0 0 0 0 0 0 
0 0 0 0 0 0 0 0 0 
0 0 0 0 0 0 0 0 1 
0 0 0 0 0 0 0 0 0 
0 0 0 0 0 0 0 0 0 
0 0 0 0 1 0 0 0 0 
0 0 0 0 0 0 0 0 0 
0 0 0 0 0 0 0 0 0 
1 0 0 
weighted_curvature_peaks 1 120 unsigned_char
0 0 0 1 0 0 0 0 0 
0 0 0 0 0 0 0 0 0 
0 0 0 0 0 0 0 0 0 
0 0 0 0 0 0 0 0 0 
0 0 0 0 0 0 0 0 0 
1 0 0 0 0 0 0 0 0 
0 0 0 0 0 0 0 0 0 
0 0 0 1 0 0 0 0 0 
0 0 0 0 0 0 0 0 0 
0 0 0 0 0 0 0 0 0 
0 0 0 0 0 1 0 0 0 
0 0 0 0 0 0 0 0 0 
0 0 0 0 0 0 0 0 0 
0 0 0 
plain_torsion_tp 1 120 unsigned_char
0 0 0 0 0 0 0 0 0 
0 0 0 0 0 0 0 0 0 
0 0 0 0 0 0 1 0 0 
0 0 0 0 0 0 0 0 0 
0 0 0 0 0 0 0 0 0 
0 0 0 0 0 0 0 0 0 
0 0 0 0 0 0 0 0 0 
0 0 0 0 0 0 0 0 1 
0 0 0 0 0 0 0 0 0 
0 0 0 0 0 0 0 0 0 
0 0 0 0 1 0 0 0 0 
0 0 0 0 0 0 0 0 0 
0 0 0 0 0 0 0 0 0 
1 0 0 
plain_torsion_tn 1 120 unsigned_char
0 0 0 0 0 0 0 0 0 
0 0 0 0 0 0 2 0 0 
0 0 0 0 0 0 0 0 0 
0 0 0 0 0 0 0 0 0 
0 0 0 0 0 0 0 0 0 
2 0 0 0 0 0 0 0 0 
0 0 0 0 0 0 0 0 0 
0 0 0 0 0 0 0 0 0 
0 0 0 0 0 0 0 0 0 
0 0 0 0 0 0 0 0 2 
0 0 0 0 0 0 0 0 0 
0 0 0 0 0 2 0 0 0 
0 0 0 0 0 0 0 0 0 
0 0 0 
plain_torsion_tz 1 120 unsigned_char
0 0 0 0 0 0 0 0 0 
0 0 0 0 0 0 0 3 0 
0 0 0 0 0 0 0 0 0 
0 0 0 0 0 0 0 0 0 
0 3 0 0 0 0 0 0 0 
0 0 0 0 0 0 0 0 0 
3 0 0 0 0 0 0 0 0 
0 0 0 0 0 0 0 0 0 
0 0 0 0 0 0 0 0 0 
0 0 0 0 0 0 0 0 3 
0 0 0 0 0 0 0 0 0 
0 3 0 0 0 0 0 0 0 
3 0 0 0 0 0 0 0 0 
0 0 0 
weighted_torsion_tp 1 120 unsigned_char
0 0 0 1 0 0 0 0 0 
0 0 0 0 0 0 0 0 0 
0 0 0 0 0 0 0 0 0 
0 0 0 0 0 0 0 0 0 
0 0 0 0 0 0 0 0 0 
1 0 0 0 0 0 0 0 0 
0 0 0 0 0 0 0 0 0 
0 0 0 1 0 0 0 0 0 
0 0 0 0 0 0 0 0 0 
0 0 0 0 0 0 0 0 0 
0 0 0 0 0 1 0 0 0 
0 0 0 0 0 0 0 0 0 
0 0 0 0 0 0 0 0 0 
0 0 0 
weighted_torsion_tn 1 120 unsigned_char
0 2 0 0 0 0 0 0 0 
0 0 0 0 0 0 0 0 2 
0 0 0 0 0 0 0 0 0 
0 0 0 0 0 0 0 0 0 
0 0 0 0 0 0 0 0 0 
0 0 0 0 0 0 0 0 0 
0 0 2 0 0 0 0 0 0 
0 0 0 0 0 0 0 0 0 
0 0 0 0 0 0 2 0 0 
0 0 0 0 0 0 0 0 0 
0 0 0 0 0 0 0 0 0 
0 0 0 0 0 0 0 0 0 
0 0 0 0 0 0 0 0 0 
0 0 0 
weighted_torsion_tz 1 120 unsigned_char
0 3 0 0 0 0 0 0 0 
3 0 0 0 0 0 0 0 0 
0 0 0 0 0 0 0 0 0 
0 0 3 0 0 0 0 0 0 
0 0 0 0 0 0 0 0 0 
0 0 0 0 0 0 0 0 0 
0 0 0 3 0 0 0 0 0 
0 0 0 0 0 0 0 0 0 
0 0 3 0 0 0 0 0 0 
0 3 0 0 0 0 0 0 0 
0 0 0 0 0 0 0 0 0 
0 0 0 0 0 0 0 0 0 
0 0 0 0 0 0 0 0 0 
0 0 0 
plain_torsion_tp_raw 1 120 unsigned_char
0 0 0 0 0 0 0 0 0 
0 0 0 0 0 0 0 0 0 
0 0 0 0 0 0 0 0 0 
0 0 0 0 1 0 0 0 0 
0 0 0 0 0 0 0 0 0 
0 0 0 0 1 0 0 0 0 
0 0 0 0 0 0 0 0 0 
0 0 0 0 0 0 0 0 0 
0 0 0 0 0 0 0 0 0 
0 0 0 0 0 0 0 0 1 
0 0 0 0 0 0 1 0 0 
0 0 0 0 0 0 0 0 0 
0 0 0 1 0 0 0 0 0 
0 1 0 
plain_torsion_tn_raw 1 120 unsigned_char
0 0 0 0 0 0 0 0 0 
0 0 0 0 0 0 0 0 0 
0 0 0 2 0 0 0 0 0 
0 0 0 0 0 0 0 0 0 
0 0 0 2 0 0 0 0 0 
0 0 0 0 0 0 0 0 0 
0 0 0 0 0 0 0 0 0 
0 0 0 0 0 0 0 0 0 
0 0 0 0 0 0 0 0 0 
0 0 0 0 2 0 0 0 0 
2 0 0 0 0 0 0 0 0 
0 0 0 0 0 0 2 0 0 
0 0 0 0 0 0 0 2 0 
0 0 0 
plain_torsion_tz_raw 1 120 unsigned_char
0 0 0 0 0 0 0 0 0 
0 0 0 0 0 0 3 0 0 
0 0 0 0 0 0 0 3 0 
0 0 0 0 0 3 0 0 0 
0 0 0 0 0 0 0 0 3 
0 0 0 0 0 0 0 0 0 
0 0 0 0 0 0 0 0 0 
0 0 0 0 0 0 0 0 0 
0 0 0 0 0 0 0 0 0 
0 0 0 0 0 0 0 0 0 
0 0 0 0 0 0 0 0 0 
0 0 0 0 0 0 0 0 0 
0 0 0 0 0 0 0 0 0 
0 0 0 
weighted_torsion_tp_raw 1 120 unsigned_char
0 0 0 0 0 1 0 0 0 
0 0 0 0 0 0 0 0 0 
0 0 0 1 0 0 0 0 0 
0 0 0 0 0 0 0 0 0 
0 0 0 0 0 0 0 0 0 
0 0 0 0 0 0 0 0 0 
0 0 0 1 0 0 0 0 0 
0 0 0 0 0 0 1 0 0 
0 0 0 0 0 0 0 0 0 
0 0 0 0 0 0 1 0 0 
0 0 0 0 0 0 0 0 1 
0 0 0 0 0 0 0 0 0 
0 0 0 0 0 0 0 0 0 
0 0 0 
weighted_torsion_tn_raw 1 120 unsigned_char
0 0 2 0 0 0 0 0 0 
0 0 0 2 0 0 0 0 0 
0 0 0 0 0 0 0 0 0 
0 0 0 0 0 0 0 0 0 
0 0 0 0 0 0 0 0 0 
0 0 0 0 0 0 0 0 0 
0 2 0 0 0 2 0 0 0 
0 0 0 0 0 0 0 0 0 
0 0 0 0 0 0 0 2 0 
0 0 0 0 0 0 0 0 0 
0 0 2 0 0 0 0 0 0 
0 0 0 0 0 0 0 0 0 
0 0 0 0 0 0 0 0 0 
0 0 0 
weighted_torsion_tz_raw 1 120 unsigned_char
0 3 0 3 0 3 0 0 0 
0 0 0 0 0 0 0 3 0 
0 0 0 0 0 0 0 0 0 
0 0 0 0 0 0 0 0 0 
0 0 0 0 0 0 0 0 0 
0 0 0 0 0 0 0 0 0 
0 0 0 0 0 0 0 0 0 
0 0 0 0 0 0 0 0 0 
0 0 0 0 0 0 0 0 0 
0 0 0 0 0 0 0 0 0 
0 0 0 0 0 0 0 0 0 
0 0 0 0 0 0 0 0 0 
0 0 0 0 0 0 0 0 0 
0 0 0 
