# vtk DataFile Version 5.1
vtk output
ASCII
DATASET POLYDATA
POINTS 120 float
-5.16608 19.701 -7.56802 -5.25669 19.1993 -7.79136 -5.39916 18.63 -7.82213 
-5.59522 18.0128 -7.7127 -5.8462 17.368 -7.51473 -6.15202 16.7167 -7.27773 
-6.50937 16.0812 -7.04684 -6.90957 15.4846 -6.86056 -7.33689 14.9493 -6.74904 
-7.76871 14.4933 -6.7332 -8.17827 14.1264 -6.82425 -8.53961 13.8459 -7.02316 
-8.83356 13.6349 -7.32025 -9.05258 13.463 -7.69553 -9.20211 13.2915 -8.12059 
-9.29818 13.0809 -8.56256 -9.36205 12.799 -8.98952 -9.41387 12.4266 -9.37641 
-9.4672 11.9608 -9.71004 -9.52541 11.4138 -9.99137 -9.58076 10.8101 -10.2343 
-9.61629 10.1806 -10.4614 -9.60953 9.55653 -10.6974 -9.53727 8.96404 -10.9627 
-9.3807 8.41934 -11.2689 -9.13002 7.9274 -11.6148 -8.78717 7.48203 -11.9849 
-8.3661 7.07026 -12.351 -7.891 6.67708 -12.6755 -7.39318 6.29172 -12.9179 
-6.90743 5.9118 -13.0416 -6.46815 5.5445 -13.0204 -6.10486 5.20454 -12.8426 
-5.83759 4.91085 -12.513 -5.67342 4.68156 -12.0513 -5.60567 4.52991 -11.488 
-5.61668 4.46044 -10.8581 -5.68294 4.46686 -10.1947 -5.78088 4.53321 -9.52342 
-5.8907 4.63714 -8.85948 -5.99785 4.75521 -8.20753 -6.09242 4.86802 -7.56399 
-6.16748 4.96253 -6.92109 -6.21723 5.03104 -6.27159 -6.23562 5.06783 -5.61286 
-6.21619 5.06449 -4.94941 -6.15379 5.00848 -4.29318 -6.04716 4.8835 -3.66161 
-5.90108 4.67332 -3.07399 -5.727 4.36633 -2.54733 -5.5416 3.95893 -2.09259 
-5.36397 3.45729 -1.7127 -5.21237 2.87565 -1.40247 -5.10148 2.23351 -1.15049 
-5.04052 1.55151 -0.94216 -5.03237 0.847711 -0.762717 -5.07354 0.135828 -0.599728 
-5.15444 -0.575662 -0.444391 -5.26004 -1.28219 -0.291928 -5.37073 -1.98156 -0.141153 
-5.46359 -2.67206 0.00647233 -5.51428 -3.35125 0.147987 -5.49963 -4.01499 0.280334 
-5.40061 -4.65793 0.401769 -5.20536 -5.27523 0.513107 -4.91129 -5.86273 0.618493 
-4.52561 -6.41806 0.725375 -4.06378 -6.94001 0.843533 -3.54629 -7.42669 0.983263 
-2.99439 -7.87302 1.15318 -2.42633 -8.26954 1.35815 -1.85468 -8.60229 1.59829 
-1.28588 -8.85486 1.86905 -0.721151 -9.01245 2.16275 -0.158724 -9.06711 2.47086 
0.403992 -9.02025 2.7861 0.968844 -8.88425 3.10406 1.5365 -8.67905 3.42308 
2.10598 -8.4279 3.74315 2.67596 -8.15188 4.06447 3.245 -7.86612 4.38561 
3.81257 -7.57833 4.7035 4.37913 -7.29033 5.01358 4.94666 -7.00042 5.31132 
5.51778 -6.70705 5.59371 6.09593 -6.41127 5.8604 6.6834 -6.11789 6.11346 
7.28173 -5.83548 6.35826 7.88975 -5.57435 6.602 8.50398 -5.34625 6.85333 
9.11942 -5.16132 7.12119 9.72976 -5.02818 7.41418 10.3293 -4.95252 7.73855 
10.9142 -4.93706 8.09723 11.4837 -4.9811 8.48913 12.0394 -5.08287 8.90777 
12.5848 -5.2389 9.34287 13.1209 -5.4463 9.78161 13.645 -5.70369 10.2115 
14.1463 -6.01026 10.6233 14.6064 -6.36592 11.0131 15.0003 -6.7694 11.3826 
15.3019 -7.2176 11.7373 15.4906 -7.70511 12.0833 15.556 -8.2255 12.4243 
15.5035 -8.77262 12.7587 15.3522 -9.34202 13.08 15.133 -9.93176 13.3788 
14.8815 -10.5415 13.6453 14.6317 -11.1713 13.8739 14.4095 -11.8201 14.0653 
14.2287 -12.4834 14.2279 14.0897 -13.1532 14.3772 13.9802 -13.8174 14.534 
13.8794 -14.4609 14.7217 13.76 -15.0663 14.9639 13.5926 -15.6154 15.2831 
13.3469 -16.0898 15.7004 12.993 -16.4712 16.2357 12.5005 -16.7416 16.909 

LINES 2 120
OFFSETS vtktypeint64
0 120 
CONNECTIVITY vtktypeint64
0 1 2 3 4 5 6 7 8 
9 10 11 12 13 14 15 16 17 
18 19 20 21 22 23 24 25 26 
27 28 29 30 31 32 33 34 35 
36 37 38 39 40 41 42 43 44 
45 46 47 48 49 50 51 52 53 
54 55 56 57 58 59 60 61 62 
63 64 65 66 67 68 69 70 71 
72 73 74 75 76 77 78 79 80 
81 82 83 84 85 86 87 88 89 
90 91 92 93 94 95 96 97 98 
99 100 101 102 103 104 105 106 107 
108 109 110 111 112 113 114 115 116 
117 118 119 
CELL_DATA 1
FIELD FieldData 2
Length 1 1 double
79.25321079 
Tortuosity 1 1 double
0.67479318169 
POINT_DATA 120
FIELD FieldData 19
Curvature 1 120 double
0 0.65829212397 0.37108944131 0.18571576666 0.10284859444 0.092888205934 0.122662632 0.17157133592 0.24338664329 
0.35092532455 0.4898015739 0.58667871429 0.53439763494 0.3765819744 0.2766509693 0.30475632185 0.35054014018 0.32924799575 
0.24547003965 0.14588678824 0.072954352645 0.097276266405 0.17772741264 0.25061657708 0.27547926891 0.23837004619 0.17792707657 
0.14643674207 0.17634711235 0.26179141139 0.39950239876 0.5761808015 0.70077207672 0.6550023994 0.49129102763 0.33462106529 
0.22376041051 0.14687736595 0.086453403737 0.034967864488 0.026292917996 0.060389012144 0.086109204549 0.10484701193 0.12628060236 
0.15599448891 0.19791790952 0.24786619021 0.29177835129 0.30942142951 0.28900932541 0.24318122268 0.19261924368 0.15133973661 
0.12167080466 0.098687270766 0.075506322155 0.047227095638 0.011562621501 0.031737802062 0.082545880705 0.13864047159 0.19332335304 
0.23128627262 0.23718208828 0.21002940578 0.16768093469 0.13157709359 0.11513016417 0.11890729543 0.13891972056 0.17262583325 
0.21464397511 0.24616903928 0.24593518283 0.2059780165 0.14671822121 0.089383869834 0.04567180187 0.018387626782 0.0072583826331 
0.013265520129 0.024035675777 0.032448228491 0.035272188998 0.033600793785 0.035108905379 0.04704997154 0.069322099038 0.094056813759 
0.11980622181 0.14032778577 0.15078285141 0.1467671733 0.13218820885 0.11243201313 0.10010508865 0.09956309031 0.10896172148 
0.13065892786 0.17023720387 0.23012170143 0.2948020528 0.32869732297 0.30048362324 0.22875608429 0.1499839388 0.095959549617 
0.084234843102 0.098253023404 0.10400213804 0.088849595205 0.061206002247 0.076313628675 0.15061167433 0.24612980786 0.32858958606 
0.34441631446 0.28259008634 0 
Torsion 1 120 double
0 0 0.23408174694 0.50977468832 0.97031590202 0.81999282923 0.40923194367 0.25982139841 0.23773022336 
0.26241595267 0.29934993265 0.36571543094 0.55355131637 1.0561552814 1.5757598156 0.92875126676 0.40900012004 0.17510708912 
-0.0010922425609 -0.36103629622 -1.755837457 -0.89463053636 -0.16807856435 0.011880081042 0.11415301731 0.26284298125 0.55806739994 
0.8470052287 0.58490079037 0.26800169466 0.10394557927 0.016926211 -0.03468309941 -0.079047776566 -0.12874408198 -0.1698686547 
-0.19123152215 -0.20657626749 -0.29505895339 -1.1999792831 -1.6977581323 -0.19539055958 -0.020237971466 -0.015313405504 -0.076789847501 
-0.14347439842 -0.1786400334 -0.18627113155 -0.1868763521 -0.19274558076 -0.21361757122 -0.25090909408 -0.29767232892 -0.3300871488 
-0.31984411131 -0.2658892112 -0.19627318004 -0.13274792107 0.053536853641 -0.0027493985289 -0.0063380623499 0.011941842668 0.030769565643 
0.054675346873 0.089367917902 0.14537102251 0.23388310417 0.32768352745 0.30530491497 0.12893575971 -0.053092992089 -0.14327409138 
-0.14856663134 -0.12043656496 -0.085504477487 -0.052925348142 -0.01964773441 0.022015652816 0.049593658605 -0.17479050037 -1.8319519045 
-0.21879376297 -0.010069900232 -0.12397462665 -0.32107104949 -0.66937772236 -0.87814975244 -0.61776287625 -0.34538481794 -0.2194909367 
-0.13930754816 -0.07629520036 -0.024367446954 0.045710721184 0.13841327686 0.2284103494 0.25252004364 0.11201167737 -0.10756592992 
-0.26501112904 -0.29357868991 -0.22410791282 -0.13696735651 -0.055286780732 0.03065494231 0.15944425741 0.42473601875 0.90166730587 
0.91333685895 0.51194430157 0.38241313751 0.54011465554 1.4082617602 1.2361473038 0.4235601082 0.19163987274 0.10459346008 
0.067875586033 0 0 
FrenetTangent 3 120 double
-0.20714563557 -0.95188667399 -0.22583721026 -0.20714563557 -0.95188667399 -0.22583721026 -0.273807571 -0.95967769713 0.063624929893 
-0.32545135523 -0.91869366493 0.22379313081 -0.37719671483 -0.87800626406 0.29466529926 -0.4358954036 -0.84582483233 0.30753138073 
-0.50323833086 -0.81850742615 0.27712231178 -0.5772941341 -0.78966406079 0.20775503321 -0.65186110661 -0.75215644775 0.09663216755 
-0.71345477661 -0.69779315803 -0.063772959326 -0.73587834469 -0.61796082014 -0.27678057481 -0.6843251762 -0.51322047794 -0.51798049601 
-0.55256676375 -0.41242904906 -0.72427360237 -0.38972187697 -0.36311133385 -0.84632559801 -0.25092242557 -0.39036761767 -0.88580531688 
-0.15811600823 -0.48692308814 -0.85901410593 -0.11011418985 -0.62275923783 -0.77462623045 -0.094707137404 -0.75492141302 -0.64894084344 
-0.093717122598 -0.85101686002 -0.51670823962 -0.089439111728 -0.90634562692 -0.41296277055 -0.06869958497 -0.93221021544 -0.35533713747 
-0.02152888727 -0.93783797107 -0.34640503321 0.059954572675 -0.92292072451 -0.38029302583 0.17695546515 -0.87938567419 -0.44200407168 
0.31554362782 -0.80321915875 -0.50524370551 0.44950547718 -0.70986747633 -0.54224809086 0.56009130353 -0.62843588003 -0.53978336062 
0.64541580921 -0.57971510098 -0.49736187522 0.71069665767 -0.56870591855 -0.41410607214 0.75724050155 -0.58918567346 -0.28186355741 
0.77503251721 -0.62606146752 -0.085858232931 0.73759139347 -0.64999904659 0.18292122818 0.61344505952 -0.61644924153 0.49363497806 
0.41404676851 -0.50188776708 0.75939050741 0.20747627732 -0.34078100124 0.91696341451 0.046705615097 -0.18201534331 0.98218582779 
-0.059573114949 -0.048612673475 0.99703954383 -0.12192810458 0.054032705913 0.99106710368 -0.15253879432 0.12502388965 0.98035755887 
-0.16047954935 0.16420640718 0.97328442404 -0.1515261831 0.17342642377 0.97312028618 -0.12908917992 0.15776751973 0.97900224379 
-0.095375586847 0.12457484987 0.98761561562 -0.051848228878 0.080128190413 0.99543519842 0.00078956240348 0.025294118312 0.9996797408 
0.061825246417 -0.044842371063 0.9970791346 0.12888885173 -0.13801071113 0.98200850684 0.1959851889 -0.2599327307 0.94552883681 
0.25219484072 -0.40738441351 0.87774466785 0.28395222162 -0.5642927377 0.77520632222 0.28221609833 -0.70667101255 0.64882212806 
0.24829561763 -0.81697957394 0.52047445858 0.19130321834 -0.89191457388 0.40974561811 0.12167638236 -0.93753769632 0.32591091722 
0.047971342031 -0.9619002833 0.26915905211 -0.022665562669 -0.97172006883 0.23504548518 -0.08339707819 -0.97249298702 0.21749095967 
-0.12748164111 -0.96926937217 0.2103932398 -0.14871609437 -0.96665026926 0.20849647532 -0.14174365099 -0.96784847739 0.20779331611 
-0.1020140254 -0.97333203781 0.20546990728 -0.026285802331 -0.97949471177 0.19974775646 0.085091413376 -0.9780967053 0.18996390831 
0.22379604386 -0.95842445851 0.1770251058 0.37117138946 -0.91389599416 0.16439559453 0.50481278194 -0.84871322732 0.1576385516 
0.61013600938 -0.77555573072 0.16201036574 0.68517556134 -0.70567660888 0.18042996927 0.7362025984 -0.64231166499 0.21317002398 
0.77187938598 -0.58089968504 0.25837524925 0.80013430642 -0.51198986537 0.31249235102 0.82644772093 -0.42416011028 0.37023285296 
0.85159592285 -0.30814195028 0.42406712046 0.87021246849 -0.16387143902 0.46462502209 0.87471343348 -0.0060669543387 0.48460251894 
0.86333818073 0.14001173835 0.4848132618 0.84300999881 0.25398632562 0.47415724006 0.82285088407 0.33022363045 0.46245948632 
0.80821929084 0.37391873435 0.45493555369 0.80027951434 0.39470910848 0.45139496963 0.79790143587 0.40263162092 0.44859901523 
0.79952888508 0.40591627311 0.44270254251 0.80401868638 0.40971276987 0.43091692722 0.81057831954 0.41522161856 0.41298159205 
0.81894237099 0.41981693392 0.39126351094 0.82922412916 0.41913271222 0.36975006851 0.8415407465 0.40862277698 0.35332222986 
0.8552946592 0.38535951569 0.34636554333 0.86898180724 0.34782630466 0.35197653398 0.88007590439 0.29561002081 0.37159267769 
0.8850325781 0.22965196334 0.40494112095 0.88039313152 0.15194050257 0.44924605468 0.86436256484 0.066499117584 0.49845283013 
0.83820339737 -0.020745730387 0.54496300728 0.80695181472 -0.10457455626 0.58128558464 0.77708163552 -0.18194503696 0.60252811989 
0.75251964892 -0.25289548522 0.6080773401 0.73255823695 -0.3211618916 0.60017786435 0.71136185347 -0.3912188854 0.58387678249 
0.67889406263 -0.46761029068 0.56607726308 0.62246943839 -0.55336602935 0.55345987735 0.52827411839 -0.64687374732 0.54998255506 
0.38679053006 -0.73815001298 0.55274555104 0.20394189968 -0.80893623969 0.55138902934 0.01022583455 -0.84501092462 0.53465125978 
-0.15551705672 -0.85178501012 0.50027666506 -0.27128025238 -0.84869090836 0.45401626264 -0.3345198665 -0.85245438658 0.40176856239 
-0.35157205707 -0.86935841432 0.34729387576 -0.33095631512 -0.8965147952 0.29449811454 -0.28430492573 -0.92564818419 0.24969210702 
-0.22742825955 -0.94820437255 0.22177658723 -0.17861253706 -0.95899789101 0.2200468283 -0.15368277859 -0.95551921094 0.25172334236 
-0.16448355719 -0.93265774319 0.32108362383 -0.21800484876 -0.87766503281 0.42682312039 -0.31133472246 -0.77137823246 0.55501920063 
-0.42408112541 -0.60522617477 0.67368870886 -0.524708503 -0.40405452981 0.74928027054 -0.524708503 -0.40405452981 0.74928027054 

FrenetNormal 3 120 double
-0.21753535794 -0.18024852838 0.95926473721 -0.21753535794 -0.18024852838 0.95926473721 -0.24458213195 0.13345507668 0.9604006056 
-0.39346166441 0.34679191443 0.85142426952 -0.72397509007 0.4779581975 0.49740931877 -0.89997710861 0.40735817133 -0.15524343536 
-0.78087440148 0.29337475382 -0.55151284929 -0.62452088733 0.26309610125 -0.73535984579 -0.45068907172 0.28176968339 -0.84704498473 
-0.23484460966 0.32387568959 -0.91648925089 0.035505774936 0.37298666326 -0.92715710048 0.34416946685 0.39891777698 -0.84994822507 
0.646435593 0.33645891786 -0.68477472259 0.89462265235 0.068823263299 -0.44149028112 0.87065683479 -0.49095868327 -0.030269578146 
0.44728735974 -0.81090259531 0.37732081673 0.15178629724 -0.7807602989 0.60611407807 0.018954986973 -0.65312019077 0.75701699114 
-0.010346989 -0.5181318317 0.85523818016 0.10253378971 -0.42080022143 0.90134011095 0.65729775423 -0.31023726991 0.68681329242 
0.97209390293 0.061322205982 -0.22643548959 0.85948729709 0.24147398023 -0.45052403155 0.81988506109 0.38015717618 -0.42809929689 
0.80025004305 0.51138171401 -0.31319101388 0.7941373663 0.59551314146 -0.12128454884 0.80667989764 0.56204879575 0.18267099918 
0.73422328909 0.29132113546 0.61322765576 0.46699675291 -0.05885638458 0.88229811219 0.20495433455 -0.1953998159 0.95906862773 
-0.019600122109 -0.15961921438 0.98698406351 -0.25058092625 -0.011930071253 0.96802214479 -0.47741654912 0.20844456013 0.85359492968 
-0.63907248873 0.43379522711 0.63514412151 -0.69265659031 0.61073880364 0.38369905086 -0.65650835736 0.73548295516 0.16751596752 
-0.56658343577 0.82398012693 0.006321451092 -0.44830320511 0.88786241929 -0.10355945494 -0.29898817972 0.93964502046 -0.16635294982 
0.068703536734 0.98553134513 -0.15494447976 0.93682155375 -0.28882415079 0.19734737481 0.71876491002 -0.66526663425 0.20198343864 
0.68862410697 -0.70817669509 0.15582877727 0.69857216883 -0.70940578277 0.093489894155 0.68477265216 -0.72853707106 0.017892762451 
0.63088827067 -0.77235062737 -0.073854575494 0.53343762549 -0.82514019598 -0.18597837695 0.40519980604 -0.85659266831 -0.3194716228 
0.25317651889 -0.84769052595 -0.46617853072 0.081924129873 -0.79125027447 -0.60597973572 -0.10240642522 -0.69464020963 -0.71203083025 
-0.29624845575 -0.57560003761 -0.76218203152 -0.49624491251 -0.44806043064 -0.74362815795 -0.68910643332 -0.31611232217 -0.65207769731 
-0.8447078154 -0.18288033633 -0.50301440257 -0.93956754457 -0.059631528085 -0.3371304051 -0.97976839948 0.040173336016 -0.19606118039 
-0.98944367335 0.10954004864 -0.094879897807 -0.98861462361 0.14045033964 -0.053989147834 0.98716076619 -0.15381658599 -0.043059024233 
0.99082367914 -0.11782667327 -0.066221687708 0.99555092095 -0.043736523271 -0.083459453225 0.99331871717 0.068357390446 -0.09297953152 
0.97328081703 0.21019265227 -0.09243105608 0.9285495608 0.36430214965 -0.07127171181 0.86065563959 0.50893432875 -0.016053630575 
0.77271851267 0.62766223952 0.094584423984 0.65368809157 0.70501804053 0.27502989196 0.49558681585 0.72617466745 0.47651239261 
0.34954072909 0.7272129959 0.59074743952 0.26433816906 0.76864006729 0.58250989634 0.21712959873 0.84684097518 0.48550499494 
0.16326665887 0.92465799623 0.3440226564 0.080328129084 0.97763590548 0.1943590183 -0.023713532238 0.99818814918 0.055299974885 
-0.12949311903 0.99003592469 -0.055320881584 -0.21807315328 0.96718597324 -0.13036637982 -0.28802145484 0.94390268189 -0.16152822869 
-0.34390295364 0.92681687279 -0.1508019986 -0.35978029718 0.91830799754 -0.16513194549 -0.0057258074937 0.74923594153 -0.66227843015 
0.34883048145 0.28620307063 -0.89241531675 0.33410611603 0.28819082881 -0.89739575964 0.32491070024 0.26785153547 -0.90702182543 
0.37534662716 0.12389751698 -0.91856644548 0.47744830709 -0.18727246005 -0.85847081474 0.53942205125 -0.67061003399 -0.50922100599 
0.42434309136 -0.90455177065 -0.041461247315 0.26769707003 -0.92865209376 0.2567947964 0.13279528731 -0.9045770293 0.4050997528 
0.0073540611214 -0.87663987576 0.48109089164 -0.10817723867 -0.85797399901 0.50217357762 -0.2117865866 -0.85088328835 0.48077444956 
-0.29911591897 -0.85304931762 0.42759388294 -0.34572974938 -0.88159305104 0.32134814881 -0.34539050297 -0.92355930159 0.16656415255 
-0.29924931687 -0.95381102194 -0.026351105813 -0.25697157475 -0.94693784382 -0.19306560986 -0.30809265683 -0.92026045678 -0.24124594606 
-0.4485214011 -0.87452315254 -0.18449338316 -0.62461910779 -0.77734726558 -0.074714114311 -0.77694704019 -0.62953892389 0.0058343848983 
-0.89102939144 -0.45359795064 0.017762960632 -0.96342990451 -0.26583748369 -0.033663799063 -0.98613851146 -0.09707426009 -0.13456382959 
-0.96140116554 0.014140663903 -0.27478690022 -0.87260745743 0.017812221712 -0.48809727513 -0.57452523247 -0.15346309173 -0.80397129099 
0.069717684284 -0.3942604975 -0.91635042675 0.53162575752 -0.43498520273 -0.72674749903 0.76283374242 -0.3761625439 -0.52591484292 
0.91990620367 -0.28390786631 -0.27049750443 0.94123837026 -0.10138185475 0.32216773562 0.18497893916 0.22242540514 0.95724068615 
-0.31181801797 0.35798922719 0.88012114898 -0.46262444001 0.47801769941 0.74664429722 -0.49660971297 0.63001655408 0.59704098232 
-0.4589487171 0.78492127608 0.41625072423 -0.38182798745 0.8983807221 0.21707018716 -0.38182798745 0.8983807221 0.21707018716 

FrenetBinormal 3 120 double
-0.95381814499 0.24783508204 -0.16973131238 -0.95381814499 0.24783508204 -0.16973131238 -0.9301661114 0.24740343601 -0.27126102753 
-0.85980773085 0.18904316466 -0.47433463702 -0.57756619298 -0.025709175603 -0.81593892603 0.0060333318049 -0.34444110275 -0.9387885415 
0.37011667277 -0.49394012507 -0.78678891793 0.52602770272 -0.55426628311 -0.6450455359 0.60988233154 -0.59570674298 -0.52266338885 
0.66017443986 -0.63889689802 -0.39494361959 0.67618222527 -0.69210214117 -0.25253163055 0.64284246228 -0.75991404003 -0.096354659755 
0.52610930014 -0.846579988 0.080692801529 0.21855701433 -0.92920047227 0.29802569323 -0.4230775489 -0.77882776941 0.46306877806 
-0.8803029852 -0.32456569006 0.34601122392 -0.98226054851 -0.050835886601 0.18049910656 -0.9953247041 0.059394246963 0.076164669197 
-0.9955450973 0.085496835852 0.039752362304 -0.99070049322 0.038272421015 0.13056704993 -0.75049319071 -0.18637851431 0.63405285276 
0.23360212094 -0.34161312485 0.91034637475 0.50762883621 -0.29984604908 0.80771610823 0.54449540857 -0.2866380251 0.78826606715 
0.50993341482 -0.30549586837 0.80413940761 0.40901182064 -0.37610140175 0.8314187069 0.18858757767 -0.53774482414 0.82174523404 
-0.21060530616 -0.76096149557 0.61366359456 -0.52614094456 -0.82043251045 0.22375478152 -0.62014558255 -0.78401476653 -0.027208496965 
-0.6316173149 -0.76326191133 -0.13598096273 -0.6270312079 -0.75984137347 -0.17167688104 -0.62909347285 -0.7593031002 -0.166433784 
-0.64819104254 -0.74828495254 -0.14113115239 -0.69078248548 -0.71474920282 -0.10933039296 -0.75287141148 -0.65263714073 -0.085143410238 
-0.82184807251 -0.5645295018 -0.076630198377 -0.88552683393 -0.45692536711 -0.084032346667 -0.94198619131 -0.3184906004 -0.10595165332 
-0.98464518395 0.042002661894 -0.16943918706 0.31528588973 0.94154335294 -0.11870519062 0.68316395379 0.72974633612 -0.027519032877 
0.71881870922 0.69495818242 -0.018242476857 0.71365866218 0.70023061092 -0.019193890369 0.72875633201 0.68453921997 -0.017895945961 
0.77340650943 0.63361160828 -0.019460241925 0.83596169985 0.54781082555 -0.03273126634 0.89297420059 0.44573980763 -0.062554783843 
0.93396970647 0.33979215978 -0.11064300951 0.95533217929 0.23557739563 -0.17844808176 0.95386948684 0.13450300807 -0.2684063019 
0.92227226931 0.035056703653 -0.384947904 0.84684358973 -0.061075718548 -0.52832347207 0.71437187902 -0.14524485451 -0.68452666179 
0.53307359431 -0.20323047895 -0.8212977021 0.3416125019 -0.2284823597 -0.91164505694 0.18193078556 -0.22944169905 -0.95616823624 
0.068917693258 -0.22026770511 -0.97300179324 0.02290522352 -0.21415171967 -0.97653181807 0.073636669517 0.19902206583 0.97722456898 
0.088665525875 0.19682890855 0.97642040397 0.090484365479 0.19666526421 0.97628651197 0.077957536389 0.19660646546 0.97737839155 
0.051378808365 0.19298084429 0.97985642407 0.0052452634419 0.1791034774 0.98381625906 -0.066602741826 0.14377658636 0.98736637982 
-0.17504328104 0.067479045848 0.98224560479 -0.32128854489 -0.070498838335 0.9443535274 -0.46086813957 -0.24516540819 0.8529328699 
-0.53105884063 -0.36567309788 0.76436882019 -0.53843330512 -0.38348249598 0.75035375072 -0.51946020244 -0.32085598577 0.79196750847 
-0.49812486615 -0.22373226966 0.8377442863 -0.4860839962 -0.13181118234 0.8639144407 -0.48405999389 -0.059863268358 0.87298471431 
-0.48772811875 -0.015019352156 0.87286637078 -0.49170950949 0.0064991972066 0.87073504507 -0.4898571875 -0.00028460827477 0.87180264673 
-0.47802963965 -0.034572596267 0.87766303283 -0.47969869365 -0.03025130318 0.87691163863 -0.60276074338 0.52586431876 0.60012182471 
-0.48894872649 0.86793996427 0.087231652988 -0.49186080876 0.86549494071 0.094823269377 -0.48723282398 0.86939436531 0.082204700671 
-0.43410632623 0.89911242194 -0.056111943856 -0.29056919602 0.88840125802 -0.3554050465 0.028862131015 0.6191200275 -0.78476580516 
0.29732807933 0.18243940879 -0.93718294658 0.41618373032 -0.1289269194 -0.90009385737 0.45588574685 -0.30717277492 -0.8353520648 
0.46547100177 -0.42280315037 -0.77754372388 0.46174193983 -0.49070836625 -0.73891791174 0.45609625984 -0.5211290598 -0.72138804037 
0.45600957408 -0.52141775611 -0.72123421436 0.47885249202 -0.46028019134 -0.74755764751 0.5261649287 -0.33754143446 -0.78052306041 
0.58665494487 -0.16213700373 -0.79344033656 0.63033644925 -0.012796848156 -0.7762165944 0.63169868468 -0.0082749858456 -0.77516985002 
0.58131867722 -0.12864630475 -0.80344179863 0.47157477504 -0.29919436201 -0.82951791137 0.34246131545 -0.43038947285 -0.83515576336 
0.23761251956 -0.49938307692 -0.83316074861 0.17381173912 -0.52435922075 -0.83356876558 0.16560878151 -0.52586417002 -0.83429048069 
0.2269851184 -0.52370061882 -0.82110621595 0.40615668146 -0.52858912856 -0.74540611969 0.74700549943 -0.49977054563 -0.43842010166 
0.9335612102 -0.29795067974 0.19922062959 0.77964220732 -0.083958891072 0.62057145695 0.58073693755 0.040953384092 0.81306053261 
0.31945103414 0.14249488177 0.93682775656 -0.28664942342 0.26465971467 0.92075368231 -0.97065153151 0.19367492526 0.1425679757 
-0.9357962829 0.044645798162 -0.34970283045 -0.85933259767 -0.034686729957 -0.51023947058 -0.81021570188 -0.089748337392 -0.57921995163 
-0.78071843461 -0.13266449307 -0.61063807459 -0.76084714291 -0.17219760479 -0.62566733176 -0.76084714291 -0.17219760479 -0.62566733176 

plain_curvature_peaks 1 120 unsigned_char
0 0 0 0 0 0 0 0 0 
0 0 0 0 0 0 0 0 0 
0 0 0 0 0 0 0 0 1 
0 0 0 0 0 0 0 0 0 
0 0 0 0 0 0 0 0 0 
0 0 0 0 0 0 0 0 0 
0 0 0 0 0 0 0 0 0 
0 0 0 0 1 0 0 0 0 
0 0 0 0 0 0 0 0 0 
0 0 0 0 0 0 0 0 0 
0 0 0 1 0 0 0 0 0 
0 0 0 0 0 0 0 0 0 
1 0 0 0 0 0 0 0 0 
0 0 0 
weighted_curvature_peaks 1 120 unsigned_char
0 0 0 0 0 0 0 0 0 
0 0 0 0 0 0 0 0 0 
0 0 0 0 0 0 0 0 0 
0 1 0 0 0 0 0 0 0 
0 0 0 0 0 0 0 0 0 
0 0 0 0 0 0 0 0 0 
0 0 0 0 0 0 0 0 0 
0 0 0 0 0 0 0 0 0 
1 0 0 0 0 0 0 0 0 
0 0 0 0 0 0 0 0 0 
0 0 0 0 0 0 0 1 0 
0 0 0 0 0 0 0 0 0 
0 0 0 0 0 1 0 0 0 
0 0 0 
plain_torsion_tp 1 120 unsigned_char
0 0 0 0 0 0 0 0 0 
0 0 0 0 0 0 0 0 0 
0 0 0 0 0 0 0 0 1 
0 0 0 0 0 0 0 0 0 
0 0 0 0 0 0 0 0 0 
0 0 0 0 0 0 0 0 0 
0 0 0 0 0 0 0 0 0 
0 0 0 0 1 0 0 0 0 
0 0 0 0 0 0 0 0 0 
0 0 0 0 0 0 0 0 0 
0 0 0 1 0 0 0 0 0 
0 0 0 0 0 0 0 0 0 
1 0 0 0 0 0 0 0 0 
0 0 0 
plain_torsion_tn 1 120 unsigned_char
0 0 0 0 0 0 0 0 2 
0 0 0 0 0 0 0 0 0 
0 0 0 0 0 0 0 0 0 
0 0 0 0 0 0 0 0 0 
0 0 0 0 0 0 0 0 0 
0 0 0 0 0 0 0 2 0 
0 0 0 0 0 0 0 0 0 
0 0 0 0 0 0 0 0 0 
0 2 0 0 0 0 0 0 0 
0 0 0 0 0 0 0 0 0 
0 0 0 0 0 0 0 0 2 
0 0 0 0 0 0 0 0 0 
0 0 0 0 0 0 0 0 0 
0 0 0 
plain_torsion_tz 1 120 unsigned_char
0 0 0 0 0 0 0 0 0 
3 0 0 0 0 0 0 0 0 
0 0 0 0 0 0 0 0 0 
0 0 0 0 0 0 0 0 0 
0 0 0 0 0 0 0 3 0 
0 0 0 0 0 0 0 0 0 
0 0 0 0 3 0 0 0 0 
0 0 0 0 0 0 0 0 0 
0 0 0 0 0 0 3 0 0 
0 0 0 0 0 0 0 0 0 
0 0 0 0 0 0 0 3 0 
0 3 0 0 0 0 0 0 0 
0 0 0 0 0 0 0 0 0 
0 0 0 
weighted_torsion_tp 1 120 unsigned_char
0 0 0 0 0 0 0 0 0 
0 0 0 0 0 0 0 0 0 
0 0 0 0 0 0 0 0 0 
0 1 0 0 0 0 0 0 0 
0 0 0 0 0 0 0 0 0 
0 0 0 0 0 0 0 0 0 
0 0 0 0 0 0 0 0 0 
0 0 0 0 0 0 0 0 0 
1 0 0 0 0 0 0 0 0 
0 0 0 0 0 0 0 0 0 
0 0 0 0 0 0 0 1 0 
0 0 0 0 0 0 0 0 0 
0 0 0 0 0 1 0 0 0 
0 0 0 
weighted_torsion_tn 1 120 unsigned_char
0 0 0 0 0 0 0 0 0 
2 0 0 0 0 0 0 0 0 
0 0 0 0 0 0 0 0 0 
0 0 0 0 0 0 0 0 0 
0 0 0 0 0 0 0 0 0 
0 0 0 0 0 0 0 0 0 
0 0 0 0 2 0 0 0 0 
0 0 0 0 0 0 0 0 0 
0 0 0 0 0 0 2 0 0 
0 0 0 0 0 0 0 0 0 
0 0 0 0 0 0 0 0 0 
0 0 0 0 2 0 0 0 0 
0 0 0 0 0 0 0 0 0 
0 0 0 
weighted_torsion_tz 1 120 unsigned_char
0 0 0 0 0 0 0 0 0 
0 0 3 0 0 0 0 0 0 
0 0 0 0 0 0 0 0 0 
0 0 0 0 0 0 0 0 0 
0 0 0 0 0 0 0 0 0 
0 0 0 3 0 0 0 0 0 
0 0 0 0 0 0 0 0 0 
3 0 0 0 0 0 0 0 0 
0 0 0 0 0 0 0 0 0 
0 3 0 0 0 0 0 0 0 
0 0 0 0 0 0 0 0 0 
0 0 0 3 0 3 0 0 0 
0 0 0 0 0 0 0 0 0 
0 0 0 
plain_torsion_tp_raw 1 120 unsigned_char
0 0 0 0 0 0 0 0 0 
0 0 0 0 0 0 0 0 0 
0 0 0 0 0 0 0 0 0 
0 0 0 0 0 1 0 0 0 
0 0 0 0 0 0 0 0 0 
0 0 0 0 0 0 0 0 0 
1 0 0 0 0 0 0 0 0 
0 0 0 0 0 0 0 0 0 
0 0 0 1 0 0 0 0 0 
0 0 0 0 0 0 0 0 0 
0 0 0 0 1 0 0 0 0 
0 0 0 1 0 0 0 0 0 
0 0 1 0 0 0 0 0 0 
0 0 0 
plain_torsion_tn_raw 1 120 unsigned_char
0 0 0 0 0 0 0 0 0 
0 0 0 0 0 0 0 0 0 
2 0 0 0 0 0 0 0 0 
0 0 0 0 0 0 0 0 0 
0 0 0 0 0 0 0 0 0 
0 2 0 0 0 0 0 0 0 
0 0 0 0 0 0 0 0 0 
0 0 0 0 0 0 2 0 0 
0 0 0 0 0 0 0 0 0 
0 2 0 0 0 0 0 0 0 
0 0 0 0 0 0 0 0 2 
0 0 0 0 0 0 2 0 0 
0 0 0 0 0 0 0 0 0 
0 0 0 
plain_torsion_tz_raw 1 120 unsigned_char
0 0 0 0 0 0 0 0 3 
0 0 0 0 0 0 0 0 0 
0 0 0 0 0 0 0 0 0 
3 0 0 0 0 0 3 0 0 
0 0 0 0 0 0 0 0 0 
0 0 0 0 0 0 3 0 0 
0 0 0 0 0 0 0 0 0 
0 0 0 0 0 0 0 0 0 
0 0 0 0 0 0 0 0 0 
0 0 0 0 0 0 0 0 0 
0 0 0 0 0 0 0 0 0 
0 0 0 0 0 0 0 0 0 
0 0 0 0 0 0 0 0 0 
0 0 0 
weighted_torsion_tp_raw 1 120 unsigned_char
0 0 0 0 0 0 0 0 0 
0 0 0 0 0 0 0 0 0 
0 0 0 0 0 0 0 0 0 
0 0 0 0 0 0 0 1 0 
0 0 0 0 0 0 0 0 0 
0 0 0 0 0 0 0 0 0 
0 0 0 0 0 0 0 1 0 
0 0 0 0 0 0 0 0 0 
0 0 0 0 0 0 0 0 1 
0 0 0 0 0 0 0 0 0 
0 0 0 0 0 0 0 0 0 
1 0 0 0 0 0 0 0 1 
0 0 0 0 0 0 1 0 0 
0 0 0 
weighted_torsion_tn_raw 1 120 unsigned_char
0 0 0 0 0 0 0 0 0 
0 0 0 0 0 0 0 0 0 
0 0 2 0 0 0 0 0 0 
0 0 0 0 0 0 0 0 0 
0 0 0 0 0 0 0 0 0 
0 0 0 0 0 0 2 0 0 
0 0 0 0 0 0 0 0 0 
0 0 0 0 0 0 0 0 0 
0 0 0 2 0 0 0 0 0 
0 0 0 0 0 0 2 0 0 
0 0 0 0 0 0 0 0 0 
0 0 0 0 2 0 0 0 0 
0 0 2 0 0 0 0 0 0 
0 0 0 
weighted_torsion_tz_raw 1 120 unsigned_char
0 0 0 0 0 0 0 0 0 
3 0 0 0 0 0 0 0 0 
0 0 0 0 0 0 0 0 0 
0 0 3 0 0 0 0 0 0 
0 3 0 0 0 0 0 0 0 
0 0 0 0 0 0 0 0 0 
0 0 3 0 0 0 0 0 0 
0 0 0 0 0 0 0 0 0 
0 0 0 0 0 0 0 0 0 
0 0 0 0 0 0 0 0 0 
0 0 0 0 0 0 0 0 0 
0 0 0 0 0 0 0 0 0 
0 0 0 0 0 0 0 0 0 
0 0 0 
