# vtk DataFile Version 5.1
vtk output
ASCII
DATASET POLYDATA
POINTS 120 float
-0.770784 22.6429 -4.70994 -0.970606 22.0639 -4.3927 -1.23521 21.5396 -4.13311 
-1.55901 21.0596 -3.92028 -1.93631 20.6129 -3.74328 -2.36112 20.1892 -3.59111 
-2.82674 19.7784 -3.45271 -3.32535 19.3716 -3.31729 -3.84757 18.9625 -3.17501 
-4.38218 18.5485 -3.01833 -4.91619 18.1319 -2.84372 -5.43509 17.7208 -2.65379 
-5.92373 17.3279 -2.45886 -6.36747 16.9688 -2.27744 -6.75386 16.6583 -2.13463 
-7.07431 16.4068 -2.05856 -7.32574 16.2167 -2.07531 -7.51154 16.08 -2.20342 
-7.64086 15.9793 -2.4509 -7.72656 15.8916 -2.81381 -7.78254 15.7919 -3.27656 
-7.82024 15.6593 -3.81557 -7.84593 15.4803 -4.40352 -7.85974 15.2498 -5.01342 
-7.85601 14.9705 -5.62168 -7.8253 14.6497 -6.20992 -7.75697 14.2966 -6.76558 
-7.64202 13.9198 -7.2817 -7.47561 13.5255 -7.75607 -7.25857 13.1171 -8.19007 
-6.9979 12.6959 -8.58726 -6.70608 12.2613 -8.95166 -6.39957 11.8124 -9.28598 
-6.09665 11.3476 -9.58976 -5.81521 10.8652 -9.85821 -5.57031 10.364 -10.0821 
-5.3723 9.84309 -10.2491 -5.22557 9.30325 -10.3461 -5.12821 8.74778 -10.3629 
-5.07285 8.18325 -10.2935 -5.04856 7.61962 -10.1375 -5.04318 7.06979 -9.89903 
-5.04618 6.54729 -9.58561 -5.05096 6.06407 -9.20633 -5.05622 5.62842 -8.77136 
-5.06569 5.24207 -8.29181 -5.08617 4.89994 -7.78 -5.12429 4.59024 -7.2494 
-5.18298 4.29689 -6.71433 -5.25897 4.0018 -6.18918 -5.34242 3.68779 -5.68743 
-5.41879 3.34048 -5.22092 -5.47253 2.94966 -4.79904 -5.491 2.51037 -4.42831 
-5.4674 2.02198 -4.1119 -5.40148 1.48867 -3.84916 -5.29832 0.918076 -3.63533 
-5.16551 0.320791 -3.46152 -5.01038 -0.291515 -3.31521 -4.83799 -0.906289 -3.18158 
-4.65062 -1.51252 -3.04532 -4.44857 -2.10191 -2.8928 -4.23183 -2.66996 -2.71409 
-4.00179 -3.21675 -2.50432 -3.76241 -3.74622 -2.26409 -3.52016 -4.26545 -1.99878 
-3.2828 -4.783 -1.71704 -3.05726 -5.30609 -1.42876 -2.84734 -5.83963 -1.14306 
-2.65184 -6.38369 -0.866698 -2.46385 -6.93416 -0.603184 -2.2715 -7.48273 -0.352661 
-2.05994 -8.01877 -0.112506 -1.81427 -8.53086 0.121581 -1.52244 -9.00956 0.354257 
-1.17732 -9.44868 0.589366 -0.777373 -9.84601 0.828974 -0.326158 -10.2028 1.07291 
0.169245 -10.523 1.31884 0.699967 -10.8119 1.56295 1.25679 -11.0746 1.80113 
1.83089 -11.3151 2.0306 2.414 -11.536 2.25136 2.99819 -11.7382 2.46751 
3.57548 -11.9204 2.68741 4.13782 -12.0808 2.9228 4.67759 -12.217 3.18667 
5.18845 -12.3268 3.49043 5.66643 -12.4095 3.84137 6.11082 -12.4648 4.24094 
6.52434 -12.4941 4.68471 6.91297 -12.4999 5.16351 7.28483 -12.4862 5.66555 
7.64885 -12.4582 6.17867 8.01299 -12.4237 6.69304 8.38289 -12.392 7.20177 
8.76083 -12.3732 7.70141 9.14585 -12.3782 8.19131 9.53458 -12.417 8.67196 
9.92283 -12.4982 9.143 10.3069 -12.6293 9.60183 10.6848 -12.8155 10.044 
11.0564 -13.0597 10.4635 11.4228 -13.3611 10.8554 11.7852 -13.7147 11.2179 
12.1435 -14.1117 11.5539 12.4963 -14.5396 11.8717 12.8397 -14.9842 12.1845 
13.1689 -15.4308 12.5072 13.478 -15.867 12.8546 13.7616 -16.2836 13.2377 
14.0147 -16.6764 13.6615 14.2331 -17.047 14.124 14.4132 -17.403 14.6156 
14.551 -17.7571 15.1205 14.6429 -18.1258 15.6179 14.6844 -18.5286 16.084 
14.6711 -18.9857 16.4937 14.5983 -19.5182 16.8207 14.4615 -20.1472 17.0392 

LINES 2 120
OFFSETS vtktypeint64
0 120 
CONNECTIVITY vtktypeint64
0 1 2 3 4 5 6 7 8 
9 10 11 12 13 14 15 16 17 
18 19 20 21 22 23 24 25 26 
27 28 29 30 31 32 33 34 35 
36 37 38 39 40 41 42 43 44 
45 46 47 48 49 50 51 52 53 
54 55 56 57 58 59 60 61 62 
63 64 65 66 67 68 69 70 71 
72 73 74 75 76 77 78 79 80 
81 82 83 84 85 86 87 88 89 
90 91 92 93 94 95 96 97 98 
99 100 101 102 103 104 105 106 107 
108 109 110 111 112 113 114 115 116 
117 118 119 
CELL_DATA 1
FIELD FieldData 2
Length 1 1 double
72.887295119 
Tortuosity 1 1 double
0.44735102599 
POINT_DATA 120
FIELD FieldData 19
Curvature 1 120 double
0 0.2058023697 0.21225607989 0.19251822946 0.15301660249 0.10557529311 0.061242393398 0.02952304775 0.025224095355 
0.035672534616 0.040408879918 0.034307659561 0.011151517259 0.049168691988 0.20794650185 0.66059510765 1.6353924216 1.7942126486 
0.79129501168 0.25817175434 0.1117136575 0.1029040439 0.10867806159 0.11246917618 0.11907230401 0.13233802832 0.15010433215 
0.16380126824 0.16350796853 0.14561440953 0.11634421406 0.089594387747 0.08478645501 0.10976281431 0.15541794729 0.21194412522 
0.2667555143 0.30023207364 0.29993575668 0.27368932493 0.24208535349 0.21902937873 0.20528311757 0.19432059167 0.17615362464 
0.14750113951 0.10936031233 0.070334221528 0.051405944048 0.081503714372 0.13626156029 0.19451271026 0.23823052861 0.25250329423 
0.23141597178 0.18752123565 0.13640910765 0.088482270366 0.050132597367 0.040426851613 0.063882624361 0.088687558887 0.09955254142 
0.09173749583 0.068329105198 0.041852083648 0.035152234846 0.046077896722 0.049102454162 0.039240881199 0.031309242636 0.059802119373 
0.10680478029 0.15184935625 0.18114554048 0.18582393844 0.16865583568 0.13934968181 0.10939434344 0.085065000228 0.066684275611 
0.052939609308 0.042051799637 0.043627150725 0.067824744163 0.10610177829 0.14716998149 0.17548339081 0.18179623683 0.16342468863 
0.12859574185 0.087400083032 0.048509408441 0.016271732275 0.021064389335 0.044476588464 0.067666043938 0.090722063423 0.11385363119 
0.13644404303 0.15508887904 0.16828399286 0.16919669606 0.15607021174 0.12795629944 0.087672050622 0.047576613712 0.042345509167 
0.081130683675 0.11873370557 0.14077861824 0.14213123032 0.12591452842 0.11083105894 0.12265047406 0.17596451646 0.25383116225 
0.32885913574 0.35610673785 0 
Torsion 1 120 double
0 0 -0.033215274563 -0.048082287441 -0.07889973955 -0.15486511108 -0.39535223689 -1.3098873795 -1.1968323176 
-0.32485996944 -0.10330704437 -0.07070609694 -1.518276489 -0.053835814647 0.13514472934 0.17391263774 0.15199279057 0.1976607193 
0.50923476186 1.3983823843 2.0241444568 0.65524262305 0.056662305209 -0.17456515881 -0.26788397063 -0.25722659645 -0.18553044409 
-0.10040005226 -0.013900583706 0.096607763789 0.28942543694 0.62601587527 0.73178316535 0.35697623936 0.070152575963 -0.06500408206 
-0.12588631936 -0.16066659846 -0.19164250061 -0.22085187067 -0.22606850965 -0.17861876586 -0.083712861063 0.029237544734 0.14477060144 
0.27848403371 0.49954965373 1.0688389018 1.9863926564 0.97312560581 0.44984559491 0.24508160699 0.13345486515 0.062703495108 
0.019635974791 0.0054273685533 0.047538762893 0.23530533979 0.94573313907 1.4124504241 0.46656459223 0.19284860935 0.14597514023 
0.20301770765 0.42833884316 1.1274267616 1.3398095742 0.60669034356 0.4754026379 0.90578960102 1.9726212829 0.72193208624 
0.26441034405 0.12833216497 0.068944945283 0.030917618254 -0.0070957260278 -0.054777752724 -0.10609134931 -0.13358660177 -0.076535095916 
0.1523520909 0.6719795057 0.97305353764 0.51550633636 0.21808225043 0.10230213104 0.040602615978 -0.0054711543828 -0.047039013571 
-0.10629008023 -0.20979044186 -0.47032002951 -2.3581278806 -1.3772543753 -0.53010850659 -0.36681513317 -0.24076402393 -0.11928220159 
-0.016652562162 0.057803712044 0.090607143101 0.087280399162 0.05174817853 -0.026869960792 -0.24930913077 -1.2170011431 -1.5314575959 
-0.32682468092 -0.061244379654 0.064566301316 0.20070642943 0.44717837969 0.81070463769 0.83235935529 0.4764733501 0.25066811226 
0.14118027531 0 0 
FrenetTangent 3 120 double
-0.34952946693 -0.83027988465 0.43412494158 -0.34952946693 -0.83027988465 0.43412494158 -0.46840631198 -0.79947478136 0.37607924812 
-0.57200313184 -0.75608229764 0.31804398495 -0.6529115484 -0.70845892063 0.26794116472 -0.70978973381 -0.66524369868 0.2316233044 
-0.74542776248 -0.63208130236 0.21168532811 -0.76409829818 -0.61069500511 0.20785909038 -0.7699904621 -0.5997253641 0.21781684033 
-0.76691708465 -0.5960783963 0.23775771437 -0.75858925019 -0.59629064914 0.26264007927 -0.7489701702 -0.59765789494 0.28609216131 
-0.74257204497 -0.59895445071 0.2997337552 -0.74466934459 -0.60072776702 0.29084999083 -0.76073196558 -0.60481010242 0.23556658624 
-0.7888603535 -0.60909951256 0.081835973033 -0.7741638831 -0.57868821605 -0.25649606373 -0.57850347556 -0.43575968457 -0.68952681316 
-0.31900387663 -0.2795313766 -0.90559303011 -0.16504682729 -0.21836493122 -0.96180886959 -0.090722895063 -0.22492960714 -0.97014227211 
-0.054139285229 -0.26611155366 -0.96242068702 -0.031190920007 -0.32330036531 -0.94578221611 -0.0076319460768 -0.38601845958 -0.92245948543 
0.025718029839 -0.44819504555 -0.89356576931 0.074397503907 -0.50617294039 -0.85921706561 0.13995028546 -0.55733831042 -0.81840572171 
0.21871221693 -0.59945877096 -0.76994424999 0.30159681578 -0.63134725321 -0.71445084266 0.37679967011 -0.65436165755 -0.6556163739 
0.43439415538 -0.67285095404 -0.5988099126 0.46913157947 -0.69266114977 -0.54784677852 0.47977465799 -0.71935379085 -0.50234092123 
0.46694795944 -0.75688604506 -0.45725607482 0.43165438788 -0.80662893651 -0.40376261369 0.37516759215 -0.86582200993 -0.33106121023 
0.30076416733 -0.92545969651 -0.23035899329 0.21641007037 -0.97107142476 -0.10093051796 0.13496497306 -0.98975774388 0.046519506461 
0.069067594054 -0.97827082535 0.19548877134 0.025108876994 -0.94229997244 0.3338267608 0.0019714014315 -0.88916412141 0.45758417671 
-0.0063727514439 -0.82354019297 0.56722212457 -0.0081792298566 -0.74840613429 0.66319028819 -0.011972749601 -0.66844058389 0.74366917314 
-0.024333460143 -0.59197160357 0.80559139971 -0.047613103625 -0.52958396156 0.84692019696 -0.078820160076 -0.49097172552 0.8676025283 
-0.11038908569 -0.4823129786 0.86901578837 -0.1323630953 -0.50566022903 0.85251847122 -0.13505399212 -0.55883887405 0.81820506724 
-0.11194529301 -0.6350457308 0.76432007115 -0.062795490832 -0.72182783556 0.68921789163 0.0044496738044 -0.80356119392 0.59520551748 
0.07600467951 -0.86743650059 0.49170845645 0.13924928374 -0.90915410527 0.39249006338 0.18832992441 -0.9321019384 0.3093829601 
0.22426189215 -0.94209420055 0.24932934246 0.25184342877 -0.94352705448 0.215247729 0.27648177339 -0.93836835402 0.20741904722 
0.30182822903 -0.92671364285 0.22383374257 0.32855356056 -0.90803466432 0.25985689571 0.35394721007 -0.88318116639 0.3077537974 
0.37330966836 -0.85590558281 0.35786243842 0.38228066816 -0.8323778204 0.40125883773 0.37866749688 -0.81857256802 0.43191420178 
0.36344675896 -0.8170670278 0.44755773424 0.34050242776 -0.8262100132 0.44881523012 0.31643922232 -0.84107911181 0.43869368158 
0.2997692628 -0.85559318093 0.42201741413 0.29911599024 -0.86434703532 0.40426949788 0.32130369764 -0.86279056932 0.39032853774 
0.36934591843 -0.84665869581 0.3830830789 0.44056584295 -0.81211358818 0.38258758202 0.52589672199 -0.75779950192 0.38622862749 
0.61241670708 -0.68752618248 0.39019677766 0.68881309084 -0.61025345379 0.39131476847 0.74968646591 -0.53615411437 0.38795485367 
0.7954283035 -0.47222639873 0.37986318898 0.82933961239 -0.42063090993 0.36778450883 0.8546801201 -0.38028199956 0.35342254188 
0.87357756187 -0.34834483415 0.33987956679 0.88686233753 -0.32138339689 0.33194563783 0.89425750173 -0.29595879535 0.33572594784 
0.89443287809 -0.26888954475 0.35733491197 0.88470093927 -0.23808312769 0.40077508949 0.86169572664 -0.20184083722 0.4655542408 
0.82303989846 -0.16021415569 0.54491903056 0.77050234908 -0.11524804905 0.62693222701 0.71137729009 -0.0701536375 0.69930023472 
0.65587029804 -0.028675815895 0.75432874115 0.612730328 0.006399840114 0.79026614959 0.58658488581 0.033218035812 0.8092062369 
0.57749644523 0.049515978444 0.81489019115 0.5821388946 0.052544447017 0.81138978826 0.5952026176 0.040229409439 0.80256802741 
0.61057171562 0.010984577649 0.79188478905 0.62298658504 -0.03527335913 0.78143682086 0.62941945888 -0.097209941209 0.77096132984 
0.62927574664 -0.17296855593 0.75768985301 0.6235789862 -0.25962978045 0.73738838144 0.61415628376 -0.35268362084 0.70599314636 
0.60247144637 -0.44537524651 0.662320954 0.58932933082 -0.52964031736 0.61005907424 0.57502595535 -0.59894529279 0.55732368236 
0.55979222161 -0.64936456266 0.51474103526 0.54304649907 -0.68055979915 0.49187280838 0.52353663944 -0.69372694786 0.49462340117 
0.49907337968 -0.69021490899 0.52395528541 0.46681507324 -0.67162520307 0.57532883988 0.4250721007 -0.64101162829 0.63907574011 
0.37386373039 -0.60527365581 0.70275864468 0.31530226663 -0.57494959482 0.75499499606 0.25145902382 -0.56168568737 0.78821161368 
0.18277566694 -0.57512262651 0.79738762221 0.10744394814 -0.62143298012 0.77606497746 0.022912444005 -0.70042197877 0.71336110881 
-0.069677447563 -0.80020945584 0.59565919794 -0.16116065514 -0.89331827687 0.41953509919 -0.16116065514 -0.89331827687 0.41953509919 

FrenetNormal 3 120 double
-0.89858037005 0.16586661298 -0.40625310493 -0.89858037005 0.16586661298 -0.40625310493 -0.84786521844 0.28705825144 -0.44578260581 
-0.78803348303 0.39894231658 -0.46887979021 -0.73105851261 0.49688988736 -0.4676044172 -0.68849192657 0.58565421006 -0.42777098228 
-0.66539845308 0.68663094199 -0.2928870911 -0.5807743595 0.79147780887 0.19043114614 -0.029889942653 0.37490490638 0.92658129838 
0.26943778254 0.037172681675 0.96230009513 0.35991166392 -0.047464786737 0.93177823982 0.40011745812 -0.06377999633 0.9142418344 
0.48610441126 -0.17410503863 0.85638188729 -0.30143490701 -0.086094655478 -0.94959186345 -0.25595056796 -0.053991488868 -0.9651809291 
-0.1103179005 0.0093458272417 -0.99385241175 0.18932380923 0.17497912621 -0.96619811667 0.57377221776 0.38344247746 -0.72371079072 
0.80717117894 0.42063710732 -0.41417280431 0.961420888 0.18196914496 -0.20629373813 0.86210721542 -0.50540534584 0.036559342345 
0.43146840333 -0.87544399302 0.21779079876 0.29965546056 -0.90574170229 0.29973083539 0.36028423486 -0.86159229043 0.35756677025 
0.50490039087 -0.76565012458 0.39856678491 0.6529257176 -0.62652273501 0.42562573914 0.75160934692 -0.4782791484 0.45423831392 
0.79313470134 -0.35042807371 0.49813402884 0.78763939668 -0.25728230587 0.55984819003 0.7409473483 -0.21183995761 0.63727612493 
0.63578208291 -0.24187175476 0.73299331327 0.3987853001 -0.38734715473 0.83122347546 -0.026952897127 -0.58435235968 0.8110523171 
-0.35895939007 -0.63481233046 0.68422325404 -0.49422572636 -0.58593415914 0.6422009752 -0.53661132594 -0.49407855145 0.6840575048 
-0.53726765213 -0.3639858236 0.76082704354 -0.50871854138 -0.20039664115 0.83728527509 -0.44784458631 -0.019054315891 0.89390836195 
-0.35197346916 0.1594595604 0.92232712505 -0.22805992162 0.31972701384 0.91965390706 -0.10541582303 0.45485071307 0.88430669627 
-0.022901549676 0.56720506292 0.82325812211 -0.006336437973 0.66323794817 0.74838177 -0.063112794315 0.74274475114 0.66659358672 
-0.19721970389 0.79283606163 0.57664145513 -0.4264635451 0.77749719383 0.4621979644 -0.78280582233 0.56936169338 0.25108227064 
-0.93811033992 -0.23823058678 -0.2513865105 -0.29455015207 -0.80116673522 -0.52093384445 0.11678481837 -0.82899258595 -0.54693015884 
0.32903112738 -0.74945549472 -0.57450411543 0.44589782954 -0.6381154867 -0.62768124971 0.49973235227 -0.51377157487 -0.69735668416 
0.51229342318 -0.38910001656 -0.76560866353 0.49896775885 -0.27794084532 -0.82084106996 0.49020327965 -0.18375654569 -0.85201776773 
0.53665525065 -0.09417194698 -0.83853013443 0.76752813755 0.059257076383 -0.63827044187 0.92839444866 0.31656025428 0.19461077334 
0.63807234694 0.37080808872 0.67480741061 0.47862054736 0.39725764189 0.78301260374 0.3755313484 0.43556837339 0.81808092416 
0.2619688181 0.46730768107 0.8443908275 0.068780077667 0.45866821354 0.88594174233 -0.37883736611 0.28869846599 0.87928120972 
-0.9096422751 -0.20751757542 0.35984355941 -0.86769812435 -0.45997915428 -0.18846522923 -0.71881040035 -0.51437539492 -0.46768532311 
-0.42723708551 -0.51591969763 -0.74249265206 0.47700023544 -0.23149184177 -0.84786927211 0.93127655979 0.21314311508 -0.29545554943 
0.92403871213 0.37837152325 -0.054657560059 0.87381268453 0.48563868559 0.024626396725 0.81050425707 0.58418194815 0.04259460903 
0.73849547669 0.6736789855 0.027947368383 0.66539177757 0.74646001577 -0.0071573178785 0.60229340255 0.79568607746 -0.064236464579 
0.5554759672 0.81872943224 -0.14535668764 0.52311116473 0.81582464232 -0.24654586252 0.49577048087 0.79986909093 -0.33826183302 
0.46068458889 0.8170649102 -0.346662144 0.38122997544 0.91489993007 -0.1327472176 0.14888887801 0.90413945309 0.4004546808 
-0.096601267664 0.66400979535 0.74145747469 -0.24140490962 0.50148409166 0.83080525722 -0.34463365886 0.44060945014 0.82890949665 
-0.44498686435 0.4143334103 0.79392349485 -0.53303920721 0.42286218161 0.73284157834 -0.60479093239 0.44574655048 0.6599529838 
-0.64615808327 0.49530602288 0.58064763422 -0.64780715719 0.57683301567 0.49760381744 -0.55965724073 0.73884282443 0.37535989887 
-0.10669513413 0.99417555189 0.015202644013 0.78154436709 -0.31142370285 -0.54055867356 0.56142892993 -0.73537187659 -0.37950725917 
0.35260901981 -0.89909800902 -0.2594024852 0.17213945482 -0.96831159107 -0.18094383299 0.040952522106 -0.98661583155 -0.15783564827 
-0.041789884765 -0.9810395644 -0.18924845735 -0.086493812629 -0.96036308823 -0.26499350773 -0.10587773684 -0.92332067891 -0.36914608049 
-0.12063307818 -0.87110944469 -0.47604201056 -0.14050200519 -0.81080801264 -0.56819851564 -0.18250934213 -0.7579553383 -0.62625397817 
-0.27642952902 -0.73195260855 -0.62276166735 -0.58511652678 -0.72683130941 -0.3596594191 -0.78013487785 -0.15695497046 0.60560276553 
-0.54021085848 0.22496216523 0.81090335589 -0.48929224806 0.34576856164 0.80064798618 -0.52646928232 0.39924120516 0.75062411024 
-0.61953899112 0.4008940731 0.67487434434 -0.77186091785 0.30747596992 0.55649730586 -0.94659394135 0.02708579186 0.32128845309 
-0.9259657924 -0.37328277424 -0.056985276686 -0.72971845464 -0.5794523384 -0.36296826925 -0.57286453476 -0.59398335815 -0.56480969809 
-0.46427870162 -0.50248676028 -0.72935063102 -0.37077696488 -0.33914892857 -0.86458223817 -0.37077696488 -0.33914892857 -0.86458223817 

FrenetBinormal 3 120 double
0.26529694743 -0.53209358185 -0.80404847481 0.26529694743 -0.53209358185 -0.80404847481 0.24843529995 -0.52767190019 -0.81230675702 
0.22763050497 -0.51883001767 -0.82401442098 0.19814126553 -0.50118499342 -0.8423500705 0.14892078707 -0.46309822673 -0.87370626161 
0.039778757744 -0.35918125884 -0.93241968755 -0.28081120717 0.024788884603 -0.95944284724 -0.63735490867 0.70694822924 -0.30659895885 
-0.58244438929 0.80206529485 0.13209767666 -0.54314449612 0.80136418423 0.25061823669 -0.52815689322 0.79921033069 0.28690267246 
-0.46074858588 0.78162714992 0.42043993521 0.59548682947 -0.79480429052 -0.11696826792 0.5964697673 -0.79453738688 -0.11372843777 
0.60459019468 -0.79303873759 -0.074567132002 0.60400892159 -0.79655649768 -0.025903062384 0.5797578554 -0.81430053653 0.028203994741 
0.49670032673 -0.86309132393 0.091444802913 0.22006685555 -0.95875126446 0.17990717604 -0.49853836907 -0.8330498834 0.23976527343 
-0.90050205704 -0.40346307898 0.1622146392 -0.95353748299 -0.27405992505 0.12512963685 -0.93281135473 -0.32961867959 0.14565199125 
-0.86279440091 -0.46141205866 0.20660284093 -0.75375925779 -0.59267041173 0.28388160271 -0.64459080604 -0.67869217171 0.35196538016 
-0.56842089309 -0.71961750053 0.39880865239 -0.53727417722 -0.7315780621 0.41967844541 -0.55589480629 -0.72590264739 0.40502630885 
-0.63803045447 -0.69912062471 0.32271890442 -0.78796309912 -0.60842642391 0.094506301975 -0.87697766157 -0.37558280487 -0.29974612223 
-0.80815082717 -0.15536029055 -0.56811567543 -0.7545961972 -0.077658997819 -0.65157782285 -0.7558422869 -0.078985011982 -0.64997215726 
-0.78796217271 -0.10506507676 -0.60669345144 -0.8332899418 -0.12985173942 -0.53736988999 -0.88386632618 -0.14147982711 -0.44582931258 
-0.93345827141 -0.13250977649 -0.33331188799 -0.97332328465 -0.099223981731 -0.20687287159 -0.99442627571 -0.049979936078 -0.092835274318 
-0.9997174136 -0.007743846277 -0.022475003524 -0.99994647344 0.0019189223919 -0.010167004676 -0.99793458125 -0.038954081464 -0.051079850006 
-0.98005727951 -0.14484681544 -0.13604090907 -0.90325070554 -0.33917391004 -0.26286730813 -0.61725394036 -0.65937396586 -0.42921270515 
0.32827311784 -0.84298302367 -0.42616473565 0.9464249674 -0.32006186144 -0.042897388432 0.98393176868 0.021688828804 0.17722265457 
0.93766026288 0.18717206315 0.2928478277 0.89287840826 0.2679052098 0.36193224038 0.8661684458 0.30054646311 0.39927940971 
0.85544066846 0.31008884946 0.41480859222 0.85536004852 0.31014141835 0.41493552272 0.8510185569 0.31212098351 0.42231257081 
0.81345420626 0.32185425534 0.48446062032 0.58947047886 0.32595290512 0.73910706816 -0.24827721738 0.13876036025 0.95869911117 
-0.70835259598 -0.060853804232 0.70323069776 -0.81423272441 -0.13288872926 0.56512446075 -0.85656148574 -0.17398626221 0.48583042485 
-0.88995068956 -0.22147045974 0.39867104937 -0.92148293075 -0.31107978719 0.23259100227 -0.84444844535 -0.49658045333 -0.20078515016 
-0.20114021169 -0.53790141102 -0.81866030029 0.36215750951 -0.32526326525 -0.87352489752 0.61901359188 -0.16734360096 -0.76734496303 
0.85299874668 0.042274984898 -0.52019800442 0.82643838232 0.44644790259 0.34305082787 0.17172042126 0.45843477833 0.87198030421 
-0.098671429581 0.37417114159 0.92209538866 -0.20579876186 0.32346033288 0.92359097152 -0.25790596555 0.29063958152 0.92141909389 
-0.28208191681 0.27104312 0.9203072418 -0.28773305029 0.26530768363 0.92022906104 -0.27424963097 0.28181985696 0.91943716922 
-0.24236390791 0.32662569576 0.91355097888 -0.19634285487 0.39686243284 0.89663241785 -0.15405688105 0.46432212761 0.87216480049 
-0.15694570065 0.45941354905 0.87424666885 -0.26103428912 0.24427613506 0.93391127509 -0.42206115979 -0.30812374271 0.85259846151 
-0.43664404459 -0.69770294854 0.56793712145 -0.39878304585 -0.83176326567 0.386189011 -0.37243538483 -0.87471343243 0.31011013406 
-0.35297594267 -0.89591252331 0.26971973318 -0.3495644914 -0.89883561487 0.26438457557 -0.35800876977 -0.89240600619 0.27466568931 
-0.39027411338 -0.86824515045 0.30632739861 -0.45266702138 -0.81683701807 0.35758894512 -0.58540750306 -0.67305857314 0.45198474807 
-0.80939113172 -0.095724291121 0.57941596111 0.22428265573 0.94881734722 -0.22235766672 0.57491860349 0.67646862288 -0.46028122015 
0.70913261047 0.4376095397 -0.55283707504 0.76305682813 0.24724168892 -0.59717319456 0.77598584762 0.13091763923 -0.61701421055 
0.77605775573 0.087425692651 -0.62457274039 0.77696078945 0.1014648504 -0.62131861052 0.78204984749 0.1519644284 -0.60440454047 
0.78897136625 0.20690390321 -0.57854555402 0.79558162773 0.24914152778 -0.55224847013 0.79751833252 0.25839551347 -0.54515710388 
0.78116540125 0.20632751535 -0.58924491707 0.6022782994 -0.092491120862 -0.79290998394 -0.34248935682 -0.70292820335 -0.6233722655 
-0.67756770147 -0.68774661296 -0.26058896042 -0.73666599174 -0.65525848975 -0.16721102904 -0.73630415181 -0.65552311362 -0.16776663414 
-0.69021543708 -0.68769742165 -0.22511087641 -0.55210071921 -0.75821599254 -0.34683325172 -0.20181246132 -0.82690721879 -0.52487730182 
0.33042458576 -0.7279381395 -0.6007708866 0.67525311919 -0.52731019215 -0.51572976091 0.81932975335 -0.39571810914 -0.41485652144 
0.88294413217 -0.32737116937 -0.33650821229 0.9146319946 -0.29489059067 -0.27656437585 0.9146319946 -0.29489059067 -0.27656437585 

plain_curvature_peaks 1 120 unsigned_char
0 0 0 0 0 0 0 0 0 
0 0 0 1 0 0 0 0 0 
0 0 0 0 0 0 0 0 0 
0 0 0 0 0 0 0 0 0 
0 0 0 0 0 0 0 0 0 
1 0 0 0 0 0 0 0 0 
0 0 0 0 0 0 0 0 0 
0 0 0 0 0 0 0 0 0 
0 0 0 0 0 0 0 0 0 
0 1 0 0 0 0 0 0 0 
0 0 0 0 0 0 0 0 0 
0 1 0 0 0 0 0 0 0 
0 0 0 0 0 0 0 0 0 
0 0 0 
weighted_curvature_peaks 1 120 unsigned_char
0 0 0 0 0 0 0 0 0 
0 0 0 1 0 0 0 0 0 
0 0 0 0 0 0 0 0 0 
0 0 0 0 0 0 0 0 0 
0 0 0 0 0 0 0 0 0 
0 0 0 0 1 0 0 0 0 
0 0 0 0 0 0 0 0 0 
0 0 0 0 0 0 0 0 0 
0 0 0 0 0 0 0 0 0 
0 0 0 0 0 0 0 0 1 
0 0 0 0 0 0 0 0 0 
0 0 0 0 0 0 0 1 0 
0 0 0 0 0 0 0 0 0 
0 0 0 
plain_torsion_tp 1 120 unsigned_char
0 0 0 0 0 0 0 0 0 
0 0 0 1 0 0 0 0 0 
0 0 0 0 0 0 0 0 0 
0 0 0 0 0 0 0 0 0 
0 0 0 0 0 0 0 0 0 
1 0 0 0 0 0 0 0 0 
0 0 0 0 0 0 0 0 0 
0 0 0 0 0 0 0 0 0 
0 0 0 0 0 0 0 0 0 
0 1 0 0 0 0 0 0 0 
0 0 0 0 0 0 0 0 0 
0 1 0 0 0 0 0 0 0 
0 0 0 0 0 0 0 0 0 
0 0 0 
plain_torsion_tn 1 120 unsigned_char
2 0 0 0 0 0 0 0 0 
0 0 0 0 0 0 0 0 0 
0 0 0 0 0 0 0 0 0 
0 0 2 0 0 0 0 0 0 
0 0 0 0 0 0 0 0 0 
0 0 0 0 0 0 0 0 0 
0 0 0 0 0 0 0 0 0 
0 0 0 0 0 0 0 0 0 
2 0 0 0 0 0 0 0 0 
0 0 0 0 0 0 0 0 0 
0 0 0 2 0 0 0 0 0 
0 0 0 0 0 0 0 0 0 
0 0 0 0 0 0 0 0 0 
0 0 0 
plain_torsion_tz 1 120 unsigned_char
0 3 0 0 0 0 0 0 0 
0 0 0 0 0 0 0 0 0 
0 0 0 0 0 0 0 3 0 
0 0 0 0 0 0 0 3 0 
0 0 0 0 0 0 0 0 0 
0 0 0 0 0 0 0 0 0 
0 0 0 0 0 0 0 0 0 
0 0 0 0 0 0 0 0 0 
0 0 0 0 0 3 0 0 0 
0 0 0 0 0 3 0 0 0 
0 0 0 0 0 0 0 3 0 
0 0 0 0 0 0 0 0 0 
0 0 0 0 0 0 0 0 0 
0 0 0 
weighted_torsion_tp 1 120 unsigned_char
0 0 0 0 0 0 0 0 0 
0 0 0 1 0 0 0 0 0 
0 0 0 0 0 0 0 0 0 
0 0 0 0 0 0 0 0 0 
0 0 0 0 0 0 0 0 0 
0 0 0 0 1 0 0 0 0 
0 0 0 0 0 0 0 0 0 
0 0 0 0 0 0 0 0 0 
0 0 0 0 0 0 0 0 0 
0 0 0 0 0 0 0 0 1 
0 0 0 0 0 0 0 0 0 
0 0 0 0 0 0 0 1 0 
0 0 0 0 0 0 0 0 0 
0 0 0 
weighted_torsion_tn 1 120 unsigned_char
0 0 2 0 0 0 0 0 0 
0 0 0 0 0 0 0 0 0 
0 0 0 0 0 0 0 0 0 
0 0 0 0 0 0 2 0 0 
0 0 0 0 0 0 0 0 0 
0 0 0 0 0 0 0 0 0 
0 0 0 0 0 0 0 0 0 
0 0 0 0 0 0 0 0 0 
0 0 0 0 0 2 0 0 0 
0 0 0 0 0 0 0 0 0 
0 0 0 0 0 0 0 0 2 
0 0 0 0 0 0 0 0 0 
0 0 0 0 0 0 0 0 0 
0 0 0 
weighted_torsion_tz 1 120 unsigned_char
0 0 0 3 0 0 0 0 0 
0 0 0 0 0 0 0 0 0 
0 0 0 0 0 0 0 0 0 
0 3 0 0 0 0 0 0 0 
0 0 3 0 0 0 0 0 0 
0 0 0 0 0 0 0 0 0 
0 0 0 0 0 0 0 0 0 
0 0 0 0 0 0 0 0 0 
0 0 0 0 0 0 0 0 0 
0 0 3 0 0 0 0 0 0 
0 0 3 0 0 0 0 0 0 
0 0 0 3 0 0 0 0 0 
0 0 0 0 0 0 0 0 0 
0 0 0 
plain_torsion_tp_raw 1 120 unsigned_char
0 0 0 0 0 0 0 0 0 
0 0 0 0 0 0 0 0 0 
1 0 0 0 0 0 0 0 0 
0 0 0 0 0 1 0 0 0 
0 0 0 0 0 0 0 0 0 
0 0 0 0 0 0 0 0 0 
0 0 0 0 0 0 0 0 0 
0 0 0 0 0 0 0 0 0 
0 0 0 0 1 0 0 0 0 
0 0 1 0 0 0 0 0 0 
0 0 0 0 0 0 0 0 1 
0 0 0 1 0 0 0 0 0 
0 0 0 0 0 0 0 0 0 
0 0 0 
plain_torsion_tn_raw 1 120 unsigned_char
0 0 0 0 0 0 0 2 0 
0 0 0 0 0 0 0 0 0 
0 0 0 0 0 0 0 0 2 
0 0 0 0 0 0 0 0 0 
0 0 0 0 0 0 0 0 0 
0 0 0 0 0 0 0 0 0 
0 0 0 0 0 0 0 0 0 
2 0 0 0 0 0 0 0 0 
0 0 0 0 0 0 0 0 2 
0 0 0 0 0 0 0 0 0 
0 0 0 0 2 0 0 0 0 
2 0 0 0 0 0 0 0 0 
0 0 0 0 0 0 0 0 0 
0 0 0 
plain_torsion_tz_raw 1 120 unsigned_char
3 0 0 0 0 0 0 0 0 
0 0 0 0 3 0 0 0 0 
0 3 0 0 0 0 0 0 0 
0 0 3 0 0 0 0 0 0 
0 0 0 0 0 0 0 0 0 
0 0 0 0 0 0 0 0 0 
0 0 0 0 0 0 0 0 0 
0 0 0 0 0 0 0 0 0 
0 0 0 0 0 0 0 0 0 
0 0 0 0 0 0 0 0 0 
0 0 0 0 0 0 0 0 0 
0 0 0 0 0 0 0 0 0 
0 0 0 0 0 0 0 0 0 
0 0 0 
weighted_torsion_tp_raw 1 120 unsigned_char
0 0 0 0 0 0 0 0 0 
0 0 0 0 0 0 0 0 0 
0 0 0 1 0 0 0 0 0 
0 0 0 0 0 0 0 1 0 
0 0 0 0 0 0 0 0 0 
0 0 0 0 0 0 0 0 0 
0 0 0 0 0 0 0 0 0 
0 0 0 0 0 0 0 0 0 
0 0 0 0 0 0 0 0 0 
0 1 0 0 0 0 0 0 0 
1 0 0 0 0 0 0 0 0 
0 0 0 0 1 0 0 0 1 
0 0 0 0 0 0 0 0 0 
0 0 0 
weighted_torsion_tn_raw 1 120 unsigned_char
0 0 0 0 0 0 0 2 0 
0 0 0 0 0 0 0 0 0 
0 0 0 0 0 0 0 0 0 
0 0 2 0 0 0 0 0 0 
0 0 0 0 0 0 0 0 0 
0 0 0 0 0 0 0 0 0 
0 0 0 0 0 0 0 0 0 
0 0 0 0 0 2 0 0 0 
0 0 0 0 0 0 0 0 0 
0 0 0 0 0 2 0 0 0 
0 0 0 0 0 0 0 0 2 
0 0 0 0 0 2 0 0 0 
0 0 0 0 0 0 0 0 0 
0 0 0 
weighted_torsion_tz_raw 1 120 unsigned_char
0 0 3 0 0 0 0 0 0 
0 0 0 0 0 3 0 0 0 
0 0 0 0 3 0 0 0 0 
0 0 0 0 0 3 0 0 0 
0 0 0 0 0 0 0 0 0 
0 0 0 0 0 0 0 0 0 
0 0 0 0 0 0 0 0 0 
0 0 0 0 0 0 0 0 0 
0 0 0 0 0 0 0 0 0 
0 0 0 0 0 0 0 0 0 
0 0 0 0 0 0 0 0 0 
0 0 0 0 0 0 0 0 0 
0 0 0 0 0 0 0 0 0 
0 0 0 
