# vtk DataFile Version 5.1
vtk output
ASCII
DATASET POLYDATA
POINTS 120 float
-16.9519 34.3844 -22.1565 -17.475 34.0634 -22.1035 -17.9615 33.6906 -22.0408 
-18.408 33.2733 -21.9625 -18.8149 32.8211 -21.8648 -19.186 32.3434 -21.7471 
-19.5281 31.8487 -21.6129 -19.8496 31.3431 -21.4685 -20.159 30.8302 -21.3233 
-20.4646 30.3119 -21.19 -20.7733 29.7888 -21.0858 -21.09 29.2629 -21.0351 
-21.4152 28.7414 -21.0706 -21.7385 28.2427 -21.2284 -22.0367 27.7951 -21.5261 
-22.2861 27.4159 -21.9413 -22.4778 27.0988 -22.433 -22.6134 26.8272 -22.969 
-22.6975 26.5845 -23.529 -22.7334 26.3585 -24.1011 -22.7233 26.1401 -24.6772 
-22.6673 25.9229 -25.2512 -22.5655 25.7023 -25.8175 -22.4167 25.4754 -26.3707 
-22.2201 25.2403 -26.9052 -21.9758 24.9968 -27.4157 -21.6856 24.7458 -27.8978 
-21.3539 24.4889 -28.3491 -20.9875 24.2276 -28.7701 -20.595 23.9626 -29.1644 
-20.1857 23.6927 -29.5379 -19.7685 23.4159 -29.8974 -19.3513 23.1291 -30.2488 
-18.9403 22.8289 -30.5964 -18.5406 22.5117 -30.942 -18.1555 22.1741 -31.2848 
-17.787 21.8124 -31.6212 -17.4362 21.4222 -31.9445 -17.1039 20.9978 -32.243 
-16.7915 20.5313 -32.4962 -16.505 20.0139 -32.6655 -16.2664 19.4496 -32.6727 
-16.1323 18.9118 -32.4205 -16.1402 18.5252 -31.9469 -16.2545 18.2968 -31.3879 
-16.438 18.1748 -30.8131 -16.6716 18.1222 -30.2455 -16.9451 18.1169 -29.6934 
-17.2521 18.1444 -29.1599 -17.5869 18.194 -28.6449 -17.9439 18.2572 -28.1465 
-18.3167 18.3264 -27.6606 -18.6979 18.3944 -27.1811 -19.0792 18.4545 -26.7006 
-19.4508 18.4992 -26.211 -19.8014 18.5213 -25.7047 -20.1191 18.5135 -25.1769 
-20.3948 18.4709 -24.6276 -20.624 18.3905 -24.0613 -20.8085 18.2724 -23.4855 
-20.9545 18.1176 -22.9072 -21.0696 17.9276 -22.3324 -21.1608 17.7039 -21.7655 
-21.2334 17.448 -21.2096 -21.2905 17.1618 -20.6669 -21.3336 16.8475 -20.1385 
-21.3622 16.5076 -19.6253 -21.3748 16.1449 -19.1272 -21.3687 15.7619 -18.6444 
-21.3407 15.3611 -18.1771 -21.2875 14.9446 -17.7261 -21.2056 14.514 -17.2929 
-21.092 14.0711 -16.8798 -20.9443 13.6174 -16.4898 -20.7611 13.1549 -16.1262 
-20.5417 12.6859 -15.792 -20.2864 12.2137 -15.4895 -19.9958 11.7424 -15.2191 
-19.6703 11.2776 -14.9789 -19.3094 10.8265 -14.7646 -18.9116 10.3978 -14.5704 
-18.4753 10.0021 -14.3895 -18.0002 9.65102 -14.2148 -17.4892 9.35476 -14.0399 
-16.9492 9.11938 -13.8597 -16.3894 8.94403 -13.6714 -15.8186 8.82127 -13.4743 
-15.2435 8.74067 -13.2683 -14.6676 8.69166 -13.0542 -14.093 8.6648 -12.8331 
-13.5202 8.6531 -12.6057 -12.9495 8.6516 -12.373 -12.3807 8.65771 -12.1358 
-11.8135 8.67116 -11.8949 -11.2479 8.6938 -11.651 -10.6841 8.72904 -11.4047 
-10.1223 8.7809 -11.1565 -9.56332 8.85305 -10.9072 -9.00806 8.94772 -10.657 
-8.45729 9.06484 -10.4065 -7.91144 9.20206 -10.1553 -7.37023 9.35441 -9.90286 
-6.83274 9.51497 -9.64751 -6.29765 9.67521 -9.38696 -5.7637 9.82518 -9.11816 
-5.2304 9.95385 -8.83738 -4.69894 10.0493 -8.54046 -4.17321 10.0993 -8.2231 
-3.66052 10.0922 -7.88166 -3.17214 10.0184 -7.51375 -2.72172 9.87367 -7.11955 
-2.32297 9.65994 -6.70178 -1.98519 9.38597 -6.26578 -1.71181 9.06306 -5.81815 
-1.49988 8.70242 -5.36591 -1.34269 8.31279 -4.91525 -1.23113 7.90017 -4.47141 
-1.15509 7.46771 -4.03902 -1.10408 7.01646 -3.62242 -1.06815 6.54628 -3.22561 

LINES 2 120
OFFSETS vtktypeint64
0 120 
CONNECTIVITY vtktypeint64
0 1 2 3 4 5 6 7 8 
9 10 11 12 13 14 15 16 17 
18 19 20 21 22 23 24 25 26 
27 28 29 30 31 32 33 34 35 
36 37 38 39 40 41 42 43 44 
45 46 47 48 49 50 51 52 53 
54 55 56 57 58 59 60 61 62 
63 64 65 66 67 68 69 70 71 
72 73 74 75 76 77 78 79 80 
81 82 83 84 85 86 87 88 89 
90 91 92 93 94 95 96 97 98 
99 100 101 102 103 104 105 106 107 
108 109 110 111 112 113 114 115 116 
117 118 119 
CELL_DATA 1
FIELD FieldData 2
Length 1 1 double
73.304442388 
Tortuosity 1 1 double
0.96927550515 
POINT_DATA 120
FIELD FieldData 19
Curvature 1 120 double
0 0.16960618883 0.1630167831 0.14852241546 0.12764572835 0.098539231031 0.067128342155 0.037013084601 0.035702221851 
0.078187969195 0.14298947982 0.22966256211 0.33238545939 0.40540178935 0.38736663269 0.30443655131 0.224203073 0.16839070084 
0.13840272593 0.12354117432 0.12100934037 0.1230320486 0.12955706248 0.137150914 0.14283879788 0.14368322537 0.13734601761 
0.12225487133 0.098660345986 0.07140779 0.046286136575 0.033814643806 0.040288538013 0.053756080568 0.066628813955 0.078983129925 
0.094829774292 0.12150833841 0.17160797526 0.26991822533 0.47512481289 0.79459804866 0.86830785237 0.57285988408 0.34150866519 
0.22789808941 0.16826423689 0.13313382711 0.10566380107 0.081477081963 0.054993021622 0.028061050813 0.021312955401 0.053388340661 
0.092583768101 0.13009833613 0.15499254643 0.16450843025 0.1562224275 0.14072620983 0.12371117916 0.11103088607 0.10226085564 
0.096019005971 0.091241562847 0.086888555355 0.083855430167 0.082720956101 0.085053365756 0.089202281209 0.09647113877 0.10419714321 
0.11238538306 0.11874157788 0.12427121951 0.12652674148 0.12585853042 0.12290468902 0.1213071095 0.12567124948 0.13814015658 
0.15702043984 0.17319209598 0.17882923457 0.16831229656 0.1437045968 0.11418428033 0.085905854388 0.061374188004 0.043410886072 
0.03074566789 0.023747978678 0.022084453285 0.025847035018 0.034073254377 0.044357374541 0.054054061997 0.060128795923 0.060314280406 
0.054512448119 0.041803191258 0.024918590111 0.015100591023 0.034786781308 0.064425705941 0.097333194801 0.13245769963 0.16725262876 
0.20053956629 0.22422715502 0.23682878613 0.23224900303 0.21638373565 0.19109684026 0.16364964808 0.13603467163 0.11142111108 
0.09237328505 0.082381504817 0 
Torsion 1 120 double
0 0 0.17870597071 0.16020101562 0.11602139278 0.028880328007 -0.20565242521 -1.2318459712 -1.57544596 
-0.31015892373 -0.053055549054 0.023930916537 0.056432389608 0.082350024945 0.12305982084 0.18927119372 0.26788812981 0.33698271897 
0.35451531343 0.32458525915 0.2544248049 0.18667799437 0.1245616538 0.076262740522 0.04213303978 0.023417492815 0.021424911224 
0.041685070483 0.10401563571 0.26463922814 0.68825481828 1.1752472666 0.59568450373 0.13454303132 -0.084124637823 -0.21784643981 
-0.30077141536 -0.32857054975 -0.29692099692 -0.22213743423 -0.10851876895 -0.026429843313 0.022165676726 0.096946506815 0.18953305578 
0.22172547026 0.22044698614 0.20751374893 0.20207336261 0.21947119956 0.3517368084 1.2191101678 2.2941172979 0.41395424852 
0.1370513524 0.043620399152 -0.011880928288 -0.061976996091 -0.11894169227 -0.17480688784 -0.2131569153 -0.20836155134 -0.15912686438 
-0.081379698653 0.0034534926777 0.082786083968 0.1454918798 0.17814346425 0.17098320311 0.13807083518 0.091034204365 0.049638055533 
0.020695649449 0.0091857394783 0.015957171352 0.047487493935 0.11332946934 0.21031912353 0.310472675 0.35980499758 0.33256807661 
0.26190336833 0.19600879036 0.14880208712 0.12237595697 0.11216928937 0.1132297234 0.1247334619 0.1479644996 0.16877603037 
0.15482992434 0.018488513645 -0.19474239235 -0.24422015321 -0.16127524548 -0.085960047811 -0.039778179129 -0.0095336683432 0.020471417493 
0.06984951361 0.20119508328 0.79461024329 2.6585943226 0.52657601439 0.12367347161 0.014986899326 -0.03178107309 -0.059085400045 
-0.077393077034 -0.091014615864 -0.094241922362 -0.083594847155 -0.052321721785 -0.0067309746901 0.052415030662 0.14037429569 0.27263197808 
0.42794018312 0 0 
FrenetTangent 3 120 double
-0.82048301829 -0.56388792442 0.094010772732 -0.82048301829 -0.56388792442 0.094010772732 -0.75812111109 -0.64197424144 0.11454891638 
-0.69333646611 -0.70629158055 0.14295715446 -0.63177792058 -0.75516148173 0.17489366936 -0.57890503967 -0.78932489714 0.20453645589 
-0.53849532358 -0.81171607544 0.22614110495 -0.51186699163 -0.82632640933 0.23489752686 -0.49900301875 -0.83663588586 0.22591233203 
-0.49851181984 -0.8451816438 0.19275361076 -0.50802042458 -0.85210741635 0.12581017136 -0.52248154506 -0.85256026332 0.012410982163 
-0.52972567422 -0.83334085132 -0.15790419751 -0.50932787529 -0.77541058504 -0.37326068646 -0.44836718598 -0.67699445694 -0.58364832888 
-0.35991132557 -0.56814735841 -0.74004892869 -0.26632659977 -0.47907277366 -0.83639668806 -0.1785720041 -0.41798869836 -0.89072862725 
-0.097502886736 -0.38069781986 -0.91954464657 -0.020911974483 -0.36089960525 -0.93237018627 0.053677649459 -0.35370193199 -0.93381671288 
0.12815020586 -0.35543088869 -0.925876022 0.2035186437 -0.36340634497 -0.90912924829 0.28047625351 -0.37528562977 -0.8834555831 
0.35814600625 -0.38877726123 -0.84887200411 0.43418106124 -0.40170401171 -0.806300622 0.50509396604 -0.41249665881 -0.75810724303 
0.56691832328 -0.42070584936 -0.70824445147 0.61607619839 -0.42723173143 -0.66175763345 0.6506224643 -0.43408521645 -0.62310547567 
0.67051539441 -0.4435206067 -0.59472563194 0.67696123288 -0.45726504702 -0.57674272076 0.67193901776 -0.47628054697 -0.56714618662 
0.65777839076 -0.50094716234 -0.56247624768 0.6368837008 -0.53134003695 -0.55862054814 0.61157989393 -0.56755861161 -0.55122341725 
0.58381998533 -0.6102971594 -0.53543589901 0.55471794122 -0.66138910727 -0.50482913395 0.52401556113 -0.72407666997 -0.44846478981 
0.48812572849 -0.80194393671 -0.34441137548 0.43205981902 -0.8900848808 -0.14516617289 0.31343518986 -0.92697605958 0.20609164643 
0.10681111565 -0.78207403516 0.61396383371 -0.10114580077 -0.50910779335 0.85473901382 -0.24339124354 -0.2863765674 0.92668719869 
-0.33945152424 -0.14207540815 0.92983183485 -0.41211810576 -0.047051646252 0.90991472649 -0.47146084528 0.017990597383 0.88170347043 
-0.52103670523 0.062620591541 0.85123405319 -0.56149540291 0.091570995897 0.82239751047 -0.59215786939 0.1073990201 0.79863289952 
-0.61166486543 0.11133445926 0.78324372361 -0.61858176964 0.10394052839 0.77881510054 -0.61088789676 0.085035637324 0.78713716592 
-0.58619410347 0.054224049889 0.80835402236 -0.54277484233 0.01158929997 0.8397982845 -0.48216817506 -0.040972680272 0.87512004344 
-0.4102319671 -0.099970763906 0.9064852892 -0.33611255372 -0.1612345356 0.92791797901 -0.26848764938 -0.22165700307 0.93743402708 
-0.21203061985 -0.27997074483 0.93630091225 -0.16750625369 -0.33585180396 0.92690086889 -0.13291520547 -0.38933019584 0.91145792375 
-0.1052830321 -0.44002650253 0.89179154527 -0.081342875646 -0.48743181335 0.86936388464 -0.05818015725 -0.53097617478 0.84538711318 
-0.033418119944 -0.57024891638 0.82079193626 -0.005252287545 -0.60517482477 0.79607527593 0.027635110162 -0.63609670551 0.77111431184 
0.065866380315 -0.66341642466 0.74534573684 0.10964779445 -0.68761175086 0.71775165708 0.15871561187 -0.70909669885 0.68701617611 
0.21218775066 -0.72794905241 0.65197126897 0.26871924024 -0.7439081624 0.61187467331 0.3269155238 -0.75635544203 0.56661511241 
0.38546563699 -0.76428197664 0.51700029293 0.44327442046 -0.76620164948 0.46523415663 0.50026749268 -0.76012532828 0.41465880079 
0.55737553051 -0.74371640795 0.36907780012 0.61612081234 -0.71440780984 0.33168754249 0.67743710923 -0.66953240854 0.30463965099 
0.74050247286 -0.6067906289 0.2888965565 0.80148536918 -0.52617707957 0.28418107594 0.85433965886 -0.4321497926 0.28870452725 
0.89383321642 -0.33378988023 0.29941024877 0.91833559973 -0.24215766622 0.31308048639 0.93037076724 -0.16510735588 0.32733743524 
0.93419568975 -0.10519180297 0.34090042217 0.9335379059 -0.061563497891 0.35315281959 0.93090038759 -0.031287901925 0.36393067415 
0.92766717664 -0.010711850887 0.37325442481 0.92449731457 0.0037453817609 0.38117015553 0.92160473211 0.015865752836 0.38780535792 
0.91894800445 0.029273887603 0.39329073803 0.91629883932 0.046957942163 0.39773281072 0.91326616629 0.070664841533 0.40118747449 
0.90934583231 0.10061963088 0.40369028615 0.9041035271 0.13536353175 0.40530670679 0.89745320364 0.17185279052 0.40625652693 
0.88977895041 0.2063714432 0.40706786515 0.88195701172 0.23493299677 0.40860533097 0.87511168746 0.25385390475 0.41199239011 
0.87012210991 0.26024687606 0.41852010387 0.86730974672 0.25167290199 0.42945844229 0.86602545775 0.22610066667 0.44595784 
0.86428777009 0.18195299766 0.46893470453 0.85858128212 0.11815654234 0.49887595 0.84388978201 0.034869697971 0.53538223727 
0.81415561068 -0.065803475062 0.5769060099 0.76399937963 -0.177883199 0.62021166986 0.69129691638 -0.29183744319 0.66101397879 
0.59953115818 -0.39698099833 0.69495933502 0.49726106124 -0.48563852003 0.7189483047 0.39460711773 -0.55579805737 0.73169238212 
0.29995113819 -0.60967633707 0.7337057167 0.21827366478 -0.65157838071 0.72649998008 0.15230363856 -0.6860981982 0.71138798423 
0.10312566544 -0.7172850561 0.68910612058 0.070563049625 -0.74781461261 0.66014707542 0.070563049625 -0.74781461261 0.66014707542 

FrenetNormal 3 120 double
0.57159994985 -0.80662136855 0.15045087279 0.57159994985 -0.80662136855 0.15045087279 0.64716583664 -0.71907273939 0.25320105716 
0.70389044072 -0.62129448247 0.34428391411 0.74323121961 -0.52606452488 0.41335634731 0.7736682332 -0.45250266906 0.44348483562 
0.81203710057 -0.42824996034 0.39648167518 0.85550409203 -0.51518891273 0.051895401788 0.28219454556 -0.40335337039 -0.87044373572 
-0.10378718105 -0.16256318538 -0.98122445537 -0.1515774797 -0.055341571005 -0.98689491749 -0.09942491427 0.046462013194 -0.99395974151 
0.011618932843 0.1790234379 -0.98377619868 0.16580754273 0.33718693457 -0.9267215493 0.33920243946 0.47524841716 -0.81183782066 
0.50674968373 0.54696197498 -0.66636128036 0.66375726041 0.53805416002 -0.51954212547 0.80733966208 0.45521762734 -0.37547247808 
0.92001772433 0.31788788052 -0.22916082197 0.98300031391 0.16272512397 -0.085034798038 0.99852377573 0.026790750115 0.047249603189 
0.98388946849 -0.071779776302 0.16373508332 0.95496530633 -0.13110008536 0.26618420562 0.92020229461 -0.15670286502 0.35870872459 
0.88254121147 -0.1557607602 0.44368862464 0.84193222967 -0.13736662356 0.52180507028 0.79762478113 -0.1124097594 0.5925864954 
0.74929326813 -0.093891273341 0.65554864588 0.69444475685 -0.10190048218 0.71229402034 0.61755217882 -0.17508330559 0.76679537201 
0.44880911521 -0.39581636931 0.80118648259 0.007395328742 -0.77933256291 0.62656688829 -0.41199549387 -0.87674339077 0.24815466904 
-0.54857015126 -0.83034195972 0.097994995176 -0.57758917488 -0.80877726691 0.11077038224 -0.55488357499 -0.80432539444 0.21252030038 
-0.49088481698 -0.79064372416 0.36594343538 -0.39883771869 -0.74385518208 0.53629091195 -0.3060937312 -0.65147121494 0.69418432986 
-0.25086090685 -0.50688074789 0.8247064404 -0.26723474357 -0.28009509684 0.92202620817 -0.36768610005 0.081630326751 0.92636030873 
-0.46886034242 0.50491205435 0.72473015439 -0.50802089298 0.7651189468 0.39561062869 -0.53867940963 0.83443338198 0.11638481294 
-0.58163280139 0.80859167855 -0.088785030936 -0.62555960526 0.74070046005 -0.24502654704 -0.66337758676 0.65153422973 -0.36801266944 
-0.69283403103 0.55143827227 -0.46464700293 -0.71840549426 0.43924704431 -0.53940298469 -0.75136816291 0.28455201323 -0.59537890081 
-0.7910261412 -0.10107386288 -0.60337527144 -0.013186901029 -0.99244523114 0.12197773911 0.4772767715 -0.75369427053 0.45183163895 
0.59639576473 -0.64643484198 0.47585090826 0.66511676952 -0.60463492582 0.43821945344 0.7158616792 -0.59426258554 0.36659792099 
0.74801303041 -0.60550406563 0.27173761762 0.75337227417 -0.63728841065 0.16215331682 0.72369109856 -0.68869247043 0.044428313553 
0.65800098842 -0.7492690911 -0.075036846766 0.56850042647 -0.80102970883 -0.18750645502 0.48077790012 -0.82950329089 -0.28421277446 
0.42214627239 -0.83173942635 -0.36055797227 0.40749847598 -0.81228400282 -0.41730048027 0.4374594484 -0.77474814156 -0.45650251714 
0.50532619701 -0.7181852297 -0.47838834691 0.59309853541 -0.64283328307 -0.48476746742 0.67843277763 -0.55460547009 -0.48181089525 
0.74448974126 -0.46467456562 -0.47938770658 0.7848768943 -0.38316849267 -0.48698066391 0.80208125267 -0.31316048871 -0.50852352199 
0.80098017402 -0.25264574866 -0.54277148645 0.78762277417 -0.19597138964 -0.58416228914 0.76795344717 -0.13682338755 -0.62572107492 
0.74856958863 -0.068579294549 -0.65950015264 0.73948864662 0.01924185818 -0.67289396818 0.7493793846 0.1401750895 -0.6471332801 
0.77009535359 0.29695758634 -0.56459661556 0.77421381744 0.47183903959 -0.42185410463 0.73525681223 0.62862671482 -0.25342824128 
0.65440596246 0.74890013956 -0.1044098523 0.54759694223 0.83672823217 0.0048429691696 0.42916661863 0.89993108393 0.077071769288 
0.30978135553 0.94244063274 0.12586169205 0.19878287283 0.96618398985 0.16423722851 0.10172869858 0.97405262561 0.20217011262 
0.018831730527 0.96875039706 0.2473217219 -0.052675322747 0.9508917345 0.30500855665 -0.11648924046 0.91887263628 0.3769659602 
-0.17242039607 0.87435826454 0.45361749552 -0.20763520106 0.84353535791 0.4953137624 -0.201263235 0.87387001836 0.44254299368 
-0.16257189334 0.93668802862 0.31013854409 -0.13102775548 0.97359866351 0.18691540786 -0.12378879064 0.98640856368 0.10804851142 
-0.13627556677 0.98882135175 0.060508712026 -0.16206962424 0.98625593156 0.032135251124 -0.19635107662 0.98034853521 0.019052669402 
-0.23798368501 0.9708657554 0.02799018873 -0.29293040738 0.95237501423 0.084697158782 -0.39394684565 0.86815125317 0.30185970984 
-0.41866151968 -0.057717461388 0.90630636464 -0.08438833176 -0.77593526146 0.62514244735 -0.025218120504 -0.87102894927 0.49058395401 
-0.04855088685 -0.89774956172 0.43782249351 -0.11233459802 -0.90607557669 0.40793135135 -0.20467886167 -0.901492373 0.38133720643 
-0.31928808368 -0.88059627123 0.35015043441 -0.4478221034 -0.83820424371 0.31123786649 -0.57821090271 -0.77204930918 0.26384089179 
-0.69600181949 -0.68730796575 0.20782018062 -0.78871355169 -0.59828215906 0.14138384468 -0.85099221283 -0.52139939445 0.062888195768 
-0.88385318557 -0.46700049197 -0.026722403685 -0.88553219036 -0.44509236535 -0.13313724551 -0.8405491803 -0.46854200824 -0.27192914889 
-0.71409137249 -0.53566590242 -0.45070561647 -0.4822970935 -0.60487642864 -0.63365133921 -0.4822970935 -0.60487642864 -0.63365133921 

FrenetBinormal 3 120 double
-0.009006332226 0.17717893919 0.98413744441 -0.009006332226 0.17717893919 0.98413744441 -0.080179553505 0.26608921209 0.96060802121 
-0.15434633856 0.33933076681 0.9279180128 -0.22014543664 0.39113584874 0.89361554069 -0.25750033005 0.41497896481 0.87263167418 
-0.22498563014 0.39713849516 0.88975416936 0.078134060444 0.22751933863 0.97063382341 0.81936696646 -0.37060282391 0.43736863306 
0.86064753908 -0.50915734281 -0.0066793508987 0.84790301088 -0.52043276369 -0.10104564621 0.84683393974 -0.52055958231 -0.10904127553 
0.84808944721 -0.5229661884 -0.085150779955 0.84444832538 -0.5338945549 -0.043169781248 0.826987649 -0.56197637606 0.016552375855 
0.7833700248 -0.61485053228 0.091050684736 0.69892520452 -0.693532262 0.17468989685 0.56241862468 -0.78616942182 0.25616973047 
0.37955312407 -0.86834121483 0.31925375588 0.18240907919 -0.91829843132 0.35136152161 0.0083053742735 -0.93497443762 0.35461785311 
-0.12465567992 -0.9319423518 0.34050611505 -0.21591995131 -0.92236033959 0.32035913999 -0.2730582506 -0.91356713392 0.30138726515 
-0.30471699701 -0.90806983582 0.28732686092 -0.32036998408 -0.90540835964 0.27856556785 -0.3296586022 -0.90399698697 0.272240066 
-0.34229112325 -0.90232533883 0.26200337754 -0.37174802953 -0.89838151105 0.23391037418 -0.44194990144 -0.88369443869 0.15415713947 
-0.59074485521 -0.80412615504 -0.066344877912 -0.73598152034 -0.4284266952 -0.52419630727 -0.61543291222 0.066916868689 -0.78534353199 
-0.51613794455 0.24409869004 -0.82098565866 -0.51065633916 0.25210533049 -0.82199331239 -0.56398071913 0.17589167761 -0.80683819084 
-0.64667327236 0.049192262218 -0.76117921684 -0.73021673484 -0.09614529046 -0.67641673788 -0.79480457939 -0.22649113031 -0.56301638384 
-0.83594382503 -0.31616108202 -0.44859791753 -0.86134192085 -0.35957703165 -0.35887944173 -0.87553715717 -0.36613095297 -0.31525039522 
-0.87679037682 -0.36527252964 -0.3127532801 -0.85538546824 -0.39421092324 -0.33602596436 -0.80658861646 -0.47086026875 -0.35735893875 
-0.7392401146 -0.57095890901 -0.35711339542 -0.6624453541 -0.67018577355 -0.33468967979 -0.58108075923 -0.75840588466 -0.2952383196 
-0.49849950577 -0.83186206392 -0.24393390366 -0.41062934422 -0.8936871862 -0.18085008956 -0.29119570992 -0.95262563594 -0.087803509452 
0.011989009145 -0.98862971452 0.14989179843 0.78560976312 0.065183048063 0.61527918081 0.63168256346 0.65170076489 0.41983717328 
0.5483507681 0.76103991189 0.34659729895 0.51285003015 0.79641841679 0.32047238877 0.50503060027 0.80322675435 0.31586527808 
0.52171471083 0.78953826561 0.323176558 0.56520665932 0.7535694435 0.33567026392 0.63575590914 0.69034111435 0.34531662259 
0.72254945539 0.60017681659 0.34308901665 0.8054495143 0.49553503544 0.3251093794 0.86670996239 0.40043262731 0.29743495436 
0.90039325178 0.33850584002 0.27332359652 0.90957590594 0.32032003699 0.26470123771 0.89735405516 0.34326319198 0.27735551323 
0.86228108171 0.39878082853 0.31216211641 0.80511275035 0.46960494209 0.36230464748 0.73414253856 0.53646412162 0.4162222715 
0.66437688483 0.58647778778 0.46330029069 0.6098734475 0.61674304723 0.49767699538 0.57573867219 0.63175341708 0.5190497099 
0.55982775859 0.63738552131 0.52946442556 0.55447302507 0.63890207415 0.53325772767 0.55079373932 0.63969196175 0.53611607959 
0.53949959563 0.64122534303 0.54568328339 0.50662049869 0.64231206063 0.57512684434 0.43377756247 0.63447650042 0.63974729129 
0.31029931417 0.5989174371 0.73824944237 0.14487273547 0.51671017211 0.84381425003 -0.021826202227 0.39567007384 0.91813332886 
-0.15299975154 0.26637138293 0.95164981079 -0.24033058866 0.15173511929 0.95875839591 -0.29312072726 0.058056876662 0.95431108048 
-0.32418774342 -0.019747648308 0.94578662361 -0.34226465744 -0.088589855233 0.93541795034 -0.35222366099 -0.1547935515 0.92302624505 
-0.35626363717 -0.22462714169 0.90698338907 -0.3545874908 -0.30333948801 0.88445060144 -0.34620041197 -0.39331176627 0.85173418933 
-0.33121717408 -0.4851627371 0.80926652107 -0.31967536444 -0.5370605851 0.78062384623 -0.33187019749 -0.48590067802 0.80855593691 
-0.3593117652 -0.34893921611 0.86552670603 -0.37845497004 -0.22338440875 0.89826011911 -0.38809952954 -0.14833956208 0.90960108261 
-0.39308921017 -0.11003646765 0.91289257234 -0.39538620258 -0.094741499556 0.91361578307 -0.39499873669 -0.096867785641 0.91356041405 
-0.38943187476 -0.12178059135 0.91296894936 -0.36924735057 -0.19439217912 0.90877284004 -0.28104344374 -0.42646406257 0.85973425317 
0.26001931808 -0.96381546893 0.05873411334 0.49056336258 -0.57843341918 -0.65173795874 0.49936354785 -0.43610441189 -0.74863141065 
0.50064904061 -0.40117182239 -0.76707998739 0.50021907208 -0.40628325197 -0.76466646265 0.49594011675 -0.43138799889 -0.75362311205 
0.48498016579 -0.46927615513 -0.73795266042 0.46450006633 -0.51553003147 -0.72004755054 0.43333673442 -0.56459788429 -0.7024588982 
0.39515042406 -0.60828763523 -0.68836203788 0.36147250291 -0.63734895153 -0.68053210331 0.34655082792 -0.64748064905 -0.67872773096 
0.35893294785 -0.64047271958 -0.67894170179 0.4101089454 -0.61427876416 -0.67414557241 0.51988525386 -0.55654078821 -0.64805993077 
0.69241505534 -0.44560541882 -0.56744797282 0.87316113612 -0.27367464486 -0.40335073959 0.87316113612 -0.27367464486 -0.40335073959 

plain_curvature_peaks 1 120 unsigned_char
0 0 0 0 0 0 0 0 0 
1 0 0 0 0 0 0 0 0 
0 0 0 0 0 0 0 0 0 
0 0 0 0 0 0 0 0 0 
0 0 0 0 0 0 1 0 0 
0 0 0 0 0 0 0 0 0 
0 0 0 0 0 0 0 0 0 
0 0 0 0 0 0 0 0 0 
0 0 0 0 0 0 1 0 0 
0 0 0 0 0 0 0 0 0 
0 0 0 0 0 0 0 0 0 
0 0 0 0 0 0 0 0 0 
0 0 0 1 0 0 0 0 0 
0 0 0 
weighted_curvature_peaks 1 120 unsigned_char
0 0 0 0 0 0 0 0 0 
0 0 1 0 0 0 0 0 0 
0 0 0 0 0 0 0 0 0 
0 0 0 0 0 0 0 0 0 
0 0 0 0 0 0 0 0 0 
0 1 0 0 0 0 0 0 0 
0 0 0 0 0 0 0 0 0 
0 0 0 0 0 0 0 0 0 
0 0 0 0 0 0 0 0 0 
0 0 1 0 0 0 0 0 0 
0 0 0 0 0 0 0 0 0 
0 0 0 0 0 0 0 0 0 
0 0 0 0 0 0 1 0 0 
0 0 0 
plain_torsion_tp 1 120 unsigned_char
0 0 0 0 0 0 0 0 0 
1 0 0 0 0 0 0 0 0 
0 0 0 0 0 0 0 0 0 
0 0 0 0 0 0 0 0 0 
0 0 0 0 0 0 1 0 0 
0 0 0 0 0 0 0 0 0 
0 0 0 0 0 0 0 0 0 
0 0 0 0 0 0 0 0 0 
0 0 0 0 0 0 1 0 0 
0 0 0 0 0 0 0 0 0 
0 0 0 0 0 0 0 0 0 
0 0 0 0 0 0 0 0 0 
0 0 0 1 0 0 0 0 0 
0 0 0 
plain_torsion_tn 1 120 unsigned_char
0 2 0 0 0 0 0 0 0 
0 0 0 0 0 0 0 0 0 
0 0 0 0 0 0 0 0 0 
2 0 0 0 0 0 0 0 0 
0 0 0 0 0 0 0 0 0 
0 0 0 0 0 0 0 0 0 
0 0 2 0 0 0 0 0 0 
0 0 0 0 0 0 0 0 0 
0 0 0 0 0 0 0 0 0 
0 0 0 0 0 0 0 0 0 
0 0 0 0 0 0 0 2 0 
0 0 0 0 0 0 0 0 0 
0 0 0 0 0 0 0 0 0 
0 0 0 
plain_torsion_tz 1 120 unsigned_char
0 3 0 0 0 0 0 0 0 
0 0 0 0 0 0 0 0 0 
3 0 0 0 0 0 0 0 0 
0 0 0 0 0 3 0 0 0 
0 0 0 0 0 0 0 0 0 
0 0 0 0 0 0 0 0 0 
0 0 0 0 0 0 0 0 0 
3 0 0 0 0 0 0 0 0 
0 0 0 0 0 0 0 0 0 
0 0 0 0 0 0 0 0 0 
3 0 0 0 0 0 0 0 0 
0 0 0 3 0 0 0 0 0 
0 0 0 0 0 0 0 0 0 
0 0 0 
weighted_torsion_tp 1 120 unsigned_char
0 0 0 0 0 0 0 0 0 
0 0 1 0 0 0 0 0 0 
0 0 0 0 0 0 0 0 0 
0 0 0 0 0 0 0 0 0 
0 0 0 0 0 0 0 0 0 
0 1 0 0 0 0 0 0 0 
0 0 0 0 0 0 0 0 0 
0 0 0 0 0 0 0 0 0 
0 0 0 0 0 0 0 0 0 
0 0 1 0 0 0 0 0 0 
0 0 0 0 0 0 0 0 0 
0 0 0 0 0 0 0 0 0 
0 0 0 0 0 0 1 0 0 
0 0 0 
weighted_torsion_tn 1 120 unsigned_char
0 0 0 2 0 0 0 0 0 
0 0 0 0 0 0 0 0 0 
0 0 0 0 0 0 0 0 0 
0 0 0 2 0 0 0 0 0 
0 0 0 0 0 0 0 0 0 
0 0 0 0 0 0 0 0 0 
0 0 0 0 0 0 0 0 2 
0 0 0 0 0 0 0 0 0 
0 0 0 0 0 0 0 0 0 
0 0 0 0 0 0 0 0 0 
0 0 0 0 0 0 0 0 0 
0 0 2 0 0 0 0 0 0 
0 0 0 0 0 0 0 0 0 
0 0 0 
weighted_torsion_tz 1 120 unsigned_char
0 0 0 3 0 0 0 0 0 
0 0 0 0 0 0 0 0 0 
0 0 0 3 0 0 0 0 0 
0 0 0 0 0 0 0 0 0 
3 0 0 0 0 0 0 0 0 
0 0 0 0 0 0 0 0 0 
0 0 0 0 0 0 0 0 0 
0 0 0 0 0 3 0 0 0 
0 0 0 0 0 0 0 0 0 
0 0 0 0 0 0 0 0 0 
0 0 0 0 0 3 0 0 0 
0 0 0 0 0 0 0 0 3 
0 0 0 0 0 0 0 0 0 
0 0 0 
plain_torsion_tp_raw 1 120 unsigned_char
0 0 0 0 0 0 0 0 0 
0 0 0 1 0 0 0 0 0 
0 0 0 0 0 0 0 0 0 
0 0 0 1 0 0 0 0 0 
0 0 0 0 0 0 0 0 0 
0 0 0 0 0 0 0 0 0 
0 0 0 0 0 1 0 0 0 
0 0 0 0 0 0 0 0 0 
0 0 0 0 0 0 0 0 0 
0 0 1 0 0 0 0 0 0 
0 0 0 0 0 0 0 0 0 
0 0 0 0 0 0 0 1 0 
0 0 0 0 0 1 0 0 0 
0 0 0 
plain_torsion_tn_raw 1 120 unsigned_char
0 0 0 0 0 0 2 0 0 
0 0 0 0 0 0 0 0 0 
0 0 2 0 0 0 0 0 0 
0 0 0 0 0 0 0 0 0 
0 0 0 0 0 0 0 0 0 
0 0 0 0 0 0 2 0 0 
0 0 0 0 0 0 0 0 0 
0 0 0 0 0 2 0 0 0 
0 0 0 0 0 0 0 0 0 
0 0 0 0 0 0 0 0 0 
0 0 0 0 0 0 0 0 2 
0 0 0 0 0 0 0 0 0 
0 2 0 0 0 0 0 0 0 
0 0 0 
plain_torsion_tz_raw 1 120 unsigned_char
0 3 0 0 0 0 0 0 0 
0 3 0 0 3 0 0 0 0 
0 0 0 0 0 0 0 0 3 
0 0 0 0 0 0 0 0 0 
0 0 0 0 0 0 0 0 0 
0 0 0 0 0 0 0 0 0 
0 0 0 0 0 0 0 0 0 
0 0 0 0 0 0 0 0 0 
0 0 0 0 0 0 0 0 0 
0 0 0 0 0 0 0 0 0 
0 0 0 0 0 0 0 0 0 
0 0 0 0 0 0 0 0 0 
0 0 0 0 0 0 0 0 0 
0 0 0 
weighted_torsion_tp_raw 1 120 unsigned_char
0 0 0 0 0 0 0 0 0 
0 0 0 0 0 1 0 0 0 
0 0 0 0 0 0 0 0 0 
0 0 0 0 0 0 1 0 0 
0 0 0 0 0 0 0 0 0 
0 0 0 0 0 0 0 0 0 
0 0 0 0 0 0 0 0 0 
0 0 1 0 0 0 0 0 0 
0 0 0 0 0 0 0 0 0 
0 0 0 0 0 0 0 1 0 
0 0 0 0 0 0 0 0 0 
0 0 0 0 0 0 0 0 0 
0 0 1 0 0 0 0 1 0 
0 0 0 
weighted_torsion_tn_raw 1 120 unsigned_char
0 0 0 0 0 0 0 0 2 
0 0 0 0 0 0 0 0 0 
0 0 0 0 0 2 0 0 0 
0 0 0 0 0 0 0 0 0 
0 0 0 0 0 0 0 0 0 
0 0 0 0 0 0 0 0 0 
0 0 2 0 0 0 0 0 0 
0 0 0 0 0 0 0 0 0 
2 0 0 0 0 0 0 0 0 
0 0 0 0 0 0 0 0 0 
0 0 0 0 0 0 0 0 0 
0 0 0 2 0 0 0 0 0 
0 0 0 0 0 2 0 0 0 
0 0 0 
weighted_torsion_tz_raw 1 120 unsigned_char
0 0 0 3 0 0 0 0 0 
0 0 3 0 0 0 3 0 0 
0 0 0 0 0 0 0 0 0 
0 0 3 0 0 0 0 0 0 
0 0 0 0 0 0 0 0 0 
0 0 0 0 0 0 0 0 0 
0 0 0 0 0 0 0 0 0 
0 0 0 0 0 0 0 0 0 
0 0 0 0 0 0 0 0 0 
0 0 0 0 0 0 0 0 0 
0 0 0 0 0 0 0 0 0 
0 0 0 0 0 0 0 0 0 
0 0 0 0 0 0 0 0 0 
0 0 0 
