# vtk DataFile Version 5.1
vtk output
ASCII
DATASET POLYDATA
POINTS 120 float
0.388221 19.0359 -2.94603 0.207379 18.2949 -2.81317 -0.0288138 17.6094 -2.906 
-0.31159 16.9689 -3.15526 -0.631934 16.3629 -3.49176 -0.980225 15.7815 -3.84759 
-1.34595 15.2159 -4.15989 -1.7179 14.6607 -4.37817 -2.08506 14.1156 -4.47417 
-2.43824 13.5866 -4.45058 -2.77175 13.0842 -4.34398 -3.08445 12.6203 -4.21782 
-3.37955 12.2027 -4.14589 -3.66348 11.8309 -4.19134 -3.94442 11.4947 -4.38963 
-4.23101 11.1766 -4.74168 -4.53066 10.8576 -5.21839 -4.84729 10.5216 -5.77359 
-5.17865 10.1581 -6.35856 -5.51439 9.76198 -6.93357 -5.83641 9.33275 -7.47499 
-6.12189 8.87462 -7.9771 -6.34868 8.39758 -8.4502 -6.50071 7.91787 -8.91514 
-6.5708 7.45567 -9.39645 -6.55958 7.03038 -9.91491 -6.47151 6.65387 -10.4812 
-6.31073 6.32509 -11.0907 -6.07896 6.0278 -11.722 -5.77581 5.73512 -12.3385 
-5.40146 5.4181 -12.8934 -4.96089 5.05608 -13.3378 -4.46868 4.64435 -13.6287 
-3.95267 4.19614 -13.7375 -3.45382 3.73972 -13.6543 -3.02107 3.31251 -13.3893 
-2.70148 2.95312 -12.9701 -2.52852 2.69449 -12.4345 -2.51257 2.55636 -11.8232 
-2.63706 2.54186 -11.172 -2.86178 2.63655 -10.5072 -3.13218 2.81376 -9.84424 
-3.39147 3.04335 -9.19016 -3.59206 3.30167 -8.5477 -3.7034 3.57691 -7.91842 
-3.71555 3.86883 -7.30362 -3.63857 4.18275 -6.70306 -3.49849 4.52085 -6.11306 
-3.32998 4.8754 -5.52559 -3.16747 5.22535 -4.92959 -3.03706 5.53833 -4.31414 
-2.95232 5.77726 -3.67235 -2.91445 5.90815 -3.00429 -2.91584 5.90766 -2.31791 
-2.94458 5.76726 -1.62843 -2.98867 5.49288 -0.956626 -3.03902 5.10119 -0.327135 
-3.09109 4.61399 0.233849 -3.14573 4.05312 0.701568 -3.2089 3.4383 1.05708 
-3.28986 2.78664 1.29147 -3.39763 2.11308 1.40831 -3.53679 1.42953 1.42286 
-3.70443 0.743789 1.35823 -3.89017 0.058917 1.23977 -4.07946 -0.627318 1.0897 
-4.25873 -1.32036 0.923654 -4.41953 -2.02651 0.749783 -4.55925 -2.74985 0.570983 
-4.67763 -3.48923 0.388782 -4.77064 -4.23651 0.207851 -4.82531 -4.97628 0.0389617 
-4.81881 -5.68698 -0.100735 -4.72333 -6.34475 -0.190397 -4.51521 -6.92871 -0.210409 
-4.18457 -7.42716 -0.147163 -3.74086 -7.84143 0.00372656 -3.21183 -8.18724 0.237191 
-2.63615 -8.49017 0.540834 -2.05262 -8.77715 0.898318 -1.48967 -9.06736 1.29253 
-0.958899 -9.3656 1.70789 -0.454628 -9.66139 2.13127 0.0405485 -9.93377 2.55257 
0.54656 -10.1596 2.96499 1.07672 -10.3206 3.3659 1.632 -10.4064 3.7577 
2.2006 -10.4141 4.14783 2.76246 -10.3464 4.5473 3.29707 -10.2108 4.9676 
3.79105 -10.0216 5.41725 4.24294 -9.79989 5.89934 4.66336 -9.57129 6.41068 
5.07123 -9.3605 6.9426 5.48812 -9.18386 7.48225 5.93333 -9.0457 8.01421 
6.42053 -8.93917 8.52268 6.95567 -8.8518 8.99484 7.53546 -8.77287 9.42375 
8.14629 -8.69848 9.81286 8.76458 -8.63202 10.1766 9.35991 -8.58052 10.5389 
9.90139 -8.55074 10.9266 10.3659 -8.54688 11.3617 10.7453 -8.57131 11.8547 
11.0488 -8.62831 12.4007 11.2989 -8.72582 12.9817 11.5214 -8.87597 13.5729 
11.7332 -9.09169 14.1494 11.9354 -9.38294 14.6917 12.1143 -9.75451 15.1875 
12.2501 -10.2056 15.6312 12.3289 -10.7292 16.023 12.3515 -11.3123 16.3696 
12.3373 -11.9341 16.6861 12.3209 -12.567 16.9956 12.3473 -13.1769 17.3287 
12.4664 -13.7263 17.7198 12.7296 -14.1761 18.2055 13.1884 -14.4862 18.8226 

LINES 2 120
OFFSETS vtktypeint64
0 120 
CONNECTIVITY vtktypeint64
0 1 2 3 4 5 6 7 8 
9 10 11 12 13 14 15 16 17 
18 19 20 21 22 23 24 25 26 
27 28 29 30 31 32 33 34 35 
36 37 38 39 40 41 42 43 44 
45 46 47 48 49 50 51 52 53 
54 55 56 57 58 59 60 61 62 
63 64 65 66 67 68 69 70 71 
72 73 74 75 76 77 78 79 80 
81 82 83 84 85 86 87 88 89 
90 91 92 93 94 95 96 97 98 
99 100 101 102 103 104 105 106 107 
108 109 110 111 112 113 114 115 116 
117 118 119 
CELL_DATA 1
FIELD FieldData 2
Length 1 1 double
82.519769851 
Tortuosity 1 1 double
0.96617904737 
POINT_DATA 120
FIELD FieldData 19
Curvature 1 120 double
0 0.42538260152 0.31496779413 0.17518072324 0.071632921949 0.077088213079 0.16571009057 0.25122418993 0.28204124713 
0.22172882097 0.079915610248 0.15600799968 0.49138413451 0.71186003634 0.51966962069 0.23509819213 0.071674692302 0.01601395917 
0.055288732647 0.080570093918 0.099000239462 0.11893471951 0.14718664225 0.18384811714 0.21603786473 0.22242180999 0.19322205 
0.14751707155 0.13169863524 0.17624063077 0.25483643507 0.33530794637 0.39007672493 0.41683940979 0.44014610335 0.48745044166 
0.55151944251 0.56153149556 0.46148091036 0.30524926228 0.17219530416 0.09943976525 0.11931888103 0.17663774622 0.21331718818 
0.20101677298 0.14245288326 0.062332781206 0.021674017635 0.10470661262 0.18641672823 0.25787856971 0.29847537497 0.2957087369 
0.26419965236 0.23080959761 0.21370829915 0.21810014097 0.23782620367 0.2572678661 0.25570649209 0.22355479995 0.16929282341 
0.10959572334 0.058855928106 0.034911134112 0.039848563905 0.042913347838 0.040760286785 0.044137866093 0.065393297904 0.11655026781 
0.21032309666 0.34769798399 0.46464534678 0.4444252525 0.30715996094 0.17341376872 0.096385753275 0.07599962217 0.069691658739 
0.043761142617 0.036700954968 0.09563318477 0.1480344814 0.17110666674 0.16780366784 0.16023607617 0.15873819615 0.15284422178 
0.12889315712 0.088969257235 0.060755367864 0.073016142075 0.09706880896 0.11405797778 0.12281170917 0.11981314881 0.095927887346 
0.050611342524 0.033568009472 0.1173374332 0.21099440445 0.26895763418 0.25253177122 0.18615350908 0.14384861635 0.16137435917 
0.19861564873 0.23003398172 0.25178619126 0.24851757702 0.20491797017 0.12350935937 0.022947862427 0.1086520122 0.26359618026 
0.41244843958 0.42924038491 0 
Torsion 1 120 double
0 0 -0.099018721573 -0.28539832702 -1.4799741155 -1.1945120819 -0.24596408404 -0.083788100071 -0.023003418436 
0.052312586188 1.0367449386 0.47483266181 0.079037719134 0.042449392536 0.045162434365 0.078553178576 0.36491661337 3.74170749 
-0.0684846313 -0.32639063451 -0.50299570589 -0.61513566886 -0.60287901258 -0.47499559359 -0.29865042826 -0.11021984631 0.13017167007 
0.53884050729 0.82496934825 0.45241672875 0.18276874898 0.07914926989 0.046368280595 0.042182593205 0.044780548291 0.031285041021 
0.0019637276539 -0.033449518071 -0.083499317566 -0.18896572145 -0.50931331409 -1.2802450123 -0.67193834434 -0.14057999474 0.037754672247 
0.11497624341 0.15447945289 0.11729947408 -0.46296676521 0.18990491077 0.19168938866 0.16882410359 0.14356895908 0.12066767695 
0.093663910586 0.052599514705 -0.0058275995952 -0.066157508368 -0.10710757327 -0.12468209393 -0.12447676887 -0.10505858361 -0.050361265468 
0.097874748454 0.57021401405 1.2596687579 0.48466315611 0.14220340085 0.10254920828 0.19602112799 0.1763159279 0.098696710692 
0.058617323667 0.050503062999 0.060800456167 0.097943431679 0.19927285069 0.45348500196 0.89550646456 0.70556626582 0.16781859051 
-0.72872155547 -1.7627487994 -0.20627080607 0.023298835889 0.15598279544 0.30329940484 0.40600503274 0.39228354216 0.35318766733 
0.41398296384 0.76500812076 1.4571655021 0.94682137011 0.57586688415 0.44210171169 0.31784256399 0.16845425456 -0.010326172862 
-0.64936879698 -2.2185238726 -0.2240388768 -0.052100768875 0.043191935741 0.1940221623 0.54077968678 0.8683987082 0.39925847032 
-0.016715421891 -0.19506324568 -0.20949196166 -0.14134248983 -0.058760073051 0.068170576453 4.1867477365 0.23123374854 0.049306016847 
0.020812972521 0 0 
FrenetTangent 3 120 double
-0.2805084593 -0.95947378866 0.026926810879 -0.2805084593 -0.95947378866 0.026926810879 -0.35438399228 -0.90545332326 -0.23359423242 
-0.40114388486 -0.82903587915 -0.38959349933 -0.43743552201 -0.77685088292 -0.45293804188 -0.47369844983 -0.76100770917 -0.44325731264 
-0.5112581418 -0.77678106974 -0.36773126347 -0.54259742397 -0.80768683322 -0.23071630834 -0.55611598919 -0.82922281479 -0.055897495486 
-0.55112471862 -0.82785547558 0.10448375986 -0.54506934339 -0.81507884676 0.1963310583 -0.55819501837 -0.80951910164 0.18192620906 
-0.59126589311 -0.8060233243 0.027037831481 -0.60222282732 -0.75485234973 -0.2598568767 -0.55304053871 -0.6376048689 -0.53628928173 
-0.48914010839 -0.53157765358 -0.69149631422 -0.45021942532 -0.4785499052 -0.75385174756 -0.4359647587 -0.47063061295 -0.76709944292 
-0.43355286238 -0.49365313416 -0.75388228435 -0.42815132875 -0.53720865483 -0.7267002827 -0.40541376167 -0.59217500197 -0.69639676112 
-0.35451209581 -0.64718049902 -0.67489152878 -0.27206318149 -0.68712112135 -0.6736810743 -0.16410918469 -0.69591547281 -0.69912075509 
-0.043992896503 -0.66322343522 -0.74712736533 0.073412698347 -0.59281265995 -0.8019873602 0.17858410953 -0.50613568068 -0.84376204499 
0.27180579886 -0.43349934227 -0.85918561903 0.36135484715 -0.39853902383 -0.84296460242 0.45646507178 -0.41078640558 -0.78923644571 
0.55918773834 -0.46594975475 -0.68571123612 0.65802813827 -0.54583726388 -0.51871056535 0.72842905429 -0.62129497535 -0.28876230099 
0.74634842417 -0.66529017817 -0.018788522116 0.70024478217 -0.66419241268 0.26173590505 0.5851916015 -0.61183492679 0.53217366704 
0.39739385097 -0.49862120636 0.77036031815 0.15380921062 -0.32304037901 0.93380278445 -0.08504951283 -0.11959444411 0.98917326556 
-0.25604777576 0.058792233653 0.96487460832 -0.34312916803 0.18843607946 0.92019248965 -0.35868744317 0.2754740397 0.89188416936 
-0.31505648711 0.33426520678 0.88826019919 -0.22060730328 0.37734763564 0.89941157409 -0.089956142087 0.41313011079 0.90621818789 
0.047685434867 0.44562032482 0.89395113144 0.15790456474 0.47431344815 0.86607903874 0.22034099795 0.49457490628 0.84074104617 
0.23368397139 0.49735049834 0.83548446025 0.20749584208 0.46959458203 0.85815290249 0.15480846034 0.39711871972 0.90461652818 
0.089719840666 0.27061909324 0.95849656054 0.026797834764 0.095794705723 0.99504032602 -0.021775071402 -0.10184196724 0.9945622454 
-0.051112476641 -0.29108378089 0.95533122383 -0.064468677509 -0.4546852408 0.88831589056 -0.069044036488 -0.59252777475 0.80258566968 
-0.072471134232 -0.71179458203 0.69863896806 -0.081810298696 -0.81640318622 0.57165803813 -0.10261687585 -0.90170609873 0.41999510509 
-0.13637515774 -0.95759636559 0.25379325633 -0.1782087146 -0.97941278487 0.09482747949 -0.2184958342 -0.97518595976 -0.035663907771 
-0.24760025736 -0.96033153839 -0.12828658902 -0.25925063956 -0.94780414089 -0.18562439603 -0.25205110755 -0.94325739914 -0.21618445399 
-0.22984865111 -0.94571821828 -0.22975345305 -0.19998406353 -0.95127647382 -0.2346901035 -0.16885865885 -0.95692724022 -0.23617156954 
-0.13683004318 -0.96230351332 -0.23505209538 -0.096220835926 -0.96891135062 -0.22793057138 -0.032464006509 -0.97759358305 -0.20798287109 
0.073302300879 -0.98359069224 -0.16485182081 0.2366313778 -0.96783182729 -0.085481840877 0.44530561829 -0.89466525244 0.035735030372 
0.63683022676 -0.75062212972 0.17610701479 0.75235479324 -0.58787071368 0.29727140643 0.79524200186 -0.46700836069 0.38664369842 
0.79448948306 -0.40431416397 0.45311865788 0.77075067889 -0.38803003291 0.50534748891 0.73773787689 -0.3969210833 0.54607369341 
0.70958755145 -0.40724827444 0.57500813019 0.70057930412 -0.39826838373 0.59209030828 0.71776181797 -0.35716568997 0.59770447763 
0.7547371043 -0.28178558891 0.59242618551 0.7942897274 -0.1805916443 0.58007800076 0.81896375458 -0.068137831081 0.56978557779 
0.81904287631 0.043464146067 0.57208359072 0.79221366847 0.14691343882 0.5922954879 0.74226329287 0.23437287353 0.62778544122 
0.68056248388 0.29565172331 0.67039150057 0.62457604218 0.32243326111 0.71129569074 0.59050133521 0.31325543403 0.74376018055 
0.58633881695 0.27543332327 0.7618026491 0.61102652101 0.22311766755 0.75951635733 0.6573820171 0.17251267912 0.73354499463 
0.71501027024 0.13560545358 0.68583633209 0.77257605164 0.11523461234 0.6243774728 0.81960646283 0.10554648274 0.56312093379 
0.84870393022 0.097257124151 0.51984871898 0.85519066047 0.083121649249 0.51160504852 0.83324248266 0.059572991216 0.54968902464 
0.77379623954 0.025873285677 0.63290595886 0.67263068096 -0.016392834034 0.73979675724 0.54805631154 -0.065352470835 0.83388448477 
0.43762048727 -0.12213096011 0.89082677199 0.36695068098 -0.1922913149 0.91014902513 0.33445424701 -0.2817842695 0.89929860565 
0.31940240532 -0.39113561819 0.863130947 0.29562338573 -0.5141036354 0.80517343838 0.24442811824 -0.6387868411 0.72952468543 
0.1648088086 -0.74885705337 0.64191212033 0.075971053128 -0.82941415478 0.55344426905 0.0061131295393 -0.87608441004 0.4821190062 
-0.021860363706 -0.89460694489 0.44631887552 0.0071575931022 -0.88826405193 0.4592774139 0.10583977281 -0.84337496101 0.52679846017 
0.27638155557 -0.7223462008 0.63389999363 0.47457552037 -0.49943491266 0.72480538318 0.47457552037 -0.49943491266 0.72480538318 

FrenetNormal 3 120 double
-0.2879872136 0.057368033299 -0.95591436518 -0.2879872136 0.057368033299 -0.95591436518 -0.2500408418 0.3324666103 -0.90936545485 
-0.29670279101 0.51997974756 -0.80099220716 -0.64750083836 0.62162181977 -0.4408276052 -0.64834231218 -0.039296484377 0.76033415848 
-0.30650296877 -0.23494423114 0.92241917716 -0.1406604657 -0.18342046636 0.97291909525 -0.012002255918 -0.059236981815 0.99817179175 
0.073429155236 0.076613794062 0.99435330025 -0.01397635053 0.24297736706 0.96993126598 -0.31079934044 0.00070446458217 -0.95047528832 
-0.13972849986 0.069365091413 -0.98775727303 0.06176126488 0.28047312833 -0.95787283626 0.25909153264 0.48015323309 -0.8380480001 
0.38709379255 0.57815103784 -0.71826163284 0.50050527352 0.56390895618 -0.65688747919 0.41520290744 -0.86141542392 0.2925235257 
0.004831671443 -0.83785976354 0.54586415123 0.17615848755 -0.8383194324 0.51593479871 0.47487801447 -0.78738269244 0.39308951528 
0.7848275207 -0.59830604903 0.1614795171 0.95666740265 -0.26863441378 -0.11235226941 0.94566526616 0.090675640157 -0.31224210585 
0.84057047118 0.3795929098 -0.38645893159 0.74479091765 0.56738717573 -0.35122397668 0.72709394274 0.64564499814 -0.23340294514 
0.83694977608 0.54716307332 -0.011297942716 0.93200393276 0.12710540979 0.33943023455 0.76238616729 -0.27672830915 0.5849690375 
0.56292684196 -0.39380741244 0.72665610333 0.3789914358 -0.35517151799 0.85452834031 0.17644806299 -0.2371338941 0.95531858421 
-0.046660894818 -0.080464668412 0.99566470161 -0.27424713219 0.088226124506 0.9576036035 -0.48753403857 0.25895188065 0.83381921586 
-0.65704829615 0.43142996252 0.61818745051 -0.74697533541 0.58061954105 0.32389627482 -0.73137368578 0.68169706442 0.019535713783 
-0.62510984948 0.75128993214 -0.21166273631 -0.39664818792 0.85896534018 -0.3238035815 0.22150781537 0.95329049372 -0.20535706055 
0.82854552842 0.55333216769 0.08564939892 0.94817549219 0.29917103494 0.10705105255 0.97355459416 0.22833288445 -0.007452923079 
0.95881494483 0.23045591899 -0.16602400719 0.90901081061 0.2727674475 -0.31511468671 0.84128325787 0.33985456317 -0.42040617969 
-0.62489267411 -0.58149389205 0.52093569598 -0.58624475918 -0.64257137067 0.49337522833 -0.48557776333 -0.76683697737 0.41973239796 
-0.3832270253 -0.87890295309 0.28401874255 -0.2847995458 -0.95341358914 0.099457260962 -0.19057261567 -0.97613500602 -0.1041274612 
-0.1058416877 -0.94961549091 -0.29500501109 -0.042043955189 -0.88813969584 -0.45764635528 -0.013663301644 -0.80386842297 -0.59465021041 
-0.029435720448 -0.69864929102 -0.71485852203 -0.08209246512 -0.56611174729 -0.82023064851 -0.15297220177 -0.4028962772 -0.90237137327 
-0.22484674131 -0.21958116271 -0.9493303197 -0.2830514408 -0.041272691357 -0.95821628394 -0.31204428582 0.10444993324 -0.94430851692 
-0.27759344489 0.19717488063 -0.9402467473 -0.047222058742 0.20440509145 -0.9777467135 0.63636147217 0.0067433941239 -0.77136152573 
0.95221664677 -0.16974267973 -0.25391116613 0.9794277118 -0.18749390265 -0.07461497055 0.98538790135 -0.16931960495 -0.018481213451 
0.98365056729 -0.16003683042 0.082581925245 0.96122438055 -0.14990784235 0.23146345078 0.93584862311 -0.10279095991 0.33707769606 
0.91428665841 0.00024722387746 0.40506770438 0.87241425354 0.17292484244 0.45715464461 0.77045876812 0.40320648304 0.49377911931 
0.59452803425 0.62351486284 0.50770624607 0.38096256047 0.75641866613 0.53169383018 0.13748889875 0.76001299049 0.63519843908 
-0.22157510279 0.50170961045 0.83617697924 -0.56193414772 -0.040177766343 0.8262056407 -0.66693979542 -0.30322983996 0.68061955118 
-0.67536979871 -0.16042283405 0.71981952551 0.1479797948 0.89280249071 0.42544763827 0.45141630946 0.89226904463 -0.008903232571 
0.42029765674 0.9010723663 -0.10685724323 0.30384435752 0.94489342408 -0.1218811861 0.12043154164 0.99122100616 -0.054563364254 
-0.1216224414 0.9876178726 0.099090461038 -0.36595070593 0.8910758191 0.26844732342 -0.56208732432 0.72781331769 0.39286844418 
-0.70591209433 0.50968293666 0.49184491372 -0.77394277752 0.13369177479 0.61898229901 -0.46574811283 -0.62035865003 0.63105771584 
0.22107176244 -0.95913025487 0.17662511158 0.54985741581 -0.8098491001 -0.20445355792 0.67554952089 -0.5662321946 -0.47224352471 
0.68675315062 -0.31989418736 -0.65271572603 0.6349061204 -0.14722068644 -0.75843278395 0.5720075832 -0.095090153412 -0.8147178576 
0.52517876393 -0.27088829255 -0.80672597508 -0.26439932525 -0.7790137151 0.56853375316 -0.49491101369 -0.36289746475 0.78953690136 
-0.60174152871 -0.28206655451 0.74722526152 -0.71548594856 -0.26949618574 0.6445553997 -0.80073244218 -0.32917719556 0.50046970934 
-0.79124287576 -0.52291499512 0.31700886335 -0.52138056147 -0.85279554716 0.030034394611 -0.16448447891 -0.95705920655 -0.23871014088 
-0.10392318763 -0.91980573549 -0.37836144099 -0.23357277506 -0.85616169868 -0.46090227213 -0.4185377864 -0.74815533665 -0.51486863722 
-0.56083338353 -0.60651251904 -0.56356763584 -0.6312153579 -0.46967601642 -0.61722897822 -0.63430246011 -0.37611844734 -0.67542231431 
-0.17684290803 -0.43592602216 -0.88243701706 0.80653045046 0.27664344378 0.52247204469 0.75321889261 0.41386744768 0.51124850667 
0.69195723875 0.60730781445 0.39034907231 0.56464678908 0.80442590607 0.18458863785 0.56464678908 0.80442590607 0.18458863785 

FrenetBinormal 3 120 double
0.91563003941 -0.27589664303 -0.29240840156 0.91563003941 -0.27589664303 -0.29240840156 0.90105025578 -0.26385646182 -0.34422115582 
0.86663200809 -0.20571964711 -0.45456395518 0.62401348416 0.10044410824 -0.7749310632 -0.59603861021 0.64755158319 -0.47477881402 
-0.80291409414 0.58430503844 -0.11796855292 -0.8281320359 0.5603560582 -0.01408613355 -0.83101802172 0.55577018939 0.022990088302 
-0.83118572154 0.55568483703 0.018564972536 -0.83827446133 0.52593580659 -0.1438313416 0.76929974096 -0.58709311682 -0.25199123148 
0.79427991915 -0.58780514185 -0.15363764268 0.79593543232 -0.59290197706 -0.12228668441 0.79184451773 -0.60242252938 -0.10034617999 
0.78160114517 -0.61900450374 -0.077026451358 0.73945719298 -0.67305027849 -0.014366014985 -0.79846181801 -0.1909719707 0.57095396626 
-0.90111518158 0.23301845373 0.36564166851 -0.88637160771 0.092883746911 0.45356144303 -0.78110854126 -0.17133961214 0.60042666837 
-0.50829807857 -0.47242700323 0.72003179787 -0.10377430312 -0.67505563943 0.73043191174 0.28068733474 -0.71237601236 0.64322238544 
0.53991287078 -0.64501464929 0.54078664385 0.66324736313 -0.5715286021 0.48317490858 0.66290430248 -0.57181221491 0.4833101247 
0.4750122946 -0.71602436512 0.5115392737 -0.028130833105 -0.90830108515 0.41737009349 -0.45870139543 -0.86872088263 0.18686106582 
-0.60862340071 -0.79234244362 0.042083347643 -0.65066463007 -0.7588905548 -0.0268452044 -0.66200996513 -0.74683336151 -0.063108923273 
-0.66391775893 -0.7422360918 -0.091097713498 -0.65912499234 -0.74233724809 -0.12037298106 -0.64796709081 -0.7473967794 -0.14675388705 
-0.64059789552 -0.75182782604 -0.15617059983 -0.64681571952 -0.74734587847 -0.15199856218 -0.67665287417 -0.72179379417 -0.14544623261 
-0.73734470406 -0.65734839402 -0.15561451175 -0.85142973232 -0.47609913708 -0.21999323308 -0.9067952392 0.12390031493 -0.40295298252 
-0.46287332745 0.76294841486 -0.45128483134 -0.22868242989 0.87641625597 -0.42379109539 -0.20999843972 0.88158244393 -0.42274466274 
-0.28000000154 0.86505063176 -0.41627803644 -0.38570130234 0.8370332565 -0.38808482692 -0.4936520279 0.79993408352 -0.34119369481 
0.74491673854 -0.64382244082 0.17490488085 0.78311082092 -0.60546095012 0.141966475 0.86037699665 -0.50423979671 0.074119167896 
0.91928635216 -0.39280390199 0.02485351718 0.95821244761 -0.28605227215 0.0017328688566 0.98143156889 -0.19180371145 0.0018471193727 
0.99306850311 -0.11619230578 0.017728400965 0.9970336481 -0.066852168788 0.038140425745 0.99752004251 -0.052023020925 0.047406435008 
0.99693604261 -0.072371549265 0.029679720218 0.99326124569 -0.11403213191 -0.020706778947 0.98288823488 -0.15684610714 -0.096592010018 
0.9648034822 -0.18652965875 -0.18536700659 0.94240306446 -0.19760354697 -0.26986904662 0.92460150017 -0.19519875852 -0.32712308165 
0.92824349818 -0.19719382043 -0.31540229117 0.96465495544 -0.24471589467 -0.097749413505 0.72905028353 -0.33199398428 0.5985529872 
0.20112944884 -0.27713620168 0.93954375658 0.02697650266 -0.24478379606 0.96920233259 -0.022303300271 -0.23584132018 0.97153560639 
-0.11708586913 -0.21990943856 0.9684682432 -0.25843614487 -0.19682081556 0.94576547071 -0.35090375162 -0.18369759102 0.91821661505 
-0.39838006845 -0.18041421513 0.89930196933 -0.42766688118 -0.18275270982 0.88526972488 -0.45617561634 -0.19235024854 0.8688528005 
-0.49090088487 -0.21862212649 0.84333901074 -0.53742887214 -0.28677312552 0.79305194147 -0.59049721523 -0.45197726196 0.66860271722 
-0.56541218163 -0.76473362917 0.30901705662 -0.30028886862 -0.92077056895 -0.24901436652 -0.10456641091 -0.86631710002 -0.48842660443 
-0.20090082583 -0.89911809974 -0.38887723114 -0.69806204522 -0.21044240804 0.68441462136 -0.53013327402 0.27620394983 0.80166706922 
-0.50370803362 0.32964446389 0.79850657122 -0.52610116456 0.27306240154 0.80539089237 -0.56106560441 0.11330557319 0.81998002087 
-0.56069309655 -0.15073753921 0.81418759863 -0.4883416676 -0.42941859079 0.75968552018 -0.36483289859 -0.64448206395 0.67196713116 
-0.19627231238 -0.80796866435 0.55557521256 0.10448609794 -0.93710367702 0.33304557324 0.65908032022 -0.71904532429 -0.22042448392 
0.77931641045 0.0648508953 -0.62326582915 0.56947643753 0.54255224772 -0.61752218228 0.3338887965 0.8059903705 -0.48877171996 
0.13088324403 0.93769870953 -0.32185510184 0.0045235722958 0.98236808458 -0.18690233731 -0.032443348311 0.98985746585 -0.13830989279 
0.062361083554 0.95768501333 -0.28098133478 0.44580481273 -0.62147278549 -0.64422794556 0.24651582833 -0.92992284024 -0.27289825501 
0.1978547758 -0.95904589667 -0.2026930087 0.1888063146 -0.96286192201 -0.19300024534 0.24178882403 -0.94200394292 -0.23273748322 
0.42711008028 -0.84358991012 -0.32547356706 0.77039568265 -0.4855551513 -0.4131908605 0.92794677264 -0.068083042115 -0.366441655 
0.94190343165 0.031150234976 -0.33443622458 0.92631019241 -0.051813104226 -0.37318203289 0.87468909698 -0.17948527483 -0.45022663154 
0.81135933625 -0.26712483575 -0.51994264069 0.77187795087 -0.30245098687 -0.55922073415 0.7730608118 -0.30168032759 -0.55800175734 
0.98399629592 -0.098218721994 -0.14867539228 -0.59114922087 0.36668157722 0.71839210714 -0.64919892353 0.34268412701 0.67904959082 
-0.66693958908 0.33074640541 0.66768136099 -0.67524223731 0.32165778346 0.66376516276 -0.67524223731 0.32165778346 0.66376516276 

plain_curvature_peaks 1 120 unsigned_char
0 0 0 0 0 0 0 0 0 
0 0 0 1 0 0 0 0 0 
0 0 0 0 0 0 0 0 0 
0 0 0 0 0 0 1 0 0 
0 0 0 0 0 0 0 0 0 
0 0 0 0 0 0 0 0 0 
0 0 0 0 0 0 0 0 0 
0 0 0 1 0 0 0 0 0 
0 0 0 0 0 0 0 0 0 
0 0 0 0 0 0 0 0 0 
0 0 0 0 0 0 0 0 0 
0 0 0 0 0 0 1 0 0 
0 0 0 0 0 0 0 0 0 
0 0 0 
weighted_curvature_peaks 1 120 unsigned_char
0 0 0 0 0 0 0 0 0 
0 0 0 0 0 1 0 0 0 
0 0 0 0 0 0 0 0 0 
0 0 0 0 0 0 0 0 0 
0 1 0 0 0 0 0 0 0 
0 0 0 0 0 0 0 0 0 
0 0 0 0 0 0 0 0 0 
0 0 0 0 0 0 0 1 0 
0 0 0 0 0 0 0 0 0 
0 0 0 0 0 0 0 0 0 
0 0 0 0 0 0 0 0 0 
0 0 0 0 0 0 0 0 0 
0 1 0 0 0 0 0 0 0 
0 0 0 
plain_torsion_tp 1 120 unsigned_char
0 0 0 0 0 0 0 0 0 
0 0 0 1 0 0 0 0 0 
0 0 0 0 0 0 0 0 0 
0 0 0 0 0 0 1 0 0 
0 0 0 0 0 0 0 0 0 
0 0 0 0 0 0 0 0 0 
0 0 0 0 0 0 0 0 0 
0 0 0 1 0 0 0 0 0 
0 0 0 0 0 0 0 0 0 
0 0 0 0 0 0 0 0 0 
0 0 0 0 0 0 0 0 0 
0 0 0 0 0 0 1 0 0 
0 0 0 0 0 0 0 0 0 
0 0 0 
plain_torsion_tn 1 120 unsigned_char
0 2 0 0 0 0 0 0 0 
0 0 0 0 0 0 0 0 0 
0 0 0 0 0 0 0 0 0 
0 2 0 0 0 0 0 0 0 
0 0 0 0 0 0 0 0 2 
0 0 0 0 0 0 0 0 0 
0 0 0 0 0 0 0 0 0 
0 0 0 0 0 0 0 0 0 
0 0 0 0 0 0 0 0 0 
0 0 2 0 0 0 0 0 0 
0 0 0 0 0 0 0 0 0 
0 0 0 0 0 0 0 0 0 
0 0 0 0 0 0 0 0 0 
0 0 0 
plain_torsion_tz 1 120 unsigned_char
0 3 0 0 0 0 0 0 0 
0 0 0 0 0 0 0 0 0 
0 0 0 3 0 0 0 0 0 
0 0 0 0 3 0 0 0 0 
0 0 0 0 0 0 0 0 0 
0 0 0 0 3 0 0 0 0 
0 0 0 0 0 0 0 0 0 
0 0 0 0 0 0 0 0 0 
0 0 0 3 0 0 0 0 0 
0 0 0 0 0 0 0 0 0 
3 0 0 0 0 0 0 0 0 
0 0 0 0 0 0 0 0 0 
0 0 0 0 0 0 0 0 0 
0 0 0 
weighted_torsion_tp 1 120 unsigned_char
0 0 0 0 0 0 0 0 0 
0 0 0 0 0 1 0 0 0 
0 0 0 0 0 0 0 0 0 
0 0 0 0 0 0 0 0 0 
0 1 0 0 0 0 0 0 0 
0 0 0 0 0 0 0 0 0 
0 0 0 0 0 0 0 0 0 
0 0 0 0 0 0 0 1 0 
0 0 0 0 0 0 0 0 0 
0 0 0 0 0 0 0 0 0 
0 0 0 0 0 0 0 0 0 
0 0 0 0 0 0 0 0 0 
0 1 0 0 0 0 0 0 0 
0 0 0 
weighted_torsion_tn 1 120 unsigned_char
0 0 0 2 0 0 0 0 0 
0 0 0 0 0 0 0 0 0 
0 0 0 0 0 0 0 0 0 
0 0 0 0 0 2 0 0 0 
0 0 0 0 0 0 0 0 0 
0 0 0 2 0 0 0 0 0 
0 0 0 0 0 0 0 0 0 
0 0 0 0 0 0 0 0 0 
0 0 0 0 0 0 0 0 0 
0 0 0 0 0 0 0 2 0 
0 0 0 0 0 0 0 0 0 
0 0 0 0 0 0 0 0 0 
0 0 0 0 0 0 0 0 0 
0 0 0 
weighted_torsion_tz 1 120 unsigned_char
0 0 0 3 0 0 0 0 0 
0 0 0 0 0 0 0 0 0 
0 0 0 0 0 0 0 3 0 
0 0 0 0 0 0 0 3 0 
0 0 0 0 0 0 0 0 0 
0 0 0 0 0 0 0 0 3 
0 0 0 0 0 0 0 0 0 
0 0 0 0 0 0 0 0 0 
0 0 0 0 0 0 0 0 3 
0 0 0 0 0 0 0 0 0 
0 0 0 0 3 0 0 0 0 
0 0 0 0 0 0 0 0 0 
0 0 0 0 0 0 0 0 0 
0 0 0 
plain_torsion_tp_raw 1 120 unsigned_char
0 0 0 0 0 0 0 0 0 
0 0 0 0 0 0 0 1 0 
0 0 0 0 0 0 0 0 0 
0 0 1 0 0 0 0 0 0 
0 0 0 0 0 0 0 0 0 
0 0 0 1 0 0 0 0 0 
0 0 0 0 0 0 0 0 0 
0 0 0 0 0 0 1 0 0 
0 0 0 0 0 0 0 0 0 
0 0 0 0 0 0 0 0 0 
0 0 0 0 0 1 0 0 0 
0 0 0 0 0 0 0 0 1 
0 0 0 0 0 0 0 0 0 
0 0 0 
plain_torsion_tn_raw 1 120 unsigned_char
0 0 0 0 0 0 0 0 2 
0 0 0 0 0 0 0 0 0 
0 0 0 0 0 0 2 0 0 
0 0 0 0 0 0 0 0 0 
0 0 0 0 2 0 0 0 0 
0 0 0 0 0 0 0 0 2 
0 0 0 0 0 0 0 0 0 
0 0 0 0 0 0 0 0 0 
0 0 0 0 0 0 0 0 0 
0 0 0 2 0 0 0 0 0 
0 0 0 0 0 0 0 0 0 
0 2 0 0 0 0 0 0 0 
0 0 0 0 0 0 0 0 0 
0 0 0 
plain_torsion_tz_raw 1 120 unsigned_char
0 3 0 0 0 0 0 0 0 
0 0 0 0 3 0 0 3 0 
0 0 0 0 0 0 0 0 0 
3 0 0 0 0 0 0 0 0 
0 0 0 0 0 0 0 0 0 
0 0 0 0 0 0 0 0 0 
0 0 0 0 0 0 0 0 0 
0 0 0 0 0 0 0 0 0 
0 0 0 0 0 0 0 0 0 
0 0 0 0 0 0 0 0 0 
0 0 0 0 0 0 0 0 0 
0 0 0 0 0 0 0 0 0 
0 0 0 0 0 0 0 0 0 
0 0 0 
weighted_torsion_tp_raw 1 120 unsigned_char
0 0 0 0 0 0 0 0 0 
0 0 0 0 0 0 0 0 0 
0 1 0 0 0 0 0 0 0 
0 0 0 0 0 0 1 0 0 
0 0 0 0 0 0 0 0 0 
0 0 0 0 0 0 1 0 0 
0 0 0 0 0 0 0 0 0 
0 0 0 0 0 0 0 0 0 
0 0 1 0 0 0 0 0 0 
0 0 0 0 0 0 0 0 0 
0 0 0 0 0 0 0 0 0 
0 1 0 0 0 0 0 0 0 
0 0 0 0 1 0 0 0 0 
0 0 0 
weighted_torsion_tn_raw 1 120 unsigned_char
0 0 0 0 0 0 0 0 0 
2 0 0 0 0 0 0 0 0 
0 0 0 0 0 0 0 0 0 
2 0 0 0 0 0 0 0 0 
0 0 0 0 0 0 0 0 2 
0 0 0 0 0 0 0 0 0 
0 0 0 0 2 0 0 0 0 
0 0 0 0 0 0 0 0 0 
0 0 0 0 0 0 0 0 0 
0 0 0 0 0 0 0 0 2 
0 0 0 0 0 0 0 0 0 
0 0 0 0 0 0 2 0 0 
0 0 0 0 0 0 0 0 0 
0 0 0 
weighted_torsion_tz_raw 1 120 unsigned_char
0 0 0 3 0 0 0 0 0 
0 0 0 0 0 0 3 0 0 
0 0 3 0 0 0 0 0 0 
0 0 0 0 3 0 0 0 0 
0 0 0 0 0 0 0 0 0 
0 0 0 0 0 0 0 0 0 
0 0 0 0 0 0 0 0 0 
0 0 0 0 0 0 0 0 0 
0 0 0 0 0 0 0 0 0 
0 0 0 0 0 0 0 0 0 
0 0 0 0 0 0 0 0 0 
0 0 0 0 0 0 0 0 0 
0 0 0 0 0 0 0 0 0 
0 0 0 
