# vtk DataFile Version 5.1
vtk output
ASCII
DATASET POLYDATA
POINTS 120 float
-2.28858 16.8803 -6.41251 -2.76433 16.4295 -6.57007 -3.23264 15.9944 -6.55523 
-3.69373 15.5733 -6.40932 -4.14782 15.1647 -6.1736 -4.59515 14.7673 -5.88903 
-5.03585 14.3797 -5.59551 -5.46985 14.0014 -5.33062 -5.89659 13.6323 -5.12764 
-6.31467 13.2729 -5.01326 -6.72133 12.9241 -5.00537 -7.11196 12.5862 -5.11183 
-7.47987 12.2587 -5.32994 -7.81623 11.9398 -5.64749 -8.11053 11.6263 -6.04516 
-8.35131 11.3143 -6.49988 -8.52713 11.0004 -6.98841 -8.62779 10.6826 -7.49063 
-8.64543 10.361 -7.99178 -8.5756 10.0379 -8.48339 -8.41812 9.71661 -8.96304 
-8.17765 9.40004 -9.43277 -7.864 9.08891 -9.8968 -7.49219 8.78082 -10.359 
-7.08196 8.47014 -10.8209 -6.65696 8.14904 -11.2797 -6.24334 7.80934 -11.7278 
-5.86789 7.44479 -12.1528 -5.55578 7.05318 -12.5386 -5.3281 6.63781 -12.867 
-5.19956 6.20802 -13.12 -5.17648 5.77891 -13.2826 -5.25592 5.36957 -13.3443 
-5.42598 5.0008 -13.3009 -5.66758 4.69268 -13.1546 -5.95702 4.46141 -12.9134 
-6.2697 4.31716 -12.5901 -6.58369 4.26284 -12.2001 -6.8823 4.29373 -11.7601 
-7.15512 4.39868 -11.2856 -7.39767 4.56193 -10.7899 -7.60963 4.76574 -10.2823 
-7.79276 4.99333 -9.76849 -7.94897 5.23085 -9.25002 -8.07897 5.46806 -8.72585 
-8.18155 5.69817 -8.19352 -8.25351 5.91658 -7.65068 -8.29007 6.11859 -7.09649 
-8.28575 6.29865 -6.53281 -8.23544 6.4495 -5.96476 -8.1356 6.56147 -5.40068 
-7.98539 6.62333 -4.85138 -7.78739 6.62275 -4.32886 -7.54791 6.54828 -3.84458 
-7.2767 6.39073 -3.40789 -6.98627 6.14497 -3.02479 -6.69063 5.81103 -2.69732 
-6.40381 5.39405 -2.42347 -6.13819 4.90358 -2.19769 -5.90301 4.35254 -2.01185 
-5.70341 3.75523 -1.85632 -5.54013 3.12596 -1.72117 -5.40988 2.47756 -1.59734 
-5.30633 1.82048 -1.47753 -5.2212 1.16223 -1.35692 -5.14536 0.507486 -1.23347 
-5.06971 -0.141615 -1.10791 -4.98555 -0.784599 -0.983291 -4.88494 -1.4216 -0.864308 
-4.76069 -2.0529 -0.756233 -4.6064 -2.67751 -0.663758 -4.41652 -3.29297 -0.58975 
-4.18671 -3.89502 -0.534183 -3.91415 -4.47753 -0.493393 -3.59796 -5.03279 -0.45985 
-3.23947 -5.55217 -0.422632 -2.84212 -6.02663 -0.36866 -2.411 -6.44734 -0.284525 
-1.95214 -6.80655 -0.158686 -1.47163 -7.09797 0.0164438 -0.974924 -7.31746 0.243054 
-0.466406 -7.46348 0.51757 0.0506441 -7.53704 0.831441 0.573852 -7.54162 1.17284 
1.10133 -7.48316 1.5289 1.63121 -7.36971 1.88789 2.1614 -7.21051 2.2409 
2.68936 -7.01622 2.58273 3.21227 -6.79732 2.91205 3.72715 -6.56353 3.23071 
4.2311 -6.32281 3.54289 4.7216 -6.0804 3.8538 5.19676 -5.83835 4.16854 
5.65577 -5.59565 4.49126 6.09935 -5.34929 4.82439 6.5303 -5.09567 5.16855 
6.9538 -4.83313 5.5221 7.3772 -4.56302 5.88194 7.80925 -4.2911 6.24404 
8.25872 -4.02732 6.60391 8.73239 -3.7845 6.95758 9.23317 -3.57688 7.30248 
9.75868 -3.41859 7.63801 10.3001 -3.32201 7.96593 10.8427 -3.29673 8.28983 
11.3667 -3.34886 8.61477 11.8498 -3.48089 8.94579 12.2703 -3.69174 9.28673 
12.6091 -3.97723 9.63906 12.8533 -4.33048 10.0014 12.9972 -4.74272 10.3698 
13.0431 -5.20426 10.7382 13.0006 -5.70525 11.1 12.8853 -6.23647 11.449 
12.7166 -6.7898 11.7806 12.5152 -7.35856 12.092 12.3008 -7.93769 12.3825 
12.0907 -8.52371 12.6529 11.8981 -9.11467 12.9043 11.732 -9.70997 13.1382 

LINES 2 120
OFFSETS vtktypeint64
0 120 
CONNECTIVITY vtktypeint64
0 1 2 3 4 5 6 7 8 
9 10 11 12 13 14 15 16 17 
18 19 20 21 22 23 24 25 26 
27 28 29 30 31 32 33 34 35 
36 37 38 39 40 41 42 43 44 
45 46 47 48 49 50 51 52 53 
54 55 56 57 58 59 60 61 62 
63 64 65 66 67 68 69 70 71 
72 73 74 75 76 77 78 79 80 
81 82 83 84 85 86 87 88 89 
90 91 92 93 94 95 96 97 98 
99 100 101 102 103 104 105 106 107 
108 109 110 111 112 113 114 115 116 
117 118 119 
CELL_DATA 1
FIELD FieldData 2
Length 1 1 double
72.321672721 
Tortuosity 1 1 double
1.0168476803 
POINT_DATA 120
FIELD FieldData 19
Curvature 1 120 double
0 0.40042264234 0.32541110457 0.21522291207 0.11524074155 0.030916905763 0.050822273977 0.13958682469 0.24318631866 
0.34817005832 0.41424090966 0.40541751952 0.34009109468 0.26724241876 0.21818294963 0.2009225068 0.20971476087 0.231731631 
0.25054282853 0.25039843928 0.2236116037 0.1757553009 0.11979709163 0.066794363219 0.02934460457 0.04848954804 0.09597399702 
0.15804379027 0.24471233666 0.37132733748 0.54667968589 0.74151438833 0.86231394332 0.83741457955 0.71319273124 0.57480908569 
0.45711321705 0.35971257534 0.27783577966 0.20836502502 0.15123931093 0.10865824413 0.083204385428 0.076829101064 0.084861183457 
0.09920772671 0.11668516785 0.13563523801 0.15682754684 0.18287197528 0.21543686581 0.25707885279 0.30400059907 0.34592699819 
0.36504756273 0.34965116177 0.30604095418 0.25086410217 0.19784633813 0.15316204556 0.1167384742 0.086962798613 0.062024534111 
0.040425290574 0.021054192781 0.0070854640293 0.020895670206 0.041173912298 0.061800392018 0.081246554273 0.097578887194 0.10974681831 
0.11824921696 0.12568273699 0.13639380522 0.15497941442 0.18335305244 0.21712316309 0.24704244628 0.2611718668 0.25277444605 
0.22631400163 0.19222204406 0.15878878739 0.13029483784 0.10717334415 0.085302349097 0.064798900774 0.044417767504 0.0267706375 
0.02148257559 0.031269820591 0.042851344083 0.049755898139 0.049583933467 0.038882325129 0.018698673776 0.011118290751 0.045068021232 
0.079337799452 0.11013832475 0.13564444412 0.1560391822 0.17584933904 0.20124356457 0.23814110678 0.28688137391 0.33811987971 
0.37104171516 0.36552795479 0.32088001667 0.2554298518 0.18876742968 0.13189917441 0.087458895004 0.05711533629 0.046338813625 
0.054640171303 0.069147631835 0 
Torsion 1 120 double
0 0 0.0077511674674 0.01786297947 0.061365472398 0.85218325846 0.32536480159 0.050203285522 0.028872439151 
0.035531304989 0.057591811032 0.10001979726 0.17330401095 0.27672623152 0.36390732525 0.34775753542 0.22932955624 0.099702764136 
0.0078035348314 -0.043749805262 -0.061523721162 -0.044827917959 0.034544776708 0.35418969366 2.1893047249 0.73407191196 0.13742498554 
0.013545591393 -0.030755811002 -0.053995523271 -0.071287354809 -0.086767681292 -0.10309156235 -0.1224582443 -0.13735451923 -0.13520376883 
-0.1192142836 -0.10355719566 -0.10184739474 -0.13187054915 -0.21766074097 -0.38419271682 -0.57734230681 -0.53583134683 -0.29362020628 
-0.1353327428 -0.071362329219 -0.059794540354 -0.085900681201 -0.11964549753 -0.15112222827 -0.17119231993 -0.17946885278 -0.18166458349 
-0.183130518 -0.18990613645 -0.2023550449 -0.21591906033 -0.22805551695 -0.23909668094 -0.25230480674 -0.27263537268 -0.30830295163 
-0.38567646776 -0.71511945981 -4.3422288237 -0.65623961788 -0.2471112969 -0.11285485101 -0.022300929683 0.056370324403 0.13698204039 
0.22312311806 0.30500298659 0.35355591634 0.338110892 0.2660408238 0.17488128501 0.089290991142 0.016358207277 -0.049233211496 
-0.11212441856 -0.16732742845 -0.20445187867 -0.21291932154 -0.18745640056 -0.13583174 -0.041544346728 0.16262515086 0.78019674379 
1.1869502263 0.31083289885 -0.04397268554 -0.17012043644 -0.20883832426 -0.24413043568 -0.5445012623 -1.4757007458 -0.2317070891 
-0.17969013037 -0.18615109194 -0.21604150362 -0.25494226245 -0.29252700639 -0.30081169538 -0.26463825683 -0.20227170848 -0.13508950531 
-0.078873539665 -0.031410144391 0.012776405723 0.057713824721 0.1156845095 0.20851725783 0.3937830278 0.76948549293 0.96715899614 
0.5519824022 0 0 
FrenetTangent 3 120 double
-0.72480413985 -0.68018609683 -0.10957113 -0.72480413985 -0.68018609683 -0.10957113 -0.72959832697 -0.67213136549 0.12619710304 
-0.7078807826 -0.64169381666 0.29518442249 -0.68474950682 -0.61230226322 0.39522658231 -0.67338449279 -0.59531233805 0.43835664136 
-0.67817666067 -0.59382766142 0.43294933359 -0.69851604916 -0.60655466739 0.37969298721 -0.72844435216 -0.62808308626 0.27364294721 
-0.75393452662 -0.64737102843 0.11177424176 -0.75439201699 -0.64976465106 -0.093266193942 -0.71566049836 -0.62774057535 -0.30622184956 
-0.64270239914 -0.5898918986 -0.48883655152 -0.55116021254 -0.55273919353 -0.62506144022 -0.45155409234 -0.52788189005 -0.71933275461 
-0.34537110678 -0.51887337396 -0.78197776209 -0.22904818017 -0.52333475173 -0.82076651295 -0.098942167577 -0.53477680451 -0.83918068188 
0.044051618301 -0.544100387 -0.83786289081 0.19141360821 -0.54261427769 -0.81788176177 0.32861481223 -0.52670335672 -0.78396165672 
0.44181672178 -0.50048743479 -0.7445201891 0.5239860898 -0.47335120153 -0.70807995149 0.57520253673 -0.45511194818 -0.67971696784 
0.59897985707 -0.45307286762 -0.66026366509 0.59864876749 -0.47171487895 -0.6473829826 0.57534809226 -0.51350667759 -0.63662034589 
0.5270453104 -0.57962278849 -0.62149872393 0.44786826001 -0.66956445917 -0.59253477256 0.32803119531 -0.77828474485 -0.53541422361 
0.15693231769 -0.88899769947 -0.43018058767 -0.064799946997 -0.96400687341 -0.25785987454 -0.30525833618 -0.95200574507 -0.022414493852 
-0.50533138026 -0.83090388314 0.23289253555 -0.62449069352 -0.63430999937 0.45569968006 -0.66402705007 -0.41412708267 0.62254866169 
-0.64604544792 -0.2047093106 0.73533623423 -0.5936921135 -0.022709148032 0.80437178528 -0.52575865385 0.12498105284 0.84140214781 
-0.45573019515 0.23716475862 0.85794106237 -0.39148161736 0.3161637231 0.86416586571 -0.33566364347 0.36650533622 0.86775789076 
-0.2870815347 0.39348401943 0.87335818476 -0.24237819677 0.4020261702 0.88296532673 -0.19736879932 0.39656374621 0.89653931997 
-0.14817171199 0.38076124946 0.91272450097 -0.091983752304 0.35634378091 0.92981616415 -0.027282733304 0.32329502332 0.94590484741 
0.046285657092 0.28034255163 0.95878344358 0.12813036549 0.22426964261 0.96606714924 0.21662990949 0.15059065387 0.96456930144 
0.30852397843 0.054292490268 0.94966587821 0.3976006708 -0.068209209484 0.91501978685 0.47359092626 -0.21516476711 0.85405840406 
0.52369794338 -0.37605786759 0.76440888556 0.53850359702 -0.53265396411 0.65291165598 0.51791804532 -0.66772427398 0.53470103074 
0.47056337487 -0.77295171674 0.4255769658 0.40822814447 -0.84898171637 0.33552917508 0.34114270307 -0.90104181009 0.26785315493 
0.2766408355 -0.9350755268 0.2215933377 0.21966219842 -0.95613222339 0.19380322489 0.17338602158 -0.96813796279 0.18068251859 
0.13972957821 -0.97405202489 0.17804015778 0.11966315384 -0.97609441037 0.18143988444 0.11338818264 -0.97591192335 0.18638411387 
0.12054427638 -0.9746067994 0.18870788005 0.14040150664 -0.97263722563 0.18510603516 0.17191794095 -0.96969463267 0.17359879307 
0.21393927202 -0.96462587619 0.15403540786 0.26522271628 -0.95561364138 0.12829450178 0.32425126974 -0.94065874001 0.1001111828 
0.3893498035 -0.91805763747 0.074678677008 0.45880276142 -0.8866478985 0.057926938409 0.53089091828 -0.84560895418 0.055680602587 
0.60374328256 -0.79384410883 0.072839409937 0.67491693858 -0.72926577327 0.11251025713 0.74050850296 -0.64894049465 0.17470944865 
0.79495855548 -0.55060770352 0.2546999252 0.83265680312 -0.4353240285 0.34230927306 0.85103242454 -0.30943493069 0.42425680437 
0.85280363781 -0.18259629184 0.48926940385 0.84442029615 -0.063430474476 0.53191252886 0.83238590093 0.042685291377 0.55255015866 
0.82095551629 0.13346795413 0.55517415781 0.81183547175 0.20881052354 0.54527179651 0.8050892853 0.26895361295 0.52867305282 
0.80000593567 0.31455113376 0.51092865172 0.79552473862 0.34701786354 0.4967081564 0.79049641963 0.36816319703 0.48946018315 
0.78359529697 0.38068805515 0.49097353822 0.77348284658 0.38804842603 0.50114140231 0.75920561715 0.39396039751 0.51807531893 
0.74092366218 0.40146538346 0.53838431692 0.72044398698 0.41188654577 0.5579515526 0.7015743088 0.42380692978 0.57287099376 
0.6892228154 0.43348066863 0.58057421632 0.68782806588 0.4358204227 0.58047662394 0.70013170783 0.42546570489 0.57340607396 
0.72573848371 0.39827440611 0.56096448257 0.76081276675 0.35168798918 0.54541680595 0.7989314561 0.2848456993 0.52968996219 
0.83224682234 0.1988132292 0.51753118419 0.85304917352 0.095896041883 0.51294352195 0.85414065166 -0.021504462989 0.51959725293 
0.82828180803 -0.15144854814 0.53945582188 0.76763915603 -0.29129028768 0.57085908456 0.66501919258 -0.43474761601 0.60724293645 
0.51967293268 -0.56935059526 0.63700858921 0.34432386704 -0.67912325328 0.64825356261 0.16384629997 -0.75413975411 0.63594624085 
0.0028242599307 -0.79667218252 0.60440504395 -0.12490546089 -0.8171583105 0.56271744367 -0.21652943416 -0.82693512927 0.51893477058 
-0.27516202862 -0.83414558111 0.47800314593 -0.30546920704 -0.84328535213 0.44221983044 -0.31187578029 -0.85611084513 0.41207732105 
-0.29855416253 -0.87251329557 0.38676344332 -0.26951025381 -0.89127819225 0.36467438504 -0.26951025381 -0.89127819225 0.36467438504 

FrenetNormal 3 120 double
-0.10538357789 -0.047712029701 0.99328639562 -0.10538357789 -0.047712029701 0.99328639562 0.064691188584 0.115873649 0.99115505729 
0.18433775861 0.23559302067 0.95420936873 0.24390372699 0.31849875467 0.91600737728 0.17008974185 0.45228072125 0.87550649849 
-0.4025867268 -0.19266718071 -0.89487612823 -0.3139126636 -0.21709043063 -0.92430005115 -0.22104241011 -0.16259330485 -0.96161513619 
-0.088108866622 -0.068962112617 -0.99372081323 0.082855097489 0.046691081388 -0.9954672148 0.27121208738 0.15426523604 -0.95007696562 
0.45586009669 0.21836216886 -0.86284965982 0.63180749211 0.21284760393 -0.74532891425 0.79357382022 0.1309083517 -0.59422520589 
0.91241080852 0.0093296792749 -0.40916924809 0.97204584086 -0.078262396971 -0.22136368375 0.99407295897 -0.091296246648 -0.059024974375 
0.99632313828 -0.037761056347 0.076904530169 0.97988094092 0.057662595114 0.19107162725 0.94427657322 0.1666864953 0.28382629469 
0.89693742212 0.26249610853 0.35580760786 0.85134300052 0.31603176682 0.41873502103 0.81563088509 0.25574916522 0.5189784425 
0.55161864737 -0.36424303312 0.75036249953 -0.35356129966 -0.88082536301 0.314866777 -0.54121041388 -0.82260278896 0.1744016614 
-0.61271972505 -0.76593482702 0.19472642164 -0.66979576908 -0.69025389627 0.27372100102 -0.72312955516 -0.57157014746 0.38780305954 
-0.76025930946 -0.38676780216 0.52193529254 -0.75011474514 -0.12336423964 0.64969926389 -0.65770087024 0.19375131933 0.72793543089 
-0.4795644157 0.49478491017 0.72471088295 -0.25331338708 0.71641160876 0.65006671562 -0.02507953796 0.84447622199 0.53500553947 
0.1767931813 0.89703845724 0.40505083294 0.34212386868 0.89763381304 0.27785751055 0.47249357216 0.86542668557 0.16669275981 
0.57990604884 0.81033763053 0.084035106171 0.68480799019 0.72738747856 0.044107511924 0.80654014956 0.58773205454 0.063749660513 
0.92834420403 0.33904334119 0.15240292528 0.96542865981 0.0099666816458 0.26047680907 0.92462104494 -0.22859459046 0.30466446539 
0.89230566149 -0.34647040315 0.28939396368 0.87500390446 -0.4167844347 0.2462902803 0.86374668428 -0.4686974805 0.18510628611 
0.84352359372 -0.52510966589 0.11281748818 0.80152147035 -0.59709262687 0.032306771963 0.73485255493 -0.67560652191 -0.059561313514 
0.6368862896 -0.75334732625 -0.16384034961 0.50909505872 -0.81325826915 -0.28183897682 0.35198049567 -0.84265990867 -0.4074727095 
0.17176129759 -0.83225747057 -0.527110576 -0.019719532319 -0.782610217 -0.62219963701 -0.21006983696 -0.7052041168 -0.67716897245 
-0.38889842 -0.61462081561 -0.68629386704 -0.54965098788 -0.52204981061 -0.65218692625 -0.68983107111 -0.43353664509 -0.57980951243 
-0.807660411 -0.35119158844 -0.47365507357 -0.9010194507 -0.27499854835 -0.33546944401 -0.96557192192 -0.20323156761 -0.16238162928 
-0.98969251071 -0.13168609787 0.056280599428 -0.9262140393 -0.043948179564 0.3744277112 0.12935805165 0.20049795439 0.97111640124 
0.99239240479 0.12310122964 0.0018444969156 0.95925573484 0.08733195783 -0.26870348774 0.91586825166 0.09243134515 -0.39069398771 
0.88798267159 0.12633113449 -0.44218459881 0.87684016718 0.18371108426 -0.44429895199 0.87955376274 0.26083752313 -0.39793085453 
0.88763352637 0.35231933555 -0.29661053362 0.88358652358 0.44840231756 -0.13494523685 0.8423540435 0.53375214465 0.07448700209 
0.74900750711 0.59616878922 0.28908567771 0.6161064716 0.64084494615 0.45796350362 0.46803480523 0.68453986844 0.55888155239 
0.32074104117 0.73781895765 0.59392623299 0.18204248124 0.79893119047 0.57320981143 0.060169066095 0.86007505411 0.50660693322 
-0.034370898448 0.91522570218 0.40147298216 -0.094671115119 0.95966373184 0.26473175433 -0.12126105654 0.98689797878 0.10643371483 
-0.12170967621 0.99085604678 -0.058232716477 -0.10966783093 0.97177712621 -0.20885924406 -0.098248954678 0.93944665068 -0.32830950859 
-0.10359181314 0.911183921 -0.39876383783 -0.15081519476 0.90735963249 -0.39236879892 -0.32435031114 0.92954292379 -0.17534773592 
-0.60235452158 0.65906197107 0.45034025872 -0.61884210223 0.29151116229 0.72942147951 -0.62740970215 0.23129244529 0.74354614544 
-0.66086641066 0.29315963597 0.69087843728 -0.69299072747 0.39633757128 0.60222950877 -0.70828265065 0.50304832362 0.49525556119 
-0.68498897238 0.65098200367 0.32712770995 0.72569124134 -0.39494706865 -0.56337290954 0.68290129339 -0.63349237654 -0.36377634937 
0.624192035 -0.7240575183 -0.29347063503 0.54205450381 -0.80649828912 -0.23608774755 0.43123379231 -0.88522597027 -0.17439150759 
0.28659027403 -0.95336880491 -0.094625243175 0.11160842202 -0.99375224766 0.00017435642991 -0.088232065146 -0.99065164181 0.10404050781 
-0.29031399697 -0.93946451602 0.18200056676 -0.48067321344 -0.85083418508 0.2122132215 -0.6507511604 -0.73627230093 0.18554251837 
-0.79172371543 -0.6011506092 0.10858868947 -0.89169356331 -0.45263922677 -0.00056528546444 -0.94264828252 -0.30972881949 -0.12442778559 
-0.94978906974 -0.19124370119 -0.24764201937 -0.9227445629 -0.11274969195 -0.36855118858 -0.86285967773 -0.086563566871 -0.49797582816 
-0.74209991478 -0.13180779352 -0.65720196443 -0.44897307527 -0.28199504008 -0.84788087315 0.14485359628 -0.47148257845 -0.86989747319 
0.60304478054 -0.48655888045 -0.63213720703 0.78323011946 -0.42319807084 -0.45547115475 0.78323011946 -0.42319807084 -0.45547115475 

FrenetBinormal 3 120 double
-0.68084745749 0.73148508932 -0.037098567867 -0.68084745749 0.73148508932 -0.037098567867 -0.68080932088 0.73130891216 -0.041060243535 
-0.68185364146 0.72988010952 -0.048483371966 -0.68675256452 0.72363283626 -0.06874906114 -0.71946007852 0.6641124674 -0.20330230217 
0.61481732598 -0.78118375944 -0.10840474926 0.64306622419 -0.76482885693 -0.038764041349 0.64846671367 -0.76096981147 -0.020392824518 
0.65101425268 -0.75904873267 -0.0050462098679 0.65117410692 -0.75870009961 0.018612934444 0.64364124693 -0.76298362172 0.059849296064 
0.61573143364 -0.77739662411 0.12856628812 0.54501533284 -0.80571414375 0.23191163303 0.40784739003 -0.83916846557 0.35980104618 
0.21960263 -0.85480019822 0.470203473 0.051612153821 -0.84852562416 0.5266312284 -0.045048859333 -0.84004688245 0.54064020898 
-0.073482372458 -0.83816995382 0.54043636947 -0.056517008129 -0.83800045989 0.54273479437 -0.018816441126 -0.83354615127 0.55212929214 
0.017356415426 -0.82498977001 0.56488107971 0.025567032795 -0.82223023684 0.56858048196 -0.062356242918 -0.85291586872 0.51831092971 
-0.58046532945 -0.81366577257 0.031749202484 -0.71875869426 0.040394960736 -0.69408514361 -0.61324208975 0.24420389771 -0.75119810683 
-0.58889538911 0.27817487991 -0.75882867426 -0.59227328945 0.27428633524 -0.75761425337 -0.60784799199 0.25996234817 -0.75029354 
-0.63037927476 0.24514028139 -0.7365651447 -0.65812524339 0.23552497193 -0.71512177397 -0.6886558745 0.2369503906 -0.68527921238 
-0.71739679907 0.25453217803 -0.64850227681 -0.73881235888 0.29052578462 -0.6080715968 -0.7472878251 0.33964491735 -0.57114117044 
-0.74254255788 0.39168367898 -0.54333640165 -0.72834122006 0.44015659973 -0.52514877403 -0.70733843539 0.48519726744 -0.51405831332 
-0.67529176194 0.53582254695 -0.50682860459 -0.61463823493 0.6090549698 -0.50127027035 -0.48664453722 0.72128002231 -0.4928815515 
-0.2361381614 0.85452907455 -0.46262169153 0.095918259663 0.91557393133 -0.39054329303 0.32576292041 0.88909038258 -0.32155374555 
0.42642203302 0.85730923863 -0.28841830578 0.47529691404 0.8362474782 -0.27346480342 0.50318715986 0.82207238104 -0.26645765608 
0.53509399622 0.80353462436 -0.26078060255 0.58407700007 0.77018408341 -0.25626263021 0.64269993373 0.72171897753 -0.25701850644 
0.70653294959 0.65537785402 -0.26700385691 0.7633714219 0.57789141835 -0.28862706184 0.80735454741 0.49358727831 -0.3233422853 
0.83440908477 0.40734258666 -0.37125933839 0.84239243589 0.3221816301 -0.43194210398 0.82923552862 0.23839347221 -0.5055066671 
0.79204048454 0.15743854864 -0.58981774664 0.72885771835 0.081817116201 -0.6797590646 0.63855677075 0.013024355568 -0.76946449996 
0.5207249837 -0.047939830909 -0.85237741873 0.37404875089 -0.10093051966 -0.92190051641 0.19392821126 -0.14630726206 -0.97004434638 
-0.031374818193 -0.18406907518 -0.98241243699 -0.35750284336 -0.21285736907 -0.90933132434 -0.98509370849 -0.08600283804 0.14897616366 
-0.025027831313 0.18704992334 0.98203153403 0.24518534238 0.2152904003 0.94526937506 0.36280789294 0.22616092901 0.9040031344 
0.40708323823 0.23138142416 0.88359825357 0.40100901734 0.23033194727 0.88664477784 0.34820438327 0.21708275237 0.91193683229 
0.24599482388 0.1817725504 0.95207420223 0.093674337232 0.11309670944 0.9891583558 -0.092706516983 0.0073583077944 0.99566628798 
-0.27291354503 -0.11997627115 0.95452809875 -0.40607873827 -0.23976902831 0.88182247158 -0.48227645406 -0.33208643892 0.81063433122 
-0.51494279253 -0.39045402105 0.76313798088 -0.52301355932 -0.41497221969 0.74448295726 -0.52165457524 -0.40561179096 0.75057016938 
-0.52109941151 -0.35919424867 0.77423180963 -0.52724922324 -0.27390161864 0.8043544989 -0.54076748062 -0.15559673964 0.82665602672 
-0.55786987282 -0.01976359717 0.82969307893 -0.57349466752 0.10976056774 0.81182293888 -0.58496015728 0.21237689282 0.7827628439 
-0.59098158952 0.26608541178 0.76153746756 -0.58685191256 0.23722794886 0.77416260114 -0.51953083278 -0.020144805263 0.85421420066 
-0.15214283059 -0.64862463949 0.74574703227 0.13696254438 -0.87432240124 0.46561958735 0.17310082766 -0.88954989177 0.42277309933 
0.11953122639 -0.86768829295 0.48252389806 0.026913068877 -0.8205278807 0.57097257703 -0.078289054215 -0.75321316397 0.65310087553 
-0.23613982818 -0.62315081707 0.7456011271 -0.016271878528 0.80875050054 -0.58792674191 0.20847401561 0.64627110629 -0.73407917964 
0.28928870823 0.56313249562 -0.77407611749 0.35684849565 0.47526420853 -0.8042282532 0.41922063979 0.36774707224 -0.83006996454 
0.47458533642 0.22707096184 -0.85041609624 0.50975549795 0.057100082461 -0.85842233947 0.51250253645 -0.13471036581 -0.84805322208 
0.47923588102 -0.30735933434 -0.82210900125 0.42389077367 -0.43729984885 -0.79314907438 0.36643198652 -0.5185533813 -0.77254772668 
0.32111306648 -0.56076540972 -0.76317006873 0.29380888984 -0.5778488879 -0.76142432258 0.29080681807 -0.57908659943 -0.76163646507 
0.31287816568 -0.57335789901 -0.75721065304 0.36461088503 -0.56527851767 -0.73994533581 0.45671455055 -0.55559431321 -0.694785419 
0.61120665448 -0.5355631196 -0.58275086481 0.83970931949 -0.4575462952 -0.29247161659 0.9390159388 -0.21160907132 0.27105473178 
0.73973130574 0.044508481349 0.67142876792 0.56028100367 0.16286981564 0.81213214447 0.56028100367 0.16286981564 0.81213214447 

plain_curvature_peaks 1 120 unsigned_char
0 0 0 0 0 0 0 1 0 
0 0 0 0 0 0 0 0 0 
0 0 0 0 0 0 0 0 0 
0 0 0 0 0 0 0 0 0 
0 0 0 0 0 1 0 0 0 
0 0 0 0 0 0 0 0 0 
0 0 0 0 0 0 0 0 0 
0 0 0 0 0 0 0 0 0 
0 0 0 0 1 0 0 0 0 
0 0 0 0 0 0 0 0 0 
0 0 0 0 0 0 0 0 0 
0 0 0 0 0 1 0 0 0 
0 0 0 0 0 0 0 0 0 
0 0 0 
weighted_curvature_peaks 1 120 unsigned_char
0 0 0 0 0 0 0 0 1 
0 0 0 0 0 0 0 0 0 
0 0 0 0 0 0 0 0 0 
0 0 0 0 0 0 0 0 0 
0 0 0 0 0 0 0 0 0 
1 0 0 0 0 0 0 0 0 
0 0 0 0 0 0 0 0 0 
0 0 0 0 0 0 0 0 0 
0 0 0 0 0 0 0 0 0 
0 0 0 1 0 0 0 0 0 
0 0 0 0 0 0 0 0 0 
0 0 0 0 0 0 0 0 0 
0 1 0 0 0 0 0 0 0 
0 0 0 
plain_torsion_tp 1 120 unsigned_char
0 0 0 0 0 0 0 1 0 
0 0 0 0 0 0 0 0 0 
0 0 0 0 0 0 0 0 0 
0 0 0 0 0 0 0 0 0 
0 0 0 0 0 1 0 0 0 
0 0 0 0 0 0 0 0 0 
0 0 0 0 0 0 0 0 0 
0 0 0 0 0 0 0 0 0 
0 0 0 0 1 0 0 0 0 
0 0 0 0 0 0 0 0 0 
0 0 0 0 0 0 0 0 0 
0 0 0 0 0 1 0 0 0 
0 0 0 0 0 0 0 0 0 
0 0 0 
plain_torsion_tn 1 120 unsigned_char
0 2 0 0 0 0 0 0 0 
0 0 0 0 0 0 0 0 0 
0 0 0 0 0 0 0 2 0 
0 0 0 0 0 0 0 0 0 
0 0 0 0 0 0 0 0 0 
0 0 0 0 0 0 0 0 0 
0 0 0 0 0 0 2 0 0 
0 0 0 0 0 0 0 0 0 
0 0 0 0 0 0 0 0 0 
0 0 2 0 0 0 0 0 0 
0 0 0 0 0 0 0 0 0 
0 0 0 0 0 0 0 0 0 
0 0 0 0 0 0 0 0 0 
0 0 0 
plain_torsion_tz 1 120 unsigned_char
0 0 0 3 0 0 0 0 0 
0 0 0 0 0 0 0 0 3 
0 0 0 0 0 0 0 0 0 
0 0 3 0 0 0 0 0 0 
0 0 0 0 0 0 0 0 0 
0 0 0 0 0 0 0 0 0 
0 0 0 0 0 0 0 0 0 
0 0 0 0 0 3 0 0 0 
0 0 0 0 0 3 0 0 0 
0 0 0 0 0 0 0 0 0 
0 3 0 0 0 0 0 0 0 
0 0 0 0 0 0 0 0 0 
0 0 0 0 0 0 0 0 0 
0 0 0 
weighted_torsion_tp 1 120 unsigned_char
0 0 0 0 0 0 0 0 1 
0 0 0 0 0 0 0 0 0 
0 0 0 0 0 0 0 0 0 
0 0 0 0 0 0 0 0 0 
0 0 0 0 0 0 0 0 0 
1 0 0 0 0 0 0 0 0 
0 0 0 0 0 0 0 0 0 
0 0 0 0 0 0 0 0 0 
0 0 0 0 0 0 0 0 0 
0 0 0 1 0 0 0 0 0 
0 0 0 0 0 0 0 0 0 
0 0 0 0 0 0 0 0 0 
0 1 0 0 0 0 0 0 0 
0 0 0 
weighted_torsion_tn 1 120 unsigned_char
0 0 2 0 0 0 0 0 0 
0 0 0 0 0 0 0 0 0 
0 0 0 0 0 0 0 0 0 
0 2 0 0 0 0 0 0 0 
0 0 0 0 0 0 0 0 0 
0 0 0 0 0 0 0 0 0 
0 0 0 0 0 0 0 0 0 
0 0 0 2 0 0 0 0 0 
0 0 0 0 0 0 0 0 0 
0 0 0 0 0 0 0 0 2 
0 0 0 0 0 0 0 0 0 
0 0 0 0 0 0 0 0 0 
0 0 0 0 0 0 0 0 0 
0 0 0 
weighted_torsion_tz 1 120 unsigned_char
0 0 3 0 0 0 0 0 0 
0 0 0 0 0 0 0 0 0 
0 0 3 0 0 0 0 0 0 
0 0 0 0 0 0 3 0 0 
0 0 0 0 0 0 0 0 0 
0 0 0 0 0 0 0 0 0 
0 0 0 0 0 0 0 0 0 
0 0 0 0 0 0 0 0 0 
3 0 0 0 0 0 0 0 0 
0 0 0 0 3 0 0 0 0 
0 0 0 0 0 3 0 0 0 
0 0 0 0 0 0 0 0 0 
0 0 0 0 0 0 0 0 0 
0 0 0 
plain_torsion_tp_raw 1 120 unsigned_char
0 0 0 0 0 0 0 0 0 
0 0 0 1 0 0 0 0 0 
0 0 0 0 0 0 0 0 0 
1 0 0 0 0 0 0 0 0 
0 0 0 0 0 0 0 0 0 
0 0 0 0 0 0 0 0 0 
0 0 0 0 0 0 0 0 0 
0 0 1 0 0 0 0 0 0 
0 0 0 0 1 0 0 0 0 
0 0 0 0 0 0 0 0 0 
0 0 0 0 0 1 0 0 0 
0 0 0 0 0 0 0 1 0 
0 0 0 0 0 0 0 0 0 
0 0 0 
plain_torsion_tn_raw 1 120 unsigned_char
0 0 0 0 0 0 2 0 0 
0 0 0 0 0 0 0 0 0 
0 2 0 0 0 0 0 0 0 
0 0 0 0 0 0 0 0 0 
0 0 0 0 0 0 0 0 0 
0 0 0 0 0 0 0 0 0 
2 0 0 0 0 0 0 0 0 
0 0 0 0 0 0 0 0 0 
2 0 0 0 0 0 0 0 0 
0 0 0 2 0 0 0 0 0 
0 0 0 0 0 0 0 0 0 
0 2 0 0 0 0 0 0 0 
0 0 0 0 0 0 0 0 0 
0 0 0 
plain_torsion_tz_raw 1 120 unsigned_char
0 3 0 0 0 0 0 0 3 
0 0 0 0 3 0 0 0 0 
0 0 0 0 0 0 3 0 0 
0 0 0 0 0 0 0 0 0 
0 0 0 0 0 0 0 0 0 
0 0 0 0 0 0 0 0 0 
0 0 0 0 0 0 0 0 0 
0 0 0 0 0 0 0 0 0 
0 0 0 0 0 0 0 0 0 
0 0 0 0 0 0 0 0 0 
0 0 0 0 0 0 0 0 0 
0 0 0 0 0 0 0 0 0 
0 0 0 0 0 0 0 0 0 
0 0 0 
weighted_torsion_tp_raw 1 120 unsigned_char
0 0 0 0 0 0 0 0 0 
0 0 0 0 0 1 0 0 0 
0 0 0 0 0 0 0 0 0 
0 0 0 1 0 0 0 0 0 
0 0 0 0 0 0 0 0 0 
0 0 0 0 0 0 0 0 0 
0 0 0 0 0 0 0 0 0 
0 0 0 0 0 0 0 1 0 
0 0 0 0 0 0 0 0 0 
0 0 0 1 0 0 0 0 0 
0 0 0 0 0 0 0 0 0 
0 0 1 0 0 0 0 0 0 
0 0 0 1 0 0 0 0 0 
0 0 0 
weighted_torsion_tn_raw 1 120 unsigned_char
0 0 0 0 0 2 0 0 0 
0 0 0 0 0 0 0 0 0 
0 0 0 0 2 0 0 0 0 
0 0 0 0 0 0 0 0 0 
0 0 0 0 0 0 0 0 0 
0 0 0 0 0 0 0 0 0 
0 0 0 0 0 2 0 0 0 
0 0 0 0 0 0 0 0 0 
0 0 0 0 0 2 0 0 0 
0 0 0 0 0 0 0 0 0 
2 0 0 0 0 0 0 0 0 
0 0 0 0 0 0 0 2 0 
0 0 0 0 0 0 0 0 0 
0 0 0 
weighted_torsion_tz_raw 1 120 unsigned_char
0 0 3 0 0 0 0 0 0 
3 0 0 0 0 0 0 3 0 
0 0 0 0 0 0 0 0 0 
3 0 0 0 0 0 0 0 0 
0 0 0 0 0 0 0 0 0 
0 0 0 0 0 0 0 0 0 
0 0 0 0 0 0 0 0 0 
0 0 0 0 0 0 0 0 0 
0 0 0 0 0 0 0 0 0 
0 0 0 0 0 0 0 0 0 
0 0 0 0 0 0 0 0 0 
0 0 0 0 0 0 0 0 0 
0 0 0 0 0 0 0 0 0 
0 0 0 
