# vtk DataFile Version 5.1
vtk output
ASCII
DATASET POLYDATA
POINTS 120 float
-4.68688 18.7082 -6.89533 -4.80074 17.9069 -7.41257 -4.98351 17.1616 -7.7106 
-5.22275 16.4714 -7.83244 -5.50596 15.835 -7.82115 -5.82057 15.2509 -7.71979 
-6.15392 14.7171 -7.57108 -6.49338 14.2301 -7.41646 -6.82662 13.7852 -7.29423 
-7.14206 13.3758 -7.2371 -7.4294 12.9932 -7.26928 -7.67996 12.6275 -7.40454 
-7.88682 12.2682 -7.64544 -8.04474 11.905 -7.98405 -8.14985 11.5296 -8.40406 
-8.19936 11.1367 -8.88407 -8.19124 10.7246 -9.40111 -8.12407 10.2951 -9.93405 
-7.99718 9.85286 -10.4659 -7.81084 9.404 -10.9853 -7.5664 8.95497 -11.4866 
-7.26652 8.51104 -11.9692 -6.91525 8.07531 -12.4359 -6.51828 7.64802 -12.8907 
-6.08296 7.2272 -13.3365 -5.61825 6.80961 -13.7736 -5.13458 6.39227 -14.1977 
-4.64357 5.97439 -14.5997 -4.15772 5.55797 -14.9656 -3.69005 5.14873 -15.2771 
-3.25368 4.75499 -15.5141 -2.86121 4.38624 -15.6563 -2.52392 4.05163 -15.687 
-2.25094 3.75837 -15.5954 -2.0485 3.51028 -15.3789 -1.91975 3.30756 -15.0445 
-1.86498 3.14728 -14.6078 -1.88252 3.02445 -14.0915 -1.96983 2.93343 -13.5222 
-2.12447 2.86942 -12.9279 -2.34454 2.82944 -12.3346 -2.62843 2.81271 -11.7646 
-2.97393 2.82149 -11.2339 -3.37702 2.86077 -10.7523 -3.83109 2.93809 -10.3224 
-4.32663 3.06267 -9.94029 -4.85166 3.24374 -9.59657 -5.39255 3.48866 -9.27768 
-5.93493 3.80085 -8.96769 -6.46431 4.17866 -8.65019 -6.96639 4.61422 -8.31019 
-7.42687 5.09358 -7.93582 -7.83131 5.59745 -7.51978 -8.16501 6.10245 -7.06028 
-8.4135 6.5829 -6.56136 -8.56363 7.01263 -6.03269 -8.60535 7.36694 -5.48855 
-8.53355 7.62446 -4.94634 -8.35001 7.76887 -4.42473 -8.06444 7.79009 -3.94163 
-7.69453 7.6848 -3.51214 -7.26509 7.45632 -3.14683 -6.80602 7.11389 -2.85048 
-6.3495 6.67093 -2.62139 -5.92661 6.14318 -2.45176 -5.56379 5.54748 -2.32859 
-5.27984 4.90058 -2.23518 -5.08373 4.21826 -2.15324 -4.97349 3.51522 -2.06502 
-4.93672 2.80447 -1.95543 -4.95222 2.09781 -1.81358 -4.99265 1.40572 -1.63362 
-5.02775 0.737529 -1.41456 -5.02779 0.101731 -1.15943 -4.96676 -0.494293 -0.873859 
-4.8252 -1.0441 -0.564284 -4.59187 -1.54227 -0.236632 -4.26429 -1.98489 0.104617 
-3.84804 -2.36954 0.456731 -3.35515 -2.69506 0.81844 -2.80182 -2.96144 1.18927 
-2.20585 -3.16966 1.56878 -1.58459 -3.32085 1.9559 -0.953161 -3.41611 2.3486 
-0.323471 -3.4559 2.74408 0.296102 -3.44023 3.13915 0.900675 -3.36961 3.53074 
1.48843 -3.24549 3.91644 2.06008 -3.07186 4.29501 2.61845 -2.85602 4.66624 
3.16791 -2.60895 5.03067 3.71391 -2.34509 5.38912 4.26245 -2.0814 5.74225 
4.81938 -1.83567 6.09008 5.38977 -1.62504 6.43196 5.97748 -1.46426 6.76659 
6.58434 -1.36444 7.09252 7.2102 -1.33256 7.40864 7.85275 -1.37142 7.71477 
8.50709 -1.48004 8.01237 9.166 -1.65442 8.30474 9.82011 -1.88831 8.59664 
10.4576 -2.17439 8.89413 11.0648 -2.50497 9.20379 11.627 -2.87299 9.53179 
12.1288 -3.27256 9.88266 12.5552 -3.69907 10.2583 12.8935 -4.14926 10.6579 
13.134 -4.62087 11.0767 13.2714 -5.11222 11.5073 13.3051 -5.62138 11.9398 
13.239 -6.14622 12.3636 13.0811 -6.68429 12.7682 12.8426 -7.23246 13.1447 
12.5358 -7.78764 13.4872 12.174 -8.3466 13.7929 11.7698 -8.90654 14.0626 
11.3347 -9.46533 14.3002 10.8783 -10.0216 14.5121 10.4091 -10.5745 14.706 

LINES 2 120
OFFSETS vtktypeint64
0 120 
CONNECTIVITY vtktypeint64
0 1 2 3 4 5 6 7 8 
9 10 11 12 13 14 15 16 17 
18 19 20 21 22 23 24 25 26 
27 28 29 30 31 32 33 34 35 
36 37 38 39 40 41 42 43 44 
45 46 47 48 49 50 51 52 53 
54 55 56 57 58 59 60 61 62 
63 64 65 66 67 68 69 70 71 
72 73 74 75 76 77 78 79 80 
81 82 83 84 85 86 87 88 89 
90 91 92 93 94 95 96 97 98 
99 100 101 102 103 104 105 106 107 
108 109 110 111 112 113 114 115 116 
117 118 119 
CELL_DATA 1
FIELD FieldData 2
Length 1 1 double
80.315221999 
Tortuosity 1 1 double
1.0387047827 
POINT_DATA 120
FIELD FieldData 19
Curvature 1 120 double
0 0.24569086123 0.28935916587 0.28100013064 0.2275364219 0.15525473285 0.086015398675 0.085841728248 0.19728352397 
0.35780190483 0.49969382075 0.5174784534 0.40863983108 0.27870039871 0.19008531509 0.14496637388 0.12727681318 0.12234868501 
0.12132144205 0.11932417167 0.11351716808 0.10264569394 0.086813979368 0.06829484402 0.050574320437 0.038573891494 0.038130457495 
0.051135822451 0.077421418957 0.12462485218 0.21298744385 0.38165852117 0.67033392612 0.96643371195 0.93571925582 0.63544721045 
0.38523240922 0.25056195629 0.19113543335 0.17347625375 0.17812154277 0.19246414807 0.20525011493 0.20762830785 0.19626090527 
0.17532146126 0.15293635634 0.13484041897 0.12357515506 0.1182107364 0.11883983948 0.12618843157 0.14182647811 0.16874944241 
0.21156665947 0.2762397964 0.36508102802 0.46217079253 0.52263114954 0.50581733531 0.42775331504 0.33870969468 0.27014606175 
0.22792020276 0.20621093264 0.19614531101 0.18812665708 0.17340211424 0.14925717276 0.11877986686 0.092263998521 0.08831001159 
0.11781798662 0.16773497705 0.22101689109 0.25935189939 0.26712229141 0.24374294342 0.20412161343 0.16428591295 0.13285473947 
0.11264776636 0.10198822845 0.099276408248 0.10163574446 0.10533279046 0.10759370479 0.10340711034 0.089923480552 0.066953017688 
0.036577256592 0.011792341591 0.041257857398 0.077564580973 0.10989742213 0.13355638039 0.14567746213 0.14537254779 0.13506368376 
0.11982979161 0.10486807978 0.095793936606 0.095940068675 0.10709718176 0.12834077972 0.15673079292 0.18866346478 0.21742988485 
0.23508512841 0.23718095015 0.22414780659 0.20076909674 0.17410872788 0.14798040574 0.12373080526 0.10127534301 0.079996523673 
0.059487030129 0.03950631272 0 
Torsion 1 120 double
0 0 0.039828449325 0.067828403724 0.1357671646 0.34991328626 1.3933153844 1.8783659659 0.53666811226 
0.26109304208 0.19408345384 0.20003533069 0.25697031293 0.34827359342 0.41952284716 0.38680605209 0.25318526296 0.11149463601 
0.0090240294535 -0.052803311189 -0.081590442693 -0.078293921407 -0.042830494198 0.037739671301 0.21204519227 0.47513527945 0.49288471618 
0.225509399 0.052289796608 -0.0085006130927 -0.018344776846 -0.0056812255969 0.015538819588 0.034122555325 0.059485902208 0.10747375665 
0.1725171486 0.22121877654 0.21147686693 0.14168171528 0.045832278217 -0.04393549206 -0.12291384573 -0.20515235 -0.295184544 
-0.3879926688 -0.46203753989 -0.49292636464 -0.47256661354 -0.42263221557 -0.35574568244 -0.28102954201 -0.20704759206 -0.14341190906 
-0.096419168636 -0.06731562207 -0.054408574844 -0.054502789651 -0.066096225538 -0.090740669761 -0.13120989332 -0.18785633955 -0.25136801445 
-0.29883505375 -0.31437599873 -0.30325467874 -0.28660169736 -0.29031928597 -0.34024324405 -0.4899632714 -0.80330039965 -0.93867579672 
-0.58355004832 -0.30272013304 -0.15608168581 -0.073760338182 -0.018170775831 0.029437270568 0.07571583792 0.11788509409 0.1480894101 
0.15103797253 0.12068014426 0.070507822501 0.022264282171 -0.010726751904 -0.026047309765 -0.033625454052 -0.049785925422 -0.10489580322 
-0.41546466557 -4.4106935944 -0.35179991207 -0.081165306209 -0.030306225774 -0.01897366811 -0.023201246963 -0.044181632167 -0.083769372986 
-0.13992366913 -0.2155289101 -0.28468867259 -0.28963107158 -0.21840369935 -0.12353683036 -0.047910751796 0.0078202412921 0.047607911248 
0.073862725295 0.093160500446 0.10989172258 0.12077858173 0.12071028485 0.11357383974 0.10008726724 0.078296022232 0.052810488891 
0.026071906724 0 0 
FrenetTangent 3 120 double
-0.16727973842 -0.87215019645 -0.4597515894 -0.16727973842 -0.87215019645 -0.4597515894 -0.27154903692 -0.92372500612 -0.27017259968 
-0.36531353434 -0.92766949685 -0.07730023437 -0.43839100293 -0.89498021405 0.082605962319 -0.49234021207 -0.84941090431 0.19000587155 
-0.53412992645 -0.81038024288 0.24080922662 -0.56905447096 -0.7882458825 0.23419102845 -0.59642565502 -0.78554617334 0.16490496532 
-0.60540145679 -0.79552563429 0.025060752366 -0.57430929305 -0.7988792854 -0.17877562273 -0.48863283583 -0.77445130586 -0.40182474612 
-0.3664357235 -0.72584067112 -0.58213416038 -0.24109126981 -0.67702604512 -0.695349361 -0.12956814797 -0.64378923802 -0.75415350695 
-0.032285228741 -0.6278489183 -0.77766535206 0.055871495993 -0.62441895043 -0.77908879486 0.13963845343 -0.62726152554 -0.76618801929 
0.22163359084 -0.63054723528 -0.74383380905 0.30208361602 -0.62964997697 -0.71574184972 0.37908554489 -0.62189148238 -0.68523363446 
0.4494400886 -0.60715655942 -0.65525912363 0.50984164896 -0.58805108777 -0.62789920462 0.55820528084 -0.56882003283 -0.60402867042 
0.59443500812 -0.55373894891 -0.58311250852 0.62022636826 -0.54602809751 -0.56318076037 0.6385239721 -0.54716176355 -0.54120341976 
0.65270080146 -0.55744688736 -0.51306396438 0.66599866373 -0.57669384481 -0.47314901381 0.68087891065 -0.60477016116 -0.41310647684 
0.69747559227 -0.6416381329 -0.31910547566 0.70975250236 -0.68407125649 -0.16821980098 0.69530454073 -0.71535097049 0.069459230274 
0.60671611292 -0.69086201293 0.3931987251 0.42183586011 -0.57421782301 0.70166117098 0.21050721931 -0.41637823859 0.88448621982 
0.037427772127 -0.28456485384 0.95792588744 -0.094339910215 -0.19240753529 0.9767698407 -0.20186830282 -0.12935334675 0.97083309585 
-0.29985162841 -0.083222003374 0.95034893544 -0.39711703869 -0.044682660407 0.91667961548 -0.4963744463 -0.0062640607306 0.86808592352 
-0.59415547437 0.038146186996 0.80344516969 -0.68208864523 0.092782687988 0.72535953352 -0.75029441736 0.15952270527 0.64156900937 
-0.79168981233 0.237103255 0.56303577819 -0.80422235978 0.32139911707 0.49992899854 -0.79019570556 0.4063846088 0.45873990087 
-0.7543639677 0.48566254699 0.44166378013 -0.70217766874 0.55371318506 0.4476027594 -0.63832018674 0.60672973594 0.47373660058 
-0.56546697588 0.64281531862 0.51675484065 -0.48365167438 0.66103797683 0.57368096626 -0.38998633174 0.66011058007 0.64200053204 
-0.27886926556 0.63674557409 0.71887899301 -0.14289763305 0.58398815403 0.79908579166 0.024119358045 0.49058332281 0.87106042267 
0.21907311132 0.34485126035 0.91273467127 0.41843000865 0.14773394403 0.89615345206 0.58174692059 -0.074613126634 0.80994036924 
0.67993945669 -0.28391431948 0.67607321677 0.71294015624 -0.45809344942 0.5309112216 0.69586465656 -0.59690852801 0.39934019199 
0.64229550104 -0.70897961641 0.29121193805 0.56047319398 -0.80140060045 0.20887047766 0.45627579234 -0.87662252397 0.15279185774 
0.33710259117 -0.93338147391 0.12312947328 0.21438544612 -0.96946350256 0.1190772762 0.10243980596 -0.98514287424 0.13783904921 
0.014769847449 -0.98452026009 0.17464738499 -0.038937044152 -0.97380156139 0.22404112484 -0.053204203651 -0.95820784715 0.28108189975 
-0.025316529035 -0.9394907527 0.34163752569 0.045290508954 -0.91473248211 0.40151370584 0.15500316003 -0.87670768748 0.45536540393 
0.29230528994 -0.8171247593 0.49685485327 0.43704910954 -0.73304001875 0.52119133412 0.56743009343 -0.63107841505 0.52892638724 
0.6701484995 -0.5234868806 0.52617722723 0.74322795101 -0.42047944497 0.52039336006 0.79137125588 -0.32679481252 0.51665915832 
0.82092901727 -0.24239227132 0.51703146462 0.83734505624 -0.16473552583 0.52126333395 0.84452671228 -0.090443851108 0.52782055857 
0.84490542134 -0.016311355477 0.53466696987 0.83979498701 0.059201098336 0.53966620215 0.82997807388 0.13555600692 0.54107390056 
0.81636557733 0.20965235468 0.53813858282 0.80088312627 0.27603175907 0.53140632856 0.78674854212 0.32874911173 0.52244689014 
0.77779807282 0.36276848425 0.51325352872 0.7773354182 0.37465552798 0.50535421534 0.78702966112 0.36268284679 0.49904455228 
0.80629192996 0.32640634297 0.49330743249 0.83215199528 0.26687425918 0.48610820457 0.85959302752 0.18752147199 0.4753267556 
0.88295967443 0.094328698688 0.45987423274 0.89777534508 -0.0049424133513 0.44042593283 0.90180005881 -0.10254712049 0.41981036434 
0.89505194389 -0.19287620566 0.40209549492 0.87885464815 -0.27327237997 0.39107123873 0.85426016026 -0.3439113805 0.38982629587 
0.82105850751 -0.40677083706 0.40050020395 0.77752085855 -0.46446597545 0.42394890279 0.72025667011 -0.51963436318 0.45957638948 
0.64484060588 -0.57392397468 0.50476911979 0.547018044 -0.62712246744 0.55451660964 0.42501339051 -0.67690750554 0.60096576178 
0.28235506038 -0.71941226598 0.63460350726 0.12846654414 -0.75090199564 0.64779822474 -0.024138697365 -0.76994540862 0.63765303342 
-0.16397269815 -0.77807795837 0.60638902115 -0.28411496364 -0.7784468835 0.55973130787 -0.38262379472 -0.774064791 0.50440334162 
-0.46044459909 -0.76727510776 0.44640752702 -0.51999272515 -0.75961853104 0.39062418396 -0.56414879055 -0.75198043395 0.34097150773 
-0.59566950769 -0.74497683577 0.30031209061 -0.61682268877 -0.73917008005 0.27047617893 -0.61682268877 -0.73917008005 0.27047617893 

FrenetNormal 3 120 double
-0.47926235658 -0.33558352421 0.81098168404 -0.47926235658 -0.33558352421 0.81098168404 -0.45354435754 -0.12477305531 0.88245634476 
-0.41880836298 0.089627532209 0.90364067005 -0.40334146253 0.27803525074 0.87178670783 -0.45767807525 0.43832194425 0.77356619149 
-0.70134431283 0.58380322083 0.40901094633 -0.63366261963 0.23884292549 -0.73581637752 -0.19775607019 -0.055304241318 -0.97868992924 
0.039430448614 -0.061424991131 -0.99733254744 0.25062051446 0.036319056806 -0.96740388868 0.45546646239 0.16639611696 -0.87456425373 
0.63570439047 0.2615494853 -0.72627253471 0.7900676293 0.27918179828 -0.54575696481 0.91733540332 0.21091601808 -0.33765395175 
0.98959937045 0.089047404741 -0.112976306 0.99646596227 -0.01414569449 0.082797858409 0.97415587005 -0.051713367811 0.2198773941 
0.95203034292 -0.025129207074 0.30497007903 0.934222524 0.046154434829 0.35369201828 0.91491093265 0.14091201692 0.37826153492 
0.88977575741 0.23907372297 0.38877095636 0.85946932702 0.31673804223 0.40123495426 0.82912488808 0.35525368036 0.4316789809 
0.79753757141 0.31321273472 0.51558860054 0.72179341828 0.11614995516 0.6822927885 0.53066112741 -0.19629377306 0.82454079494 
0.33828928553 -0.39150803081 0.85573466747 0.24583483206 -0.42917035985 0.8691248688 0.19311281089 -0.39584278357 0.89778390104 
0.12972389525 -0.32489136448 0.93681231434 0.025055109826 -0.21413111395 0.97648354185 -0.1445454313 -0.044513667136 0.98849640957 
-0.37390848539 0.18847815781 0.90811256383 -0.5866399707 0.41720515921 0.69411339124 -0.71535470763 0.55104982373 0.42966467627 
-0.78639208301 0.58309143065 0.20394086222 -0.84000832824 0.54196792112 0.025627738082 -0.88023043391 0.45861653476 -0.12192316129 
-0.89282851076 0.37542280885 -0.2488271789 -0.87312256455 0.32612706258 -0.36235083321 -0.82066045634 0.32945461233 -0.46687907837 
-0.7363187017 0.37625140014 -0.56237856771 -0.61530696988 0.46319083386 -0.63784918613 -0.45155789179 0.58514274726 -0.67357511511 
-0.24035555828 0.72640527255 -0.64386690055 0.013609860392 0.85090463476 -0.52514386052 0.2814306831 0.90555686596 -0.3174327222 
0.51554671333 0.85480015208 -0.059399380264 0.68031559197 0.70722460319 0.19236438333 0.76976939228 0.50187563444 0.39443114769 
0.80228095359 0.28338386983 0.52539399866 0.80648804109 0.081901866673 0.58555027437 0.80650200318 -0.09159574071 0.58409309117 
0.81172329736 -0.24371967055 0.53075984279 0.81786452626 -0.38500887747 0.4276280872 0.80852641614 -0.52202399173 0.27161735302 
0.75908802776 -0.64796903184 0.06262188025 0.64683163506 -0.74112504227 -0.179840228 0.47073620403 -0.78118269506 -0.41007441173 
0.25550706188 -0.77248089103 -0.58136857012 0.026317997252 -0.73910618171 -0.67307459853 -0.20869111819 -0.70012141115 -0.68284553658 
-0.44237887379 -0.6531872899 -0.61453014274 -0.65436178469 -0.58311765443 -0.48143998154 -0.82054673337 -0.4809268753 -0.30888897515 
-0.92813109313 -0.3514084755 -0.12282001999 -0.97589355056 -0.20749833666 0.067647751266 -0.96010643652 -0.061673968516 0.27274888115 
-0.84946995694 0.079779389101 0.52157074432 -0.52749580745 0.21045593982 0.82307743896 0.10500514318 0.27455159857 0.95582181374 
0.60968592159 0.2563215878 0.75005487842 0.81587459614 0.26579939394 0.51351662637 0.8815183259 0.33082460795 0.33686869826 
0.87798718124 0.43523913033 0.19926216153 0.82690620383 0.55544259104 0.087804658867 0.74136309976 0.67108273998 0.0053582105452 
0.63460588843 0.77177858448 -0.040412657747 0.51636029036 0.85510590456 -0.046539687676 0.39158493346 0.9199678363 -0.017900280753 
0.26435888458 0.96388856631 0.032143613481 0.14569445291 0.98627730571 0.077654379403 0.045180357085 0.99415420736 0.09806195655 
-0.034983531488 0.9957101235 0.085659222974 -0.099667669907 0.99395412186 0.046060386487 -0.15509634123 0.98785290996 -0.0095787901207 
-0.20535970614 0.97626482453 -0.068806856395 -0.24523424289 0.96077959173 -0.12947100922 -0.26139647909 0.94418001346 -0.20048935859 
-0.20463946481 0.91828597396 -0.33893002151 0.53746751882 0.021941583171 -0.84299895204 0.51081501269 -0.83669143864 -0.19752331336 
0.43048276366 -0.89575844794 -0.11091164566 0.3632738851 -0.92465191821 -0.11424059938 0.28507008615 -0.94799986819 -0.14153196067 
0.19484840477 -0.96487790428 -0.1761951446 0.094682874531 -0.974394292 -0.20393851274 -0.01454671094 -0.97809070324 -0.20767033837 
-0.13280015275 -0.97600586345 -0.17255918968 -0.2601281481 -0.96161322996 -0.087369002133 -0.39627920639 -0.91615752907 0.060151246923 
-0.52087651002 -0.82091209451 0.23407476239 -0.61702509624 -0.69362234505 0.37170966231 -0.69270251249 -0.57439026802 0.4361640164 
-0.76427755123 -0.47746805812 0.43347904005 -0.83688401613 -0.39392376207 0.38006474872 -0.90518476307 -0.31633182694 0.2838568653 
-0.95852543907 -0.23832071673 0.15630808881 -0.9870918466 -0.15981015673 0.010507149307 -0.98589300953 -0.087340144297 -0.14278190694 
-0.95548529548 -0.027570364148 -0.29374772362 -0.90204795481 0.019171062355 -0.4312098765 -0.83435665258 0.055026141715 -0.54847160367 
-0.75992333511 0.08078138185 -0.64497356 -0.68867119593 0.10229555914 -0.71782142798 -0.62798251499 0.12266143417 -0.76849992416 
-0.5836861502 0.14461588579 -0.79899732393 -0.55787591618 0.16814994586 -0.81271154653 -0.55787591618 0.16814994586 -0.81271154653 

FrenetBinormal 3 120 double
-0.86158289368 0.35600243414 -0.3618524343 -0.86158289368 0.35600243414 -0.3618524343 -0.84885725319 0.3621654287 -0.38506826144 
-0.83135165648 0.36248615156 -0.42125789393 -0.80319922383 0.34886503953 -0.48287078089 -0.74035930129 0.29389622119 -0.60456026677 
-0.47203959213 0.049574805107 -0.88018234597 0.5240693595 -0.56711770002 -0.63539658542 0.77792607279 -0.61632674001 -0.12236165584 
0.79494296389 -0.60279842041 0.068554711758 0.77933188928 -0.60039388195 0.17935716566 0.74416950581 -0.61035850703 0.27142999007 
0.67941503403 -0.63619744332 0.36557902654 0.56362056452 -0.68095026084 0.46758806819 0.37644103502 -0.73556090865 0.56324266247 
0.14018113287 -0.7732246087 0.61844397845 -0.062721303918 -0.78096150588 0.62142188919 -0.17754279251 -0.77708989581 0.60382932246 
-0.21098999399 -0.77574397003 0.59473062423 -0.18966751061 -0.77550672122 0.60217568929 -0.13867997319 -0.77032122366 0.62239302487 
-0.079389598077 -0.75776293611 0.64768250276 -0.037067086515 -0.74422639752 0.6668981184 -0.030964243877 -0.74178069053 0.66992732647 
-0.10286322629 -0.77153804784 0.62781223101 -0.30713761319 -0.82967614444 0.46615875184 -0.55739205674 -0.81368468043 0.16501919864 
-0.67789528916 -0.73210274524 -0.066959296242 -0.70428049473 -0.69515250959 -0.14405545168 -0.70647813222 -0.69105827748 -0.1527321375 
-0.70476911765 -0.69479932908 -0.14336799892 -0.70400541679 -0.69727640293 -0.1348406135 -0.70402998085 -0.69734605646 -0.13435126944 
-0.70148984517 -0.69798686458 -0.14396643359 -0.69130894099 -0.7044244082 -0.16086702969 -0.66629899661 -0.72316889742 -0.18185816703 
-0.61659277781 -0.76093838611 -0.20195573497 -0.5343088899 -0.81807708246 -0.21275313708 -0.42946894129 -0.87916925886 -0.20644089405 
-0.33607477041 -0.92310985952 -0.18687411791 -0.28276323109 -0.94426934659 -0.16852405237 -0.2830703525 -0.94415063414 -0.16867351772 
-0.32374996803 -0.92573200891 -0.19546407825 -0.39516124919 -0.88138846387 -0.25884737374 -0.48285997726 -0.79508519785 -0.36699560014 
-0.56165509582 -0.64507164445 -0.51809856867 -0.59417267502 -0.41552847085 -0.68869073043 -0.54441483956 -0.12173049021 -0.82993624467 
-0.40638232074 0.18288955807 -0.89521216421 -0.21004098852 0.43958511046 -0.87329703641 0.0015562491053 0.61644129897 -0.78739932881 
0.19129132416 0.7116755219 -0.67596270669 0.34008542669 0.74586920933 -0.57273119797 0.4443705435 0.74556303715 -0.49665941822 
0.51316393214 0.73154343416 -0.44889529145 0.5573848609 0.71465096392 -0.42260633764 0.58796538246 0.6977241256 -0.40924045937 
0.61301903559 0.67912719134 -0.40372505494 0.63759325886 0.65491095082 -0.40566794642 0.66330833449 0.61982778114 -0.41932752727 
0.68731250284 0.56803691094 -0.45269812376 0.70073083038 0.49383442951 -0.51488237452 0.68718294285 0.39182932359 -0.61175925349 
0.62590528147 0.26588393674 -0.73317686189 0.50762235329 0.13315734563 -0.85122774141 0.34426074373 0.015565702125 -0.93874503953 
0.15790667178 -0.07287734565 -0.98476107534 -0.040873689136 -0.1307094392 -0.99057780312 -0.26019553554 -0.16028050081 -0.95215988382 
-0.52743022653 -0.15606122694 -0.83514205354 -0.84866488069 -0.086132551469 -0.52187077314 -0.99304744732 0.080368783562 0.086009453027 
-0.79223869532 0.22728037581 0.56630511247 -0.57645243791 0.30432740323 0.75834518424 -0.44598145867 0.3491972358 0.82411275262 
-0.37907272001 0.37798680821 0.84464776432 -0.35385619383 0.39260139959 0.84891102898 -0.35833482022 0.38908609608 0.84865079182 
-0.38493681948 0.36099764871 0.84941411728 -0.42542245284 0.30330006321 0.85265749763 -0.46946008909 0.21648170979 0.8560040269 
-0.50615208064 0.11029423625 0.85536264398 -0.52690263159 0.010921665573 0.84985547833 -0.53360413003 -0.058968820452 0.84367606973 
-0.53377053264 -0.091078480655 0.84071025261 -0.53367662059 -0.092468554568 0.84061812439 -0.53579988971 -0.075968396539 0.84092049619 
-0.53979128859 -0.054340432184 0.84004314305 -0.54630246582 -0.026627882028 0.83716460253 -0.55919461031 0.021168932987 0.82876610939 
-0.59426664668 0.15858719012 0.78847780931 -0.32692248901 0.92690441917 -0.1843092073 0.34590798679 0.41037615568 -0.8437648224 
0.40568203543 0.3017875117 -0.86275511236 0.41899300848 0.27165595877 -0.86639938764 0.42406942006 0.25716132573 -0.86835083896 
0.42710222721 0.24517896816 -0.8703280767 0.43015646343 0.22479176199 -0.87431920985 0.4319086097 0.18117026334 -0.88353397702 
0.42573012246 0.10105109502 -0.8991899349 0.39993481217 -0.024943983477 -0.916204095 0.33645559763 -0.20586486899 -0.91892180654 
0.23356067424 -0.40080022355 -0.88589423311 0.12141394124 -0.55059912831 -0.82589300443 0.03733039462 -0.63249976174 -0.77366045074 
-0.007772882181 -0.66530859363 -0.74652800185 -0.019909874005 -0.67196836273 -0.74031217497 -0.0020402452647 -0.66462801943 -0.74717162231 
0.038789206326 -0.65241798529 -0.75686601849 0.09563489644 -0.64078616304 -0.76173949604 0.16562698164 -0.6321042374 -0.75697551877 
0.2452769952 -0.62756239987 -0.73892126096 0.32494334069 -0.62741765988 -0.70764320488 0.39679718751 -0.63071056996 -0.66690041905 
0.45881074085 -0.63621008901 -0.62026560982 0.50531133936 -0.64227354443 -0.57632034879 0.53607285231 -0.64767244771 -0.54142986387 
0.55180459917 -0.65122635062 -0.52097593475 0.55525150406 -0.65219106745 -0.51608388734 0.55525150406 -0.65219106745 -0.51608388734 

plain_curvature_peaks 1 120 unsigned_char
0 0 0 0 0 0 0 0 0 
0 0 0 0 0 0 0 0 0 
0 0 1 0 0 0 0 0 0 
0 0 0 0 0 0 0 0 0 
1 0 0 0 0 0 0 0 0 
0 0 0 0 0 0 0 0 0 
0 0 0 0 0 0 0 0 0 
0 0 0 0 0 0 0 0 0 
0 0 0 0 0 0 0 1 0 
0 0 0 0 0 0 0 0 0 
0 0 0 0 0 0 0 0 0 
0 0 0 0 0 0 0 0 0 
0 0 0 0 0 0 1 0 0 
0 0 0 
weighted_curvature_peaks 1 120 unsigned_char
0 0 0 0 0 0 0 0 0 
0 0 0 0 0 0 0 0 0 
0 0 0 0 0 0 1 0 0 
0 0 0 0 0 0 0 0 0 
0 0 0 1 0 0 0 0 0 
0 0 0 0 0 0 0 0 0 
0 0 0 0 0 0 0 0 0 
0 0 0 0 0 0 0 0 0 
0 0 0 0 0 0 0 0 0 
0 0 1 0 0 0 0 0 0 
0 0 0 0 0 0 0 0 0 
0 0 0 0 0 0 0 0 0 
0 0 0 0 0 0 0 0 0 
1 0 0 
plain_torsion_tp 1 120 unsigned_char
0 0 0 0 0 0 0 0 0 
0 0 0 0 0 0 0 0 0 
0 0 1 0 0 0 0 0 0 
0 0 0 0 0 0 0 0 0 
1 0 0 0 0 0 0 0 0 
0 0 0 0 0 0 0 0 0 
0 0 0 0 0 0 0 0 0 
0 0 0 0 0 0 0 0 0 
0 0 0 0 0 0 0 1 0 
0 0 0 0 0 0 0 0 0 
0 0 0 0 0 0 0 0 0 
0 0 0 0 0 0 0 0 0 
0 0 0 0 0 0 1 0 0 
0 0 0 
plain_torsion_tn 1 120 unsigned_char
0 0 0 0 0 0 0 0 2 
0 0 0 0 0 0 0 0 0 
0 0 0 0 0 0 2 0 0 
0 0 0 0 0 0 0 0 0 
0 0 0 0 0 0 0 0 0 
0 0 0 0 0 0 0 0 0 
2 0 0 0 0 0 0 0 0 
0 0 0 0 0 0 0 0 0 
0 0 0 0 0 0 0 0 0 
0 0 0 0 0 0 0 0 0 
0 0 0 0 0 0 2 0 0 
0 0 0 0 0 0 0 0 0 
0 0 0 0 0 0 0 0 0 
0 0 0 
plain_torsion_tz 1 120 unsigned_char
0 0 0 0 0 0 0 0 0 
0 3 0 0 0 0 0 0 0 
0 0 0 0 3 0 0 0 0 
3 0 0 0 0 0 0 0 0 
0 0 0 0 0 0 0 0 0 
0 0 0 0 0 0 0 0 0 
0 0 0 0 0 0 0 0 3 
0 0 0 0 0 0 0 0 0 
0 0 0 0 0 0 0 0 0 
0 0 0 0 0 0 0 3 0 
0 0 0 0 0 0 0 0 0 
0 0 3 0 0 0 0 0 0 
0 0 0 0 0 0 0 0 0 
0 0 0 
weighted_torsion_tp 1 120 unsigned_char
0 0 0 0 0 0 0 0 0 
0 0 0 0 0 0 0 0 0 
0 0 0 0 0 0 1 0 0 
0 0 0 0 0 0 0 0 0 
0 0 0 1 0 0 0 0 0 
0 0 0 0 0 0 0 0 0 
0 0 0 0 0 0 0 0 0 
0 0 0 0 0 0 0 0 0 
0 0 0 0 0 0 0 0 0 
0 0 1 0 0 0 0 0 0 
0 0 0 0 0 0 0 0 0 
0 0 0 0 0 0 0 0 0 
0 0 0 0 0 0 0 0 0 
1 0 0 
weighted_torsion_tn 1 120 unsigned_char
0 0 0 0 0 0 0 0 0 
0 2 0 0 0 0 0 0 0 
0 0 0 0 0 0 0 0 0 
0 0 2 0 0 0 0 0 0 
0 0 0 0 0 0 0 0 0 
0 0 0 0 0 0 0 0 0 
0 0 0 0 0 0 0 2 0 
0 0 0 0 0 0 0 0 0 
0 0 0 0 0 0 0 0 0 
0 0 0 0 0 0 0 0 0 
0 0 0 0 0 0 0 0 0 
0 2 0 0 0 0 0 0 0 
0 0 0 0 0 0 0 0 0 
0 0 0 
weighted_torsion_tz 1 120 unsigned_char
0 0 0 0 0 0 0 0 0 
0 0 0 3 0 0 0 0 0 
0 0 0 0 0 0 0 0 0 
0 3 0 0 3 0 0 0 0 
0 0 0 0 0 0 0 0 0 
0 0 0 0 0 0 0 0 0 
0 0 0 0 0 0 0 0 0 
0 0 0 3 0 0 0 0 0 
0 0 0 0 0 0 0 0 0 
0 0 0 0 0 0 0 0 0 
0 0 0 0 3 0 0 0 0 
0 0 0 0 0 0 0 3 0 
0 0 0 0 0 0 0 0 0 
0 0 0 
plain_torsion_tp_raw 1 120 unsigned_char
0 0 0 0 0 0 0 0 0 
0 0 0 0 0 0 0 0 0 
0 0 0 0 1 0 0 1 0 
0 0 0 0 0 0 0 0 0 
0 0 0 0 0 0 0 0 0 
0 0 0 0 0 0 0 0 0 
0 0 0 0 0 1 0 0 0 
0 0 0 0 0 0 0 0 0 
0 0 0 0 0 0 0 0 0 
0 1 0 0 0 0 0 0 0 
0 0 0 0 0 0 0 0 0 
0 0 0 0 0 0 1 0 0 
0 0 0 0 0 0 0 0 1 
0 0 0 
plain_torsion_tn_raw 1 120 unsigned_char
0 0 0 0 0 0 0 0 0 
0 0 0 0 0 0 0 0 2 
0 0 0 0 0 2 0 0 0 
0 0 0 0 0 0 0 0 0 
0 0 0 0 0 0 0 0 0 
0 0 0 0 2 0 0 0 0 
0 0 0 0 0 0 0 0 0 
0 0 0 0 2 0 0 0 0 
0 0 0 0 0 0 0 0 0 
0 0 0 0 0 0 0 0 0 
0 0 0 0 0 0 0 2 0 
0 0 0 0 0 0 0 0 0 
0 0 2 0 0 0 0 0 0 
0 0 0 
plain_torsion_tz_raw 1 120 unsigned_char
0 0 0 0 0 0 0 0 3 
0 0 0 0 0 0 0 0 0 
0 0 3 0 3 3 0 0 0 
0 0 0 0 0 0 0 0 0 
0 0 0 0 0 0 0 0 0 
0 0 0 0 0 0 0 0 0 
0 0 0 0 0 0 0 0 0 
0 0 0 0 0 0 0 0 0 
0 0 0 0 0 0 0 0 0 
0 0 0 0 0 0 0 0 0 
0 0 0 0 0 0 0 0 0 
0 0 0 0 0 0 0 0 0 
0 0 0 0 0 0 0 0 0 
0 0 0 
weighted_torsion_tp_raw 1 120 unsigned_char
0 0 0 0 0 0 0 0 0 
0 0 0 0 0 0 0 0 0 
0 0 0 0 0 0 0 0 0 
1 0 1 0 0 0 0 0 0 
0 0 0 0 0 0 0 0 0 
0 0 0 0 0 0 0 0 0 
0 0 0 0 0 0 0 0 0 
0 0 1 0 0 0 0 0 0 
0 0 0 0 0 0 0 0 0 
0 0 0 0 0 0 1 0 0 
0 0 0 0 0 0 0 0 0 
0 0 0 0 0 0 0 0 0 
0 0 1 0 0 0 0 0 0 
0 1 0 
weighted_torsion_tn_raw 1 120 unsigned_char
0 0 0 0 0 0 0 0 0 
0 0 0 0 0 0 0 0 0 
0 0 0 2 0 0 0 0 0 
0 2 0 0 0 0 0 0 0 
0 0 0 0 0 0 0 0 0 
0 0 0 0 0 0 0 0 2 
0 0 0 0 0 0 0 0 0 
0 0 0 0 0 0 0 0 0 
2 0 0 0 0 0 0 0 0 
0 0 0 0 0 0 0 0 0 
0 0 0 0 0 0 0 0 0 
0 0 0 2 0 0 0 0 0 
0 0 0 0 0 0 2 0 0 
0 0 0 
weighted_torsion_tz_raw 1 120 unsigned_char
0 0 0 0 0 0 0 0 0 
0 3 0 0 0 0 0 0 0 
0 0 0 0 0 0 0 3 0 
3 0 3 0 0 0 0 0 0 
0 0 0 0 0 0 0 0 0 
0 0 0 0 0 0 0 0 0 
0 0 0 0 0 0 0 0 0 
0 0 0 0 0 0 0 0 0 
0 0 0 0 0 0 0 0 0 
0 0 0 0 0 0 0 0 0 
0 0 0 0 0 0 0 0 0 
0 0 0 0 0 0 0 0 0 
0 0 0 0 0 0 0 0 0 
0 0 0 
