# vtk DataFile Version 5.1
vtk output
ASCII
DATASET POLYDATA
POINTS 120 float
-2.38611 19.9602 -7.02123 -2.87901 19.5476 -7.16555 -3.40837 19.0757 -7.21611 
-3.96284 18.5612 -7.18014 -4.53102 18.0208 -7.06546 -5.10135 17.4715 -6.88172 
-5.6621 16.9305 -6.6423 -6.20151 16.4148 -6.3665 -6.70826 15.9403 -6.08095 
-7.17224 15.5203 -5.81941 -7.58577 15.163 -5.62 -7.94464 14.8697 -5.52004 
-8.24909 14.6334 -5.54947 -8.50394 14.4391 -5.72495 -8.7175 14.2661 -6.04744 
-8.89993 14.0918 -6.50183 -9.06118 13.8948 -7.06001 -9.20877 13.6583 -7.68676 
-9.34616 13.3711 -8.34608 -9.472 13.0285 -9.00662 -9.58034 12.6308 -9.64522 
-9.66195 12.1829 -10.2483 -9.70626 11.6921 -10.811 -9.70335 11.1675 -11.3351 
-9.64542 10.6181 -11.8259 -9.52761 10.0533 -12.29 -9.34824 9.48231 -12.7323 
-9.10883 8.91481 -13.1544 -8.81387 8.36124 -13.5535 -8.47022 7.83264 -13.9206 
-8.08638 7.3404 -14.2409 -7.67157 6.89473 -14.4938 -7.23506 6.50366 -14.6555 
-6.78592 6.17267 -14.703 -6.33328 5.90429 -14.6192 -5.88709 5.69759 -14.3964 
-5.45864 5.54937 -14.0383 -5.0609 5.45324 -13.5597 -4.70769 5.40177 -12.9836 
-4.4122 5.38797 -12.3377 -4.18491 5.40616 -11.6507 -4.03187 5.45242 -10.9485 
-3.95351 5.52243 -10.2521 -3.94435 5.60944 -9.57534 -3.99372 5.70249 -8.92454 
-4.08728 5.78713 -8.29909 -4.20905 5.84759 -7.69321 -4.34367 5.87024 -7.0984 
-4.47838 5.84611 -6.5063 -4.6043 5.77092 -5.91124 -4.71656 5.64312 -5.31224 
-4.81357 5.46073 -4.71398 -4.89544 5.21972 -4.12607 -4.96241 4.91373 -3.56112 
-5.01404 4.53709 -3.03179 -5.0494 4.08677 -2.54819 -5.06785 3.56496 -2.11592 
-5.06971 2.97906 -1.73551 -5.0565 2.34092 -1.40278 -5.03052 1.66471 -1.10985 
-4.99395 0.964519 -0.846439 -4.94778 0.252666 -0.601073 -4.891 -0.461374 -0.362396 
-4.8203 -1.17148 -0.120499 -4.7304 -1.87413 0.131788 -4.61485 -2.56787 0.397653 
-4.46694 -3.25143 0.675788 -4.28024 -3.92257 0.960665 -4.04893 -4.57681 1.2438 
-3.76784 -5.20633 1.51571 -3.43269 -5.80061 1.7682 -3.04053 -6.34783 1.99654 
-2.59052 -6.83697 2.20089 -2.08492 -7.2604 2.38702 -1.5299 -7.61672 2.56597 
-0.935487 -7.91044 2.75239 -0.314609 -8.15205 2.962 0.318863 -8.35416 3.20884 
0.952499 -8.52849 3.50188 1.57733 -8.68225 3.84365 2.18878 -8.81638 4.22995 
2.78645 -8.92549 4.65125 3.37298 -9.0005 5.09501 3.95242 -9.03085 5.54851 
4.52871 -9.00891 6.00151 5.10457 -8.9325 6.44757 5.6811 -8.80668 6.88491 
6.25791 -8.64371 7.31547 6.83363 -8.46211 7.74403 7.40644 -8.28361 8.17596 
7.97436 -8.13047 8.61661 8.53502 -8.02199 9.06974 9.08595 -7.97215 9.53769 
9.624 -7.98853 10.021 10.1459 -8.07244 10.5179 10.6488 -8.22083 11.0252 
11.131 -8.42843 11.5373 11.5923 -8.68975 12.0463 12.0346 -9.00113 12.5428 
12.4604 -9.36058 13.0173 12.8722 -9.76791 13.4617 13.2709 -10.2227 13.8712 
13.6551 -10.7232 14.2449 14.0197 -11.2656 14.5857 14.3563 -11.8441 14.8993 
14.6536 -12.4511 15.192 14.8986 -13.0796 15.469 15.0801 -13.723 15.7326 
15.1906 -14.3771 15.981 15.2296 -15.0391 16.2084 15.205 -15.7082 16.406 
15.1316 -16.3853 16.5636 15.0293 -17.0713 16.6717 14.9205 -17.7675 16.7236 
14.8266 -18.4745 16.7163 14.7667 -19.1926 16.6507 14.7576 -19.9212 16.5307 
14.8141 -20.6596 16.3626 14.9501 -21.4069 16.1532 15.1791 -22.162 15.9098 

LINES 2 120
OFFSETS vtktypeint64
0 120 
CONNECTIVITY vtktypeint64
0 1 2 3 4 5 6 7 8 
9 10 11 12 13 14 15 16 17 
18 19 20 21 22 23 24 25 26 
27 28 29 30 31 32 33 34 35 
36 37 38 39 40 41 42 43 44 
45 46 47 48 49 50 51 52 53 
54 55 56 57 58 59 60 61 62 
63 64 65 66 67 68 69 70 71 
72 73 74 75 76 77 78 79 80 
81 82 83 84 85 86 87 88 89 
90 91 92 93 94 95 96 97 98 
99 100 101 102 103 104 105 106 107 
108 109 110 111 112 113 114 115 116 
117 118 119 
CELL_DATA 1
FIELD FieldData 2
Length 1 1 double
83.070579843 
Tortuosity 1 1 double
0.62644582405 
POINT_DATA 120
FIELD FieldData 19
Curvature 1 120 double
0 0.22422547695 0.16445237551 0.12731718974 0.10358147639 0.086212034737 0.069666151155 0.048549589128 0.023089178921 
0.08058665789 0.26614064864 0.68495290818 1.1735452454 0.95049938443 0.43643308681 0.17003514315 0.082287351576 0.079489354398 
0.094253503645 0.10744124 0.1168536005 0.12271418387 0.12562811493 0.12577239319 0.12342293185 0.11908591904 0.11422060816 
0.11131312588 0.11412825509 0.12907263185 0.16625338814 0.23971823168 0.35709144521 0.48736445907 0.53954896078 0.46754951719 
0.34532645847 0.24919490193 0.19290237392 0.16545414862 0.15528868651 0.1522087262 0.14723592694 0.13365670346 0.1120319337 
0.09689262982 0.1057710863 0.12633925174 0.13889566301 0.14071969373 0.14173367365 0.15065842135 0.17036775973 0.19169450418 
0.20416641299 0.19736928299 0.17271686815 0.13779255495 0.1013733209 0.068355877025 0.040558025118 0.022327223684 0.02591305487 
0.040638869277 0.053708188196 0.063776235887 0.07292451749 0.084541078415 0.10110848293 0.12265557808 0.14731611882 0.17049642161 
0.18413295337 0.17928268168 0.15797923815 0.12940281469 0.11048683714 0.10385727852 0.1009239157 0.093379490181 0.082858184163 
0.07748738369 0.084891401579 0.096940221047 0.10238268772 0.09330233467 0.069403785083 0.034098362651 0.0097276034126 0.049534320072 
0.087005350612 0.11587100999 0.13225991611 0.13507899711 0.12859292674 0.11757039508 0.10723121782 0.10192550288 0.10323348829 
0.1090619958 0.11335706566 0.11186078636 0.10491762841 0.097623106405 0.097112055548 0.10851454724 0.12584577484 0.14303663095 
0.15054417932 0.14469129416 0.13055532276 0.11802483063 0.11590435468 0.122472012 0.13135898232 0.13815052557 0.14162759652 
0.14324476357 0.14151037207 0 
Torsion 1 120 double
0 0 0.053859646694 0.062602399059 0.072039084164 0.090749291444 0.14649672214 0.41926405088 3.6317975445 
0.84563296805 0.30040110449 0.17553904408 0.13564573969 0.18856576725 0.39832226467 0.90651484781 1.4408166604 0.62918595668 
0.13732798538 -0.054291517278 -0.15427101989 -0.21397040822 -0.24206627391 -0.24138894577 -0.21659222525 -0.17417087913 -0.11387499216 
-0.03032196718 0.073744579434 0.17720791105 0.22728902878 0.202880362 0.14908506918 0.10939712976 0.089211466581 0.090174383781 
0.1074218349 0.11376626207 0.098352332102 0.061298913588 0.031633783078 0.041482308565 0.10607760135 0.25590392314 0.55513066692 
0.90030101541 0.74421088447 0.41960578783 0.21439605248 0.066531648732 -0.048028113246 -0.094637341642 -0.0737611919 -0.037003655325 
-0.01129736363 0.00216277286 0.0086250743501 0.01509359543 0.033645700479 0.10167157821 0.36335575161 1.2400193097 0.71294978079 
0.096789149162 -0.10101008213 -0.19275094635 -0.22387536692 -0.18720973106 -0.10560121338 -0.01952715303 0.05177821962 0.10840283385 
0.15983550744 0.22953407851 0.33611080463 0.48335698916 0.53938649014 0.39119524548 0.15819414744 -0.07909036264 -0.32608227486 
-0.49002659153 -0.39538812331 -0.2273365655 -0.11164883101 -0.038528124145 0.031777612088 0.29230417142 3.8714535053 0.14940169339 
0.038793153559 0.0061286999707 -0.006417988026 -0.0089750144956 0.0088875465569 0.060443725879 0.13628771568 0.19479681887 0.18882240936 
0.12339270594 0.035993501927 -0.059737407924 -0.17291819891 -0.28565003431 -0.31965342096 -0.22375330018 -0.091086730889 0.029976003927 
0.13800358441 0.26385457945 0.4153457391 0.54514181523 0.54497709411 0.43604441533 0.33798108177 0.27062686673 0.22201648148 
0.18238929315 0 0 
FrenetTangent 3 120 double
-0.74849778578 -0.64760357274 -0.14269084506 -0.74849778578 -0.64760357274 -0.14269084506 -0.73952274523 -0.67305799197 -0.0099523226968 
-0.72528131594 -0.68153864061 0.097324683945 -0.70980158205 -0.67938784851 0.18604801913 -0.6951740919 -0.67014182017 0.26008253077 
-0.68328444927 -0.65629821833 0.31999220302 -0.67672042984 -0.6404659854 0.36311538302 -0.67937716188 -0.62597492772 0.38288648682 
-0.69663332785 -0.61708232479 0.36593908095 -0.73328398373 -0.6176707039 0.28421382927 -0.77878778186 -0.621798135 0.082805012758 
-0.76093031238 -0.58588832172 -0.27878295171 -0.60356736624 -0.47326877723 -0.64165652721 -0.42189966179 -0.3699781141 -0.82771786888 
-0.30362580215 -0.32801663119 -0.89454818871 -0.23775271244 -0.33375226294 -0.91218587728 -0.20103309628 -0.36944826658 -0.90724510058 
-0.17714567238 -0.42384752127 -0.88824134641 -0.15472636765 -0.48914358702 -0.85836956052 -0.12544355749 -0.55845112793 -0.81999771439 
-0.083836379277 -0.62495759789 -0.77614397011 -0.027823123499 -0.68243855347 -0.73041323546 0.041141306019 -0.72618983545 -0.68626213347 
0.11891643632 -0.75387394782 -0.64616789767 0.20036757002 -0.76579555378 -0.61107283256 0.28113410346 -0.7643305628 -0.58031233542 
0.35891153932 -0.7529733206 -0.55155569565 0.43392441266 -0.73531005837 -0.52060418952 0.50885361262 -0.71404077077 -0.48084693885 
0.58780406398 -0.69030595937 -0.42185787278 0.67371749708 -0.66218121014 -0.32805606085 0.76239092705 -0.62155858898 -0.18006941668 
0.83235475404 -0.5532317124 0.033469924208 0.84644049398 -0.44739071922 0.28875601207 0.78913352388 -0.32022245388 0.52414297813 
0.68793284896 -0.2034662346 0.69667057259 0.57628970216 -0.11327115223 0.80935766213 0.46837976352 -0.047121290763 0.88226978929 
0.36512169812 0.0030682383696 0.93095474191 0.26379130165 0.044698932418 0.96354354059 0.16269129525 0.081749289878 0.98328459566 
0.06319515036 0.11338164594 0.99153969932 -0.029998861476 0.13433725185 0.99048148447 -0.11024665359 0.13705860591 0.98440876363 
-0.17111239637 0.11530200892 0.97848147379 -0.20835186731 0.067533949504 0.97571956271 -0.22129381773 -0.0012164942338 0.97520642244 
-0.21372017625 -0.081442309482 0.97349413788 -0.19295055119 -0.16444158479 0.96733088961 -0.16683451914 -0.24728099465 0.95447281413 
-0.14061916075 -0.33283708889 0.93244073479 -0.11585564004 -0.42578772926 0.89737521711 -0.091569209605 -0.52705007304 0.84488656064 
-0.066377156918 -0.63101670469 0.77292431159 -0.040253893032 -0.72726212189 0.68517839294 -0.014784415228 -0.8061903345 0.59147152562 
0.0080071142041 -0.86402194807 0.50339046412 0.026912746591 -0.90259350828 0.42965179261 0.042096226411 -0.92630727875 0.37440984636 
0.055043923461 -0.93936716334 0.33846639262 0.068210242655 -0.94472104241 0.3207015978 0.084511063072 -0.94411757492 0.31859046587 
0.10669214011 -0.93852878652 0.32829941229 0.13664592241 -0.92874265734 0.34462293645 0.17516113952 -0.91570037064 0.36167859546 
0.2223733475 -0.90030571426 0.37416535809 0.27842509245 -0.88280083026 0.37834133 0.34400566185 -0.86186122065 0.37263298426 
0.42003502481 -0.83415281593 0.35743482988 0.50634919203 -0.79470158602 0.33475346886 0.5999446747 -0.7382800681 0.3082351835 
0.69355309048 -0.66232084916 0.28339937093 0.77639154886 -0.57078702274 0.26724209534 0.83892874215 -0.4744345382 0.26666539812 
0.8769778098 -0.38630860422 0.28578940399 0.89173521688 -0.31545137286 0.3244976646 0.88742823078 -0.26363845452 0.3781083185 
0.86959042023 -0.22670797956 0.43865247412 0.84483540303 -0.19673906182 0.49754083585 0.82017202809 -0.16499008069 0.54781029345 
0.80120588836 -0.12457063642 0.58527880621 0.79048088821 -0.071430574331 0.60830719084 0.78682436223 -0.0057284679946 0.61715039306 
0.78659736946 0.06714301367 0.61380485015 0.78605033856 0.13794653587 0.60257416016 0.78350788742 0.19618592364 0.58959856998 
0.77967671688 0.2330957395 0.58118034498 0.77624169399 0.24337396019 0.58156508493 0.77390441971 0.22499877228 0.5919860654 
0.77130081773 0.17880166726 0.61083959626 0.7654172829 0.10901074999 0.63423421496 0.75293899609 0.0231355257 0.65768352239 
0.73243926786 -0.069297841787 0.67729648457 0.70505233999 -0.15982107983 0.690911297 0.67393084949 -0.24355505565 0.69749418992 
0.64303917335 -0.31960919219 0.69595300546 0.61548904731 -0.39007245357 0.68484794926 0.59254903014 -0.45787710951 0.66274746282 
0.57338670979 -0.52491946749 0.62903675066 0.55545137954 -0.59078640294 0.58518816723 0.53530016493 -0.65319077363 0.53553295573 
0.50958467537 -0.7098151639 0.48629815105 0.47532268712 -0.75981021363 0.44357274756 0.42984954207 -0.80387079819 0.4111217715 
0.37027990023 -0.84355303545 0.38898723869 0.29488712587 -0.87941663636 0.37372177175 0.2048781547 -0.91047157012 0.35925821039 
0.10625307237 -0.93509507051 0.33809391256 0.01027883162 -0.95256557268 0.30415978591 -0.070268383809 -0.96452046628 0.25448501796 
-0.125474535 -0.97376946138 0.18981353259 -0.14996209232 -0.98213075114 0.1137126138 -0.14290636176 -0.98923723502 0.031423949814 
-0.10719941417 -0.9929371819 -0.050833437786 -0.047251214442 -0.99076547083 -0.12708699594 0.031703882989 -0.98077504311 -0.19254915895 
0.12459329208 -0.96163855822 -0.24439270634 0.22656865105 -0.93254928426 -0.28110225683 0.22656865105 -0.93254928426 -0.28110225683 

FrenetNormal 3 120 double
0.025872852661 -0.24353077329 0.96954801735 0.025872852661 -0.24353077329 0.96954801735 0.10443332222 -0.12932715638 0.98608730234 
0.15542377872 -0.024376100437 0.98754708988 0.18543138 0.074588489082 0.97982231073 0.1955299427 0.17188429733 0.96551738971 
0.17633195299 0.27695962474 0.9445636075 0.076769100307 0.42913020609 0.89997431711 -0.5420258353 0.77982563799 0.31317721533 
-0.52907501196 0.097387831014 -0.84296811452 -0.33465895315 -0.035990706103 -0.94165176905 -0.11823576445 0.015868312537 -0.99285875162 
0.20934673394 0.18499168277 -0.96018332744 0.54148089101 0.34740679569 -0.76557622937 0.75549485133 0.36124830885 -0.54655941028 
0.9182314621 0.14983529076 -0.36660655701 0.89317534566 -0.44418310182 -0.070279257026 0.48838803841 -0.84063799744 0.23410442371 
0.29895897071 -0.88304281566 0.36174427368 0.29782002841 -0.85150903579 0.4315502203 0.39086818649 -0.78749592992 0.47652095563 
0.52948568228 -0.68777040429 0.49660525898 0.67678088485 -0.55061141304 0.48866625188 0.80142240645 -0.38619037931 0.45670462815 
0.88607581154 -0.21307916372 0.41166360806 0.92829508749 -0.051024520247 0.36832693206 0.93636055156 0.08600904969 0.34034006649 
0.91994670144 0.18551369009 0.34537333032 0.88496332077 0.23949441506 0.39935240834 0.8260603277 0.24781829543 0.50617232979 
0.72894848715 0.22576146616 0.64627073544 0.59016211488 0.21493678991 0.77814577973 0.41094742658 0.25007734155 0.87668896185 
0.18361041094 0.33221880195 0.92515830247 -0.081867872667 0.42649270773 0.90077834215 -0.33371955535 0.49287556638 0.80355767338 
-0.53608465354 0.50461838108 0.67673741859 -0.68435680993 0.47443710093 0.55368329753 -0.79026683894 0.42419744483 0.44219322821 
-0.86280547414 0.376689876 0.33715197034 -0.90752711415 0.34995410719 0.23222114446 -0.93684813738 0.32549215097 0.12794697006 
-0.96072126728 0.27592350789 0.029679359767 -0.9869973155 0.15256917588 -0.050586023399 -0.98864870653 -0.11684290841 -0.094453532691 
-0.81188000782 -0.57914973317 -0.073732214598 -0.37655247509 -0.92625191998 -0.016297675626 -0.014058794902 -0.9998913235 -0.004437508128 
0.19168199498 -0.98064331752 -0.039958686235 0.29017277881 -0.95132375923 -0.10384056798 0.30415266466 -0.93373780698 -0.18874550163 
0.26628965052 -0.9198087442 -0.2881695614 0.22076477398 -0.89189939101 -0.39468771311 0.19736208038 -0.84122567549 -0.50337617358 
0.19322907801 -0.76809770453 -0.6104821371 0.19922653156 -0.67780690528 -0.7077334161 0.20721748748 -0.58116436434 -0.78696181261 
0.21565040706 -0.49006896129 -0.84458706781 0.22885016122 -0.41282962703 -0.88158907817 0.26774237987 -0.35057676195 -0.89744635049 
0.4061107225 -0.28861296353 -0.86705053968 0.83095351072 -0.1241047052 -0.54232304502 0.95288703329 0.17005390437 0.25117319005 
0.84133028403 0.26118009851 0.47323177124 0.84528518963 0.2907164565 0.4483044614 0.8934261016 0.30218180426 0.33237923846 
0.93977845489 0.3001023012 0.16356975435 0.95501317768 0.29634710748 -0.011323530954 0.93892911713 0.3121518809 -0.14482167051 
0.9058755997 0.36177620106 -0.22024390619 0.86113561901 0.44558194151 -0.24474921671 0.80003833438 0.55471037326 -0.22854991867 
0.71648508753 0.67514835506 -0.17556713251 0.60816566328 0.78976593685 -0.080026814243 0.47082529315 0.87843994141 0.081650552094 
0.28894671496 0.8991392521 0.32872237716 0.053477647939 0.78545723093 0.61660123219 -0.16945968602 0.5762446823 0.79951577904 
-0.31567336922 0.42786226953 0.84692632636 -0.38576592495 0.42037046836 0.82126324676 -0.37422654335 0.5695513915 0.73182354888 
-0.26276544561 0.8055020086 0.53115048219 -0.10444831433 0.96290719705 0.24879766781 -0.013790792644 0.9995440677 0.026860207843 
0.0056970544763 0.9932387776 -0.11594944691 -0.019523364343 0.97983651944 -0.198844747 -0.065443813413 0.96962683588 -0.23567118285 
-0.15626299479 0.9711963466 -0.17988755601 -0.39283589734 -0.53477389431 0.74812889245 -0.057474936206 -0.90594995481 0.41946550644 
-0.057103853136 -0.93641835376 0.34620776521 -0.10353260963 -0.95185107726 0.28854900011 -0.17370707887 -0.95695149983 0.23252887504 
-0.24978092994 -0.95278940289 0.17263209661 -0.32289541587 -0.9397703324 0.11211722772 -0.37070342338 -0.9281253794 0.034091817453 
-0.37875858372 -0.92255535091 -0.073712683877 -0.33755995974 -0.91567174728 -0.21817086151 -0.27321272329 -0.88821154658 -0.3693711634 
-0.22265682931 -0.83873027509 -0.49694613593 -0.21977543246 -0.78300790068 -0.58189121557 -0.2697946095 -0.73303041168 -0.62440154087 
-0.37935126369 -0.69263472254 -0.6134735201 -0.54466632834 -0.65006402215 -0.5298635276 -0.72417295588 -0.57889888315 -0.37476607779 
-0.85129040705 -0.47573332969 -0.22131977292 -0.91813012298 -0.36912937239 -0.14415472147 -0.94844645588 -0.27535087777 -0.1569433479 
-0.94801805426 -0.19783792717 -0.24924269972 -0.90182842731 -0.14023337357 -0.40870538121 -0.76513679072 -0.11156950687 -0.63412769741 
-0.49258345368 -0.10492867611 -0.86391638142 -0.1023906044 -0.098967519456 -0.98980886752 0.25751216127 -0.067819347442 -0.96389212203 
0.51827283983 -0.012175408033 -0.8551286587 0.7009347444 0.057757322987 -0.71088295502 0.81883656662 0.13595752324 -0.55769366953 
0.88929838138 0.21746567348 -0.40231464023 0.91959980217 0.29991154667 -0.25375040496 0.91959980217 0.29991154667 -0.25375040496 

FrenetBinormal 3 120 double
-0.66263237182 0.72201272498 0.1990375964 -0.66263237182 0.72201272498 0.1990375964 -0.66498104521 0.72819463474 0.16593005587 
-0.67067910491 0.73137602304 0.12360684107 -0.67955641225 0.72997856722 0.073036798751 -0.691737684 0.72205659694 0.011543281391 
-0.70854033317 0.70183047446 -0.073515858075 -0.73222671699 0.63690704798 -0.24123318005 -0.49462578359 0.0052310798773 -0.86909031177 
0.48454271045 -0.78084890651 -0.39432644718 0.59185976742 -0.78561286307 -0.18031762281 0.61604374425 -0.78301677886 -0.08587682575 
0.61413272563 -0.78899489971 -0.018111972354 0.58523916401 -0.80952157649 0.046582594492 0.5012267002 -0.85592981864 0.12710602098 
0.25428793576 -0.93271350119 0.25570133051 -0.38172169134 -0.83145102023 0.4037050301 -0.84915417807 -0.39602491788 0.34943017369 
-0.93767955325 -0.20146628607 0.28314023202 -0.94199945957 -0.18886744886 0.27742765711 -0.91185852778 -0.26073453565 0.31706707057 
-0.84416608186 -0.36932353272 0.38856628059 -0.73565855374 -0.48073349433 0.47718109742 -0.59668209239 -0.56877527533 0.56609642888 
-0.44802738464 -0.62150731355 0.6426508553 -0.31324282503 -0.64105668091 0.70066059146 -0.21022020207 -0.63906277793 0.73986906443 
-0.15773577099 -0.6313603165 0.75927832664 -0.16896604684 -0.6340043716 0.75464490444 -0.24226501176 -0.6547761985 0.715943988 
-0.35088528817 -0.68739322287 0.63590099205 -0.44476219745 -0.71785668575 0.53560093954 -0.49988227308 -0.74237877375 0.44608459887 
-0.52294625004 -0.76391448476 0.37810300124 -0.52615220381 -0.78609510532 0.32437377178 -0.51565447721 -0.80903106003 0.28208013761 
-0.48924599086 -0.8390243029 0.23806843465 -0.44670564792 -0.87297141038 0.19589533119 -0.39509330594 -0.90434291713 0.1614471054 
-0.34964676368 -0.92633434743 0.14018494005 -0.32681598225 -0.93569980672 0.1328803426 -0.30959184411 -0.94200420024 0.12954140959 
-0.27022401739 -0.95446886809 0.12636518615 -0.15791253118 -0.97912008933 0.12801360537 0.10207551349 -0.98364763676 0.1483843531 
0.55818581199 -0.80702604252 0.19271109461 0.90266147192 -0.37080526748 0.21841639297 0.97510583862 -0.014692220195 0.22125266585 
0.95790484865 0.17806132098 0.22519428702 0.93732056589 0.26065699744 0.23127491531 0.93790052767 0.25881618476 0.23099087147 
0.95358065923 0.20777715552 0.21797380574 0.96842159478 0.15238203937 0.19733050661 0.97604471674 0.12065481094 0.18105006908 
0.97890581592 0.10882938349 0.17291491792 0.97912635202 0.1080166895 0.17217427674 0.97818318016 0.11092847325 0.17564891083 
0.97643780552 0.11531906361 0.18240264667 0.97308956822 0.12205186547 0.19544829075 0.96257047833 0.13802448807 0.23325375656 
0.91216459456 0.18518069479 0.36560068752 0.55214456967 0.30348010509 0.77655405478 -0.2913145757 0.28235381055 0.91400883128 
-0.52988691285 0.22571812734 0.8174785542 -0.51654703569 0.23004568755 0.82477763158 -0.41365248239 0.26491317141 0.87104112155 
-0.25955066951 0.31525898828 0.91282266639 -0.10212393626 0.36447371096 0.92559689696 0.0084980947991 0.39969543354 0.91660860938 
0.054405659658 0.41630164547 0.90759735796 0.045342490117 0.41219670375 0.90996589827 -0.0022474041724 0.38371726941 0.92344789042 
-0.075054846819 0.32481655043 0.94279423977 -0.16538043675 0.22465960843 0.96030066723 -0.27298737868 0.05705381928 0.96032429563 
-0.38395275366 -0.2057043209 0.90014777416 -0.44938674228 -0.53249166166 0.71728947164 -0.42866601222 -0.77358699021 0.46669970918 
-0.3796877994 -0.87494992446 0.30049925902 -0.37072603487 -0.88576656681 0.2792486279 -0.43274974129 -0.80522635682 0.40538645228 
-0.53760900759 -0.57935194026 0.61264009359 -0.60351513238 -0.26020646212 0.7536989333 -0.6170228821 -0.029645259007 0.78638662348 
-0.61743997435 0.094702409601 0.7808964923 -0.61785411183 0.14453770583 0.77289400832 -0.61792596453 0.1460646518 0.77254942875 
-0.60637125065 0.049437157859 0.79364341729 0.49308091655 -0.8091884808 -0.31950776558 0.63068897316 -0.35865057069 -0.68818688398 
0.63390393478 -0.30191162701 -0.71204997784 0.63515146366 -0.28652431504 -0.71727709785 0.63475091092 -0.28932434123 -0.716507297 
0.6333578814 -0.29561827221 -0.71516965204 0.63137924284 -0.30214060433 -0.71419276595 0.63905882515 -0.28153901149 -0.71577901828 
0.66561442052 -0.21619803138 -0.71429395519 0.71219836157 -0.096895470479 -0.6952587731 0.75778654958 0.037799485463 -0.6514067425 
0.78844886797 0.14488298141 -0.59779369711 0.80198037647 0.19460229591 -0.56476315583 0.80041526854 0.18975834314 -0.56861864997 
0.77227979215 0.12813888646 -0.62222531965 0.6909464045 0.010257015982 -0.7228332171 0.53926144044 -0.13663024157 -0.8309809119 
0.37174916052 -0.24919084133 -0.89426309677 0.26472374332 -0.30061584477 -0.91627040419 0.24181451996 -0.30858291287 -0.91994691359 
0.29995341872 -0.29403633053 -0.90750789689 0.43197202839 -0.27009892759 -0.86049214756 0.64002191035 -0.23927497835 -0.73015028522 
0.8611722721 -0.20189851167 -0.46649684753 0.98337558186 -0.16007691203 -0.08571958492 0.95564912942 -0.12965426705 0.2644324346 
0.84847012269 -0.11801488142 0.51591756965 0.71165849031 -0.12266977397 0.6917328384 0.57315053953 -0.13998523738 0.80740485034 
0.44002829506 -0.16721233269 0.88227837747 0.32094057114 -0.20100969281 0.92552269188 0.32094057114 -0.20100969281 0.92552269188 

plain_curvature_peaks 1 120 unsigned_char
0 0 0 0 0 0 0 0 0 
0 0 0 0 0 0 0 0 0 
0 0 0 0 0 1 0 0 0 
0 0 0 0 0 0 0 0 0 
0 0 0 0 0 0 0 0 0 
0 0 0 0 0 0 0 1 0 
0 0 0 0 0 0 0 0 0 
0 1 0 0 0 0 0 0 0 
0 0 0 0 0 0 0 0 0 
0 0 0 0 0 0 0 0 0 
0 0 0 0 0 0 0 0 0 
0 0 0 0 0 0 0 0 1 
0 0 0 0 0 0 0 0 0 
0 0 0 
weighted_curvature_peaks 1 120 unsigned_char
0 0 0 0 0 0 0 0 0 
0 0 0 0 0 0 0 0 0 
0 0 0 0 0 0 0 0 1 
0 0 0 0 0 0 0 0 0 
0 0 0 0 0 0 0 0 0 
0 0 0 0 0 0 0 0 0 
1 0 0 0 0 0 0 0 0 
0 0 0 0 0 0 1 0 0 
0 0 0 0 0 0 0 0 0 
0 0 0 0 0 0 0 0 0 
0 0 0 0 0 0 0 0 0 
0 0 0 0 0 0 0 0 0 
0 0 0 1 0 0 0 0 0 
0 0 0 
plain_torsion_tp 1 120 unsigned_char
0 0 0 0 0 0 0 0 0 
0 0 0 0 0 0 0 0 0 
0 0 0 0 0 1 0 0 0 
0 0 0 0 0 0 0 0 0 
0 0 0 0 0 0 0 0 0 
0 0 0 0 0 0 0 1 0 
0 0 0 0 0 0 0 0 0 
0 1 0 0 0 0 0 0 0 
0 0 0 0 0 0 0 0 0 
0 0 0 0 0 0 0 0 0 
0 0 0 0 0 0 0 0 0 
0 0 0 0 0 0 0 0 1 
0 0 0 0 0 0 0 0 0 
0 0 0 
plain_torsion_tn 1 120 unsigned_char
0 0 0 0 0 0 0 2 0 
0 0 0 0 0 0 0 0 0 
0 0 0 0 0 0 0 0 0 
0 0 0 0 0 0 0 0 0 
0 0 0 2 0 0 0 0 0 
0 0 0 0 0 0 0 0 0 
0 0 0 0 0 0 2 0 0 
0 0 0 0 0 0 0 0 0 
0 0 0 0 0 0 0 0 0 
0 0 2 0 0 0 0 0 0 
0 0 0 0 0 0 0 0 0 
0 0 0 0 0 0 0 0 0 
0 0 0 0 0 0 0 0 0 
0 0 0 
plain_torsion_tz 1 120 unsigned_char
0 0 0 0 0 0 0 0 3 
0 0 0 0 0 0 0 0 0 
0 0 0 0 0 0 0 0 0 
0 0 0 0 0 0 0 0 3 
0 0 0 0 0 0 3 0 0 
0 0 0 0 0 0 0 0 0 
0 0 0 0 0 0 0 3 0 
0 0 0 0 0 0 0 0 0 
0 0 3 0 0 0 0 0 0 
0 0 0 0 0 0 0 0 0 
0 3 0 0 0 0 0 0 0 
0 0 0 0 0 0 0 0 0 
0 0 0 0 0 0 0 0 0 
0 0 0 
weighted_torsion_tp 1 120 unsigned_char
0 0 0 0 0 0 0 0 0 
0 0 0 0 0 0 0 0 0 
0 0 0 0 0 0 0 0 1 
0 0 0 0 0 0 0 0 0 
0 0 0 0 0 0 0 0 0 
0 0 0 0 0 0 0 0 0 
1 0 0 0 0 0 0 0 0 
0 0 0 0 0 0 1 0 0 
0 0 0 0 0 0 0 0 0 
0 0 0 0 0 0 0 0 0 
0 0 0 0 0 0 0 0 0 
0 0 0 0 0 0 0 0 0 
0 0 0 1 0 0 0 0 0 
0 0 0 
weighted_torsion_tn 1 120 unsigned_char
0 0 0 0 0 0 0 0 2 
0 0 0 0 0 0 0 0 0 
0 0 0 0 0 0 0 0 0 
0 0 0 0 0 0 0 0 0 
0 0 0 0 0 0 0 0 2 
0 0 0 0 0 0 0 0 0 
0 0 0 0 2 0 0 0 0 
0 0 0 0 0 0 0 0 0 
0 0 0 0 0 0 0 0 0 
0 0 0 0 0 0 0 2 0 
0 0 0 0 0 0 0 0 0 
0 0 0 0 0 0 0 0 0 
0 0 0 0 0 0 0 0 0 
0 0 0 
weighted_torsion_tz 1 120 unsigned_char
0 0 0 0 0 0 0 0 0 
3 0 0 0 0 0 0 0 0 
0 0 0 0 0 0 0 0 0 
0 0 0 0 0 0 0 0 0 
0 0 0 3 0 0 0 0 0 
0 0 3 0 0 0 0 0 0 
0 0 0 0 0 3 0 0 0 
0 0 0 0 0 0 0 0 0 
0 0 0 0 0 0 0 0 3 
0 0 0 0 0 0 0 0 0 
0 0 0 0 0 3 0 0 0 
0 0 0 0 0 0 0 0 0 
0 0 0 0 0 0 0 0 0 
0 0 0 
plain_torsion_tp_raw 1 120 unsigned_char
0 0 0 0 0 0 0 0 0 
0 0 0 0 0 0 0 0 0 
0 0 0 0 0 0 0 0 0 
0 0 1 0 0 0 0 0 0 
0 0 0 0 0 1 0 0 0 
0 0 0 0 0 0 0 0 0 
0 0 0 0 0 0 0 1 0 
0 0 0 0 0 1 0 0 0 
0 0 0 0 0 0 0 0 0 
0 0 0 0 0 0 0 0 0 
0 0 0 0 0 0 1 0 0 
0 0 0 0 0 0 0 0 0 
0 1 0 0 0 0 0 0 0 
0 0 0 
plain_torsion_tn_raw 1 120 unsigned_char
0 0 0 0 0 0 0 0 0 
0 0 0 0 0 0 0 2 0 
0 0 0 0 0 0 0 0 0 
0 0 0 0 0 0 0 0 0 
0 2 0 0 0 0 0 0 0 
0 0 0 0 0 0 0 0 0 
0 0 0 0 0 0 2 2 0 
0 0 0 0 0 0 0 0 0 
0 0 0 0 0 0 0 0 0 
0 0 0 2 0 0 0 0 0 
0 0 0 0 0 0 0 0 0 
0 0 0 2 0 0 0 0 0 
0 0 0 0 0 0 0 0 0 
0 0 0 
plain_torsion_tz_raw 1 120 unsigned_char
0 0 0 0 0 0 0 3 0 
0 0 0 0 0 0 0 0 0 
0 0 0 0 0 0 0 3 0 
0 0 0 3 0 0 0 0 0 
0 0 0 3 0 0 0 0 0 
0 0 0 0 0 0 0 0 0 
0 0 0 0 0 0 0 0 0 
0 0 0 0 0 0 0 0 0 
0 0 0 0 0 0 0 0 0 
0 0 0 0 0 0 0 0 0 
0 0 0 0 0 0 0 0 0 
0 0 0 0 0 0 0 0 0 
0 0 0 0 0 0 0 0 0 
0 0 0 
weighted_torsion_tp_raw 1 120 unsigned_char
0 0 0 0 0 0 0 0 0 
0 0 0 0 0 0 0 0 0 
0 0 0 0 0 0 0 0 0 
0 0 0 0 0 1 0 0 0 
0 0 0 0 0 0 0 0 0 
1 0 0 0 0 0 0 0 0 
0 0 0 0 1 0 0 0 0 
0 0 0 0 0 0 0 0 0 
0 1 0 0 0 0 0 0 0 
0 0 0 0 0 0 0 0 0 
0 0 0 0 0 0 0 0 0 
0 0 1 0 0 0 0 0 0 
0 0 0 0 0 1 0 0 0 
0 0 0 
weighted_torsion_tn_raw 1 120 unsigned_char
0 0 0 0 0 0 0 0 0 
0 0 0 0 0 0 0 0 0 
0 2 0 0 0 0 0 0 0 
0 0 0 0 0 0 0 0 0 
0 0 0 0 0 2 0 0 0 
0 0 0 0 0 0 0 0 0 
0 0 0 2 0 0 2 0 0 
0 0 0 0 0 0 0 0 0 
0 0 0 0 0 0 0 0 0 
0 0 0 0 0 0 0 0 0 
2 0 0 0 0 0 0 0 0 
0 0 0 0 0 0 0 0 2 
0 0 0 0 0 0 0 0 0 
0 0 0 
weighted_torsion_tz_raw 1 120 unsigned_char
0 0 0 0 0 0 0 0 3 
0 0 0 0 0 0 0 0 0 
0 0 0 0 0 0 0 0 0 
0 3 0 0 0 0 3 0 0 
0 0 0 0 0 0 0 3 0 
0 0 0 0 0 0 0 0 0 
0 0 0 0 0 0 0 0 0 
0 0 0 0 0 0 0 0 0 
0 0 0 0 0 0 0 0 0 
0 0 0 0 0 0 0 0 0 
0 0 0 0 0 0 0 0 0 
0 0 0 0 0 0 0 0 0 
0 0 0 0 0 0 0 0 0 
0 0 0 
