# vtk DataFile Version 5.1
vtk output
ASCII
DATASET POLYDATA
POINTS 120 float
-9.24036 18.2891 -9.2342 -9.5014 17.5576 -9.29426 -9.7707 16.8713 -9.2482 
-10.0407 16.2354 -9.12173 -10.304 15.6549 -8.9407 -10.5537 15.1341 -8.73138 
-10.7841 14.6754 -8.52062 -10.9915 14.2777 -8.33548 -11.1746 13.9361 -8.20205 
-11.3352 13.64 -8.14304 -11.4772 13.3745 -8.17458 -11.6052 13.1214 -8.30327 
-11.7233 12.8611 -8.52445 -11.8332 12.5758 -8.82291 -11.933 12.2511 -9.17607 
-12.017 11.8793 -9.55888 -12.0753 11.46 -9.94911 -12.0949 11.001 -10.3314 
-12.0616 10.5166 -10.699 -11.9614 10.0249 -11.0533 -11.7837 9.54429 -11.4007 
-11.5227 9.09013 -11.7491 -11.1791 8.67233 -12.1031 -10.7606 8.29429 -12.4611 
-10.2819 7.95354 -12.8127 -9.76389 7.64378 -13.1392 -9.23207 7.35757 -13.4153 
-8.71444 7.08931 -13.613 -8.23897 6.83753 -13.706 -7.83067 6.60576 -13.6747 
-7.50875 6.40208 -13.51 -7.28432 6.23746 -13.2154 -7.15933 6.1225 -12.806 
-7.12689 6.06468 -12.3061 -7.17288 6.06665 -11.7448 -7.27851 6.12535 -11.1517 
-7.42326 6.23281 -10.5521 -7.58751 6.37833 -9.96445 -7.75443 6.54975 -9.39884 
-7.91097 6.7349 -8.85723 -8.04813 6.92141 -8.33472 -8.16061 7.09582 -7.82205 
-8.24631 7.2435 -7.30857 -8.3057 7.34889 -6.78553 -8.34072 7.39702 -6.24881 
-8.35344 7.37562 -5.70036 -8.34468 7.27632 -5.14828 -8.31317 7.09585 -4.60555 
-8.25569 6.83589 -4.08772 -8.16843 6.50191 -3.61018 -8.04902 6.10252 -3.18533 
-7.89859 5.64802 -2.82043 -7.72292 5.14902 -2.5165 -7.5322 4.61566 -2.26859 
-7.33958 4.05673 -2.06721 -7.15877 3.47908 -1.90047 -7.00163 2.88747 -1.75636 
-6.87626 2.28475 -1.62465 -6.786 1.67219 -1.49796 -6.72934 1.05043 -1.37199 
-6.70068 0.420077 -1.24497 -6.69112 -0.217456 -1.11681 -6.68932 -0.859104 -0.988201 
-6.68217 -1.49989 -0.859962 -6.65538 -2.13291 -0.732666 -6.59429 -2.74968 -0.606559 
-6.48496 -3.34144 -0.481757 -6.31563 -3.9004 -0.358366 -6.07822 -4.42095 -0.236597 
-5.7696 -4.90103 -0.116736 -5.39212 -5.34274 0.00108998 -4.95327 -5.75134 0.117169 
-4.46432 -6.13411 0.232482 -3.9384 -6.49776 0.348815 -3.38842 -6.84605 0.468719 
-2.82542 -7.17782 0.595332 -2.25767 -7.486 0.731875 -1.69056 -7.75828 0.881263 
-1.12723 -7.97911 1.04604 -0.569484 -8.13263 1.22743 -0.0187365 -8.20562 1.42571 
0.523508 -8.19034 1.64056 1.05552 -8.08609 1.87075 1.57568 -7.89926 2.1145 
2.08309 -7.64233 2.37018 2.5781 -7.33247 2.63588 3.06255 -6.98922 2.90942 
3.53975 -6.63157 3.18861 4.01413 -6.27631 3.47087 4.49031 -5.93615 3.75344 
4.97219 -5.61829 4.03356 5.46222 -5.32414 4.30886 5.96049 -5.04958 4.57773 
6.46468 -4.7859 4.83958 6.9705 -4.52132 5.09483 7.47263 -4.24376 5.34505 
7.9664 -3.94338 5.59202 8.44911 -3.61493 5.83706 8.92088 -3.25968 6.08059 
9.38549 -2.88643 6.32147 9.8498 -2.51107 6.55719 10.3219 -2.15488 6.78449 
10.8095 -1.84175 7.00006 11.3177 -1.59493 7.20169 11.8476 -1.43395 7.38908 
12.3949 -1.37243 7.56413 12.9517 -1.41675 7.7309 13.5057 -1.56597 7.89471 
14.0437 -1.81319 8.06136 14.5521 -2.1471 8.23558 15.0192 -2.55402 8.42055 
15.4355 -3.01963 8.61756 15.7941 -3.53036 8.82585 16.0909 -4.0743 9.04403 
16.3232 -4.64124 9.27008 16.4899 -5.22271 9.50218 16.5905 -5.81148 9.73946 
16.6253 -6.40105 9.98147 16.5952 -6.98512 10.228 16.5017 -7.55734 10.4791 

LINES 2 120
OFFSETS vtktypeint64
0 120 
CONNECTIVITY vtktypeint64
0 1 2 3 4 5 6 7 8 
9 10 11 12 13 14 15 16 17 
18 19 20 21 22 23 24 25 26 
27 28 29 30 31 32 33 34 35 
36 37 38 39 40 41 42 43 44 
45 46 47 48 49 50 51 52 53 
54 55 56 57 58 59 60 61 62 
63 64 65 66 67 68 69 70 71 
72 73 74 75 76 77 78 79 80 
81 82 83 84 85 86 87 88 89 
90 91 92 93 94 95 96 97 98 
99 100 101 102 103 104 105 106 107 
108 109 110 111 112 113 114 115 116 
117 118 119 
CELL_DATA 1
FIELD FieldData 2
Length 1 1 double
71.285694172 
Tortuosity 1 1 double
0.71919832089 
POINT_DATA 120
FIELD FieldData 19
Curvature 1 120 double
0 0.18922389442 0.16956798292 0.14473581337 0.11568650641 0.077353996253 0.0274667855 0.13637481979 0.42266449493 
0.87618925175 1.0721524738 0.70817688655 0.31250404184 0.12670216324 0.108996347 0.13291301813 0.14986759679 0.16393525309 
0.18310551145 0.20717155934 0.22405137711 0.21933609253 0.19086957477 0.15136241434 0.11932596562 0.11614014739 0.16127093873 
0.26993952822 0.4769009836 0.79749448476 1.0344827202 0.89295033438 0.58039421549 0.35515491099 0.22834746909 0.15680965516 
0.11316932907 0.081737226487 0.057730452366 0.047797799705 0.07168283574 0.1200852656 0.17434344092 0.22027794656 0.24871390981 
0.26106133803 0.26280774302 0.26152358122 0.26120804255 0.25734763812 0.24376473438 0.21650394634 0.17791589232 0.13685940037 
0.10461799727 0.090209415328 0.090644983154 0.092364762381 0.085794676394 0.069577814263 0.046143534354 0.018343830245 0.012556622853 
0.046983805095 0.086635640538 0.13223509201 0.18067232286 0.22217093032 0.24130025021 0.22737238182 0.1867465249 0.13602990857 
0.091137602954 0.060763004223 0.049430058434 0.057956116952 0.083451653664 0.12393500631 0.17501589483 0.22736075647 0.26300202715 
0.26547152443 0.23489908448 0.18521481978 0.13082933577 0.080605773052 0.038118944101 0.010116207044 0.032111692258 0.051911916819 
0.060164198833 0.054145641851 0.035349074334 0.017297173523 0.036795410624 0.061970049451 0.075083951236 0.070362823179 0.046613713279 
0.01333460856 0.051009987953 0.11415688129 0.18504495007 0.25329647915 0.30278573752 0.31868695221 0.30154474767 0.26775633024 
0.23290227737 0.2049299881 0.18507244215 0.17225951175 0.16458463554 0.16078107695 0.15953131873 0.15999201439 0.16092092215 
0.1613011948 0.161498597 0 
Torsion 1 120 double
0 0 0.011288239439 0.026814643718 0.082570445588 0.39363279629 7.0928255456 0.71028190568 0.20092292299 
0.12180566009 0.13742181777 0.27979381522 0.80061613957 2.173480986 1.1234803226 0.11543553475 -0.22850362509 -0.38175152382 
-0.40077783898 -0.32066468532 -0.21082865804 -0.10185675676 0.023376675557 0.21623685917 0.52897707866 0.71252697859 0.46541695328 
0.20421154658 0.052617080591 -0.02732785461 -0.065754942623 -0.10176456862 -0.14642394715 -0.18158865267 -0.20452652167 -0.24124194159 
-0.32023671941 -0.50661621994 -1.0021614318 -1.742426257 -1.0772285398 -0.5468780389 -0.3288267975 -0.20746921736 -0.11872294271 
-0.039552874896 0.029762754777 0.074644733879 0.084483050785 0.060898999558 0.010225322586 -0.064575430438 -0.17813124926 -0.36188077817 
-0.60161460697 -0.66992144496 -0.46614134766 -0.25803524538 -0.13002939405 -0.052184657996 0.00045572634636 0.10540452433 0.28019852512 
0.052950826992 0.030234933353 0.017088606391 0.0077123589056 0.00018924752033 -0.0048657094442 -0.0052893879876 0.0025611907611 0.030757157169 
0.11333766513 0.28946501594 0.37326997137 0.14196337503 -0.0210680643 -0.06504999368 -0.059125901793 -0.036652028054 -0.018378109022 
-0.0040807981599 0.015143182459 0.040039698161 0.072596243739 0.14739756014 0.47516328701 5.1085736516 0.45967360568 0.19336403026 
0.16614759816 0.23544605142 0.64432798762 3.0068693059 0.65635854342 0.18027201445 0.059815389272 -0.029098424951 -0.28320211539 
-5.2421451936 -0.46881929348 -0.138776909 -0.095105159208 -0.092997470645 -0.10345345811 -0.12154470907 -0.14345369121 -0.15739773483 
-0.1561535477 -0.1396249643 -0.10721231182 -0.075943541976 -0.052902435619 -0.036707746214 -0.038224375312 -0.046322032651 -0.051312990446 
-0.059539532135 0 0 
FrenetTangent 3 120 double
-0.35033464266 -0.93657889646 -0.0092525060855 -0.35033464266 -0.93657889646 -0.0092525060855 -0.37492644883 -0.9192622956 0.11994577885 
-0.39117792794 -0.89224253914 0.22557278212 -0.4020247677 -0.86301261991 0.30591715222 -0.4107188806 -0.83795876844 0.35935373036 
-0.4209114304 -0.82337761345 0.38063482951 -0.43647622699 -0.82627028227 0.35604202548 -0.45858458593 -0.85076160683 0.25671943029 
-0.47387542503 -0.87953985635 0.043031646972 -0.4453139655 -0.8554809623 -0.26428733469 -0.36833774306 -0.76827065573 -0.52353367282 
-0.2896105422 -0.69309132273 -0.66011374187 -0.22871844233 -0.6652799091 -0.71069720464 -0.17850214731 -0.67631938007 -0.71465311834 
-0.12757160261 -0.70941597993 -0.69314821909 -0.066486981003 -0.74921833365 -0.65897751849 0.011394749345 -0.78274331502 -0.62224035748 
0.1093373826 -0.79917213108 -0.59107464983 0.22572664533 -0.78996190259 -0.5700944431 0.35230280814 -0.75075320024 -0.55879545785 
0.47514539862 -0.68523825402 -0.55198313869 0.58094100328 -0.60660245963 -0.54271632247 0.66412093602 -0.53204444483 -0.52523527211 
0.72760495135 -0.47489203465 -0.49504402854 0.77807298207 -0.4417088229 -0.44664947145 0.82116473626 -0.43385741696 -0.37075088358 
0.85753141244 -0.44904653963 -0.25099219494 0.87563448047 -0.47909302157 -0.061107555156 0.83693654092 -0.49908617041 0.22461126634 
0.6802384485 -0.45855469159 0.57184197817 0.41885085883 -0.33513841663 0.84394679913 0.16767575609 -0.18402550974 0.96851404357 
-0.012749023192 -0.052555338731 0.99853662866 -0.13005272024 0.052034830552 0.99014073059 -0.20356409831 0.13508667715 0.96969750311 
-0.24667987808 0.20196430141 0.94781826249 -0.26684684349 0.25538984564 0.92928401948 -0.2679103242 0.2953308975 0.91706254921 
-0.25215073789 0.31907697147 0.9135698614 -0.22202440288 0.32100175281 0.92068617847 -0.18121856314 0.2945163544 0.93830695903 
-0.13474594988 0.23502159366 0.96260499661 -0.087818355757 0.14281661047 0.98584550116 -0.043937910938 0.024602948092 0.99873127263 
-0.0035833632554 -0.10901952012 0.99403315022 0.035618023119 -0.24743266286 0.96825019173 0.077266282519 -0.3823836454 0.92076743498 
0.12390590703 -0.50846358042 0.85212212364 0.17498828081 -0.62094854608 0.76406937165 0.22599514935 -0.71514591593 0.66143216689 
0.2696227194 -0.78835621867 0.55299010991 0.29870331792 -0.84164917827 0.44989219663 0.30870904341 -0.8796496975 0.36182196756 
0.29834002991 -0.90802152353 0.29409205932 0.2690291389 -0.93080127474 0.24745163035 0.22458574828 -0.94946298798 0.21927443106 
0.17100019654 -0.96372603637 0.20491720183 0.11582543692 -0.97309234642 0.1991877343 0.066638536764 -0.97801300242 0.19761040588 
0.029541221342 -0.97991385648 0.19722106917 0.008704245249 -0.9804064617 0.19679279961 0.0068466902674 -0.98050497048 0.19637496197 
0.026121339825 -0.98013128128 0.1966223463 0.068746777589 -0.9777391704 0.19824226399 0.13676504002 -0.96992052848 0.20136904493 
0.23035558026 -0.95123225716 0.20516700412 0.34488763967 -0.91533608713 0.207875837 0.46859316964 -0.85873186715 0.20736446586 
0.58470090365 -0.7855538915 0.20255847752 0.67930391184 -0.70757390228 0.19464164041 0.74749095368 -0.63757609563 0.18642423785 
0.79229295406 -0.58272438079 0.18084294561 0.8203090765 -0.54281767931 0.18011659012 0.83847094394 -0.51232417054 0.18571596713 
0.85296994596 -0.48273858411 0.19850876732 0.86871448693 -0.44433006187 0.2188742477 0.88822722876 -0.3874497943 0.24685025217 
0.91027670516 -0.30396356525 0.28107378221 0.92884963449 -0.18980316416 0.31814008768 0.93426901153 -0.049324264489 0.35314095066 
0.91901571703 0.10225686531 0.3807277838 0.88408227458 0.24457611008 0.39822237275 0.83837690977 0.36205661468 0.4074790362 
0.79299679979 0.44837369421 0.41245254984 0.75641877888 0.50438327855 0.41644704259 0.73292070363 0.53419559661 0.42126275262 
0.72369016505 0.54217556972 0.42698734947 0.72772093662 0.53238721313 0.43241888684 0.74192373672 0.50957798357 0.43575158927 
0.76180389557 0.47971328873 0.43535041669 0.78223110295 0.45012337382 0.43070111437 0.79845359301 0.42869966591 0.42271557372 
0.80695518027 0.42205891525 0.41314599005 0.80561548438 0.43331860653 0.40400331256 0.79404800393 0.46080571715 0.3964162692 
0.7741566539 0.49852889984 0.39006462444 0.75056692369 0.53763185031 0.38418912868 0.73070564302 0.56848932218 0.37800681716 
0.72306483983 0.58271054796 0.37097931842 0.73426889448 0.57361562943 0.36306239171 0.76710375777 0.53500758782 0.35400382172 
0.81875702627 0.46040047038 0.34302818951 0.87883057618 0.34524216742 0.32933973978 0.9301336389 0.19211935106 0.31295617701 
0.95516199989 0.014882678462 0.29570941791 0.94536445769 -0.16471637536 0.28134419812 0.90410638207 -0.32823031016 0.27359918381 
0.84079559166 -0.46695120829 0.27389659021 0.76420054477 -0.58036001154 0.28138902676 0.68000209684 -0.67166461554 0.29404726238 
0.59123740866 -0.74487025461 0.30920321861 0.49922068062 -0.80328784022 0.32481896158 0.40444592652 -0.84918123976 0.33958020342 
0.30708595286 -0.88393575479 0.35264117592 0.2073636334 -0.90795101565 0.36417753463 0.1058505012 -0.92110063964 0.37465888893 
0.0037103795487 -0.92321159812 0.38427409251 -0.097686723991 -0.91416767185 0.39338883018 -0.097686723991 -0.91416767185 0.39338883018 

FrenetNormal 3 120 double
-0.20669664795 0.067673933648 0.97606184969 -0.20669664795 0.067673933648 0.97606184969 -0.1638168619 0.19304287392 0.96741846405 
-0.1319676911 0.29695246335 0.94572922289 -0.12415504628 0.38240054073 0.91561746976 -0.1930818185 0.46512877084 0.86392976445 
-0.85760637315 0.49792970655 0.12875292644 -0.31759977335 -0.22875296924 -0.92021870391 -0.14851501315 -0.21145094338 -0.96603922768 
-0.0013863182219 -0.048121538141 -0.99884052565 0.18165018064 0.20271303752 -0.96224250389 0.36135880654 0.40053749265 -0.84201516015 
0.56932993267 0.42965430913 -0.70089985191 0.91941408553 0.092314391347 -0.38230327291 0.86141216593 -0.4584221595 0.21867373887 
0.73216076417 -0.5388008504 0.41669444322 0.77893819283 -0.45171435626 0.43498210548 0.88889251333 -0.27707775413 0.36482601047 
0.96939013139 -0.045782409289 0.24121928647 0.97412237581 0.18995641876 0.12248328835 0.91875501384 0.39115662169 0.053718915239 
0.83742289313 0.54473148522 0.044615099265 0.75984345058 0.64321078671 0.094434180646 0.7098509619 0.66922737544 0.21965047656 
0.68328121979 0.56584480005 0.46146119764 0.58767489141 0.26066878034 0.7659569237 0.39020990899 -0.047214181886 0.91951457191 
0.19652966098 -0.16492816342 0.96652718185 -0.0051610389113 -0.13579795106 0.99072310974 -0.25935666313 -0.00027980502354 0.96578157106 
-0.54405328301 0.20694515444 0.81312958887 -0.74555823576 0.4036314819 0.53030608512 -0.8076782195 0.53767559933 0.24199347849 
-0.777010147 0.62906083439 0.02318831797 -0.69870173004 0.70373132251 -0.12875604125 -0.58823581183 0.77486670979 -0.23143079256 
-0.43260482114 0.85223636393 -0.29418743809 -0.19654854099 0.92956098843 -0.31190549824 0.22914299302 0.94407747481 -0.23708903453 
0.85535713333 0.5149791049 0.056220067387 0.90920649379 -0.27292519169 0.3144127723 0.68521133679 -0.64658191186 0.33528682526 
0.50946311115 -0.816792098 0.27073604678 0.38728297885 -0.90691529883 0.16588108703 0.30913923396 -0.9502963724 0.037009980026 
0.26905422027 -0.95748898537 -0.10404167172 0.26598471398 -0.93157149506 -0.24784406696 0.29087954716 -0.87470362113 -0.38766308082 
0.32447539341 -0.79077001324 -0.51903613095 0.34665488598 -0.68749412311 -0.63810831425 0.3393963816 -0.578648888 -0.74160337147 
0.29106206234 -0.48067937236 -0.82718209413 0.18806636727 -0.41025774493 -0.89236742669 -0.0003414516334 -0.38050459741 -0.92477896535 
-0.31212811916 -0.38399914776 -0.86897680737 -0.67300310704 -0.36546853161 -0.64303932253 -0.89036380506 -0.2913866618 -0.34978008515 
-0.96737074282 -0.20368677338 -0.15068358996 -0.99056531399 -0.12795151253 -0.049079213152 -0.99749749534 -0.069989235646 -0.01001267604 
-0.99944264606 -0.032025889483 -0.0094201722593 -0.99882560653 -0.017904525089 -0.045020392353 0.99935401623 -0.00021922692243 -0.035937476107 
0.99919758758 0.031573207412 0.024643732456 0.99593810921 0.078843360314 0.043485712104 0.98787326074 0.14862246051 0.044919761172 
0.96968481759 0.24205098522 0.033506343888 0.93486611261 0.35481961727 0.011330961554 0.87955716814 0.47542249469 -0.018778698303 
0.80740461542 0.58777732406 -0.051142979173 0.72977768525 0.67926081776 -0.077648384176 0.65911557075 0.74678163502 -0.08879106932 
0.60043807741 0.79730672898 -0.0614499399 0.54282397329 0.83812943946 0.053676593875 0.45568551698 0.84605973765 0.2766471217 
0.3660990345 0.82439003154 0.43168573388 0.3163476123 0.83774475922 0.44509314372 0.26969490026 0.87475822211 0.40257013504 
0.20221378439 0.91886639075 0.33881284118 0.10187536577 0.95653757013 0.27323485646 -0.027570826733 0.97742808517 0.20946166196 
-0.16888672426 0.97478380448 0.14585543834 -0.30326645532 0.9485810137 0.090683612161 -0.41905405047 0.9061680655 0.05703630289 
-0.51089197286 0.85823099133 0.04928445577 -0.58409485428 0.80743041675 0.083001947638 -0.654272565 0.72315772367 0.22129237985 
-0.30933573947 -0.29823609853 0.90297653891 0.48170377995 -0.84552287025 0.23033137924 0.54437662425 -0.8372159429 0.052187698949 
0.55918795316 -0.8262420624 -0.068065316817 0.56757221061 -0.79994872759 -0.1947917323 0.59120084974 -0.69102387673 -0.41589368481 
0.36333425933 0.19674126352 -0.91064871999 -0.29089083764 0.88338977175 -0.3674303087 -0.42731410297 0.8869821368 -0.1751152375 
-0.49146908916 0.86173959403 -0.12594842784 -0.53304553508 0.83622165432 -0.1288246963 -0.52666650723 0.82171792731 -0.21772009117 
0.063808135217 0.47840666522 -0.87581709538 0.67105432619 -0.69416500852 -0.26042471512 0.60927607001 -0.78033170241 -0.1409436225 
0.52221341694 -0.84547005541 -0.11168497022 0.39717341745 -0.91183417862 -0.10397935934 0.23372012055 -0.96704585224 -0.1009813097 
0.043821837081 -0.9948423708 -0.091478433833 -0.15215520416 -0.98614492754 -0.066083097166 -0.3351839598 -0.94188763963 -0.022346977729 
-0.49274559483 -0.86965686953 0.029978459816 -0.62181911547 -0.77880650203 0.082470722295 -0.72372268038 -0.67916901429 0.12229035911 
-0.80300043113 -0.57935582635 0.13977529849 -0.86555380213 -0.47960382746 0.14421090217 -0.91441303986 -0.38217083695 0.13339506704 
-0.95167552256 -0.28387985998 0.11715769223 -0.97778412524 -0.18070691825 0.10622247465 -0.99246191738 -0.074457145741 0.097342056694 
-0.99538461191 0.033440481228 0.089951145542 -0.98572700775 0.14333336662 0.08830522186 -0.98572700775 0.14333336662 0.08830522186 

FrenetBinormal 3 120 double
-0.91353277658 0.34386074132 -0.2172962418 -0.91353277658 0.34386074132 -0.2172962418 -0.91246599593 0.34306162817 -0.22296754372 
-0.91080423648 0.34018007857 -0.2339084371 -0.90717231585 0.33011974239 -0.26088186032 -0.89108328033 0.28544759403 -0.35283177093 
-0.29554166626 -0.27224127719 -0.91571819382 0.84179503874 -0.51473245448 -0.16257802145 0.87615265132 -0.48113738878 -0.029382727908 
0.88059080149 -0.47338563419 0.02158429221 0.87675463158 -0.47650786727 0.065127324736 0.85659040385 -0.49932946691 0.13008829119 
0.76940831917 -0.57881049835 0.27016521867 0.31994626653 -0.74086482957 0.59055371546 -0.47550611331 -0.57657715861 0.66441908189 
-0.66907854667 -0.45433755186 0.58814223395 -0.6235661738 -0.48438211039 0.61362789868 -0.45797408162 -0.5572618962 0.69261744103 
-0.21983655276 -0.59935621788 0.76970384835 0.011535967268 -0.58298949513 0.81239779051 0.17824689598 -0.5323214533 0.82756384312 
0.27011062223 -0.48344197609 0.83266085984 0.29179698649 -0.4672401308 0.83459042581 0.23463800678 -0.51871324322 0.82212017192 
0.060973842286 -0.67401573994 0.73619628692 -0.2219023582 -0.85845506739 0.46240051978 -0.41644291667 -0.89974360947 0.13052484197 
-0.47541136822 -0.8781548304 -0.053180116733 -0.48294680897 -0.86719593701 -0.12138198605 -0.4819453784 -0.86655231591 -0.12967550282 
-0.49120431434 -0.86423451555 -0.10870613462 -0.51836943887 -0.85133064583 -0.080803813793 -0.56527934207 -0.82282413774 -0.0584782334 
-0.6293589547 -0.77557746422 -0.04885594264 -0.7034928446 -0.70855811485 -0.055165346681 -0.78264953048 -0.61752179858 -0.078272221883 
-0.8671805501 -0.48260087128 -0.12285883185 -0.94348366873 -0.26588041587 -0.19785391405 -0.93579781306 0.14661985721 -0.32060110813 
-0.45253086065 0.79560442922 -0.40277712493 0.35220550276 0.90690116023 -0.23126082546 0.70543976093 0.70369876243 -0.084633299887 
0.8498769719 0.52689232218 -0.0096754051974 0.91776894188 0.3963685867 0.024333368021 0.95000126 0.31037316176 0.034148300849 
0.96311836555 0.26707599506 0.032763192828 0.96331899616 0.26636746601 0.032632571009 0.95363463162 0.29778569965 0.043642484505 
0.9377435925 0.34080430389 0.067002844549 0.92152563264 0.37652985779 0.094951432766 0.9130916102 0.39208644881 0.11194609432 
0.91792508684 0.38398152751 0.099858507325 0.93563206944 0.35116270224 0.035740553856 0.95115645923 0.28536408506 -0.11776556811 
0.90198074468 0.16745616537 -0.39798136753 0.6889776051 0.0064605991543 -0.72475383429 0.39599688927 -0.11667839464 -0.91080877022 
0.18695662255 -0.17246398225 -0.96711084996 0.073244978567 -0.19162383926 -0.97873156552 0.023623128619 -0.19644865483 -0.98022950058 
0.015547137492 -0.19683286384 -0.98031378152 0.047661765189 -0.19616981889 -0.97941092412 0.035279924628 0.19649415969 0.97987007921 
-0.030362091189 0.19582084678 0.98016954624 -0.058147770327 0.19444752299 0.97918792763 -0.073496561423 0.19278364209 0.97848491189 
-0.081533190607 0.19122895567 0.97815327293 -0.084130062934 0.19042816705 0.97808958981 -0.082459865015 0.19118847213 0.97808350297 
-0.078883713569 0.19344999578 0.97793377018 -0.077270469637 0.19479197691 0.97779617521 -0.082607133844 0.18924563902 0.97844884871 
-0.10837891925 0.15727134499 0.98159041046 -0.18009762083 0.053740205951 0.98217963593 -0.29885980959 -0.14733249677 0.94285521137 
-0.37204000891 -0.29554108905 0.87991005021 -0.38112901803 -0.31741851633 0.86832376284 -0.37191000373 -0.29099950129 0.88147730508 
-0.36125601095 -0.25157644354 0.8978882935 -0.35617378674 -0.22138345875 0.90781583916 -0.35550142561 -0.20542992784 0.91182086022 
-0.35621255765 -0.19834330848 0.91311146403 -0.35556713691 -0.20093926152 0.91279539018 -0.34859411923 -0.21857365996 0.91143167337 
-0.33188170723 -0.24980111261 0.90964495082 -0.29438721468 -0.30602880653 0.90536320745 -0.18642599837 -0.43781042844 0.87952679088 
0.61691486065 -0.78555768798 -0.048116250591 0.48824553944 0.040680845285 -0.87175762804 0.39141188008 0.19849368656 -0.89855272329 
0.32705298918 0.29529513192 -0.89768431385 0.25685849668 0.3968261352 -0.88122229381 0.11381307077 0.58198161332 -0.80519810399 
-0.46563027504 0.88496279429 0.0054129184075 -0.51610678343 0.17848668412 0.83772089128 -0.43230825212 -0.030344357679 0.90121517692 
-0.39892306228 -0.094200892223 0.91213298498 -0.3905275286 -0.10809874367 0.91422257193 -0.43438652536 -0.039994230883 0.89983821217 
-0.68782683815 0.6569440463 0.30873736532 0.10264152136 0.4348563563 -0.89463102309 0.20083449737 0.32380443972 -0.92456270176 
0.23860024957 0.27057677705 -0.93266185117 0.26440517172 0.22218523023 -0.93846876807 0.28324250922 0.16707026847 -0.94438403542 
0.29282281427 0.10033525374 -0.95088781478 0.28833112211 0.01966462741 -0.95732881835 0.26503464488 -0.071502012644 -0.96158416127 
0.22419757319 -0.16016709513 -0.96129181304 0.1712848943 -0.23799724663 -0.95604330215 0.11756968231 -0.29596637351 -0.94793526971 
0.075024224056 -0.33093070313 -0.94066797305 0.039941553067 -0.35314135193 -0.93471699348 0.01650106215 -0.36446765757 -0.93106983709 
-0.0034521454705 -0.37157745692 -0.92839553866 -0.030635403764 -0.37811369043 -0.92525213275 -0.061765799188 -0.38213838476 -0.92203863311 
-0.095894251406 -0.38283427133 -0.91882654143 -0.1371115245 -0.37914774662 -0.91512153077 -0.1371115245 -0.37914774662 -0.91512153077 

plain_curvature_peaks 1 120 unsigned_char
0 0 0 0 0 0 0 0 0 
0 0 0 0 0 0 0 0 0 
0 0 0 1 0 0 0 0 0 
0 0 0 0 0 0 0 0 0 
0 0 0 1 0 0 0 0 0 
0 0 0 0 0 0 0 0 0 
0 0 0 0 0 0 0 0 0 
0 0 0 0 0 1 0 0 0 
0 0 0 0 0 0 0 0 0 
0 0 0 0 0 0 0 0 0 
0 0 0 0 0 0 0 0 0 
0 0 1 0 0 0 0 0 0 
0 0 0 0 0 0 0 0 0 
0 0 0 
weighted_curvature_peaks 1 120 unsigned_char
0 0 0 0 0 0 0 0 0 
0 0 0 0 0 0 0 0 0 
0 0 0 0 0 0 0 0 1 
0 0 0 0 0 0 0 0 0 
0 0 0 0 0 0 0 0 1 
0 0 0 0 0 0 0 0 0 
0 0 0 0 0 0 0 0 0 
0 0 0 0 0 0 0 0 0 
0 1 0 0 0 0 0 0 0 
0 0 0 0 0 0 0 0 0 
0 0 0 0 0 0 0 0 0 
0 0 0 0 0 0 1 0 0 
0 0 0 0 0 0 0 0 0 
0 0 0 
plain_torsion_tp 1 120 unsigned_char
0 0 0 0 0 0 0 0 0 
0 0 0 0 0 0 0 0 0 
0 0 0 1 0 0 0 0 0 
0 0 0 0 0 0 0 0 0 
0 0 0 1 0 0 0 0 0 
0 0 0 0 0 0 0 0 0 
0 0 0 0 0 0 0 0 0 
0 0 0 0 0 1 0 0 0 
0 0 0 0 0 0 0 0 0 
0 0 0 0 0 0 0 0 0 
0 0 0 0 0 0 0 0 0 
0 0 1 0 0 0 0 0 0 
0 0 0 0 0 0 0 0 0 
0 0 0 
plain_torsion_tn 1 120 unsigned_char
0 0 0 0 0 0 0 0 2 
0 0 0 0 0 0 0 0 0 
0 0 0 0 0 0 0 0 0 
0 0 2 0 0 0 0 0 0 
0 0 0 0 0 0 0 2 0 
0 0 0 0 0 0 0 0 0 
0 0 0 0 0 0 0 0 0 
0 0 0 0 0 0 0 0 0 
0 0 0 0 0 0 0 0 0 
0 0 0 0 2 0 0 0 0 
0 0 0 0 0 0 0 0 0 
0 0 0 0 0 0 0 0 0 
0 0 0 0 0 0 0 0 0 
0 0 0 
plain_torsion_tz 1 120 unsigned_char
0 0 0 0 0 0 0 0 0 
0 3 0 0 0 0 0 0 0 
0 0 0 0 0 3 0 0 0 
0 0 0 0 0 0 3 0 0 
0 0 0 0 0 0 0 0 0 
0 0 0 0 3 0 0 0 0 
0 0 0 0 0 0 0 0 0 
0 0 0 0 0 0 0 0 0 
0 0 0 0 0 0 3 0 0 
0 0 0 0 0 0 0 0 0 
0 3 0 0 0 0 0 0 0 
0 0 0 0 0 0 0 0 0 
0 0 0 0 0 0 0 0 0 
0 0 0 
weighted_torsion_tp 1 120 unsigned_char
0 0 0 0 0 0 0 0 0 
0 0 0 0 0 0 0 0 0 
0 0 0 0 0 0 0 0 1 
0 0 0 0 0 0 0 0 0 
0 0 0 0 0 0 0 0 1 
0 0 0 0 0 0 0 0 0 
0 0 0 0 0 0 0 0 0 
0 0 0 0 0 0 0 0 0 
0 1 0 0 0 0 0 0 0 
0 0 0 0 0 0 0 0 0 
0 0 0 0 0 0 0 0 0 
0 0 0 0 0 0 1 0 0 
0 0 0 0 0 0 0 0 0 
0 0 0 
weighted_torsion_tn 1 120 unsigned_char
0 0 0 0 0 0 0 0 0 
0 2 0 0 0 0 0 0 0 
0 0 0 0 0 0 0 0 0 
0 0 0 0 0 2 0 0 0 
0 0 0 0 0 0 0 0 0 
0 0 0 2 0 0 0 0 0 
0 0 0 0 0 0 0 0 0 
0 0 0 0 0 0 0 0 0 
0 0 0 0 0 0 0 0 0 
0 0 0 0 0 0 0 0 0 
2 0 0 0 0 0 0 0 0 
0 0 0 0 0 0 0 0 0 
0 0 0 0 0 0 0 0 0 
0 0 0 
weighted_torsion_tz 1 120 unsigned_char
0 0 0 0 0 0 0 0 0 
0 0 3 0 0 0 0 0 0 
0 0 0 0 0 0 0 0 0 
0 3 0 0 0 0 0 0 0 
0 3 0 0 0 0 0 0 0 
0 0 0 0 0 0 0 0 0 
3 0 0 0 0 0 0 0 0 
0 0 0 0 0 0 0 0 0 
0 0 0 0 0 0 0 0 0 
0 0 3 0 0 0 0 0 0 
0 0 0 0 0 3 0 0 0 
0 0 0 0 0 0 0 0 0 
0 0 0 0 0 0 0 0 0 
0 0 0 
plain_torsion_tp_raw 1 120 unsigned_char
0 0 0 0 0 0 0 0 0 
0 0 0 0 0 0 0 0 0 
0 0 0 0 1 0 0 0 0 
0 0 0 1 0 0 0 0 0 
0 0 0 0 0 0 0 0 0 
0 1 0 0 0 0 0 0 0 
0 0 0 0 0 0 0 0 0 
0 0 0 0 0 0 0 0 0 
1 0 0 0 0 0 0 0 0 
0 0 0 0 0 0 0 0 0 
0 0 0 0 0 1 0 0 0 
0 0 0 1 0 0 0 0 0 
0 0 0 0 0 0 0 0 0 
0 0 0 
plain_torsion_tn_raw 1 120 unsigned_char
0 0 0 0 0 0 0 0 0 
0 0 0 0 0 0 0 0 0 
0 2 0 0 0 0 2 0 0 
0 0 0 0 0 0 0 0 0 
0 0 0 0 0 2 0 0 0 
0 0 0 0 0 0 0 0 0 
0 0 2 0 0 0 0 0 0 
0 0 0 0 0 0 0 0 0 
0 0 0 0 0 0 0 0 0 
0 0 0 0 0 2 0 0 0 
0 0 0 0 0 0 0 0 0 
2 0 0 0 0 0 0 0 0 
0 0 0 0 0 0 0 0 0 
0 0 0 
plain_torsion_tz_raw 1 120 unsigned_char
0 0 0 0 0 0 0 0 3 
0 0 0 0 0 0 0 0 0 
0 0 0 0 3 3 0 0 0 
3 0 0 0 0 0 0 0 0 
0 0 0 0 0 0 0 0 0 
0 0 0 0 0 0 0 0 0 
0 0 0 0 0 0 0 0 0 
0 0 0 0 0 0 0 0 0 
0 0 0 0 0 0 0 0 0 
0 0 0 0 0 0 0 0 0 
0 0 0 0 0 0 0 0 0 
0 0 0 0 0 0 0 0 0 
0 0 0 0 0 0 0 0 0 
0 0 0 
weighted_torsion_tp_raw 1 120 unsigned_char
0 0 0 0 0 0 0 0 0 
0 0 0 0 0 0 0 0 0 
0 0 0 0 0 0 0 0 0 
1 0 0 0 0 0 0 1 0 
0 0 0 0 0 0 0 0 0 
0 0 0 0 0 0 1 0 0 
0 0 0 0 0 0 0 0 0 
0 0 0 0 0 0 0 0 0 
0 0 0 0 0 1 0 0 0 
0 0 0 0 0 0 0 0 0 
0 0 0 0 0 0 0 0 0 
1 0 0 0 0 0 0 1 0 
0 0 0 0 0 0 0 0 0 
0 0 0 
weighted_torsion_tn_raw 1 120 unsigned_char
0 0 0 0 0 0 0 0 0 
0 0 0 0 0 0 0 0 0 
0 0 0 0 0 2 0 0 0 
0 0 2 0 0 0 0 0 0 
0 0 0 0 0 0 0 0 0 
2 0 0 0 0 0 0 0 0 
0 0 0 0 0 0 0 0 2 
0 0 0 0 0 0 0 0 0 
0 0 0 0 0 0 0 0 0 
0 0 0 0 0 0 0 0 0 
0 0 2 0 0 0 0 0 0 
0 0 0 0 2 0 0 0 0 
0 0 0 0 0 0 0 0 0 
0 0 0 
weighted_torsion_tz_raw 1 120 unsigned_char
0 0 0 0 0 0 0 0 0 
0 3 0 0 0 0 0 0 0 
0 0 0 0 0 0 0 0 3 
3 0 0 0 3 0 0 0 0 
0 0 0 0 0 0 0 0 0 
0 0 0 0 0 0 0 0 0 
0 0 0 0 0 0 0 0 0 
0 0 0 0 0 0 0 0 0 
0 0 0 0 0 0 0 0 0 
0 0 0 0 0 0 0 0 0 
0 0 0 0 0 0 0 0 0 
0 0 0 0 0 0 0 0 0 
0 0 0 0 0 0 0 0 0 
0 0 0 
