# vtk DataFile Version 5.1
vtk output
ASCII
DATASET POLYDATA
POINTS 120 float
-13.8011 27.4114 -22.2274 -14.3505 27.3034 -22.0274 -14.8747 27.1467 -21.7946 
-15.3702 26.9474 -21.5334 -15.8371 26.7136 -21.2487 -16.2783 26.4545 -20.9455 
-16.699 26.1789 -20.628 -17.1055 25.8943 -20.3001 -17.5042 25.6069 -19.965 
-17.9016 25.3218 -19.6264 -18.3039 25.0427 -19.2887 -18.7177 24.7729 -18.9574 
-19.1501 24.5152 -18.6405 -19.608 24.2709 -18.3503 -20.0985 24.038 -18.1083 
-20.6244 23.8101 -17.953 -21.1674 23.5743 -17.9527 -21.6494 23.32 -18.1786 
-21.9774 23.0533 -18.5924 -22.1538 22.7811 -19.0894 -22.2211 22.5032 -19.6104 
-22.2106 22.2181 -20.132 -22.1403 21.9248 -20.6444 -22.0206 21.6225 -21.1423 
-21.8576 21.3106 -21.6217 -21.655 20.9885 -22.0786 -21.4149 20.6557 -22.509 
-21.1385 20.3116 -22.9075 -20.8264 19.9555 -23.2671 -20.4792 19.5868 -23.5787 
-20.0975 19.2057 -23.8284 -19.6832 18.8139 -23.995 -19.2432 18.4187 -24.0416 
-18.8039 18.048 -23.9043 -18.4481 17.7804 -23.5212 -18.2666 17.6926 -22.967 
-18.2298 17.749 -22.3777 -18.2727 17.8889 -21.8017 -18.3552 18.0768 -21.2435 
-18.4552 18.2929 -20.6985 -18.5589 18.5241 -20.1603 -18.6569 18.76 -19.6231 
-18.7423 18.9902 -19.0814 -18.8094 19.2041 -18.5305 -18.8535 19.3894 -17.9671 
-18.8708 19.5317 -17.3901 -18.8594 19.6155 -16.8017 -18.8197 19.6253 -16.2088 
-18.7547 19.5481 -15.6232 -18.67 19.3777 -15.0604 -18.5729 19.1155 -14.5362 
-18.4704 18.7701 -14.0637 -18.3685 18.3534 -13.6524 -18.2711 17.8788 -13.3082 
-18.1805 17.3596 -13.0335 -18.0976 16.8081 -12.8278 -18.0224 16.2349 -12.6892 
-17.9546 15.649 -12.6137 -17.8939 15.0578 -12.5961 -17.8405 14.4665 -12.6297 
-17.7945 13.8786 -12.7068 -17.7566 13.2957 -12.8188 -17.7278 12.7178 -12.9568 
-17.7093 12.1438 -13.1114 -17.7024 11.5714 -13.2731 -17.7084 10.9981 -13.4315 
-17.7283 10.4214 -13.5758 -17.7618 9.83963 -13.6947 -17.8075 9.2525 -13.7776 
-17.8615 8.66152 -13.8156 -17.9179 8.06968 -13.8033 -17.9686 7.48068 -13.7392 
-18.0044 6.89805 -13.6258 -18.0155 6.32484 -13.468 -17.992 5.76382 -13.2724 
-17.9237 5.21826 -13.046 -17.8008 4.69274 -12.7967 -17.6141 4.194 -12.5326 
-17.3568 3.73123 -12.2626 -17.0264 3.31541 -11.996 -16.6263 2.95734 -11.7414 
-16.1659 2.66491 -11.5054 -15.6586 2.44082 -11.2917 -15.1185 2.28253 -11.1004 
-14.5576 2.18389 -10.9297 -13.9851 2.13642 -10.7758 -13.4074 2.13163 -10.6348 
-12.8283 2.16134 -10.5022 -12.2504 2.21819 -10.3739 -11.6748 2.2958 -10.2454 
-11.1025 2.38861 -10.1123 -10.5342 2.49166 -9.97008 -9.97082 2.60063 -9.81362 
-9.41369 2.71167 -9.63737 -8.86515 2.8213 -9.43531 -8.32866 2.92652 -9.20119 
-7.80905 3.02485 -8.92917 -7.31203 3.11474 -8.61532 -6.8425 3.19579 -8.25954 
-6.40261 3.26863 -7.86604 -5.9905 3.33428 -7.44229 -5.6 3.39332 -6.99754 
-5.22174 3.44517 -6.54142 -4.84517 3.4879 -6.08296 -4.46046 3.51808 -5.63033 
-4.06031 3.53066 -5.19048 -3.64124 3.51965 -4.76863 -3.20396 3.47908 -4.36761 
-2.75296 3.40364 -3.98737 -2.29549 3.2888 -3.62516 -1.84067 3.13084 -3.27612 
-1.39934 2.92639 -2.93402 -0.984482 2.67251 -2.59204 -0.611677 2.36736 -2.24378 
-0.298893 2.01177 -1.8847 -0.0637048 1.6116 -1.51374 0.0812973 1.1783 -1.13395 
0.133068 0.726741 -0.751172 0.0982807 0.270902 -0.371358 -0.0104713 -0.179286 0.00138383 

LINES 2 120
OFFSETS vtktypeint64
0 120 
CONNECTIVITY vtktypeint64
0 1 2 3 4 5 6 7 8 
9 10 11 12 13 14 15 16 17 
18 19 20 21 22 23 24 25 26 
27 28 29 30 31 32 33 34 35 
36 37 38 39 40 41 42 43 44 
45 46 47 48 49 50 51 52 53 
54 55 56 57 58 59 60 61 62 
63 64 65 66 67 68 69 70 71 
72 73 74 75 76 77 78 79 80 
81 82 83 84 85 86 87 88 89 
90 91 92 93 94 95 96 97 98 
99 100 101 102 103 104 105 106 107 
108 109 110 111 112 113 114 115 116 
117 118 119 
CELL_DATA 1
FIELD FieldData 2
Length 1 1 double
70.72652258 
Tortuosity 1 1 double
0.86022935698 
POINT_DATA 120
FIELD FieldData 19
Curvature 1 120 double
0 0.18112608229 0.16659182847 0.14341813563 0.11456520708 0.084708452641 0.056112801086 0.030871227157 0.012281671073 
0.022284544647 0.045388317404 0.074609335946 0.1115388127 0.16808926634 0.26719693 0.45203608908 0.70055523875 0.72796619911 
0.50356357951 0.31985306003 0.22203913053 0.17336023013 0.1479575365 0.13623875653 0.13206684465 0.13363056123 0.14064127119 
0.15321252797 0.17258252342 0.20435950252 0.25590825139 0.35213983672 0.54247991565 0.85265684378 0.93765218406 0.61142978324 
0.33262804029 0.1836020075 0.10109369012 0.048295849911 0.020691190741 0.041060196894 0.074047508591 0.10995174492 0.14842420038 
0.18775513846 0.22582924012 0.25897407579 0.2789302048 0.28669735722 0.27965987843 0.26778222093 0.25275215847 0.23559063626 
0.21763089882 0.20160345528 0.18374794222 0.1661628015 0.14656346693 0.12515149624 0.10245041724 0.079144656683 0.056501589126 
0.038703491373 0.037766350742 0.056677104088 0.082783194916 0.10861460068 0.12967556095 0.14288800831 0.14755383091 0.14735066983 
0.14619837281 0.14955136646 0.15995246195 0.17762058852 0.2007189248 0.2258615409 0.24758338085 0.26007196797 0.25937606082 
0.24416194001 0.21867127223 0.18846621072 0.15618974842 0.12705321275 0.10061162327 0.077742894378 0.05907708839 0.045815619508 
0.040462880262 0.045681798503 0.058998700969 0.077057025926 0.09768841981 0.11904865316 0.13677658077 0.14423604851 0.13788415455 
0.11800099678 0.087277297229 0.051455317948 0.027005069067 0.045371386998 0.075422359504 0.099619201145 0.11457721119 0.12131358238 
0.12406470953 0.12786287292 0.13852508071 0.15894537675 0.18906313314 0.22499411552 0.25712194901 0.27511127573 0.27094892744 
0.24683604388 0.21172267447 0 
Torsion 1 120 double
0 0 0.029205275279 0.051059344902 0.085080372138 0.13856142844 0.25005789789 0.61966004414 3.1865185779 
1.0652144061 0.39036999329 0.31923322242 0.35895077786 0.39420492815 0.39387169164 0.32547438333 0.23910445809 0.22387284143 
0.26440094696 0.27145140079 0.23528188277 0.19435699432 0.1624493722 0.13612938996 0.11774917509 0.10590806975 0.0984312378 
0.094070814483 0.090740811583 0.084141759814 0.073851846953 0.054371769852 0.021577117021 -0.0092392038451 -0.030885689357 -0.069082376398 
-0.12638550599 -0.19277937439 -0.32069650311 -0.82209111797 -3.2997135244 -0.83204284169 -0.31971063061 -0.20416998603 -0.16255686812 
-0.14155930779 -0.12600930909 -0.11069386201 -0.096396812392 -0.079747605703 -0.063341356646 -0.04464298114 -0.023931975367 -0.0040034618794 
0.0095082248869 0.014518584174 0.011152819202 -0.0013309327316 -0.02317667681 -0.058166498361 -0.1176765679 -0.23414628361 -0.50818417579 
-1.1559913615 -1.2876812418 -0.62077599085 -0.33370602668 -0.23713510462 -0.21275209036 -0.22694447949 -0.266521109 -0.31435632555 
-0.35520837546 -0.36131085186 -0.32094081608 -0.25198003809 -0.18073767978 -0.11839555722 -0.067868547256 -0.030157557889 -0.0030864697384 
0.017587380546 0.034531727251 0.049515307308 0.067485181709 0.093405116107 0.13872619454 0.22162907701 0.37675725472 0.62421652499 
0.79123972533 0.60256654691 0.3357600962 0.16634716588 0.071170001257 0.015956014029 -0.013659577663 -0.024545153521 -0.018608579879 
0.016552386613 0.13335760009 0.60182452046 2.381018549 0.66147063114 0.076395076015 -0.090782563955 -0.18788335226 -0.27657095838 
-0.35863990871 -0.4166627978 -0.41831982493 -0.36090641169 -0.27754503422 -0.20015742668 -0.14298373184 -0.10447208292 -0.079866793273 
-0.063492415392 0 0 
FrenetTangent 3 120 double
-0.90415160392 -0.22290912222 0.36444670441 -0.90415160392 -0.22290912222 0.36444670441 -0.8585750712 -0.29969901727 0.4159679629 
-0.80994979635 -0.36451220109 0.45946945779 -0.76387960796 -0.41462271916 0.49454620138 -0.72484489967 -0.44966739793 0.52191867439 
-0.69548418732 -0.47102825203 0.54261784985 -0.67686251932 -0.48080707227 0.55738827508 -0.6691555313 -0.48120319455 0.56628116734 
-0.67224185262 -0.47424279864 0.56849332408 -0.68612342769 -0.46145100038 0.56240342836 -0.71145935284 -0.44355767993 0.54505245052 
-0.74890150007 -0.42230289939 0.51069247534 -0.79862518057 -0.40179624408 0.44805981654 -0.8580287315 -0.38897611645 0.33538675697 
-0.90931276418 -0.3944995388 0.13236468861 -0.88490665668 -0.42309108098 -0.1947669021 -0.70056914818 -0.45064704531 -0.5532812207 
-0.43020784889 -0.45970445021 -0.77691249521 -0.20607805452 -0.46521042494 -0.86087809589 -0.047912755835 -0.47459950786 -0.87889685115 
0.068041764596 -0.48703088579 -0.87073028807 0.15992443481 -0.5013009763 -0.85036551336 0.23786964066 -0.51685683262 -0.82236065605 
0.30766297764 -0.53346545535 -0.7878820344 0.37254475102 -0.5510515311 -0.74669446132 0.43464883911 -0.56968957931 -0.69752001397 
0.49531223419 -0.58945512954 -0.63812885918 0.55510866453 -0.61026667263 -0.56518046573 0.61421378968 -0.63173405481 -0.47292018837 
0.67170071716 -0.65223248405 -0.35129892302 0.72341204662 -0.66638561292 -0.1805691715 0.7517869817 -0.65483107795 0.077540914935 
0.69453056599 -0.55760385116 0.4546484775 0.47243028584 -0.31244966015 0.82412671046 0.18740912109 -0.026957811644 0.98191196027 
-0.0051808282433 0.16611736665 0.98609237879 -0.10559215321 0.27606003795 0.95532253853 -0.15346254385 0.33975480052 0.92790943694 
-0.17122153871 0.37610371182 0.91062021866 -0.16958703656 0.39263327878 0.90392441356 -0.15422587598 0.39180924651 0.90702805554 
-0.12825504386 0.37347605749 0.91873079746 -0.093510176285 0.3357721753 0.93729018624 -0.051642711605 0.27572799688 0.95984743687 
-0.0050029579544 0.19049477349 0.98167546149 0.043067309119 0.078887050386 0.99595283029 0.088423788968 -0.056953888502 0.99445336146 
0.12642346411 -0.20906086355 0.96969617049 0.15351771159 -0.36536110254 0.91811958752 0.16851099422 -0.51309476574 0.8416280688 
0.17254808802 -0.64323038237 0.74597709919 0.16820269642 -0.75196527976 0.63738220163 0.15850678056 -0.83811360972 0.52195898087 
0.14624898493 -0.90254077257 0.40500788665 0.13325474428 -0.94766964698 0.29011275966 0.12045834863 -0.97620596592 0.18031000625 
0.10813029753 -0.9910421031 0.07837977191 0.096018005406 -0.99528803691 -0.01350060063 0.083674997289 -0.99213092203 -0.093138221926 
0.070550665318 -0.98475185598 -0.1590169355 0.056088687042 -0.97604836793 -0.21019905483 0.039799004602 -0.96843923818 -0.24605178557 
0.021347777283 -0.96375016754 -0.26595091083 0.00069266951399 -0.96311767586 -0.26907965856 -0.021765294872 -0.96683819525 -0.25446055912 
-0.044916095465 -0.97416874476 -0.22130928833 -0.066649183075 -0.98323027309 -0.16975310444 -0.083864846102 -0.99126925693 -0.10174452252 
-0.092886173935 -0.99544198894 -0.021619559563 -0.090116154378 -0.99385463554 0.064280962514 -0.072810372393 -0.98609686648 0.14937074545 
-0.039514154962 -0.97279467082 0.22827430863 0.01040452761 -0.95466678065 0.2974946785 0.077281984765 -0.93157066063 0.35525145895 
0.16106198457 -0.90200140487 0.40056522908 0.26090143199 -0.86300598204 0.43260965979 0.37429569132 -0.81063998714 0.45029495523 
0.49576020293 -0.74117164832 0.45264379917 0.61646898571 -0.65308528199 0.43982451512 0.72614192841 -0.54893958422 0.41398458024 
0.8162370955 -0.43569143481 0.37938104534 0.88291499018 -0.3223219475 0.34142302541 0.92746369147 -0.21641134095 0.3049216826 
0.95405257452 -0.12298963969 0.27323475909 0.96773610001 -0.043974929074 0.24809886405 0.97294248835 0.020953036769 0.23009538155 
0.97291683596 0.072789693919 0.21939574008 0.96983407129 0.11305131973 0.21596590764 0.96494830202 0.14326894417 0.21988356933 
0.95881867369 0.16465044717 0.23142381301 0.95140730481 0.17823969752 0.25110705003 0.94209502959 0.18496722831 0.27972143228 
0.92971762082 0.18555411465 0.31811132655 0.91256069501 0.18070143109 0.36685142867 0.88846848591 0.17123882782 0.42579456713 
0.85549058427 0.15838459177 0.49300119809 0.81345097652 0.14386498419 0.56356044496 0.7652842996 0.1295016069 0.63053094658 
0.71675564035 0.1165030329 0.68752337804 0.67496063962 0.10486173092 0.73036439696 0.64629603931 0.093222111893 0.75737115566 
0.63451702642 0.079498210742 0.76880958479 0.63999412824 0.061296413751 0.76593097958 0.65994904212 0.035960679278 0.75044925968 
0.68901639655 0.0013194550066 0.72474455109 0.72038741419 -0.043389788313 0.69221333398 0.74730685357 -0.097594606558 0.65727297174 
0.76432283419 -0.16009389278 0.62464433931 0.76758754508 -0.2295326938 0.59843471082 0.75413082145 -0.30497260782 0.58161706699 
0.72076210162 -0.38583083358 0.57587894625 0.66348368777 -0.47089933373 0.58141483774 0.57799698386 -0.55705146905 0.59633308434 
0.46239370341 -0.63772725793 0.61603247279 0.32099323828 -0.70369782325 0.63385543661 0.16611342772 -0.74698989435 0.64374872961 
0.014327022697 -0.76546871367 0.64331359756 -0.12097471247 -0.7636004045 0.63425510734 -0.12097471247 -0.7636004045 0.63425510734 

FrenetNormal 3 120 double
0.39499498245 -0.76118542974 0.5143692306 0.39499498245 -0.76118542974 0.5143692306 0.48807283892 -0.72617701769 0.48420227476 
0.56847539512 -0.68064019747 0.46213055162 0.63424762974 -0.62390561308 0.45658704552 0.68483279205 -0.55264295752 0.4749629548 
0.71852666249 -0.45106731322 0.52939372327 0.71521069378 -0.25040750242 0.65251034186 0.30576369244 0.51624807789 0.79999780403 
-0.63265831696 0.76680072934 -0.10844397388 -0.71434868249 0.57360625675 -0.40085137151 -0.70264632048 0.46078870809 -0.5421825475 
-0.6527010563 0.33681648346 -0.67862801856 -0.55213364468 0.19291652306 -0.81112986232 -0.38304829627 0.049637535269 -0.92239368917 
-0.12042976241 -0.054984320909 -0.99119796044 0.25167605815 -0.082483417756 -0.96429022993 0.63794368722 -0.048116857093 -0.76857831091 
0.88104789138 -0.026327163219 -0.47229386358 0.97695816954 -0.047881871822 -0.20799053181 0.99591582932 -0.090110672157 -0.0056327330071 
0.97931370146 -0.13409856053 0.15153300036 0.9448476924 -0.17168473655 0.27890354855 0.90059130847 -0.19975797896 0.38604668753 
0.85007764805 -0.21788099037 0.47947457318 0.79392376481 -0.22736931891 0.56390446751 0.73120874271 -0.2289091058 0.64259971667 
0.66011807776 -0.22212997138 0.71756699982 0.57795341037 -0.20566753007 0.78972825866 0.48139616762 -0.1749127417 0.85887325176 
0.36457112039 -0.12177980693 0.92317797678 0.21474506114 -0.03138762012 0.97616564989 0.0050446169811 0.12330006884 0.99235661174 
-0.28943459872 0.36199046862 0.8861097639 -0.57865631527 0.59534304006 0.55742580982 -0.70145064724 0.69610397537 0.15299099636 
-0.68552058524 0.71733885631 -0.12444473647 -0.6118096307 0.7393107321 -0.28126254137 -0.48859953192 0.7901196158 -0.37011010544 
-0.21844953359 0.88677141687 -0.40732819137 0.77303966588 0.62190000262 -0.12510020675 0.86919164801 -0.38270995592 0.3131117511 
0.69867563704 -0.62343590587 0.3509701205 0.59356444825 -0.73701701702 0.32324474072 0.5104574154 -0.81880104577 0.26267484561 
0.43343037849 -0.8842686424 0.17380182697 0.35696781514 -0.93228882546 0.058408260451 0.2789932474 -0.95698702227 -0.079615369874 
0.20031279592 -0.95202132288 -0.23136591055 0.12401067018 -0.91466417489 -0.38472171871 0.054319990634 -0.84770676834 -0.52767658043 
-0.0051919253952 -0.757919719 -0.65232717517 -0.051744363209 -0.65243848154 -0.75607311068 -0.082485769973 -0.53803450924 -0.83887720473 
-0.099816185281 -0.4207837669 -0.90165278831 -0.10884018031 -0.30494576285 -0.94612995771 -0.11455254098 -0.19408808692 -0.97427282107 
-0.12261014279 -0.091534659863 -0.98822475122 -0.13863322183 5.9229666401e-05 -0.99034379197 -0.1689973967 0.077983578956 -0.98252656011 
-0.22403378791 0.13969895625 -0.96451701048 -0.32417778257 0.18132090665 -0.92845651169 -0.51515159947 0.19111054395 -0.83552114848 
-0.85089086256 0.12214941668 -0.51094447841 -0.96706253519 -0.069136169557 0.244969882 -0.68804306162 -0.17017305065 0.70543453147 
-0.46928718784 -0.17499219842 0.86553293746 -0.31507860791 -0.14068644445 0.93858020179 -0.18239054813 -0.085109299459 0.9795356528 
-0.046631482882 -0.017340404508 0.99876164082 0.1084909036 0.054363216947 0.99260987527 0.28674604959 0.12274718721 0.95011043099 
0.47769708983 0.18226395024 0.85940988056 0.65679401717 0.23085930018 0.71786182691 0.79362792124 0.27315297811 0.5436379063 
0.87339805229 0.3192687443 0.36775441694 0.90181842071 0.37778625651 0.20976434505 0.88900109203 0.45181690586 0.074421381015 
0.84133540518 0.53912650171 -0.038695621835 0.76348874405 0.63236680929 -0.13113792818 0.66185867262 0.72113965821 -0.20469658236 
0.54575428922 0.79691797723 -0.25898647331 0.4259180892 0.85585196536 -0.29344709009 0.31133903431 0.89857640282 -0.30923850666 
0.20770128435 0.92870329671 -0.30719759629 0.11651416928 0.95115378072 -0.28588622523 0.035631340986 0.97035874138 -0.23902786566 
-0.039629366018 0.98759782296 -0.15192120795 -0.117105716 0.9931011638 0.006027414903 -0.20324360729 0.93801651498 0.28074375098 
-0.27764017765 0.71507807738 0.64154444508 -0.30103342705 0.36667216787 0.88030131041 -0.30103230267 0.098899664219 0.94847161748 
-0.3141845022 -0.051002832746 0.94799093331 -0.3480239485 -0.1278895591 0.92872148244 -0.40055304008 -0.16352612516 0.9015633469 
-0.46712792266 -0.17477746626 0.86674352675 -0.539943427 -0.17344146097 0.82363775731 -0.6095556994 -0.16896066742 0.7745283353 
-0.66710850831 -0.17252524041 0.7247077201 -0.70181827175 -0.21432075376 0.6793509608 -0.67391488225 -0.39586181944 0.62380457788 
-0.17601585678 -0.95369691593 0.24388647093 0.50796178014 -0.78167400852 -0.36188475282 0.57962913159 -0.6598807761 -0.47810817933 
0.53844380083 -0.67028703492 -0.51067951219 0.45013339283 -0.73004269949 -0.51421550499 0.32012586177 -0.81391568824 -0.48483057356 
0.14791748015 -0.89933159383 -0.41148888613 -0.058454191799 -0.9548554948 -0.29126292506 -0.27535870739 -0.95086269734 -0.14155462927 
-0.47107436849 -0.88209238802 -0.0013994078464 -0.63025021078 -0.77054127242 0.095135794074 -0.7573836319 -0.63824390366 0.13789399395 
-0.85887293335 -0.4947563143 0.13248952344 -0.93458779669 -0.34370810829 0.091708159817 -0.98101086777 -0.19146407839 0.030970695967 
-0.99821790487 -0.048223654345 -0.035149588267 -0.99235639157 0.077345207595 -0.096158780002 -0.99235639157 0.077345207595 -0.096158780002 

FrenetBinormal 3 120 double
0.16275392762 0.60902238447 0.776275012 0.16275392762 0.60902238447 0.776275012 0.15695142885 0.61874666708 0.76975243485 
0.14428115792 0.63549962773 0.75850060687 0.11923878862 0.66244228935 0.73956225199 0.074859323798 0.70170149832 0.70852740871 
-0.0046022244738 0.75807035606 0.65215654163 -0.17415738125 0.8403098488 0.51336981268 -0.67730306312 0.70847117629 -0.19831579127 
-0.38449232186 -0.43256260752 -0.8155091937 -0.13762485894 -0.67678566509 -0.72320160518 -0.010664781649 -0.76871994319 -0.63949660778 
0.11457693617 -0.84155505918 -0.52787991822 0.23947079021 -0.8951776323 -0.37591321772 0.34214134308 -0.91990961291 -0.19158707012 
0.39830512077 -0.91724960525 0.0024884591035 0.39191755601 -0.90232500962 0.17947202094 0.31973539147 -0.89140451458 0.32119662331 
0.19666168883 -0.88768164278 0.41634778877 0.055538909045 -0.88390417291 0.46435852819 -0.076524693701 -0.87557716616 0.4769786131 
-0.19056492963 -0.86302867412 0.4678317168 -0.28580940032 -0.84806938536 0.4461964862 -0.36380397079 -0.83243964611 0.41796041251 
-0.42744763946 -0.81727748163 0.38645314533 -0.48051583132 -0.80289812734 0.35278765987 -0.52575104493 -0.78933795329 0.31706692392 
-0.56472109406 -0.77666010974 0.27908629463 -0.59818410712 -0.76503297665 0.23853787673 -0.62529924865 -0.75519376109 0.196680535 
-0.64490778003 -0.74817275102 0.15598554381 -0.65617038147 -0.7449463284 0.12039683668 -0.65938674993 -0.7456496177 0.095998758573 
-0.65867663233 -0.74702131549 0.090023598148 -0.66480560603 -0.74023096026 0.10045711354 -0.68763712147 -0.71743468822 0.11154665978 
-0.72803481114 -0.67663135142 0.110160465 -0.7839255532 -0.61417464686 0.090830777778 -0.85890613285 -0.51017415483 0.044750270309 
-0.96070962624 -0.26866792174 -0.069674686053 -0.61126909951 0.6775540533 -0.40898727712 0.46980874642 0.83667114447 -0.28153354648 
0.70384870387 0.68690851338 -0.18097982294 0.79933540689 0.58656880493 -0.13038383478 0.8583508941 0.5035264831 -0.098462294373 
0.90117316727 0.42635749006 -0.078142262938 0.93312334975 0.3530076192 -0.068311309053 0.95621336607 0.28448566537 -0.068730668197 
0.97154098808 0.223492631 -0.078480267451 0.98033344629 0.17291822321 -0.09510847582 0.98420190177 0.13463653401 -0.11497660747 
0.98498741171 0.10868474939 -0.13411720254 0.98439340398 0.094192599764 -0.1486518764 0.98390634629 0.089913536573 -0.15441456431 
0.98419914832 0.091439462799 -0.15162737577 0.98508729982 0.094500380502 -0.1437800049 0.98608696452 0.096704325759 -0.13520640435 
0.98654680155 0.097246881349 -0.13140948378 0.98567812822 0.096962467333 -0.13797430009 0.98205823388 0.097953024293 -0.16114226725 
0.9720244161 0.1036724832 -0.21076183414 0.94433194612 0.12021777021 -0.30624314401 0.8561745551 0.16000688093 -0.49128701312 
0.5249085753 0.23720272884 -0.81743859281 -0.2545379603 0.26004717361 -0.93144290983 -0.72534337889 0.19043381275 -0.66152244532 
-0.88190253413 0.14273397361 -0.44930494442 -0.94672242882 0.11604117553 -0.30041818911 -0.97964298371 0.100705846 -0.17366046482 
-0.99458416612 0.093779299611 -0.044808252238 -0.99000444573 0.096424084464 0.10292518341 -0.95523575766 0.11200936548 0.27382211256 
-0.87763552909 0.14300482811 0.45749917728 -0.75399825253 0.18792371178 0.62942141188 -0.60347511751 0.23992406049 0.76043029118 
-0.45960295842 0.29062163466 0.83922832774 -0.3444618685 0.33540754218 0.8768396671 -0.26377982074 0.37245710468 0.88977295494 
-0.21535217015 0.40000900351 0.89085141293 -0.19248617447 0.41664353223 0.88845778723 -0.18617464189 0.42263805582 0.88697016663 
-0.1894973871 0.41844319949 0.88825448441 -0.19762312975 0.40450707725 0.89292727758 -0.20707270879 0.38174150913 0.90077428553 
-0.21597189986 0.34983386802 0.91157687731 -0.22340834605 0.30556945369 0.9255895526 -0.2282834245 0.2407589734 0.94335666364 
-0.22773305349 0.13911218687 0.96373515854 -0.21379458701 -0.031136434581 0.97638230064 -0.16603255862 -0.31559313562 0.93425594043 
-0.059855515511 -0.6793773425 0.73134379313 0.064830672894 -0.91311671299 0.40251068597 0.14777181048 -0.9777555834 0.14885399274 
0.19212819711 -0.98130952384 0.010879994827 0.21473776843 -0.97518780421 -0.053818559391 0.22401118641 -0.97156393008 -0.076697575762 
0.22344431992 -0.97178555164 -0.07553461139 0.21623737985 -0.97427969595 -0.063407173204 0.20683759358 -0.97707810674 -0.050364503463 
0.20304578344 -0.97809104113 -0.045938274673 0.22777016573 -0.97111823786 -0.07106419427 0.35796670383 -0.91356612118 -0.19302015746 
0.75259986802 -0.29007279609 -0.59114398553 0.57652610152 0.62066778075 -0.5314030111 0.478013945 0.75050928767 -0.4563315434 
0.48511305758 0.742100768 -0.46254920982 0.52765699287 0.68202271457 -0.50638237991 0.58228163223 0.57272728694 -0.57700221452 
0.62763924686 0.40690616835 -0.66369898746 0.6382730357 0.18858877625 -0.74635233327 0.59620825758 -0.053402614912 -0.80105173011 
0.5085183696 -0.27027317079 -0.81753377969 0.40320474683 -0.42955787153 -0.80802596935 0.30379190373 -0.53135522983 -0.79080471607 
0.22029377524 -0.59035593835 -0.77649888515 0.15332642061 -0.62183125512 -0.76799537687 0.10011996032 -0.63666914833 -0.76460995881 
0.057928842681 -0.64166356259 -0.764795477 0.02437029036 -0.64103989042 -0.76712055626 0.02437029036 -0.64103989042 -0.76712055626 

plain_curvature_peaks 1 120 unsigned_char
0 0 0 0 0 0 0 0 0 
0 0 0 0 0 0 0 0 0 
0 0 0 0 0 1 0 0 0 
0 0 0 0 0 0 0 0 0 
0 0 0 0 0 0 0 0 0 
0 0 0 0 0 0 0 0 0 
0 0 0 0 0 0 0 0 0 
0 0 0 0 0 0 1 0 0 
0 0 0 0 0 0 0 0 0 
0 0 0 0 0 0 0 0 0 
0 0 0 0 0 0 0 0 0 
0 0 1 0 0 0 0 0 0 
0 0 0 0 0 0 0 1 0 
0 0 0 
weighted_curvature_peaks 1 120 unsigned_char
0 0 0 0 0 0 0 0 0 
0 0 0 0 0 0 0 0 0 
0 0 0 0 0 0 0 0 0 
1 0 0 0 0 0 0 0 0 
0 0 0 0 0 0 0 0 0 
0 0 0 0 0 0 0 0 0 
0 0 0 0 0 0 0 0 0 
0 0 0 0 0 0 0 0 0 
0 0 0 1 0 0 0 0 0 
0 0 0 0 0 0 0 0 0 
0 0 0 0 0 0 0 0 0 
0 0 0 0 0 0 1 0 0 
0 0 0 0 0 0 0 0 0 
1 0 0 
plain_torsion_tp 1 120 unsigned_char
0 0 0 0 0 0 0 0 0 
0 0 0 0 0 0 0 0 0 
0 0 0 0 0 1 0 0 0 
0 0 0 0 0 0 0 0 0 
0 0 0 0 0 0 0 0 0 
0 0 0 0 0 0 0 0 0 
0 0 0 0 0 0 0 0 0 
0 0 0 0 0 0 1 0 0 
0 0 0 0 0 0 0 0 0 
0 0 0 0 0 0 0 0 0 
0 0 0 0 0 0 0 0 0 
0 0 1 0 0 0 0 0 0 
0 0 0 0 0 0 0 1 0 
0 0 0 
plain_torsion_tn 1 120 unsigned_char
0 0 0 0 0 0 0 0 2 
0 0 0 0 0 0 0 0 0 
0 0 0 0 0 0 0 0 0 
0 0 0 0 0 0 0 0 0 
0 0 0 0 0 0 0 0 0 
0 0 0 0 0 0 2 0 0 
0 0 0 0 0 0 0 0 0 
0 0 0 0 0 0 0 0 0 
0 0 0 0 0 0 0 0 0 
0 0 0 0 0 0 0 0 0 
2 0 0 0 0 0 0 0 0 
0 0 0 0 0 0 0 2 0 
0 0 0 0 0 0 0 0 0 
0 0 0 
plain_torsion_tz 1 120 unsigned_char
0 0 0 0 0 0 0 0 0 
0 3 0 0 0 0 0 0 0 
0 0 0 0 0 0 0 0 0 
0 0 0 0 0 0 0 0 0 
0 0 0 0 0 0 0 3 0 
0 0 0 0 0 0 0 0 0 
0 0 0 3 0 0 0 0 0 
0 0 0 0 0 0 0 0 0 
0 0 0 0 0 0 0 0 0 
0 0 0 0 0 0 0 0 0 
0 0 0 0 0 3 0 0 0 
0 0 0 0 0 0 3 0 3 
0 0 0 0 0 0 0 0 0 
0 0 0 
weighted_torsion_tp 1 120 unsigned_char
0 0 0 0 0 0 0 0 0 
0 0 0 0 0 0 0 0 0 
0 0 0 0 0 0 0 0 0 
1 0 0 0 0 0 0 0 0 
0 0 0 0 0 0 0 0 0 
0 0 0 0 0 0 0 0 0 
0 0 0 0 0 0 0 0 0 
0 0 0 0 0 0 0 0 0 
0 0 0 1 0 0 0 0 0 
0 0 0 0 0 0 0 0 0 
0 0 0 0 0 0 0 0 0 
0 0 0 0 0 0 1 0 0 
0 0 0 0 0 0 0 0 0 
1 0 0 
weighted_torsion_tn 1 120 unsigned_char
0 0 0 0 0 0 0 0 0 
0 2 0 0 0 0 0 0 0 
0 0 0 0 0 0 0 0 0 
0 0 0 0 0 0 0 0 0 
0 0 0 0 0 0 0 0 0 
0 0 0 0 0 0 0 0 0 
0 2 0 0 0 0 0 0 0 
0 0 0 0 0 0 0 0 0 
0 0 0 0 0 0 0 0 0 
0 0 0 0 0 0 0 0 0 
0 0 0 0 0 2 0 0 0 
0 0 0 0 0 0 0 0 0 
0 0 2 0 0 0 0 0 0 
0 0 0 
weighted_torsion_tz 1 120 unsigned_char
0 0 0 0 0 0 0 0 0 
0 0 0 3 0 0 0 0 0 
0 0 0 0 0 0 0 0 0 
0 0 0 0 0 0 0 0 0 
0 0 0 0 0 0 0 0 0 
0 3 0 0 0 0 0 0 0 
0 0 0 0 0 0 0 0 3 
0 0 0 0 0 0 0 0 0 
0 0 0 0 0 0 0 0 0 
0 0 0 0 0 0 0 0 0 
0 0 0 0 0 0 0 0 0 
0 3 0 0 0 0 0 0 0 
0 3 0 3 0 0 0 0 0 
0 0 0 
plain_torsion_tp_raw 1 120 unsigned_char
0 0 0 0 0 0 0 0 0 
0 0 0 0 0 0 0 0 0 
0 0 0 0 0 0 0 0 0 
0 0 0 1 0 0 0 0 0 
0 0 0 0 0 0 0 0 0 
0 0 0 0 0 0 0 0 1 
0 0 0 0 0 0 0 0 0 
0 0 0 0 0 0 0 0 0 
0 0 0 0 0 0 0 0 0 
0 0 0 0 0 0 0 0 0 
0 0 0 0 1 0 0 0 0 
0 0 0 1 0 0 0 0 0 
0 1 0 0 0 0 0 0 1 
0 0 0 
plain_torsion_tn_raw 1 120 unsigned_char
0 0 0 0 0 0 0 0 0 
0 0 0 0 0 0 0 0 0 
2 0 0 0 0 0 0 0 0 
0 0 0 0 0 0 0 0 0 
0 0 0 0 0 0 0 0 0 
0 2 0 0 0 0 0 0 0 
0 0 0 0 0 0 0 0 0 
0 0 0 0 0 0 0 0 0 
0 0 0 0 0 0 0 0 0 
0 0 2 0 0 0 0 0 0 
0 0 0 0 0 0 0 2 0 
0 0 0 0 0 0 0 2 0 
0 0 0 0 2 0 0 0 0 
0 0 0 
plain_torsion_tz_raw 1 120 unsigned_char
0 0 0 0 0 0 0 0 3 
0 0 0 0 0 0 0 0 0 
0 0 0 0 0 0 0 3 0 
0 0 0 0 0 3 0 0 0 
0 0 0 0 0 0 0 0 0 
0 0 0 0 0 3 0 0 0 
0 0 0 0 0 0 0 0 0 
0 0 0 0 0 0 0 0 0 
0 0 0 0 0 0 0 0 0 
0 0 0 0 0 0 0 0 0 
0 0 0 0 0 0 0 0 0 
0 0 0 0 0 0 0 0 0 
0 0 0 0 0 0 0 0 0 
0 0 0 
weighted_torsion_tp_raw 1 120 unsigned_char
0 0 0 0 0 0 0 0 0 
0 0 0 0 0 0 0 0 0 
0 0 0 0 0 0 0 0 0 
0 0 0 0 0 0 1 0 0 
0 0 0 0 0 0 0 0 0 
0 0 0 0 0 0 0 0 0 
0 0 0 0 1 0 0 0 0 
0 0 0 0 0 0 0 0 0 
0 0 0 0 0 0 0 0 0 
0 0 0 0 0 0 0 0 0 
0 0 0 0 0 0 0 0 1 
0 0 0 0 0 0 0 0 1 
0 0 0 0 0 1 0 0 0 
0 1 0 
weighted_torsion_tn_raw 1 120 unsigned_char
0 0 0 0 0 0 0 0 0 
0 0 0 0 0 0 0 0 0 
0 0 0 2 0 0 0 0 0 
0 0 0 0 0 0 0 0 0 
0 0 0 0 0 0 0 0 0 
0 0 0 0 0 2 0 0 0 
0 0 0 0 0 0 0 0 0 
0 0 0 0 0 0 0 0 0 
0 0 0 0 0 0 0 0 0 
0 0 0 0 0 0 0 0 2 
0 0 0 0 0 0 0 0 0 
0 0 0 2 0 0 0 0 0 
0 0 2 0 0 0 0 2 0 
0 0 0 
weighted_torsion_tz_raw 1 120 unsigned_char
0 0 0 0 0 0 0 0 0 
0 3 0 0 0 0 0 0 0 
0 0 0 0 0 0 0 0 0 
0 0 3 0 0 0 0 3 0 
0 0 0 0 0 0 0 0 0 
0 0 0 0 0 0 0 0 0 
3 0 0 0 0 0 0 0 0 
0 0 0 0 0 0 0 0 0 
0 0 0 0 0 0 0 0 0 
0 0 0 0 0 0 0 0 0 
0 0 0 0 0 0 0 0 0 
0 0 0 0 0 0 0 0 0 
0 0 0 0 0 0 0 0 0 
0 0 0 
