# vtk DataFile Version 5.1
vtk output
ASCII
DATASET POLYDATA
POINTS 120 float
-0.164473 19.2536 -3.25016 -0.365559 18.5407 -3.41899 -0.64796 17.8673 -3.53242 
-0.997673 17.2327 -3.59163 -1.40077 16.6361 -3.59819 -1.84365 16.0765 -3.55483 
-2.31361 15.5532 -3.46669 -2.79971 15.0655 -3.34297 -3.29351 14.6124 -3.19833 
-3.78927 14.1926 -3.05343 -4.28335 13.8038 -2.93391 -4.77263 13.4419 -2.86768 
-5.25227 13.1013 -2.8806 -5.71398 12.7754 -2.99249 -6.14505 12.4577 -3.21411 
-6.52904 12.1432 -3.54602 -6.84803 11.8295 -3.97947 -7.08574 11.5169 -4.49814 
-7.23062 11.2082 -5.08073 -7.27801 10.907 -5.70371 -7.231 10.6174 -6.34425 
-7.09974 10.3424 -6.98285 -6.89941 10.0832 -7.60513 -6.64734 9.83776 -8.20274 
-6.3598 9.60107 -8.77296 -6.04909 9.36491 -9.31767 -5.72208 9.11876 -9.84146 
-5.38058 8.85106 -10.3498 -5.0238 8.55064 -10.8471 -4.65147 8.20759 -11.3351 
-4.26665 7.81538 -11.8107 -3.87689 7.37129 -12.2649 -3.4937 6.87807 -12.6819 
-3.13061 6.3448 -13.039 -2.80057 5.78748 -13.3089 -2.51352 5.22832 -13.4636 
-2.27488 4.6938 -13.4791 -2.08539 4.21196 -13.3409 -1.94201 3.80855 -13.0478 
-1.83984 3.5027 -12.6132 -1.77418 3.30438 -12.0631 -1.74214 3.21236 -11.4319 
-1.74332 3.21432 -10.7562 -1.77937 3.28937 -10.0695 -1.85289 3.41067 -9.3974 
-1.96606 3.54915 -8.75508 -2.1195 3.67649 -8.14684 -2.3116 3.76775 -7.5678 
-2.53835 3.8038 -7.00707 -2.79379 3.77293 -6.45178 -3.07111 3.67175 -5.89122 
-3.36402 3.50302 -5.32011 -3.66794 3.27376 -4.74027 -3.98066 2.99222 -4.16059 
-4.302 2.66529 -3.5951 -4.63276 2.29759 -3.05999 -4.97332 1.8917 -2.56995 
-5.32241 1.44877 -2.13479 -5.67643 0.970873 -1.75696 -6.02923 0.46124 -1.43057 
-6.37246 -0.0747467 -1.14215 -6.69631 -0.630101 -0.87295 -6.99035 -1.19749 -0.602558 
-7.24455 -1.77066 -0.313019 -7.45002 -2.34545 0.00749145 -7.59938 -2.92016 0.362283 
-7.6867 -3.49495 0.746011 -7.70698 -4.07042 1.14659 -7.65566 -4.64554 1.54864 
-7.52855 -5.21673 1.93718 -7.32229 -5.7765 2.30062 -7.03533 -6.31504 2.63245 
-6.66901 -6.82092 2.93144 -6.22808 -7.2831 3.20062 -5.72051 -7.69263 3.44567 
-5.15637 -8.04399 3.67295 -4.54669 -8.33597 3.8878 -3.9021 -8.57243 4.09351 
-3.23206 -8.76155 4.29083 -2.54432 -8.91494 4.47833 -1.84489 -9.04555 4.65336 
-1.13821 -9.16482 4.81327 -0.427723 -9.28067 4.95694 0.283592 -9.39533 5.08586 
0.99267 -9.50501 5.20491 1.69604 -9.59976 5.32199 2.38989 -9.66611 5.44706 
3.07035 -9.68878 5.59031 3.73415 -9.65473 5.76025 4.37916 -9.5555 5.96198 
5.00493 -9.38935 6.19646 5.61281 -9.16174 6.46071 6.20581 -8.88494 6.74895 
6.78822 -8.57603 7.05424 7.36501 -8.25544 7.37019 7.94116 -7.94427 7.6922 
8.52093 -7.66269 8.0183 9.10696 -7.42776 8.34887 9.69951 -7.25218 8.68612 
10.2957 -7.14344 9.03304 10.8892 -7.10445 9.39194 11.4703 -7.13529 9.76351 
12.0269 -7.23534 10.1463 12.5453 -7.40516 10.536 13.0124 -7.64717 10.9272 
13.4172 -7.96439 11.3134 13.7525 -8.35819 11.6889 14.0157 -8.82651 12.0499 
14.2095 -9.36289 12.3947 14.3413 -9.95663 12.7241 14.4221 -10.5942 13.0407 
14.4659 -11.2611 13.3485 14.4878 -11.9424 13.6531 14.5025 -12.6246 13.961 
14.5236 -13.2947 14.2798 14.5633 -13.941 14.6186 14.6324 -14.5521 14.987 
14.7409 -15.1173 15.3952 14.8981 -15.626 15.854 15.1134 -16.0675 16.3739 

LINES 2 120
OFFSETS vtktypeint64
0 120 
CONNECTIVITY vtktypeint64
0 1 2 3 4 5 6 7 8 
9 10 11 12 13 14 15 16 17 
18 19 20 21 22 23 24 25 26 
27 28 29 30 31 32 33 34 35 
36 37 38 39 40 41 42 43 44 
45 46 47 48 49 50 51 52 53 
54 55 56 57 58 59 60 61 62 
63 64 65 66 67 68 69 70 71 
72 73 74 75 76 77 78 79 80 
81 82 83 84 85 86 87 88 89 
90 91 92 93 94 95 96 97 98 
99 100 101 102 103 104 105 106 107 
108 109 110 111 112 113 114 115 116 
117 118 119 
CELL_DATA 1
FIELD FieldData 2
Length 1 1 double
81.698205533 
Tortuosity 1 1 double
0.89123333661 
POINT_DATA 120
FIELD FieldData 19
Curvature 1 120 double
0 0.18611975466 0.17562986134 0.1604946244 0.14345153268 0.12532541931 0.10499697595 0.080852093524 0.058537401643 
0.072361504667 0.13555936331 0.22037205612 0.29988542939 0.34529682905 0.34643721516 0.31950999274 0.28477396845 0.25231979128 
0.22375495995 0.19755968894 0.17210618913 0.14621494832 0.11944684881 0.093114915986 0.071618756974 0.062531829389 0.067543446169 
0.077446677061 0.085897315514 0.091212104538 0.098268378229 0.11055273053 0.13317030973 0.17334498762 0.24448793886 0.36274552705 
0.52778325136 0.66216499135 0.64196175997 0.49535395907 0.34512056088 0.23926381901 0.17205705595 0.128839855 0.1059308328 
0.10993086936 0.14146217469 0.17929564706 0.19690960738 0.18267768714 0.1509349113 0.11839686055 0.096552700257 0.09004628469 
0.097602013689 0.1132928651 0.12883995049 0.13355018159 0.12243441558 0.096466212239 0.068656011798 0.066243675031 0.092874519567 
0.12149863087 0.13809495154 0.14204807208 0.14148401868 0.14539816974 0.15643793021 0.1712539678 0.18447558787 0.19183949449 
0.19133547915 0.18344972867 0.16990960909 0.15206851436 0.12970307347 0.10417108043 0.077179072119 0.052911281893 0.037515763282 
0.031605091717 0.027276467267 0.019364795012 0.026693632916 0.056817866468 0.096666324178 0.13464860048 0.16020078605 0.16368412415 
0.14444989214 0.1096857962 0.069521122925 0.030069816915 0.020697727013 0.055384059519 0.089988037918 0.11871585828 0.13737645571 
0.14618609102 0.15036403631 0.15713432935 0.17286588932 0.19950404902 0.2314119885 0.25430861372 0.25403535699 0.22527113446 
0.17876289612 0.12890995443 0.083319608908 0.044054291152 0.013953106819 0.029536737088 0.063266953814 0.10090005045 0.14160783414 
0.18265120874 0.21424147998 0 
Torsion 1 120 double
0 0 -0.081296320606 -0.093660176537 -0.090374684226 -0.051029723313 0.06035391093 0.35920554996 1.1955512981 
1.1404111437 0.45926773701 0.25302683023 0.19427081004 0.18057669044 0.17834109892 0.16897147599 0.14685787168 0.11797926918 
0.089783472291 0.067785279591 0.056589010005 0.064906209744 0.11202044048 0.23556325401 0.46720181803 0.60140605149 0.41362672227 
0.23102696622 0.14444531931 0.10462144016 0.060971039192 -0.0028409473051 -0.072022172514 -0.12782028451 -0.15626105014 -0.15858221096 
-0.13994624099 -0.11456434923 -0.092433976811 -0.061397292724 -0.002357816981 0.091255483921 0.23232981841 0.46427491351 0.7789880622 
0.85511310885 0.60238466576 0.39273796791 0.27615536627 0.20421919407 0.12585426432 0.0067199055087 -0.14085040749 -0.21524690287 
-0.16466042113 -0.071087525324 0.0033310926991 0.070466782067 0.1686668295 0.38437486496 0.89765781699 0.9609531824 0.37821929067 
0.086558196921 -0.069581053913 -0.18234915033 -0.24607681339 -0.22515734599 -0.13229529831 -0.030112065958 0.049772847168 0.10556529843 
0.1375272637 0.14857310845 0.13713829086 0.10275626857 0.047982251542 -0.032864916085 -0.16450709678 -0.38939290664 -0.60267371711 
-0.41928165856 0.060542963394 1.1771890323 1.0199874519 0.26165578363 0.086169650914 0.03133038971 0.0082707459601 -0.0012296404712 
-6.0404301612e-05 0.021031523432 0.1169767008 0.86615939434 1.8046947224 0.16459558116 -0.00610848573 -0.059322677361 -0.087749677905 
-0.10490469976 -0.10767192793 -0.082995493198 -0.039008840369 -0.00021789631106 0.019066449749 0.018148475881 0.011256265695 0.0023477922112 
-0.011798621952 -0.027838442684 -0.069730327157 -0.27816756062 -2.8210216542 -0.56385483132 -0.086672505767 -0.015290834658 0.00438392034 
0.0073466138103 0 0 
FrenetTangent 3 120 double
-0.32338631395 -0.92724263886 -0.18879189769 -0.32338631395 -0.92724263886 -0.18879189769 -0.43208860144 -0.89407707264 -0.11800690103 
-0.52109073203 -0.85228598854 -0.045530678948 -0.59028958411 -0.80678308892 0.025675948596 -0.6417728141 -0.76130138749 0.092454596927 
-0.67925101959 -0.71830530715 0.15051756743 -0.7076672404 -0.67944688993 0.19380144639 -0.73252706988 -0.64611420806 0.21433740233 
-0.75838287672 -0.61952677758 0.20258821329 -0.78601326425 -0.6001159496 0.14847220435 -0.80878929565 -0.58641223164 0.044503593488 
-0.81141658117 -0.5744811984 -0.10758477812 -0.77632186448 -0.55966322778 -0.29000247276 -0.69624347727 -0.54006094832 -0.47284161456 
-0.57890639755 -0.51731945762 -0.63027609954 -0.43893460319 -0.49373737328 -0.7507062144 -0.28961528396 -0.47029415595 -0.83363444877 
-0.14088483076 -0.44695273964 -0.88339386062 -0.00026972908131 -0.42356764411 -0.90586443694 0.1264736325 -0.40054900231 -0.90750477521 
0.23534378667 -0.37916194375 -0.8949019625 0.32418148857 -0.36162514362 -0.87414736628 0.39277876994 -0.35090504404 -0.85005322654 
0.44289564768 -0.35005481186 -0.82541206313 0.47785778549 -0.36140318626 -0.80064953245 0.50159612675 -0.3855592608 -0.77443229662 
0.51735408502 -0.42091975924 -0.74509818614 0.52668428973 -0.46481943812 -0.71172083635 0.52980773907 -0.51449581063 -0.67423869696 
0.52654430406 -0.56849786625 -0.63210859188 0.51702299393 -0.62695857198 -0.58276081952 0.50202966807 -0.69053355887 -0.52070108167 
0.48257837355 -0.75930431933 -0.43654903966 0.45899020854 -0.83042104906 -0.31579878047 0.42901602103 -0.89255868418 -0.13886773922 
0.3858200391 -0.91592961544 0.1105252776 0.3202395114 -0.85165423412 0.41488760025 0.23488315685 -0.67845023434 0.69608561409 
0.14998935651 -0.45057960391 0.88004614281 0.080052798519 -0.23789637361 0.96798598382 0.023552210768 -0.068726454291 0.9973574925 
-0.027270392782 0.056414859304 0.99803491388 -0.079555809159 0.14257039031 0.98658226065 -0.13800749877 0.19203614187 0.9716357602 
-0.20414770174 0.20353367139 0.95754778496 -0.27517829035 0.17408273552 0.94550098346 -0.34304990419 0.10427110072 0.93351181074 
-0.39661931187 0.0042569363616 0.91797331113 -0.42842155712 -0.10618980457 0.89731749944 -0.44011221722 -0.20831970308 0.87344383767 
-0.44007637389 -0.29345908088 0.84865455457 -0.43760538148 -0.36249332062 0.82286093759 -0.43925280027 -0.42152202614 0.79333231305 
-0.44796023293 -0.47717835268 0.75606378663 -0.46324666621 -0.53382384392 0.70741404419 -0.48142566615 -0.59253916379 0.64585344107 
-0.49677608212 -0.65059415 0.57440471465 -0.5034972582 -0.70345279193 0.50164198441 -0.49770223855 -0.74767942081 0.43962252609 
-0.47807702893 -0.78213507307 0.39963368462 -0.44436285787 -0.80743579618 0.38805809564 -0.39617530483 -0.82421059036 0.4046257908 
-0.33336280259 -0.83254185415 0.44242886766 -0.25719768078 -0.83321387088 0.48949361423 -0.17068904298 -0.8289803528 0.53259442851 
-0.077056582984 -0.82375587357 0.56168366879 0.022119035492 -0.81996016586 0.57199307223 0.12709083038 -0.81653046176 0.56313934851 
0.23838386742 -0.80872090244 0.53772077672 0.35475839902 -0.78997508982 0.50008582842 0.47202010989 -0.75462449484 0.45578381679 
0.58385831082 -0.7001677605 0.41094352414 0.68381475256 -0.62845397067 0.37073304536 0.76734871477 -0.54480047908 0.33818395576 
0.83267973127 -0.45637381024 0.31363579269 0.88047435725 -0.3709530986 0.29522653143 0.91333352959 -0.29566918108 0.28000285551 
0.93496201734 -0.23585428515 0.26498826825 0.94906450352 -0.19430673202 0.24803520324 0.95856488327 -0.17034342997 0.22833414206 
0.9651986561 -0.1601321032 0.20675895094 0.96989446775 -0.1572489352 0.18595024553 0.97338966171 -0.15373969031 0.16993138054 
0.97641404163 -0.14132155933 0.1632293974 0.97901411538 -0.11287989074 0.16967466564 0.97949070457 -0.06344200189 0.19124087442 
0.97388294665 0.0082432943931 0.22690097911 0.95738295726 0.097490957836 0.27187016438 0.92790367985 0.19377104709 0.31850830796 
0.88899825502 0.28375470183 0.35939584272 0.84876825871 0.35651620249 0.390497939 0.81560252566 0.40641540759 0.41184831747 
0.79502705424 0.43173534616 0.42607109019 0.78898633162 0.43233207712 0.43656562348 0.79623221019 0.40830307953 0.44643349191 
0.81282705308 0.36012254353 0.45784706554 0.83264104625 0.29001565615 0.47180484025 0.84866352435 0.2029781464 0.48843637715 
0.85516573019 0.10619613518 0.5073597883 0.84916455538 0.0058896602067 0.528095512 0.82964368428 -0.09544660134 0.55007390724 
0.79569686641 -0.19974675056 0.57181092367 0.74482466687 -0.31124755378 0.590221294 0.67322604822 -0.43181691969 0.60025064421 
0.57908027919 -0.55633862786 0.59594744853 0.46682681839 -0.67240920887 0.5744028007 0.34881604429 -0.76686901064 0.53873860802 
0.24013818494 -0.8336517109 0.4973514623 0.15112627206 -0.87536308287 0.45923885185 0.085901415736 -0.89865161501 0.43016999153 
0.044359942903 -0.90957731016 0.41316015335 0.024414643629 -0.91193180931 0.40961481949 0.023971844224 -0.90703775818 0.42036633537 
0.041307053599 -0.89382097101 0.44651741186 0.075226186683 -0.8691297085 0.4888297972 0.12497917508 -0.82799341182 0.54663252353 
0.18904096746 -0.76404747498 0.61684274219 0.26348453988 -0.67192317639 0.69216699017 0.26348453988 -0.67192317639 0.69216699017 

FrenetNormal 3 120 double
-0.84684722024 0.19456935214 0.49496722395 -0.84684722024 0.19456935214 0.49496722395 -0.77138021523 0.29862022252 0.56195954148 
-0.68049045623 0.38267121375 0.62489637632 -0.58150772681 0.4470956161 0.67967218107 -0.48906923508 0.499151142 0.71530372622 
-0.43064050485 0.55616958707 0.71079121126 -0.45534987829 0.64831301351 0.61020219998 -0.62316593464 0.76319454815 0.17087509937 
-0.57470504839 0.4889152995 -0.65625904738 -0.32216861915 0.19265282619 -0.9268723048 -0.12200757628 0.093283916956 -0.98813575088 
0.078479629035 0.075314521685 -0.9940667335 0.29194001559 0.088516038799 -0.95233184247 0.50018340459 0.10744884203 -0.85922715746 
0.67969801031 0.12082587875 -0.72347199103 0.8163448011 0.1299217747 -0.56276238162 0.90840858805 0.13931722234 -0.39418846852 
0.96110467057 0.15235318306 -0.23036128107 0.98243607519 0.16892140787 -0.079277462965 0.98111529751 0.18547887411 0.054866749973 
0.9658346994 0.19404730805 0.17178176761 0.94440355988 0.17729176086 0.27689266444 0.91826605479 0.099270836427 0.38331808418 
0.8580499531 -0.10147129645 0.50344200657 0.67755130547 -0.42845558446 0.59778762166 0.42226711147 -0.67218786252 0.60815620038 
0.23609587982 -0.76667987885 0.59704329734 0.10464211762 -0.79543863543 0.59693165814 -9.3117617323e-05 -0.79501767436 0.60658625832 
-0.091347981187 -0.77705662628 0.62276684713 -0.15378873075 -0.73777802981 0.65729187202 -0.18035644777 -0.67242522787 0.71785504433 
-0.1768802544 -0.57264665104 0.80049309095 -0.16245646498 -0.42790748339 0.88910240279 -0.16041823612 -0.2265746562 0.96069241419 
-0.18355306808 0.041196970271 0.98214616063 -0.22690893179 0.35624569766 0.90642227442 -0.26541098756 0.64414275963 0.71738212474 
-0.28211731416 0.83360385082 0.4748836078 -0.29360865151 0.92239186772 0.25097251268 -0.33214902605 0.94042514454 0.072646899555 
-0.42967173135 0.90080852492 -0.062659434259 -0.61959407767 0.76823730517 -0.16098019089 -0.87582067749 0.43442944453 -0.21025983592 
-0.97568694478 -0.12198066778 -0.18208707386 -0.80823278748 -0.57445598679 -0.12946072948 -0.57480300795 -0.80932153347 -0.12083111149 
-0.36115538463 -0.92007142661 -0.15177403627 -0.17895671297 -0.96342718094 -0.19945566402 -0.036726354207 -0.96772650855 -0.249312213 
0.040409646688 -0.9506060065 -0.30775847812 0.023404957045 -0.91941881601 -0.39258279224 -0.074515136553 -0.86294782267 -0.49976849617 
-0.17604743479 -0.78202326945 -0.5978686367 -0.21895464117 -0.70454331859 -0.67503894506 -0.19752853394 -0.64456240719 -0.7385944635 
-0.13115208096 -0.59797157932 -0.79071431123 -0.013899981384 -0.57393603176 -0.81878215782 0.1844242204 -0.58649337688 -0.78867815096 
0.55429073176 -0.62161659957 -0.55349307838 0.88831882304 -0.45318186977 0.074268846336 0.86699109544 -0.19072649333 0.46038010945 
0.83690098937 -0.045228313896 0.54548247783 0.86276413248 0.030182998215 0.50470490222 0.92082486014 0.058147058938 0.38561703346 
0.97759793413 0.048248935938 0.20487635141 0.99956450084 0.029316188979 0.0033719018644 0.98526256341 0.038396334859 -0.16668354031 
0.95636417814 0.099166464332 -0.27483371541 0.92097228067 0.20309384148 -0.33251007471 0.87498443085 0.33785486401 -0.34677995421 
0.81123188001 0.48331224222 -0.32910805729 0.72798908241 0.62194718745 -0.28846766182 0.62979380087 0.73948729695 -0.23773579038 
0.52653631395 0.82790254317 -0.19322755785 0.43095861652 0.88576798901 -0.172307111 0.35490379958 0.91511422635 -0.1913354274 
0.30812474689 0.91008552753 -0.27713439507 0.29367026348 0.83074304724 -0.47288874571 0.28487320417 0.57540045115 -0.76665610176 
0.23663616073 0.19820235324 -0.95116725901 0.19706293388 0.058172333995 -0.97866346598 0.21968556369 0.41507024452 -0.8828674562 
0.15073559964 0.98746843086 -0.046742668575 0.048981432411 0.93851448618 0.34174753622 -0.025971756309 0.90146502806 0.43207206696 
-0.11243974081 0.88570540219 0.45042562674 -0.21275079066 0.87466335262 0.43554692131 -0.31773700749 0.85793945164 0.40371164386 
-0.41374864846 0.83404533362 0.36493895019 -0.49185353424 0.80341252637 0.33557177076 -0.55171597177 0.76073911323 0.34188519724 
-0.60610946335 0.59291977322 0.53016738957 0.079983862803 -0.77676942937 0.62468538904 0.3252749841 -0.91110556926 0.25314585988 
0.30500025736 -0.93275774195 0.19219218987 0.2304878378 -0.95610344532 0.18094628615 0.12662942864 -0.97455142982 0.1849716152 
0.0056002712464 -0.98062457872 0.19581642568 -0.1220022501 -0.97070356371 0.20700251778 -0.24678338678 -0.94648998784 0.20797755389 
-0.35862780618 -0.91615583755 0.17900999403 -0.46042957901 -0.87995192587 0.11700090141 -0.55586353796 -0.83087571322 0.025715294161 
-0.64639602641 -0.75877123756 -0.080239554421 -0.72718521448 -0.66149674069 -0.1833677341 -0.7877889575 -0.5513037221 -0.27468666592 
-0.82954458685 -0.44232587701 -0.34088648689 -0.85753237279 -0.34719473983 -0.37959721055 -0.88040418992 -0.27058210159 -0.38945319189 
-0.92802290249 -0.19063633417 -0.32004887212 -0.93856254668 0.12018266726 0.32350652613 0.4054662208 0.39317106638 0.82523551569 
0.5559364473 0.39189224098 0.73304511323 0.57677134443 0.43781874248 0.68967352057 0.5701666805 0.51082847333 0.64340051856 
0.54704608745 0.60360562396 0.58000071459 0.51137382567 0.70569764446 0.49039539662 0.51137382567 0.70569764446 0.49039539662 

FrenetBinormal 3 120 double
-0.42222159766 0.31994351984 -0.8481539168 -0.42222159766 0.31994351984 -0.8481539168 -0.46719589474 0.33384450106 -0.81870375903 
-0.51516714566 0.35661090267 -0.77937890408 -0.55982762575 0.38627264659 -0.73306648535 -0.59071053688 0.41384578631 -0.69267072031 
-0.59427839265 0.41798669373 -0.68711011919 -0.54024398674 0.34357264192 -0.76817593982 -0.27398596643 -0.0083971317918 -0.96169703045 
0.3075215759 -0.61412409315 -0.72683015799 0.52762726357 -0.77636701089 -0.34476620359 0.57530342132 -0.80462339353 -0.14699376858 
0.57917534446 -0.81504544383 -0.01602638036 0.55865498301 -0.82397935796 0.094671155165 0.51484131743 -0.83473883248 0.19531896842 
0.45041980158 -0.84721997486 0.28167413183 0.37538990374 -0.85985099795 0.34603277517 0.30152416894 -0.8714436978 0.38687085326 
0.23754847224 -0.8814883755 0.40810411318 0.18659926424 -0.88997528551 0.41608257084 0.14634614199 -0.89730601469 0.41644294053 
0.10852020788 -0.90475513961 0.41187559023 0.054847776275 -0.9153113607 0.39899477992 -0.050122754402 -0.9311342283 0.36121566741 
-0.25998792904 -0.93121705563 0.25542331934 -0.55908511454 -0.82813860501 0.040128363881 -0.7550442452 -0.63206608348 -0.17435783293 
-0.82255910806 -0.48479740062 -0.29726754633 -0.84359568881 -0.38887050185 -0.37030534241 -0.84811776951 -0.32131131057 -0.4212544252 
-0.84522579362 -0.27017249236 -0.46108587289 -0.84204290273 -0.25021296479 -0.47786736884 -0.84583554201 -0.26647273219 -0.4621195937 
-0.85780620713 -0.30908374868 -0.41065283065 -0.87346201145 -0.35678574375 -0.33131261311 -0.88893826738 -0.38987551919 -0.24038684722 
-0.90413006179 -0.3992189239 -0.15222707438 -0.91976029052 -0.38441392847 -0.079164004363 -0.93508657905 -0.35324974839 -0.028769861867 
-0.94758272145 -0.3195037409 -0.002084602506 -0.95256785018 -0.30430011139 0.0039916168868 -0.94293282786 -0.33298231485 -0.00067833364143 
-0.90257328176 -0.43053613678 -0.00032553202467 -0.7808803059 -0.62408743518 0.027218029046 -0.46248467127 -0.87999612382 0.10823470284 
0.079741467586 -0.97143953044 0.22348721899 0.52061182253 -0.79980967763 0.29877719091 0.74291201719 -0.57803649799 0.33757301686 
0.84395492155 -0.39172751809 0.36645551159 0.88568022687 -0.24603209635 0.39374959465 0.89719140163 -0.1418037586 0.41825743613 
0.89705063714 -0.10114340437 0.43019782212 0.89886246895 -0.15253731766 0.41082676232 0.89526782131 -0.27863997707 0.34764247626 
0.87654944551 -0.40092446393 0.26630930101 0.85875572275 -0.46760112906 0.20949413534 0.85393899445 -0.48315281496 0.19326549393 
0.8579117996 -0.46814233125 0.21173120176 0.86388500479 -0.41922738577 0.27919723766 0.84751412299 -0.31144983958 0.42978926086 
0.68132528141 -0.043099078962 0.73071083905 0.11589356829 0.3777216276 0.91863760693 -0.30227730361 0.53319818781 0.79014436924 
-0.4341266818 0.55211272464 0.71183253891 -0.43530151012 0.55212646377 0.71110404534 -0.35063774407 0.55624679254 0.75342065158 
-0.19586873718 0.56488786582 0.80158414209 -0.019533482212 0.57166938651 0.82025151972 0.11447970114 0.57602406762 0.80937671794 
0.16893990212 0.57977281267 0.79707138649 0.16111032417 0.57852592769 0.7995944062 0.10769986833 0.56249085562 0.81975897416 
0.031816815358 0.52552296207 0.85018427802 -0.049287727377 0.4671480523 0.88280429154 -0.12056416682 0.3954124121 0.91055659134 
-0.17147587358 0.32603730515 0.92967505099 -0.19758435431 0.27894241035 0.93976143496 -0.19966260736 0.27412713855 0.94073862211 
-0.17579865326 0.34075957617 0.92356794269 -0.11416805377 0.52164248615 0.84549084687 -0.00078873837519 0.79993589536 0.60008494499 
0.11133230305 0.96699200446 0.2291976911 0.14307662816 0.98584418238 0.087408961439 0.065198309626 0.89670552565 0.43779947543 
-0.15457813011 0.070244679036 0.98548023154 -0.19781855619 -0.32626475368 0.92434794819 -0.19980847712 -0.42817743468 0.88132891527 
-0.19725443191 -0.4641745239 0.86350026083 -0.19533298291 -0.47482579198 0.8581290655 -0.19503321512 -0.47580739656 0.85765340691 
-0.19619928254 -0.47312963409 0.85886797057 -0.19409416234 -0.47689045895 0.85726480524 -0.17436171203 -0.50606572505 0.84468661367 
-0.023733972707 -0.67974313781 0.73306613968 0.60918236203 -0.45795002859 -0.64744005214 0.51010827495 -0.056349240531 -0.85826237883 
0.49627313527 -0.016575538497 -0.86800819508 0.50357148919 -0.041918027523 -0.86293605455 0.51355156532 -0.095128243489 -0.8527692578 
0.51832442628 -0.16461414421 -0.83919126107 0.51384336997 -0.24020804171 -0.82356850828 0.50078869511 -0.30829636586 -0.80880407618 
0.48811125107 -0.34750498841 -0.80061706802 0.48295011999 -0.35890049934 -0.7987174802 0.487629383 -0.35096965262 -0.7993984537 
0.49682814665 -0.3387529191 -0.79900453847 0.50326373353 -0.33209624792 -0.7977704536 0.50765729157 -0.32859721016 -0.79643452197 
0.50417202476 -0.33071535109 -0.79777059735 0.49173069816 -0.33644507099 -0.80312242821 0.46637904021 -0.34526888237 -0.81442003273 
0.36987252928 -0.36922473501 -0.85256519231 -0.34424449326 -0.39234742469 -0.85297082436 -0.91379565247 0.15066193212 0.37719820749 
-0.83019780407 0.21795536983 0.51309556895 -0.813434593 0.23006151032 0.53422454491 -0.811966848 0.23125998533 0.53593717629 
-0.81547782976 0.22779751248 0.53207537293 -0.81796864712 0.22474447633 0.52954434441 -0.81796864712 0.22474447633 0.52954434441 

plain_curvature_peaks 1 120 unsigned_char
0 0 0 0 0 0 0 0 0 
0 0 0 0 0 0 0 0 0 
0 0 0 1 0 0 0 0 0 
0 0 0 0 0 0 0 0 0 
0 0 0 0 0 0 0 0 0 
0 0 0 0 0 0 1 0 0 
0 0 0 0 0 0 0 0 0 
0 0 0 0 0 0 0 0 0 
0 0 0 0 0 0 0 0 0 
0 0 0 0 0 0 0 0 0 
0 0 0 0 0 0 0 0 0 
0 1 0 0 0 0 0 0 0 
0 0 0 0 0 0 0 0 1 
0 0 0 
weighted_curvature_peaks 1 120 unsigned_char
0 0 0 0 0 0 0 0 0 
0 0 0 0 0 0 0 0 0 
0 0 0 0 0 0 1 0 0 
0 0 0 0 0 0 0 0 0 
0 0 0 0 0 0 0 0 0 
0 0 0 0 0 0 0 0 0 
0 0 1 0 0 0 0 0 0 
0 0 0 0 0 0 0 0 0 
0 0 0 0 0 0 0 0 0 
0 0 0 0 0 0 0 0 0 
0 0 0 0 0 0 0 0 0 
0 0 0 0 0 1 0 0 0 
0 0 0 0 0 0 0 0 0 
0 1 0 
plain_torsion_tp 1 120 unsigned_char
0 0 0 0 0 0 0 0 0 
0 0 0 0 0 0 0 0 0 
0 0 0 1 0 0 0 0 0 
0 0 0 0 0 0 0 0 0 
0 0 0 0 0 0 0 0 0 
0 0 0 0 0 0 1 0 0 
0 0 0 0 0 0 0 0 0 
0 0 0 0 0 0 0 0 0 
0 0 0 0 0 0 0 0 0 
0 0 0 0 0 0 0 0 0 
0 0 0 0 0 0 0 0 0 
0 1 0 0 0 0 0 0 0 
0 0 0 0 0 0 0 0 1 
0 0 0 
plain_torsion_tn 1 120 unsigned_char
0 0 0 0 0 0 0 0 0 
0 2 0 0 0 0 0 0 0 
0 0 0 0 0 0 0 0 0 
0 0 0 2 0 0 0 0 0 
0 0 0 0 0 0 0 0 0 
0 0 0 0 0 0 0 0 0 
0 0 0 0 0 0 0 0 0 
0 0 0 0 0 0 0 0 0 
0 0 0 0 0 2 0 0 0 
0 0 0 0 0 0 0 0 0 
0 0 0 0 0 0 0 0 0 
0 0 0 0 0 0 0 0 0 
0 2 0 0 0 0 0 0 0 
0 0 0 
plain_torsion_tz 1 120 unsigned_char
0 0 0 0 0 0 0 0 0 
0 0 3 0 0 0 0 0 0 
0 0 0 0 0 0 3 0 0 
0 0 0 0 0 0 0 0 0 
0 0 3 0 0 0 0 0 0 
0 0 0 0 0 0 0 0 0 
0 0 0 0 0 0 0 0 0 
0 0 0 0 0 0 0 0 0 
0 0 0 0 0 0 0 0 0 
0 0 0 3 0 0 0 0 0 
0 0 0 0 0 0 0 0 0 
0 0 0 0 0 0 3 0 0 
0 0 0 3 0 0 0 0 0 
0 0 0 
weighted_torsion_tp 1 120 unsigned_char
0 0 0 0 0 0 0 0 0 
0 0 0 0 0 0 0 0 0 
0 0 0 0 0 0 1 0 0 
0 0 0 0 0 0 0 0 0 
0 0 0 0 0 0 0 0 0 
0 0 0 0 0 0 0 0 0 
0 0 1 0 0 0 0 0 0 
0 0 0 0 0 0 0 0 0 
0 0 0 0 0 0 0 0 0 
0 0 0 0 0 0 0 0 0 
0 0 0 0 0 0 0 0 0 
0 0 0 0 0 1 0 0 0 
0 0 0 0 0 0 0 0 0 
0 1 0 
weighted_torsion_tn 1 120 unsigned_char
0 0 0 0 0 0 0 0 0 
0 0 2 0 0 0 0 0 0 
0 0 0 0 0 0 0 0 0 
0 0 0 0 0 0 2 0 0 
0 0 0 0 0 0 0 0 0 
0 0 0 0 0 0 0 0 0 
0 0 0 0 0 0 0 0 0 
0 0 0 0 0 0 0 0 0 
0 0 0 0 0 0 0 0 0 
0 2 0 0 0 0 0 0 0 
0 0 0 0 0 0 0 0 0 
0 0 0 0 0 0 0 0 0 
0 0 0 0 0 2 0 0 0 
0 0 0 
weighted_torsion_tz 1 120 unsigned_char
0 0 0 0 0 0 0 0 0 
0 0 0 3 0 0 0 0 0 
0 0 0 0 0 0 0 0 0 
3 0 0 0 0 0 0 0 0 
0 0 0 0 0 0 3 0 0 
0 0 0 0 0 0 0 0 0 
0 0 0 0 0 0 0 0 0 
0 0 0 0 0 0 0 0 0 
0 0 0 0 0 0 0 0 0 
0 0 0 0 0 0 0 0 0 
3 0 0 0 0 0 0 0 0 
0 0 0 0 0 0 0 0 0 
0 0 3 0 0 0 3 0 0 
0 0 0 
plain_torsion_tp_raw 1 120 unsigned_char
0 0 0 0 0 0 0 0 0 
0 0 0 0 0 0 0 0 0 
0 0 0 0 0 1 0 0 0 
0 0 0 0 0 0 1 0 0 
0 0 0 0 0 0 0 0 0 
0 0 0 0 0 0 0 0 0 
0 0 0 0 0 0 0 0 0 
0 0 0 0 0 0 0 0 0 
0 0 0 0 0 0 0 0 0 
1 0 0 0 0 0 0 0 0 
0 0 0 0 0 0 0 0 0 
0 0 0 1 0 0 0 0 0 
0 0 0 0 0 1 0 0 0 
1 0 0 
plain_torsion_tn_raw 1 120 unsigned_char
0 0 0 0 0 0 0 0 0 
0 0 0 0 0 0 0 0 0 
2 0 0 0 0 0 0 0 2 
0 0 0 0 0 0 0 0 0 
0 0 0 0 0 0 0 0 0 
0 0 0 0 0 0 0 0 0 
0 0 0 0 0 0 0 0 0 
0 0 0 0 0 0 2 0 0 
0 0 0 0 0 0 0 0 0 
0 0 0 0 0 0 0 0 0 
0 2 0 0 0 0 0 0 0 
0 0 0 0 0 0 0 0 0 
0 2 0 0 0 0 0 2 0 
0 0 0 
plain_torsion_tz_raw 1 120 unsigned_char
0 0 0 0 0 0 0 0 0 
0 3 0 0 0 0 0 0 0 
0 0 0 0 3 3 0 0 0 
0 0 3 0 0 0 0 0 0 
0 0 0 0 0 0 0 0 0 
0 0 0 0 0 0 0 0 0 
0 0 0 0 0 0 0 0 0 
0 0 0 0 0 0 0 0 0 
0 0 0 0 0 0 0 0 0 
0 0 0 0 0 0 0 0 0 
0 0 0 0 0 0 0 0 0 
0 0 0 0 0 0 0 0 0 
0 0 0 0 0 0 0 0 0 
0 0 0 
weighted_torsion_tp_raw 1 120 unsigned_char
0 0 0 0 0 0 0 0 0 
0 0 0 0 0 0 0 0 0 
0 0 0 0 0 0 0 1 0 
0 0 0 0 0 0 0 0 0 
1 0 0 0 0 0 0 0 0 
0 0 0 0 0 0 0 0 0 
0 0 0 0 0 0 0 0 0 
0 0 0 0 0 0 0 0 0 
0 0 0 0 0 0 0 0 0 
0 0 0 0 0 0 1 0 0 
0 0 0 0 0 0 0 0 0 
0 0 0 0 0 0 0 0 1 
0 0 0 0 0 0 0 1 0 
0 1 0 
weighted_torsion_tn_raw 1 120 unsigned_char
0 0 0 0 0 0 0 0 0 
0 0 0 0 0 0 0 0 0 
0 0 0 2 0 0 0 0 0 
0 0 2 0 0 0 0 0 0 
0 0 0 0 0 0 0 0 0 
0 0 0 0 0 0 0 0 0 
0 0 0 0 0 0 0 0 0 
0 0 0 0 0 0 0 0 0 
0 0 2 0 0 0 0 0 0 
0 0 0 0 0 0 0 0 0 
0 0 0 0 0 2 0 0 0 
0 0 0 0 0 0 0 0 0 
0 0 0 0 0 2 0 0 0 
2 0 0 
weighted_torsion_tz_raw 1 120 unsigned_char
0 0 0 0 0 0 0 0 0 
0 0 3 0 0 0 0 0 0 
0 0 0 0 0 0 0 3 3 
0 0 0 0 0 0 3 0 0 
0 0 0 0 0 0 0 0 0 
0 0 0 0 0 0 0 0 0 
0 0 0 0 0 0 0 0 0 
0 0 0 0 0 0 0 0 0 
0 0 0 0 0 0 0 0 0 
0 0 0 0 0 0 0 0 0 
0 0 0 0 0 0 0 0 0 
0 0 0 0 0 0 0 0 0 
0 0 0 0 0 0 0 0 0 
0 0 0 
