# vtk DataFile Version 5.1
vtk output
ASCII
DATASET POLYDATA
POINTS 120 float
-0.460598 17.2447 -9.74458 -0.849874 16.7852 -9.57875 -1.25536 16.3247 -9.40709 
-1.6767 15.8666 -9.23556 -2.11346 15.4146 -9.07004 -2.56521 14.9725 -8.91624 
-3.03128 14.5442 -8.77941 -3.51056 14.1336 -8.66407 -4.00092 13.7441 -8.57368 
-4.49831 13.3776 -8.51056 -4.99566 13.0322 -8.47603 -5.48215 12.7013 -8.47072 
-5.94344 12.3733 -8.49495 -6.36314 12.0324 -8.549 -6.72542 11.6623 -8.63309 
-7.01791 11.2497 -8.74739 -7.23346 10.7873 -8.89209 -7.37062 10.2761 -9.06767 
-7.43251 9.72481 -9.27514 -7.42473 9.14772 -9.51613 -7.35343 8.56207 -9.79244 
-7.22423 7.98475 -10.1051 -7.04229 7.42982 -10.4529 -6.8134 6.90686 -10.8307 
-6.54558 6.42048 -11.2279 -6.25048 5.9711 -11.6273 -5.94367 5.55648 -12.0045 
-5.64344 5.17409 -12.3296 -5.36808 4.82378 -12.5701 -5.1325 4.50987 -12.6948 
-4.94545 4.24142 -12.6803 -4.80825 4.03087 -12.5157 -4.71554 3.8917 -12.2054 
-4.65706 3.83504 -11.7688 -4.6203 3.86652 -11.2372 -4.5932 3.98468 -10.6472 
-4.56629 4.18081 -10.0351 -4.53401 4.44009 -9.43026 -4.49504 4.74319 -8.85204 
-4.45168 5.06909 -8.30815 -4.40834 5.39672 -7.79594 -4.3693 5.70682 -7.30541 
-4.33642 5.98274 -6.82334 -4.30795 6.20986 -6.33762 -4.27891 6.37539 -5.84099 
-4.24285 6.46717 -5.3334 -4.19429 6.47446 -4.82274 -4.13053 6.38854 -4.32383 
-4.05241 6.20498 -3.85525 -3.96418 5.92389 -3.43497 -3.87257 5.55165 -3.0754 
-3.78576 5.10001 -2.77963 -3.7124 4.58552 -2.54009 -3.66071 4.02725 -2.34002 
-3.63761 3.44426 -2.15778 -3.64797 2.85285 -1.97247 -3.69393 2.26466 -1.76886 
-3.77457 1.68551 -1.54059 -3.88583 1.11577 -1.29044 -4.02045 0.552047 -1.0283 
-4.16823 -0.0115336 -0.767586 -4.31635 -0.580766 -0.521231 -4.44982 -1.15993 -0.298486 
-4.55254 -1.75059 -0.103123 -4.60861 -2.35158 0.0667119 -4.60398 -2.9585 0.217346 
-4.52814 -3.56494 0.357763 -4.3753 -4.16243 0.49746 -4.14483 -4.74094 0.644993 
-3.84093 -5.28989 0.806906 -3.47166 -5.79758 0.987618 -3.04771 -6.25239 1.18928 
-2.58109 -6.64327 1.41291 -2.08398 -6.96088 1.65879 -1.56788 -7.19927 1.92727 
-1.0431 -7.3577 2.21863 -0.518332 -7.44137 2.53299 -0.000261814 -7.46252 2.86966 
0.506917 -7.43839 3.22703 1.0019 -7.38934 3.6017 1.48625 -7.33499 3.98864 
1.96409 -7.29128 4.38158 2.44113 -7.26737 4.77404 2.92353 -7.26495 5.16011 
3.41673 -7.27834 5.53535 3.92443 -7.29759 5.89806 4.44804 -7.31084 6.24863 
4.9865 -7.30785 6.59009 5.53653 -7.28094 6.92671 6.09309 -7.22699 7.26327 
6.64988 -7.14696 7.60404 7.19983 -7.04627 7.95269 7.73596 -6.93428 8.31097 
8.2513 -6.82399 8.67943 8.73975 -6.7315 9.05734 9.19691 -6.67495 9.44312 
9.61984 -6.67287 9.83466 10.0075 -6.74124 10.2302 10.3595 -6.89104 10.6289 
10.6756 -7.12591 11.0313 10.9543 -7.44133 11.439 11.1928 -7.82614 11.8543 
11.3867 -8.26446 12.2791 11.5305 -8.73857 12.7137 11.6192 -9.23133 13.1566 
11.6487 -9.72757 13.604 11.618 -10.2141 14.051 11.5293 -10.6797 14.4923 
11.3893 -11.1146 14.924 11.2083 -11.5099 15.3441 10.9994 -11.8573 15.7538 
10.7765 -12.1519 16.1557 10.5513 -12.3933 16.5533 10.3318 -12.5892 16.9477 
10.1207 -12.7558 17.3366 9.91491 -12.9182 17.7136 9.70762 -13.1086 18.0685 
9.48938 -13.3624 18.3892 9.2491 -13.7175 18.6623 8.97594 -14.2118 18.8741 

LINES 2 120
OFFSETS vtktypeint64
0 120 
CONNECTIVITY vtktypeint64
0 1 2 3 4 5 6 7 8 
9 10 11 12 13 14 15 16 17 
18 19 20 21 22 23 24 25 26 
27 28 29 30 31 32 33 34 35 
36 37 38 39 40 41 42 43 44 
45 46 47 48 49 50 51 52 53 
54 55 56 57 58 59 60 61 62 
63 64 65 66 67 68 69 70 71 
72 73 74 75 76 77 78 79 80 
81 82 83 84 85 86 87 88 89 
90 91 92 93 94 95 96 97 98 
99 100 101 102 103 104 105 106 107 
108 109 110 111 112 113 114 115 116 
117 118 119 
CELL_DATA 1
FIELD FieldData 2
Length 1 1 double
70.611742213 
Tortuosity 1 1 double
0.62097294532 
POINT_DATA 120
FIELD FieldData 19
Curvature 1 120 double
0 0.029774381988 0.033226389035 0.040764114727 0.050644482735 0.061652945852 0.072848418205 0.082294479903 0.087541479565 
0.086157969133 0.081964237858 0.096845211734 0.15420224293 0.24150642331 0.32178145305 0.35129646208 0.31826715055 0.25621680217 
0.20168965423 0.16829883549 0.15306982428 0.1462880194 0.13798229277 0.12176345251 0.096647988327 0.069848260445 0.07846913083 
0.17390209111 0.41319494142 0.98155604354 1.8145104334 1.6022162939 0.81056900825 0.40729990575 0.24811337983 0.18084638492 
0.1462916298 0.11965192858 0.089347592949 0.047042355067 0.011160126387 0.07827473837 0.15123048438 0.21829953637 0.27637216043 
0.32404085533 0.36658964265 0.40140278624 0.42267679835 0.40806815171 0.35001528108 0.26183184967 0.17189002935 0.10627916635 
0.088596590552 0.10331426813 0.11082776829 0.097200305919 0.066295106992 0.032171816185 0.03789325975 0.072559687833 0.10642760506 
0.13697702246 0.16342862911 0.18400697325 0.19579362466 0.19828612864 0.19380005632 0.18818648257 0.18545976582 0.18890160717 
0.1983759243 0.2097310475 0.21421078848 0.20470550721 0.17529181221 0.13280765735 0.084490877232 0.044064764632 0.03542478803 
0.051478462877 0.060337788783 0.057215493279 0.050561436315 0.050867548053 0.056393077681 0.062829840599 0.063832954825 0.060419887248 
0.053361816431 0.045901843664 0.048036786633 0.069732950447 0.11241499869 0.17299926948 0.23954829934 0.28986790679 0.29719556661 
0.26173484305 0.21024802709 0.16644136783 0.14109379137 0.13219801445 0.13294292185 0.13737936657 0.14111088129 0.14147586817 
0.13976428116 0.14007053257 0.14682435397 0.15856626028 0.1529837546 0.10427763222 0.0057572164313 0.16857192829 0.34589129458 
0.45004622889 0.40570311245 0 
Torsion 1 120 double
0 0 0.51451877063 0.30874324419 0.17527538504 0.096226396785 0.05988574757 0.073954918642 0.1618195019 
0.39276160823 0.85254072494 1.0119262653 0.55831667556 0.25453728202 0.11111308645 0.028353331352 -0.044025149021 -0.12564372608 
-0.20138306624 -0.22570568681 -0.17790094912 -0.095925597029 -0.010700575096 0.095297633246 0.32633846505 1.0700686 1.4165454664 
0.45339994596 0.046132111428 -0.11065153002 -0.14361814534 -0.20873402521 -0.34703870936 -0.39893924317 -0.33396723308 -0.23330305516 
-0.14296271276 -0.07074677617 0.00027268168802 0.17456781005 4.4880779152 0.24502016565 0.18371337734 0.16877653956 0.13585188198 
0.084356521209 0.027990912193 -0.021394343016 -0.058260546259 -0.090597362199 -0.13855349733 -0.2385886749 -0.48396129927 -1.0193998862 
-1.0578363202 -0.45494898725 -0.1331573203 0.068527742315 0.38981090996 1.8601426071 1.4229759238 0.5274148018 0.38231928663 
0.33878418472 0.30222724079 0.2597522609 0.22096228412 0.18794752117 0.16382576494 0.14281772424 0.12539481386 0.11273558802 
0.10354898569 0.10028324727 0.10536201231 0.12292853693 0.16605389499 0.25756786129 0.50469291541 1.3970535454 1.673389352 
0.70122401705 0.54946815541 0.67442621803 0.9048039624 0.86991670058 0.64449021024 0.4650644804 0.39836986122 0.42561881989 
0.55563514141 0.8581067943 1.0498066433 0.71872783065 0.40135719168 0.22312911326 0.11604157004 0.041018017497 -0.024706178518 
-0.10302653044 -0.20039631598 -0.28849274209 -0.30592038859 -0.24273335484 -0.16080340944 -0.11137456876 -0.11166508858 -0.16890749043 
-0.28668791725 -0.42179304353 -0.46743269454 -0.37699349887 -0.25675353436 -0.13044380204 30.426262706 -0.014511570949 -0.030642750015 
-0.018361205267 0 0 
FrenetTangent 3 120 double
-0.62988441666 -0.72918161687 0.26746923424 -0.62988441666 -0.72918161687 0.26746923424 -0.64459892776 -0.71617633851 0.26755125582 
-0.6624103078 -0.70250729119 0.26018472275 -0.68330678158 -0.68759351941 0.24557482426 -0.70714591304 -0.67067230711 0.22392702864 
-0.73348476976 -0.65093837123 0.19565103983 -0.76122033249 -0.6280603191 0.16150492554 -0.78812807366 -0.60320088204 0.12248606215 
-0.81059894344 -0.58016939493 0.07957905557 -0.8236427693 -0.56612693617 0.033359866844 -0.82097945791 -0.57072235347 -0.016392832262 
-0.79445755711 -0.60320242559 -0.070597618345 -0.73366846815 -0.66703307224 -0.12960501295 -0.62982165017 -0.75293528206 -0.19082229957 
-0.48641856672 -0.83779665237 -0.24797932821 -0.32541979631 -0.89820986513 -0.29550125947 -0.1735701018 -0.92645367617 -0.33400150551 
-0.044519426694 -0.92837800528 -0.36896110901 0.062021660121 -0.9118988054 -0.40570171602 0.15201666539 -0.88175146767 -0.44654818633 
0.2309537335 -0.84043812853 -0.49022864574 0.30147016282 -0.79095814432 -0.53244807716 0.36359707476 -0.73885637317 -0.56735211911 
0.4164572979 -0.69229423167 -0.58931486984 0.46005313087 -0.6603693636 -0.59351783494 0.49613045447 -0.65139450501 -0.57405554696 
0.52806917525 -0.6722141924 -0.5189133123 0.5589598997 -0.72664453107 -0.39943905167 0.5805832424 -0.8000075466 -0.15136387954 
0.53548964866 -0.79106765425 0.29574110736 0.36322659457 -0.5525076506 0.75020113105 0.19217070577 -0.24889698021 0.94927378194 
0.097857020897 -0.025875805318 0.99486403401 0.056346911957 0.13202644495 0.98964339201 0.043429257933 0.2527199088 0.96656430063 
0.045505602276 0.35011603183 0.93560034439 0.054315548562 0.42868540614 0.90181962927 0.063872307065 0.48797408294 0.87051801978 
0.069641016765 0.52493718933 0.84828714245 0.069152739629 0.53536020468 0.84178818586 0.063204117102 0.51505412712 0.85482424259 
0.056159832533 0.46047500936 0.88589437235 0.054288127185 0.37060956464 0.92720081419 0.06267410341 0.24772531114 0.96680097589 
0.08242392135 0.09650776355 0.99191357928 0.1102430378 -0.077178972 0.9909035669 0.13988503547 -0.26568538156 0.95385714595 
0.16362077266 -0.45702181739 0.87427644437 0.17407026226 -0.63237881542 0.75484871173 0.16709929893 -0.77160932965 0.61375635776 
0.14351074596 -0.86565265316 0.47963543434 0.10724274149 -0.91998024708 0.37700840758 0.062020152753 -0.94638671595 0.3170263152 
0.010354351239 -0.95430169321 0.29866547464 -0.045290146288 -0.94873734629 0.31280385293 -0.10119637318 -0.93305755674 0.34519978254 
-0.15239533448 -0.91237411702 0.37993306335 -0.19391725456 -0.89395136986 0.40403842231 -0.22161108281 -0.88461768123 0.41029268339 
-0.23191376655 -0.88784837092 0.39741826221 -0.22135882192 -0.90277896845 0.36876877048 -0.18677930153 -0.92509095855 0.33063607023 
-0.12638186964 -0.94844202865 0.2906636223 -0.041127018655 -0.96574295021 0.25622084705 0.064356082888 -0.97039973761 0.23277165602 
0.18191929249 -0.9577321455 0.22283291611 0.30186461502 -0.92612683349 0.22620088967 0.41569545758 -0.87706878346 0.24072315142 
0.5182784696 -0.81351311558 0.26378748783 0.60804335891 -0.73781280975 0.29311351292 0.68521957368 -0.65068881166 0.32722806454 
0.74999741106 -0.55136320846 0.36537993344 0.80093837123 -0.43951272778 0.40660335415 0.8348941806 -0.31828825097 0.44904821177 
0.84932532607 -0.19591740129 0.49016615793 0.84520327248 -0.084953949598 0.52764974617 0.82810048843 0.0024083075759 0.56057450987 
0.80610875902 0.058861487925 0.58883273845 0.78665921379 0.083051852188 0.61177583411 0.77443718483 0.078927543794 0.62770812452 
0.77116571639 0.054612287053 0.63428773909 0.77634456749 0.021304743391 0.62994858555 0.78833680622 -0.0088594378318 0.61518012835 
0.80460806833 -0.026242225722 0.59322609683 0.82218059635 -0.025913210819 0.56863659089 0.83780765283 -0.0080894738473 0.54590557543 
0.84854662327 0.023305317349 0.52860712285 0.85267541255 0.062304987056 0.51871256918 0.8498412704 0.10227171287 0.51702061068 
0.840748989 0.13728231395 0.52373151879 0.82703510902 0.16195098113 0.53831664302 0.8104658211 0.17133440139 0.56016932773 
0.79213158495 0.16002834265 0.5889978622 0.77218617396 0.12171054398 0.62363054465 0.74858177126 0.049862378149 0.66116493781 
0.71623590907 -0.058571313659 0.69539594749 0.66818402478 -0.197076081 0.71741977065 0.60086975483 -0.34599579794 0.72058479414 
0.51907278093 -0.48024704477 0.70705461181 0.43176742659 -0.58449198107 0.6869832701 0.34505477571 -0.65687914839 0.67040807437 
0.26015173141 -0.70287580571 0.66203223365 0.17528516357 -0.72906009108 0.66162413425 0.088475852932 -0.74031752501 0.66640977305 
-0.00086983340208 -0.73955719033 0.67309316266 -0.091337945221 -0.72813068245 0.67932546621 -0.17938333822 -0.70636326872 0.68474268932 
-0.26054225624 -0.67382640382 0.69143019187 -0.33043327401 -0.62944536333 0.70328684476 -0.38511209937 -0.57256320655 0.72378176643 
-0.42202546131 -0.50484145511 0.75301368859 -0.4411138492 -0.43380072483 0.78564336895 -0.44647255589 -0.37574689277 0.81208160268 
-0.44733220544 -0.35304897186 0.82173616292 -0.45319232464 -0.38705848503 0.80299591908 -0.46571300152 -0.48611205597 0.7394636362 
-0.47455531985 -0.63020471908 0.61452360447 -0.46481003463 -0.76893178958 0.43897099527 -0.46481003463 -0.76893178958 0.43897099527 

FrenetNormal 3 120 double
-0.70105970993 0.68200006333 0.20830553695 -0.70105970993 0.68200006333 0.20830553695 -0.76334589492 0.62230471461 -0.17332018602 
-0.7330821257 0.53633210502 -0.41825646451 -0.68110252079 0.47911226066 -0.55367029707 -0.63057734054 0.45491446461 -0.6288283132 
-0.58403689082 0.45632223449 -0.67132028755 -0.53477505203 0.46708135096 -0.70416663888 -0.47024934405 0.46168767369 -0.75213698645 
-0.36322500145 0.39152377576 -0.84544469443 -0.14038684087 0.1465447054 -0.9791915973 0.22635726403 -0.29898627314 -0.92702189699 
0.48878541752 -0.56607099933 -0.66381657055 0.63685963327 -0.60849018463 -0.47344429737 0.75832253614 -0.54286307821 -0.36089695135 
0.86286234745 -0.41599994023 -0.28707598139 0.93478395254 -0.25852786847 -0.24360275718 0.96597301636 -0.094122463935 -0.24090889035 
0.95589769321 0.06773783822 -0.28578170933 0.90526843321 0.22256759061 -0.36187391651 0.82953690184 0.3594572774 -0.42738623539 
0.75781227281 0.47138918494 -0.45112392477 0.70997109247 0.5589656194 -0.42836723052 0.69708806188 0.61980686421 -0.36042708702 
0.74099765002 0.63403574703 -0.22118126987 0.86470457895 0.48499549292 0.13063446328 0.69148108129 -0.10340755971 0.71495509706 
0.32460544125 -0.40487248095 0.85481552494 0.15542605006 -0.38136613483 0.91126429436 0.0091695022263 -0.17946851338 0.98372098327 
-0.2095925586 0.21474462179 0.95391598518 -0.40135871782 0.63386502964 0.66115527966 -0.42057001944 0.85308453893 0.30881649598 
-0.31944228211 0.94594813537 0.056024580207 -0.17030836875 0.97796184152 -0.12077125512 -0.028344110538 0.96739934483 -0.25166469562 
0.075420260251 0.93269339655 -0.35269648761 0.13508808194 0.89169483282 -0.43200872125 0.15004935448 0.85768686878 -0.49179103931 
0.098248053665 0.84260838585 -0.52948883657 -0.60057584727 -0.65142557641 0.46363063971 -0.1801147159 -0.83658510781 0.51738191552 
-0.07342199957 -0.8829875648 0.4636185613 0.0205725751 -0.92878820121 0.37003952011 0.10013751831 -0.96537792389 0.2408691377 
0.15038149974 -0.98510824549 0.083349560331 0.1630508339 -0.98206892906 -0.094631095047 0.14041347201 -0.94827096364 -0.28472133114 
0.086544083329 -0.87615339306 -0.47419969788 0.011202148532 -0.76523022659 -0.64365923607 -0.083788222549 -0.63137037729 -0.77094161935 
-0.21002652423 -0.50025274862 -0.84002145605 -0.41323251552 -0.38613536974 -0.82470501657 -0.76594410323 -0.24878196009 -0.59282136184 
-0.99986521855 -0.0060752087209 0.01525242816 -0.88687401193 0.18230442127 0.42452277318 -0.79153926325 0.28571011949 0.54021784714 
-0.77691941344 0.34820362107 0.52454786559 -0.84790282533 0.35987695115 0.38929343537 -0.97078431177 0.16044093539 -0.17842793018 
-0.030217069271 -0.40178436885 -0.91523562522 0.47629563306 -0.43006466127 -0.7669334111 0.7044882314 -0.3606959099 -0.61122401164 
0.85476124134 -0.25281461659 -0.45328577073 0.94856529612 -0.1183027518 -0.2936466208 0.98857406612 0.030133952992 -0.14769313004 
0.98316843411 0.18105243463 -0.024491755359 0.94233718788 0.32581827749 0.076440005209 0.87548200458 0.45758957395 0.15538031234 
0.78907145079 0.57381991228 0.21931017721 0.69014249077 0.6737197319 0.26420648231 0.57936779696 0.75922299634 0.29650193535 
0.45845540025 0.8315081813 0.31370812935 0.32578703016 0.88966707888 0.31993014821 0.18386521104 0.93025545048 0.31751910339 
0.03652699601 0.94816085704 0.31568460167 -0.11042012117 0.93822585129 0.3279323845 -0.25790211364 0.8895146715 0.37716064079 
-0.41861962175 0.76002339214 0.49711372511 -0.6035228438 0.31226631905 0.7336551799 -0.35651415769 -0.76519971669 0.5360662729 
0.03817501509 -0.99848781761 0.03955687444 0.24326594853 -0.9321212833 -0.26827521599 0.42126439194 -0.72096613735 -0.55022190149 
0.56094063952 -0.29416150523 -0.77383112355 0.54770570406 0.30810133146 -0.77787661701 0.38400439674 0.71949760819 -0.57867418734 
0.19118035057 0.91803401099 -0.3473667057 0.013744294712 0.98984453453 -0.14148813319 -0.15628724561 0.98577017474 0.061898783975 
-0.3400884251 0.88658043131 0.31355223157 -0.51352926217 0.6072254127 0.6062713873 -0.57038951802 0.013017140949 0.82127118041 
-0.4345924352 -0.52969466034 0.72839067956 -0.30970041111 -0.78490826139 0.53666067172 -0.26542321762 -0.89124884841 0.36773088768 
-0.28808820606 -0.93241603491 0.21818690009 -0.36044665412 -0.92930593831 0.080428120408 -0.4604923367 -0.88668081944 -0.041760415205 
-0.5737035494 -0.80895447462 -0.12828443159 -0.69596043469 -0.70037452957 -0.15847583941 -0.82176099997 -0.55654121169 -0.12235496974 
-0.92323162731 -0.38187090865 -0.042637676562 -0.97845478895 -0.20347041473 0.0350145157 -0.99590974906 -0.053438861174 0.0728564331 
-0.99471458008 0.069749758343 0.075351678122 -0.98177612309 0.18000691559 0.060935658385 -0.9522215877 0.29954625261 0.059549059288 
-0.89108046708 0.44348482785 0.096419959822 -0.76450091783 0.61547223604 0.19165665471 -0.55866129102 0.76888469046 0.31098857647 
-0.3253615036 0.85961332327 0.39396043764 -0.1360441514 0.89762165986 0.41924616232 -0.008011902492 0.90920159478 0.41627907643 
-0.60574083017 -0.55637704157 -0.56879050122 -0.12345948167 -0.86487747671 -0.48656418555 -0.082931355851 -0.80796076847 -0.58337105416 
-0.0067005021559 -0.69553665488 -0.71845936906 0.093618067933 -0.53568427383 -0.83921273592 0.093618067933 -0.53568427383 -0.83921273592 

FrenetBinormal 3 120 double
-0.33430660293 -0.056303492141 -0.94078106487 -0.33430660293 -0.056303492141 -0.94078106487 -0.042370591681 -0.31595615887 -0.94782721982 
0.15428279586 -0.46779416302 -0.87026745311 0.26304219895 -0.54558830059 -0.7957023362 0.31987009125 -0.58587668188 -0.74460166422 
0.34770821487 -0.60667063154 -0.71487743155 0.36682318511 -0.62239476794 -0.6914228111 0.39713938855 -0.65037926464 -0.64752383601 
0.45934404451 -0.71422167861 -0.52810078827 0.54945802705 -0.8111873652 -0.20017725908 0.52417088694 -0.76477657112 0.37464873889 
0.36045250114 -0.56188117737 0.74455593272 0.23693962595 -0.42989135342 0.87123649941 0.16814166692 -0.3720055636 0.91287471238 
0.13735191047 -0.35361111266 0.92525328083 0.14241108893 -0.35550299493 0.92376225423 0.19175388243 -0.36445102237 0.91126609773 
0.29030608116 -0.36541191085 0.88441874395 0.42028844561 -0.34482493575 0.83931721427 0.5373634356 -0.30545836867 0.78608887735 
0.61023022882 -0.26731252952 0.74576342053 0.63644071898 -0.24888280429 0.73006887411 0.61795258815 -0.26444415461 0.74040791992 
0.52676921102 -0.34456837968 0.77703721278 0.20158647753 -0.57331638339 0.79414810748 -0.5250795048 -0.75165954756 0.39912333707 
-0.7847128479 -0.61984381396 0.0044037074408 -0.81449774308 -0.57144343261 -0.10022888721 -0.81414926081 -0.57251984951 -0.096860740426 
-0.818120893 -0.57279727113 -0.05080837161 -0.84081961242 -0.54124894478 0.0084828739009 -0.88667427988 -0.45858157691 0.059259250117 
-0.94253945905 -0.32328403593 0.084301840148 -0.98377847356 -0.16173946446 0.077590338253 -0.99865435009 -0.0164667944 0.049176556701 
-0.9961129577 0.086612887554 0.016036932511 -0.98934373769 0.14528987465 -0.0094773952757 -0.98661315601 0.1620324952 -0.018437757098 
-0.99272224148 0.12021670164 0.007106047577 0.79657174836 -0.53761898185 0.27647654524 0.98161292203 -0.18666709278 0.039893204662 
0.99571847587 -0.091080876988 -0.015779437828 0.99831336183 -0.0010138441483 -0.058046565097 0.992997701 0.081716793181 -0.085310793711 
0.98518612542 0.14229545406 -0.095709466767 0.98043913538 0.17200007228 -0.095682166325 0.98016133046 0.17376264717 -0.095343110494 
0.98271988094 0.15325237442 -0.1038043609 0.98466951596 0.12049785942 -0.12611982481 0.98237332927 0.07739824981 -0.17015332164 
0.9671057465 0.019815942612 -0.25360166305 0.90428860577 -0.067348505739 -0.42157596736 0.63990868988 -0.20605756528 -0.74030881962 
-0.012740962923 -0.29878314907 -0.9542359759 -0.45978613464 -0.2581909095 -0.84966709048 -0.60268141567 -0.21857109469 -0.7674645189 
-0.61087796413 -0.21523872529 -0.76190577113 -0.4934135154 -0.26709460562 -0.82777024256 0.092012759959 -0.43784730708 -0.89432845627 
0.97226690451 -0.22426455629 0.066351150595 0.8509657701 0.0058754786188 0.52518828706 0.68469688501 0.11876522638 0.71908622338 
0.50339928817 0.19116089542 0.84264266966 0.31389878517 0.2309653936 0.92093568702 0.1363070445 0.23961697379 0.96125131755 
-0.01688790057 0.22353781201 0.9745489446 -0.14449352421 0.19008297752 0.97107676479 -0.24643162582 0.14615789712 0.95807584403 
-0.32977821867 0.094483432713 0.9393184803 -0.3924112844 0.041641092932 0.91884677899 -0.44136956362 -0.01358352688 0.8972226012 
-0.47678352466 -0.067769881216 0.87640442366 -0.50235499049 -0.12377823261 0.8557560474 -0.5187921466 -0.18253050743 0.83518699852 
-0.52660447118 -0.25021462995 0.81245330321 -0.52291378355 -0.33543267344 0.78361093443 -0.49773093217 -0.45690026181 0.73722864155 
-0.41826580175 -0.64722466628 0.63730208727 -0.13010556625 -0.94635729819 0.29577086706 0.52263247328 -0.63893648856 -0.56446032763 
0.63548887172 -0.006290961404 -0.77208439806 0.58147294934 0.36151904671 -0.72883001314 0.44839869764 0.69291365924 -0.56463197642 
0.1948113326 0.95539539167 -0.22196438962 -0.15504041 0.95100056523 0.26750774981 -0.38809658611 0.69444780381 0.60590699586 
-0.49337480854 0.39581614022 0.77453914132 -0.5222602179 0.12777279076 0.84315975873 -0.50333300307 -0.13340786838 0.85373194193 
-0.42128493992 -0.44173374909 0.79207972724 -0.22869329972 -0.7778490714 0.58536330324 0.13342020298 -0.98512693443 0.10827729446 
0.42855217581 -0.83295527873 -0.3500407637 0.55481002884 -0.60754058687 -0.56840150177 0.60759842601 -0.45076516442 -0.65393800873 
0.63561883869 -0.35660866375 -0.68470355107 0.65085199436 -0.31233234113 -0.69198279612 0.65337764392 -0.3067312052 -0.69210810007 
0.63358321119 -0.33905078376 -0.69542568297 0.57377344194 -0.40968846993 -0.7091822015 0.45348215036 -0.50869604294 -0.73183486881 
0.28277984188 -0.60011683103 -0.74826155196 0.10909325099 -0.65350682776 -0.74901768248 -0.018324714887 -0.67013002491 -0.74201748937 
-0.1026749608 -0.66947003924 -0.73570899069 -0.16665240438 -0.66137978471 -0.73130278032 -0.24717537476 -0.64134466175 -0.72634795998 
-0.3716091144 -0.59099846445 -0.7159800843 -0.55349091958 -0.47433370241 -0.68458406401 -0.73456533599 -0.28458339249 -0.61597569748 
-0.84618815991 -0.078740330522 -0.52703468422 -0.88707979399 0.078053102991 -0.45496939699 -0.89476145774 0.1793508646 -0.4089440073 
0.65800603693 -0.75219745485 0.035029191753 0.88282188083 -0.31964461429 0.34416979426 0.88104131029 -0.33300820658 0.3359639027 
0.88020017704 -0.34506633242 0.32584793165 0.8804472097 -0.34897888438 0.32097733438 0.8804472097 -0.34897888438 0.32097733438 

plain_curvature_peaks 1 120 unsigned_char
0 0 0 0 0 0 0 1 0 
0 0 0 0 0 0 0 0 0 
0 0 0 0 0 0 0 0 0 
0 0 1 0 0 0 0 0 0 
0 0 0 0 0 0 0 0 0 
0 0 0 0 0 0 0 0 0 
0 0 0 0 0 0 0 0 0 
0 0 0 0 0 0 1 0 0 
0 0 0 0 0 0 0 0 0 
0 0 0 0 0 0 0 0 0 
0 0 0 0 0 0 0 0 0 
0 0 0 1 0 0 0 0 0 
0 0 0 0 0 0 0 0 0 
0 0 0 
weighted_curvature_peaks 1 120 unsigned_char
0 0 0 0 0 0 0 0 0 
1 0 0 0 0 0 0 0 0 
0 0 0 0 0 0 0 0 0 
0 0 0 0 1 0 0 0 0 
0 0 0 0 0 0 0 0 0 
0 0 0 0 0 0 0 0 0 
0 0 0 0 0 0 0 0 0 
0 0 0 0 0 0 0 0 0 
0 0 1 0 0 0 0 0 0 
0 0 0 0 0 0 0 0 0 
0 0 0 0 0 0 0 0 0 
0 0 0 0 0 0 0 1 0 
0 0 0 0 0 0 0 0 0 
0 0 0 
plain_torsion_tp 1 120 unsigned_char
0 0 0 0 0 0 0 1 0 
0 0 0 0 0 0 0 0 0 
0 0 0 0 0 0 0 0 0 
0 0 1 0 0 0 0 0 0 
0 0 0 0 0 0 0 0 0 
0 0 0 0 0 0 0 0 0 
0 0 0 0 0 0 0 0 0 
0 0 0 0 0 0 1 0 0 
0 0 0 0 0 0 0 0 0 
0 0 0 0 0 0 0 0 0 
0 0 0 0 0 0 0 0 0 
0 0 0 1 0 0 0 0 0 
0 0 0 0 0 0 0 0 0 
0 0 0 
plain_torsion_tn 1 120 unsigned_char
0 2 0 0 0 0 0 0 0 
0 0 0 0 0 0 0 0 0 
0 0 0 0 0 2 0 0 0 
0 0 0 0 0 0 0 0 0 
0 0 0 0 0 0 0 0 0 
2 0 0 0 0 0 0 0 0 
0 0 0 0 0 0 0 0 0 
0 0 0 0 0 0 0 0 0 
0 0 0 0 0 0 0 0 0 
0 0 0 0 2 0 0 0 0 
0 0 0 0 0 0 0 0 0 
0 0 0 0 0 0 0 0 0 
0 0 0 0 0 0 0 0 0 
0 0 0 
plain_torsion_tz 1 120 unsigned_char
0 3 0 0 0 0 0 0 0 
0 0 0 0 0 0 0 0 3 
0 0 0 0 0 3 0 0 0 
0 0 0 0 0 0 0 0 0 
0 0 0 0 0 0 0 0 0 
0 0 0 0 0 0 0 3 0 
0 0 0 0 0 0 0 0 0 
0 0 0 0 0 0 0 0 0 
0 0 0 0 0 0 3 0 0 
0 0 0 0 0 0 0 0 0 
0 0 3 0 0 0 0 0 0 
0 0 0 0 0 0 0 0 0 
0 0 0 0 0 0 0 0 0 
0 0 0 
weighted_torsion_tp 1 120 unsigned_char
0 0 0 0 0 0 0 0 0 
1 0 0 0 0 0 0 0 0 
0 0 0 0 0 0 0 0 0 
0 0 0 0 1 0 0 0 0 
0 0 0 0 0 0 0 0 0 
0 0 0 0 0 0 0 0 0 
0 0 0 0 0 0 0 0 0 
0 0 0 0 0 0 0 0 0 
0 0 1 0 0 0 0 0 0 
0 0 0 0 0 0 0 0 0 
0 0 0 0 0 0 0 0 0 
0 0 0 0 0 0 0 1 0 
0 0 0 0 0 0 0 0 0 
0 0 0 
weighted_torsion_tn 1 120 unsigned_char
0 0 2 0 0 0 0 0 0 
0 0 0 0 0 0 0 0 0 
0 0 0 0 2 0 0 0 0 
0 0 0 0 0 0 0 0 0 
0 0 0 0 0 0 0 0 0 
0 0 0 2 0 0 0 0 0 
0 0 0 0 0 0 0 0 0 
0 0 0 0 0 0 0 0 0 
0 0 0 0 0 0 0 0 0 
0 0 0 0 0 0 0 0 0 
2 0 0 0 0 0 0 0 0 
0 0 0 0 0 0 0 0 0 
0 0 0 0 0 0 0 0 0 
0 0 0 
weighted_torsion_tz 1 120 unsigned_char
0 0 3 0 0 0 0 0 0 
0 0 0 0 0 0 0 0 0 
0 3 0 0 0 3 0 0 0 
0 0 0 0 0 0 0 0 0 
0 0 0 0 0 0 0 0 0 
0 0 0 0 0 0 0 0 0 
0 0 0 3 0 0 0 0 0 
0 0 0 0 0 0 0 0 0 
0 0 0 0 0 0 0 0 0 
0 0 0 3 0 0 0 0 0 
0 0 0 0 0 0 0 3 0 
0 0 0 0 0 0 0 0 0 
0 0 0 0 0 0 0 0 0 
0 0 0 
plain_torsion_tp_raw 1 120 unsigned_char
0 0 0 0 0 0 0 0 0 
0 0 0 1 0 0 0 0 0 
0 0 0 0 0 1 0 0 0 
0 0 0 0 0 0 0 0 0 
0 0 0 0 0 0 0 0 0 
0 0 0 0 1 0 0 0 0 
0 0 0 0 0 0 0 0 0 
0 0 0 0 0 0 0 0 0 
0 1 0 0 0 0 0 0 0 
0 0 0 0 0 0 0 0 0 
0 0 0 0 0 1 0 0 0 
0 0 0 0 0 1 0 0 0 
0 0 0 0 0 0 0 0 0 
0 0 0 
plain_torsion_tn_raw 1 120 unsigned_char
0 0 2 0 0 0 0 0 0 
0 0 0 0 0 0 0 0 0 
0 2 0 0 0 0 0 0 0 
0 0 0 0 0 0 0 0 0 
0 0 0 2 0 0 0 0 0 
0 0 0 0 0 0 0 0 0 
0 0 0 0 0 2 0 0 0 
0 0 0 0 0 0 0 0 0 
0 0 0 0 0 0 0 0 0 
0 0 0 0 0 2 0 0 0 
0 0 0 0 0 0 0 0 0 
2 0 0 0 0 0 0 0 0 
0 0 0 0 0 0 0 0 0 
0 0 0 
plain_torsion_tz_raw 1 120 unsigned_char
0 3 0 0 0 0 0 0 3 
0 0 0 0 3 0 0 0 0 
0 0 0 0 3 0 0 0 0 
0 0 0 0 0 0 0 0 0 
0 0 0 0 0 0 0 0 0 
0 0 0 0 0 0 0 0 0 
0 0 0 0 0 0 0 0 0 
0 0 0 0 0 0 0 0 0 
0 0 0 0 0 0 0 0 0 
0 0 0 0 0 0 0 0 0 
0 0 0 0 0 0 0 0 0 
0 0 0 0 0 0 0 0 0 
0 0 0 0 0 0 0 0 0 
0 0 0 
weighted_torsion_tp_raw 1 120 unsigned_char
0 0 0 0 0 0 0 0 0 
0 0 0 0 0 1 0 0 0 
0 0 0 0 0 1 0 0 0 
0 0 0 0 0 0 0 0 0 
0 0 0 0 0 0 0 0 0 
0 0 0 0 0 0 0 0 1 
0 0 0 0 0 0 0 0 0 
0 0 0 0 0 0 0 0 0 
0 0 0 0 0 0 0 1 0 
0 0 0 0 0 0 0 0 0 
0 0 0 0 0 0 0 0 0 
0 1 0 0 0 0 0 0 0 
1 0 0 0 0 0 0 0 0 
0 0 0 
weighted_torsion_tn_raw 1 120 unsigned_char
0 0 0 0 2 0 0 0 0 
0 0 0 0 0 0 0 0 0 
0 0 0 2 0 0 0 0 0 
0 0 0 0 0 0 0 0 0 
0 0 0 0 0 0 0 2 0 
0 0 0 0 0 0 0 0 0 
0 0 0 0 0 0 0 0 0 
0 0 2 0 0 0 0 0 0 
0 0 0 0 0 0 0 0 0 
0 0 0 0 0 0 0 0 0 
0 0 2 0 0 0 0 0 0 
0 0 0 0 0 2 0 0 0 
0 0 0 0 0 0 0 0 0 
0 0 0 
weighted_torsion_tz_raw 1 120 unsigned_char
0 0 3 0 0 0 0 0 0 
0 3 0 0 0 0 3 0 0 
0 0 0 0 3 0 0 0 0 
0 0 0 0 0 0 0 0 0 
0 0 0 0 0 0 0 0 0 
0 0 0 0 0 0 0 0 0 
0 0 0 0 0 0 0 0 0 
0 0 0 0 0 0 0 0 0 
0 0 0 0 0 0 0 0 0 
0 0 0 0 0 0 0 0 0 
0 0 0 0 0 0 0 0 0 
0 0 0 0 0 0 0 0 0 
0 0 0 0 0 0 0 0 0 
0 0 0 
