# vtk DataFile Version 5.1
vtk output
ASCII
DATASET POLYDATA
POINTS 120 float
-3.2004 22.3417 -9.10777 -3.7161 21.7578 -9.33756 -4.23241 21.2332 -9.4681 
-4.73954 20.7645 -9.52186 -5.22776 20.3486 -9.52133 -5.68769 19.9818 -9.48896 
-6.11073 19.6601 -9.44688 -6.48976 19.3782 -9.4165 -6.81998 19.1298 -9.4176 
-7.09963 18.9069 -9.46714 -7.33031 18.7001 -9.57808 -7.51667 18.4995 -9.75859 
-7.66539 18.2948 -10.0116 -7.78389 18.0764 -10.3345 -7.8789 17.8362 -10.7203 
-7.95529 17.5679 -11.1583 -8.01553 17.2671 -11.6356 -8.05974 16.9309 -12.1387 
-8.08613 16.5583 -12.6545 -8.09197 16.1493 -13.1708 -8.07474 15.7055 -13.6765 
-8.0334 15.2298 -14.1615 -7.96945 14.7265 -14.6155 -7.88749 14.2014 -15.028 
-7.79536 13.6624 -15.3871 -7.70354 13.1189 -15.6803 -7.62397 12.5824 -15.8944 
-7.56859 12.0656 -16.0171 -7.54785 11.5815 -16.038 -7.56936 11.1428 -15.951 
-7.63704 10.7601 -15.7545 -7.75071 10.4415 -15.4526 -7.90595 10.1908 -15.055 
-8.09467 10.0076 -14.5756 -8.30603 9.88655 -14.0316 -8.5275 9.81806 -13.4412 
-8.74594 9.78911 -12.8227 -8.94857 9.78406 -12.1925 -9.12385 9.78687 -11.5645 
-9.26228 9.78244 -10.949 -9.35693 9.75808 -10.3531 -9.40385 9.70493 -9.78041 
-9.40224 9.61875 -9.23144 -9.35444 9.49992 -8.70436 -9.2657 9.3526 -8.19581 
-9.1435 9.18308 -7.70192 -8.99671 8.99784 -7.21935 -8.83447 8.80133 -6.7463 
-8.66509 8.59424 -6.28314 -8.49516 8.37306 -5.83271 -8.329 8.13074 -5.39995 
-8.16878 7.85813 -4.99102 -8.01506 7.54632 -4.61212 -7.86773 7.18859 -4.26813 
-7.72692 6.78179 -3.9614 -7.59382 6.32701 -3.69089 -7.47081 5.82946 -3.45192 
-7.36106 5.2977 -3.23651 -7.26774 4.74246 -3.03433 -7.19313 4.17507 -2.83397 
-7.13778 3.60598 -2.62454 -7.09987 3.04377 -2.39723 -7.07516 2.49403 -2.14671 
-7.05712 1.95909 -1.87186 -7.03756 1.43833 -1.57575 -7.00728 0.92916 -1.2648 
-6.9569 0.428251 -0.947478 -6.87756 -0.0675095 -0.632531 -6.76164 -0.559563 -0.327428 
-6.60315 -1.04726 -0.0372167 -6.39799 -1.52772 0.235943 -6.14409 -1.99631 0.492623 
-5.8414 -2.44771 0.735519 -5.4918 -2.87666 0.96856 -5.09889 -3.27896 1.19592 
-4.66754 -3.65195 1.42117 -4.20343 -3.99466 1.64687 -3.71245 -4.30772 1.87426 
-3.20017 -4.59299 2.10297 -2.67141 -4.85261 2.33156 -2.12997 -5.08872 2.55809 
-1.57864 -5.30302 2.78009 -1.01925 -5.49616 2.99526 -0.452885 -5.66774 3.20192 
0.119775 -5.81661 3.39919 0.698216 -5.94049 3.58742 1.28181 -6.03696 3.76773 
1.86964 -6.10351 3.94223 2.46035 -6.13824 4.1138 3.05213 -6.14061 4.28591 
3.64265 -6.11173 4.4625 4.22898 -6.05486 4.64749 4.80792 -5.97573 4.84529 
5.3757 -5.88185 5.06014 5.92825 -5.78186 5.29613 6.46172 -5.68469 5.55724 
6.97274 -5.59845 5.8468 7.45879 -5.52978 6.16695 7.91898 -5.48344 6.51825 
8.35429 -5.4627 6.89894 8.76759 -5.46972 7.30485 9.16339 -5.50631 7.72937 
9.54707 -5.57503 8.16354 9.92341 -5.67909 8.59764 10.2956 -5.82296 9.02172 
10.6641 -6.01163 9.42715 11.0262 -6.24963 9.80765 11.3762 -6.53994 10.1598 
11.7063 -6.88325 10.4835 12.0073 -7.27759 10.7816 12.2703 -7.71825 11.0593 
12.4877 -8.19822 11.3231 12.6541 -8.70933 11.5798 12.7673 -9.24322 11.8353 
12.8284 -9.79194 12.0936 12.8418 -10.3492 12.3566 12.814 -10.9104 12.6234 
12.7535 -11.473 12.8907 12.669 -12.0366 13.1526 12.5684 -12.6017 13.4021 

LINES 2 120
OFFSETS vtktypeint64
0 120 
CONNECTIVITY vtktypeint64
0 1 2 3 4 5 6 7 8 
9 10 11 12 13 14 15 16 17 
18 19 20 21 22 23 24 25 26 
27 28 29 30 31 32 33 34 35 
36 37 38 39 40 41 42 43 44 
45 46 47 48 49 50 51 52 53 
54 55 56 57 58 59 60 61 62 
63 64 65 66 67 68 69 70 71 
72 73 74 75 76 77 78 79 80 
81 82 83 84 85 86 87 88 89 
90 91 92 93 94 95 96 97 98 
99 100 101 102 103 104 105 106 107 
108 109 110 111 112 113 114 115 116 
117 118 119 
CELL_DATA 1
FIELD FieldData 2
Length 1 1 double
69.161553964 
Tortuosity 1 1 double
0.55571027783 
POINT_DATA 120
FIELD FieldData 19
Curvature 1 120 double
0 0.15830700755 0.1510737 0.1325646974 0.1027029634 0.059139828897 0.036360128631 0.15153624122 0.35746121362 
0.62533101329 0.77872004705 0.65607573939 0.40922478278 0.22112094475 0.11979250467 0.079514680522 0.072743216065 0.077660972088 
0.084886961008 0.091590603619 0.097155979591 0.10208165906 0.10842105075 0.12038061139 0.14448134147 0.18995793864 0.26877981536 
0.39329912083 0.55575365559 0.68562974295 0.67453780046 0.53082741411 0.36630258898 0.24114309554 0.15786100739 0.10384561516 
0.070146259746 0.062011470922 0.081370767754 0.11655691137 0.1555928677 0.18633164971 0.1968680617 0.18220552981 0.14866330113 
0.10867114678 0.074031070737 0.05552439486 0.064614070666 0.097463657002 0.1425738609 0.18758148562 0.21825918665 0.22364620327 
0.20224686126 0.16335011961 0.11945928298 0.080855496209 0.057564894452 0.057406908229 0.069980151176 0.079837144962 0.08002661526 
0.070749882861 0.060245268152 0.06344025291 0.083407014606 0.10870008159 0.13037946921 0.14479957227 0.15161281789 0.15196321479 
0.14764594552 0.13975342547 0.12908792141 0.11640089058 0.10248350444 0.088471730957 0.07645785765 0.067030044014 0.060960971956 
0.059229645809 0.060915278149 0.064405485793 0.069885885967 0.075297791107 0.080617533869 0.084481069778 0.085327650767 0.083121932606 
0.077541155906 0.0701579433 0.066051546322 0.070210751451 0.084153444618 0.10353420621 0.1224256171 0.13516187119 0.13768374446 
0.1298785772 0.11589181008 0.10509237697 0.10606344185 0.12138531998 0.1442748857 0.16669346718 0.18349848325 0.19189769651 
0.19264710229 0.18740107906 0.17944351839 0.17082102533 0.16047812794 0.14677660656 0.12870897015 0.1072677974 0.083585793673 
0.062730193732 0.051757580464 0 
Torsion 1 120 double
0 0 0.030977465682 0.063584677865 0.1704871196 0.87741765938 4.2947711404 0.49581959656 0.18417596168 
0.11255437813 0.1021402491 0.13614999387 0.23473874421 0.44044531458 0.76373854156 0.87147276102 0.51401438183 0.2116722865 
0.082697565355 0.051662186707 0.071538894668 0.12145644303 0.18636783156 0.24134929341 0.25579719618 0.22300751895 0.16611721392 
0.10864619262 0.062750889678 0.030618705562 0.0058323421642 -0.021219113872 -0.057260936211 -0.11063955943 -0.20347193979 -0.39482487488 
-0.79034294268 -0.98769532437 -0.58420643083 -0.27941237571 -0.13142347897 -0.053314614052 -0.005650435779 0.024960884038 0.033145390059 
-0.026623505949 -0.29900669627 -0.80259871085 -0.57009459716 -0.14438167101 0.0051499334681 0.033642178331 0.019981308369 -0.015261815977 
-0.071395682658 -0.16062028169 -0.32271251415 -0.65293778366 -1.1118284208 -0.94740586921 -0.55121836557 -0.39137880147 -0.40382657346 
-0.58826564419 -0.93428398628 -0.90184162209 -0.47399449329 -0.18721112534 -0.029200068472 0.069624418484 0.13369586351 0.17177383039 
0.18546770185 0.17654261468 0.15398379034 0.12197710451 0.075051828007 0.018139018982 -0.036253482307 -0.092120460166 -0.12837618069 
-0.10290390646 -0.041588131484 0.038884120971 0.099043894089 0.13591595447 0.16465092846 0.18186616336 0.20669112453 0.24568417207 
0.33017993983 0.47595973884 0.60657548215 0.59045729709 0.42189441346 0.26353339298 0.17033469601 0.13845394176 0.15553485357 
0.22311841977 0.36425323001 0.50361980078 0.48014533667 0.29057163264 0.096863305446 -0.033319098981 -0.12373590443 -0.19585362728 
-0.24855065391 -0.28236345643 -0.29304727949 -0.2718326769 -0.22772532858 -0.16935274574 -0.096878830385 0.002784522109 0.17397097132 
0.47678768556 0 0 
FrenetTangent 3 120 double
-0.66290534897 -0.71202879068 -0.23145517828 -0.66290534897 -0.71202879068 -0.23145517828 -0.71167332362 -0.69072263581 -0.12815350492 
-0.74687692054 -0.6637613097 -0.039947331779 -0.77091784036 -0.63637256139 0.026751570461 -0.78686214493 -0.61355151175 0.066351392687 
-0.79694881874 -0.59974147161 0.071991301828 -0.80045548785 -0.59848068722 0.033043592287 -0.78950417054 -0.6102348452 -0.065548443157 
-0.7437402731 -0.6262170374 -0.23388592997 -0.63985166781 -0.625000252 -0.44717393507 -0.49164906171 -0.59476921147 -0.63602734628 
-0.35023475518 -0.55454846591 -0.75485867235 -0.24520244573 -0.52659959154 -0.81398318828 -0.17434593656 -0.51718142836 -0.83793010721 
-0.12576957128 -0.52386007116 -0.84246818384 -0.088980214828 -0.54266764292 -0.8352211388 -0.05678657746 -0.57015939143 -0.81956912642 
-0.024887115481 -0.60356501991 -0.79692527769 0.0085618885115 -0.64062629156 -0.76780508505 0.043287809979 -0.67961960356 -0.73228639204 
0.077383030527 -0.71954569302 -0.69012017956 0.10787330385 -0.76028312098 -0.64057234273 0.13129196444 -0.80256542691 -0.58193741554 
0.14401785975 -0.84756524257 -0.51077589572 0.14218824675 -0.89590585463 -0.42087433056 0.12114169089 -0.94549595696 -0.30226161864 
0.075067615412 -0.98707589269 -0.14158402166 -0.00082873795878 -0.99744488721 0.071435356664 -0.10209581838 -0.94033306617 0.32457690698 
-0.20625939354 -0.79763357975 0.56677838264 -0.28573253078 -0.60495422703 0.743227626 -0.33163740057 -0.41833222727 0.8455854671 
-0.3508883201 -0.26680697688 0.89760315502 -0.35221607562 -0.15421845814 0.92312539952 -0.34099086342 -0.075532708484 0.937027236 
-0.31942401427 -0.025787831131 0.94726093917 -0.2876524701 -0.0017000754164 0.95773334817 -0.24461103993 -0.001262652518 0.96962046433 
-0.18889946868 -0.023332162438 0.98171920676 -0.12000743635 -0.065707963965 0.99059612289 -0.040047976396 -0.12317389418 0.9915766997 
0.045058813448 -0.18695911279 0.98133378291 0.12666552883 -0.24690015429 0.96072689023 0.19672607244 -0.29548533393 0.93487286294 
0.25064613596 -0.33057297203 0.90988901779 0.2876142759 -0.35530487862 0.8894023114 0.30932309971 -0.37646688655 0.87326508193 
0.31875158611 -0.40230856645 0.85822214124 0.3193191624 -0.44036836323 0.8391132088 0.31404015865 -0.49546337729 0.80987333609 
0.30481107211 -0.56743277691 0.76492499894 0.29219642821 -0.64986247313 0.70164094333 0.27586471792 -0.73195692457 0.62300699673 
0.25536145113 -0.80323398813 0.53815024816 0.23072919437 -0.85795862642 0.45898914389 0.20258482705 -0.89586001764 0.39546708667 
0.17180543717 -0.91960521679 0.35328336644 0.13942896844 -0.9321205278 0.33423178247 0.10695445579 -0.93531777939 0.33725568332 
0.076677102978 -0.93014902065 0.35908692717 0.051673345132 -0.91753376622 0.394286258 0.035453380396 -0.89942377219 0.4356373903 
0.031311457267 -0.87916694904 0.47548403586 0.041649311509 -0.86074147898 0.50733562976 0.067654550205 -0.84719645706 0.52695448094 
0.10924946686 -0.83936359546 0.53247845835 0.16511790649 -0.83534353402 0.52434459769 0.23278429182 -0.83113001003 0.50500928695 
0.30878104034 -0.82208043688 0.4783701751 0.38906642057 -0.8043491716 0.44905426234 0.46944468188 -0.77593978075 0.4213539454 
0.54604261527 -0.73695515216 0.3984150675 0.61571554524 -0.68930339068 0.38177899752 0.67632128109 -0.6361379763 0.37137312753 
0.726927753 -0.58099817987 0.36608353815 0.76775979489 -0.5271489353 0.36422369137 0.80003662561 -0.47713478702 0.36370838964 
0.8256512563 -0.43215438097 0.3626880119 0.84654210203 -0.39212774514 0.36000319579 0.86439922468 -0.35627847944 0.35479518806 
0.88062989918 -0.32303675512 0.34660962987 0.89609003752 -0.29031611865 0.3357665795 0.9110070225 -0.25630489299 0.32306966243 
0.925171257 -0.21921771656 0.30984147231 0.93800958328 -0.17786717358 0.29749166415 0.94868520385 -0.13202553875 0.28734237611 
0.95624343116 -0.082176346956 0.28079449489 0.95982729285 -0.03011355994 0.27897086123 0.95893230269 0.02150182643 0.28281886485 
0.9535891769 0.069488443028 0.29298299949 0.94426479896 0.1102107843 0.31018957504 0.93159330622 0.14055059931 0.33523042946 
0.91597392646 0.15850378715 0.36860319519 0.89713114228 0.16286756216 0.41064567543 0.87410578863 0.15348958724 0.46084706455 
0.84573829105 0.13139468122 0.51716745915 0.81156320795 0.098646013084 0.57587683023 0.77294832538 0.057907576092 0.63182085983 
0.73333913928 0.011853944421 0.67975965664 0.69736135723 -0.037587076104 0.71573343442 0.66938188871 -0.090432907767 0.73739390848 
0.6513752871 -0.14808772747 0.74416413534 0.64227934148 -0.21273325517 0.736357121 0.63813763218 -0.28648825479 0.71463616076 
0.6326559474 -0.36949444882 0.68060289781 0.61908392846 -0.45932748876 0.63698771385 0.59178282587 -0.55133338045 0.58806852543 
0.54743351756 -0.63985609046 0.53935213669 0.48598408192 -0.71948182602 0.49615055593 0.41019544103 -0.7860846308 0.46239664074 
0.32432587223 -0.8374640894 0.4398484143 0.23364576093 -0.87309677199 0.42791551169 0.14396289062 -0.89400905463 0.42429058011 
0.060775270231 -0.90286723733 0.42560206565 -0.011661493136 -0.90366477609 0.42808174691 -0.070737316492 -0.90095449925 0.42810889074 
-0.11574242247 -0.89900584308 0.42236499114 -0.14779305155 -0.90083162699 0.40823962783 -0.14779305155 -0.90083162699 0.40823962783 

FrenetNormal 3 120 double
-0.45437303468 0.13689401703 0.88023018209 -0.45437303468 0.13689401703 0.88023018209 -0.38456766958 0.23038487323 0.89388506963 
-0.33013248713 0.31798272211 0.88876292079 -0.30926370626 0.41070619455 0.85771579311 -0.38630335816 0.57354233542 0.72237033781 
-0.4008042874 0.43586631539 -0.80583899031 0.023405045606 -0.08629507981 -0.99599466015 0.17483584585 -0.12124178572 -0.97710432217 
0.34050522355 -0.053812634802 -0.93870143979 0.52764243437 0.065769820174 -0.84691663829 0.68909358843 0.18081248651 -0.70175271365 
0.80375970276 0.23586856519 -0.54620175776 0.89696386577 0.19537100008 -0.3965929851 0.97754327883 0.011392652152 -0.21042657982 
0.94820446532 -0.31317691684 0.053183744753 0.78066103015 -0.55877725324 0.27988629347 0.65093152102 -0.64357245369 0.40261973598 
0.59307968677 -0.65064445762 0.4742554954 0.56558563871 -0.6301106891 0.53204643102 0.53482032996 -0.6033410041 0.59156305449 
0.47837214169 -0.58051662314 0.65890860088 0.38079945 -0.56359291888 0.73304488312 0.23789338603 -0.54435960643 0.8044124289 
0.068222948845 -0.50642470441 0.85958108868 -0.092460969186 -0.43535678773 0.89549731242 -0.21916943838 -0.32246642569 0.92085838302 
-0.30670554938 -0.15795672784 0.9386060825 -0.35604112287 0.06704854897 0.93206180638 -0.362865126 0.33900360574 0.86798931769 
-0.32419908266 0.60222372092 0.72953515663 -0.25216536724 0.79569266454 0.55071391046 -0.16524182283 0.90821202806 0.38450754488 
-0.067734772762 0.96327108302 0.25984768842 0.056065897313 0.9810826885 0.18529266982 0.2467592543 0.9546228589 0.16674851626 
0.57535952273 0.78900139038 0.21549530291 0.91555916218 0.29299836663 0.27550567634 0.94651722572 -0.21730862972 0.23849968737 
0.87205004478 -0.46362619172 0.15677842243 0.8228897285 -0.56478337261 0.06222729909 0.80004705557 -0.59846327224 -0.042028807437 
0.79063438369 -0.59377533576 -0.14942597485 0.78706211427 -0.56446090046 -0.24883150953 0.78541259111 -0.52325105979 -0.330659024 
0.77739433298 -0.49138988888 -0.39267547435 0.72349273123 -0.52789055394 -0.4448480987 0.49489570636 -0.7204197595 -0.485874068 
0.11894805421 -0.88131535742 -0.45731236718 -0.060583105215 -0.89314503719 -0.4456698665 -0.10386960911 -0.86583774045 -0.48942426535 
-0.11423127884 -0.81912778553 -0.56212177143 -0.12778026122 -0.75360980687 -0.64478249343 -0.15626935448 -0.67368770359 -0.72230517572 
-0.20748755097 -0.58916366894 -0.78091938598 -0.29194101959 -0.51102500419 -0.80847008985 -0.43202171108 -0.44417855691 -0.78489658601 
-0.6676876309 -0.37238084265 -0.64461285712 -0.95097182868 -0.22014219143 -0.21723258645 -0.92146862181 0.034154556361 0.38694837549 
-0.67039632706 0.21848834433 0.70910620366 -0.44457482048 0.33239984686 0.83178336771 -0.22601868549 0.41740068748 0.88016601838 
0.062584561553 0.47650832844 0.8769395564 0.50068420488 0.45739892922 0.73491601325 0.89895103572 0.28087277757 0.33615103481 
0.99368886712 0.10592972699 -0.036896182638 0.9723273643 0.048782636491 -0.22847264829 0.94622046276 0.073594709302 -0.31504071898 
0.92761064721 0.14912216612 -0.34249243312 0.90887346356 0.25565440511 -0.3295297443 0.880598725 0.37654974733 -0.28767372718 
0.83715207272 0.49806905365 -0.22606110887 0.77827586876 0.60775445394 -0.15786448566 0.70919429702 0.69859869297 -0.094885801097 
0.63677601553 0.7698709112 -0.042603827738 0.5689780369 0.82230086769 -0.0092345283498 0.5143726718 0.8575423464 -0.0064713707743 
0.47497626552 0.87936127015 -0.033485873774 0.44911072429 0.88917567773 -0.087556675654 0.43531977106 0.88340149155 -0.17348919749 
0.42094471143 0.86920393485 -0.25940329519 0.39704886983 0.86243130924 -0.31394972816 0.36288896382 0.8703853194 -0.33277769713 
0.31409155001 0.90049954843 -0.30074417948 0.25620867047 0.93386897142 -0.24949120504 0.18730759276 0.96672651113 -0.17422892522 
0.11009280834 0.99027051066 -0.085111040872 0.027032418392 0.99952371404 0.014886014587 -0.061996698162 0.98890080698 0.13502445475 
-0.15527269104 0.94714177727 0.28073625554 -0.25706442 0.83547246327 0.48569913227 -0.34895916704 0.60404450715 0.71648986952 
-0.39905185248 0.26410921414 0.87806830146 -0.40762592907 -0.053121286268 0.91160256192 -0.41374802718 -0.26175297333 0.87195065856 
-0.43566427496 -0.38958057611 0.81143306208 -0.47027943694 -0.4745896624 0.74404428869 -0.50272143456 -0.55162312556 0.66556974584 
-0.51750605406 -0.63869553981 0.56943436096 -0.48831218202 -0.75589965358 0.43608133027 -0.37633189413 -0.8970689772 0.23160646709 
-0.21066637512 -0.97750559519 -0.010123723048 -0.075717040579 -0.97362236488 -0.2152357321 -0.038710597219 -0.93895731977 -0.34184885741 
-0.083940161382 -0.9063799307 -0.41404042137 -0.1833865128 -0.87324391292 -0.45145814365 -0.32064293873 -0.83032710367 -0.45579052947 
-0.47965322911 -0.76804062026 -0.42431873094 -0.63857452239 -0.67991357991 -0.36047205606 -0.7799017237 -0.56517229648 -0.26894902243 
-0.88694718851 -0.43086749779 -0.16636671585 -0.95390466162 -0.29107997614 -0.073063972172 -0.9871509453 -0.15978119052 -0.0017269473974 
-0.99807577647 -0.049718248585 0.037051857954 -0.99902348955 0.028774601044 0.033527446444 -0.99745944553 0.060266322493 -0.037981902348 
-0.971002916 0.012857041656 -0.23872166554 -0.80291453456 -0.13173105592 -0.58135632714 -0.80291453456 -0.13173105592 -0.58135632714 

FrenetBinormal 3 120 double
-0.59506440295 0.68867628778 -0.41427445854 -0.59506440295 0.68867628778 -0.41427445854 -0.58790202242 0.68543785317 -0.42958836283 
-0.57722387902 0.67698442537 -0.45662312831 -0.55681383191 0.65295511704 -0.51342766942 -0.48126674553 0.54277410763 -0.68831576165 
0.45191647846 -0.67106685386 -0.58774209833 0.59893506811 -0.7964760048 0.083082837987 0.58831589448 -0.78288815491 0.2024118208 
0.5752448165 -0.77778944606 0.25325279601 0.55873366165 -0.77784896719 0.28769372532 0.53238259411 -0.7832984296 0.32095536088 
0.48094277881 -0.79802382102 0.36311434094 0.3678744135 -0.82735907714 0.42443535829 0.11837496535 -0.85579996357 0.50358096662 
-0.29170242866 -0.79214319703 0.53611458525 -0.61858780895 -0.62712025209 0.47335960118 -0.7570095373 -0.51061998122 0.40768099688 
-0.80475904259 -0.46083734279 0.3741548167 -0.82464512328 -0.43881485166 0.35693409282 -0.84385625563 -0.41724911891 0.33735706988 
-0.87474108206 -0.3811226127 0.29928847864 -0.91834368795 -0.32300556921 0.22871876413 -0.9623768269 -0.24405195025 0.11945496483 
-0.98722058595 -0.15864166648 -0.015110801869 -0.9855117816 -0.088414744312 -0.14473894198 -0.96813710187 -0.045307832386 -0.24628794594 
-0.94883958554 -0.027034315278 -0.31459908884 -0.93446992034 -0.0246614896 -0.35518696332 -0.92623179831 -0.02915956051 -0.3758249271 
-0.92322912507 -0.033275552749 -0.38280637431 -0.9245374781 -0.030059387877 -0.37990378358 -0.92882278963 -0.01220900126 -0.37032305593 
-0.93396433945 0.030378573135 -0.35607268208 -0.93423789863 0.11701891086 -0.33690669816 -0.90710258597 0.28807986255 -0.30687927808 
-0.75294735454 0.61384997657 -0.23718871717 -0.28108268711 0.95611143017 -0.08272518427 0.21040575222 0.97610212845 0.054351212261 
0.45149275755 0.88572363892 0.10792555458 0.55538339006 0.82261911325 0.12184861327 0.59859908826 0.79162485027 0.12251215436 
0.61062834413 0.78260918777 0.12106149083 0.60372930365 0.78767011221 0.12282801899 0.58687810842 0.79931016875 0.12914077587 
0.57691816194 0.8057651564 0.1338205782 0.62756377855 0.77142077123 0.10523163762 0.81203291793 0.58246721234 -0.036530627361 
0.94034503601 0.24785289616 -0.23306684687 0.94570870774 0.091474844659 -0.31187720806 0.94371069881 0.06957764709 -0.32337140871 
0.9455376382 0.083962578957 -0.31449779027 0.94778344161 0.098747278528 -0.30324169041 0.94840842798 0.10190161234 -0.30022910443 
0.94431956745 0.087757230577 -0.3171107425 0.92818881697 0.052539893858 -0.36838170368 0.87881546926 -0.011842228327 -0.47701481384 
0.72434530391 -0.12513494025 -0.67798608203 0.27606547018 -0.28755649393 -0.91711456153 -0.37343851355 -0.35215638263 -0.85821300315 
-0.73803074905 -0.29510276647 -0.60681543378 -0.89425001784 -0.2182707714 -0.39073619739 -0.97347758661 -0.12966705097 -0.18848831334 
-0.99754837742 0.0022997044633 0.069942448201 -0.86462746997 0.22340619042 0.4500100135 -0.43279313444 0.45096412936 0.78059045396 
-0.025435985202 0.53314880433 0.84563902647 0.16527423754 0.54755952603 0.82028226353 0.22467378426 0.55118665186 0.80356391499 
0.21022073234 0.54949643754 0.80861666371 0.15025427655 0.53634246083 0.83051816181 0.064556767116 0.50609064844 0.86006085795 
-0.031841316741 0.45697299865 0.88891046177 -0.12321136093 0.39432899883 0.91067206019 -0.19908032001 0.32754899067 0.92362258791 
-0.25708432072 0.26408312154 0.92960623759 -0.29463348566 0.2143251805 0.93126571188 -0.30880762974 0.19225898977 0.93149038034 
-0.30446272376 0.19991585119 0.93130881145 -0.28577268381 0.23580170826 0.92883342294 -0.25161613085 0.30441328784 0.91870663048 
-0.21747765539 0.37434178831 0.90142758718 -0.19843094422 0.4146429646 0.88808579106 -0.19590253928 0.42040123406 0.8859373553 
-0.21308365361 0.37555845886 0.90197073153 -0.23344193893 0.31024508502 0.92154915678 -0.25477882504 0.2191098122 0.94184852312 
-0.27106839342 0.11230032826 0.9559866957 -0.27928626222 -0.0067467460425 0.96018418293 -0.27677653128 -0.14701314711 0.94962197021 
-0.25798851355 -0.3131993136 0.91397380533 -0.20562556604 -0.53836729669 0.81723850891 -0.10179101898 -0.78445889785 0.61177023958 
0.041825650944 -0.95137945766 0.30516838378 0.17028451339 -0.98521687264 0.01873228111 0.25446343607 -0.95285168183 -0.16529377526 
0.30809638521 -0.91157139735 -0.27223924214 0.34670219308 -0.87466200126 -0.33876831739 0.3870685282 -0.83208090951 -0.39726479142 
0.4409095041 -0.76936824176 -0.46224594942 0.52463163298 -0.65360762345 -0.5454894355 0.640548353 -0.43253802068 -0.63451451374 
0.72892380517 -0.15017601788 -0.66792009245 0.76272155946 0.082486682265 -0.64144506388 0.76894853668 0.19048262785 -0.6102741322 
0.76987044464 0.20481521796 -0.60444207743 0.76361277913 0.16267552557 -0.62484573851 0.73958176887 0.081168987368 -0.66815447513 
0.68574727389 -0.026415698548 -0.72736021834 0.59669259378 -0.14164542307 -0.78986994034 0.47275046433 -0.25030227428 -0.84489985795 
0.32884253587 -0.33616528421 -0.88252789661 0.18834955518 -0.39111951401 -0.90086068336 0.069337560624 -0.4185902309 -0.90552444544 
-0.012292719331 -0.42703494883 -0.90415155894 -0.042615453865 -0.42727274052 -0.9031178928 0.0084194173389 -0.42970799463 -0.9029286532 
0.2091818079 -0.43774786188 -0.87442540028 0.57748200328 -0.41370195639 -0.70382187176 0.57748200328 -0.41370195639 -0.70382187176 

plain_curvature_peaks 1 120 unsigned_char
0 0 0 0 0 0 0 0 0 
0 0 0 0 0 0 0 0 0 
0 0 0 1 0 0 0 0 0 
0 0 0 0 0 0 0 0 0 
0 0 0 0 0 0 0 0 0 
0 1 0 0 0 0 0 0 0 
0 0 0 0 0 0 0 0 0 
0 0 0 0 0 0 0 0 0 
0 0 0 0 0 0 0 0 0 
0 0 0 0 0 0 0 0 0 
0 1 0 0 0 0 0 0 0 
0 0 0 0 0 0 0 0 0 
0 0 0 0 0 0 0 0 0 
1 0 0 
weighted_curvature_peaks 1 120 unsigned_char
0 0 0 0 0 0 0 0 0 
0 0 0 0 0 0 0 0 0 
0 0 0 0 0 0 1 0 0 
0 0 0 0 0 0 0 0 0 
0 0 0 0 0 0 0 0 0 
0 0 0 0 0 0 1 0 0 
0 0 0 0 0 0 0 0 0 
0 0 0 0 0 0 0 0 0 
0 0 0 1 0 0 0 0 0 
0 0 0 0 0 0 0 0 0 
0 0 0 0 0 0 0 1 0 
0 0 0 0 0 0 0 0 0 
0 0 0 0 0 0 0 0 0 
0 0 0 
plain_torsion_tp 1 120 unsigned_char
0 0 0 0 0 0 0 0 0 
0 0 0 0 0 0 0 0 0 
0 0 0 1 0 0 0 0 0 
0 0 0 0 0 0 0 0 0 
0 0 0 0 0 0 0 0 0 
0 1 0 0 0 0 0 0 0 
0 0 0 0 0 0 0 0 0 
0 0 0 0 0 0 0 0 0 
0 0 0 0 0 0 0 0 0 
0 0 0 0 0 0 0 0 0 
0 1 0 0 0 0 0 0 0 
0 0 0 0 0 0 0 0 0 
0 0 0 0 0 0 0 0 0 
1 0 0 
plain_torsion_tn 1 120 unsigned_char
0 0 0 0 0 0 0 0 0 
0 2 0 0 0 0 0 0 0 
0 0 0 0 0 0 0 0 0 
0 0 2 0 0 0 0 0 0 
0 0 0 0 0 0 0 0 0 
0 0 0 0 0 0 0 0 0 
0 0 0 0 0 0 0 0 0 
0 2 0 0 0 0 0 0 0 
0 0 0 0 0 0 0 0 0 
0 0 0 0 0 0 0 0 0 
0 0 0 0 0 0 0 0 0 
0 0 0 0 0 0 0 2 0 
0 0 0 0 0 0 0 0 0 
0 0 0 
plain_torsion_tz 1 120 unsigned_char
0 0 0 0 0 0 0 0 0 
0 0 3 0 0 0 0 0 0 
0 0 0 0 0 0 3 0 0 
0 0 0 0 0 0 3 0 0 
0 0 0 0 0 0 0 0 0 
0 0 0 0 0 0 0 0 0 
0 0 0 0 0 0 0 0 0 
0 0 0 0 0 0 0 3 0 
0 0 0 0 0 0 0 0 0 
0 0 0 0 0 0 0 0 0 
0 0 0 0 0 0 0 0 0 
0 3 0 0 0 0 0 0 0 
0 0 3 0 0 0 0 0 0 
0 0 0 
weighted_torsion_tp 1 120 unsigned_char
0 0 0 0 0 0 0 0 0 
0 0 0 0 0 0 0 0 0 
0 0 0 0 0 0 1 0 0 
0 0 0 0 0 0 0 0 0 
0 0 0 0 0 0 0 0 0 
0 0 0 0 0 0 1 0 0 
0 0 0 0 0 0 0 0 0 
0 0 0 0 0 0 0 0 0 
0 0 0 1 0 0 0 0 0 
0 0 0 0 0 0 0 0 0 
0 0 0 0 0 0 0 1 0 
0 0 0 0 0 0 0 0 0 
0 0 0 0 0 0 0 0 0 
0 0 0 
weighted_torsion_tn 1 120 unsigned_char
0 0 0 0 0 0 0 0 0 
0 0 2 0 0 0 0 0 0 
0 0 0 0 0 0 0 0 0 
0 0 0 0 0 2 0 0 0 
0 0 0 0 0 0 0 0 0 
0 0 0 0 0 0 0 0 0 
0 0 0 0 0 0 0 0 0 
0 0 0 0 0 2 0 0 0 
0 0 0 0 0 0 0 0 2 
0 0 0 0 0 0 0 0 0 
0 0 0 0 0 0 0 0 0 
0 0 0 0 0 0 0 0 0 
0 0 0 0 0 0 0 0 0 
0 0 0 
weighted_torsion_tz 1 120 unsigned_char
0 0 0 0 0 0 0 0 0 
0 0 0 0 3 0 0 0 0 
0 0 0 0 0 0 0 0 3 
0 0 0 0 0 0 0 0 0 
0 3 0 0 0 0 0 0 0 
0 0 0 0 0 0 0 0 0 
0 0 0 0 0 0 0 0 0 
0 0 0 0 0 0 0 0 0 
3 0 0 0 0 3 0 0 0 
0 0 0 0 3 0 0 0 0 
0 0 0 0 0 0 0 0 0 
0 0 0 0 0 0 0 0 0 
0 0 0 0 0 0 0 0 0 
0 0 0 
plain_torsion_tp_raw 1 120 unsigned_char
0 0 0 0 0 0 0 0 0 
0 0 0 0 0 0 0 0 0 
0 0 0 0 1 0 0 0 0 
0 0 0 1 0 0 0 0 0 
0 0 0 0 0 0 0 0 0 
0 0 0 0 0 0 0 0 0 
0 0 0 0 0 0 0 0 0 
0 0 0 0 0 1 0 0 0 
0 0 0 0 0 0 0 0 0 
0 0 0 0 0 0 0 0 0 
0 0 0 0 1 0 0 0 0 
0 0 0 0 0 0 0 0 0 
0 0 0 0 0 1 0 0 0 
0 1 0 
plain_torsion_tn_raw 1 120 unsigned_char
0 0 0 0 0 0 0 0 0 
0 0 0 0 0 0 0 0 0 
0 2 0 0 0 0 0 2 0 
0 0 0 0 0 0 0 0 0 
0 0 0 0 0 0 0 0 0 
0 0 0 0 0 0 0 0 0 
0 0 0 0 2 0 0 0 0 
0 0 0 0 0 0 0 0 0 
0 0 2 0 0 0 0 0 0 
0 0 0 0 0 0 0 0 0 
0 0 0 0 0 0 0 0 0 
0 0 0 0 0 0 0 0 2 
0 0 0 0 0 0 0 0 2 
0 0 0 
plain_torsion_tz_raw 1 120 unsigned_char
0 0 0 0 0 0 0 0 0 
0 3 0 0 0 0 0 0 0 
0 0 0 3 3 0 0 0 0 
0 3 0 0 0 0 0 0 0 
0 0 0 0 0 0 0 0 0 
0 0 0 0 0 0 0 0 0 
0 0 0 0 0 0 0 0 0 
0 0 0 0 0 0 0 0 0 
0 0 0 0 0 0 0 0 0 
0 0 0 0 0 0 0 0 0 
0 0 0 0 0 0 0 0 0 
0 0 0 0 0 0 0 0 0 
0 0 0 0 0 0 0 0 0 
0 0 0 
weighted_torsion_tp_raw 1 120 unsigned_char
0 0 0 0 0 0 0 0 0 
0 0 0 0 0 0 0 0 0 
0 0 0 0 0 0 0 1 0 
0 0 0 0 0 0 0 1 0 
0 0 0 0 0 0 0 0 0 
0 0 0 0 0 0 0 0 0 
0 0 0 0 0 0 0 0 0 
0 0 0 0 0 0 0 0 1 
0 0 0 0 1 0 0 0 0 
0 0 0 0 0 0 0 0 1 
0 0 0 0 0 0 0 0 0 
0 1 0 0 0 0 0 0 0 
0 0 0 0 0 0 0 0 0 
0 0 0 
weighted_torsion_tn_raw 1 120 unsigned_char
0 0 0 0 0 0 0 0 0 
0 0 0 0 0 0 0 0 0 
0 0 0 0 2 0 0 0 0 
0 2 0 0 0 0 0 0 0 
0 0 0 0 0 0 0 0 0 
0 0 0 0 0 0 0 0 0 
0 0 0 0 0 0 0 0 0 
0 2 0 0 0 0 0 0 0 
0 0 2 0 0 0 0 0 2 
0 0 0 0 0 0 0 0 0 
0 0 0 0 2 0 0 0 0 
0 0 0 0 0 0 0 0 0 
0 0 0 0 0 0 0 0 0 
0 0 0 
weighted_torsion_tz_raw 1 120 unsigned_char
0 0 0 0 0 0 0 0 0 
0 0 3 0 0 0 0 0 0 
0 0 0 0 0 0 3 3 0 
0 0 0 0 3 0 0 0 0 
0 0 0 0 0 0 0 0 0 
0 0 0 0 0 0 0 0 0 
0 0 0 0 0 0 0 0 0 
0 0 0 0 0 0 0 0 0 
0 0 0 0 0 0 0 0 0 
0 0 0 0 0 0 0 0 0 
0 0 0 0 0 0 0 0 0 
0 0 0 0 0 0 0 0 0 
0 0 0 0 0 0 0 0 0 
0 0 0 
