# vtk DataFile Version 5.1
vtk output
ASCII
DATASET POLYDATA
POINTS 120 float
-2.09401 17.6142 -6.92699 -2.4249 17.1048 -6.94472 -2.77243 16.5763 -6.94896 
-3.14177 16.0325 -6.93775 -3.53787 15.4774 -6.90978 -3.96477 14.9154 -6.86546 
-4.42429 14.3513 -6.80834 -4.91387 13.7902 -6.74594 -5.42416 13.2365 -6.68961 
-5.93743 12.6935 -6.65332 -6.42779 12.1624 -6.65202 -6.86371 11.6428 -6.69977 
-7.21278 11.133 -6.80811 -7.44751 10.6305 -6.98467 -7.55051 10.133 -7.23236 
-7.5176 9.63785 -7.54914 -7.35797 9.14297 -7.92865 -7.09175 8.64743 -8.36124 
-6.74588 8.1525 -8.83505 -6.34948 7.6623 -9.33652 -5.93031 7.18341 -9.84991 
-5.51258 6.72354 -10.3563 -5.11626 6.28889 -10.8325 -4.75732 5.88236 -11.2511 
-4.4483 5.50139 -11.5827 -4.19897 5.13832 -11.7993 -4.01657 4.78274 -11.8804 
-3.90584 4.42455 -11.8166 -3.86903 4.05886 -11.6119 -3.90585 3.6889 -11.282 
-4.01376 3.32825 -10.8514 -4.18836 2.99922 -10.348 -4.42409 2.72894 -9.7997 
-4.71474 2.54527 -9.23181 -5.05333 2.47191 -8.66546 -5.43075 2.525 -8.11664 
-5.83335 2.71098 -7.59552 -6.24082 3.02494 -7.10609 -6.6257 3.4504 -6.64652 
-6.9554 3.95991 -6.21051 -7.19646 4.5167 -5.78927 -7.32016 5.07803 -5.37361 
-7.30821 5.59793 -4.95579 -7.15718 6.03295 -4.53066 -6.88052 6.34549 -4.09619 
-6.5073 6.50885 -3.65345 -6.07751 6.50903 -3.20648 -5.63521 6.34642 -2.76224 
-5.22093 6.0346 -2.33087 -4.8653 5.59769 -1.9258 -4.58572 5.06626 -1.5635 
-4.38637 4.4724 -1.26242 -4.26126 3.84523 -1.04096 -4.19862 3.2073 -0.914437 
-4.18474 2.57287 -0.89191 -4.20601 1.94796 -0.973671 -4.24912 1.33222 -1.15059 
-4.30072 0.721112 -1.40506 -4.34743 0.108008 -1.71346 -4.37716 -0.513589 -2.04882 
-4.38129 -1.14851 -2.38297 -4.3567 -1.79948 -2.68814 -4.30638 -2.46592 -2.93831 
-4.23806 -3.14471 -3.11065 -4.16118 -3.82956 -3.18733 -4.08346 -4.5119 -3.15718 
-4.00805 -5.18157 -3.01659 -3.93237 -5.82756 -2.76959 -3.84859 -6.43841 -2.4268 
-3.74584 -7.00391 -2.00368 -3.61301 -7.51431 -1.51842 -3.4411 -7.96092 -0.990086 
-3.22451 -8.33531 -0.436952 -2.96073 -8.62877 0.124428 -2.64907 -8.83335 0.679589 
-2.28945 -8.94269 1.21628 -1.88217 -8.95418 1.7248 -1.42869 -8.87093 2.19864 
-0.932628 -8.70237 2.6351 -0.400245 -8.46425 3.03565 0.160143 -8.17684 3.40514 
0.7394 -7.86319 3.75111 1.32927 -7.54649 4.08164 1.92374 -7.24762 4.40385 
2.51976 -6.98185 4.72239 3.11713 -6.7565 5.03889 3.71748 -6.56935 5.35188 
4.32305 -6.40873 5.65802 4.93538 -6.2559 5.9536 5.55452 -6.08973 6.23651 
6.17849 -5.892 6.50757 6.80384 -5.65185 6.77151 7.42615 -5.36892 7.03631 
8.04059 -5.05405 7.31176 8.64296 -4.72819 7.60813 9.22951 -4.41916 7.9341 
9.79756 -4.15741 8.29563 10.3449 -3.9717 8.69496 10.8697 -3.88509 9.13016 
11.3706 -3.91168 9.59521 11.8459 -4.05566 10.0813 12.2929 -4.3122 10.5775 
12.7068 -4.6688 11.0735 13.0803 -5.10855 11.5601 13.4035 -5.61279 12.0307 
13.6654 -6.16329 12.4816 13.856 -6.74365 12.9119 13.9685 -7.33937 13.3239 
14.002 -7.93719 13.7231 13.963 -8.52483 14.118 13.8644 -9.09022 14.5197 
13.7258 -9.62213 14.94 13.57 -10.111 15.3903 13.4206 -10.5498 15.8795 
13.3007 -10.9347 16.4127 13.2308 -11.2659 16.9911 13.2303 -11.5469 17.6124 
13.3179 -11.784 18.2719 13.5117 -11.9848 18.9638 13.8301 -12.1576 19.682 

LINES 2 120
OFFSETS vtktypeint64
0 120 
CONNECTIVITY vtktypeint64
0 1 2 3 4 5 6 7 8 
9 10 11 12 13 14 15 16 17 
18 19 20 21 22 23 24 25 26 
27 28 29 30 31 32 33 34 35 
36 37 38 39 40 41 42 43 44 
45 46 47 48 49 50 51 52 53 
54 55 56 57 58 59 60 61 62 
63 64 65 66 67 68 69 70 71 
72 73 74 75 76 77 78 79 80 
81 82 83 84 85 86 87 88 89 
90 91 92 93 94 95 96 97 98 
99 100 101 102 103 104 105 106 107 
108 109 110 111 112 113 114 115 116 
117 118 119 
CELL_DATA 1
FIELD FieldData 2
Length 1 1 double
81.433702939 
Tortuosity 1 1 double
0.89433174027 
POINT_DATA 120
FIELD FieldData 19
Curvature 1 120 double
0 0.037366701133 0.043518523472 0.049710831175 0.053058252788 0.051993228043 0.046207364665 0.038079741523 0.038616091283 
0.065525498937 0.12326974771 0.21758721122 0.34697764605 0.46015923981 0.4605174992 0.3471958239 0.21805895851 0.125952723 
0.070423961154 0.038458475273 0.018737060727 0.0046371793438 0.036474351046 0.11222679963 0.28494625637 0.64251097732 1.0697655959 
0.99925936746 0.59963775109 0.34820603812 0.24768117968 0.22397946419 0.24073633081 0.27515812218 0.30368979026 0.30298704882 
0.26860661198 0.22153847609 0.18756959854 0.18415158911 0.21866842867 0.28881760188 0.3835061932 0.47018357729 0.50174532844 
0.46962634834 0.40726084021 0.34775384922 0.30072151205 0.26614156199 0.24489952545 0.24047744963 0.25441854143 0.2755247291 
0.27776344679 0.24191753113 0.17654239891 0.10659083365 0.055386407267 0.053020391763 0.084935174779 0.1217761581 0.16025587089 
0.197013117 0.22520181389 0.2365005273 0.2284999421 0.20868942327 0.18715576366 0.17324388348 0.16942721922 0.17611983932 
0.19320170155 0.21828104937 0.24667830076 0.26514464622 0.25845297698 0.22365828916 0.17139090869 0.11737135445 0.069061160691 
0.033832569966 0.034067771363 0.057149728059 0.073744881295 0.074198221518 0.056000953874 0.030363406698 0.039412121989 0.066826372885 
0.081361103772 0.077432748345 0.060639257968 0.047567273415 0.066807274428 0.11218123248 0.16830699673 0.2222351536 0.25606700941 
0.25753424391 0.23214005393 0.19606791624 0.16467202634 0.14497459389 0.13738963875 0.14032351522 0.14707166297 0.15022573484 
0.14277930613 0.12768386712 0.11314981998 0.11533613836 0.1374602986 0.16783224573 0.19306085815 0.20925294028 0.21427131546 
0.20967838244 0.1952486165 0 
Torsion 1 120 double
0 0 0.38882345358 0.26930127016 0.25236801155 0.30627907411 0.45913867624 0.85132686716 1.1933044767 
0.6780003557 0.33102331049 0.17799378482 0.1005656984 0.059242713726 0.036729430157 0.018575333416 -0.0084801321192 -0.055929831317 
-0.1285596869 -0.19286660422 -0.019748243349 6.589317905 0.098984154926 0.014102723572 0.034561579476 0.053694475249 0.058507701027 
0.076925436111 0.10783893361 0.092227125288 0.028209940446 -0.024071099488 -0.040954528807 -0.046559839735 -0.064724959735 -0.10602148018 
-0.18377280079 -0.31054704577 -0.45868123163 -0.51324836203 -0.43439786167 -0.33282587684 -0.27199486856 -0.24839635027 -0.24963059356 
-0.25563476057 -0.23942961409 -0.18514104032 -0.099246284121 0.0068230148952 0.12067625481 0.20840680543 0.22762921823 0.19247089502 
0.15752869863 0.15776756296 0.22702718815 0.48490273775 1.3870240866 1.2733020133 0.51485778553 0.3049385419 0.20713790332 
0.13052865164 0.058956386366 -0.011790726341 -0.085956015379 -0.16077221948 -0.22164685336 -0.24295736163 -0.2148782516 -0.15662675848 
-0.10196906388 -0.069062811382 -0.055624844386 -0.053372036541 -0.05481960538 -0.060157206126 -0.077468318133 -0.13044281542 -0.33539030952 
-1.2903748737 -1.0443025588 -0.21378075575 0.0069318628419 0.14530129466 0.43159560243 1.7435009791 1.0587624416 0.37836157977 
0.27654205039 0.34282247917 0.65243573336 1.267077691 0.78404518572 0.34229768939 0.18301434356 0.11794183009 0.085730364174 
0.064813694222 0.038792131043 -0.0011404572576 -0.061542013072 -0.13027689312 -0.17303944949 -0.1867695287 -0.1915729666 -0.21496635432 
-0.2924333547 -0.44814356524 -0.66050452236 -0.6950636816 -0.51811849746 -0.36487465918 -0.2934601649 -0.2601943166 -0.23300310461 
-0.1977910364 0 0 
FrenetTangent 3 120 double
-0.54703632305 -0.83692141684 -0.017714494199 -0.54703632305 -0.83692141684 -0.017714494199 -0.55576437036 -0.8313223119 0.0054017015483 
-0.57132188375 -0.82020501838 0.029240946868 -0.59232565698 -0.80401717388 0.052025956891 -0.61697110151 -0.78381230529 0.070604036485 
-0.64263723389 -0.76188458121 0.080927563424 -0.6656142508 -0.74209842696 0.079041722042 -0.68103098893 -0.72965668372 0.061627234417 
-0.68251691133 -0.73042269958 0.025560627609 -0.66093673513 -0.74970929778 -0.033145150084 -0.60199030887 -0.7894803444 -0.11970151976 
-0.48537101476 -0.84161147742 -0.23686514965 -0.29689922909 -0.87906702424 -0.3729504185 -0.061258561157 -0.86766082214 -0.49336810437 
0.15710126643 -0.80780274652 -0.56813195194 0.31550280636 -0.73378620019 -0.60167748137 0.41482246189 -0.67125482827 -0.61427948089 
0.47204718572 -0.62649380017 -0.62022332494 0.50249766782 -0.59708605171 -0.62528740647 0.51688100725 -0.57979012753 -0.62982333424 
0.5223944241 -0.57403989328 -0.63054124892 0.52383263062 -0.5834224672 -0.6206590045 0.52332733064 -0.61697108896 -0.58777136745 
0.51710864065 -0.68908132218 -0.50770619967 0.48528145412 -0.80780333294 -0.33459779673 0.37978942761 -0.92480230768 -0.022375933417 
0.18770113219 -0.92091178872 0.3415988325 -1.3633336622e-05 -0.80896417911 0.58785793924 -0.13596476427 -0.68637556559 0.71442435978 
-0.23641846516 -0.5771544694 0.78166426795 -0.32104479187 -0.46889660062 0.82284033661 -0.40031644598 -0.34523364251 0.84885833633 
-0.47586146823 -0.19438014757 0.85777166034 -0.54021943775 -0.015296577443 0.84138515188 -0.5797259703 0.17768184042 0.79520246664 
-0.58349974903 0.36011355006 0.72790540179 -0.55003840443 0.51329594666 0.65877539783 -0.48321888965 0.63224591206 0.6056109406 
-0.38501528189 0.71928026436 0.57827254302 -0.25269116659 0.77459753048 0.57978085524 -0.081578310142 0.78936129661 0.60848477608 
0.1269185561 0.74363038963 0.65643394468 0.35147141303 0.61435148831 0.70642769951 0.54568864301 0.39960092652 0.73657518585 
0.66386322418 0.13519718172 0.73553201265 0.69353683548 -0.12916827351 0.70874693294 0.65209171819 -0.36117089365 0.66658231049 
0.56559381569 -0.55003366905 0.61446448113 0.45723504481 -0.69701842519 0.55235987249 0.34423287227 -0.80880253352 0.47680414367 
0.23731275017 -0.89308937685 0.38219631549 0.14165180243 -0.95446683018 0.26254111479 0.059629243877 -0.99144095903 0.1161429207 
-0.0058593007645 -0.99887849978 -0.04698309554 -0.050735464534 -0.97768682731 -0.20384891549 -0.072636090702 -0.94088755541 -0.33083924555 
-0.072769858211 -0.90615548073 -0.41663748329 -0.054816865867 -0.88537875529 -0.46162709073 -0.023773677489 -0.88229007043 -0.47010535402 
0.014249009559 -0.8953446267 -0.44514600433 0.052321656155 -0.9202131104 -0.38790498288 0.083842500298 -0.9506911387 -0.29859134942 
0.10418053107 -0.97837775407 -0.17867117084 0.11230179458 -0.99309895417 -0.033804942954 0.11166260944 -0.98591503882 0.12451103514 
0.10949202183 -0.95347275734 0.28089357089 0.11411051918 -0.89936723822 0.42203952449 0.13172540242 -0.83072283927 0.54087704949 
0.16500858741 -0.7536097394 0.63627394003 0.21356860179 -0.67068069188 0.71033503495 0.27508485044 -0.58132622537 0.76575984796 
0.34677112083 -0.48211677071 0.80455777242 0.425862297 -0.36858511942 0.82630884888 0.50870353726 -0.23789367794 0.82742208647 
0.58901685476 -0.092802398382 0.80277447622 0.65803350815 0.05485802782 0.75098768228 0.70899079708 0.18802041818 0.67969137997 
0.74150745412 0.29321415924 0.60348334882 0.76076255015 0.36586141251 0.53608373332 0.77329322374 0.40784792002 0.48546643989 
0.78434173517 0.42288542999 0.45384573984 0.79709433855 0.41429596506 0.43931704815 0.81254181491 0.38538169416 0.43732910815 
0.82973195645 0.3414642596 0.44152807369 0.84671409257 0.29161731026 0.44501077492 0.86170233763 0.24849955798 0.44239919869 
0.87359293364 0.2248333852 0.43160784885 0.88120988881 0.22827117312 0.41395821453 0.88240946352 0.25830722286 0.39323137885 
0.8749645214 0.30666684681 0.37468991361 0.85895707074 0.36011807691 0.36401610034 0.83786792575 0.40499306367 0.36600267401 
0.81701116188 0.43021383125 0.3839385638 0.80085456563 0.42766256028 0.41920961255 0.79083181438 0.39094894755 0.47089697575 
0.78416038062 0.31457876935 0.534913727 0.77373763335 0.19652373597 0.60225285051 0.75083680021 0.043940901062 0.65902450384 
0.71070853454 -0.12418375103 0.69243900447 0.65615000381 -0.28491559375 0.69877770209 0.59383690198 -0.42292550662 0.68446457155 
0.52851307684 -0.53452026751 0.65951649807 0.46009908555 -0.6234519375 0.63215228632 0.38543537322 -0.69487223694 0.60711790239 
0.30098435937 -0.75221888991 0.58615284447 0.20510477156 -0.79571756043 0.56988209018 0.10071661529 -0.82285554909 0.55925388576 
-0.003915332387 -0.83081608796 0.55653328576 -0.097767676765 -0.81881191185 0.56567529059 -0.17046845872 -0.7886245555 0.59077221925 
-0.21433881319 -0.74315763272 0.63385771755 -0.22516049116 -0.68457974855 0.69329165659 -0.20090509435 -0.61458395919 0.76283923613 
-0.14214919951 -0.53606080012 0.83212524517 -0.052182090502 -0.45394211359 0.88950187574 0.062928781413 -0.37425926963 0.92518645016 
0.19429409324 -0.30237749194 0.93317611291 0.33130384416 -0.24162482361 0.91206096696 0.33130384416 -0.24162482361 0.91206096696 

FrenetNormal 3 120 double
-0.21170730624 0.11784253028 0.97020263581 -0.21170730624 0.11784253028 0.97020263581 -0.44068305325 0.30010723077 0.84601069533 
-0.55802302511 0.41432886961 0.71898671146 -0.63237184666 0.50394340329 0.58834249705 -0.69521873617 0.58487386322 0.41784383805 
-0.74728588326 0.64659800256 0.15321498544 -0.72380220588 0.61611432146 -0.31066623515 -0.35431558896 0.25470831554 -0.89976893557 
0.16043137719 -0.18384583567 -0.96977444899 0.43089500134 -0.34297100213 -0.83468580287 0.59670253401 -0.34515420752 -0.72444092854 
0.73581508918 -0.2468863224 -0.63057378502 0.85143686531 -0.066879224042 -0.52017538752 0.91189626821 0.15232310774 -0.38110742171 
0.90703399429 0.34557954428 -0.24054960358 0.86548349727 0.4825102865 -0.1346184957 0.812482955 0.57718245996 -0.082047886951 
0.74855030708 0.65646845842 -0.093389511571 0.65815208437 0.73316446123 -0.17118909614 0.56427198532 0.78402414973 -0.25865664348 
0.68695575358 -0.15476320872 0.71002826834 0.0097373920924 -0.72447700267 0.68923019072 -0.026459530725 -0.7011986423 0.71247481168 
-0.087282371668 -0.63253151976 0.7696009772 -0.20796814359 -0.47833526606 0.85319670914 -0.38345875968 -0.17939557859 0.90596722127 
-0.53033168093 0.1977116571 0.82441397905 -0.59810944821 0.47112443155 0.64831077266 -0.61989042919 0.62145935084 0.47908676778 
-0.61020348465 0.71423651663 0.34280884708 -0.56671745302 0.79122594847 0.22976689692 -0.49423524991 0.8613849191 0.11724989935 
-0.39834695724 0.91714047186 -0.013155095001 -0.27377400747 0.94863857943 -0.15853276777 -0.11521941146 0.94825145422 -0.2958777903 
0.078974693484 0.9172233751 -0.39046674373 0.31692500445 0.85810657973 -0.40399460315 0.59566360531 0.74436970826 -0.3018254574 
0.84319270251 0.52888815484 -0.096454062126 0.96561224535 0.23977073923 0.10051360224 0.97662658559 -0.058503281663 0.20682813722 
0.91321764923 -0.34593474222 0.21531994627 0.77153035094 -0.61748599509 0.1531403391 0.54537023623 -0.83670922882 0.049889596639 
0.25744233182 -0.96472526698 -0.055032763381 -0.041960110586 -0.98936766948 -0.13925144058 -0.30443342167 -0.92997629866 -0.20606886155 
-0.50015028816 -0.8212042732 -0.27472391767 -0.61886097784 -0.69541410817 -0.36525375872 -0.65871849868 -0.56992573317 -0.49119710725 
-0.62207074067 -0.44189740007 -0.64633944751 -0.529377933 -0.29714481105 -0.79464706966 -0.42022241902 -0.13046972799 -0.89799263284 
-0.31867844597 0.046399413317 -0.94672654052 -0.21832906612 0.21003257742 -0.9530051077 -0.091868667117 0.33661705731 -0.93714945699 
0.13625504526 0.40479561087 -0.90419858221 0.66954114061 0.3103873997 -0.67481428789 0.96179738322 -0.1484688126 0.23000609843 
0.65506355355 -0.32799027656 0.68067181467 0.41709111807 -0.33279779063 0.84574264985 0.23493757206 -0.27234014855 0.93307833579 
0.10064431971 -0.16835551182 0.9805749041 0.014209135145 -0.032411730795 0.9993735939 -0.021873670305 0.12282577621 0.99218716543 
-0.0048313632951 0.28207876825 0.9593790838 0.068626546715 0.43093549502 0.8997694128 0.19047287866 0.55667529106 0.80859922262 
0.33524940004 0.64956164297 0.68240567975 0.46269400586 0.7098292766 0.531090063 0.5421913561 0.75155022828 0.37576693274 
0.56924591468 0.78992188149 0.22799673192 0.55544389149 0.82741979063 0.082816504928 0.51081376463 0.85702586093 -0.067645927893 
0.44315829572 0.86778930623 -0.22483870868 0.36105345544 0.852226232 -0.37861702524 0.27735863426 0.81178975964 -0.51387700293 
0.21002379954 0.75281373958 -0.62382808299 0.1773732672 0.67733396873 -0.7139729819 0.21724364511 0.54888692565 -0.80717305549 
0.45590818899 0.10315941257 -0.88402820023 0.5570845348 -0.78525675069 -0.2702381479 0.3978980838 -0.91497880562 0.067014178853 
0.33070641829 -0.93799222168 0.10394160364 0.31270209246 -0.94946134825 0.027213040195 0.35139988947 -0.92121022729 -0.1670024994 
0.48203631292 -0.52169220894 -0.70390214672 0.17960347627 0.64835156654 -0.73985325401 -0.060460520684 0.89113244814 -0.44969710396 
-0.21060201134 0.93785876216 -0.27580379812 -0.34998105694 0.93182400852 -0.096006650381 -0.49808980303 0.84154977878 0.20904668844 
-0.54743662479 0.36956515363 0.75082270814 -0.26750101996 -0.37083164001 0.88934082279 -0.092888224748 -0.68381649657 0.72371733206 
-0.059642938801 -0.81979174712 0.56954737398 -0.10014222943 -0.90077095319 0.42259108339 -0.17992620912 -0.9464409124 0.26809729319 
-0.27430672539 -0.95530517069 0.11021729113 -0.36490351383 -0.93032248274 -0.036681108278 -0.45161207438 -0.87926229519 -0.15147392693 
-0.53904805152 -0.81147146425 -0.2257017077 -0.64516718855 -0.72390711705 -0.24437222573 -0.75669792702 -0.61455928089 -0.22299133957 
-0.85793492739 -0.4819535531 -0.17795626719 -0.93471537074 -0.33191623064 -0.12703854353 -0.98380463938 -0.16614003804 -0.067274952932 
-0.99957214662 0.019383554886 0.021904371857 -0.95315084306 0.24053241133 0.18343290183 -0.75750278436 0.48832002313 0.43328176362 
-0.35271185105 0.66404058663 0.65927570063 0.071432709454 0.69804976974 0.71247728875 0.37516055343 0.671077724 0.6394601219 
0.58338763813 0.63376702693 0.50793525105 0.7369477504 0.58359679906 0.34106126915 0.84228992165 0.51717359234 0.15191827826 
0.89682499928 0.44018261282 -0.044092947729 0.90285280326 0.36193713356 -0.23207396879 0.90285280326 0.36193713356 -0.23207396879 

FrenetBinormal 3 120 double
-0.80989584377 0.53448637036 -0.24164652316 -0.80989584377 0.53448637036 -0.24164652316 -0.70492865683 0.46780216308 -0.53313856079 
-0.60183187735 0.39445572075 -0.69440843584 -0.49925560953 0.31559060566 -0.80693643243 -0.36880559754 0.20871232401 -0.90577127192 
-0.16905973588 0.03798562872 -0.98487354402 0.18184618747 -0.26399444613 -0.9472269509 0.64082544857 -0.63460601786 -0.43199299365 
0.71304448596 -0.65778673492 0.24266061155 0.6144038818 -0.5659565889 0.54972812327 0.53061639057 -0.50753261849 0.67886441005 
0.47221936912 -0.48035118912 0.73910188914 0.43232639539 -0.47198340679 0.76832646158 0.40582334176 -0.47324662553 0.78188557137 
0.39065141149 -0.47752434628 0.78699553582 0.38909676835 -0.47826941762 0.78731319627 0.40962638215 -0.46505630137 0.78481135543 
0.465665 -0.42018410422 0.77884621482 0.56065312598 -0.32551208833 0.76138686138 0.64376327242 -0.2216969568 0.73240651856 
-0.5051691383 -0.80406874716 0.31349257018 -0.85176555359 -0.36708486399 -0.37382368081 -0.85172084525 -0.35730538679 -0.38328117921 
-0.85145783299 -0.35365351395 -0.38723216643 -0.84926507142 -0.34445485703 -0.40012459301 -0.84185472043 -0.33549652472 -0.42275608996 
-0.82675062333 -0.3359041203 -0.45127799501 -0.80141442948 -0.35159454903 -0.48385554179 -0.77281915005 -0.37772590356 -0.50997421807 
-0.75614682215 -0.39592791865 -0.52104036943 -0.75878954267 -0.3925525142 -0.51975085717 -0.77167237921 -0.372598649 -0.51545318501 
-0.78414001601 -0.34795073373 -0.51386255185 -0.79574540647 -0.31599186752 -0.51666080531 -0.80662400571 -0.26315079927 -0.5292535973 
-0.80826421465 -0.17035114098 -0.56363946641 -0.77266829572 -0.013430151031 -0.63466789413 -0.64162635077 0.2148926339 -0.73629938333 
-0.37521900158 0.45045890041 -0.810121892 -0.061156896178 0.58524239285 -0.80854880846 0.19886048281 0.61113509918 -0.76613862905 
0.38720176298 0.57213896715 -0.7230019343 0.53029120623 0.49120595954 -0.69101949459 0.63623518476 0.37448199682 -0.67451317536 
0.70214604276 0.2258913042 -0.6752511039 0.71919816946 0.066836903751 -0.69158283765 0.69433182474 -0.068554135614 -0.71638233343 
0.65570826204 -0.15194243844 -0.73956755641 0.63870744782 -0.17482715207 -0.7493252051 0.66902441596 -0.1449935186 -0.72896036272 
0.74613045254 -0.084368553226 -0.66043265744 0.83647699964 -0.026420282958 -0.54736477574 0.90545981238 0.0047407626164 -0.42440552935 
0.94784477456 0.009425344331 -0.31859291614 0.97455545328 -0.0038450134939 -0.22411355235 0.99311839492 -0.03767711244 -0.11088863273 
0.98799752549 -0.12256736176 0.09401133683 0.74074946659 -0.34606953317 0.57578303723 -0.27272808049 -0.44667800853 0.85211393065 
-0.75543941288 -0.30129782264 0.58183409623 -0.9073573957 -0.20604237914 0.36640018351 -0.968387718 -0.14838194732 0.20051938892 
-0.98945294878 -0.1201390527 0.080928796851 -0.99357254763 -0.11271178705 0.010471181718 -0.99350541227 -0.11351372128 -0.0078505338297 
-0.99397593285 -0.10640145447 0.026278801367 -0.99109494323 -0.073710039698 0.11089474086 -0.972814731 -0.0034906493747 0.2315584473 
-0.92756671235 0.1007076594 0.35983046214 -0.8604084549 0.21524360064 0.4619171821 -0.79395016117 0.31182057992 0.52193013662 
-0.74545883748 0.3789285428 0.54836509833 -0.71422922609 0.42369977557 0.5570952457 -0.69302958743 0.45707031373 0.55749145218 
-0.67577353436 0.48818995774 0.55226868046 -0.66078158605 0.52028938704 0.54098673668 -0.64838587096 0.55285233878 0.52340238235 
-0.63722578346 0.5893190395 0.49663504766 -0.62432288632 0.63825082972 0.45039628327 -0.59567003348 0.72964595317 0.33584817141 
-0.4206611055 0.90029220184 -0.11188469788 0.23301810347 0.46014203114 -0.85672158525 0.42597290282 0.11956059161 -0.89680117696 
0.4496422415 0.05977249768 -0.8912065435 0.43045632392 0.11611413585 -0.89511164703 0.36604261909 0.29936547364 -0.88113172352 
0.066905749565 0.82297459744 -0.56412448329 -0.43727762711 0.72631433807 0.53033551564 -0.46658125137 0.37304200634 0.80196109468 
-0.43598609968 0.16240808879 0.88517779772 -0.37377267209 -0.044933148358 0.92643132599 -0.22334701055 -0.35745571503 0.90683048287 
0.18112399954 -0.82361256464 0.53745366327 0.53579396136 -0.82437165727 -0.18258204091 0.6049436495 -0.61607947493 -0.50446928698 
0.61768537081 -0.47852031225 -0.62408580616 0.62554105271 -0.38728556787 -0.67728006046 0.63550818934 -0.31987309446 -0.7027165465 
0.64780336472 -0.26827304531 -0.71300797599 0.66053962644 -0.23091812954 -0.7143978019 0.66588607744 -0.2191616575 -0.71313666275 
0.65582095557 -0.23622477925 -0.71700538904 0.60997387673 -0.29540847571 -0.73529973629 0.52806043245 -0.373456108 -0.76268126703 
0.4163605118 -0.44931894498 -0.79041534012 0.29023991522 -0.50662133775 -0.81184703716 0.14827203019 -0.54342086185 -0.82626216903 
-0.028986098026 -0.55620940821 -0.83053651355 -0.28626028672 -0.52124007147 -0.80396755913 -0.63018254202 -0.37365072657 -0.68062845832 
-0.91085301959 -0.082260757619 -0.40445017551 -0.97169960442 0.20994543775 -0.10827184274 -0.90492635182 0.41465798613 0.095744724806 
-0.79965771975 0.55765417075 0.22264176852 -0.67393252082 0.67331369631 0.30407831843 -0.53533882388 0.76971519049 0.34777991484 
-0.39743518465 0.84546266609 0.3567045756 -0.27403390024 0.90034379876 0.33806281302 -0.27403390024 0.90034379876 0.33806281302 

plain_curvature_peaks 1 120 unsigned_char
0 0 0 0 0 0 0 0 0 
0 0 0 0 0 0 0 0 0 
0 0 0 0 0 0 0 0 0 
0 0 0 0 0 0 0 0 0 
1 0 0 0 0 0 0 0 0 
0 0 0 0 0 0 0 0 0 
0 0 0 0 0 0 0 0 0 
0 0 0 1 0 0 0 0 0 
0 0 0 0 0 0 0 0 0 
0 0 0 0 0 0 0 0 0 
0 0 0 0 0 0 1 0 0 
0 0 0 0 0 0 0 0 0 
0 0 0 0 0 0 0 0 0 
1 0 0 
weighted_curvature_peaks 1 120 unsigned_char
0 0 0 0 0 0 0 0 1 
0 0 0 0 0 0 0 0 0 
0 0 0 0 0 0 0 0 0 
0 0 0 0 0 0 0 0 0 
0 0 0 0 1 0 0 0 0 
0 0 0 0 0 0 0 0 0 
0 0 0 0 0 0 0 0 0 
0 0 0 0 0 0 1 0 0 
0 0 0 0 0 0 0 0 0 
0 0 0 0 0 0 0 0 0 
0 0 0 0 0 0 1 0 0 
0 0 0 0 0 0 0 0 0 
0 0 0 0 0 0 0 0 0 
0 0 0 
plain_torsion_tp 1 120 unsigned_char
0 0 0 0 0 0 0 0 0 
0 0 0 0 0 0 0 0 0 
0 0 0 0 0 0 0 0 0 
0 0 0 0 0 0 0 0 0 
1 0 0 0 0 0 0 0 0 
0 0 0 0 0 0 0 0 0 
0 0 0 0 0 0 0 0 0 
0 0 0 1 0 0 0 0 0 
0 0 0 0 0 0 0 0 0 
0 0 0 0 0 0 0 0 0 
0 0 0 0 0 0 1 0 0 
0 0 0 0 0 0 0 0 0 
0 0 0 0 0 0 0 0 0 
1 0 0 
plain_torsion_tn 1 120 unsigned_char
0 0 0 0 0 0 0 0 0 
0 0 0 2 0 0 0 0 0 
0 0 0 0 0 0 0 0 0 
0 0 0 0 0 0 0 0 0 
0 0 0 0 0 0 0 0 0 
0 0 0 0 0 0 0 0 0 
0 0 0 0 2 0 0 0 0 
0 0 0 0 0 0 0 0 0 
0 0 0 0 0 0 0 0 0 
0 0 2 0 0 0 0 0 0 
0 0 0 0 0 0 0 0 0 
0 0 0 0 0 0 0 0 0 
0 0 2 0 0 0 0 0 0 
0 0 0 
plain_torsion_tz 1 120 unsigned_char
0 0 0 0 0 0 0 0 0 
0 0 0 0 3 0 0 0 0 
0 0 0 0 0 0 0 0 0 
0 0 0 0 0 0 0 0 0 
0 0 0 0 0 0 0 0 0 
0 0 0 0 0 0 3 0 0 
0 0 0 0 0 3 0 0 0 
0 0 0 0 0 0 0 0 0 
0 0 0 0 0 0 0 0 0 
0 0 0 0 0 3 0 0 0 
0 0 0 0 0 0 0 0 0 
0 0 0 0 0 0 3 0 0 
0 0 0 0 0 3 0 0 0 
0 0 0 
weighted_torsion_tp 1 120 unsigned_char
0 0 0 0 0 0 0 0 1 
0 0 0 0 0 0 0 0 0 
0 0 0 0 0 0 0 0 0 
0 0 0 0 0 0 0 0 0 
0 0 0 0 1 0 0 0 0 
0 0 0 0 0 0 0 0 0 
0 0 0 0 0 0 0 0 0 
0 0 0 0 0 0 1 0 0 
0 0 0 0 0 0 0 0 0 
0 0 0 0 0 0 0 0 0 
0 0 0 0 0 0 1 0 0 
0 0 0 0 0 0 0 0 0 
0 0 0 0 0 0 0 0 0 
0 0 0 
weighted_torsion_tn 1 120 unsigned_char
2 0 0 0 0 0 0 0 0 
0 0 0 0 0 0 0 0 0 
0 0 0 0 0 0 0 0 0 
0 0 0 0 0 0 2 0 0 
0 0 0 0 0 0 0 0 0 
0 0 0 0 0 0 0 0 0 
0 0 2 0 0 0 0 0 0 
0 0 0 0 0 0 0 0 0 
0 0 0 0 0 0 0 0 0 
0 0 0 0 2 0 0 0 0 
0 0 0 0 0 0 0 0 0 
0 0 0 0 0 0 0 0 0 
0 0 0 0 0 0 0 0 0 
0 0 0 
weighted_torsion_tz 1 120 unsigned_char
0 3 0 0 0 0 0 0 0 
0 0 0 0 0 0 0 0 0 
0 0 0 0 0 0 3 0 0 
0 0 0 0 0 0 0 0 3 
0 0 0 0 0 0 0 0 0 
0 0 0 0 0 0 0 0 0 
0 0 0 0 0 3 0 0 0 
0 0 0 0 0 0 0 0 0 
0 0 0 0 0 0 0 3 0 
0 0 0 0 0 0 0 0 0 
3 0 0 0 0 0 0 0 0 
0 0 0 0 0 0 0 0 0 
0 0 0 0 0 0 0 0 0 
0 0 0 
plain_torsion_tp_raw 1 120 unsigned_char
0 0 0 0 0 0 0 0 0 
0 0 0 0 0 0 0 0 0 
0 0 0 0 0 0 0 0 0 
0 0 0 0 0 0 0 0 0 
0 0 0 0 0 0 1 0 0 
0 0 0 0 0 0 0 0 0 
0 0 0 0 0 1 0 0 0 
0 0 0 0 0 0 0 0 0 
0 0 0 0 0 0 0 0 0 
0 0 0 0 1 0 0 0 0 
0 0 0 0 0 0 0 0 0 
0 1 0 0 0 0 0 0 0 
0 0 0 0 0 0 0 1 0 
0 1 0 
plain_torsion_tn_raw 1 120 unsigned_char
0 0 0 0 0 0 0 0 0 
0 0 0 0 0 0 0 0 0 
0 0 0 0 0 0 0 0 0 
0 0 2 0 0 0 0 0 0 
0 0 0 0 0 0 0 0 0 
0 0 0 0 0 0 0 0 2 
0 0 0 0 0 0 0 0 0 
0 0 0 0 0 0 0 0 0 
0 0 0 0 0 0 2 0 0 
0 0 0 0 0 0 0 2 0 
0 0 0 0 0 0 0 0 0 
0 0 0 0 0 0 0 0 0 
0 0 0 2 0 0 0 0 2 
0 0 0 
plain_torsion_tz_raw 1 120 unsigned_char
0 0 0 0 0 0 0 0 0 
0 0 0 3 0 0 0 0 0 
0 0 0 0 0 0 0 0 0 
0 0 0 0 0 0 0 0 0 
0 3 0 0 0 0 0 0 3 
0 0 0 0 0 0 0 0 0 
0 0 0 3 0 0 0 0 0 
0 0 0 0 0 0 0 0 0 
0 0 0 0 0 0 0 0 0 
0 0 0 0 0 0 0 0 0 
0 0 0 0 0 0 0 0 0 
0 0 0 0 0 0 0 0 0 
0 0 0 0 0 0 0 0 0 
0 0 0 
weighted_torsion_tp_raw 1 120 unsigned_char
0 0 0 0 0 0 0 0 0 
0 0 0 0 0 1 0 0 0 
0 0 0 0 0 0 0 0 0 
0 0 0 0 0 0 0 1 0 
0 0 0 0 0 0 0 0 0 
0 0 0 0 0 0 0 0 0 
0 0 0 0 1 0 0 0 0 
0 0 0 0 0 0 0 0 0 
1 0 0 0 0 0 0 0 0 
0 0 0 0 0 0 0 0 0 
0 0 1 0 0 0 0 0 1 
0 0 0 0 0 0 0 0 0 
0 0 0 0 0 0 0 0 0 
0 0 0 
weighted_torsion_tn_raw 1 120 unsigned_char
0 0 0 0 2 0 0 0 0 
0 0 0 0 0 0 0 0 0 
0 0 0 0 0 0 0 0 0 
0 2 0 0 0 0 0 0 0 
0 0 0 0 0 0 0 0 0 
0 0 0 0 0 0 0 2 0 
0 0 0 0 0 0 0 2 0 
0 0 0 0 0 0 0 0 0 
0 0 0 0 0 0 0 0 0 
0 0 0 0 0 2 0 0 0 
0 0 0 0 2 0 0 0 0 
0 0 0 0 0 0 0 0 0 
0 0 0 0 0 0 0 0 0 
0 0 0 
weighted_torsion_tz_raw 1 120 unsigned_char
3 0 0 0 0 0 0 0 0 
3 0 0 0 0 0 0 3 0 
0 0 0 0 0 0 0 0 0 
0 0 0 0 0 3 0 0 0 
0 0 0 0 0 0 0 0 0 
0 0 0 0 0 0 0 0 0 
0 0 0 0 0 0 0 0 0 
0 0 0 0 0 0 0 0 0 
0 0 0 0 0 0 0 0 0 
0 0 0 0 0 0 0 0 0 
0 0 0 0 0 0 0 0 0 
0 0 0 0 0 0 0 0 0 
0 0 0 0 0 0 0 0 0 
0 0 0 
