# vtk DataFile Version 5.1
vtk output
ASCII
DATASET POLYDATA
POINTS 120 float
2.45647 14.5481 -3.60978 2.0612 14.0318 -4.00445 1.5992 13.539 -4.19546 
1.0851 13.0704 -4.22581 0.533445 12.6272 -4.13859 -0.0416096 12.2104 -3.97687 
-0.626816 11.8218 -3.78331 -1.21071 11.4634 -3.59905 -1.7845 11.1375 -3.46197 
-2.34292 10.8461 -3.40426 -2.88469 10.5897 -3.44951 -3.41219 10.3666 -3.61011 
-3.93029 10.172 -3.88588 -4.444 9.99829 -4.2647 -4.95538 9.83555 -4.72506 
-5.46043 9.67242 -5.24007 -5.9467 9.49724 -5.78172 -6.39311 9.29912 -6.32457 
-6.772 9.06896 -6.84815 -7.05372 8.80015 -7.33818 -7.21234 8.4893 -7.78724 
-7.23114 8.13649 -8.19488 -7.10663 7.7451 -8.56753 -6.85002 7.32117 -8.91763 
-6.48599 6.87213 -9.2612 -6.04928 6.4053 -9.61417 -5.57998 5.92657 -9.98766 
-5.11855 5.4397 -10.3836 -4.70119 4.94649 -10.7916 -4.3562 4.44803 -11.1885 
-4.10131 3.94626 -11.5405 -3.94238 3.44598 -11.8085 -3.87356 2.95606 -11.955 
-3.87933 2.4892 -11.9517 -3.93782 2.06057 -11.7847 -4.02539 1.68475 -11.4587 
-4.1215 1.37278 -10.9959 -4.21311 1.13049 -10.433 -4.2976 0.957808 -9.8151 
-4.38351 0.850948 -9.18865 -4.48886 0.804706 -8.59448 -4.63672 0.815232 -8.06241 
-4.84863 0.881046 -7.60787 -5.13755 1.00269 -7.23081 -5.50274 1.1818 -6.91759 
-5.92834 1.4194 -6.64472 -6.3856 1.71458 -6.38381 -6.83809 2.06306 -6.10665 
-7.24817 2.45627 -5.78939 -7.58263 2.8809 -5.41519 -7.81682 3.31885 -4.97509 
-7.93665 3.74793 -4.46786 -7.93871 4.14398 -3.89915 -7.82967 4.48258 -3.28064 
-7.62392 4.74186 -2.62939 -7.34075 4.90444 -1.96747 -7.00191 4.95947 -1.3215 
-6.62896 4.90387 -0.721625 -6.24146 4.74255 -0.199546 -5.85583 4.48724 0.214641 
-5.48491 4.15379 0.496607 -5.138 3.7591 0.632524 -4.82118 3.31758 0.622927 
-4.5375 2.83991 0.484526 -4.28706 2.33211 0.249011 -4.06678 1.79712 -0.0410316 
-3.87069 1.23656 -0.338549 -3.69052 0.652454 -0.598973 -3.51707 0.0484371 -0.786112 
-3.34176 -0.570616 -0.876123 -3.15816 -1.19849 -0.859068 -2.9629 -1.82835 -0.737704 
-2.75592 -2.45365 -0.524257 -2.53997 -3.06849 -0.235849 -2.31945 -3.66812 0.109633 
-2.09899 -4.24882 0.496536 -1.88191 -4.80872 0.912692 -1.66901 -5.34744 1.34912 
-1.45758 -5.8661 1.79865 -1.24128 -6.3663 2.25439 -1.01058 -6.84927 2.70881 
-0.754017 -7.31443 3.15387 -0.46014 -7.7581 3.58212 -0.119527 -8.17245 3.98839 
0.27337 -8.54672 4.37108 0.719082 -8.86828 4.73288 1.21297 -9.12564 5.0802 
1.7461 -9.31098 5.42174 2.30696 -9.42225 5.76653 2.88375 -9.4636 6.1218 
3.46649 -9.44488 6.49137 4.04854 -9.37913 6.8745 4.62717 -9.27993 7.2666 
5.20295 -9.15888 7.66017 5.77834 -9.02407 8.0468 6.3566 -8.87967 8.41905 
6.94012 -8.72678 8.77247 7.53019 -8.56567 9.10642 8.12671 -8.39706 9.42371 
8.72863 -8.22364 9.72953 9.33455 -8.05006 10.0302 9.94404 -7.88317 10.3312 
10.5575 -7.73109 10.6363 11.1763 -7.60219 10.9469 11.8021 -7.50496 11.2624 
12.436 -7.44633 11.5814 13.0769 -7.43256 11.9023 13.7198 -7.46802 12.225 
14.3555 -7.55654 12.5511 14.9702 -7.70115 12.883 15.5458 -7.90432 13.2243 
16.0623 -8.16855 13.5762 16.499 -8.49555 13.9379 16.8371 -8.88644 14.3046 
17.0607 -9.34103 14.6685 17.158 -9.85791 15.0195 17.1204 -10.4344 15.3461 
16.942 -11.067 15.6364 16.6184 -11.7516 15.8786 16.1458 -12.4842 16.0607 

LINES 2 120
OFFSETS vtktypeint64
0 120 
CONNECTIVITY vtktypeint64
0 1 2 3 4 5 6 7 8 
9 10 11 12 13 14 15 16 17 
18 19 20 21 22 23 24 25 26 
27 28 29 30 31 32 33 34 35 
36 37 38 39 40 41 42 43 44 
45 46 47 48 49 50 51 52 53 
54 55 56 57 58 59 60 61 62 
63 64 65 66 67 68 69 70 71 
72 73 74 75 76 77 78 79 80 
81 82 83 84 85 86 87 88 89 
90 91 92 93 94 95 96 97 98 
99 100 101 102 103 104 105 106 107 
108 109 110 111 112 113 114 115 116 
117 118 119 
CELL_DATA 1
FIELD FieldData 2
Length 1 1 double
79.182635513 
Tortuosity 1 1 double
1.1918605414 
POINT_DATA 120
FIELD FieldData 19
Curvature 1 120 double
0 0.39620021351 0.3541679351 0.25351317381 0.15648018617 0.082372933167 0.048660449637 0.096528311447 0.18234936733 
0.27923672092 0.34111336305 0.32015079263 0.23588265497 0.14683104498 0.084978094156 0.060559533244 0.077134952233 0.12654575223 
0.21481631486 0.35117952011 0.49406427095 0.5170919484 0.38363758697 0.21852149237 0.098737847429 0.027764505896 0.037378762241 
0.073506450084 0.11180153726 0.16743893052 0.26607546266 0.44142353272 0.68917785505 0.84325927153 0.72474632368 0.49057754094 
0.31525533397 0.21199571767 0.15979804517 0.15900458119 0.23429670856 0.37889967104 0.49801044212 0.45263981242 0.28581393388 
0.14667162484 0.12113777096 0.17433050506 0.23397380381 0.27871039731 0.29845842531 0.29292755563 0.27148342888 0.24782411435 
0.23182436675 0.22747203288 0.23798080847 0.26820743465 0.32653301489 0.41830000835 0.51591726373 0.53920399022 0.43923794031 
0.28357455587 0.14869150502 0.073751968558 0.10601460691 0.17441386004 0.23163638009 0.25493728437 0.23785362586 0.19539946293 
0.14931453186 0.11153028834 0.08513746871 0.067450931701 0.054973868141 0.044065752278 0.036256709038 0.041964451155 0.064697962211 
0.095467863043 0.12752372796 0.15576001737 0.17742148859 0.18955377806 0.19045319545 0.17943477233 0.15851096001 0.13032069814 
0.099454599168 0.069388517498 0.044052383969 0.030655787701 0.034600866993 0.042795919002 0.045176011629 0.039904123237 0.027916818851 
0.013088784532 0.015158012853 0.03211047157 0.049153825482 0.065562845145 0.078110011491 0.088617514698 0.0953806857 0.10360197673 
0.11673716587 0.13985104949 0.17573752111 0.22433457205 0.28132471648 0.33409868001 0.36256726521 0.35263118079 0.30896773492 
0.25115651479 0.19559055659 0 
Torsion 1 120 double
0 0 0.038466783535 0.077207411531 0.19224739084 0.68191426573 2.048675934 0.5646353897 0.1649963048 
0.06357949202 0.032197480987 0.029295502966 0.056376736181 0.15782683631 0.46357961593 0.80463468515 0.36487129879 0.038277842594 
-0.061720380139 -0.079994738855 -0.078703115865 -0.086013145915 -0.11639722769 -0.18840634541 -0.40629092461 -2.3422928318 -1.018202899 
-0.45650605031 -0.45069999736 -0.47895930109 -0.46205265954 -0.39422287207 -0.30736157678 -0.24733585319 -0.2206809693 -0.18129491942 
-0.080130088907 0.12189575848 0.48701211844 0.75914898347 0.4783065492 0.17805275199 0.01651513056 -0.1233113947 -0.4273920437 
-1.3207134134 -1.3611126421 -0.48013511391 -0.22448279687 -0.15710448876 -0.14354783615 -0.1502919647 -0.16035532293 -0.15673876915 
-0.13182475173 -0.083629078897 -0.019614250192 0.04397577866 0.084492098885 0.08515096846 0.052591915772 0.0063768908518 -0.060945437113 
-0.20202198564 -0.63933027783 -2.0807101808 -0.85270346255 -0.28300483102 -0.14038809957 -0.08861519111 -0.06177629145 -0.03991029582 
-0.013847611505 0.017067205602 0.039089064506 0.021864670875 -0.079938572872 -0.33648011268 -0.80071490673 -0.74802547276 -0.28914650513 
-0.041363512759 0.082335242168 0.16040428697 0.21148207516 0.23872484989 0.24701255032 0.23986330199 0.21847940363 0.17910079883 
0.10729567911 -0.038987335082 -0.4004070714 -0.89596911525 -0.48580119449 -0.13822170626 -0.026090515438 -0.020846813534 -0.17749978742 
-1.3877454703 -1.0619388983 -0.083326519596 0.071406671614 0.079930606461 0.042631764511 -0.022948381366 -0.10432509289 -0.17198894314 
-0.20384101253 -0.16571278162 -0.10322340696 -0.041921308229 0.0050976238889 0.03297652588 0.047974244641 0.053490613123 0.053935318779 
0.051038094196 0 0 
FrenetTangent 3 120 double
-0.59210122967 -0.69698041712 -0.40451752986 -0.59210122967 -0.69698041712 -0.40451752986 -0.7033266224 -0.69274157313 -0.15950164603 
-0.7592342221 -0.64955514003 0.040515627262 -0.78292268685 -0.59758599782 0.1729827784 -0.79667312929 -0.55299374892 0.24394638492 
-0.81305135754 -0.51952354379 0.26275992358 -0.83729585087 -0.49489647637 0.23240726279 -0.86814863158 -0.47329875864 0.14935273198 
-0.89512673415 -0.44569650555 0.010136801998 -0.89867768985 -0.40304874638 -0.17300323061 -0.86587479278 -0.34594991065 -0.36135785938 
-0.80848423025 -0.2885769683 -0.51290991685 -0.74997707766 -0.24613503406 -0.6139641097 -0.70296558424 -0.22537258453 -0.67457140876 
-0.66627684137 -0.22738481608 -0.71019104195 -0.63091333078 -0.25251577295 -0.73361035534 -0.58330899817 -0.30270261927 -0.75373850701 
-0.50476775191 -0.38126580315 -0.7744971943 -0.37059684901 -0.48784967507 -0.79035477479 -0.1615747025 -0.60436294686 -0.78015321827 
0.097569520809 -0.68688118762 -0.72019054611 0.33018298025 -0.70634422048 -0.62614458533 0.48635697342 -0.68409057172 -0.54357794665 
0.5712034623 -0.65333284041 -0.49687302633 0.60498705821 -0.63140173317 -0.48510051614 0.60195554215 -0.62450579537 -0.49763645046 
0.56973180591 -0.635393413 -0.52123016034 0.5125218534 -0.6666898995 -0.54115240708 0.43279775996 -0.72164541653 -0.5402906549 
0.33135232768 -0.80236873452 -0.49639706768 0.20754727442 -0.9023506897 -0.37773980685 0.065037331272 -0.98689181961 -0.14769794154 
-0.070322312577 -0.97996184328 0.18635868121 -0.15298888093 -0.84259895285 0.51635395513 -0.17286557679 -0.64728770516 0.7423854249 
-0.15896734293 -0.46935583973 0.86858187846 -0.13932912461 -0.32832487239 0.93423239786 -0.13243443488 -0.21726080893 0.96708782505 
-0.15362288398 -0.12297725584 0.98044714496 -0.21923910204 -0.030925034909 0.97518093621 -0.34169170958 0.07250221572 0.93701131494 
-0.50655755363 0.18959664259 0.84110199023 -0.65581402912 0.30153616085 0.69208662963 -0.73983010147 0.38985981371 0.54832540213 
-0.76034438969 0.45885459905 0.45970519466 -0.73513814854 0.52012128131 0.4347939228 -0.67203083504 0.57784114913 0.46311355318 
-0.57081872391 0.62700833161 0.53011936063 -0.43227229959 0.6557173768 0.61901161602 -0.26575606999 0.65087102368 0.71115442894 
-0.08953428649 0.60610116204 0.79033220415 0.076397350022 0.5246653337 0.84787365363 0.21885446392 0.41567290583 0.8827903256 
0.33411054412 0.2882822699 0.89736474032 0.42472004745 0.14858693073 0.89304804199 0.49607637467 -0.00039613370254 0.86827879945 
0.55400719245 -0.15803655807 0.81737413528 0.60225991637 -0.32455567587 0.72934669835 0.63857525459 -0.49694390991 0.58759543449 
0.64987089881 -0.65919865942 0.37831857251 0.61739017368 -0.77783214434 0.11750118589 0.54201896072 -0.82968070612 -0.13358657162 
0.45202195979 -0.83399085257 -0.31644178879 0.37387020449 -0.82823713117 -0.41742583144 0.31758375315 -0.83563716082 -0.44816413867 
0.28336899553 -0.86205726049 -0.42018959054 0.26831320429 -0.9014915273 -0.33958953254 0.26793053208 -0.93961629404 -0.21291888115 
0.27616891939 -0.95946827297 -0.05613698542 0.28683789802 -0.95222990966 0.1047960849 0.29578372796 -0.92298199622 0.24620361678 
0.30142240698 -0.88386074682 0.35767962313 0.30357085434 -0.84467293737 0.44087681417 0.30258056213 -0.80988518229 0.50252462122 
0.29928294392 -0.78018864229 0.54930447106 0.295398298 -0.75475937287 0.585728721 0.29400690804 -0.73262749853 0.61385412471 
0.29943007302 -0.71325139434 0.63373028951 0.31648888113 -0.69610810045 0.64441314435 0.34934702574 -0.67976383246 0.64488587183 
0.40021088125 -0.66079223397 0.63496840398 0.46836288301 -0.63336791113 0.61602053454 0.54941592983 -0.5906967207 0.59094798434 
0.63543419997 -0.52724723859 0.56412208512 0.71626320437 -0.44131261764 0.54056470064 0.78189581781 -0.33703895607 0.52444606221 
0.82560399637 -0.22384013129 0.51795138459 0.84616538462 -0.11351186234 0.52069107827 0.84783582235 -0.016548026018 0.53000054828 
0.83834032255 0.060795125359 0.54174667171 0.82582659124 0.11735942539 0.55157701771 0.81660880049 0.15579918268 0.5557667511 
0.81412814089 0.18095093752 0.55177180829 0.81887693038 0.19818646463 0.53866752096 0.82884781585 0.21209904078 0.51771159448 
0.84077362619 0.22495779709 0.49243649238 0.85174024013 0.23666929861 0.46746786675 0.86009292842 0.24546862774 0.44719716823 
0.86558290114 0.24867276009 0.43465860126 0.86923030236 0.24349071909 0.43029170475 0.87250460193 0.22756719527 0.43237586802 
0.87650446539 0.1998655564 0.43794255503 0.88178737933 0.16020897449 0.44360354162 0.88771323754 0.10983348573 0.44710380596 
0.89256861156 0.050695012031 0.44805277525 0.89382459656 -0.015105492724 0.44816226378 0.88847171198 -0.086152284403 0.45077244914 
0.87315265725 -0.16279440157 0.45945883379 0.84355303854 -0.24646745218 0.47714994099 0.79402521052 -0.33983704603 0.50401859807 
0.71700967679 -0.44474319456 0.53675004823 0.60388167521 -0.55953101372 0.56767241173 0.4491270499 -0.67602393213 0.58418878475 
0.25710472276 -0.77833452011 0.57279362456 0.046353312715 -0.84909878256 0.52619637765 -0.15710058233 -0.87968541222 0.44885741897 
-0.33310933 -0.87415456102 0.35340059098 -0.47396130791 -0.84355192421 0.2525486681 -0.47396130791 -0.84355192421 0.2525486681 

FrenetNormal 3 120 double
-0.49092882223 -0.086100934078 0.86693455385 -0.49092882223 -0.086100934078 0.86693455385 -0.32952004357 0.11889838687 0.93663211267 
-0.19836790445 0.29025549579 0.93616340542 -0.14031564115 0.44051002152 0.88671440824 -0.22680879197 0.64763971721 0.72740674219 
-0.56891292107 0.80482884952 -0.16908167025 -0.42617549179 0.32446973328 -0.84444883941 -0.26678501883 0.19128080747 -0.9445831919 
-0.10995021437 0.19867186734 -0.9738790682 0.071543197509 0.25445114126 -0.9644356835 0.25572385633 0.31474261702 -0.91408008092 
0.41043430502 0.34812975645 -0.84282225525 0.53342754486 0.32380699231 -0.7814115984 0.65739906353 0.15605211817 -0.73720703177 
0.74196359339 -0.29742171117 -0.60085801302 0.66951823638 -0.65498595431 -0.35034087802 0.65954764584 -0.7181269321 -0.22201489199 
0.72706917906 -0.67143749772 -0.14332513916 0.82308761505 -0.56676543857 -0.036107002146 0.90733095254 -0.40189274539 0.12342108312 
0.93479232878 -0.18508086563 0.30316394118 0.89995887153 0.035498636759 0.43452718712 0.84957167744 0.22487356621 0.47713713345 
0.81891994256 0.41256988345 0.39894387944 0.64858389876 0.74418895546 -0.15975520287 -0.66221068939 -0.042151829392 -0.74813115571 
-0.81568995603 -0.35980637789 -0.45297821808 -0.84242893701 -0.51241144687 -0.16657729498 -0.794375141 -0.5886420861 0.14989539628 
-0.68875242248 -0.56528038981 0.45395834768 -0.56511834057 -0.42579354884 0.70664072549 -0.44173546815 -0.16119240757 0.88254562711 
-0.30080813961 0.1989571235 0.93270066267 -0.137320928 0.53556187815 0.83325652557 0.015360645429 0.7518691779 0.65913336275 
0.11860749925 0.86431846982 0.4887594949 0.12948583156 0.92929347869 0.34590034675 -0.033211446129 0.9761066549 0.21473890682 
-0.40574547904 0.91256834251 0.050888372856 -0.69435556009 0.70710671296 -0.13368041239 -0.76358966523 0.55981795905 -0.32176804672 
-0.69765067643 0.48309357419 -0.52905966795 -0.54287515799 0.44868152703 -0.70990946616 -0.32939500593 0.50074736993 -0.80046923837 
0.051689945832 0.74826355193 -0.66138476423 0.59896908446 0.79872298564 0.057250572678 0.73973108281 0.49491700032 0.45591127197 
0.79847725793 0.27346914613 0.53632890533 0.85383035167 0.076847923863 0.51484767375 0.88697236058 -0.12393021569 0.4448835052 
0.87976394975 -0.32386318681 0.34803452263 0.82320897194 -0.51298314557 0.24325969843 0.72549282154 -0.67432284593 0.1376548777 
0.60342066309 -0.79680812628 0.031309954555 0.47936668251 -0.87371813836 -0.082608706555 0.37192699528 -0.90351600836 -0.21290639449 
0.2856338942 -0.88613687474 -0.36493111365 0.20715433996 -0.81879000374 -0.53541573493 0.10994391436 -0.69680307479 -0.70878615299 
-0.026739940535 -0.51728035833 -0.85539815669 -0.19609852989 -0.29682937897 -0.93457888183 -0.36373324261 -0.088316562861 -0.92730702194 
-0.52277194803 0.039760587939 -0.85154482325 -0.72836704522 0.016441821909 -0.68498986411 -0.93384419603 -0.35764365776 0.0051021175464 
-0.34187473762 -0.50016736977 0.79558422935 -0.057805376114 -0.36694722252 0.92844400713 0.0354539189 -0.21123342186 0.97679243503 
0.064900428349 -0.039658316867 0.99710338095 0.067689276249 0.12926532271 0.98929704246 0.0578775094 0.27457817572 0.95982134761 
0.038996867383 0.38624024569 0.92157350057 0.0071866641265 0.46472944337 0.88542356888 -0.038011173709 0.51656654096 0.85540292227 
-0.084055050851 0.55189597403 0.8296659462 -0.089275542904 0.58859833771 0.80348109765 0.02676901431 0.64829859231 0.7609154717 
0.3889414584 0.69775952287 0.60154483639 0.81383161186 0.54826983799 0.19255724418 0.92280047221 0.3689409193 -0.11100399341 
0.91468303478 0.33070372233 -0.23235747012 0.88071438552 0.39035516289 -0.26826296417 0.82361607689 0.50196924199 -0.26397620723 
0.73315676778 0.64122181005 -0.22652978652 0.60531867818 0.77834731039 -0.16662761555 0.44551449335 0.89054529443 -0.091901658198 
0.2683031861 0.96326730205 -0.011380031986 0.09240006072 0.99350364173 0.066428477731 -0.064181901385 0.98896174329 0.13354906901 
-0.18247085207 0.96773367338 0.17376974868 -0.24560359507 0.95531825159 0.16445641448 -0.19972425643 0.9796712126 0.018829142309 
0.062389682597 0.91745026457 -0.3929281608 0.33395567595 0.59876994187 -0.72797538641 0.39178254703 0.44055211232 -0.80772536927 
0.38288072544 0.39599303172 -0.83462079348 0.35592729257 0.39339411468 -0.84767731652 0.35421936008 0.3434716508 -0.86980220167 
0.45485980605 -0.02738980153 -0.89014176153 0.2958112532 -0.95348300222 -0.058016092191 0.14782101064 -0.96638913794 0.21033540569 
0.13078391647 -0.9743876712 0.1829323192 0.12599500528 -0.98637488374 0.10578207492 0.10474775369 -0.9938409091 0.036168432326 
0.058359495889 -0.9982901561 -0.0033065808884 -0.019417563577 -0.99979881756 0.0050281836465 -0.12848485584 -0.98963756827 0.064102459345 
-0.25669340657 -0.95486122264 0.14949428257 -0.39086463014 -0.89105727581 0.23074178669 -0.51233081991 -0.82037271216 0.25397981045 
-0.63099034436 -0.7413326365 0.22864187582 -0.74283074069 -0.65330311767 0.14627893601 -0.8419287723 -0.5390786038 0.023456369958 
-0.91042479267 -0.39385033294 -0.12652514425 -0.93313937538 -0.22480643859 -0.28055832066 -0.90658735169 -0.051800580286 -0.41882702114 
-0.84147694457 0.10651577085 -0.52968947726 -0.75307478241 0.23968391064 -0.61272342462 -0.75307478241 0.23968391064 -0.61272342462 

FrenetBinormal 3 120 double
-0.63906574413 0.71190232989 -0.29118730635 -0.63906574413 0.71190232989 -0.29118730635 -0.62987951476 0.71131728958 -0.31189663421 
-0.61984963538 0.70273029479 -0.34922279751 -0.60608876187 0.66995663752 -0.42873595206 -0.56024074909 0.5241762207 -0.64138100432 
-0.12363485848 -0.28695959719 -0.94993084556 0.34250563253 -0.80609978902 -0.48258991061 0.41850174099 -0.85988367688 -0.29232918949 
0.43204060015 -0.87285973333 -0.22684092611 0.43273546267 -0.87909403635 -0.19983416774 0.42996064067 -0.88388672597 -0.18406005304 
0.42177829567 -0.89192432753 -0.16301553074 0.39113864213 -0.91354615469 -0.11155261489 0.27141455128 -0.96169378419 0.038460457587 
-0.074600246174 -0.92727367651 0.36687645349 -0.39203788107 -0.71220024155 0.58230328501 -0.47407543232 -0.6266297421 0.61853670124 
-0.46538148384 -0.63545894753 0.61612661077 -0.4303309813 -0.66391236785 0.61158451121 -0.38812904821 -0.68791543788 0.61329290903 
-0.34153109766 -0.70280815823 0.6240330136 -0.28469848807 -0.70697785607 0.64740179326 -0.20416870304 -0.69386740008 0.6905528016 
-0.055648291351 -0.63477735538 0.77068863801 0.46187615837 -0.21797855383 0.85974168469 0.44623595567 0.77988187236 -0.43892794059 
0.10027743996 0.6832383048 -0.72327716257 -0.16623728784 0.54125695101 -0.82426092781 -0.42620914389 0.36431907343 -0.82802015579 
-0.64484551287 0.19147452771 -0.73994038258 -0.79847691891 0.066806336247 -0.5983072149 -0.89478484661 0.0078450070385 -0.44642864395 
-0.95108844778 0.0095314593464 -0.308771624 -0.9786405699 0.056572779079 -0.19764148254 -0.98482564088 0.12534498822 -0.12002954218 
-0.98013348326 0.18071712274 -0.081729288187 -0.98174376212 0.16916385143 -0.086964227771 -0.99063521051 -0.0036795594322 -0.13648567888 
-0.90098313844 -0.38999437791 -0.19008884619 -0.68542291493 -0.70643027873 -0.17649841073 -0.54788465827 -0.82543763026 -0.13592321285 
-0.50663890349 -0.85479454356 -0.11244247316 -0.52458986079 -0.84128522572 -0.13055514907 -0.58664329113 -0.77282688693 -0.24205010185 
-0.6474600826 -0.4791180583 -0.59265616309 -0.31750265894 0.30251519787 -0.89870830453 0.03424152275 0.64896592296 -0.76004654394 
0.19131140323 0.72943483479 -0.65675320234 0.29002480854 0.75108529367 -0.5930906272 0.37769530422 0.74900481452 -0.54436940123 
0.46690363487 0.7264668042 -0.50422909291 0.56257482474 0.67939280241 -0.4710997629 0.65250508774 0.61033165968 -0.44914627425 
0.72405362209 0.53102744068 -0.44017747509 0.76799769856 0.46318305098 -0.44231323323 0.78458813443 0.42855415726 -0.44806561306 
0.78197781886 0.43564421899 -0.44578560459 0.77095400159 0.47354676964 -0.42589128236 0.76166526764 0.51721584022 -0.39032524221 
0.75957408491 0.54578215279 -0.35379238436 0.76182329974 0.55395800835 -0.33579128184 0.7575708379 0.55120786516 -0.34965170519 
0.72276250471 0.55034385022 -0.41801436376 0.57419728111 0.56013652001 -0.59711352465 -0.16454658085 0.41689513013 -0.89393672774 
-0.89600428355 -0.081791697916 -0.43644752492 -0.96159584176 -0.22948368591 -0.15056784188 -0.96278567169 -0.26926132559 -0.023282803225 
-0.95891535725 -0.27901227764 0.051317507389 -0.9555847331 -0.27667431304 0.10153394686 -0.95349996339 -0.26964988423 0.13463565559 
-0.95269290797 -0.26383451792 0.15088926485 -0.95278176318 -0.26562035567 0.14714869486 -0.95236555697 -0.27792984773 0.12551830799 
-0.95045487421 -0.29447668209 0.099594255843 -0.95119384091 -0.28963819828 0.10648939439 -0.95542836356 -0.20728213527 0.21021598061 
-0.87124403775 0.066363368747 0.48634322241 -0.48735294772 0.46350156121 0.740036085 -0.16246828641 0.63387990199 0.75617479842 
-0.056446403001 0.67378681462 0.73676667408 -0.070557642852 0.66818256185 0.74064410014 -0.1407078318 0.63174699386 0.76229721357 
-0.24229018011 0.55753469822 0.79400914913 -0.34721221165 0.44656313991 0.82463630902 -0.43606853395 0.30550584389 0.84646938105 
-0.49637832497 0.14836340662 0.85533435455 -0.52484890269 -0.0080975911606 0.85115689409 -0.52636023964 -0.14724412768 0.83741510912 
-0.513702143 -0.24453116395 0.82238349821 -0.50763108188 -0.27128177869 0.81775111205 -0.54153512199 -0.12637614443 0.83112500971 
-0.57732391057 0.35431874104 0.7356326067 -0.46681278838 0.77601332589 0.42413339724 -0.39939671256 0.87231177524 0.28205395365 
-0.38275587466 0.89027159247 0.24680849268 -0.38451830353 0.8883854533 0.25083253501 -0.36710870246 0.90651661755 0.20846779773 
-0.20944879589 0.96820021543 -0.13681938729 0.39614944647 0.17771447378 -0.90082361307 0.4657087807 -0.11960437162 -0.8768181829 
0.46328769608 -0.1030651521 -0.88019434506 0.45450662953 -0.037385468058 -0.88995845436 0.44832255797 0.014725923185 -0.89375054193 
0.44711904779 0.029099484408 -0.89400099391 0.44799614821 -0.013196533469 -0.89393808661 0.4405787771 -0.11487065494 -0.89033424836 
0.41438259152 -0.24847138329 -0.87552786337 0.36829758629 -0.38114397049 -0.84798948207 0.32717135575 -0.45989063406 -0.8255056079 
0.29622341013 -0.50262253525 -0.81217133558 0.28901455505 -0.510019687 -0.81015461848 0.29906660699 -0.50238023658 -0.81127878222 
0.32407384717 -0.48895530475 -0.80987582476 0.35651406217 -0.47800975159 -0.80274803074 0.39168709551 -0.47272642767 -0.78937376686 
0.4253877361 -0.47382295639 -0.77106230616 0.45633217145 -0.480595229 -0.74885858155 0.45633217145 -0.480595229 -0.74885858155 

plain_curvature_peaks 1 120 unsigned_char
0 0 0 0 0 0 0 0 0 
0 0 0 0 0 0 0 0 0 
0 1 0 0 0 0 0 0 0 
0 0 0 0 0 0 0 0 0 
0 0 0 0 0 0 0 0 0 
0 0 0 0 0 0 0 0 0 
0 0 0 0 0 1 0 0 0 
0 0 0 0 0 0 0 0 0 
0 0 1 0 0 0 0 0 0 
0 0 0 0 0 0 0 0 0 
0 0 0 0 0 0 0 0 0 
0 0 0 0 0 1 0 0 0 
0 0 0 0 0 0 0 0 0 
0 0 0 
weighted_curvature_peaks 1 120 unsigned_char
0 0 0 0 0 0 0 0 0 
0 0 0 0 0 0 0 0 0 
0 0 0 0 1 0 0 0 0 
0 0 0 0 0 0 0 0 0 
0 0 0 0 0 0 0 0 0 
0 0 0 0 0 0 0 0 0 
0 0 1 0 0 0 0 0 0 
0 0 0 0 0 0 0 0 0 
0 0 0 0 0 0 0 1 0 
0 0 0 0 0 0 0 0 0 
0 0 0 0 0 0 0 0 0 
0 0 0 0 0 0 0 0 0 
1 0 0 0 0 0 0 0 0 
0 0 0 
plain_torsion_tp 1 120 unsigned_char
0 0 0 0 0 0 0 0 0 
0 0 0 0 0 0 0 0 0 
0 1 0 0 0 0 0 0 0 
0 0 0 0 0 0 0 0 0 
0 0 0 0 0 0 0 0 0 
0 0 0 0 0 0 0 0 0 
0 0 0 0 0 1 0 0 0 
0 0 0 0 0 0 0 0 0 
0 0 1 0 0 0 0 0 0 
0 0 0 0 0 0 0 0 0 
0 0 0 0 0 0 0 0 0 
0 0 0 0 0 1 0 0 0 
0 0 0 0 0 0 0 0 0 
0 0 0 
plain_torsion_tn 1 120 unsigned_char
0 0 0 0 0 0 0 2 0 
0 0 0 0 0 0 0 0 0 
0 0 0 0 0 0 0 0 0 
0 0 0 0 0 0 0 0 0 
0 0 0 0 2 0 0 0 0 
0 0 0 0 0 0 0 0 0 
0 0 0 0 0 0 0 2 0 
0 0 0 0 0 0 0 0 0 
0 0 0 0 0 0 0 0 0 
0 0 0 0 0 0 0 0 0 
2 0 0 0 0 0 0 0 0 
0 0 0 0 0 0 0 0 0 
0 0 0 0 0 0 0 0 0 
0 0 0 
plain_torsion_tz 1 120 unsigned_char
0 0 0 0 0 0 0 0 3 
0 0 0 0 0 0 0 0 0 
0 0 0 0 0 0 0 0 0 
0 0 0 0 0 3 0 0 0 
0 0 0 0 0 0 0 0 0 
0 0 0 3 0 0 0 0 0 
0 0 0 0 0 0 0 0 3 
0 0 0 0 0 0 0 0 0 
0 0 0 0 0 0 0 0 0 
0 0 3 0 0 0 0 0 0 
0 0 0 0 3 0 0 0 0 
0 0 0 0 0 0 0 0 0 
0 0 0 0 0 0 0 0 0 
0 0 0 
weighted_torsion_tp 1 120 unsigned_char
0 0 0 0 0 0 0 0 0 
0 0 0 0 0 0 0 0 0 
0 0 0 0 1 0 0 0 0 
0 0 0 0 0 0 0 0 0 
0 0 0 0 0 0 0 0 0 
0 0 0 0 0 0 0 0 0 
0 0 1 0 0 0 0 0 0 
0 0 0 0 0 0 0 0 0 
0 0 0 0 0 0 0 1 0 
0 0 0 0 0 0 0 0 0 
0 0 0 0 0 0 0 0 0 
0 0 0 0 0 0 0 0 0 
1 0 0 0 0 0 0 0 0 
0 0 0 
weighted_torsion_tn 1 120 unsigned_char
0 0 0 0 0 0 0 0 2 
0 0 0 0 0 0 0 0 0 
0 0 0 0 0 0 0 0 0 
0 0 0 0 0 0 0 0 0 
0 0 0 0 0 0 0 0 0 
2 0 0 0 0 0 0 0 0 
0 0 0 0 0 0 0 2 0 
0 0 0 0 0 0 0 0 0 
0 0 0 0 0 0 0 0 0 
0 0 0 0 0 0 0 0 0 
0 0 0 0 2 0 0 0 0 
0 0 0 0 0 0 0 0 0 
0 0 0 0 0 0 0 0 0 
0 0 0 
weighted_torsion_tz 1 120 unsigned_char
0 0 0 0 0 0 0 0 0 
3 0 0 0 0 0 0 0 0 
0 0 0 0 0 0 0 0 0 
0 0 0 0 0 0 0 0 3 
0 0 0 0 0 0 0 0 0 
0 0 0 0 0 0 3 0 0 
0 0 0 0 0 0 0 0 0 
0 0 3 0 0 0 0 0 0 
0 0 0 0 0 0 0 0 0 
0 0 0 0 0 0 0 3 0 
0 0 0 0 0 0 0 0 0 
3 0 0 0 0 0 0 0 0 
0 0 0 0 0 0 0 0 0 
0 0 0 
plain_torsion_tp_raw 1 120 unsigned_char
0 0 0 0 0 0 0 0 0 
0 0 0 0 0 0 0 0 0 
0 0 0 0 0 0 0 0 1 
0 0 0 0 0 0 0 0 0 
0 0 0 0 0 0 0 1 0 
0 0 0 0 0 0 0 0 0 
0 0 0 0 0 0 0 0 1 
0 0 0 0 0 0 0 0 0 
0 0 0 0 0 0 1 0 0 
0 0 0 0 0 0 0 0 0 
0 0 0 0 0 0 0 0 1 
0 0 0 0 0 0 1 0 0 
0 0 0 0 0 0 0 0 0 
0 0 0 
plain_torsion_tn_raw 1 120 unsigned_char
0 0 0 0 0 0 0 0 0 
0 0 0 0 0 0 0 2 0 
0 0 0 0 0 0 0 0 0 
0 0 0 0 0 0 0 2 0 
0 0 0 0 0 0 0 0 0 
0 0 0 0 0 0 0 0 0 
0 0 0 0 0 0 0 2 0 
0 0 2 0 0 0 0 0 0 
0 0 0 0 0 0 0 0 0 
0 0 0 0 0 0 0 0 0 
0 2 0 0 0 0 0 0 0 
0 0 0 2 0 0 0 0 0 
0 0 0 0 0 0 0 0 0 
0 0 0 
plain_torsion_tz_raw 1 120 unsigned_char
0 0 0 0 0 0 0 3 0 
0 0 0 0 0 0 0 0 0 
0 0 3 0 0 0 0 0 0 
3 0 0 0 0 0 0 0 0 
0 0 0 3 0 0 0 0 0 
0 0 0 0 0 0 0 0 0 
0 0 0 0 0 0 0 0 0 
0 0 0 0 0 0 0 0 0 
0 0 0 0 0 0 0 0 0 
0 0 0 0 0 0 0 0 0 
0 0 0 0 0 0 0 0 0 
0 0 0 0 0 0 0 0 0 
0 0 0 0 0 0 0 0 0 
0 0 0 
weighted_torsion_tp_raw 1 120 unsigned_char
0 0 0 0 0 0 0 0 0 
0 0 0 0 0 0 0 0 0 
0 0 0 0 0 0 0 0 0 
0 0 1 0 0 0 0 0 0 
0 0 0 0 0 0 0 0 0 
0 0 0 1 0 0 0 0 0 
0 0 0 0 0 0 0 0 0 
1 0 0 0 0 0 0 0 0 
0 0 0 0 0 0 0 0 0 
0 0 1 0 0 0 0 0 0 
0 0 0 0 0 0 0 0 0 
0 0 0 0 1 0 0 0 0 
1 0 0 0 0 0 0 0 0 
0 0 0 
weighted_torsion_tn_raw 1 120 unsigned_char
0 0 0 0 0 0 0 0 0 
0 0 0 0 0 0 0 0 0 
2 0 0 0 0 0 0 0 0 
0 0 0 0 0 0 0 0 0 
0 0 2 0 0 0 0 0 0 
0 0 0 0 0 0 0 0 0 
0 0 0 0 2 0 0 0 0 
0 0 0 0 0 0 2 0 0 
0 0 0 0 0 0 0 0 0 
0 0 0 0 0 0 0 0 0 
0 0 0 0 0 2 0 0 0 
0 0 0 0 0 0 0 2 0 
0 0 0 0 0 0 0 0 0 
0 0 0 
weighted_torsion_tz_raw 1 120 unsigned_char
0 0 0 0 0 0 0 0 3 
0 0 0 0 0 0 0 0 0 
0 0 0 0 0 3 0 0 0 
0 0 0 3 0 0 0 0 0 
0 0 0 0 0 0 0 3 0 
0 0 0 0 0 0 0 0 0 
0 0 0 0 0 0 0 0 0 
0 0 0 0 0 0 0 0 0 
0 0 0 0 0 0 0 0 0 
0 0 0 0 0 0 0 0 0 
0 0 0 0 0 0 0 0 0 
0 0 0 0 0 0 0 0 0 
0 0 0 0 0 0 0 0 0 
0 0 0 
