# vtk DataFile Version 5.1
vtk output
ASCII
DATASET POLYDATA
POINTS 120 float
-5.82489 22.7173 -7.40222 -5.95376 22.2301 -6.97795 -6.16974 21.747 -6.69165 
-6.45279 21.2674 -6.52842 -6.78296 20.7908 -6.47343 -7.14051 20.3168 -6.51213 
-7.50626 19.8452 -6.6306 -7.86219 19.3765 -6.81618 -8.19211 18.9115 -7.05785 
-8.48238 18.4519 -7.34657 -8.72244 18 -7.67498 -8.90499 17.5584 -8.03703 
-9.02589 17.1297 -8.4274 -9.08375 16.7167 -8.8413 -9.07956 16.3218 -9.2745 
-9.01625 15.9471 -9.72357 -8.89841 15.5936 -10.1861 -8.7322 15.2613 -10.6608 
-8.52531 14.9483 -11.147 -8.28701 14.6508 -11.6443 -8.02789 14.3629 -12.1515 
-7.75961 14.0766 -12.6652 -7.49421 13.7826 -13.1792 -7.24329 13.4712 -13.6833 
-7.01704 13.1339 -14.1633 -6.82339 12.7644 -14.6013 -6.66741 12.3604 -14.9775 
-6.5512 11.9239 -15.2717 -6.47424 11.4615 -15.466 -6.43414 10.9844 -15.5473 
-6.42765 10.5076 -15.5092 -6.45169 10.0488 -15.353 -6.50406 9.62685 -15.0871 
-6.58364 9.26006 -14.7257 -6.6901 8.96387 -14.2866 -6.82307 8.74891 -13.7888 
-6.98121 8.61974 -13.2502 -7.16139 8.57392 -12.6869 -7.35823 8.60252 -12.1116 
-7.56416 8.69149 -11.5339 -7.76994 8.8236 -10.9602 -7.96546 8.98061 -10.3951 
-8.14082 9.1451 -9.84165 -8.28736 9.30127 -9.30226 -8.39851 9.4361 -8.77942 
-8.47009 9.53862 -8.27568 -8.50009 9.59938 -7.79349 -8.48818 9.60983 -7.33481 
-8.43523 9.56191 -6.90066 -8.34312 9.44849 -6.49075 -8.21489 9.26445 -6.10323 
-8.05495 9.00758 -5.73492 -7.86923 8.67959 -5.3817 -7.66501 8.28615 -5.03921 
-7.45039 7.83612 -4.70365 -7.23353 7.34041 -4.37249 -7.0219 6.8104 -4.04496 
-6.82161 6.25638 -3.72211 -6.637 5.68698 -3.40652 -6.47035 5.10845 -3.10167 
-6.3218 4.5247 -2.8111 -6.1895 3.93783 -2.5376 -6.06979 3.3485 -2.28261 
-5.95766 2.75651 -2.04585 -5.8472 2.16163 -1.82536 -5.73221 1.56372 -1.6178 
-5.60674 0.963099 -1.41907 -5.46556 0.360858 -1.2249 -5.30442 -0.2412 -1.0314 
-5.12012 -0.840493 -0.835515 -4.91036 -1.43329 -0.63516 -4.67345 -2.01488 -0.429205 
-4.40802 -2.57996 -0.217287 -4.11282 -3.12222 0.000587375 -3.78674 -3.63532 0.224423 
-3.42895 -4.1134 0.454634 -3.03923 -4.55157 0.692292 -2.61825 -4.94671 0.939186 
-2.1679 -5.29805 1.19767 -1.69131 -5.60714 1.47018 -1.19269 -5.87781 1.75858 
-0.676877 -6.11543 2.06342 -0.148832 -6.32553 2.38336 0.386923 -6.5127 2.71515 
0.926701 -6.67961 3.05391 1.4678 -6.82602 3.3934 2.00853 -6.94863 3.72738 
2.54805 -7.04218 4.05051 3.0861 -7.1006 4.35905 3.62272 -7.11873 4.65168 
4.15817 -7.09442 4.92957 4.69263 -7.02993 5.19624 5.22613 -6.93193 5.45745 
5.7587 -6.81146 5.71985 6.29034 -6.68204 5.99061 6.8209 -6.55788 6.27639 
7.35002 -6.45189 6.58237 7.87708 -6.37429 6.91195 8.40099 -6.33206 7.26653 
8.91975 -6.32897 7.64555 9.43072 -6.36668 8.04665 9.93031 -6.44578 8.46601 
10.4141 -6.56667 8.89838 10.8774 -6.73035 9.33726 11.3151 -6.93857 9.77534 
11.7224 -7.19332 10.2049 12.0941 -7.49614 10.6184 12.4253 -7.84781 11.0093 
12.7108 -8.24755 11.3728 12.9456 -8.69277 11.7065 13.1252 -9.17941 12.0103 
13.2466 -9.70211 12.2863 13.3092 -10.2546 12.5384 13.3158 -10.8308 12.7711 
13.2722 -11.4248 12.989 13.1873 -12.0314 13.1964 13.0722 -12.6465 13.3958 
12.9387 -13.2671 13.5877 12.7978 -13.8912 13.7711 12.6591 -14.5175 13.9429 

LINES 2 120
OFFSETS vtktypeint64
0 120 
CONNECTIVITY vtktypeint64
0 1 2 3 4 5 6 7 8 
9 10 11 12 13 14 15 16 17 
18 19 20 21 22 23 24 25 26 
27 28 29 30 31 32 33 34 35 
36 37 38 39 40 41 42 43 44 
45 46 47 48 49 50 51 52 53 
54 55 56 57 58 59 60 61 62 
63 64 65 66 67 68 69 70 71 
72 73 74 75 76 77 78 79 80 
81 82 83 84 85 86 87 88 89 
90 91 92 93 94 95 96 97 98 
99 100 101 102 103 104 105 106 107 
108 109 110 111 112 113 114 115 116 
117 118 119 
CELL_DATA 1
FIELD FieldData 2
Length 1 1 double
72.416371197 
Tortuosity 1 1 double
0.54967351342 
POINT_DATA 120
FIELD FieldData 19
Curvature 1 120 double
0 0.39108550775 0.40236137388 0.35301441978 0.2812783979 0.21946461484 0.17978074116 0.16242894215 0.16212426502 
0.17159204992 0.18398838103 0.19412224983 0.19873750864 0.19646459588 0.18730563588 0.17157159193 0.14959887628 0.12195171075 
0.089933624945 0.055183297942 0.019014147282 0.01867831841 0.057698031512 0.10048715719 0.15095782235 0.21368553047 0.29388416458 
0.39065204568 0.48467281154 0.54173803669 0.53932534626 0.49194969212 0.43331852536 0.3827474036 0.34145064279 0.3026110379 
0.2591146182 0.21023729376 0.15966241819 0.11181119168 0.07201315334 0.052176619259 0.067861600139 0.10539924905 0.15393453927 
0.21386587266 0.28622515709 0.36392669224 0.42097084135 0.42153282588 0.36044046561 0.2691332292 0.1844345718 0.12227080272 
0.082838506644 0.061485914833 0.052466656892 0.049730141734 0.04984011682 0.050649034364 0.050731454751 0.049081927886 0.045055292618 
0.038996403039 0.033854775203 0.033418686563 0.038488692009 0.046121852886 0.053785042865 0.061092628156 0.068558921452 0.076815511665 
0.087411146091 0.099925219211 0.11353010493 0.1265274003 0.13555397433 0.13736826503 0.13083087209 0.11639774179 0.09737285747 
0.078105321471 0.061689160453 0.050236434851 0.046959889313 0.054379226023 0.070130866383 0.090551093583 0.1098357746 0.12004493156 
0.11492562097 0.093887855175 0.060912716621 0.030703822739 0.040472602614 0.070093568045 0.093898814 0.10779241086 0.11222549255 
0.11092715938 0.10823543996 0.10721188429 0.11029307924 0.11875366607 0.13222496811 0.14948839416 0.16915176836 0.18752630119 
0.20133276374 0.2078781504 0.20429292637 0.18982693844 0.16638592627 0.13671969471 0.10400093073 0.072586062884 0.044890455189 
0.026309674773 0.026917280644 0 
Torsion 1 120 double
0 0 0.099272366795 0.1426351184 0.2072177403 0.28567285124 0.34352569217 0.33280331095 0.25732784606 
0.16972729815 0.10299653344 0.058580346696 0.027721076568 0.0025142247907 -0.020050019745 -0.039852418006 -0.056576716009 -0.069912698279 
-0.076662773908 -0.05726644274 0.3084010228 0.28327744714 -0.10110930638 -0.13819865442 -0.1507890274 -0.15413336664 -0.14674596597 
-0.12741404387 -0.10041331549 -0.06896921325 -0.033006497785 0.0075522857481 0.045768711905 0.069234528283 0.071425922613 0.056107161896 
0.02824556956 -0.015158879979 -0.090892065418 -0.25807258346 -0.70232532769 -1.4091369057 -0.86719007008 -0.40894454845 -0.26033634112 
-0.20817033272 -0.18457112413 -0.16479000763 -0.14572564639 -0.13692511781 -0.14216450425 -0.16459648312 -0.21119762904 -0.28290753407 
-0.36138412451 -0.37477226119 -0.26182442205 -0.093212610196 0.052130446508 0.15023394101 0.21718797956 0.27961095404 0.37001052968 
0.5301140605 0.73011441853 0.74711359188 0.52948821123 0.32252654211 0.19603989285 0.11946711063 0.068893999422 0.042416077829 
0.033111521886 0.034984979814 0.045967564521 0.060567044983 0.077108115517 0.094851587741 0.11102471142 0.12282480087 0.12022758497 
0.085552051796 -0.004792725725 -0.17690276735 -0.31264737866 -0.23609074094 -0.10150679335 -0.0083440084916 0.040498560687 0.069372987859 
0.11515814449 0.20916481303 0.5213616676 2.0735067482 1.1015573462 0.3094734528 0.13120846985 0.066135259796 0.041178558855 
0.036856517283 0.045318279309 0.068459819205 0.091930117454 0.097614063256 0.085968559174 0.058193594015 0.018413909496 -0.024288660419 
-0.06245504725 -0.091581431794 -0.11094981295 -0.11398562351 -0.1036054943 -0.087617041074 -0.047934095502 0.054385701019 0.33683592479 
1.1288872814 0 0 
FrenetTangent 3 120 double
-0.27562699993 -0.77554580739 0.56794230126 -0.27562699993 -0.77554580739 0.56794230126 -0.42513318589 -0.82012003742 0.38296853458 
-0.53016227374 -0.82664139452 0.18865833766 -0.58609497576 -0.81012338463 0.013884562208 -0.60233941281 -0.78743614691 -0.13088753309 
-0.58973991299 -0.76842249239 -0.24846268978 -0.55540346406 -0.7561856944 -0.34599160062 -0.50290886311 -0.74973511159 -0.43009294095 
-0.43404492155 -0.7459839512 -0.50508707233 -0.35051082388 -0.74107817449 -0.5726650868 -0.25504699155 -0.73145137901 -0.63240012037 
-0.15177779939 -0.71459445963 -0.68287499433 -0.045805845553 -0.68943238136 -0.72290028084 0.057557823111 -0.65629254717 -0.75230790872 
0.15341658582 -0.61676536639 -0.77205170423 0.23758827692 -0.57361236428 -0.78391368543 0.30679972581 -0.53061327048 -0.79014143382 
0.35895698788 -0.49219875705 -0.79302601749 0.39335664763 -0.4629309891 -0.794333335 0.41056627515 -0.44703887369 -0.7947273615 
0.41200992993 -0.4480226061 -0.79342520887 0.39957760068 -0.46851846729 -0.78792651107 0.37525816948 -0.51017771076 -0.77388630281 
0.34074534385 -0.57357921181 -0.744915766 0.2972519322 -0.65761207005 -0.69223381464 0.245429976 -0.75784977054 -0.60450628795 
0.18553991498 -0.86336440242 -0.46923005933 0.11871825354 -0.95278469257 -0.2794768432 0.048740375759 -0.99778787838 -0.045207582588 
-0.018371503142 -0.97894764858 0.20328302735 -0.078002028625 -0.89903794596 0.43086709698 -0.12982374447 -0.77604307599 0.61717334646 
-0.17618536747 -0.62788577292 0.75810169005 -0.21888281517 -0.46728822549 0.85658159421 -0.25758282332 -0.30448855622 0.91702661262 
-0.29020648335 -0.15010468613 0.94511839482 -0.31430897176 -0.014358524313 0.9492121486 -0.3282448455 0.095816999957 0.93972039667 
-0.33132376878 0.17791180236 0.92659157714 -0.32323667807 0.23287506791 0.91721712407 -0.30361570512 0.26319627688 0.91572114939 
-0.27197090555 0.2709322674 0.92337832605 -0.2278217626 0.2572731946 0.93909943447 -0.17087888466 0.2219526876 0.95996740114 
-0.10112496477 0.16254711866 0.98150505639 -0.019163748429 0.075447406742 0.99696561604 0.072396622269 -0.041819437961 0.99649880265 
0.16644632212 -0.18513015568 0.96851558961 0.25061902369 -0.33834365488 0.90703565319 0.31279866338 -0.47858611643 0.82043422975 
0.34879022599 -0.5901498656 0.72805804328 0.36259401583 -0.67084087463 0.64691429155 0.36092743752 -0.72685773441 0.58430233508 
0.34938949991 -0.76580743083 0.53987587113 0.33162180932 -0.79382568209 0.50977226488 0.30980840797 -0.81531778783 0.48915810859 
0.28547354795 -0.83323347771 0.4735259497 0.2599424471 -0.84948464382 0.45913588851 0.2346271778 -0.86516389269 0.44321724496 
0.21125623856 -0.88053758896 0.42429277167 0.1918067817 -0.895219169 0.40223475478 0.17827660881 -0.908417539 0.37814683073 
0.17238252001 -0.91917500972 0.35412083856 0.17515194847 -0.92667732456 0.33255214794 0.18667154953 -0.93041796171 0.31539839747 
0.20619742423 -0.93014715881 0.30382377326 0.23241852802 -0.92582912106 0.29803031125 0.26384179859 -0.9175716803 0.29740497109 
0.29930582351 -0.90544830403 0.3009641054 0.3382520804 -0.88933357056 0.30768706567 0.38062431669 -0.86883494284 0.31662433837 
0.4268251951 -0.84305901998 0.32721818662 0.47721916878 -0.81064503781 0.33928820731 0.53138129516 -0.77017104673 0.35280373855 
0.58781073789 -0.72049956387 0.36791155851 0.64365247894 -0.66159730394 0.38470832297 0.69498316064 -0.59540753926 0.40309833616 
0.73805387303 -0.52585421909 0.42279288166 0.77054714282 -0.45808417288 0.44318843762 0.7922951949 -0.39698293859 0.4633280378 
0.80524585825 -0.34537868422 0.48196750124 0.81249851642 -0.30342219267 0.49777618847 0.81729257104 -0.26906062479 0.50954806791 
0.8226111717 -0.23845577272 0.51618766417 0.83063151111 -0.20655506716 0.51709408909 0.8421339691 -0.1685126071 0.51226348624 
0.8563855532 -0.12077724812 0.50201259009 0.87104937783 -0.062046266535 0.48726095903 0.88276886245 0.0050846839407 0.4697800352 
0.8887745306 0.073767559174 0.45236951817 0.88824329398 0.13514817129 0.4390430759 0.88277004495 0.18090340442 0.4335792961 
0.87499565967 0.20545885525 0.43837113769 0.86661662731 0.20688513124 0.45406405247 0.85780390694 0.18630269381 0.47902376091 
0.84748131303 0.14731439275 0.50997440499 0.83426707808 0.095127724091 0.54309221919 0.81733682372 0.03552755896 0.57506374355 
0.79680017765 -0.026789434617 0.60364874148 0.77323955726 -0.089376190791 0.62778378731 0.74711838747 -0.15194289666 0.64709154782 
0.71858593208 -0.21592318441 0.66106840543 0.68717657053 -0.28363835188 0.66883304812 0.65169566944 -0.35705941177 0.6691795954 
0.61043234949 -0.43693165729 0.66065352005 0.56110247372 -0.52244015232 0.6420438468 0.50120761303 -0.6106759273 0.61307898387 
0.42902216384 -0.6967238945 0.5749050337 0.34451752981 -0.77481554108 0.53006466488 0.25033002826 -0.83950866745 0.4822448281 
0.15188228856 -0.88716011322 0.435750736 0.056285535951 -0.91736827252 0.39403983429 -0.029543166816 -0.93277970991 0.35923420504 
-0.10038190978 -0.93783568786 0.3322464368 -0.15346074938 -0.9375677564 0.31211616515 -0.18838189824 -0.93627278897 0.29648865924 
-0.20653144479 -0.93676916259 0.28250362534 -0.21023741225 -0.9404413702 0.26715212838 -0.21023741225 -0.9404413702 0.26715212838 

FrenetNormal 3 120 double
-0.67413040322 -0.26523359526 -0.68934703844 -0.67413040322 -0.26523359526 -0.68934703844 -0.55014619192 -0.10185311435 -0.82883358439 
-0.38966794766 0.039926236107 -0.92008955338 -0.20615909858 0.13253253418 -0.96950170369 -0.0012519539696 0.16490185025 -0.98630918702 
0.22256080121 0.14110390718 -0.96465350108 0.4389956358 0.086748149105 -0.89429166963 0.61234572909 0.042134720577 -0.78946651188 
0.73349375593 0.032888626939 -0.67890002815 0.81542542969 0.059285936886 -0.57581815385 0.8704063004 0.11117110403 -0.47961845029 
0.90427500996 0.17854499568 -0.38782520661 0.91914584109 0.25433820028 -0.30080392731 0.91612371018 0.33418585052 -0.22144336737 
0.89732206833 0.41417259728 -0.15255872756 0.86564334209 0.49116645087 -0.097041856103 0.82493085691 0.56232036939 -0.057313903073 
0.77937040718 0.62555796976 -0.035482318045 0.73679866381 0.67549814207 -0.028809530786 0.73654985645 0.67638325471 4.142634953e-05 
-0.49914752399 -0.83946581747 0.21482292847 -0.51087819595 -0.82748551556 0.23296177892 -0.47137198795 -0.82391774605 0.31459179379 
-0.42686133934 -0.80034299175 0.42099939731 -0.3841403143 -0.74610764707 0.54383784156 -0.34616318471 -0.65098049022 0.67557046331 
-0.31534706932 -0.50457961182 0.80371365623 -0.29085006131 -0.30249044046 0.90769255548 -0.26868035941 -0.056690777265 0.96155968106 
-0.2469399504 0.20146125301 0.94785759713 -0.22920629957 0.43677871183 0.86987862896 -0.22044397182 0.62945307746 0.74511293008 
-0.22005771018 0.77578130231 0.59138648545 -0.22071322885 0.87882649233 0.42302442836 -0.21349548756 0.9435298631 0.25332010229 
-0.19337271753 0.97644652853 0.09570354768 -0.15558653397 0.98714449902 -0.036586452536 -0.09074666164 0.98704163908 -0.13233988861 
0.032604165057 0.98363358986 -0.17720589528 0.30743554191 0.94251487454 -0.13095456786 0.80549688597 0.58424729496 0.099145675789 
0.94849286491 -0.086521097894 0.30475463054 0.85354758563 -0.4113515085 0.31975999676 0.77458440883 -0.57189295274 0.27010635719 
0.71124655975 -0.67800736309 0.18556493969 0.64978449247 -0.75690959635 0.069770884382 0.58101767708 -0.81031435728 -0.076217460663 
0.49990623966 -0.83078744504 -0.24471610636 0.40469260125 -0.81452739547 -0.41565492963 0.29624010123 -0.77153487149 -0.56300598975 
0.17946885804 -0.72040847143 -0.66992728209 0.049931218239 -0.67917241986 -0.73227842898 -0.10553736146 -0.65434377221 -0.74879642968 
-0.29847896154 -0.63713894218 -0.71060838574 -0.50948392083 -0.60547183559 -0.61141638081 -0.67354020567 -0.55131643042 -0.49233503318 
-0.75538428547 -0.4997035546 -0.42389968009 -0.76811063593 -0.47005060494 -0.43480855531 -0.73018909165 -0.45783645291 -0.50715842971 
-0.64989468563 -0.45077557056 -0.61191362346 -0.52552980888 -0.43982024545 -0.72826957349 -0.34314358673 -0.41757404472 -0.84135866078 
-0.066919984395 -0.36960016268 -0.92677798605 0.33224570558 -0.26232620315 -0.90597889284 0.73292516339 -0.081890103483 -0.67536265503 
0.93337649492 0.093752885211 -0.3464371736 0.97217042576 0.21186416165 -0.099991201055 0.95564456686 0.29050426001 0.048484396869 
0.92686178846 0.35080738339 0.13364656693 0.89780022794 0.40295592704 0.1777112027 0.87078782286 0.4519887892 0.19348049516 
0.84148964057 0.5027830704 0.19774824637 0.80701526591 0.55708308042 0.19592039737 0.7634067538 0.615886602 0.19466335487 
0.70766422289 0.67831342094 0.19774289018 0.63875103277 0.74128757764 0.20613065121 0.55686542385 0.80035831621 0.22209787347 
0.46463435761 0.85045296996 0.24666710282 0.36661438197 0.88732324325 0.27973444 0.26956146046 0.90900188779 0.31788706648 
0.18563430957 0.91882463693 0.34828320326 0.1317751576 0.92736358379 0.350188651 0.13279385168 0.94843496604 0.2878140166 
0.20414316956 0.97114532438 0.12329770984 0.27471242895 0.95978189704 -0.057894658653 0.29311828895 0.9403809962 -0.17252608692 
0.2653595909 0.93698481167 -0.22725261322 0.20556590172 0.94698831567 -0.24689226404 0.12779845384 0.95963545069 -0.25053414335 
0.040196413632 0.97061618375 -0.23725191711 -0.06177802621 0.98220487909 -0.17736135705 -0.19137403942 0.98131747146 -0.019798920531 
-0.44354299241 0.7031261116 0.55577269191 -0.34408813636 -0.4112357987 0.84409032235 -0.21623227626 -0.71469358951 0.66517416954 
-0.19834886407 -0.80324802434 0.56164965906 -0.22176715069 -0.84391962123 0.48848644176 -0.26404278323 -0.86401948722 0.42866272793 
-0.3095266161 -0.87608496029 0.36968691657 -0.35277231132 -0.88330180217 0.30875495567 -0.38776560571 -0.89032830377 0.23864900279 
-0.4107334998 -0.89884651746 0.15288207939 -0.426470137 -0.90280935146 0.055303681197 -0.44417912513 -0.89481328196 -0.044878672341 
-0.46989477714 -0.8712228628 -0.1420197935 -0.51163904092 -0.82863474278 -0.22713422214 -0.57069221362 -0.76584753203 -0.29629032215 
-0.64369720127 -0.68232114572 -0.34654259072 -0.72165223658 -0.57971469276 -0.37835026687 -0.7957491892 -0.46213275655 -0.39142884821 
-0.85803929297 -0.3371783067 -0.38740077596 -0.90068827425 -0.21694811052 -0.37642283401 -0.92664736294 -0.10918930572 -0.35972539565 
-0.93823808111 -0.021902929919 -0.34529634346 -0.93101651066 0.03133629274 -0.36362933551 -0.88045218192 0.027254946084 -0.47335095149 
-0.59234222768 -0.1100985019 -0.79812843903 0.16361695148 -0.30325106241 -0.93875890746 0.16361695148 -0.30325106241 -0.93875890746 

FrenetBinormal 3 120 double
0.68525758396 -0.57286982866 -0.4497134677 0.68525758396 -0.57286982866 -0.4497134677 0.71874956819 -0.56305334322 -0.40788477651 
0.75305169416 -0.56131087691 -0.34328303977 0.78357584538 -0.57108250635 -0.24469095912 0.79823910227 -0.59392903139 -0.10031271746 
0.77632050391 -0.6241927271 0.08780611963 0.70626469815 -0.64858149389 0.28378199718 0.61001260927 -0.66039528146 0.43790716911 
0.52306014577 -0.66515132321 0.53289942873 0.46067725249 -0.66879616998 0.58351362629 0.42112219644 -0.67277029198 0.6083060331 
0.39906165687 -0.6763700487 0.61909074556 0.39124512434 -0.6782293649 0.62203872972 0.39674228996 -0.67646131437 0.62048017335 
0.41385559908 -0.66937399298 0.61697812006 0.44069651117 -0.65553365519 0.61323911483 0.47472414049 -0.63422816033 0.61023899505 
0.5135480983 -0.60532438414 0.60815355026 0.54990751656 -0.5739313194 0.60679861885 0.53752176019 -0.58537333229 0.6069665717 
-0.76229886982 0.30752704877 -0.56949762716 -0.76114467084 0.30944816584 -0.57000054624 -0.79811637949 0.24673518433 -0.54966534692 
-0.83766461524 0.17452215717 -0.51755193849 -0.87411527142 0.10425806592 -0.474397247 -0.90550272028 0.043452579217 -0.42210981619 
-0.93066168172 -0.0011506393949 -0.36587909234 -0.94937464581 -0.026473817955 -0.31302862305 -0.9619954471 -0.034720390632 -0.27084913557 
-0.96885661931 -0.032785131866 -0.24544242982 -0.9702474714 -0.030905155189 -0.24013478635 -0.96672139247 -0.039318793156 -0.25279197346 
-0.9594442769 -0.062632476742 -0.27485241927 -0.9504609323 -0.096466111666 -0.29549670974 -0.94237506648 -0.13053013662 -0.30804401879 
-0.93722312666 -0.15498632238 -0.31239726429 -0.93648422342 -0.15918407848 -0.31250236549 -0.94022357171 -0.12871637516 -0.31529625745 
-0.94295361957 -0.028501780355 -0.33170185386 -0.8949868365 0.2396558241 -0.37624944978 -0.50891283173 0.76771271851 -0.38939043585 
0.16245956959 0.95870214671 -0.23344610116 0.46856564487 0.87441434103 -0.12588008838 0.60894942349 0.78973125496 -0.074196661406 
0.69563070141 0.71685734272 -0.047047608233 0.7598768743 0.6491498685 -0.03451932981 0.81066465817 0.58450130624 -0.034366189742 
0.84993492304 0.52489908232 -0.045733794717 0.87943959625 0.47124165058 -0.067210886811 0.90244046818 0.41915304035 -0.099558676975 
0.91985667756 0.36432783373 -0.1453579111 0.9306086466 0.29782099494 -0.21276795304 0.92660307046 0.20859544985 -0.3128812684 
0.88816512365 0.08713751915 -0.45118706307 0.79401077449 -0.05696176579 -0.60522908658 0.67109041246 -0.17693812025 -0.7199517761 
0.5898300049 -0.23668191552 -0.77206362185 0.58518029288 -0.23964195941 -0.77468429448 0.64169617256 -0.20463924643 -0.73915411177 
0.73007376289 -0.14647504704 -0.66748585104 0.82887187096 -0.071699310699 -0.5548248646 0.92220926564 0.020235909028 -0.3861613372 
0.98275428388 0.13606256373 -0.12522378474 0.92678723884 0.26917299138 0.26193761593 0.65419755232 0.35723441531 0.6666401841 
0.29375319739 0.35501642141 0.88750909829 0.029432823748 0.31297606234 0.9493048474 -0.13088532055 0.27142123431 0.95351955744 
-0.22659048767 0.23895093322 0.94422412721 -0.28202886521 0.21613033367 0.934744563 -0.31121326628 0.20206923701 0.92860881234 
-0.33123320735 0.19094678041 0.92402591381 -0.34783361761 0.18031379366 0.92005364532 -0.36721117549 0.16589229114 0.9152243989 
-0.39203301399 0.14412245296 0.90859167644 -0.42155498394 0.11305633397 0.89972754813 -0.45486185391 0.070117243739 0.88779742396 
-0.48927639861 0.014390488384 0.87201004559 -0.52139332142 -0.053069318337 0.85166463578 -0.54736180282 -0.12696501275 0.82720912855 
-0.56313320882 -0.19098390259 0.80399386694 -0.56787451841 -0.21893322372 0.79346504327 -0.56071262361 -0.16756340705 0.81087844856 
-0.53069428724 0.0039501122918 0.84755411043 -0.48433911067 0.19014130101 0.85396833169 -0.4526500268 0.29544387493 0.84132090786 
-0.44293122693 0.32782971042 0.83446965743 -0.44611169166 0.3152195914 0.8376281799 -0.45209146274 0.28120090287 0.84648648043 
-0.4565786702 0.22904709353 0.85969375179 -0.45520031434 0.13041682137 0.88078608443 -0.42906063065 -0.065497927335 0.90089788364 
-0.19404177242 -0.68073513938 0.70636213133 0.3613571304 -0.8877407619 -0.28519706165 0.46627895078 -0.67416939963 -0.57278229779 
0.49237501174 -0.57714043446 -0.65151804789 0.50479478336 -0.52796817046 -0.68295815221 0.51209562117 -0.50220326388 -0.69681414777 
0.51894388023 -0.48141195306 -0.70635669504 0.52692720888 -0.46020628288 -0.71453333984 0.53986289939 -0.42921890413 -0.72409887599 
0.5611882486 -0.38138185128 -0.73458534777 0.58814248542 -0.32324071565 -0.74135272077 0.61481514233 -0.26798837083 -0.74174427795 
0.6376293948 -0.22374416235 -0.7371345228 0.65068387546 -0.2010491241 -0.73224978246 0.65046239396 -0.2013764373 -0.73235661023 
0.63371436469 -0.22139030906 -0.74121011531 0.60043794109 -0.2521740516 -0.7588692421 0.5514690425 -0.28575953633 -0.78372404745 
0.49061221157 -0.31505193698 -0.81242964918 0.43080456249 -0.33371989738 -0.83847388691 0.37476908364 -0.34351085615 -0.86113206052 
0.33110840421 -0.34638776572 -0.87771449824 0.33114657674 -0.34638813333 -0.87769995204 0.43510483309 -0.35021483772 -0.82947775839 
0.7787653354 -0.3321774464 -0.53214912993 0.96386187998 -0.1536516266 0.21762686866 0.96386187998 -0.1536516266 0.21762686866 

plain_curvature_peaks 1 120 unsigned_char
0 0 0 1 0 0 0 0 0 
0 0 0 0 0 0 0 0 0 
0 0 0 0 0 0 0 0 0 
0 0 0 0 0 0 0 0 0 
0 0 0 0 0 0 0 0 0 
0 0 0 1 0 0 0 0 0 
0 0 0 0 0 0 0 0 0 
0 0 0 0 0 0 0 0 0 
0 0 0 0 0 0 0 0 0 
0 0 0 0 0 0 0 0 0 
1 0 0 0 0 0 0 0 0 
0 0 0 0 0 0 0 0 0 
0 0 0 0 0 0 0 0 0 
0 1 0 
weighted_curvature_peaks 1 120 unsigned_char
0 0 0 1 0 0 0 0 0 
0 0 0 0 0 0 0 0 0 
0 0 0 0 0 0 0 0 0 
0 0 0 0 0 0 0 0 0 
0 0 0 1 0 0 0 0 0 
0 0 0 0 0 0 0 0 0 
0 0 0 0 0 0 0 0 1 
0 0 0 0 0 0 0 0 0 
0 0 0 0 0 0 0 0 0 
0 0 0 0 0 0 0 0 0 
0 0 0 0 0 0 0 0 0 
0 0 0 0 0 1 0 0 0 
0 0 0 0 0 0 0 0 0 
0 0 0 
plain_torsion_tp 1 120 unsigned_char
0 0 0 1 0 0 0 0 0 
0 0 0 0 0 0 0 0 0 
0 0 0 0 0 0 0 0 0 
0 0 0 0 0 0 0 0 0 
0 0 0 0 0 0 0 0 0 
0 0 0 1 0 0 0 0 0 
0 0 0 0 0 0 0 0 0 
0 0 0 0 0 0 0 0 0 
0 0 0 0 0 0 0 0 0 
0 0 0 0 0 0 0 0 0 
1 0 0 0 0 0 0 0 0 
0 0 0 0 0 0 0 0 0 
0 0 0 0 0 0 0 0 0 
0 1 0 
plain_torsion_tn 1 120 unsigned_char
0 2 0 0 0 0 0 0 0 
0 0 0 0 0 0 0 0 0 
2 0 0 0 0 0 0 0 0 
0 0 0 0 0 0 0 0 0 
0 0 0 0 0 0 0 0 0 
0 0 0 0 0 0 0 0 0 
0 0 0 0 0 0 0 0 0 
0 0 0 0 0 0 0 0 0 
0 0 0 0 0 0 2 0 0 
0 0 0 0 0 0 0 0 0 
0 0 0 0 0 0 0 0 0 
0 0 0 0 0 0 0 0 0 
0 0 2 0 0 0 0 0 0 
0 0 0 
plain_torsion_tz 1 120 unsigned_char
0 3 0 0 0 0 3 0 0 
0 0 0 0 0 0 0 0 0 
0 0 0 0 0 0 0 0 0 
0 0 3 0 0 0 0 0 0 
0 0 0 0 0 0 0 0 0 
0 0 0 0 0 0 0 0 0 
0 0 0 0 0 0 0 0 0 
0 0 0 0 0 0 0 0 0 
0 0 0 0 0 0 0 0 0 
0 0 0 0 0 3 0 0 0 
0 0 0 0 0 0 0 0 0 
0 0 3 0 0 0 0 0 0 
0 0 0 0 0 0 3 0 0 
0 0 0 
weighted_torsion_tp 1 120 unsigned_char
0 0 0 1 0 0 0 0 0 
0 0 0 0 0 0 0 0 0 
0 0 0 0 0 0 0 0 0 
0 0 0 0 0 0 0 0 0 
0 0 0 1 0 0 0 0 0 
0 0 0 0 0 0 0 0 0 
0 0 0 0 0 0 0 0 1 
0 0 0 0 0 0 0 0 0 
0 0 0 0 0 0 0 0 0 
0 0 0 0 0 0 0 0 0 
0 0 0 0 0 0 0 0 0 
0 0 0 0 0 1 0 0 0 
0 0 0 0 0 0 0 0 0 
0 0 0 
weighted_torsion_tn 1 120 unsigned_char
0 2 0 0 0 0 0 0 0 
0 0 0 0 0 0 0 0 0 
0 0 0 2 0 0 0 0 0 
0 0 0 0 0 0 0 0 0 
0 0 0 0 0 0 0 0 0 
0 0 0 0 0 0 2 0 0 
0 0 0 0 0 0 0 0 0 
0 0 0 0 0 0 0 0 0 
0 0 0 0 0 0 0 0 0 
0 0 0 2 0 0 0 0 0 
0 0 0 0 0 0 0 0 0 
0 0 0 0 0 0 0 0 0 
0 0 0 0 0 0 0 0 0 
0 0 0 
weighted_torsion_tz 1 120 unsigned_char
0 3 0 0 0 0 3 0 0 
0 0 0 0 0 0 0 0 0 
0 0 0 0 0 0 0 0 0 
0 0 0 0 3 0 0 0 0 
0 0 0 0 0 0 0 0 0 
0 0 0 0 0 0 0 0 0 
0 0 3 0 0 0 0 0 0 
0 0 0 0 0 0 0 0 0 
0 0 3 0 0 0 0 0 0 
0 0 0 0 0 0 0 0 0 
0 0 0 3 0 0 0 0 0 
0 0 0 0 0 0 0 0 0 
0 0 0 0 0 0 0 0 0 
0 0 0 
plain_torsion_tp_raw 1 120 unsigned_char
0 0 0 0 0 1 0 0 0 
0 0 0 0 0 0 0 0 0 
0 0 0 0 0 1 0 0 0 
0 0 0 0 0 0 0 0 0 
0 0 0 0 0 0 0 0 0 
0 0 0 0 0 0 0 0 0 
0 0 0 0 0 0 0 0 0 
0 0 0 0 0 0 0 0 0 
0 0 0 0 0 0 0 0 0 
0 0 1 0 0 0 0 0 0 
0 0 0 1 0 0 0 0 0 
0 0 0 0 0 0 0 0 0 
0 0 0 0 0 0 0 0 1 
0 1 0 
plain_torsion_tn_raw 1 120 unsigned_char
0 2 0 0 0 0 0 0 0 
2 0 0 0 0 0 0 0 0 
0 0 0 0 0 0 0 0 0 
0 0 0 0 0 0 0 0 0 
0 0 0 0 0 0 0 0 0 
0 0 0 0 0 0 0 0 0 
0 0 0 0 0 0 0 0 0 
0 0 0 0 0 0 2 0 0 
0 0 0 0 0 0 0 0 0 
0 0 0 0 0 0 0 0 2 
0 0 0 0 0 0 0 0 0 
0 0 0 0 0 0 0 0 0 
0 0 0 2 0 0 0 0 0 
2 0 0 
plain_torsion_tz_raw 1 120 unsigned_char
0 3 0 0 3 3 0 0 0 
0 0 0 0 0 0 0 3 0 
0 0 0 0 0 0 0 0 0 
0 0 0 0 0 0 0 0 0 
0 0 0 0 0 0 0 0 0 
0 0 0 0 0 0 0 0 0 
0 0 0 0 0 0 0 0 0 
0 0 0 0 0 0 0 0 0 
0 0 0 0 0 0 0 0 0 
0 0 0 0 0 0 0 0 0 
0 0 0 0 0 0 0 0 0 
0 0 0 0 0 0 0 0 0 
0 0 0 0 0 0 0 0 0 
0 0 0 
weighted_torsion_tp_raw 1 120 unsigned_char
0 0 0 1 0 0 0 0 0 
0 0 0 0 0 0 0 0 0 
0 0 0 0 0 0 0 1 0 
0 0 0 0 0 0 0 0 0 
0 0 0 0 0 0 0 0 0 
0 0 0 0 0 0 0 0 0 
1 0 0 0 0 0 0 0 0 
0 0 1 0 0 0 0 0 0 
0 0 0 0 0 0 0 0 0 
0 0 0 0 0 0 0 0 0 
0 0 0 0 0 0 0 1 0 
0 0 0 0 0 1 0 0 0 
0 0 0 0 0 0 0 0 0 
0 0 0 
weighted_torsion_tn_raw 1 120 unsigned_char
0 0 2 0 0 0 0 0 0 
2 0 0 0 0 0 0 0 0 
0 0 0 0 0 0 0 0 0 
0 0 0 0 0 0 0 0 0 
0 0 0 0 0 0 0 0 2 
0 0 0 0 0 0 0 0 0 
0 0 0 2 0 0 0 0 0 
0 0 0 0 0 0 0 0 0 
0 0 0 0 0 0 0 0 0 
0 0 0 0 0 2 0 0 0 
0 0 0 0 0 0 0 0 0 
0 0 0 2 0 0 0 0 0 
0 0 0 0 0 0 0 0 0 
0 0 0 
weighted_torsion_tz_raw 1 120 unsigned_char
0 3 0 3 0 0 0 0 0 
0 0 0 0 0 0 0 0 0 
0 3 0 0 0 0 0 0 0 
0 0 0 0 0 0 0 0 0 
0 0 0 0 0 0 0 0 0 
0 0 0 0 0 0 0 0 0 
0 0 0 0 0 0 0 0 0 
0 0 0 0 0 0 0 0 0 
0 0 0 0 0 0 0 0 0 
0 0 0 0 0 0 0 0 0 
0 0 0 0 0 0 0 0 0 
0 0 0 0 0 0 0 0 0 
0 0 0 0 0 0 0 0 0 
0 0 0 
