# vtk DataFile Version 5.1
vtk output
ASCII
DATASET POLYDATA
POINTS 120 float
-1.45754 20.305 -6.26501 -1.94661 19.9971 -6.06632 -2.44568 19.6763 -5.9018 
-2.94559 19.3452 -5.77417 -3.43756 19.0066 -5.68633 -3.91382 18.6637 -5.64151 
-4.36846 18.3204 -5.64348 -4.79811 17.9807 -5.69622 -5.2019 17.6481 -5.80323 
-5.58086 17.3239 -5.96635 -5.93658 17.0063 -6.18471 -6.26955 16.6907 -6.45416 
-6.57785 16.3701 -6.76737 -6.85632 16.0363 -7.11434 -7.09725 15.6814 -7.48343 
-7.29204 15.2994 -7.86255 -7.43306 14.8869 -8.24062 -7.51524 14.4435 -8.60898 
-7.53656 13.9723 -8.96279 -7.49795 13.4788 -9.30162 -7.40274 12.9697 -9.62901 
-7.2561 12.4512 -9.95101 -7.06483 11.928 -10.2739 -6.83743 11.4023 -10.6017 
-6.5842 10.8741 -10.934 -6.3173 10.3424 -11.2641 -6.05031 9.80687 -11.5791 
-5.79751 9.26954 -11.8602 -5.57254 8.73661 -12.0846 -5.38674 8.21841 -12.2286 
-5.2473 7.72902 -12.2705 -5.15596 7.28441 -12.1948 -5.10864 6.89999 -11.9948 
-5.09646 6.58766 -11.6742 -5.10798 6.35339 -11.2469 -5.13182 6.19605 -10.7346 
-5.1588 6.10657 -10.1637 -5.18262 6.06959 -9.56127 -5.19924 6.06505 -8.95179 
-5.20535 6.07129 -8.3546 -5.19688 6.0676 -7.78281 -5.16849 6.0355 -7.24314 
-5.11454 5.96046 -6.7365 -5.03156 5.83152 -6.25937 -4.92093 5.64267 -5.80533 
-4.79052 5.39241 -5.36679 -4.65426 5.08415 -4.93664 -4.52979 4.72477 -4.50959 
-4.43476 4.32338 -4.08318 -4.38306 3.88947 -3.65814 -4.38177 3.43086 -3.23831 
-4.42955 2.95343 -2.83004 -4.51702 2.46007 -2.44116 -4.6288 1.95127 -2.07977 
-4.74639 1.42599 -1.75288 -4.85159 0.882644 -1.46533 -4.92933 0.320508 -1.21882 
-4.96977 -0.259927 -1.0114 -4.96896 -0.85586 -0.83747 -4.9287 -1.46267 -0.688128 
-4.85546 -2.07432 -0.551907 -4.75885 -2.68367 -0.41574 -4.65002 -3.28356 -0.266239 
-4.53985 -3.86787 -0.0910711 -4.43712 -4.43231 0.119441 -4.34677 -4.97489 0.37078 
-4.26861 -5.49617 0.663146 -4.19699 -5.9991 0.991337 -4.12128 -6.4879 1.3456 
-4.0278 -6.96715 1.71353 -3.90218 -7.43999 2.08249 -3.73189 -7.90691 2.44184 
-3.50804 -8.36551 2.78434 -3.22625 -8.80968 3.10665 -2.88656 -9.23096 3.40872 
-2.49256 -9.61935 3.69262 -2.05018 -9.96499 3.9612 -1.5666 -10.2599 4.21735 
-1.04925 -10.4988 4.46287 -0.505131 -10.6806 4.69909 0.0594136 -10.8082 4.92723 
0.638819 -10.8883 5.1482 1.22827 -10.9297 5.36366 1.82368 -10.9426 5.57538 
2.4217 -10.9357 5.78518 3.01972 -10.9154 5.99469 3.61583 -10.8844 6.2047 
4.20873 -10.8415 6.41518 4.79762 -10.7822 6.62521 5.38201 -10.6997 6.8338 
5.96153 -10.5871 7.04004 6.53579 -10.4391 7.24384 7.10428 -10.2539 7.44668 
7.66631 -10.035 7.65111 8.22082 -9.79162 7.86081 8.76673 -9.53871 8.07986 
9.30287 -9.2951 8.31211 9.82823 -9.08221 8.55995 10.3417 -8.92037 8.82425 
10.8427 -8.82634 9.10414 11.3301 -8.81037 9.39787 11.8024 -8.87409 9.70321 
12.2572 -9.01072 10.0192 12.6907 -9.20683 10.3457 13.098 -9.44577 10.6843 
13.4729 -9.71195 11.0365 13.8102 -9.99449 11.4039 14.1058 -10.2889 11.7861 
14.3583 -10.5965 12.181 14.5698 -10.923 12.5838 14.7443 -11.275 12.9883 
14.8865 -11.6583 13.3865 14.9993 -12.0765 13.7695 15.0817 -12.5311 14.128 
15.1287 -13.0211 14.4524 15.1319 -13.544 14.7341 15.0803 -14.0964 14.9644 
14.9621 -14.674 15.1353 14.7649 -15.2723 15.2393 14.4765 -15.8867 15.2687 

LINES 2 120
OFFSETS vtktypeint64
0 120 
CONNECTIVITY vtktypeint64
0 1 2 3 4 5 6 7 8 
9 10 11 12 13 14 15 16 17 
18 19 20 21 22 23 24 25 26 
27 28 29 30 31 32 33 34 35 
36 37 38 39 40 41 42 43 44 
45 46 47 48 49 50 51 52 53 
54 55 56 57 58 59 60 61 62 
63 64 65 66 67 68 69 70 71 
72 73 74 75 76 77 78 79 80 
81 82 83 84 85 86 87 88 89 
90 91 92 93 94 95 96 97 98 
99 100 101 102 103 104 105 106 107 
108 109 110 111 112 113 114 115 116 
117 118 119 
CELL_DATA 1
FIELD FieldData 2
Length 1 1 double
70.858197279 
Tortuosity 1 1 double
0.57368201699 
POINT_DATA 120
FIELD FieldData 19
Curvature 1 120 double
0 0.09994067545 0.1013513072 0.10869409102 0.12248321339 0.14328268135 0.17024470765 0.19898169774 0.21927819196 
0.21986435191 0.19922923911 0.16976784651 0.15005855522 0.15086668203 0.16737130444 0.18723800931 0.19989635216 0.19897178098 
0.18396057311 0.15928764823 0.13120630533 0.10367618708 0.077301598611 0.05089681222 0.027215287889 0.032595848367 0.070684381288 
0.1269261749 0.21223665201 0.34618031123 0.53988437749 0.73095382464 0.75971328071 0.59875890933 0.40274879055 0.25646847873 
0.15985679387 0.091030005265 0.040966152144 0.051661484748 0.11683896817 0.19330052408 0.25891236392 0.27783999131 0.24449219345 
0.18756563585 0.14743940955 0.13764119699 0.14311987004 0.14552165359 0.13599196225 0.11720090497 0.099084097057 0.096376278662 
0.11373454676 0.13653948134 0.14956865572 0.14436942055 0.12220650806 0.089968853557 0.058885952707 0.050439371702 0.074586509631 
0.10644586861 0.12876084931 0.131237586 0.11185246957 0.080808505961 0.065034019738 0.087525291167 0.12274428821 0.15085914542 
0.16660555847 0.17150673873 0.17178345058 0.17193277929 0.17239752415 0.17228322647 0.16606354172 0.1517632849 0.12936064399 
0.10198164228 0.073812444779 0.049682701881 0.033438135482 0.026924726436 0.030376111362 0.042279233099 0.05996918863 0.078098829868 
0.091648998644 0.094466147904 0.084363886242 0.063241699756 0.038761258653 0.043002148671 0.084591754674 0.13923310279 0.19647651891 
0.24129057883 0.25539455443 0.23518050344 0.19410348165 0.15409956913 0.13191557152 0.13078120457 0.13959053547 0.14683897177 
0.14652237711 0.14188179215 0.1397368866 0.1443160635 0.15697731467 0.17545380974 0.19889541914 0.22640821513 0.25028076099 
0.26356546559 0.25942232299 0 
Torsion 1 120 double
0 0 0.10840789595 0.068706582776 0.0069974960024 -0.054470057724 -0.085877961589 -0.073739206728 -0.020661156541 
0.070550454105 0.21110961587 0.40788651048 0.56183144389 0.50512403355 0.32737893372 0.17884990128 0.073436637926 -0.012422559211 
-0.09228711671 -0.1680782361 -0.22254591014 -0.22467414037 -0.14093250936 0.13753103116 1.3510410878 1.0996292874 0.17285484283 
-0.018799929306 -0.08745142843 -0.12184239279 -0.13684619015 -0.14028057532 -0.14661280798 -0.15918178325 -0.16352492883 -0.15966865519 
-0.18544525378 -0.39614006304 -1.9719604501 -1.3440954059 -0.24804146042 -0.095522695793 -0.095209758324 -0.16513756001 -0.3110959053 
-0.55392789806 -0.74283728558 -0.58274287193 -0.28419758381 -0.060677928569 0.12518349772 0.35865499378 0.65873170047 0.76172108506 
0.53043289691 0.32274688033 0.22127192149 0.19487016792 0.23743044997 0.42236848495 0.99925917547 1.3610309277 0.5771226648 
0.21434719564 0.055178954739 -0.068681257564 -0.26951787304 -0.75945105649 -1.2882046914 -0.61428855715 -0.19258683298 -0.011348464744 
0.090136853684 0.15587104855 0.19082101163 0.18844618384 0.15504407791 0.10819222086 0.072981138603 0.044475306493 0.030949287464 
0.039321008017 0.058876489302 0.12471475575 0.21274077435 0.1400558625 -0.062051912477 -0.094052913477 -0.054045756635 -0.011615019111 
0.037722387154 0.08950963175 0.17942796415 0.43696367197 1.4372078945 1.4437133866 0.45698960402 0.20502903307 0.10875053543 
0.050947391845 -0.005428892515 -0.08129388948 -0.20386340204 -0.36799798945 -0.42967319888 -0.2616743186 -0.014981566533 0.18573332529 
0.33319980797 0.41266189036 0.39002005291 0.25934456775 0.096041431596 -0.026279849976 -0.084696168579 -0.094662161714 -0.085261132593 
-0.069035333436 0 0 
FrenetTangent 3 120 double
-0.80581802379 -0.51276293047 0.29619501966 -0.80581802379 -0.51276293047 0.29619501966 -0.81343407686 -0.53078815149 0.23788430138 
-0.81567713185 -0.55070254032 0.17719347806 -0.81266719471 -0.57199163107 0.1113445312 -0.80439145979 -0.59294507241 0.037020541731 
-0.79049004015 -0.61051909065 -0.048907426553 -0.76982854696 -0.62096072602 -0.14755265171 -0.74057489994 -0.62147672395 -0.25556897145 
-0.70138156503 -0.61271955549 -0.36419589037 -0.65275387438 -0.60010883181 -0.46236540686 -0.59656014209 -0.59187711793 -0.54203087933 
-0.53376430018 -0.59535939549 -0.60053547943 -0.46331385504 -0.61429604887 -0.63873361902 -0.38324599405 -0.64808323725 -0.65811140823 
-0.29257734516 -0.69223254218 -0.65970645339 -0.19284916759 -0.73951675712 -0.64492182821 -0.088463682744 -0.78174324546 -0.61729383199 
0.014555690143 -0.81222645936 -0.58316062161 0.11047691819 -0.82780882717 -0.55002490507 0.1951282874 -0.82910873116 -0.52393097195 
0.26588562186 -0.81964000336 -0.50743975108 0.32120542606 -0.80472694804 -0.49924103734 0.36051002238 -0.79050584316 -0.49510911494 
0.38420960613 -0.78294098836 -0.48927128191 0.393573094 -0.78672999569 -0.47555875932 0.3899924651 -0.80491448185 -0.44723433909 
0.37430313594 -0.83847688961 -0.39604755776 0.34601154068 -0.88542936056 -0.31030768789 0.30255777065 -0.93731565985 -0.17291081289 
0.23973290425 -0.97020618429 0.035044180433 0.15674608324 -0.93718508183 0.31163245623 0.068240452504 -0.79921469463 0.597159202 
0.00071906929465 -0.59003212957 0.8073794455 -0.03471159868 -0.38445287571 0.92249178385 -0.045695912135 -0.22193662775 0.97398974167 
-0.043007207644 -0.1070693167 0.99332096601 -0.033336612209 -0.034225226957 0.99885799998 -0.018829553389 0.0014148439021 0.99982170717 
0.0020187320263 0.0021863818268 0.99999557222 0.033128064079 -0.032171091115 0.99893320711 0.078047541235 -0.10155703479 0.99176345466 
0.13503473463 -0.20116577017 0.97020510891 0.19308133482 -0.31690866632 0.9285949038 0.23550516778 -0.42901687088 0.87205609937 
0.25001305412 -0.52364038451 0.81442876944 0.23334467977 -0.59750834679 0.76715971997 0.18853893231 -0.65347495964 0.73309177333 
0.12208833504 -0.69506753173 0.70850233929 0.043074734718 -0.72555245499 0.68681744466 -0.037173614807 -0.74845175634 0.66214657803 
-0.1070529042 -0.76839671483 0.63095654711 -0.15718092408 -0.79056543716 0.59186184762 -0.18157876422 -0.81862145512 0.54487435763 
-0.17784833316 -0.85309359154 0.49051125825 -0.14737417687 -0.89059842307 0.43025027696 -0.095684699961 -0.92507975199 0.36752127917 
-0.0320355003 -0.95077638321 0.30821744896 0.032951675725 -0.96520072417 0.25942580658 0.090322849998 -0.96963905392 0.22724851569 
0.13453825863 -0.96713449678 0.21575523655 0.16312558803 -0.9601763869 0.22682889713 0.17558121638 -0.94942818946 0.26030241934 
0.17304542556 -0.93369507848 0.31347851779 0.15892577434 -0.91117171836 0.38014299666 0.13965716462 -0.88172409776 0.45062011917 
0.12410408574 -0.84865231755 0.51418617233 0.12148139959 -0.81769210305 0.56269165106 0.13873066028 -0.79377298743 0.59218092533 
0.17904508161 -0.77802963883 0.60217334701 0.24151849024 -0.76702043127 0.59443122132 0.32132413044 -0.75454778493 0.57219615819 
0.41112843476 -0.73401952184 0.54054486557 0.50324799377 -0.70079885245 0.50559116406 0.59175583366 -0.65303977538 0.47261409745 
0.67319644963 -0.59081485806 0.44468454403 0.74541433208 -0.51567531867 0.42241737565 0.80696059945 -0.43038605992 0.40445324867 
0.85653203807 -0.33947353061 0.38872945575 0.89324404942 -0.24927434432 0.37413549611 0.91782579414 -0.16660175885 0.36033271508 
0.93241538332 -0.096940851146 0.34814368344 0.93985262439 -0.043080243363 0.33885267752 0.94290225681 -0.0047114832538 0.33303623831 
0.94347190472 0.021437879974 0.33075849545 0.94269578592 0.040493953354 0.33118709961 0.94116749844 0.058463216353 0.33284499728 
0.93902498039 0.081197082731 0.33412440792 0.93580073276 0.11311587778 0.33388888385 0.93043620633 0.15594727029 0.33161561309 
0.92161762817 0.20819229169 0.32753155133 0.90845976716 0.26494612504 0.32327140652 0.89173352477 0.31876278266 0.32125007267 
0.87404925679 0.3618566327 0.32418771424 0.85901696219 0.38739113566 0.3346908524 0.84986573898 0.38997746248 0.35446551942 
0.84834393499 0.36482811186 0.38368348512 0.85338276363 0.30782511296 0.42069176196 0.860218629 0.2169752791 0.46146033262 
0.86090012357 0.095817560793 0.49966986328 0.84753838725 -0.042172302883 0.52905593183 0.81764561944 -0.17669040974 0.54793808056 
0.77538435838 -0.2904199499 0.56074535172 0.72670899359 -0.37603501174 0.57488408274 0.67463175496 -0.43567407317 0.59586919468 
0.61846274475 -0.47647465806 0.62488057546 0.55607540774 -0.5069250287 0.65864038456 0.48701813831 -0.53492540946 0.69041157237 
0.41436583364 -0.56634233384 0.71243056982 0.34366250732 -0.60416451872 0.71894458436 0.27938325343 -0.64856631402 0.70803017875 
0.22213744945 -0.69822175713 0.68054487834 0.16801283082 -0.75127417628 0.63824666136 0.11038872366 -0.80544151475 0.58230429846 
0.04250939104 -0.85733352465 0.51300309861 -0.040632707284 -0.90214659929 0.42951192823 -0.14024695959 -0.933046939 0.33129171428 
-0.25266423618 -0.94214508225 0.22028033902 -0.36981639616 -0.92353580981 0.10157480554 -0.36981639616 -0.92353580981 0.10157480554 

FrenetNormal 3 120 double
-0.16948059804 -0.27956175363 -0.94505108475 -0.16948059804 -0.27956175363 -0.94505108475 -0.078243303194 -0.30540775878 -0.94900162612 
0.0072813859337 -0.316043047 -0.94871690923 0.07896527266 -0.29740737801 -0.95147955166 0.13435484092 -0.24225784916 -0.96086414817 
0.17968581526 -0.15483234465 -0.97146279025 0.22884293618 -0.052730561788 -0.97203415496 0.29356960334 0.042884586664 -0.95497528775 
0.38216600913 0.10804096614 -0.91775611744 0.49962641514 0.1177596554 -0.85819934098 0.64905417785 0.041450105949 -0.75961211347 
0.80173616383 -0.13045042352 -0.58326821499 0.88618677157 -0.31819561014 -0.33678562853 0.89943707252 -0.42392142075 -0.10631830321 
0.89418973858 -0.44252802033 0.067776564089 0.8941191522 -0.40317273243 0.19494278518 0.90348594106 -0.32390256383 0.28071388184 
0.92144854732 -0.21555090398 0.32321878417 0.94446166231 -0.084891371151 0.31746751571 0.96308531829 0.060968925811 0.26220118187 
0.96318943708 0.2042342777 0.17479836414 0.94340239432 0.31787521335 0.094590016007 0.92734340388 0.36085439648 0.099087415 
0.88183681465 0.15427604562 0.44560378597 0.11575588364 -0.47077985987 0.87462386141 -0.21308103203 -0.55139619327 0.80657219878 
-0.27415545221 -0.50806330964 0.81652339919 -0.28566788402 -0.41445696452 0.86407134231 -0.28688306599 -0.26255665996 0.92128285926 
-0.28782770519 -0.036554127082 0.95698433003 -0.2812119316 0.26012144122 0.92371894283 -0.24909728983 0.56594839915 0.78590899581 
-0.18500205848 0.79336427528 0.57995462329 -0.10189477338 0.91959935554 0.37941333721 -0.015243577102 0.97504963333 0.22146296734 
0.076287486799 0.99098620917 0.11012062747 0.2206263722 0.97450659319 0.040754186418 0.68961058273 0.72408158192 0.011962729743 
0.82849175397 -0.56000108284 -0.00044812863094 0.57968577278 -0.81357292018 -0.045425855951 0.51355678549 -0.84855890605 -0.12730754511 
0.46454323143 -0.85203537474 -0.24131992525 0.38799677952 -0.84460430444 -0.36892013771 0.24455954583 -0.84226056348 -0.48040375909 
-0.0075366854156 -0.8421683278 -0.5391620406 -0.38516723866 -0.78120356942 -0.49129134064 -0.71836817437 -0.60076006474 -0.35076275552 
-0.8771823652 -0.40955384652 -0.25063268937 -0.92529236854 -0.28824610592 -0.2464715301 -0.91702513637 -0.23774837674 -0.32021962562 
-0.83896074857 -0.27074279328 -0.47206271007 -0.61162477741 -0.39261425285 -0.68685455529 -0.1712499029 -0.51929563776 -0.83726071887 
0.25364584669 -0.52135544629 -0.81477130723 0.50799660475 -0.44139725547 -0.73966743367 0.65226522272 -0.33717214202 -0.67887040433 
0.74823052869 -0.22726818414 -0.62329788096 0.82795605752 -0.11902891892 -0.54801540424 0.91675921399 -0.0081976786488 -0.39935615888 
0.99072940993 0.13542498269 -0.0107382659 0.64401193694 0.27780017345 0.71279428218 0.093937333705 0.2793612132 0.95557997567 
-0.14702803752 0.29022491946 0.9455962417 -0.23924025802 0.33801936428 0.91022360347 -0.24959127479 0.40904014865 0.87771883444 
-0.16649910591 0.49303492046 0.85392892851 0.12282004131 0.57491671664 0.80894128735 0.71750231434 0.49271810955 0.49236093817 
0.97352349535 0.22851366432 0.0057887152603 0.96678235784 0.13737305312 -0.21554701774 0.93655843648 0.16386566998 -0.30984889423 
0.90473681166 0.25605590383 -0.34042132092 0.86321749751 0.38062843192 -0.33162863086 0.80418658871 0.5187888771 -0.29007245911 
0.72408007843 0.64870455365 -0.23428709331 0.62721265119 0.75717167066 -0.18247013818 0.52377254484 0.83794016596 -0.15335775021 
0.42087087635 0.89538877328 -0.14541887813 0.32323942553 0.9344965542 -0.14910554639 0.23864467697 0.9569119869 -0.16543327202 
0.16431831154 0.97173425858 -0.16950523055 0.10385463449 0.98109114866 -0.16332290994 0.049322307569 0.99085095958 -0.12562518009 
-0.013341695552 0.99955368405 -0.026728858405 -0.072317282777 0.99380994429 0.084332705681 -0.096058894782 0.99057625603 0.097628734091 
-0.094823078647 0.99518900898 0.02464589559 -0.10881867053 0.99355886439 -0.031611389203 -0.14043859906 0.98758415911 -0.070388412203 
-0.19121105363 0.97798148979 -0.083609440829 -0.25871638396 0.96390030413 -0.062944708876 -0.33501999039 0.94219803477 -0.0049466463098 
-0.42613971078 0.89147709129 0.15386208953 -0.51125644898 0.61519462347 0.60012700208 -0.20685350999 -0.371782156 0.90498047155 
0.042671353794 -0.76944616146 0.63728467751 0.082993251881 -0.8769655731 0.47333233962 0.046750526075 -0.93470297089 0.35234180069 
-0.037932857069 -0.96728402054 0.2508440192 -0.15028965228 -0.97510673888 0.16303333465 -0.27898022089 -0.95413324771 0.10862680136 
-0.41530936314 -0.90343963481 0.10637179677 -0.5662203681 -0.80173896507 0.19133511609 -0.70059180296 -0.63214920791 0.33099623045 
-0.78277847292 -0.44338267035 0.43665738281 -0.83110429664 -0.34560292716 0.43568826568 -0.87187664635 -0.34430931927 0.3482559493 
-0.88937766496 -0.41811058679 0.18490783188 -0.85525545732 -0.51754885986 -0.026101348253 -0.76147716902 -0.59884166053 -0.24807496181 
-0.65463132577 -0.62407285265 -0.42660391689 -0.59395160474 -0.59388278473 -0.54270132599 -0.59511365819 -0.52281149607 -0.61033423091 
-0.63461643051 -0.41974949865 -0.64890087418 -0.67810415582 -0.29081690278 -0.6749816908 -0.70571296321 -0.14049074469 -0.69442894829 
-0.70824161984 0.024978489977 -0.705528088 -0.68166205286 0.19541256979 -0.70508919525 -0.68166205286 0.19541256979 -0.70508919525 

FrenetBinormal 3 120 double
0.56739196278 -0.81173850656 0.13837253173 0.56739196278 -0.81173850656 0.13837253173 0.57637053022 -0.7905631152 0.20689846006 
0.57846157868 -0.77255647336 0.26179896385 0.57735302576 -0.7644438668 0.28686069468 0.57870817873 -0.76793702582 0.27453518581 
0.58552412778 -0.77671963089 0.23209504688 0.59581450036 -0.78206602317 0.18269596756 0.60445488299 -0.78225800975 0.15068742686 
0.60167519619 -0.78288051193 0.15838264532 0.56946099495 -0.79120291553 0.22296215303 0.47206426584 -0.80496171709 0.35943283508 
0.26891410425 -0.79279876211 0.54695093685 0.0036438473019 -0.72207473161 0.69180546713 -0.21008441307 -0.63267586221 0.74537627596 
-0.33885573408 -0.57007285391 0.74846090928 -0.404178352 -0.53904240442 0.73896762176 -0.41938923585 -0.53288331492 0.73494764544 
-0.38822764782 -0.5420571801 0.7452873989 -0.3094947802 -0.55455026892 0.77245516392 -0.18544978065 -0.55575309445 0.81039920833 
-0.03963514073 -0.53523697995 0.84377155138 0.082577216359 -0.50136801636 0.8612845729 0.10033312032 -0.49485817814 0.86316200593 
-0.27339863 -0.60266268384 0.74970052596 -0.91197631279 -0.39927714362 -0.094217660207 -0.89582495553 -0.21925992555 -0.38655236915 
-0.88585323302 -0.19704867159 -0.42004270089 -0.89368331849 -0.21033371582 -0.39634562472 -0.90893173664 -0.22913610389 -0.34833854801 
-0.92719110584 -0.2395073188 -0.28801544663 -0.94675789667 -0.23242409127 -0.22277461005 -0.9660713125 -0.20238152432 -0.16046163957 
-0.98273787008 -0.14978388696 -0.10858667465 -0.99418939849 -0.080827047764 -0.071094502422 -0.99883908462 -0.0047271354269 -0.047938890469 
-0.99615791893 0.080513940773 -0.034451500586 -0.97478852793 0.22173302339 -0.024935760731 -0.72393555798 0.68971288297 -0.014609824133 
0.5599976235 0.82848899024 -0.0029418914352 0.81416640572 0.58057223879 -0.0083029720183 0.85449868893 0.51926289262 -0.014072631877 
0.87519438217 0.48328878851 -0.021604173798 0.90120924164 0.43152342478 -0.040117784557 0.94059977913 0.32640721149 -0.093436544219 
0.96821313312 0.12865945501 -0.21449958857 0.89285858829 -0.1808445704 -0.41243033675 0.66962693872 -0.46049736343 -0.58270227494 
0.4643765031 -0.59088642998 -0.65970272869 0.37680047765 -0.62489024434 -0.68376427412 0.3970932153 -0.61910877703 -0.67751110734 
0.53355837361 -0.57988346116 -0.61567088076 0.77537686886 -0.46995780452 -0.42181793846 0.96835046504 -0.24533844749 -0.045895784533 
0.95080689672 -0.020489575487 0.30910584344 0.84865794143 0.10955780069 0.51747153231 0.75192720221 0.17476383806 0.63565956571 
0.66266492487 0.21065004533 0.71868056586 0.55982403833 0.23285119393 0.79522158396 0.38909423837 0.24440315706 0.88818509922 
-0.018833301787 0.21519976579 0.97638843067 -0.74742134543 0.029805530972 0.66368137138 -0.97997296585 -0.14332977924 0.13823733428 
-0.97387783468 -0.20972123533 -0.087057260336 -0.95786569893 -0.23560349961 -0.16426896779 -0.95822756792 -0.23505057374 -0.1629452542 
-0.97820050278 -0.19158760693 -0.080112204063 -0.984965739 -0.029161507946 0.17027066525 -0.68260107883 0.35658562638 0.63788906421 
-0.14210863012 0.58519346059 0.79834438116 0.083670134765 0.62674420802 0.77471995344 0.14003248998 0.63545706579 0.75933208762 
0.11146619109 0.62900772306 0.76936634484 0.03996259198 0.60332658256 0.7964923264 -0.055758083374 0.55172198866 0.83216217372 
-0.15004859287 0.47970845893 0.86450287114 -0.22574712339 0.40096137827 0.88784469893 -0.27290458445 0.33559516936 0.90160910049 
-0.29869813055 0.28816083477 0.90980369317 -0.31246014461 0.25412298488 0.9153087821 -0.31724522024 0.23783040866 0.91803712722 
-0.32187116278 0.21525566676 0.92198912819 -0.32540937191 0.1886908865 0.92655517376 -0.32939739537 0.1348783816 0.93450798718 
-0.33118388272 0.020805047803 0.94333683582 -0.32572206836 -0.1034506374 0.93978885916 -0.32400066145 -0.12385771401 0.93791408885 
-0.33051576356 -0.054825816633 0.942206697 -0.33531401031 -0.0067513832633 0.94208223278 -0.33847520715 0.018920295091 0.94078507459 
-0.33772663562 0.014428281521 0.94113364847 -0.32827836377 -0.026452873762 0.94421054927 -0.30425799388 -0.10321410591 0.94698147896 
-0.23332990291 -0.27263230378 0.9333963699 0.026583867954 -0.68663213096 0.726518833 0.48470594293 -0.84243433408 -0.23529670982 
0.52772315045 -0.52426429729 -0.66832269381 0.51463577303 -0.36901908274 -0.77393471152 0.5077778044 -0.28151746741 -0.81419261658 
0.50735793636 -0.23490555263 -0.82910029897 0.5090105132 -0.21768864155 -0.83277845361 0.5036126263 -0.24168211503 -0.82943599988 
0.47570708389 -0.31536182229 -0.82112708601 0.3889582669 -0.46455602659 -0.79554959919 0.23247176351 -0.64076164126 -0.73169761395 
0.069005041035 -0.75919938611 -0.6471897685 0.0067667582628 -0.78967438354 -0.61348885806 0.051424182219 -0.7715606904 -0.63407385572 
0.19315363054 -0.71023932453 -0.67694296429 0.38785845845 -0.6059112245 -0.6945771406 0.58489103153 -0.46984082617 -0.66117477213 
0.72257372002 -0.35074128993 -0.59570778631 0.78676119624 -0.28790684266 -0.54600043044 0.79602390889 -0.27916322448 -0.53704174006 
0.77165726706 -0.29797581427 -0.56192123674 0.73384176561 -0.31868015697 -0.59993268005 0.6944782242 -0.33118840602 -0.63875992034 
0.65920754826 -0.33427341958 -0.67357753027 0.63132612715 -0.32999323562 -0.70180608834 0.63132612715 -0.32999323562 -0.70180608834 

plain_curvature_peaks 1 120 unsigned_char
0 0 0 0 0 1 0 0 0 
0 0 0 0 0 0 0 0 0 
0 0 0 0 0 0 0 0 0 
0 0 0 0 0 0 0 0 0 
0 0 1 0 0 0 0 0 0 
0 0 0 0 0 0 0 0 0 
0 0 0 0 0 0 0 1 0 
0 0 0 0 0 0 0 0 0 
0 0 0 0 0 0 0 0 0 
0 0 0 0 0 0 0 0 0 
0 0 0 0 0 0 0 0 0 
0 0 0 0 1 0 0 0 0 
0 0 0 0 0 0 0 0 0 
0 0 0 
weighted_curvature_peaks 1 120 unsigned_char
0 0 0 0 0 0 0 0 0 
0 0 0 0 0 0 1 0 0 
0 0 0 0 0 0 0 0 0 
0 0 0 0 0 0 0 0 0 
0 0 0 0 0 0 1 0 0 
0 0 0 0 0 0 0 0 0 
0 0 0 0 0 0 0 0 0 
0 0 0 0 0 0 0 0 0 
1 0 0 0 0 0 0 0 0 
0 0 0 0 0 0 0 0 0 
0 0 0 0 0 0 0 0 0 
0 0 0 0 0 0 0 0 0 
1 0 0 0 0 0 0 0 0 
0 0 0 
plain_torsion_tp 1 120 unsigned_char
0 0 0 0 0 1 0 0 0 
0 0 0 0 0 0 0 0 0 
0 0 0 0 0 0 0 0 0 
0 0 0 0 0 0 0 0 0 
0 0 1 0 0 0 0 0 0 
0 0 0 0 0 0 0 0 0 
0 0 0 0 0 0 0 1 0 
0 0 0 0 0 0 0 0 0 
0 0 0 0 0 0 0 0 0 
0 0 0 0 0 0 0 0 0 
0 0 0 0 0 0 0 0 0 
0 0 0 0 1 0 0 0 0 
0 0 0 0 0 0 0 0 0 
0 0 0 
plain_torsion_tn 1 120 unsigned_char
0 0 2 0 0 0 0 0 0 
0 0 0 0 0 0 0 0 0 
0 0 0 0 0 0 0 2 0 
0 0 0 0 0 0 0 0 0 
0 0 0 0 0 0 0 0 0 
0 0 0 0 0 0 0 0 2 
0 0 0 0 0 0 0 0 0 
0 0 0 0 0 0 0 0 0 
0 0 0 2 0 0 0 0 0 
0 0 0 0 0 0 0 0 0 
0 0 0 0 0 0 0 0 0 
0 0 0 0 0 0 0 0 0 
0 0 0 0 0 0 0 0 0 
0 0 0 
plain_torsion_tz 1 120 unsigned_char
0 0 3 0 0 0 0 0 0 
0 0 0 0 0 0 0 3 0 
0 0 0 0 0 0 0 0 0 
0 0 0 0 3 0 0 0 0 
0 0 0 0 0 0 0 0 0 
0 0 0 0 0 0 0 0 0 
0 0 0 0 0 3 0 0 0 
0 0 0 3 0 0 0 0 0 
0 0 0 0 0 0 0 0 0 
0 0 3 0 0 0 0 0 0 
0 0 0 0 0 0 0 0 0 
0 0 0 0 0 0 0 0 0 
0 0 0 0 0 0 0 0 0 
0 0 0 
weighted_torsion_tp 1 120 unsigned_char
0 0 0 0 0 0 0 0 0 
0 0 0 0 0 0 1 0 0 
0 0 0 0 0 0 0 0 0 
0 0 0 0 0 0 0 0 0 
0 0 0 0 0 0 1 0 0 
0 0 0 0 0 0 0 0 0 
0 0 0 0 0 0 0 0 0 
0 0 0 0 0 0 0 0 0 
1 0 0 0 0 0 0 0 0 
0 0 0 0 0 0 0 0 0 
0 0 0 0 0 0 0 0 0 
0 0 0 0 0 0 0 0 0 
1 0 0 0 0 0 0 0 0 
0 0 0 
weighted_torsion_tn 1 120 unsigned_char
0 0 0 0 0 0 0 2 0 
0 0 0 0 0 0 0 0 0 
0 0 0 0 0 0 0 0 0 
0 0 2 0 0 0 0 0 0 
0 0 0 0 0 0 0 0 0 
0 0 0 0 0 0 0 0 0 
0 0 0 0 2 0 0 0 0 
0 0 0 0 0 0 0 0 0 
0 0 0 0 0 0 0 0 2 
0 0 0 0 0 0 0 0 0 
0 0 0 0 0 0 0 0 0 
0 0 0 0 0 0 0 0 0 
0 0 0 0 0 0 0 0 0 
0 0 0 
weighted_torsion_tz 1 120 unsigned_char
0 0 0 0 0 0 0 0 3 
0 0 0 0 0 0 0 0 0 
0 3 0 0 0 0 0 0 0 
0 0 0 0 0 0 0 3 0 
0 0 0 0 0 0 0 0 0 
0 0 0 0 0 0 0 0 0 
0 0 0 0 0 0 0 0 0 
0 0 3 0 0 0 0 0 0 
0 0 0 3 0 0 0 0 0 
0 0 0 0 0 0 0 3 0 
0 0 0 0 0 0 0 0 0 
0 0 0 0 0 0 0 0 0 
0 0 0 0 0 0 0 0 0 
0 0 0 
plain_torsion_tp_raw 1 120 unsigned_char
0 0 0 0 0 0 0 0 1 
0 0 0 0 0 0 0 0 0 
0 0 0 0 0 0 0 0 0 
1 0 0 0 0 0 0 0 0 
0 0 0 0 0 0 0 0 0 
0 0 0 0 0 0 0 0 0 
0 0 0 1 0 0 0 0 1 
0 0 0 0 0 0 0 0 0 
0 0 0 0 0 0 0 0 0 
0 0 0 0 0 0 0 0 0 
0 1 0 0 0 0 0 0 0 
0 0 0 0 0 0 0 0 1 
0 0 0 0 0 0 0 0 0 
0 0 0 
plain_torsion_tn_raw 1 120 unsigned_char
0 0 0 0 2 0 0 0 0 
0 0 0 0 0 0 0 0 0 
2 0 0 0 0 0 0 0 0 
0 0 0 0 0 0 0 0 0 
0 0 0 0 0 0 0 0 0 
0 0 0 2 0 0 0 0 0 
0 0 0 0 0 0 2 0 0 
0 0 0 0 0 0 0 0 0 
0 0 0 0 0 2 0 0 0 
0 0 0 0 0 0 0 0 0 
0 0 0 0 0 0 0 2 0 
0 0 0 0 0 0 0 0 0 
0 0 0 0 0 0 0 0 0 
0 0 0 
plain_torsion_tz_raw 1 120 unsigned_char
0 0 3 0 0 3 0 0 0 
0 3 0 0 0 0 0 0 0 
0 0 0 0 0 3 0 0 0 
0 0 0 0 0 0 0 0 0 
0 0 0 0 0 0 0 0 0 
0 0 0 0 0 0 0 0 0 
0 0 0 0 0 0 0 0 0 
0 0 0 0 0 0 0 0 0 
0 0 0 0 0 0 0 0 0 
0 0 0 0 0 0 0 0 0 
0 0 0 0 0 0 0 0 0 
0 0 0 0 0 0 0 0 0 
0 0 0 0 0 0 0 0 0 
0 0 0 
weighted_torsion_tp_raw 1 120 unsigned_char
0 0 0 0 0 0 0 0 0 
0 0 0 0 0 0 0 1 0 
0 0 0 0 0 0 0 0 0 
0 0 0 0 1 0 0 0 0 
0 0 0 0 0 0 0 0 0 
0 0 0 0 0 0 0 0 0 
0 0 0 0 0 0 0 0 1 
0 0 0 0 0 0 0 0 0 
1 0 0 0 0 0 0 0 0 
0 0 0 0 0 0 0 0 0 
0 0 0 0 0 1 0 0 0 
0 0 0 0 0 0 0 0 0 
0 0 0 1 0 0 0 0 0 
0 0 0 
weighted_torsion_tn_raw 1 120 unsigned_char
0 0 0 0 0 0 0 0 0 
0 0 0 0 0 2 0 0 0 
0 0 0 2 0 0 0 0 0 
0 0 0 0 0 0 0 0 0 
0 0 0 0 0 0 0 0 0 
0 0 0 0 0 0 0 2 0 
0 0 0 0 0 0 0 0 0 
0 0 0 0 0 2 0 0 0 
0 0 0 0 0 0 0 0 0 
0 2 0 0 0 0 0 0 0 
0 0 0 0 0 0 0 0 0 
0 0 0 2 0 0 0 0 0 
0 0 0 0 0 0 0 0 0 
0 0 0 
weighted_torsion_tz_raw 1 120 unsigned_char
0 0 0 0 0 0 0 3 0 
0 0 0 0 0 0 3 3 0 
0 0 0 0 0 0 0 0 0 
3 0 0 0 0 0 0 0 0 
0 0 0 0 0 0 0 0 0 
0 0 0 0 0 0 0 0 0 
0 0 0 0 0 0 0 0 0 
0 0 0 0 0 0 0 0 0 
0 0 0 0 0 0 0 0 0 
0 0 0 0 0 0 0 0 0 
0 0 0 0 0 0 0 0 0 
0 0 0 0 0 0 0 0 0 
0 0 0 0 0 0 0 0 0 
0 0 0 
