# vtk DataFile Version 5.1
vtk output
ASCII
DATASET POLYDATA
POINTS 120 float
-3.65623 13.9874 -5.60912 -3.94488 13.2846 -5.20525 -4.2495 12.7444 -5.03342 
-4.56167 12.3371 -5.05577 -4.87318 12.0327 -5.23453 -5.17631 11.8003 -5.53236 
-5.46386 11.6079 -5.91281 -5.72889 11.4232 -6.34129 -5.96413 11.2156 -6.78653 
-6.1616 10.9596 -7.22234 -6.31317 10.6382 -7.62969 -6.412 10.2455 -7.99824 
-6.45445 9.78763 -8.32677 -6.44146 9.28218 -8.62239 -6.37866 8.75518 -8.89876 
-6.27501 8.23725 -9.1732 -6.14006 7.75872 -9.46366 -5.98081 7.34512 -9.78577 
-5.79929 7.01328 -10.1506 -5.59203 6.76882 -10.5632 -5.35203 6.60556 -11.0218 
-5.07254 6.50696 -11.5178 -4.7514 6.44963 -12.0363 -4.39451 6.40806 -12.5561 
-4.01715 6.35936 -13.0507 -3.64304 6.28666 -13.4897 -3.30149 6.18049 -13.8413 
-3.02303 6.03825 -14.0764 -2.83447 5.86273 -14.1738 -2.75446 5.66094 -14.1241 
-2.79081 5.44361 -13.9326 -2.93949 5.22552 -13.6176 -3.18478 5.02588 -13.2081 
-3.502 4.8675 -12.7381 -3.86164 4.77435 -12.2395 -4.2338 4.7676 -11.7381 
-4.59212 4.86114 -11.2496 -4.9165 5.05768 -10.7802 -5.19416 5.34655 -10.3272 
-5.41919 5.70415 -9.88223 -5.5908 6.09703 -9.43471 -5.71124 6.48646 -8.97466 
-5.78381 6.83384 -8.49539 -5.81172 7.10575 -7.99475 -5.79785 7.27774 -7.47512 
-5.74547 7.33639 -6.94254 -5.65942 7.27945 -6.40531 -5.54696 7.11431 -5.87263 
-5.41787 6.85481 -5.35376 -5.28336 6.51767 -4.85773 -5.15432 6.11911 -4.39315 
-5.03966 5.6727 -3.9677 -4.94516 5.18876 -3.58696 -4.87314 4.67499 -3.25313 
-4.82249 4.13767 -2.96377 -4.78905 3.58285 -2.71126 -4.76626 3.01719 -2.48348 
-4.74586 2.44767 -2.26546 -4.71896 1.88173 -2.04188 -4.67691 1.32552 -1.79985 
-4.61232 0.783849 -1.53104 -4.51969 0.259261 -1.2326 -4.39585 -0.247772 -0.906759 
-4.24024 -0.738791 -0.559307 -4.05484 -1.21608 -0.197476 -3.84404 -1.68255 0.171895 
-3.61414 -2.14092 0.543613 -3.37247 -2.59394 0.914523 -3.12623 -3.04365 1.2832 
-2.88113 -3.49158 1.64925 -2.64018 -3.93847 2.01252 -2.40279 -4.3839 2.3727 
-2.16459 -4.82615 2.72908 -1.91819 -5.26284 3.08054 -1.65462 -5.69105 3.42563 
-1.36522 -6.10838 3.76279 -1.04348 -6.51334 4.09063 -0.685973 -6.90521 4.40819 
-0.292728 -7.28307 4.71564 0.133351 -7.64487 5.01418 0.587476 -7.98604 5.30605 
1.06405 -8.29919 5.59452 1.55758 -8.57449 5.88294 2.06321 -8.80069 6.17404 
2.577 -8.967 6.46923 3.09588 -9.06517 6.76855 3.61748 -9.09114 7.07068 
4.14004 -9.04661 7.37366 4.66226 -8.93863 7.67525 5.18334 -8.77906 7.97376 
5.70288 -8.58327 8.26865 6.22086 -8.36753 8.55994 6.73751 -8.14732 8.84915 
7.25291 -7.93514 9.13827 7.76712 -7.73934 9.43032 8.27942 -7.56439 9.7291 
8.78838 -7.4108 10.0384 9.29204 -7.27749 10.3622 9.78806 -7.1638 10.7034 
10.274 -7.07197 11.0638 10.7472 -7.00834 11.4435 11.2042 -6.98281 11.841 
11.6397 -7.00734 12.2539 12.0457 -7.09282 12.6793 12.4116 -7.24634 13.1146 
12.7248 -7.46955 13.5569 12.9725 -7.7584 14.0032 13.1435 -8.10381 14.4493 
13.2297 -8.49375 14.8904 13.2276 -8.91551 15.3209 13.1392 -9.3575 15.7357 
12.9722 -9.81005 16.1311 12.7394 -10.2664 16.5058 12.4583 -10.722 16.8617 
12.1496 -11.174 17.2035 11.8358 -11.6202 17.5385 11.5407 -12.0588 17.8758 
11.2888 -12.4884 18.2259 11.1045 -12.9068 18.5995 11.0126 -13.3122 19.0079 

LINES 2 120
OFFSETS vtktypeint64
0 120 
CONNECTIVITY vtktypeint64
0 1 2 3 4 5 6 7 8 
9 10 11 12 13 14 15 16 17 
18 19 20 21 22 23 24 25 26 
27 28 29 30 31 32 33 34 35 
36 37 38 39 40 41 42 43 44 
45 46 47 48 49 50 51 52 53 
54 55 56 57 58 59 60 61 62 
63 64 65 66 67 68 69 70 71 
72 73 74 75 76 77 78 79 80 
81 82 83 84 85 86 87 88 89 
90 91 92 93 94 95 96 97 98 
99 100 101 102 103 104 105 106 107 
108 109 110 111 112 113 114 115 116 
117 118 119 
CELL_DATA 1
FIELD FieldData 2
Length 1 1 double
70.140607063 
Tortuosity 1 1 double
0.77220037701 
POINT_DATA 120
FIELD FieldData 19
Curvature 1 120 double
0 0.33195152152 0.60760346677 0.77966533844 0.62140441747 0.35661925953 0.1768492066 0.13811609905 0.21065444752 
0.29099040868 0.32885671951 0.3037132142 0.23504866671 0.16061789571 0.11743188071 0.14349368181 0.2256102972 0.32265993956 
0.37801710618 0.34411772212 0.24622888438 0.14799465946 0.087794888057 0.081911169716 0.11890760237 0.20153261096 0.41657078148 
1.1480070288 3.2799000714 2.91915579 0.98819839202 0.4017686128 0.24297827136 0.20838959943 0.2259635679 0.26672383378 
0.29895514584 0.289201004 0.23428019583 0.1681478115 0.13819132328 0.17504815967 0.25547930221 0.34749373202 0.41232786206 
0.41308248007 0.35454796826 0.27795384204 0.21583302945 0.17832458989 0.16207936274 0.15805301023 0.15561409978 0.14445082969 
0.11850986908 0.077956725512 0.028875433008 0.024767222357 0.069583006571 0.10260750891 0.11909037569 0.11949773479 0.1078820327 
0.090845616715 0.071529766457 0.051991650095 0.032275343851 0.014415359088 0.0023116957051 0.008160619045 0.0066445262333 0.0072923853398 
0.027760913515 0.053679872231 0.07833720048 0.095903999593 0.10311725007 0.10064571283 0.092936361824 0.086834703622 0.088411776672 
0.10176789226 0.12585513375 0.15535158569 0.1824230046 0.19786694088 0.19350153967 0.17044080227 0.13409991818 0.091452691019 
0.050350324528 0.01275265803 0.018087339398 0.040731112768 0.055840043419 0.062664816669 0.067403827635 0.072842825787 0.082115440572 
0.097548402983 0.12159838259 0.15506230457 0.19285672374 0.22782054127 0.25511967018 0.27172938067 0.27733992933 0.27487766743 
0.26396218603 0.24368233346 0.21275521402 0.1725995789 0.12577581137 0.075160041762 0.021409631745 0.038871445227 0.11020389237 
0.19592301239 0.29044177604 0 
Torsion 1 120 double
0 0 0.062705959655 0.089605681056 0.17646347994 0.45157777058 1.3704735367 1.6744616616 0.49767409159 
0.1223497837 -0.019320360174 -0.12119685052 -0.277642957 -0.64556849824 -1.2609065781 -0.86414825506 -0.30099799841 -0.05392280995 
0.069622036638 0.17090757402 0.32152123418 0.63599513377 1.238114143 1.1383712744 0.58164594734 0.33756952302 0.24043221233 
0.15275659258 0.065048344663 0.05700070468 0.054083291117 -0.073572051883 -0.20897879846 -0.25684492138 -0.22944029315 -0.19253721671 
-0.18484098624 -0.22946186337 -0.37890434525 -0.7561454696 -1.1271032127 -0.69988794657 -0.31369819849 -0.14536110741 -0.077969562226 
-0.059137308913 -0.071775375465 -0.10932870945 -0.15503523962 -0.17357648513 -0.14156262263 -0.084657141977 -0.037115568551 -0.0062691002459 
0.018839760341 0.077566376615 0.70949717197 0.8762054407 0.034734322552 -0.055106102127 -0.10414280177 -0.1480281858 -0.18678185613 
-0.20918787577 -0.21288157341 -0.20101546914 -0.21416538099 -0.38983670536 -7.5715789643 -0.13098491952 0.84776875559 1.5619598746 
0.14842339248 0.026785144371 -0.0061479362049 -0.013458345322 0.0079305291513 0.060492134837 0.15369664358 0.27961490112 0.33605347575 
0.26297151161 0.14887403634 0.065314333858 0.01671402822 -0.0092117479989 -0.023957292274 -0.034201971746 -0.038955779461 -0.050952014347 
-0.094831866566 -0.51481052263 -0.30794685235 -0.18157265597 -0.20975387756 -0.25905421183 -0.24210478389 -0.11532765897 0.063399754096 
0.17444589121 0.16673243909 0.087013765051 0.0021860545855 -0.067834147246 -0.11498397262 -0.13850689144 -0.14125906498 -0.12104942454 
-0.088256893316 -0.055127702863 -0.026847062235 -0.0061268961429 0.0022118237136 -0.016616529597 -0.48907373616 -0.16168522751 -0.0095257440234 
0.00053317620369 0 0 
FrenetTangent 3 120 double
-0.39743271812 -0.83265395701 0.38566127942 -0.39743271812 -0.83265395701 0.38566127942 -0.5408410282 -0.83084985701 0.13107058143 
-0.64466859258 -0.73565666929 -0.20787417028 -0.65039346676 -0.56803070927 -0.50431086813 -0.59382452496 -0.42708770646 -0.68188600554 
-0.52639605825 -0.3592872007 -0.77059710437 -0.46297908855 -0.36308020277 -0.80859330316 -0.39862301429 -0.42701968497 -0.81163654497 
-0.32323101602 -0.53466192299 -0.78080621052 -0.23102634944 -0.65889797666 -0.71587728153 -0.12742088438 -0.76714350534 -0.62869289835 
-0.025653954165 -0.83895913595 -0.54358940648 0.064083615145 -0.87293243357 -0.48361374742 0.13953445775 -0.87596909406 -0.46174482276 
0.20392744465 -0.85165123424 -0.48280821507 0.2623346516 -0.79549925344 -0.54622474161 0.31863394635 -0.69702190116 -0.64236506563 
0.37276911021 -0.55257333754 -0.74545683786 0.42164216196 -0.38437213702 -0.82126484616 0.46471176452 -0.23425000726 -0.85391446294 
0.50507424107 -0.13111705854 -0.85305822074 0.54505556419 -0.079501141136 -0.83462207047 0.5848177154 -0.071900508305 -0.80797187863 
0.62382618058 -0.10078516694 -0.77503757751 0.66185788863 -0.16542687775 -0.73114846877 0.69740435457 -0.27940788392 -0.65996848458 
0.71250786716 -0.48478998747 -0.50725852116 0.57683698623 -0.81040449413 -0.10248730267 0.089923717704 -0.86321779945 0.49675824675 
-0.26695412265 -0.62818371854 0.73083562595 -0.42618821105 -0.45190162697 0.78367629051 -0.50966471882 -0.32438878926 0.79687752371 
-0.56025063047 -0.20819359543 0.80173228567 -0.5886453514 -0.080362529059 0.80438704253 -0.59228961853 0.07037019397 0.8026462755 
-0.56351027537 0.23943779821 0.79064891725 -0.50013725761 0.40325222465 0.76632262583 -0.41363679375 0.5319513551 0.73887235614 
-0.32203514559 0.60932341073 0.72458149724 -0.23681257396 0.63433271979 0.73589524079 -0.15960366057 0.60927452906 0.77673111163 
-0.086349447908 0.53224182728 0.84217718453 -0.012613951856 0.39892629768 0.91689623035 0.061380896772 0.21370889224 0.97496712503 
0.12832942954 0.0015820546387 0.99173033362 0.17874467732 -0.19996662015 0.96336062363 0.20831660326 -0.3662299888 0.90690671412 
0.21849404541 -0.49454244054 0.8412420143 0.21283124669 -0.59410106325 0.77572339598 0.19477372935 -0.67532382811 0.7113374175 
0.16750175122 -0.74505438808 0.64562924511 0.13445882164 -0.8056136408 0.57698135762 0.099888375639 -0.85587434764 0.50744597099 
0.068803023683 -0.89367492956 0.44340868757 0.046076065683 -0.91814638242 0.3935533212 0.035394393758 -0.93021341666 0.36530841265 
0.038791474186 -0.93129329959 0.36219885653 0.05666345478 -0.92216605485 0.382621249 0.087723003235 -0.90316430654 0.42023673103 
0.12908557144 -0.87545266724 0.46574622131 0.17669743709 -0.84208128315 0.50958525126 0.22610497809 -0.80753047969 0.5447669807 
0.2732944868 -0.77601400799 0.56842975194 0.31496713427 -0.75026670812 0.58128785555 0.34854024669 -0.73143430783 0.58610882076 
0.3722867164 -0.71950511999 0.5862721067 0.38573056644 -0.71367830933 0.58470094997 0.39002544472 -0.7125462053 0.58323070717 
0.38804946389 -0.71440579268 0.58227311201 0.38440729291 -0.7170953463 0.5813822301 0.38478930909 -0.71820506511 0.57975742518 
0.3945679717 -0.71564932803 0.57633510651 0.41732800779 -0.70776849417 0.5700009584 0.45359096378 -0.69358171356 0.5596424253 
0.50034753053 -0.67322248832 0.54444818846 0.55224513017 -0.64783990274 0.52471780666 0.6036488989 -0.61891380272 0.50254722332 
0.65066271134 -0.58739737362 0.48125083016 0.69208843223 -0.55272581439 0.46422815088 0.72872980467 -0.51232428859 0.45439706768 
0.76214200313 -0.46230874677 0.45322200931 0.79346892395 -0.39825753917 0.46021516623 0.82226935484 -0.3166004715 0.47290300225 
0.84605367505 -0.21668350717 0.48707436461 0.86118049565 -0.10274119002 0.49780759514 0.86510949622 0.015378526874 0.50134724539 
0.85870850576 0.12534432217 0.49689888614 0.84617717348 0.21699609359 0.48672054245 0.8328174015 0.28440269827 0.4749002853 
0.82296246302 0.32642074882 0.46495406138 0.81859032983 0.3449151551 0.45928575821 0.81935346187 0.34328424754 0.45914685006 
0.82321261026 0.32619724099 0.46466800868 0.82711886848 0.2987354646 0.47605829433 0.82817455606 0.26642186085 0.49309866838 
0.82447331986 0.23359386324 0.51543928051 0.81551755678 0.20150030814 0.54252072808 0.80207280383 0.16786481562 0.57314973701 
0.78525881593 0.12727606708 0.60594504269 0.76534893614 0.073358141092 0.63942129233 0.74036072557 0.0008271210126 0.67220927686 
0.70539418901 -0.092221605539 0.70279030555 0.65380530203 -0.20244816559 0.7290770654 0.57952983941 -0.32147043813 0.74886709277 
0.47988536931 -0.43804656474 0.7601481694 0.35722113223 -0.54109849422 0.76131825293 0.21780216377 -0.62280329024 0.7514507829 
0.070425834478 -0.67982192528 0.72998791206 -0.074630094154 -0.71269414637 0.69749365788 -0.20703175687 -0.72513529181 0.65674702909 
-0.31816387398 -0.72331821743 0.612847865 -0.40254787403 -0.71441767834 0.57233083963 -0.45803980857 -0.70477712038 0.54174601463 
-0.48432728608 -0.69872575142 0.52650679412 -0.48050619142 -0.69828527941 0.53057654356 -0.44289236903 -0.70292477737 0.55654569158 
-0.36440510826 -0.70833419734 0.6045424567 -0.23626287247 -0.70475289916 0.66895680445 -0.23626287247 -0.70475289916 0.66895680445 

FrenetNormal 3 120 double
-0.56771711174 -0.10707808041 -0.81623009362 -0.56771711174 -0.10707808041 -0.81623009362 -0.40408761448 0.11998577321 -0.90681674778 
-0.15081927576 0.38897062859 -0.90882088233 0.12468320697 0.57507926156 -0.8085406241 0.37893025777 0.59916820898 -0.70527251265 
0.70461856179 0.32288400594 -0.63186913288 0.83143309642 -0.49406112491 -0.25420977759 0.59538725739 -0.79363451985 0.12513297986 
0.53326708878 -0.78452763539 0.3164531582 0.56296948963 -0.69062899552 0.45397901305 0.62812344978 -0.55296801478 0.54743703425 
0.7228181628 -0.39119654573 0.56964828284 0.87220969178 -0.18648590463 0.45218719678 0.98839716343 0.15146798252 0.011335678408 
0.71826594114 0.46526356541 -0.51732374052 0.44631072994 0.60189046691 -0.66221944866 0.31896186024 0.71701166035 -0.61980449388 
0.26168165292 0.83335361628 -0.48687212156 0.24972154403 0.91991004996 -0.30233202019 0.30111912749 0.94870342449 -0.096379891174 
0.46087215055 0.87665140588 0.13812738111 0.74194225152 0.50932560253 0.43601505252 0.77650670862 -0.23842242979 0.58325987041 
0.5431807052 -0.65710509877 0.52265438931 0.347135588 -0.79683187784 0.49452587597 0.17474615639 -0.82678322147 0.5346898966 
-0.049833835613 -0.75607379958 0.65258639153 -0.43249601959 -0.40943617872 0.803311402 -0.72799772858 0.28340678727 0.62425948139 
-0.69487961443 0.65092535478 0.3056771237 -0.60295883296 0.78770826971 0.12631835811 -0.48101015498 0.87536167924 0.048694571941 
-0.3148964342 0.94876091212 0.026324273171 -0.12456901805 0.99217897409 0.0079651186519 0.068708535462 0.99696132887 -0.036704848366 
0.26068484922 0.95971430362 -0.10484209463 0.4520732316 0.87637541693 -0.16612020306 0.65059692763 0.74041562282 -0.1688441389 
0.86883787474 0.49421967807 -0.029456021842 0.95084061282 -0.0042564490582 0.30965143572 0.70252736754 -0.48266487043 0.52296263797 
0.49077025475 -0.71292783937 0.50087768257 0.38580686309 -0.84402356078 0.37252824491 0.3254757439 -0.92770077453 0.18285735717 
0.27094541394 -0.96201071686 -0.033525562104 0.20563610883 -0.94991253515 -0.23532948457 0.12118124193 -0.91044002991 -0.39549217254 
0.01248229747 -0.86058421851 -0.50915517783 -0.11407188874 -0.80359173028 -0.58414718627 -0.23189582449 -0.73637195915 -0.6355947328 
-0.31558432854 -0.66094379393 -0.68085228416 -0.36306600268 -0.58183003107 -0.72777530368 -0.38404611001 -0.50364002121 -0.77385742512 
-0.38621807147 -0.43366461587 -0.81410724245 -0.36591503129 -0.38210163302 -0.84858973121 -0.22337496445 -0.36365322892 -0.90435609931 
0.71133861879 0.28030303203 0.64453671707 0.59047698202 0.33998000299 0.73194981473 0.59424027066 0.38602601251 0.7055936638 
0.62792844955 0.43567699118 0.64489644254 0.67735899817 0.47966620636 0.55776797871 0.73837794772 0.50684968617 0.4448611041 
0.79855643317 0.51248443281 0.31570132905 0.85009281331 0.49536813512 0.17875295651 0.8841117272 0.46419786304 0.053542485688 
0.90696589625 0.41612029202 -0.06524389328 0.92063299687 0.33922012707 -0.19329922518 0.13192683316 -0.58361631818 -0.80124110219 
-0.81399105762 -0.56196553996 -0.14701459117 -0.75487638857 -0.60668631842 -0.24918537081 0.86722578809 0.066273135861 -0.49348485684 
0.91834114024 0.28591707615 -0.27368042625 0.90860428307 0.3364324266 -0.24749036168 0.89098130403 0.36714002749 -0.26713389169 
0.86572951906 0.39832473532 -0.3030673276 0.83366542021 0.43307528221 -0.34270653201 0.79699086959 0.48454545919 -0.36058459724 
0.75634242029 0.55781279641 -0.34174702255 0.70205087353 0.66491697573 -0.25497055978 0.61327313381 0.78349653231 -0.10014612926 
0.49633698308 0.86672026616 0.049452800338 0.38134036911 0.9146644376 0.13404659443 0.27873093033 0.94852382473 0.15037161435 
0.18018534858 0.9761292239 0.12126408535 0.081446365517 0.99459662081 0.064374307063 -0.015034452578 0.9998757998 -0.0047275998501 
-0.10036510356 0.99198321009 -0.076786436895 -0.16730623148 0.97533639164 -0.14397065 -0.21344409869 0.95656703328 -0.19854754487 
-0.22397092569 0.93857832326 -0.26250286768 -0.18172393064 0.9140708036 -0.36256168997 0.26225141122 -0.93662608786 0.23228381099 
0.18196445818 -0.92688080266 0.32830003596 0.088297177353 -0.90558913301 0.4148637495 -0.026380961625 -0.86028931988 0.50912310001 
-0.15539097897 -0.78236772707 0.60312053795 -0.25833297971 -0.71210815979 0.65281394007 -0.30768275436 -0.70638152797 0.63746094752 
-0.30853232064 -0.76805365797 0.56116074845 -0.29557119636 -0.84246503293 0.45043349806 -0.30808495413 -0.8883707765 0.34041302046 
-0.36515497488 -0.89708709107 0.24879026381 -0.46107424805 -0.87058565644 0.17172988263 -0.58263923948 -0.80592953953 0.10492422951 
-0.70727121032 -0.70582317001 0.039762893925 -0.81708361377 -0.57593476226 -0.025952220264 -0.89804306764 -0.42939568633 -0.095592851332 
-0.94363370413 -0.28266755307 -0.17220478177 -0.95632042192 -0.14708900715 -0.25261843678 -0.943123953 -0.030545543511 -0.33103501182 
-0.91362305138 0.0613476753 -0.40190718172 -0.87915936293 0.12754929078 -0.45914049374 -0.85160689747 0.17315954099 -0.49475394445 
-0.8535900284 0.24541626777 -0.45951596156 0.79947539516 -0.10009035025 0.59230145561 0.83211139566 -0.091144119779 0.5470679799 
0.86938081171 -0.026108929701 0.49345245771 0.9124230026 0.075848954269 0.40215817842 0.9124230026 0.075848954269 0.40215817842 

FrenetBinormal 3 120 double
0.72093308677 -0.54334305238 -0.43015556701 0.72093308677 -0.54334305238 -0.43015556701 0.73770196017 -0.54340770084 -0.40062936567 
0.74943708996 -0.55453684731 -0.36170835375 0.74929462583 -0.58874863587 -0.3032039041 0.70977763652 -0.67719535464 -0.19396432237 
0.47583597199 -0.87559044429 0.083195562631 -0.30719597936 -0.78998504493 0.53061686654 -0.69757702529 -0.43335717088 0.57060306363 
-0.78175950414 -0.31409077894 0.53870127183 -0.79353146101 -0.29813595372 0.53049295329 -0.76760982931 -0.32514184112 0.55232049853 
-0.69056192928 -0.37830256517 0.61645063956 -0.4849160173 -0.45079038787 0.74942943789 0.060009852797 -0.45796899078 0.88694037063 
0.66521247367 -0.24128818852 0.70659208526 0.85556254179 -0.070062854791 0.51293657841 0.89260054893 -0.0073992044406 0.45078765714 
0.89026170478 -0.013581489973 0.45524679036 0.87169779035 -0.077611598818 0.48385886582 0.83268856542 -0.21234110874 0.5114108002 
0.7297238326 -0.46291535892 0.50320224425 0.3904306947 -0.85689380857 0.33659600929 -0.23457529966 -0.96849628904 -0.083602433639 
-0.5619569538 -0.74703094936 -0.35517480595 -0.66441027898 -0.58111350576 -0.46996390778 -0.69504744231 -0.48822201825 -0.52777676515 
-0.69989222604 -0.43969430021 -0.5628674749 -0.69296917994 -0.41905437768 -0.58667464936 -0.67965655457 -0.41777460866 -0.60293560534 
-0.66774083135 -0.4262410096 -0.61027926713 -0.67439176635 -0.41868914647 -0.60819005591 -0.71335202053 -0.35848827586 -0.60217526591 
-0.7661327997 -0.2377144473 -0.59710332001 -0.79873600771 -0.095513073949 -0.59405222219 -0.80279022474 0.033408749447 -0.59532487814 
-0.78390023532 0.14703059617 -0.60322667784 -0.73857465216 0.26335104312 -0.62060753401 -0.63688950424 0.41086793656 -0.65234906154 
-0.37605067799 0.62005797386 -0.68855936319 0.19955433801 0.77304843525 -0.60214133136 0.69352863631 0.6291416145 -0.35099695086 
0.86699961355 0.45656602276 -0.19964753184 0.92249333473 0.35844391175 -0.14326203095 0.94355600027 0.30610420173 -0.12650016615 
0.9540021699 0.27300710202 -0.12388293695 0.96216637391 0.24016562283 -0.12867145191 0.97052526985 0.19228766793 -0.14527956963 
0.97575844571 0.12174800761 -0.18185950146 0.97040737045 0.035836540987 -0.23879966017 0.95304119582 -0.04115902046 -0.30003068859 
0.93399662468 -0.089706521884 -0.34583673173 0.92201079331 -0.11162650538 -0.37072310464 0.91789481848 -0.11758329003 -0.3790029975 
0.91983789072 -0.11523940831 -0.37499084465 0.92950695858 -0.10490739965 -0.3535693022 0.97408976083 -0.049591617812 -0.22065767445 
-0.70177816363 0.23264350491 0.67333825725 -0.80506284637 0.18445423513 0.56378227051 -0.79948932165 0.18782479353 0.57055996311 
-0.76749122307 0.20920847682 0.60596124936 -0.7141167995 0.24661598295 0.65514712365 -0.63535387399 0.301658615 0.7108639355 
-0.5363000527 0.36764380252 0.75975014837 -0.42206387322 0.43784732202 0.79382101857 -0.31123327306 0.49952397068 0.80846128692 
-0.19701640498 0.5560182415 0.80748266315 -0.060388866328 0.61285640747 0.78788337249 0.91130426487 0.38944819741 -0.1336212497 
0.43224549933 -0.41691617297 -0.79959035325 0.53140631455 -0.3430830444 -0.77453299058 0.31600098114 0.69266828707 0.64834714776 
0.031075164601 0.63725776955 0.77002394072 -0.016600924992 0.62118997174 0.78348415957 -0.020187953056 0.61980045727 0.78449973851 
-0.012835440152 0.6229838573 0.7821293787 -0.005223345835 0.62669710416 0.77924544034 -0.020336190806 0.6181920436 0.78576398274 
-0.067706567856 0.58635246193 0.80722153778 -0.16774436783 0.50237395383 0.84822298812 -0.30471123239 0.3516489829 0.88515199694 
-0.41567916269 0.18726078845 0.89002484843 -0.47432751302 0.069136814315 0.87762948406 -0.49616748842 0.008166723453 0.86818841737 
-0.50172344882 -0.014832260891 0.86490091048 -0.50173164486 -0.014893278313 0.8648951074 -0.50135768148 -0.0034475898611 0.86523325719 
-0.50254009604 0.016065858323 0.86440461594 -0.50595732625 0.040393297938 0.86161218973 -0.51074141451 0.063989187027 0.85734974861 
-0.52208218596 0.11189381501 0.84552348593 -0.54487272362 0.2133262801 0.81092885833 0.5097882912 -0.069910635284 -0.85745460593 
0.5377824228 -0.18570766712 -0.82237626917 0.55504773297 -0.30110703141 -0.7754073573 0.55984904176 -0.43465121438 -0.70544126068 
0.5441483148 -0.5773514066 -0.60874293819 0.5178756474 -0.67253222568 -0.52868253163 0.5118696514 -0.68763837925 -0.51492030388 
0.53682063962 -0.62761005508 -0.56385212569 0.5717330442 -0.53373331489 -0.62309716317 0.59745264002 -0.45912599505 -0.65746000913 
0.60752027326 -0.43212258274 -0.66647519913 0.59995763586 -0.44843656748 -0.66253715377 0.56980407321 -0.49712607528 -0.65436150821 
0.51911219151 -0.55671254683 -0.64853193663 0.45251235431 -0.61278998782 -0.64785878093 0.382205267 -0.6540148364 -0.6528274869 
0.32341248315 -0.67671353197 -0.66140997981 0.28263333078 -0.68588036691 -0.6705867003 0.26010586485 -0.68792861428 -0.67756856533 
0.25310999442 -0.68778428237 -0.68035881096 0.25501769288 -0.68799604599 -0.67943168679 0.25488276904 -0.68797164473 -0.6795070199 
0.19186230316 -0.67197706792 -0.71528712893 -0.36048979535 0.70878740843 0.60635593269 -0.33382177081 0.70540024581 0.62527875268 
-0.33374529405 0.70539420799 0.6253263868 -0.33416181623 0.70538662254 0.62511246453 -0.33416181623 0.70538662254 0.62511246453 

plain_curvature_peaks 1 120 unsigned_char
0 0 0 0 0 0 1 0 0 
0 0 0 0 0 0 0 0 0 
0 0 0 0 0 0 0 0 0 
0 0 0 0 0 0 0 0 0 
0 0 0 0 0 0 1 0 0 
0 0 0 0 0 0 0 0 0 
0 0 0 0 0 0 0 0 0 
0 0 0 0 0 0 0 0 0 
0 0 0 0 0 0 1 0 0 
0 0 0 0 0 0 0 0 0 
0 0 0 0 0 0 0 0 0 
0 0 0 0 0 0 0 0 0 
0 0 0 0 0 0 0 0 0 
1 0 0 
weighted_curvature_peaks 1 120 unsigned_char
0 0 0 0 0 0 1 0 0 
0 0 0 0 0 0 0 0 0 
0 0 0 0 0 0 0 0 0 
0 0 0 0 0 0 0 0 0 
0 0 0 0 0 0 0 0 0 
0 1 0 0 0 0 0 0 0 
0 0 0 0 0 0 0 0 0 
0 0 0 0 0 0 0 0 0 
0 0 0 0 0 0 0 0 0 
0 0 1 0 0 0 0 0 0 
0 0 0 0 0 0 0 0 0 
0 0 0 0 0 0 0 0 0 
0 0 0 0 0 0 0 0 0 
0 1 0 
plain_torsion_tp 1 120 unsigned_char
0 0 0 0 0 0 1 0 0 
0 0 0 0 0 0 0 0 0 
0 0 0 0 0 0 0 0 0 
0 0 0 0 0 0 0 0 0 
0 0 0 0 0 0 1 0 0 
0 0 0 0 0 0 0 0 0 
0 0 0 0 0 0 0 0 0 
0 0 0 0 0 0 0 0 0 
0 0 0 0 0 0 1 0 0 
0 0 0 0 0 0 0 0 0 
0 0 0 0 0 0 0 0 0 
0 0 0 0 0 0 0 0 0 
0 0 0 0 0 0 0 0 0 
1 0 0 
plain_torsion_tn 1 120 unsigned_char
0 0 0 0 2 0 0 0 0 
0 0 0 0 0 0 0 0 0 
0 0 0 0 0 0 0 0 0 
2 0 0 0 0 0 0 0 0 
0 0 0 0 0 0 0 0 0 
0 0 0 0 0 0 0 0 0 
0 0 0 2 0 0 0 0 0 
0 0 0 0 0 0 0 0 0 
0 0 0 0 0 0 0 0 0 
0 0 0 0 0 0 0 0 0 
0 0 0 0 0 0 0 0 2 
0 0 0 0 0 0 0 0 0 
0 0 0 0 0 0 0 0 0 
0 0 0 
plain_torsion_tz 1 120 unsigned_char
0 0 0 0 3 0 0 0 0 
0 0 0 0 0 0 0 0 0 
3 0 0 0 0 0 0 0 0 
0 0 0 0 0 0 3 0 0 
0 0 0 0 0 0 0 0 0 
0 0 0 0 0 0 0 0 0 
0 0 0 0 0 0 0 0 0 
3 0 0 0 0 0 0 0 0 
0 0 0 0 0 0 0 0 0 
0 0 0 0 0 0 0 0 0 
3 0 0 0 0 0 0 0 0 
0 0 0 0 0 0 3 0 0 
0 0 0 0 0 0 0 0 0 
0 0 0 
weighted_torsion_tp 1 120 unsigned_char
0 0 0 0 0 0 1 0 0 
0 0 0 0 0 0 0 0 0 
0 0 0 0 0 0 0 0 0 
0 0 0 0 0 0 0 0 0 
0 0 0 0 0 0 0 0 0 
0 1 0 0 0 0 0 0 0 
0 0 0 0 0 0 0 0 0 
0 0 0 0 0 0 0 0 0 
0 0 0 0 0 0 0 0 0 
0 0 1 0 0 0 0 0 0 
0 0 0 0 0 0 0 0 0 
0 0 0 0 0 0 0 0 0 
0 0 0 0 0 0 0 0 0 
0 1 0 
weighted_torsion_tn 1 120 unsigned_char
2 0 0 0 0 0 0 0 0 
0 0 0 0 0 0 0 0 0 
0 0 0 0 0 0 0 0 0 
0 0 0 0 2 0 0 0 0 
0 0 0 0 0 0 0 0 0 
0 0 0 0 0 0 0 0 0 
0 0 0 0 0 0 0 0 0 
2 0 0 0 0 0 0 0 0 
0 0 0 0 0 0 0 0 0 
0 0 0 0 0 0 0 0 0 
0 0 0 0 0 0 0 0 0 
0 0 0 2 0 0 0 0 0 
0 0 0 0 0 0 0 0 0 
0 0 0 
weighted_torsion_tz 1 120 unsigned_char
0 3 0 0 0 0 0 0 0 
0 0 0 0 0 0 0 0 0 
0 0 0 3 0 0 0 0 0 
0 0 0 0 0 0 0 0 0 
3 0 0 0 0 0 0 0 0 
0 0 0 0 0 0 0 0 0 
0 0 0 0 0 0 0 0 0 
0 0 0 0 0 3 0 0 0 
0 0 0 0 0 0 0 0 0 
0 0 0 0 0 0 0 0 0 
0 0 0 0 3 0 0 0 0 
0 0 0 0 0 0 0 0 0 
0 0 3 0 0 0 0 0 0 
0 0 0 
plain_torsion_tp_raw 1 120 unsigned_char
0 0 0 0 0 0 0 0 0 
0 0 1 0 0 0 0 0 0 
0 0 0 0 0 0 0 0 0 
0 0 0 1 0 0 0 0 0 
0 0 0 0 0 0 0 0 0 
0 0 0 0 0 0 0 0 0 
0 0 0 0 0 0 1 0 0 
0 0 0 0 0 0 0 0 0 
0 0 0 0 0 0 0 0 0 
0 1 0 0 0 0 0 0 0 
0 0 0 0 0 0 0 0 0 
0 0 0 0 0 0 0 0 0 
0 0 1 0 0 0 0 0 0 
0 1 0 
plain_torsion_tn_raw 1 120 unsigned_char
0 0 0 0 0 2 0 0 0 
0 0 0 0 0 0 0 0 0 
0 0 0 2 0 0 0 0 0 
0 0 0 0 0 0 0 0 0 
0 0 0 0 0 0 0 0 0 
0 0 0 0 0 0 0 2 0 
0 0 0 0 0 0 0 0 0 
0 0 0 0 0 2 0 0 0 
0 0 0 0 0 0 0 0 0 
0 0 0 0 0 0 0 0 0 
0 0 0 0 0 0 0 0 0 
2 0 0 0 0 0 0 0 0 
0 0 0 0 0 0 2 0 0 
0 0 0 
plain_torsion_tz_raw 1 120 unsigned_char
0 0 0 0 3 0 0 3 0 
0 0 0 3 0 0 0 0 0 
0 0 0 0 0 0 0 0 3 
0 0 0 0 0 0 0 0 0 
0 0 0 0 0 0 0 0 0 
0 0 0 0 0 0 0 0 0 
0 0 0 0 0 0 0 0 0 
0 0 0 0 0 0 0 0 0 
0 0 0 0 0 0 0 0 0 
0 0 0 0 0 0 0 0 0 
0 0 0 0 0 0 0 0 0 
0 0 0 0 0 0 0 0 0 
0 0 0 0 0 0 0 0 0 
0 0 0 
weighted_torsion_tp_raw 1 120 unsigned_char
0 0 0 0 0 0 0 0 0 
0 0 0 1 0 0 0 0 0 
0 0 0 0 0 0 0 0 0 
0 0 0 0 0 0 1 0 0 
0 0 0 0 0 0 0 0 0 
0 0 0 0 0 0 0 0 0 
0 0 0 0 0 0 0 0 0 
0 0 0 1 0 0 0 0 0 
0 0 0 0 0 0 0 0 0 
0 0 0 0 0 0 1 0 0 
0 0 0 0 0 0 0 0 0 
0 0 0 0 0 0 0 0 0 
0 0 0 0 0 1 0 0 0 
0 1 0 
weighted_torsion_tn_raw 1 120 unsigned_char
0 0 0 2 0 0 0 0 0 
0 0 0 0 0 0 0 0 0 
0 0 0 0 0 0 2 0 0 
0 0 0 0 0 0 0 0 0 
0 0 0 0 0 0 0 0 0 
0 0 0 0 0 0 0 0 0 
0 0 0 2 0 0 0 0 0 
0 0 0 0 0 0 0 0 0 
2 0 0 0 0 0 0 0 0 
0 0 0 0 0 0 0 0 0 
0 0 0 0 0 0 0 0 0 
0 0 0 0 0 2 0 0 0 
0 0 0 0 0 0 0 0 2 
0 0 0 
weighted_torsion_tz_raw 1 120 unsigned_char
3 0 0 0 0 0 0 3 0 
0 0 0 0 3 0 0 0 0 
0 0 0 0 0 0 0 0 0 
0 0 3 0 0 0 0 0 0 
0 0 0 0 0 0 0 0 0 
0 0 0 0 0 0 0 0 0 
0 0 0 0 0 0 0 0 0 
0 0 0 0 0 0 0 0 0 
0 0 0 0 0 0 0 0 0 
0 0 0 0 0 0 0 0 0 
0 0 0 0 0 0 0 0 0 
0 0 0 0 0 0 0 0 0 
0 0 0 0 0 0 0 0 0 
0 0 0 
