# vtk DataFile Version 5.1
vtk output
ASCII
DATASET POLYDATA
POINTS 120 float
-7.52487 35.7209 -21.3448 -8.15372 35.4596 -21.0286 -8.76156 35.1507 -20.714 
-9.35489 34.8104 -20.4041 -9.9447 34.4542 -20.1053 -10.5443 34.0954 -19.8302 
-11.1662 33.7439 -19.5994 -11.8178 33.4059 -19.4428 -12.4936 33.0844 -19.3927 
-13.1732 32.7767 -19.4709 -13.8289 32.4749 -19.675 -14.4397 32.1683 -19.9847 
-14.994 31.8471 -20.3757 -15.4851 31.5049 -20.8286 -15.9059 31.1391 -21.331 
-16.2464 30.7514 -21.876 -16.4935 30.3482 -22.4585 -16.6321 29.9401 -23.0726 
-16.6494 29.5408 -23.7074 -16.5427 29.1627 -24.3464 -16.322 28.8125 -24.9722 
-16.0073 28.4887 -25.5717 -15.6202 28.1841 -26.1382 -15.18 27.8888 -26.67 
-14.7017 27.5927 -27.1674 -14.1967 27.2869 -27.6314 -13.6736 26.9631 -28.062 
-13.1388 26.6138 -28.4567 -12.5983 26.231 -28.8104 -12.0587 25.8045 -29.1111 
-11.5298 25.3213 -29.3338 -11.0358 24.7658 -29.4206 -10.6561 24.1532 -29.2433 
-10.5226 23.6352 -28.7308 -10.5952 23.3119 -28.0603 -10.7682 23.1306 -27.3534 
-10.9927 23.0442 -26.6424 -11.2502 23.0302 -25.9374 -11.5344 23.0807 -25.2444 
-11.8438 23.1951 -24.57 -12.1782 23.3777 -23.9233 -12.536 23.6337 -23.3152 
-12.9115 23.963 -22.7549 -13.295 24.3581 -22.2446 -13.6753 24.8056 -21.7769 
-14.0431 25.2899 -21.3363 -14.3908 25.7965 -20.9045 -14.7122 26.312 -20.4631 
-15.0013 26.8229 -19.9949 -15.2508 27.313 -19.4839 -15.4522 27.7607 -18.9162 
-15.5941 28.1349 -18.2819 -15.6624 28.3896 -17.5806 -15.6454 28.4672 -16.8367 
-15.5455 28.3242 -16.1098 -15.3865 27.967 -15.4721 -15.1999 27.4469 -14.9667 
-15.0094 26.8206 -14.6015 -14.8282 26.1303 -14.3711 -14.6634 25.4063 -14.2642 
-14.5183 24.6701 -14.2667 -14.393 23.936 -14.3607 -14.2858 23.2113 -14.5248 
-14.1936 22.4967 -14.7366 -14.1122 21.7883 -14.972 -14.0373 21.0784 -15.2054 
-13.964 20.3587 -15.4065 -13.8879 19.6239 -15.5393 -13.8064 18.8786 -15.5645 
-13.7201 18.1419 -15.4546 -13.6323 17.4381 -15.2107 -13.5454 16.7815 -14.858 
-13.4587 16.1725 -14.4278 -13.3683 15.6042 -13.9454 -13.2681 15.0682 -13.4291 
-13.15 14.5566 -12.8922 -13.0034 14.0631 -12.3456 -12.8156 13.5837 -11.7991 
-12.5722 13.1183 -11.2625 -12.2603 12.6723 -10.7455 -11.8736 12.255 -10.256 
-11.4136 11.8765 -9.79932 -10.8903 11.5443 -9.37603 -10.3177 11.2616 -8.98129 
-9.70982 11.0282 -8.60745 -9.07782 10.8421 -8.24725 -8.42966 10.701 -7.89538 
-7.77078 10.6025 -7.54893 -7.10453 10.5445 -7.20742 -6.43276 10.5248 -6.87239 
-5.75626 10.5414 -6.54687 -5.07508 10.5921 -6.23488 -4.38893 10.6746 -5.94113 
-3.69746 10.7858 -5.67021 -3.00053 10.9219 -5.42592 -2.2984 11.0781 -5.21017 
-1.59168 11.249 -5.02232 -0.881162 11.4291 -4.8589 -0.1678 11.613 -4.71296 
0.547232 11.7961 -4.57436 1.26241 11.9749 -4.43096 1.97556 12.1468 -4.27027 
2.68373 12.3104 -4.08145 3.3836 12.4649 -3.85739 4.07255 12.6094 -3.59596 
4.7496 12.7421 -3.29946 5.41529 12.8595 -2.97239 6.07093 12.9568 -2.61941 
6.71785 13.0265 -2.24454 7.35674 13.0577 -1.85127 7.98593 13.0344 -1.44235 
8.59846 12.933 -1.02074 9.17597 12.7216 -0.591534 9.67959 12.3668 -0.16547 
10.0536 11.8601 0.238911 10.2625 11.2417 0.606298 10.3182 10.5719 0.938978 
10.2577 9.89216 1.25122 10.1158 9.22152 1.55732 9.91732 8.56697 1.86714 

LINES 2 120
OFFSETS vtktypeint64
0 120 
CONNECTIVITY vtktypeint64
0 1 2 3 4 5 6 7 8 
9 10 11 12 13 14 15 16 17 
18 19 20 21 22 23 24 25 26 
27 28 29 30 31 32 33 34 35 
36 37 38 39 40 41 42 43 44 
45 46 47 48 49 50 51 52 53 
54 55 56 57 58 59 60 61 62 
63 64 65 66 67 68 69 70 71 
72 73 74 75 76 77 78 79 80 
81 82 83 84 85 86 87 88 89 
90 91 92 93 94 95 96 97 98 
99 100 101 102 103 104 105 106 107 
108 109 110 111 112 113 114 115 116 
117 118 119 
CELL_DATA 1
FIELD FieldData 2
Length 1 1 double
89.288610277 
Tortuosity 1 1 double
1.2460415313 
POINT_DATA 120
FIELD FieldData 19
Curvature 1 120 double
0 0.092285259234 0.062170673258 0.034935598456 0.045537487 0.089219271798 0.14407570904 0.19732295007 0.23125495549 
0.2295074955 0.2054280556 0.17836863569 0.16209121319 0.15882246049 0.16656103524 0.18162290977 0.2022905984 0.22062302035 
0.22523117917 0.21103555525 0.18057144804 0.14566524726 0.11390951475 0.091227546981 0.077666648711 0.074800320675 0.080821596372 
0.094538029072 0.12210072821 0.17300111882 0.2843447966 0.54928962508 0.84557693492 0.61497476209 0.32127385793 0.19289880132 
0.14196300233 0.12592682634 0.12665935534 0.13830868734 0.15343727094 0.15901988388 0.14795277993 0.11999747522 0.084176458933 
0.055523972436 0.052092531349 0.075222847708 0.10967188327 0.15255446999 0.20670580525 0.27973736571 0.36543102854 0.43324179906 
0.43945201164 0.38575178154 0.31766996295 0.26865890992 0.23097098689 0.19995270681 0.16673317451 0.12995347478 0.090607957369 
0.04737052265 0.012165423692 0.059717742456 0.12462291553 0.19317084611 0.24289908578 0.24749115755 0.2119767969 0.1620295993 
0.11789742859 0.084844360801 0.065093971417 0.062152813269 0.077472646381 0.1032922825 0.13136591435 0.15089284112 0.15864682219 
0.15194393352 0.13435467498 0.11384412088 0.097423573735 0.086082081272 0.078566718861 0.073638128907 0.069742741677 0.066891255382 
0.065724537746 0.065694747072 0.065792498393 0.065330265391 0.062588159338 0.056584331241 0.046758399537 0.032141451878 0.013416746011 
0.011492605443 0.033182727921 0.052790720679 0.066237750412 0.071322770062 0.069024663314 0.063822538192 0.060905910181 0.064439490655 
0.077027809944 0.10209874539 0.14416492004 0.2064941217 0.29078864267 0.36477048465 0.36855112832 0.29765369024 0.21169364475 
0.14640435094 0.10461809516 0 
Torsion 1 120 double
0 0 -0.26967591089 -1.3083157452 -0.75296324698 -0.064649757816 0.087600813591 0.13678198866 0.1644939218 
0.19732668466 0.22746894173 0.23186047408 0.1833457813 0.095710996761 0.0099986377274 -0.039777549498 -0.047569065205 -0.028626382628 
0.002515331467 0.040913907128 0.089191669172 0.15107073294 0.23240254835 0.31702206236 0.36751269051 0.33399761999 0.24827273271 
0.15907246716 0.069360356356 -0.0093839216769 -0.064947919493 -0.068934566063 -0.056259362755 -0.075707001182 -0.10136068831 -0.075720384438 
-0.028645833992 0.0080586941053 0.018209833711 0.0062803642436 -0.016663409926 -0.047644266986 -0.094925070393 -0.18574069129 -0.40496783452 
-0.91307258389 -0.99831139178 -0.48190747938 -0.25349205252 -0.16616752217 -0.12960284425 -0.10980402244 -0.096516521565 -0.085657080584 
-0.077216975574 -0.067981521164 -0.053862849194 -0.035987144568 -0.022707062291 -0.016259621003 -0.01803174367 -0.031151069606 -0.074311426748 
-0.31727329217 -5.5805956118 -0.25628477559 -0.05471900341 -0.012567528836 0.0012549640622 0.0020716557225 -0.012444813909 -0.053183597131 
-0.13999649307 -0.3091888285 -0.5506941105 -0.60219777308 -0.34516528577 -0.12522749462 -0.0097886400956 0.042453642359 0.072374831797 
0.10700646662 0.14984093965 0.18423474155 0.18722149755 0.1520635886 0.086805060442 0.008659649844 -0.064235020091 -0.12212489801 
-0.16150187938 -0.18272995284 -0.18579213803 -0.1733792476 -0.15868013275 -0.15224653249 -0.15952384854 -0.22183830118 -0.93948710068 
-1.3126419979 -0.19361547512 -0.082279094126 -0.030321285796 0.027655009629 0.10720379738 0.2022854382 0.29141665177 0.31834138311 
0.25287948694 0.14983044467 0.056553771131 -0.014639710057 -0.060459316304 -0.087163854797 -0.11448505553 -0.15700379339 -0.21009573197 
-0.25616468473 0 0 
FrenetTangent 3 120 double
-0.82401053982 -0.37989981608 0.42033648427 -0.82401053982 -0.37989981608 0.42033648427 -0.7999989994 -0.43238444334 0.41598713216 
-0.787790034 -0.46381506951 0.40529303427 -0.79201893736 -0.47609066443 0.38215661985 -0.8138866649 -0.4732651517 0.33705873802 
-0.84952131294 -0.45993248831 0.25840983931 -0.88697458116 -0.44067099757 0.13814906541 -0.90686629272 -0.42099828002 -0.018814232406 
-0.89335971733 -0.40772529587 -0.18886105621 -0.84656777372 -0.40667461354 -0.34342213559 -0.77799923824 -0.4192740482 -0.46789577665 
-0.69767809793 -0.44277797745 -0.56319884087 -0.60852156646 -0.47245679463 -0.63756260898 -0.50816612282 -0.50293473885 -0.69915938103 
-0.39246193826 -0.52819262312 -0.75298484706 -0.25777244045 -0.54217644598 -0.79974875453 -0.10420222985 -0.53995909658 -0.83521618119 
0.059814597606 -0.52003818063 -0.85204606953 0.21883155319 -0.48692806761 -0.84558489125 0.3575268611 -0.45012607357 -0.81826710889 
0.46821079527 -0.41921739885 -0.77784023018 0.551465649 -0.39990396304 -0.73209456925 0.61200000643 -0.39400068733 -0.6857254921 
0.65500520415 -0.40095111936 -0.64047356106 0.68482219474 -0.41941027734 -0.5959140717 0.70476225299 -0.44840802346 -0.54976395958 
0.71647414314 -0.48783254449 -0.49868247488 0.72013177843 -0.53951101552 -0.43627753303 0.7134294397 -0.60735100618 -0.3494898995 
0.68634147192 -0.6969917306 -0.20769668126 0.59782345378 -0.7992303608 0.061951178203 0.36128229432 -0.79599834571 0.48565598672 
0.041868733684 -0.57908623568 0.81419048188 -0.16512074636 -0.33922222081 0.92610119535 -0.26556392997 -0.17882504227 0.94736339562 
-0.32150711669 -0.066974367403 0.94453565736 -0.36118369862 0.024300579085 0.93217799679 -0.39577337427 0.10994008654 0.91174372144 
-0.42936782434 0.19812220652 0.8811304459 -0.46190433474 0.29264408728 0.83725971104 -0.4894066227 0.3905576708 0.77970883247 
-0.50631813598 0.48328600544 0.71419645905 -0.50920615406 0.56177224535 0.65201306507 -0.49841814395 0.62076558734 0.60516893456 
-0.47647789703 0.65988665751 0.580963349 -0.44560614639 0.68068719356 0.58146376225 -0.40663666285 0.68371986412 0.60594865445 
-0.35898547554 0.66717612689 0.65269092537 -0.30087841942 0.62571562881 0.71968891098 -0.22947203964 0.54936995369 0.80345207512 
-0.14100190526 0.42174131684 0.89568561693 -0.034544997891 0.22396341572 0.97398512901 0.079173643307 -0.044256192145 0.99587796625 
0.17537557198 -0.33879862242 0.92436946196 0.23321782906 -0.59207562939 0.77139866041 0.2534323333 -0.77041127303 0.58501155786 
0.24913867182 -0.88238842098 0.39914984244 0.23144340344 -0.94630002048 0.22572155909 0.20711583635 -0.9758250001 0.069775350284 
0.18053709327 -0.98145646911 -0.064417056776 0.15502689699 -0.97280768987 -0.17208096856 0.13286383929 -0.95896485206 -0.25046678967 
0.1155700668 -0.94759948287 -0.29782340358 0.10406241101 -0.94433469613 -0.31209453104 0.098752738873 -0.95210856593 -0.28937376392 
0.099585781021 -0.96979453286 -0.22266844466 0.10524597845 -0.98882579296 -0.10557857361 0.11232484711 -0.99205332543 0.056686226115 
0.11659028366 -0.96450551377 0.23692998896 0.11680596283 -0.90952428554 0.39890091634 0.11589522812 -0.84470958998 0.52252655884 
0.1180870587 -0.78482309658 0.60836514828 0.12692713753 -0.73568194148 0.66532817672 0.14539502049 -0.69773819147 0.70144258794 
0.17629719164 -0.669427297 0.72165531541 0.22275248629 -0.64813723597 0.72821662519 0.28737750525 -0.62963498154 0.72178525857 
0.37028260912 -0.60771114005 0.70255103704 0.46614616172 -0.57596370148 0.67154565779 0.56501450118 -0.53107390541 0.63144209588 
0.65603681677 -0.47422535127 0.58713372519 0.7309055244 -0.41007533381 0.54554132292 0.78688970365 -0.34399407113 0.51232086949 
0.82619831594 -0.27953081153 0.48914094916 0.85288650512 -0.21800328058 0.47440402512 0.87069347945 -0.15965767979 0.46519059549 
0.88268156749 -0.10427177804 0.45825827513 0.89121429388 -0.051713618898 0.45062488169 0.89801488944 -0.00206692311 0.43996020975 
0.90427087873 0.044773504153 0.42460512385 0.9106911211 0.08873065323 0.40344584906 0.91754777294 0.12906644052 0.37609565047 
0.9247249311 0.16473063709 0.34314372936 0.9317940534 0.19463609761 0.30639293653 0.93824839593 0.21781671093 0.26878584034 
0.94374794666 0.23371862467 0.23391326953 0.94806963839 0.24235148118 0.20598475752 0.95099645922 0.24437288318 0.1894403033 
0.95220319782 0.24095730249 0.18774623418 0.95103738698 0.23352129292 0.20247393492 0.94651455798 0.22345750346 0.23275939439 
0.93780993968 0.21186874541 0.27499845773 0.92507580156 0.19915647781 0.32337510528 0.90984795405 0.18459815924 0.37161837967 
0.89430173938 0.16655835558 0.41531038169 0.88000894638 0.14302150464 0.45291180544 0.86754283556 0.11120824513 0.48477020812 
0.8565352701 0.067189563353 0.51169609501 0.84508473563 0.0052979982028 0.53460613615 0.82832785537 -0.083206540939 0.55403035618 
0.79549732271 -0.20909839764 0.56873708307 0.72546864712 -0.37990514882 0.57390532316 0.59141957763 -0.58057038927 0.55960781472 
0.39285382967 -0.75833973323 0.5201795051 0.17758808404 -0.86466623565 0.46990932459 -0.0031484884531 -0.90225936477 0.43118224187 
-0.13503114896 -0.90088587574 0.41251815438 -0.22688184001 -0.88318930888 0.4104890685 -0.22688184001 -0.88318930888 0.4104890685 

FrenetNormal 3 120 double
0.40562810732 -0.91353015946 -0.030471073429 0.40562810732 -0.91353015946 -0.030471073429 0.41574186267 -0.89936416657 -0.13528783951 
0.17993302204 -0.80259520507 -0.56873987409 -0.38266680505 -0.10059208155 -0.91839389667 -0.44797215062 0.14169841762 -0.8827471386 
-0.36852208683 0.16686418945 -0.91452053766 -0.22292852193 0.14657283343 -0.96375270615 -0.029240705929 0.10739884727 -0.99378592701 
0.18635134099 0.046276461503 -0.98139271794 0.39273812501 -0.041745164702 -0.91870240361 0.56616481557 -0.14503700837 -0.8114318627 
0.69555041554 -0.23031562646 -0.68056177651 0.78792600504 -0.26436151398 -0.55613451656 0.85883688651 -0.23507059028 -0.45512747659 
0.91625668658 -0.15304833649 -0.3702025 0.95909903231 -0.043375994559 -0.27972766992 0.98327035638 0.070222766026 -0.16807191736 
0.98507959699 0.16874048288 -0.033835440409 0.96492002375 0.23681746419 0.11334388572 0.92886842958 0.26224771976 0.26159047001 
0.8835187536 0.23522364196 0.40504870114 0.82688108335 0.14606882687 0.54307602765 0.74211865155 -0.013576878749 0.6701310136 
0.60746527701 -0.22468635687 0.76190680419 0.43214956519 -0.42470218953 0.79553428808 0.25593333508 -0.56204399641 0.78651425549 
0.10795369017 -0.62869797592 0.77012002691 -0.010328252405 -0.63705505674 0.77074910437 -0.10781651259 -0.58795743343 0.80167428304 
-0.2131814905 -0.46583963617 0.85880561565 -0.37660753427 -0.21179750965 0.90183622684 -0.57624598423 0.21888023618 0.78742111215 
-0.63589717922 0.61310257199 0.46876434771 -0.56279804399 0.80351253771 0.19397413082 -0.47567801958 0.87901582831 0.032582131121 
-0.4129998996 0.90753526382 -0.076228786243 -0.37714880758 0.91044204191 -0.16986484409 -0.35330487132 0.89816813142 -0.26166710837 
-0.322663173 0.87759698497 -0.35455889322 -0.27259855759 0.85146261749 -0.44799713996 -0.19760856697 0.82117917718 -0.53536493462 
-0.094829670563 0.79197432436 -0.60314509293 0.046705247045 0.77450785804 -0.63083769523 0.26675462811 0.77400179184 -0.57425011503 
0.64176529102 0.71270386287 -0.28317929848 0.89404279358 0.30494085739 0.32817458271 0.7642329604 -0.10885818255 0.63568693421 
0.638118248 -0.33488959033 0.69329219227 0.56197371264 -0.49337941585 0.66389931339 0.51291910211 -0.63330078675 0.57952058479 
0.47266711005 -0.76627262348 0.43521496939 0.42429869966 -0.87908956437 0.21719150832 0.35070977987 -0.93391031189 -0.069384289609 
0.24672318563 -0.893834447 -0.37441641396 0.12905307528 -0.76741172723 -0.62803227996 0.021788803969 -0.6000553003 -0.79966173136 
-0.063588163699 -0.42616048289 -0.90240998901 -0.12759997725 -0.25954488976 -0.95726417253 -0.17530661477 -0.1071864694 -0.97866166349 
-0.21302202663 0.024921800471 -0.97672950198 -0.24797382721 0.13029205033 -0.95996508407 -0.29400845474 0.20319954381 -0.93395341101 
-0.40751722954 0.22820391181 -0.88422433933 -0.92922626731 -0.20418071175 0.307975293 -0.048581696332 -0.29506121648 0.95424247302 
0.039390312098 -0.21976311388 0.97475770173 0.050727042639 -0.10069169985 0.99362364541 0.035819099356 0.061052576559 0.99749164158 
0.010796649003 0.23977366351 0.97076877919 -0.008205774097 0.40075277897 0.91614948312 -0.001821495928 0.52588988845 0.8505507083 
0.054322739586 0.61683998547 0.78521173723 0.20399743749 0.67577551764 0.70831666312 0.4911740466 0.66634259757 0.56101301108 
0.81035676813 0.51489047403 0.27965998659 0.94656460266 0.32250455839 -0.00250255975 0.95549341847 0.24091616646 -0.17026957451 
0.9286177256 0.26143067577 -0.26329284357 0.88378420498 0.33782806849 -0.32372469039 0.82127036302 0.43546728324 -0.36862343393 
0.74296201566 0.54262139051 -0.39187940727 0.65153844227 0.65721660971 -0.378898385 0.54902667879 0.76929728498 -0.32672831727 
0.43951758515 0.86296876406 -0.24921718361 0.33270793984 0.92719905342 -0.17206784159 0.24199137337 0.96250245613 -0.12259362613 
0.17726911547 0.97692177943 -0.1191616447 0.14013653977 0.97626762377 -0.16511595015 0.12573101347 0.95949180036 -0.25212536026 
0.12602436464 0.92218772886 -0.36563322094 0.13429237594 0.860014774 -0.49228055646 0.14352237718 0.77458862551 -0.61596573644 
0.14830461771 0.67433203411 -0.72338236648 0.14707359406 0.56925783867 -0.80889731799 0.1434057723 0.46217298489 -0.87511765867 
0.1435932223 0.34754883281 -0.9266017458 0.1556055103 0.21141274051 -0.96493086712 0.21954886954 -0.10226203069 -0.97022717492 
0.024071663524 -0.67190283251 0.74024802511 -0.10713165209 -0.36541819744 0.92465796385 -0.16655950953 -0.27945634672 0.94560143827 
-0.22161860126 -0.24434451091 0.94402381091 -0.27157742409 -0.24831814147 0.92982998626 -0.30635919034 -0.30518413449 0.90166883641 
-0.31579600606 -0.42262540864 0.84950611918 -0.29326496694 -0.58647378868 0.7550126849 -0.2393184402 -0.76109214499 0.60288094265 
-0.18427198955 -0.88631738952 0.42483563751 -0.16689419488 -0.9473666143 0.27320839268 -0.20310671231 -0.9662346171 0.15855071155 
-0.29913449985 -0.9517499848 0.068487352318 -0.4537123933 -0.89099951667 -0.016276531076 -0.64351415699 -0.7580150604 -0.10631414751 
-0.81562612325 -0.54860834476 -0.18380128164 -0.92787906597 -0.30620917386 -0.21278247291 -0.98138075135 -0.080020028975 -0.17460989615 
-0.99060543433 0.11365820083 -0.07604397974 -0.95932900666 0.27535191659 0.062202725158 -0.95932900666 0.27535191659 0.062202725158 

FrenetBinormal 3 120 double
0.39556601069 0.14539180689 0.90685652321 0.39556601069 0.14539180689 0.90685652321 0.43262027759 0.064713128935 0.89925074721 
0.58907637019 -0.37512200427 0.71573215102 0.47568069035 -0.87362401087 -0.10251325994 0.37001276865 -0.86944905235 -0.32733606036 
0.37749835812 -0.8721344211 -0.3112499657 0.40444896648 -0.88562151984 -0.22824451168 0.42040279286 -0.90068081795 -0.10970668137 
0.40887845769 -0.91193123217 0.034638629074 0.35927673133 -0.91261881414 0.19505673635 0.27235011823 -0.89619949716 0.3502168962 
0.17162427308 -0.86654623356 0.4686605744 0.094202514507 -0.84077200663 0.53313067735 0.064547610188 -0.83174423115 0.55139381568 
0.080295151317 -0.83521779171 0.54402566952 0.11697185629 -0.8391443407 0.53118204065 0.14940315113 -0.83875678069 0.52360840452 
0.16137038608 -0.83730934554 0.52237214548 0.14505895045 -0.8407250119 0.52166977607 0.096839992315 -0.85358810405 0.51186850315 
0.013162948906 -0.87688460516 0.48052068219 -0.11024206081 -0.90484292458 0.4112249626 -0.27334209182 -0.91900986216 0.28408620891 
-0.44939305709 -0.88811837101 0.096393149736 -0.58674126742 -0.80232354413 -0.10959751656 -0.66167083565 -0.69500848239 -0.28134483227 
-0.68921027487 -0.60560569978 -0.39778252023 -0.69376044057 -0.55053493877 -0.46433579691 -0.69238286676 -0.53425725243 -0.4849486097 
-0.69533375873 -0.54515682225 -0.46831079757 -0.7076537877 -0.56247012834 -0.42761369422 -0.73308639973 -0.56433861806 -0.37961329626 
-0.77063726007 -0.53736800041 -0.34256947549 -0.80993425708 -0.48917878803 -0.32359019229 -0.83857392088 -0.44198730506 -0.31849803983 
-0.85209404226 -0.41460122893 -0.31943945298 -0.85282185291 -0.41292223259 -0.31967188965 -0.84766685916 -0.4256843726 -0.3166286639 
-0.84352341296 -0.43654452608 -0.31288516829 -0.84399905921 -0.43516761045 -0.31351991781 -0.84937153939 -0.4160882896 -0.32471298609 
-0.85711684078 -0.37311031411 -0.35516111097 -0.85937635095 -0.29077400534 -0.42062187918 -0.82487654965 -0.12478506242 -0.55136862989 
-0.60092106377 0.23791343612 -0.76307999058 0.046072177497 0.66609009752 -0.74444700043 0.50059425352 0.72157954759 -0.47825552777 
0.68112739625 0.66537581711 -0.30551676236 0.77049187083 0.60419922532 -0.20318851617 0.82719802811 0.54508968756 -0.13645752013 
0.8698875018 0.48472727195 -0.091297349563 0.90486311483 0.42076350393 -0.064659238917 0.93313138652 0.35475754932 -0.058420002509 
0.95308503211 0.29372687111 -0.073167251989 0.96382298581 0.24601969431 -0.10256491625 0.96710769848 0.21540684058 -0.13528707466 
0.96637801488 0.19944402058 -0.16228251605 0.96444398324 0.19275041228 -0.18081781372 0.96248149133 0.19046424848 -0.19326859264 
0.96022287732 0.19005815718 -0.20457253668 0.95628219801 0.19149198457 -0.22103207373 0.94652323202 0.1977279897 -0.25494590277 
0.90585499242 0.22355803428 -0.35978957464 -0.35455543821 0.25795778461 -0.89874814191 -0.99392540734 -0.080175789434 -0.075393152487 
-0.99424900077 -0.10584298656 0.016315227984 -0.99315157512 -0.10993058158 0.039562811689 -0.99302574027 -0.11001264656 0.042392177957 
-0.99312141157 -0.11062415741 0.038368706937 -0.99312085484 -0.11028501328 0.039346963381 -0.9932597738 -0.099526548365 0.059409493509 
-0.99151625631 -0.059675282981 0.11547456027 -0.97070827093 0.045820636626 0.23585148294 -0.85884127984 0.26296189614 0.43959378661 
-0.55878547633 0.53549499885 0.63324868547 -0.23323117896 0.68986153188 0.68534245746 -0.066682057101 0.73859270965 0.6708459678 
-0.023662398242 0.74989410721 0.66113456942 -0.040413301537 0.74440446716 0.66650487945 -0.079206087334 0.72686226496 0.68220058891 
-0.13275216881 0.69330537483 0.7083110326 -0.203161937 0.63238006651 0.74754309497 -0.28173444992 0.5383769742 0.79421403499 
-0.35244947877 0.42088886617 0.83584204683 -0.40235560908 0.3045923259 0.86332698258 -0.42817407682 0.21931358197 0.8766803937 
-0.43525729301 0.18641682642 0.88079501344 -0.43139173914 0.21030270658 0.87731062857 -0.42161709001 0.28172897058 0.86189779936 
-0.40793631536 0.38414206495 0.82826495552 -0.39064976605 0.50249523349 0.77129196845 -0.37081991805 0.61915613149 0.69219814593 
-0.3505560471 0.71981950861 0.59914132963 -0.33185719817 0.79878802108 0.50180523851 -0.31484080421 0.85962318051 0.40239688806 
-0.29786036946 0.90806685508 0.2944380869 -0.27740022697 0.94687402157 0.16272277455 -0.21772466197 0.96427401243 -0.15090261935 
0.30451539384 -0.70034717251 -0.64558826884 0.28991498355 -0.90107566094 -0.32250884573 0.27634782668 -0.93379381794 -0.22729052831 
0.2672035041 -0.94625968672 -0.18219465603 0.26548157016 -0.94798459796 -0.17562670053 0.27985844101 -0.93423025195 -0.22111781777 
0.31701306204 -0.8908681598 -0.32535617459 0.37360395269 -0.79724108299 -0.47415898402 0.43600012918 -0.63903949256 -0.63366585383 
0.48206966814 -0.458177965 -0.74678095011 0.50791546276 -0.32010690297 -0.79972085965 0.5221308528 -0.24385925503 -0.81725885513 
0.52697491454 -0.2246103883 -0.8196631094 0.51753290351 -0.24857984472 -0.81875988823 0.48591399748 -0.29723928292 -0.82191021149 
0.42475863215 -0.35206495575 -0.83404458595 0.32787636594 -0.39823139351 -0.85668479961 0.19204662947 -0.42370370974 -0.88520803118 
0.021620876045 -0.41891103145 -0.90776984167 -0.16796573359 -0.37968140159 -0.90974147186 -0.16796573359 -0.37968140159 -0.90974147186 

plain_curvature_peaks 1 120 unsigned_char
0 0 0 0 0 0 0 0 0 
0 0 0 0 0 0 0 1 0 
0 0 0 0 0 0 0 0 0 
0 0 0 0 0 0 0 0 0 
0 1 0 0 0 0 0 0 0 
0 0 0 0 0 0 0 0 0 
0 0 0 0 0 0 0 0 0 
0 0 0 0 0 0 0 0 0 
0 0 1 0 0 0 0 0 0 
0 0 0 0 0 0 0 0 0 
0 0 0 0 0 0 0 0 0 
0 0 0 0 0 0 0 0 0 
0 1 0 0 0 0 0 0 0 
0 0 0 
weighted_curvature_peaks 1 120 unsigned_char
0 0 0 0 0 0 0 0 0 
0 0 0 0 0 0 0 1 0 
0 0 0 0 0 0 0 0 0 
0 0 0 0 0 0 0 0 0 
0 0 0 0 1 0 0 0 0 
0 0 0 0 0 0 0 0 0 
0 0 0 0 0 0 0 0 0 
0 0 0 0 0 0 0 0 0 
0 0 0 0 0 0 0 1 0 
0 0 0 0 0 0 0 0 0 
0 0 0 0 0 0 0 0 0 
0 0 0 0 0 0 0 0 0 
0 0 0 0 0 1 0 0 0 
0 0 0 
plain_torsion_tp 1 120 unsigned_char
0 0 0 0 0 0 0 0 0 
0 0 0 0 0 0 0 1 0 
0 0 0 0 0 0 0 0 0 
0 0 0 0 0 0 0 0 0 
0 1 0 0 0 0 0 0 0 
0 0 0 0 0 0 0 0 0 
0 0 0 0 0 0 0 0 0 
0 0 0 0 0 0 0 0 0 
0 0 1 0 0 0 0 0 0 
0 0 0 0 0 0 0 0 0 
0 0 0 0 0 0 0 0 0 
0 0 0 0 0 0 0 0 0 
0 1 0 0 0 0 0 0 0 
0 0 0 
plain_torsion_tn 1 120 unsigned_char
0 0 0 0 0 0 2 0 0 
0 0 0 0 0 0 0 0 0 
0 0 0 0 0 0 2 0 0 
0 0 0 0 0 0 0 0 0 
0 0 0 0 0 0 0 0 0 
0 0 0 0 0 0 0 0 0 
2 0 0 0 0 0 0 0 0 
0 0 0 0 0 0 0 0 0 
0 0 0 0 0 0 0 0 0 
0 0 0 0 0 0 0 0 0 
0 2 0 0 0 0 0 0 0 
0 0 0 0 0 0 0 0 0 
0 0 0 0 0 0 0 0 0 
0 0 0 
plain_torsion_tz 1 120 unsigned_char
0 0 0 0 0 0 0 3 0 
0 0 0 0 0 0 0 0 0 
0 0 0 0 0 3 0 0 0 
3 0 0 0 0 0 0 0 0 
0 0 0 0 0 0 0 0 0 
0 0 0 0 0 0 0 0 0 
0 0 0 0 0 0 3 0 0 
0 0 0 0 0 0 0 0 0 
0 0 0 0 0 0 0 0 0 
0 3 0 0 0 0 0 0 0 
0 0 0 0 0 0 3 0 0 
0 0 0 0 0 0 0 0 0 
0 0 0 0 0 0 0 0 0 
0 0 0 
weighted_torsion_tp 1 120 unsigned_char
0 0 0 0 0 0 0 0 0 
0 0 0 0 0 0 0 1 0 
0 0 0 0 0 0 0 0 0 
0 0 0 0 0 0 0 0 0 
0 0 0 0 1 0 0 0 0 
0 0 0 0 0 0 0 0 0 
0 0 0 0 0 0 0 0 0 
0 0 0 0 0 0 0 0 0 
0 0 0 0 0 0 0 1 0 
0 0 0 0 0 0 0 0 0 
0 0 0 0 0 0 0 0 0 
0 0 0 0 0 0 0 0 0 
0 0 0 0 0 1 0 0 0 
0 0 0 
weighted_torsion_tn 1 120 unsigned_char
0 0 0 0 0 0 0 2 0 
0 0 0 0 0 0 0 0 0 
0 0 0 0 2 0 0 0 0 
0 0 0 0 0 0 0 0 0 
0 0 0 0 0 0 0 0 0 
0 0 0 0 0 0 0 0 0 
0 0 0 0 0 0 0 2 0 
0 0 0 0 0 0 0 0 0 
0 0 0 0 0 0 0 0 0 
0 0 0 0 0 0 0 0 0 
0 0 0 0 0 2 0 0 0 
0 0 0 0 0 0 0 0 0 
0 0 0 0 0 0 0 0 0 
0 0 0 
weighted_torsion_tz 1 120 unsigned_char
0 0 0 0 0 0 0 3 0 
0 0 0 0 0 0 0 0 3 
0 0 0 0 0 0 0 0 0 
0 0 3 0 0 0 0 0 0 
0 0 0 0 0 0 0 0 0 
0 0 0 0 0 0 0 0 0 
0 0 0 0 0 0 0 0 0 
0 0 0 3 0 0 0 0 0 
0 0 0 0 0 0 0 0 0 
0 0 0 0 0 0 0 3 0 
0 0 0 0 0 0 0 0 0 
0 0 3 0 0 0 0 0 0 
0 0 0 0 0 0 0 0 0 
0 0 0 
plain_torsion_tp_raw 1 120 unsigned_char
0 0 0 0 0 0 0 0 0 
0 0 0 0 0 0 0 0 0 
0 0 0 1 0 0 0 1 0 
0 0 0 0 0 0 0 0 0 
0 0 0 0 0 0 0 0 0 
0 0 0 0 0 0 0 0 0 
0 0 0 0 1 0 0 0 0 
0 0 0 0 0 0 0 0 0 
0 0 0 0 0 1 0 0 0 
0 0 0 0 0 0 0 0 0 
0 0 0 0 0 0 0 0 0 
0 0 1 0 0 0 0 0 0 
0 0 0 1 0 0 0 0 0 
0 0 0 
plain_torsion_tn_raw 1 120 unsigned_char
0 0 0 0 0 0 0 0 0 
0 0 0 2 0 0 0 0 0 
0 0 0 0 0 2 0 0 0 
0 0 0 0 0 0 0 0 0 
0 0 0 0 0 0 0 0 0 
0 0 0 0 2 0 0 0 0 
0 0 0 0 0 0 0 0 0 
0 0 2 0 0 0 0 0 0 
0 0 0 0 0 0 0 0 0 
0 0 0 0 0 0 0 0 0 
0 0 2 0 0 0 0 0 0 
0 0 0 0 0 0 0 2 0 
0 0 0 0 0 0 0 0 0 
0 0 0 
plain_torsion_tz_raw 1 120 unsigned_char
0 0 0 0 0 0 3 0 0 
0 0 0 0 0 0 0 0 3 
0 0 0 0 3 0 3 0 0 
0 0 0 0 0 0 0 0 0 
0 0 0 0 0 0 0 0 0 
0 0 0 0 0 0 0 0 0 
0 0 0 0 0 0 0 0 0 
0 0 0 0 0 0 0 0 0 
0 0 0 0 0 0 0 0 0 
0 0 0 0 0 0 0 0 0 
0 0 0 0 0 0 0 0 0 
0 0 0 0 0 0 0 0 0 
0 0 0 0 0 0 0 0 0 
0 0 0 
weighted_torsion_tp_raw 1 120 unsigned_char
0 0 0 0 0 0 0 0 0 
0 0 0 0 0 0 0 1 0 
0 0 0 0 0 0 1 0 0 
0 0 0 0 0 0 0 0 0 
0 0 0 0 0 0 0 0 0 
0 0 0 0 0 0 0 0 0 
0 0 0 0 0 0 0 0 0 
0 1 0 0 0 0 0 0 0 
0 0 0 0 0 0 0 0 0 
0 1 0 0 0 0 0 0 0 
0 0 0 0 0 0 0 0 0 
0 0 0 0 0 0 1 0 0 
0 0 0 0 0 0 1 0 0 
0 0 0 
weighted_torsion_tn_raw 1 120 unsigned_char
0 0 0 0 0 0 0 0 0 
0 0 0 0 0 2 0 0 0 
2 0 0 0 0 0 0 0 0 
0 0 0 0 0 0 0 0 0 
0 0 0 0 0 0 0 0 0 
0 0 0 0 0 0 0 0 0 
2 0 0 0 0 0 0 0 0 
0 0 0 0 0 0 0 2 0 
0 0 0 0 0 0 0 0 0 
0 0 0 0 0 0 0 0 0 
0 0 0 0 0 0 0 2 0 
0 0 0 0 0 0 0 0 0 
0 0 2 0 0 0 0 0 0 
0 0 0 
weighted_torsion_tz_raw 1 120 unsigned_char
0 0 0 0 0 0 0 3 0 
0 0 0 0 0 0 0 3 3 
0 0 0 3 0 0 0 0 0 
0 0 0 0 0 0 0 0 0 
0 0 0 0 0 0 0 0 0 
0 0 0 0 0 0 0 0 0 
0 0 0 0 0 0 0 0 0 
0 0 0 0 0 0 0 0 0 
0 0 0 0 0 0 0 0 0 
0 0 0 0 0 0 0 0 0 
0 0 0 0 0 0 0 0 0 
0 0 0 0 0 0 0 0 0 
0 0 0 0 0 0 0 0 0 
0 0 0 
