# vtk DataFile Version 5.1
vtk output
ASCII
DATASET POLYDATA
POINTS 120 float
-3.54861 17.12 -4.77943 -4.07314 16.4086 -5.02043 -4.62344 15.7548 -5.11341 
-5.18412 15.1568 -5.10655 -5.73956 14.6119 -5.04772 -6.27423 14.1162 -4.9835 
-6.77321 13.6631 -4.95675 -7.22345 13.2427 -5.00321 -7.61473 12.8413 -5.14801 
-7.93958 12.4431 -5.40359 -8.19201 12.0335 -5.76984 -8.36598 11.6022 -6.23572 
-8.45457 11.1469 -6.78203 -8.45061 10.6731 -7.38494 -8.34797 10.1919 -8.0191 
-8.14306 9.71499 -8.66033 -7.83589 9.25133 -9.28778 -7.43094 8.80385 -9.88594 
-6.93769 8.36942 -10.4459 -6.37087 7.94041 -10.9653 -5.75028 7.50752 -11.4469 
-5.0995 7.06253 -11.8946 -4.44423 6.60072 -12.3087 -3.80994 6.12216 -12.6818 
-3.21982 5.632 -12.9965 -2.69316 5.14044 -13.2271 -2.24483 4.66126 -13.3438 
-1.88563 4.21075 -13.3206 -1.6235 3.80524 -13.1422 -1.46473 3.45814 -12.8086 
-1.41448 3.17731 -12.336 -1.47627 2.96334 -11.7534 -1.65115 2.81051 -11.0971 
-1.93641 2.71129 -10.405 -2.32495 2.66092 -9.71188 -2.8046 2.66103 -9.04548 
-3.35811 2.72059 -8.42419 -3.96366 2.85349 -7.856 -4.5964 3.07469 -7.33901 
-5.23037 3.39595 -6.86298 -5.84069 3.82179 -6.41182 -6.40548 4.34673 -5.96657 
-6.90711 4.9537 -5.50845 -7.33271 5.61333 -5.0219 -7.67428 6.28582 -4.49709 
-7.92793 6.9238 -3.9316 -8.09275 7.47767 -3.33076 -8.16945 7.90158 -2.70623 
-8.15932 8.16054 -2.073 -8.06359 8.23615 -1.44544 -7.88356 8.13 -0.83362 
-7.62119 7.86342 -0.241002 -7.28059 7.47372 0.335286 -6.86966 7.00712 0.901212 
-6.40167 6.51056 1.4601 -5.89509 6.02391 2.00618 -5.37198 5.57439 2.51984 
-4.8556 5.17417 2.96718 -4.36781 4.82124 3.30477 -3.92668 4.50222 3.48859 
-3.54468 4.19748 3.48457 -3.22774 3.88579 3.27685 -2.97554 3.54841 2.8717 
-2.78279 3.17052 2.29693 -2.64153 2.74184 1.59648 -2.54331 2.25683 0.822899 
-2.48077 1.71362 0.0306153 -2.44834 1.113 -0.728842 -2.44213 0.458218 -1.40982 
-2.45929 -0.245306 -1.97418 -2.49685 -0.989125 -2.3926 -2.55035 -1.76109 -2.64594 
-2.61266 -2.54468 -2.72597 -2.67324 -3.32028 -2.63549 -2.71826 -4.06731 -2.38725 
-2.73165 -4.76782 -2.00197 -2.69703 -5.40999 -1.50622 -2.59996 -5.99096 -0.92987 
-2.43015 -6.51659 -0.303547 -2.18295 -6.99987 0.344354 -1.85974 -7.45618 0.990345 
-1.46698 -7.89863 1.6175 -1.0139 -8.33407 2.2156 -0.509624 -8.7606 2.77997 
0.0391727 -9.16771 3.30976 0.628938 -9.53889 3.80624 1.25841 -9.85534 4.27199 
1.92643 -10.1007 4.71073 2.62982 -10.2639 5.12743 3.36216 -10.3424 5.52841 
4.11412 -10.341 5.92076 4.87484 -10.2715 6.31179 5.63392 -10.1496 6.7079 
6.38346 -9.99231 7.11424 7.11923 -9.81459 7.53365 7.84118 -9.62731 7.96714 
8.55289 -9.43702 8.41398 9.26035 -9.24678 8.87167 9.97024 -9.05991 9.33671 
10.6883 -8.8836 9.80418 11.4176 -8.73167 10.2685 12.1561 -8.62503 10.7232 
12.8965 -8.58886 11.1623 13.6254 -8.64851 11.5803 14.325 -8.82456 11.974 
14.9752 -9.12824 12.3429 15.5569 -9.55937 12.6904 16.0548 -10.106 13.0236 
16.4597 -10.7461 13.3536 16.7699 -11.4516 13.6931 16.9898 -12.1931 14.0547 
17.1287 -12.9443 14.4475 17.1983 -13.6849 14.8754 17.2087 -14.4019 15.3362 
17.1654 -15.0891 15.8215 17.0684 -15.7452 16.3187 16.9114 -16.372 16.8124 
16.6848 -16.9728 17.2862 16.3764 -17.5517 17.7228 15.9737 -18.113 18.1054 

LINES 2 120
OFFSETS vtktypeint64
0 120 
CONNECTIVITY vtktypeint64
0 1 2 3 4 5 6 7 8 
9 10 11 12 13 14 15 16 17 
18 19 20 21 22 23 24 25 26 
27 28 29 30 31 32 33 34 35 
36 37 38 39 40 41 42 43 44 
45 46 47 48 49 50 51 52 53 
54 55 56 57 58 59 60 61 62 
63 64 65 66 67 68 69 70 71 
72 73 74 75 76 77 78 79 80 
81 82 83 84 85 86 87 88 89 
90 91 92 93 94 95 96 97 98 
99 100 101 102 103 104 105 106 107 
108 109 110 111 112 113 114 115 116 
117 118 119 
CELL_DATA 1
FIELD FieldData 2
Length 1 1 double
95.150878833 
Tortuosity 1 1 double
1.0538931241 
POINT_DATA 120
FIELD FieldData 19
Curvature 1 120 double
0 0.19260326893 0.15341664218 0.098924094214 0.040646543857 0.070114570594 0.17969943813 0.30872858353 0.39351255997 
0.3764902716 0.29609708594 0.22264973843 0.17896971236 0.15877144482 0.1518228318 0.14968558405 0.14472359192 0.13143481305 
0.10865604616 0.080822980531 0.056593120302 0.045986003143 0.053654605761 0.076812246254 0.1217973672 0.21029568619 0.37440256832 
0.61538210327 0.77646463681 0.67297735823 0.45688630171 0.30007913906 0.216932113 0.17809971327 0.16069837341 0.15266877952 
0.14913429562 0.1487719593 0.1494012534 0.14707892854 0.13904865261 0.12648665424 0.11432634414 0.1099871107 0.12090259971 
0.15497004844 0.22281925636 0.33385516994 0.46124620833 0.49807329558 0.38798638381 0.23518983054 0.12486703021 0.067460114882 
0.052445657242 0.055716680599 0.069283379364 0.12661255352 0.29522866654 0.64911127199 0.93695339065 0.67048474004 0.31452188447 
0.1393695513 0.073241118163 0.062458795488 0.077742026374 0.10506108049 0.1428556783 0.18949935416 0.23711292836 0.27081811158 
0.27890686284 0.26346411154 0.23633050803 0.20667309734 0.17770013194 0.15109830965 0.12824338885 0.1112286925 0.099219472028 
0.089851131739 0.082299355015 0.079280208113 0.085570941434 0.10182308122 0.12048619258 0.13240604431 0.13027034108 0.11582924292 
0.093525454721 0.070373739383 0.05074040846 0.03710823686 0.029152319754 0.02294783876 0.015387353978 0.0088835237588 0.016170671429 
0.034937799339 0.061386094864 0.094687970353 0.13394538673 0.17528697402 0.21004974121 0.22752120149 0.22159533419 0.19666668291 
0.16529189413 0.13819100273 0.11903209264 0.10672639734 0.097896285212 0.091063877744 0.088674911788 0.096369516829 0.11664613223 
0.14653617873 0.17786033528 0 
Torsion 1 120 double
0 0 0.090470764324 0.26829909684 2.0188991493 0.99656707012 0.27071722855 0.17210110623 0.16035568438 
0.18079666036 0.20663942064 0.1983186116 0.14787673377 0.095751254323 0.071818805906 0.07261873021 0.08581639826 0.10755495506 
0.14771970424 0.23883939511 0.42907690121 0.53203214786 0.22905342502 -0.056874372541 -0.17105826511 -0.16896658216 -0.11564118427 
-0.05205111013 0.0018705325651 0.062139641289 0.1445603304 0.20865704734 0.19077818025 0.091531322913 -0.041692795285 -0.16345811338 
-0.25296384754 -0.29961517775 -0.30687677186 -0.29727294379 -0.29491710996 -0.31467914623 -0.35587640348 -0.38826217488 -0.36193453035 
-0.27318410151 -0.16724310134 -0.076789725715 -0.013374633764 0.032494781815 0.087930881416 0.18723801486 0.38755232667 0.69804811193 
0.49072222348 -0.11530704447 -0.64854901745 -0.62139355267 -0.34194772365 -0.17636564427 -0.12052079773 -0.14886430519 -0.25915465101 
-0.47692237849 -0.76091116633 -0.59378967568 -0.26552351857 -0.11757381537 -0.060242866522 -0.040820367938 -0.040449498563 -0.053162786772 
-0.077785987456 -0.11344722441 -0.15631060739 -0.20237552162 -0.25134719727 -0.30165066312 -0.33992916986 -0.3307467043 -0.25737982294 
-0.12643563415 0.048014304584 0.21416239092 0.26944675497 0.21392071426 0.15232427448 0.11948181895 0.1144540925 0.13121437152 
0.17175793419 0.24405479258 0.34781970983 0.42534611017 0.3929021994 0.30726141658 0.42414660473 1.5418069906 0.42687146316 
-0.012441454085 -0.08134392124 -0.088732023872 -0.088164405558 -0.087497400965 -0.094244361423 -0.10993011586 -0.13735718876 -0.18039634013 
-0.23197194268 -0.27074264971 -0.26627965401 -0.20149554655 -0.08328889083 0.074898536849 0.23513329719 0.30039700177 0.25593080162 
0.18106826254 0 0 
FrenetTangent 3 120 double
-0.60748672228 -0.77157481681 -0.18876489162 -0.60748672228 -0.77157481681 -0.18876489162 -0.66290661174 -0.74693676282 -0.05138381514 
-0.69807877346 -0.71484116735 0.041086877615 -0.72095687563 -0.68818543483 0.081375615279 -0.73517120648 -0.67478674338 0.064700449113 
-0.73575137892 -0.67707948526 -0.015273475579 -0.70612754463 -0.68965825734 -0.16048482416 -0.62510629222 -0.69792463656 -0.34949009301 
-0.49276115298 -0.68952599391 -0.53079219083 -0.33906347323 -0.66872798091 -0.66169392371 -0.19152111144 -0.64669834791 -0.73830949519 
-0.057181596158 -0.62763938933 -0.7764013537 0.068053456884 -0.60966777304 -0.78973029163 0.18931347038 -0.5897802542 -0.78506029175 
0.30844216024 -0.56650359233 -0.76415778061 0.42260903713 -0.54071888903 -0.72734083123 0.52512094603 -0.51559708482 -0.67705807592 
0.60856484703 -0.49568061613 -0.61963663042 0.66850667407 -0.48524695069 -0.56359047505 0.70515485751 -0.48691071207 -0.51543630585 
0.72216881787 -0.50140685388 -0.47651166343 0.72464626733 -0.52842991313 -0.44232297494 0.71767778281 -0.5678027275 -0.40316083975 
0.70513691522 -0.61985617141 -0.34432580147 0.68709332514 -0.68410108228 -0.24476207178 0.65387845161 -0.75279812088 -0.075749321508 
0.57702120969 -0.79497176044 0.1872603099 0.41968815118 -0.75043490739 0.51059700893 0.20038559818 -0.60200949823 0.77293607503 
-0.0099048235846 -0.42453428702 0.90535768269 -0.18017082441 -0.27924077393 0.94316650927 -0.31802711054 -0.17420867678 0.93193888957 
-0.43537736839 -0.096661190959 0.89504366444 -0.53795724484 -0.031143376148 0.8423966363 -0.62539506435 0.036124904538 0.77947161896 
-0.69324895775 0.1151109336 0.71144596108 -0.73526317525 0.21025300033 0.6443459777 -0.7457810149 0.31937769426 0.58464396535 
-0.72248649369 0.43379360159 0.53836453974 -0.66866849494 0.54101693536 0.51008148322 -0.59295248734 0.62937137215 0.50229376233 
-0.50611317913 0.69135503258 0.51563326972 -0.4169219004 0.7239379732 0.54962709169 -0.32964620757 0.72576170094 0.60382392407 
-0.24339653351 0.69322624292 0.67837711017 -0.15226554304 0.61644303861 0.77253684996 -0.046465817866 0.47662425667 0.87787826361 
0.080888374914 0.25564711064 0.96338031204 0.21712955467 -0.024052586078 0.97584641701 0.33109815276 -0.27896102475 0.90141819369 
0.41020902713 -0.44647736083 0.79522733877 0.46584089523 -0.53077524123 0.70800416922 0.51039717904 -0.55931636853 0.65319210001 
0.55020516043 -0.55508475543 0.62382304841 0.58866105018 -0.53519877373 0.60583862588 0.62957535744 -0.51465298387 0.58203709116 
0.67829321891 -0.50872909375 0.53020092263 0.73754554369 -0.53351472264 0.41399107684 0.78519511062 -0.59502262612 0.17151301016 
0.73135070928 -0.64501191464 -0.22155308623 0.53759509423 -0.6130825954 -0.57889657615 0.34432708461 -0.5535191354 -0.75832409005 
0.21612880377 -0.5219138622 -0.82516317212 0.13679307062 -0.52189893313 -0.84196743371 0.085501262782 -0.5468761762 -0.83283610751 
0.049203697065 -0.5926292454 -0.8039711274 0.020218869634 -0.65689489828 -0.75371101221 -0.0059429325562 -0.73708214805 -0.67577702578 
-0.031260724511 -0.82689694029 -0.56148394211 -0.054837619626 -0.9128649846 -0.40456193021 -0.07260549284 -0.97521697114 -0.20899832923 
-0.07857380019 -0.99688591158 0.0066811090949 -0.067544657786 -0.97390828873 0.21665725086 -0.03693981985 -0.91548156245 0.40066065259 
0.013219070141 -0.83600375675 0.5485644674 0.08069974137 -0.74955739103 0.65700172701 0.16116087108 -0.66825579989 0.72626535064 
0.24852980744 -0.60128273642 0.75940240038 0.33598412424 -0.55343000948 0.76212196719 0.41746976599 -0.52405534522 0.74235098816 
0.48937163075 -0.50792212144 0.70889387468 0.55173181265 -0.49675984352 0.66994153833 0.6078838388 -0.48120929065 0.63159706864 
0.66230397461 -0.45272976347 0.59698342228 0.71778576863 -0.40482083755 0.56648360951 0.77303220462 -0.33470527059 0.53888179823 
0.82259175237 -0.24508623091 0.51310383778 0.85979914099 -0.14479022914 0.48967461308 0.88100775136 -0.045755454987 0.47088404133 
0.88721751498 0.041618622188 0.45947031612 0.88246862296 0.11114657535 0.45705094715 0.87132175515 0.16124601535 0.46346318251 
0.85750959595 0.19341955348 0.4767244164 0.84363962662 0.21123816648 0.49360978254 0.83148461683 0.21898059817 0.51056912323 
0.82251459081 0.22054330675 0.52424268975 0.81796226872 0.21763182519 0.53251677496 0.81892384229 0.2082777025 0.53477484904 
0.8259393228 0.18731369705 0.53173096012 0.83826339928 0.14767738907 0.52488652316 0.8529377964 0.082364396318 0.51547378372 
0.86371568676 -0.013800978676 0.50379037847 0.86062691741 -0.14200280363 0.4890363103 0.8317296522 -0.29561038394 0.46993647077 
0.76832507588 -0.4583115758 0.44679646066 0.67147424175 -0.60815952371 0.42339619318 0.55323414978 -0.72717916846 0.40637720468 
0.42967245592 -0.80844666387 0.40223820343 0.31306530245 -0.85469356787 0.41411232949 0.20977211096 -0.87265354261 0.44098917905 
0.12158547046 -0.8696523245 0.47845773885 0.046761390103 -0.85287474435 0.52001734859 -0.019430536277 -0.8291689352 0.55866030032 
-0.084010616062 -0.80428458669 0.58827588766 -0.15480273474 -0.78186592734 0.6039220024 -0.23834105984 -0.76276273654 0.60115434535 
-0.337919292 -0.74510770224 0.57500005579 -0.45181292586 -0.72451737202 0.52051864296 -0.45181292586 -0.72451737202 0.52051864296 

FrenetNormal 3 120 double
-0.40010423017 0.091933162071 0.91184697111 -0.40010423017 0.091933162071 0.91184697111 -0.34183834063 0.24089310668 0.90835954337 
-0.35389440624 0.39434140376 0.8480882068 -0.60808693284 0.68457647975 0.40197677233 -0.18867125366 0.11200851761 -0.97563171844 
0.092963583913 -0.078629239787 -0.99255993004 0.28709747852 -0.071672785825 -0.95521623185 0.48972883486 -0.0020371865968 -0.87187242081 
0.6794303783 0.07622520111 -0.72976988137 0.82745558446 0.12266327952 -0.54796986743 0.92487175128 0.1328795522 -0.356307828 
0.97459957169 0.13357437574 -0.17975973133 0.9885685643 0.1479509571 -0.029029432714 0.97895544629 0.17541302857 0.104290477 
0.95098532568 0.20234033906 0.23384887754 0.90544659141 0.21682956033 0.36489918041 0.84346856385 0.20951827113 0.4946340828 
0.76716844748 0.168025988 0.61904752689 0.67026727503 0.064754106325 0.73928931126 0.50791743428 -0.16035473293 0.84634876947 
0.20267366509 -0.5052686704 0.838824747 -0.076036962748 -0.69925846417 0.71081360467 -0.16597862783 -0.70173059763 0.69283855511 
-0.15860658023 -0.61117856324 0.77543840281 -0.15536459603 -0.46741756683 0.8702773469 -0.2111484664 -0.27770496297 0.9371746255 
-0.34234623372 -0.027259089699 0.93917836341 -0.51233312121 0.26849956884 0.81573448771 -0.64412761111 0.51350011913 0.56693672332 
-0.72014545965 0.63118416666 0.28809211147 -0.7746088163 0.63124205601 0.038918484564 -0.80809708644 0.56387654444 -0.17035944797 
-0.80086562637 0.49567591973 -0.33603516349 -0.74276423733 0.4900717476 -0.45621373275 -0.62990942105 0.56619449424 -0.53163701524 
-0.45459659859 0.69616268487 -0.55560727924 -0.21889971548 0.82606022091 -0.5193336365 0.050359883676 0.90210814251 -0.42856129238 
0.31550547384 0.89973192132 -0.30156055068 0.54971761074 0.82162196703 -0.15082404233 0.7372906556 0.67513400846 0.024424573352 
0.85892633944 0.4581537107 0.22878094498 0.88152264918 0.17464118321 0.43865507647 0.79381766715 -0.1331447588 0.5934020429 
0.65750770315 -0.39625164736 0.64083402864 0.54819294207 -0.59771745569 0.58499430888 0.48777658791 -0.75610351527 0.43632725618 
0.45254441817 -0.87059935613 0.1930293001 0.41184190476 -0.90410636023 -0.11392073946 0.37142648833 -0.83964868087 -0.39627320939 
0.37762350803 -0.71055276038 -0.59372995622 0.48661862029 -0.51460349881 -0.70596427488 0.71990972089 -0.13754080273 -0.6803032569 
0.83472468036 0.34543040284 -0.42885025918 0.79931918945 0.49725767429 -0.33737759075 0.76833954669 0.30126708371 -0.56470566251 
0.58438006592 -0.063941152939 -0.80895702452 0.33604220334 -0.24179567459 -0.91028044543 0.052447528698 -0.21207364895 -0.975845287 
-0.31101656671 -0.026321854376 -0.95003992296 -0.62186856042 0.17537439766 -0.76323214962 -0.80330676751 0.24436862683 -0.54312264867 
-0.93345403099 0.13734279574 -0.33136162797 -0.97671615851 -0.21286251399 -0.026741275951 -0.7155420147 -0.61537628286 0.33062313243 
-0.41999933549 -0.74259507511 0.52168296179 -0.26829503958 -0.7297793495 0.62884010112 -0.19489868602 -0.66197537921 0.72374242621 
-0.15095490293 -0.55140886283 0.82046382204 -0.11112457132 -0.39707496686 0.91103391833 -0.061373797542 -0.20478558975 0.97688081116 
0.0069207027347 0.0061562075466 0.99995710157 0.098911359537 0.20954697817 0.97278291869 0.21690560332 0.38403060478 0.89748117186 
0.35903222416 0.5159955671 0.77771745303 0.5196291008 0.59412855768 0.61400069589 0.68511835726 0.60543433363 0.40504580508 
0.82948889778 0.53696129829 0.15369037903 0.90993839722 0.3996268955 -0.1109525018 0.90867263977 0.24592290864 -0.33739584576 
0.85978658355 0.14502514976 -0.48962714047 0.81566114273 0.15376869081 -0.5577204407 0.790610391 0.29311550988 -0.53760441545 
0.74243042683 0.50371073905 -0.44167018541 0.64877996718 0.68418482695 -0.33313011985 0.53229375118 0.80434462096 -0.2639944946 
0.40518046843 0.88573580307 -0.22649696502 0.27224810696 0.94127477645 -0.19970669363 0.13612765068 0.97773730987 -0.15968411192 
-0.0015871893374 0.99619219822 -0.08716986308 -0.14465767897 0.9887181998 0.038864859548 -0.29983057525 0.92260401035 0.24270036307 
-0.44465750692 0.74471046843 0.49768064033 -0.53090279994 0.46534067881 0.70823743876 -0.54960420638 0.19016579123 0.8134938157 
-0.52785104386 -0.047183097797 0.84802537154 -0.26978651052 -0.67245039062 0.68922108999 0.2802647457 -0.95829033478 -0.055958078817 
0.3241806611 -0.92945410038 -0.17613056025 0.26740439688 -0.95025852213 -0.15969855869 0.17365698661 -0.97600128942 -0.13139533497 
0.052760216509 -0.99165617803 -0.11761965876 -0.096375881584 -0.98839747429 -0.11739728393 -0.26677910485 -0.95513205697 -0.12865326643 
-0.44856573017 -0.8835087288 -0.13491149633 -0.62255452735 -0.77287767876 -0.12282489224 -0.77383810198 -0.62922513057 -0.072459140087 
-0.88832699627 -0.45837938415 0.027631284511 -0.94891633631 -0.26343260641 0.17366936563 -0.94147301218 -0.058560241078 0.33196274716 
-0.88246842251 0.12595678531 0.45319352544 -0.82517847501 0.26039500394 0.501273305 -0.82344464063 0.33018738476 0.46142736673 
-0.88900264619 0.32717797152 0.32035740979 -0.96051787015 0.26214960494 0.093182647239 -0.97116702886 0.19057057472 -0.143239164 
-0.92670500723 0.15669241962 -0.3415630472 -0.84949342687 0.17121759865 -0.49904453872 -0.84949342687 0.17121759865 -0.49904453872 

FrenetBinormal 3 120 double
-0.68620440632 0.62946055934 -0.36455852339 -0.68620440632 0.62946055934 -0.36455852339 -0.66610912994 0.61972250524 -0.4150212567 
-0.62245062076 0.57749195903 -0.52825965394 -0.3323423921 0.24032446955 -0.91202669026 0.65109634863 -0.72946346237 -0.20965829785 
0.67084102474 -0.73169721422 0.12079530714 0.64727036742 -0.72057928075 0.248609275 0.60778926589 -0.71616831231 0.34306727724 
0.54365504427 -0.72023858716 0.4309240889 0.44760832977 -0.73331889885 0.51175206469 0.32852991882 -0.75108206703 0.57266379405 
0.21653161414 -0.76695937514 0.604059084 0.13453966209 -0.77872698734 0.61276696918 0.076201339352 -0.7882826404 0.61057664115 
0.022143715233 -0.79883168882 0.60114689454 -0.039598886795 -0.81277796772 0.5812262067 -0.11317585362 -0.83081992043 0.5449123654 
-0.20273480252 -0.85209623526 0.48252523841 -0.32224308642 -0.87197609059 0.36853370361 -0.49474893317 -0.85860603195 0.13423552075 
-0.66135889197 -0.70234944123 -0.26326731363 -0.68491325548 -0.48145552982 -0.54689524158 -0.67630591833 -0.4303187551 -0.59785957703 
-0.69110482816 -0.49217790544 -0.52927783431 -0.70976376694 -0.55993439566 -0.42744457851 -0.72653925954 -0.59680393994 -0.34053745993 
-0.74151573134 -0.60603369719 -0.28788466101 -0.7492507115 -0.60394985826 -0.27178657073 -0.73820405895 -0.61147542198 -0.28487291143 
-0.69375241362 -0.64913572302 -0.31197820709 -0.60623399422 -0.72357311787 -0.33003376699 -0.49582038668 -0.8072760244 -0.32010555227 
-0.41117003247 -0.86311181011 -0.29321870275 -0.39862675584 -0.87112557782 -0.28676983314 -0.46053787549 -0.82347968157 -0.33133982446 
-0.55923860303 -0.70859508124 -0.43028501683 -0.64146003592 -0.52289404977 -0.56134733902 -0.66428499902 -0.29017027349 -0.68885894961 
-0.61519879909 -0.048016465687 -0.78690841692 -0.50069251275 0.17954948885 -0.84679926118 -0.32374347394 0.38481910885 -0.86435202119 
-0.078070438212 0.55868004824 -0.82570067844 0.22157154137 0.66739363803 -0.71097945397 0.51106446673 0.67493883178 -0.53223179555 
0.71305101345 0.6020149567 -0.35935531738 0.82237442973 0.51257372476 -0.24691794997 0.87173099524 0.44848276684 -0.19735318541 
0.88806566221 0.42035855639 -0.18611304006 0.88500904062 0.42663000656 -0.18640234851 0.86741937781 0.46601592182 -0.1743926134 
0.83013796458 0.54384992507 -0.12287480931 0.73904978095 0.67339504179 0.018561761003 0.47034531292 0.81746420563 0.33245685304 
0.022560794323 0.75667612033 0.65340053526 -0.12069383324 0.68285948625 0.72051087477 0.11527883716 0.80272688411 0.58509857224 
0.44544163225 0.85854891423 0.2539202909 0.58574927106 0.81049175966 0.00094814062855 0.61702341526 0.7752243816 -0.13531172599 
0.60695538162 0.76371905172 -0.21985989805 0.56944798553 0.77030743984 -0.28697637518 0.48593939549 0.7961787117 -0.36050293057 
0.28627244405 0.84186868151 -0.45749886435 -0.16526706125 0.82602121869 -0.53886523801 -0.6933175025 0.56766053095 -0.44392833018 
-0.90618957972 0.31199860884 -0.28544231238 -0.96312458646 0.18950248983 -0.19099695627 -0.98080537506 0.1360092068 -0.13972226711 
-0.98804624608 0.11040704749 -0.1075867068 -0.99229237885 0.094915702545 -0.079667084088 -0.99547059192 0.083753933884 -0.044984210276 
-0.99688427703 0.078616667467 0.0064154344328 -0.99280121986 0.087136152579 0.082176813972 -0.9754934182 0.12005833338 0.18438705928 
-0.93323154587 0.18667161926 0.30697326978 -0.85057224816 0.29184751927 0.43743785404 -0.71038018707 0.43230018919 0.55540664044 
-0.50018107049 0.59171921975 0.63220824235 -0.24315999162 0.73076232046 0.6378555083 -0.0057470178112 0.81540659683 0.57886013305 
0.14588501556 0.8491070748 0.50767581955 0.17403708558 0.85415739041 0.49002678013 0.073569342597 0.82614824121 0.55862924679 
-0.10074972226 0.73573857628 0.66972997606 -0.25272147621 0.60663927672 0.75373778159 -0.34508632699 0.49091965999 0.79994581964 
-0.39896315235 0.39421418871 0.82790312023 -0.43200278403 0.30502063007 0.84872611002 -0.45309447664 0.20478327866 0.86762273139 
-0.46134863383 0.076609362916 0.88390522319 -0.44757489364 -0.10041294827 0.88859099388 -0.38845852436 -0.35043053894 0.85223143114 
-0.25876049622 -0.63874501528 0.72460182932 -0.080089933272 -0.85955598402 0.50472677056 0.081046581068 -0.95701853141 0.27847258793 
0.21176171375 -0.97423529249 0.077605228307 0.50808755711 -0.70742268893 -0.49132491642 0.50081474903 0.19570394199 -0.84313970031 
0.46122785477 0.31785004984 -0.82839616839 0.47519402559 0.27422642083 -0.83605652211 0.49228078013 0.20158767143 -0.84677154195 
0.50121010764 0.12817003379 -0.85578085421 0.50003299739 0.053903957046 -0.86432711686 0.48688262945 -0.018364494468 -0.87327432716 
0.45658007346 -0.096761694961 -0.88440477775 0.40193059494 -0.18111346554 -0.89757991814 0.30839352691 -0.274383294 -0.91082777765 
0.16203928019 -0.36919145691 -0.91511799229 -0.039343399441 -0.447327807 -0.8935042977 -0.26386403468 -0.48481593697 -0.83386406474 
-0.45438580154 -0.47732559404 -0.75212619994 -0.56293326139 -0.45254735925 -0.69159744856 -0.56706382187 -0.45106004904 -0.68919043383 
-0.45012943855 -0.49606539747 -0.74249754881 -0.23117425124 -0.56565294686 -0.79157767103 -0.0053048323777 -0.61796105362 -0.78619081333 
0.16440310724 -0.64827617394 -0.74344443009 0.27244448561 -0.66765193892 -0.69283106939 0.27244448561 -0.66765193892 -0.69283106939 

plain_curvature_peaks 1 120 unsigned_char
0 0 0 0 0 0 0 0 0 
0 1 0 0 0 0 0 0 0 
0 0 0 0 0 0 0 0 0 
0 0 0 0 0 0 0 0 0 
0 0 0 0 0 0 1 0 0 
0 0 0 0 0 0 0 0 0 
0 0 0 0 0 0 0 0 0 
0 0 0 0 0 0 0 0 0 
0 0 0 0 0 0 0 0 0 
0 0 0 0 0 0 0 0 0 
0 0 0 0 0 0 0 0 1 
0 0 0 0 0 0 0 0 0 
0 0 0 0 0 0 0 0 0 
0 1 0 
weighted_curvature_peaks 1 120 unsigned_char
0 0 0 0 0 0 0 0 0 
0 0 0 0 0 0 0 0 0 
0 0 0 0 0 0 0 1 0 
0 0 0 0 0 0 0 0 0 
0 0 0 0 0 0 0 0 0 
0 1 0 0 0 0 0 0 0 
0 0 0 0 0 0 0 0 0 
0 0 0 0 0 0 0 0 0 
0 0 1 0 0 0 0 0 0 
0 0 0 0 0 0 0 0 0 
0 0 0 0 0 0 0 0 0 
0 0 0 0 0 0 1 0 0 
0 0 0 0 0 0 0 0 0 
0 0 0 
plain_torsion_tp 1 120 unsigned_char
0 0 0 0 0 0 0 0 0 
0 1 0 0 0 0 0 0 0 
0 0 0 0 0 0 0 0 0 
0 0 0 0 0 0 0 0 0 
0 0 0 0 0 0 1 0 0 
0 0 0 0 0 0 0 0 0 
0 0 0 0 0 0 0 0 0 
0 0 0 0 0 0 0 0 0 
0 0 0 0 0 0 0 0 0 
0 0 0 0 0 0 0 0 0 
0 0 0 0 0 0 0 0 1 
0 0 0 0 0 0 0 0 0 
0 0 0 0 0 0 0 0 0 
0 1 0 
plain_torsion_tn 1 120 unsigned_char
0 0 0 0 2 0 0 0 0 
0 0 0 0 0 0 0 0 0 
0 0 0 0 0 0 0 2 0 
0 0 0 0 0 0 0 0 0 
0 0 0 0 0 0 0 0 0 
0 0 0 0 0 0 0 0 0 
0 0 0 0 0 0 0 0 0 
0 0 0 0 0 2 0 0 0 
0 0 0 0 0 0 0 0 0 
0 0 0 0 0 0 0 0 0 
0 0 0 0 0 0 0 0 0 
0 0 0 0 0 0 0 0 2 
0 0 0 0 0 0 0 0 0 
0 0 0 
plain_torsion_tz 1 120 unsigned_char
0 0 0 0 3 0 0 0 0 
0 0 0 0 0 0 0 0 0 
0 0 0 0 3 0 0 0 0 
0 0 0 3 0 0 0 0 0 
0 0 0 0 0 0 0 0 0 
0 0 0 0 0 0 0 0 0 
0 0 0 0 0 0 0 0 0 
0 0 0 0 0 0 0 0 0 
0 0 0 3 0 0 0 0 0 
0 0 0 0 0 0 0 0 0 
0 0 0 0 0 0 0 0 0 
0 0 3 0 0 0 0 0 0 
0 0 0 0 3 0 0 0 0 
0 0 0 
weighted_torsion_tp 1 120 unsigned_char
0 0 0 0 0 0 0 0 0 
0 0 0 0 0 0 0 0 0 
0 0 0 0 0 0 0 1 0 
0 0 0 0 0 0 0 0 0 
0 0 0 0 0 0 0 0 0 
0 1 0 0 0 0 0 0 0 
0 0 0 0 0 0 0 0 0 
0 0 0 0 0 0 0 0 0 
0 0 1 0 0 0 0 0 0 
0 0 0 0 0 0 0 0 0 
0 0 0 0 0 0 0 0 0 
0 0 0 0 0 0 1 0 0 
0 0 0 0 0 0 0 0 0 
0 0 0 
weighted_torsion_tn 1 120 unsigned_char
0 0 0 0 0 0 0 0 0 
0 0 0 0 0 2 0 0 0 
0 0 0 0 0 0 0 0 0 
0 0 2 0 0 0 0 0 0 
0 0 0 0 0 0 0 0 0 
0 0 0 0 0 0 0 0 0 
0 0 0 0 0 0 0 0 0 
0 0 0 0 0 2 0 0 0 
0 0 0 0 0 0 0 0 2 
0 0 0 0 0 0 0 0 0 
0 0 0 0 0 0 0 0 0 
0 0 0 0 0 0 0 0 0 
0 0 0 0 0 0 0 0 0 
0 0 0 
weighted_torsion_tz 1 120 unsigned_char
0 0 0 0 0 0 0 0 0 
0 0 0 0 0 0 0 3 0 
0 0 0 0 0 0 0 0 0 
0 3 0 0 0 0 3 0 0 
0 0 0 0 0 0 0 0 0 
0 0 0 0 0 0 0 0 0 
0 0 0 0 0 0 0 0 0 
0 0 0 0 0 0 0 3 0 
0 0 0 0 3 0 0 0 0 
0 0 0 0 0 0 0 3 0 
0 0 0 0 0 0 0 0 0 
0 0 0 0 0 0 0 0 0 
0 0 0 0 0 0 0 0 0 
0 0 0 
plain_torsion_tp_raw 1 120 unsigned_char
0 0 0 0 0 0 0 0 0 
0 0 0 0 0 0 0 0 1 
0 0 0 0 0 0 0 0 0 
1 0 0 0 0 0 0 0 0 
0 0 0 0 0 0 0 0 0 
0 0 0 0 0 0 0 0 0 
0 0 0 0 0 0 0 0 0 
0 0 0 0 0 0 0 0 0 
1 0 0 0 0 0 0 0 0 
0 0 0 0 0 0 0 0 0 
0 0 0 0 0 0 0 0 0 
0 1 0 0 0 0 0 0 0 
0 0 0 0 0 0 0 1 0 
0 1 0 
plain_torsion_tn_raw 1 120 unsigned_char
0 0 0 0 0 2 0 0 0 
0 0 0 0 0 0 0 0 0 
0 0 0 0 0 2 0 0 0 
0 0 0 0 0 0 0 0 0 
0 0 0 0 0 0 0 0 0 
0 0 0 0 0 0 0 0 0 
0 0 0 2 0 0 0 0 0 
0 0 0 0 0 0 0 0 0 
0 0 0 0 0 0 0 0 0 
0 0 0 0 0 2 0 0 0 
0 0 0 0 0 0 0 0 0 
0 0 0 0 0 0 0 0 0 
2 0 0 0 0 0 0 0 0 
2 0 0 
plain_torsion_tz_raw 1 120 unsigned_char
0 0 0 0 3 0 0 0 0 
0 0 0 3 0 0 0 0 0 
3 0 0 0 0 0 3 0 0 
0 0 0 0 0 0 0 0 0 
0 0 0 0 0 0 0 0 0 
0 0 0 0 0 0 0 0 0 
0 0 0 0 0 0 0 0 0 
0 0 0 0 0 0 0 0 0 
0 0 0 0 0 0 0 0 0 
0 0 0 0 0 0 0 0 0 
0 0 0 0 0 0 0 0 0 
0 0 0 0 0 0 0 0 0 
0 0 0 0 0 0 0 0 0 
0 0 0 
weighted_torsion_tp_raw 1 120 unsigned_char
0 0 0 0 0 0 0 0 0 
0 0 0 0 0 0 0 0 0 
0 0 0 0 0 0 0 0 1 
0 0 0 0 1 0 0 0 0 
0 0 0 0 0 0 0 0 0 
0 0 0 0 0 0 0 0 0 
0 0 0 0 0 0 0 0 0 
0 0 0 0 0 0 1 0 0 
0 0 0 1 0 0 0 0 0 
0 0 0 0 0 0 0 0 0 
0 0 0 0 1 0 0 0 0 
0 0 0 0 0 0 0 0 1 
0 0 0 0 0 0 0 0 0 
0 0 0 
weighted_torsion_tn_raw 1 120 unsigned_char
0 0 0 0 0 0 0 0 0 
0 0 0 0 0 0 0 0 0 
0 0 0 0 0 0 0 2 0 
0 2 0 0 0 0 0 0 0 
0 0 0 0 0 0 0 0 0 
0 0 0 0 0 0 0 0 0 
0 0 0 0 0 0 0 0 0 
2 0 0 0 0 0 0 0 2 
0 0 0 0 0 0 0 0 0 
0 2 0 0 0 0 0 0 0 
0 0 0 0 0 0 0 0 0 
0 2 0 0 0 0 0 0 0 
0 0 0 0 0 0 0 0 0 
0 0 0 
weighted_torsion_tz_raw 1 120 unsigned_char
0 0 0 0 0 0 0 0 0 
0 0 0 0 0 3 0 0 0 
0 0 0 0 0 0 0 0 3 
3 0 3 0 0 0 0 0 0 
0 0 0 0 0 0 0 0 0 
0 0 0 0 0 0 0 0 0 
0 0 0 0 0 0 0 0 0 
0 0 0 0 0 0 0 0 0 
0 0 0 0 0 0 0 0 0 
0 0 0 0 0 0 0 0 0 
0 0 0 0 0 0 0 0 0 
0 0 0 0 0 0 0 0 0 
0 0 0 0 0 0 0 0 0 
0 0 0 
