# vtk DataFile Version 5.1
vtk output
ASCII
DATASET POLYDATA
POINTS 120 float
-1.6631 20.319 -9.49188 -1.9288 19.6751 -9.49152 -2.23426 19.0598 -9.39708 
-2.57703 18.4786 -9.23311 -2.95465 17.9368 -9.02413 -3.36443 17.4394 -8.7946 
-3.80332 16.9905 -8.56861 -4.2677 16.5929 -8.36937 -4.75318 16.2471 -8.21815 
-5.2545 15.9507 -8.13293 -5.76565 15.698 -8.12668 -6.28007 15.4794 -8.20589 
-6.79101 15.2822 -8.36946 -7.29171 15.0911 -8.60863 -7.77561 14.8899 -8.90791 
-8.23628 14.6627 -9.24703 -8.66718 14.3963 -9.604 -9.06124 14.0812 -9.9584 
-9.41057 13.713 -10.2944 -9.70627 13.2928 -10.6031 -9.93875 12.8268 -10.883 
-10.0983 12.3251 -11.1401 -10.1765 11.8005 -11.3856 -10.1671 11.2662 -11.6335 
-10.0678 10.7346 -11.8971 -9.88095 10.2162 -12.1861 -9.61382 9.71898 -12.5046 
-9.27855 9.24865 -12.849 -8.89119 8.80909 -13.2082 -8.47046 8.40354 -13.5642 
-8.03634 8.03528 -13.8941 -7.60864 7.70829 -14.1727 -7.20574 7.4274 -14.3757 
-6.84346 7.19789 -14.483 -6.53405 7.02471 -14.4803 -6.28544 6.91143 -14.3612 
-6.10045 6.85933 -14.127 -5.97673 6.86657 -13.7864 -5.9077 6.92833 -13.3527 
-5.88402 7.03722 -12.8427 -5.89555 7.18378 -12.2743 -5.93324 7.35751 -11.6654 
-5.99028 7.54761 -11.0321 -6.06231 7.74372 -10.3884 -6.14672 7.93531 -9.74603 
-6.24163 8.1116 -9.11432 -6.3449 8.26135 -8.50055 -6.45354 8.37214 -7.91038 
-6.56362 8.4314 -7.34825 -6.67075 8.4273 -6.81766 -6.77079 8.34953 -6.32136 
-6.86044 8.191 -5.86122 -6.93757 7.94859 -5.4381 -7.00124 7.62323 -5.05162 
-7.05161 7.22019 -4.70012 -7.08973 6.7481 -4.38069 -7.11749 6.21828 -4.0894 
-7.13731 5.64347 -3.8217 -7.15182 5.03654 -3.57287 -7.16341 4.40939 -3.33836 
-7.17376 3.77209 -3.11407 -7.18336 3.13218 -2.89648 -7.19123 2.49488 -2.68264 
-7.19472 1.8634 -2.47013 -7.18961 1.23914 -2.25702 -7.17028 0.622376 -2.04186 
-7.1302 0.0130068 -1.82372 -7.06249 -0.589142 -1.6023 -6.96049 -1.18361 -1.37794 
-6.81838 -1.76907 -1.15166 -6.6315 -2.34308 -0.925085 -6.39668 -2.90195 -0.700205 
-6.11232 -3.44091 -0.479143 -5.77839 -3.95422 -0.263844 -5.39647 -4.4355 -0.0557251 
-4.96949 -4.87797 0.144599 -4.50152 -5.27528 0.337502 -3.99742 -5.62177 0.524484 
-3.46261 -5.91314 0.708054 -2.90287 -6.14734 0.891562 -2.32409 -6.32477 1.07918 
-1.7322 -6.44815 1.27558 -1.13295 -6.52274 1.48505 -0.531633 -6.55533 1.71148 
0.0671716 -6.55331 1.95791 0.659803 -6.52376 2.22589 1.24368 -6.47262 2.51524 
1.81733 -6.40417 2.82425 2.38019 -6.32043 3.15001 2.93244 -6.22181 3.48858 
3.47464 -6.10723 3.8358 4.00751 -5.97499 4.18808 4.53176 -5.8239 4.54272 
5.048 -5.65433 4.89804 5.55671 -5.46874 5.254 6.05828 -5.27267 5.61186 
6.55297 -5.07461 5.97359 7.04074 -4.88526 6.34204 7.521 -4.71665 6.7203 
7.99232 -4.58066 7.11123 8.45216 -4.48756 7.51746 8.89679 -4.4445 7.94055 
9.32174 -4.45515 8.38092 9.72218 -4.51945 8.83735 10.0936 -4.63414 9.30692 
10.4322 -4.79401 9.78499 10.736 -4.99347 10.2653 11.0041 -5.22795 10.7408 
11.2376 -5.49494 11.2036 11.439 -5.79445 11.6467 11.6124 -6.12877 12.064 
11.7633 -6.50129 12.4514 11.898 -6.91506 12.8073 12.023 -7.37157 13.133 
12.144 -7.86994 13.4323 12.2647 -8.4066 13.7104 12.386 -8.97546 13.9729 
12.5064 -9.56892 14.2241 12.6217 -10.1786 14.4653 12.7258 -10.796 14.6943 

LINES 2 120
OFFSETS vtktypeint64
0 120 
CONNECTIVITY vtktypeint64
0 1 2 3 4 5 6 7 8 
9 10 11 12 13 14 15 16 17 
18 19 20 21 22 23 24 25 26 
27 28 29 30 31 32 33 34 35 
36 37 38 39 40 41 42 43 44 
45 46 47 48 49 50 51 52 53 
54 55 56 57 58 59 60 61 62 
63 64 65 66 67 68 69 70 71 
72 73 74 75 76 77 78 79 80 
81 82 83 84 85 86 87 88 89 
90 91 92 93 94 95 96 97 98 
99 100 101 102 103 104 105 106 107 
108 109 110 111 112 113 114 115 116 
117 118 119 
CELL_DATA 1
FIELD FieldData 2
Length 1 1 double
72.728493762 
Tortuosity 1 1 double
0.73352178043 
POINT_DATA 120
FIELD FieldData 19
Curvature 1 120 double
0 0.22078660075 0.17921309055 0.1442371142 0.12240257332 0.11875787758 0.13628615153 0.17291488211 0.22116803609 
0.26637217635 0.28734389665 0.27060985111 0.22453321629 0.17267435463 0.13894149089 0.1372452132 0.16013000199 0.19078032899 
0.21745331197 0.23482122448 0.24407253722 0.25075937233 0.25693115851 0.25657264541 0.24123091713 0.20974668803 0.1697495161 
0.13116929716 0.10147650739 0.087799675384 0.10320953231 0.16603900486 0.31572197576 0.65708878897 1.3061306614 1.7039236108 
1.1527834353 0.56254007291 0.27106066947 0.13977547978 0.077427809671 0.04608616874 0.031343437451 0.028855372171 0.038060691329 
0.057235427158 0.088982908855 0.13553723778 0.19891204432 0.2761440887 0.34736538416 0.38201511269 0.36235311067 0.29990706833 
0.22614338643 0.16074109522 0.11040203994 0.073854236066 0.047692013132 0.029045250498 0.015801601661 0.0070551188168 0.0097315490309 
0.020686255573 0.034778991294 0.05109617248 0.068281861116 0.084911360131 0.09947045017 0.11146081273 0.12077702303 0.12787842205 
0.13357833912 0.1383340833 0.14320886294 0.14777920276 0.15225586898 0.15542954417 0.15495141303 0.14974550965 0.13991594658 
0.12555067425 0.1099358939 0.095704434021 0.083843655328 0.07409055756 0.065601042832 0.058442165362 0.051983043583 0.048317392434 
0.048189679308 0.048978767654 0.047600040133 0.042022158158 0.030375928736 0.018607211962 0.029925833739 0.057752933185 0.08920098134 
0.11959612848 0.14350460069 0.15883199007 0.16393827555 0.16056932975 0.15261073802 0.14412024575 0.13859769081 0.13855920554 
0.14543006048 0.15817743648 0.17050380174 0.17302161361 0.16055901033 0.13455476727 0.10234459324 0.072275769379 0.049504201093 
0.038923343653 0.041101182529 0 
Torsion 1 120 double
0 0 0.22562962544 0.34852042515 0.49771611119 0.57522505214 0.50755145984 0.3871468412 0.29698668452 
0.24975499786 0.24266747121 0.28033934895 0.38289193084 0.57742206825 0.77290824606 0.66039595131 0.36056022066 0.12585728846 
-0.042004957206 -0.18076308133 -0.29539888863 -0.35546740522 -0.34088275488 -0.27740615089 -0.20101565932 -0.1237857132 -0.035641024303 
0.092729723558 0.31249174786 0.60495794602 0.63536360831 0.39425595453 0.1951499865 0.076944024888 0.013878881364 -0.010313382462 
-0.031820525097 -0.059170799665 -0.068469024348 -0.039325506779 0.053126875823 0.26924820278 0.63005424601 0.81477027601 0.57288527115 
0.3809460698 0.25941498981 0.17876376723 0.12078017625 0.077221588822 0.047772223435 0.02898982242 0.017243087398 0.0095107604413 
0.0014502628971 -0.01033954526 -0.026735672071 -0.048986283532 -0.071450728443 -0.061259905316 0.14545044362 1.6584591637 0.78973667847 
0.031691219142 -0.069033093761 -0.078519726354 -0.069620748964 -0.057352004221 -0.046119215918 -0.034113267644 -0.020193351522 -0.0036452409339 
0.015984232355 0.038906044506 0.061356697703 0.08299483594 0.10190547178 0.11579069585 0.13211825921 0.15559403483 0.17939071419 
0.20985945981 0.24676305114 0.26361602745 0.24155863526 0.17813731707 0.074105069901 -0.059387757802 -0.19847560694 -0.28575386727 
-0.25581492056 -0.16518716217 -0.048844678655 0.11744188898 0.50625700156 1.9283215973 0.89786665158 0.24701736664 0.073749713685 
0.003792751556 -0.031563717501 -0.053009132757 -0.06551887686 -0.06507415851 -0.040752223964 0.012052675055 0.092634100862 0.18014624964 
0.24015660469 0.25234475159 0.2270059041 0.19449346854 0.16572406419 0.13140573994 0.076113062437 -0.01998361941 -0.20660237184 
-0.41060100097 0 0 
FrenetTangent 3 120 double
-0.41210964319 -0.90856299522 0.06840267322 -0.41210964319 -0.90856299522 0.06840267322 -0.46800086143 -0.86381124053 0.18656187827 
-0.52001208747 -0.81062462695 0.26921207824 -0.57240584171 -0.75546726046 0.31878012916 -0.62851633338 -0.70082824111 0.3373529237 
-0.69008373846 -0.64671868294 0.32486824875 -0.75621324032 -0.59185741633 0.2790095588 -0.82174929963 -0.53475295985 0.19689428757 
-0.87627906086 -0.47525529588 0.079166983244 -0.9067327439 -0.41674266314 -0.064508013857 -0.90516141884 -0.36708770908 -0.21431150154 
-0.87510484162 -0.33588302039 -0.34838787692 -0.82822634923 -0.32997875911 -0.45294054023 -0.77558163422 -0.35171561378 -0.52418437184 
-0.72244165601 -0.39992175554 -0.56403957584 -0.66807568043 -0.47095153384 -0.57608986972 -0.60773089321 -0.55862676782 -0.5644460078 
-0.53507267381 -0.65398518393 -0.53479025136 -0.44468877218 -0.74612075378 -0.49553578749 -0.33393267496 -0.8241969535 -0.45737112987 
-0.20366624163 -0.87926267292 -0.43060099167 -0.058736822031 -0.90486975324 -0.42161678738 0.091523061273 -0.89780812917 -0.43077150839 
0.2344226115 -0.86026763264 -0.45275339806 0.35816848279 -0.80123285096 -0.47931331765 0.4568878038 -0.73379884027 -0.50278504031 
0.53198009796 -0.66983076186 -0.51799992842 0.58956032116 -0.61656987713 -0.52178560188 0.63718432111 -0.57677587465 -0.51120028497 
0.68211784255 -0.55027553185 -0.48157251575 0.73089813607 -0.53491611045 -0.4238545381 0.78826404962 -0.52580180983 -0.3196439345 
0.85013520383 -0.50967290454 -0.13230141939 0.87331243417 -0.44832318847 0.19060879048 0.74347112736 -0.28356348035 0.60567518968 
0.47203993745 -0.068584724851 0.87890524687 0.24064981589 0.086140142866 0.96678205501 0.096227484013 0.17711809876 0.97947406827 
0.010954755355 0.23050292232 0.97300996713 -0.040308818779 0.26230684603 0.96414227044 -0.072981304947 0.28031716277 0.95712904949 
-0.096298458442 0.28813548384 0.95273529894 -0.11568876051 0.28669929335 0.95100979274 -0.13399759751 0.27491011957 0.95208669249 
-0.15214150196 0.25029474724 0.956140943 -0.16954480792 0.20845002669 0.96322538613 -0.18454757089 0.14349050619 0.97229248105 
-0.19472419515 0.049448267681 0.97961081897 -0.1971605194 -0.077913411108 0.97727029524 -0.18906873969 -0.2355280797 0.95329928949 
-0.16944879855 -0.40736623093 0.89740729803 -0.14096461765 -0.56843819511 0.81055968005 -0.10932561019 -0.69826009921 0.70744663743 
-0.0799943266 -0.79106276602 0.60648215796 -0.056057510021 -0.85253174644 0.51966063627 -0.038404535146 -0.89160348748 0.45118545277 
-0.026610698608 -0.91597033877 0.40036259717 -0.019689377755 -0.93094926191 0.36461733386 -0.016306770605 -0.93990689584 0.34104122389 
-0.014758127638 -0.94493504605 0.32692500121 -0.012956008349 -0.9473285325 0.32000123962 -0.0084890613645 -0.94788002453 0.31851435594 
0.001220218155 -0.94707746366 0.32100278643 0.018619989955 -0.94513094763 0.32616067789 0.045639630572 -0.94187661346 0.33284451196 
0.083344191098 -0.93676893274 0.33987896738 0.13174273656 -0.92891739907 0.34605825675 0.18975822704 -0.91721520565 0.35029713358 
0.25552021878 -0.90055394403 0.3517271836 0.32680128097 -0.87794835468 0.34986798834 0.40131877612 -0.84860086704 0.34470249259 
0.4770302255 -0.81184988413 0.33666293171 0.55213513564 -0.76713048176 0.32658477606 0.62510763323 -0.71387021827 0.3156418197 
0.69445096143 -0.65163960348 0.30512897164 0.75849120958 -0.58036914864 0.29641649128 0.81536353576 -0.50060593449 0.29081953667 
0.86289059718 -0.4143368758 0.28938688747 0.89912518137 -0.32507527388 0.29308697438 0.92306777802 -0.23719054169 0.30279782714 
0.93505681984 -0.15541454522 0.31861428533 0.93667029478 -0.083617235797 0.3400836908 0.93012444375 -0.023688396207 0.36647971162 
0.91781264567 0.024322595996 0.39626803905 0.90199550415 0.061860021041 0.42729082401 0.8846096806 0.091391038752 0.45728917659 
0.86715076465 0.1161207714 0.48431964425 0.85074544335 0.13912998137 0.50682841169 0.83606920401 0.16286523113 0.52389235784 
0.82309004844 0.18896933392 0.53554958968 0.81136723834 0.21746493715 0.54257921602 0.80049811034 0.24669462155 0.54620924474 
0.79015609774 0.27380591083 0.5483462997 0.7804105691 0.29481825084 0.55139962151 0.77192880408 0.30538071786 0.55755586141 
0.76519677783 0.30173770277 0.56870752583 0.75990192934 0.28099875295 0.58616444674 0.7546684046 0.24157402968 0.61001441564 
0.74672327573 0.18371262082 0.63926052782 0.73256649564 0.1102813605 0.67170257628 0.70934970429 0.026438217001 0.70436071562 
0.67592430744 -0.06138049986 0.73441048798 0.63331633315 -0.14686976916 0.75982872614 0.58414307343 -0.22586987897 0.77958942241 
0.53160273718 -0.29734818585 0.7930842239 0.47840794416 -0.3630272657 0.79958554472 0.42645541797 -0.42635122845 0.79772201078 
0.37696985738 -0.49107591182 0.78532679533 0.33096968688 -0.55967365797 0.75975289597 0.28982321503 -0.63164510207 0.7190458741 
0.25523138632 -0.70263966989 0.6641945752 0.22872059951 -0.76638348577 0.60028596527 0.21073590693 -0.8179237831 0.53534200524 
0.19979030459 -0.85570115154 0.47734617779 0.19289843357 -0.88145648123 0.43107385217 0.18683767728 -0.89853552084 0.39714682442 
0.17844030269 -0.91065157119 0.37265637558 0.16469861638 -0.92105564752 0.35288930267 0.16469861638 -0.92105564752 0.35288930267 

FrenetNormal 3 120 double
-0.38747733798 0.24271012419 0.88935544535 -0.38747733798 0.24271012419 0.88935544535 -0.42873305272 0.40652980155 0.80679705624 
-0.51628452234 0.54938199675 0.65698532225 -0.6400844662 0.65466500654 0.40212635496 -0.73426150658 0.67769460145 0.039875645779 
-0.72364676668 0.60979417464 -0.32324359489 -0.62141274396 0.51607785136 -0.58949966326 -0.47109331609 0.44309388403 -0.7627180983 
-0.29163970058 0.39241693798 -0.8723274797 -0.092375498653 0.34553818059 -0.93384695374 0.11394709461 0.27618122896 -0.95432698191 
0.31513231628 0.15082836023 -0.93698582112 0.5016933547 -0.076476616232 -0.86165834587 0.63119193758 -0.42110169328 -0.65136019363 
0.62884749105 -0.71917385388 -0.29553307918 0.56900252199 -0.82224341611 0.012324554445 0.55954683782 -0.80557692701 0.19481568459 
0.61552301141 -0.7353857691 0.28344169246 0.71972636515 -0.6269758766 0.29815299673 0.84501637807 -0.47675818501 0.2421754608 
0.95050457069 -0.28299215337 0.12828289921 0.99802469675 -0.062656739078 -0.0045648347611 0.98142168291 0.15457801979 -0.11365349143 
0.92111719012 0.34545248052 -0.17945948225 0.84325182511 0.49798681502 -0.20232521226 0.77237479257 0.6076395991 -0.18496296225 
0.7311827238 0.67190978944 -0.11793667484 0.73698904723 0.67499219674 0.035109522966 0.76405532258 0.55971422844 0.32084177802 
0.70261730189 0.31075571959 0.64012483925 0.55953731167 0.11406404046 0.82091862661 0.40777989158 0.057348407548 0.91127752094 
0.21819952086 0.11231418332 0.96941966832 -0.07830360598 0.25699654708 0.96323482084 -0.46477429831 0.43212110447 0.77282352624 
-0.73532480928 0.51930794562 0.435449977 -0.83169819415 0.53178204595 0.15964325681 -0.84715358819 0.53119322861 -0.012827778467 
-0.83992262379 0.53013543278 -0.11613099911 -0.84113673579 0.51191772727 -0.1744397667 -0.88741955875 0.41971672854 -0.19058959713 
-0.97607261863 0.16014593264 -0.14709018805 -0.94788101299 -0.31803143238 -0.019431758456 -0.71772483641 -0.68938983212 0.09804447238 
-0.4861399677 -0.86124045424 0.14809730511 -0.30049402351 -0.941768661 0.15091431675 -0.16372890635 -0.97994932579 0.11354366612 
-0.061360613515 -0.99738636999 0.038148447731 0.01759824141 -0.99695764173 -0.075932618173 0.081202643215 -0.97123398522 -0.22385414153 
0.13322982756 -0.9116848438 -0.38869082653 0.17318386751 -0.82026929036 -0.54512901163 0.20071355106 -0.71255959357 -0.6722892949 
0.2167942054 -0.60767472213 -0.76402336652 0.2212824635 -0.5181436774 -0.82617262174 0.2138522625 -0.44839097796 -0.86787829833 
0.19176788313 -0.39774345065 -0.8972319803 0.1520012919 -0.36323604543 -0.91921443775 0.10226123756 -0.34086573876 -0.93453367378 
0.10367316395 -0.32664445716 -0.93944413016 0.52647360432 -0.27853921381 -0.80326922655 0.99062459983 0.035460250518 0.13192980274 
0.94814793316 0.10311922789 0.30063586226 0.95618552113 0.11216009247 0.27042441244 0.96889527105 0.12286222523 0.21481812623 
0.97747435803 0.1432132678 0.15502851132 0.97943634081 0.17579085946 0.099005191919 0.97456026418 0.21929595507 0.046277160433 
0.96229822825 0.27198309925 -0.0027043718162 0.94206077664 0.33224033845 -0.04623689678 0.91343287533 0.39861506305 -0.082136555676 
0.87604793826 0.46998515333 -0.10795353406 0.82939528675 0.54536191313 -0.12117690382 0.77253009815 0.62362901537 -0.11951610203 
0.70462175664 0.70178252188 -0.1049260314 0.62456939088 0.77722016354 -0.076432279573 0.53259034964 0.84553111559 -0.037744563036 
0.43033905037 0.90262075171 0.0091695313477 0.31920369758 0.94516521228 0.069077644292 0.20109020893 0.96866614865 0.14576906509 
0.080985853156 0.96865906157 0.23482102551 -0.041200275408 0.93802503932 0.3441098123 -0.16051733105 0.87132346814 0.4637128425 
-0.26677847597 0.77697745739 0.57020634464 -0.35152340168 0.67982980305 0.64363245487 -0.4122142602 0.61175994017 0.67515122698 
-0.44801746312 0.60664742811 0.65670332017 -0.45788657084 0.66960712078 0.58477875478 -0.43404406369 0.78041100165 0.45007157128 
-0.3886340281 0.87505024844 0.28853189583 -0.35158884066 0.9231015482 0.15578452697 -0.33957834258 0.93764786258 0.074182444427 
-0.37180170518 0.92538300363 0.073687099452 -0.47241470242 0.85572550417 0.21108815801 -0.63564965892 0.35880053202 0.68352885041 
-0.30596715618 -0.60678416122 0.73361916621 -0.1331977113 -0.8152950768 0.56351779693 -0.10510877997 -0.87322697868 0.47584323897 
-0.13994016822 -0.89619342484 0.42101555148 -0.20658888272 -0.90422371854 0.37376530119 -0.29171905978 -0.89868365572 0.32751744551 
-0.38467436671 -0.87938694082 0.28054275951 -0.47653572703 -0.84762033715 0.23335266212 -0.55656069127 -0.81058710681 0.18217776815 
-0.61353316192 -0.78072149299 0.11853695459 -0.6397706543 -0.76780505879 0.034189202845 -0.62548817292 -0.77607976565 -0.08040362479 
-0.57250734441 -0.79005027422 -0.21921657053 -0.49034758866 -0.78989654157 -0.36826986832 -0.40054015742 -0.76238343865 -0.50827067078 
-0.31759660169 -0.70975451197 -0.62879323417 -0.24236163206 -0.64204410243 -0.72735150364 -0.17562687646 -0.5704083461 -0.80236495372 
-0.13040823406 -0.50605577498 -0.85258503687 -0.12548790669 -0.45787889558 -0.88011345988 -0.19994767504 -0.43058510965 -0.88012350872 
-0.40384323481 -0.413146725 -0.81622326928 -0.62723291479 -0.37391762784 -0.68320163802 -0.62723291479 -0.37391762784 -0.68320163802 

FrenetBinormal 3 120 double
-0.82463746856 0.34000746952 -0.45207075345 -0.82463746856 0.34000746952 -0.45207075345 -0.77276332936 0.29759647373 -0.56060072745 
-0.68046875085 0.20265027964 -0.70419822727 -0.51248749108 0.026133265879 -0.85829693225 -0.25656823387 -0.22264277133 -0.94053332623 
0.010944906341 -0.45815500621 -0.88880492759 0.20490909401 -0.61916754605 -0.75805264534 0.32062310598 -0.71951864595 -0.61603063402 
0.38351178931 -0.78749053996 -0.48247005807 0.41146384821 -0.8407906508 -0.35180759393 0.40951051938 -0.88824013792 -0.20816001514 
0.36726439986 -0.92974910721 -0.026143034079 0.24968959187 -0.94088540519 0.2288880993 0.0083586237241 -0.83604395275 0.54859879919 
-0.28745240765 -0.56820027925 0.77105094254 -0.47949037028 -0.31956285366 0.81729344018 -0.56353393663 -0.19743846878 0.80215182685 
-0.57864380768 -0.17751380173 0.79602775958 -0.53314712341 -0.22406488109 0.81581191083 -0.41765570676 -0.30561579616 0.85566506049 
-0.23465106673 -0.38316131478 0.89337913773 -0.022286552134 -0.42105209026 0.90676261882 0.16862683526 -0.41236658326 0.89527581864 
0.31078796837 -0.37496957735 0.87338917716 0.40080131909 -0.3317153156 0.8540042459 0.44123770752 -0.30383116961 0.84439084898 
0.42704683559 -0.31601263475 0.84721131655 0.33055373538 -0.40524945522 0.85235386259 0.10107227594 -0.59502064915 0.79732980762 
-0.2025936227 -0.77500175599 0.59860513049 -0.39077603756 -0.83717032285 0.38267471697 -0.46082029914 -0.84867167793 0.25961709298 
-0.4792276122 -0.85300589365 0.2066926247 -0.48082630712 -0.85613030169 0.1893329578 -0.48086956071 -0.85607423959 0.18947654709 
-0.48628769501 -0.85183061293 0.19470204045 -0.50036564626 -0.84248900965 0.19961585272 -0.5225620244 -0.82853058662 0.20116162081 
-0.54259559469 -0.81598089788 0.19941212328 -0.53931826488 -0.81800694314 0.20000112535 -0.45514860856 -0.86328451628 0.21812745834 
-0.19495858551 -0.94410339646 0.26581934979 0.29687993517 -0.90369216175 0.30854947882 0.68331230273 -0.67019854187 0.28968640185 
0.86053523762 -0.44228658071 0.2527086966 0.93859357549 -0.26385673297 0.22230997396 0.9690897994 -0.13823817681 0.20434081132 
0.97893685339 -0.052681095078 0.19724943419 0.98021325817 0.0022273241398 0.19793182548 0.97860060413 0.035086601669 0.20275548815 
0.97649214934 0.053698226002 0.20875723413 0.97474936502 0.063531957547 0.21407327195 0.97353067819 0.068495689394 0.21805127644 
0.97293431444 0.070364282817 0.22010835397 0.97359726115 0.068678605754 0.21769616945 0.97611080391 0.06315656727 0.20789167012 
0.98107948186 0.052900717935 0.18623792397 0.9881841608 0.037323545493 0.14865738221 0.99462391311 0.019636071374 0.10167446177 
0.99450192194 0.020028912867 0.10278506654 0.85009275129 0.15806504321 0.50235222336 -0.13634822351 0.31664811658 0.93869224574 
-0.3178270094 0.30399128716 0.89809536767 -0.29216869299 0.30683481791 0.90580894749 -0.24322618664 0.31268725371 0.91818718326 
-0.19390107067 0.31930224957 0.92760360511 -0.15280152375 0.32589881778 0.93297462715 -0.11926485969 0.33260419513 0.93549470476 
-0.093228416781 0.33915746729 0.93609864581 -0.075646651403 0.34470718591 0.93565727706 -0.067702453453 0.34782553093 0.93511163923 
-0.070584515467 0.34642996591 0.93541654085 -0.085148401668 0.33777390021 0.93736787977 -0.11152441138 0.31855323362 0.9413214876 
-0.14576022172 0.28786649538 0.94651298913 -0.1860219368 0.24310587959 0.9519954676 -0.22700181502 0.18566321909 0.95603312968 
-0.26500588488 0.11662217596 0.95716829714 -0.29947104649 0.031444996481 0.95358707233 -0.32788504855 -0.073665048693 0.94184120506 
-0.34512321751 -0.19376775162 0.91833764116 -0.34778052875 -0.33632898105 0.87517513695 -0.33030698687 -0.49013699488 0.806636858 
-0.29402243487 -0.62905837728 0.71960848088 -0.25066991953 -0.73075630458 0.63494867096 -0.21804842736 -0.78574643088 0.57884145471 
-0.21755437045 -0.78644444459 0.57807891457 -0.25801565623 -0.72956778443 0.63337095691 -0.33555034926 -0.60368334828 0.7231682917 
-0.41410912133 -0.4456205264 0.7936850648 -0.46697804196 -0.31716325895 0.825432599 -0.49385152079 -0.24486373661 0.83435749287 
-0.48725438246 -0.26210040021 0.8329985276 -0.4096140776 -0.42522471763 0.80709370394 0.0086851913119 -0.88204580118 0.47108361473 
0.56644328096 -0.73536884651 -0.37198745817 0.63624478583 -0.50629402385 -0.58211591107 0.64763241386 -0.42322172899 -0.63360525932 
0.65024695216 -0.40384033753 -0.64349971483 0.6485887472 -0.41257422164 -0.63962109771 0.64165644015 -0.43779984882 -0.62976845363 
0.62861113752 -0.4721345598 -0.61801051385 0.60977382941 -0.50987158673 -0.60680049605 0.59077666397 -0.54030670924 -0.59920913983 
0.58393115095 -0.54959804107 -0.59746665531 0.60151421334 -0.52790775336 -0.599578231 0.65337609539 -0.46467712161 -0.59764107174 
0.72809962726 -0.36696731876 -0.57896970538 0.8062371293 -0.25065683751 -0.53586643965 0.86923534576 -0.1406981077 -0.47395564789 
0.91323016706 -0.050458171078 -0.40430759941 0.94284024451 0.020873985723 -0.33259066441 0.96163692618 0.075066661993 -0.26385491935 
0.97112178777 0.10808835212 -0.21269551347 0.97316133277 0.11567795243 -0.19893625039 0.96182774424 0.0850316479 -0.26010961009 
0.89725676374 -0.0048476289574 -0.44148250296 0.76121825804 -0.10882142142 -0.63930013442 0.76121825804 -0.10882142142 -0.63930013442 

plain_curvature_peaks 1 120 unsigned_char
0 0 0 0 0 0 0 0 0 
0 0 0 0 0 0 0 0 0 
0 0 0 0 0 1 0 0 0 
0 0 0 0 0 0 0 0 0 
0 0 0 0 0 0 0 0 0 
0 0 0 0 0 0 0 0 1 
0 0 0 0 0 0 0 0 0 
0 0 0 0 0 0 0 0 0 
0 0 0 0 0 0 0 0 0 
0 0 0 0 0 0 0 0 0 
1 0 0 0 0 0 0 0 0 
0 0 0 0 0 0 0 0 0 
0 0 0 0 0 0 0 0 1 
0 0 0 
weighted_curvature_peaks 1 120 unsigned_char
0 0 0 0 0 0 0 0 0 
0 0 0 0 0 0 0 0 0 
0 0 0 0 0 0 0 1 0 
0 0 0 0 0 0 0 0 0 
0 0 0 0 0 0 0 0 0 
0 0 0 0 0 0 0 0 0 
0 0 0 0 1 0 0 0 0 
0 0 0 0 0 0 0 0 0 
0 0 0 0 0 0 0 0 0 
0 0 0 0 0 0 0 0 0 
0 0 0 0 0 0 0 0 0 
0 0 0 1 0 0 0 0 0 
0 0 0 0 0 0 0 0 0 
0 1 0 
plain_torsion_tp 1 120 unsigned_char
0 0 0 0 0 0 0 0 0 
0 0 0 0 0 0 0 0 0 
0 0 0 0 0 1 0 0 0 
0 0 0 0 0 0 0 0 0 
0 0 0 0 0 0 0 0 0 
0 0 0 0 0 0 0 0 1 
0 0 0 0 0 0 0 0 0 
0 0 0 0 0 0 0 0 0 
0 0 0 0 0 0 0 0 0 
0 0 0 0 0 0 0 0 0 
1 0 0 0 0 0 0 0 0 
0 0 0 0 0 0 0 0 0 
0 0 0 0 0 0 0 0 1 
0 0 0 
plain_torsion_tn 1 120 unsigned_char
0 0 0 0 0 0 0 2 0 
0 0 0 0 0 0 0 0 0 
0 0 0 0 0 0 0 0 0 
0 0 0 0 0 0 0 0 0 
0 0 0 0 2 0 0 0 0 
0 0 0 0 0 0 0 0 0 
0 0 0 0 0 0 0 0 0 
0 0 0 0 0 0 0 0 0 
0 0 0 0 0 0 0 0 2 
0 0 0 0 0 0 0 0 0 
0 0 0 0 0 0 0 0 0 
0 0 0 0 0 2 0 0 0 
0 0 0 0 0 0 0 0 0 
0 0 0 
plain_torsion_tz 1 120 unsigned_char
0 0 0 0 0 0 0 0 3 
0 0 0 0 0 0 0 0 0 
0 0 0 0 0 0 0 0 0 
0 0 0 0 0 0 0 0 0 
0 3 0 0 0 0 3 0 0 
0 0 0 0 0 0 0 0 0 
0 0 0 0 0 0 0 0 0 
0 0 0 0 0 0 0 0 0 
0 0 0 0 0 0 0 0 0 
0 0 0 0 0 0 3 0 0 
0 0 0 0 0 3 0 0 0 
0 0 0 0 0 0 0 0 0 
0 0 3 0 0 0 0 0 0 
0 0 0 
weighted_torsion_tp 1 120 unsigned_char
0 0 0 0 0 0 0 0 0 
0 0 0 0 0 0 0 0 0 
0 0 0 0 0 0 0 1 0 
0 0 0 0 0 0 0 0 0 
0 0 0 0 0 0 0 0 0 
0 0 0 0 0 0 0 0 0 
0 0 0 0 1 0 0 0 0 
0 0 0 0 0 0 0 0 0 
0 0 0 0 0 0 0 0 0 
0 0 0 0 0 0 0 0 0 
0 0 0 0 0 0 0 0 0 
0 0 0 1 0 0 0 0 0 
0 0 0 0 0 0 0 0 0 
0 1 0 
weighted_torsion_tn 1 120 unsigned_char
0 0 0 0 0 0 0 0 2 
0 0 0 0 0 0 0 0 0 
0 0 0 0 0 0 0 0 0 
0 0 0 0 0 0 0 0 0 
0 0 0 0 0 0 0 0 2 
0 0 0 0 0 0 0 0 0 
0 0 0 0 0 0 0 0 0 
0 0 0 0 0 0 0 0 0 
0 0 0 0 0 0 0 0 0 
0 0 0 0 2 0 0 0 0 
0 0 0 0 0 0 0 0 0 
0 0 0 0 0 0 0 0 0 
0 2 0 0 0 0 0 0 0 
0 0 0 
weighted_torsion_tz 1 120 unsigned_char
0 0 0 0 0 0 0 0 0 
3 0 0 0 0 0 0 0 0 
0 0 0 0 0 0 0 0 0 
0 0 0 0 0 0 0 0 0 
0 0 0 0 0 3 0 0 0 
0 3 0 0 0 0 0 0 0 
0 0 0 0 0 0 0 0 0 
0 0 0 0 0 0 0 0 0 
0 0 0 0 0 0 0 0 0 
0 0 0 0 0 0 0 0 0 
0 0 0 0 3 0 0 0 0 
0 0 0 0 0 3 0 0 0 
0 0 0 0 0 0 3 0 0 
0 0 0 
plain_torsion_tp_raw 1 120 unsigned_char
0 0 0 0 0 0 0 0 0 
0 0 0 0 0 0 0 0 0 
0 0 0 0 0 0 0 0 0 
0 0 0 1 0 0 0 0 0 
0 0 0 0 0 1 0 0 0 
0 0 0 0 0 0 0 0 0 
0 0 0 0 0 0 0 0 0 
0 0 0 0 0 0 0 0 0 
0 0 0 0 0 0 0 0 0 
0 0 0 1 0 0 0 0 0 
0 1 0 0 0 0 0 0 0 
0 0 0 0 0 0 0 0 0 
0 0 0 0 0 0 1 0 1 
0 0 0 
plain_torsion_tn_raw 1 120 unsigned_char
0 0 0 0 0 0 0 0 0 
0 0 0 0 0 0 0 2 0 
0 0 0 0 0 0 0 0 0 
0 0 0 0 0 0 0 0 0 
0 0 0 2 0 0 0 0 0 
0 0 0 0 0 0 0 0 0 
0 0 0 0 0 0 0 0 0 
0 0 0 0 0 0 0 0 0 
2 0 0 0 0 0 0 0 0 
0 0 0 0 0 0 0 0 2 
0 0 0 0 0 0 0 0 0 
0 0 0 0 0 0 2 0 0 
0 0 0 0 0 0 0 2 0 
0 0 0 
plain_torsion_tz_raw 1 120 unsigned_char
0 0 0 0 0 0 0 3 0 
0 0 0 0 0 0 0 0 0 
0 0 0 0 0 0 0 3 0 
0 0 0 0 3 0 0 0 0 
0 0 0 0 3 0 0 0 0 
0 0 0 0 0 0 0 0 0 
0 0 0 0 0 0 0 0 0 
0 0 0 0 0 0 0 0 0 
0 0 0 0 0 0 0 0 0 
0 0 0 0 0 0 0 0 0 
0 0 0 0 0 0 0 0 0 
0 0 0 0 0 0 0 0 0 
0 0 0 0 0 0 0 0 0 
0 0 0 
weighted_torsion_tp_raw 1 120 unsigned_char
0 0 0 0 0 0 0 0 0 
0 0 0 0 0 0 0 0 0 
0 0 0 0 0 0 0 0 0 
0 0 0 0 0 0 1 0 0 
0 0 0 0 0 0 0 0 0 
1 0 0 0 0 0 0 0 0 
0 0 0 0 0 0 0 0 0 
0 0 0 0 0 0 0 0 0 
0 0 0 0 0 0 0 0 0 
0 0 0 0 0 0 0 0 0 
1 0 0 0 0 0 0 0 0 
0 0 0 1 0 0 0 0 0 
0 0 0 0 0 0 0 0 1 
0 1 0 
weighted_torsion_tn_raw 1 120 unsigned_char
0 0 0 0 0 0 0 0 0 
0 0 0 0 0 0 0 0 0 
0 2 0 0 0 0 0 0 0 
0 0 0 0 0 0 0 0 0 
0 0 0 0 0 0 2 0 0 
0 0 0 0 0 0 0 0 0 
0 0 0 0 0 0 0 0 0 
0 0 0 0 0 0 0 0 0 
0 0 0 0 0 2 0 0 0 
0 0 0 0 0 0 0 0 0 
0 0 0 0 0 0 0 0 2 
0 0 0 0 0 0 0 0 0 
0 0 2 0 0 0 0 0 0 
2 0 0 
weighted_torsion_tz_raw 1 120 unsigned_char
0 0 0 0 0 0 0 0 3 
0 0 0 0 0 0 0 0 0 
0 0 0 0 0 0 0 0 0 
3 0 0 0 0 0 0 3 0 
0 0 0 0 0 0 0 0 3 
0 0 0 0 0 0 0 0 0 
0 0 0 0 0 0 0 0 0 
0 0 0 0 0 0 0 0 0 
0 0 0 0 0 0 0 0 0 
0 0 0 0 0 0 0 0 0 
0 0 0 0 0 0 0 0 0 
0 0 0 0 0 0 0 0 0 
0 0 0 0 0 0 0 0 0 
0 0 0 
