# vtk DataFile Version 5.1
vtk output
ASCII
DATASET POLYDATA
POINTS 120 float
-0.54956 16.5512 -7.17243 -0.955252 16.05 -7.37851 -1.34138 15.5602 -7.43405 
-1.71553 15.0828 -7.36236 -2.08517 14.6192 -7.18701 -2.45742 14.1705 -6.9322 
-2.8386 13.7378 -6.62309 -3.23329 13.3218 -6.28597 -3.64347 12.9228 -5.94795 
-4.06763 12.5404 -5.63623 -4.50024 12.173 -5.3769 -4.93204 11.8173 -5.19332 
-5.35119 11.4689 -5.10411 -5.74519 11.1224 -5.12138 -6.103 10.7724 -5.24926 
-6.41682 10.4154 -5.48347 -6.68259 10.0505 -5.8124 -6.8995 9.68118 -6.21923 
-7.06834 9.31495 -6.68487 -7.18949 8.96204 -7.19071 -7.2614 8.63258 -7.72053 
-7.28015 8.33353 -8.26127 -7.2403 8.06591 -8.80307 -7.13666 7.82356 -9.33876 
-6.96651 7.59362 -9.86314 -6.73151 7.35883 -10.3721 -6.43881 7.1011 -10.8615 
-6.10092 6.8054 -11.3255 -5.73459 6.46282 -11.7553 -5.35898 6.07279 -12.1374 
-4.99348 5.64328 -12.4534 -4.65601 5.19013 -12.6814 -4.36163 4.73491 -12.7991 
-4.12187 4.30207 -12.7881 -3.94462 3.91563 -12.6393 -3.83438 3.5967 -12.3555 
-3.79256 3.36119 -11.9525 -3.81749 3.21881 -11.4578 -3.90425 3.17283 -10.9061 
-4.04439 3.22086 -10.334 -4.22592 3.35606 -9.77451 -4.43379 3.56743 -9.25251 
-4.651 3.84058 -8.78223 -4.85992 4.15736 -8.36616 -5.04333 4.49552 -7.99578 
-5.18565 4.82932 -7.65384 -5.27423 5.13134 -7.31829 -5.30123 5.37525 -6.96688 
-5.26472 5.53976 -6.58178 -5.16856 5.61133 -6.15304 -5.02109 5.58567 -5.68011 
-4.83271 5.4677 -5.17138 -4.61386 5.26919 -4.64205 -4.37405 5.00578 -4.1111 
-4.12207 4.69293 -3.59814 -3.86678 4.34327 -3.12039 -3.61777 3.96447 -2.69031 
-3.38541 3.55924 -2.3138 -3.17977 3.12686 -1.98935 -3.00899 2.66626 -1.70824 
-2.87776 2.17804 -1.45611 -2.78605 1.66587 -1.2155 -2.72896 1.13658 -0.969042 
-2.69747 0.598579 -0.702552 -2.67988 0.0602502 -0.407127 -2.66395 -0.471634 -0.0800703 
-2.63897 -0.993515 0.275576 -2.59763 -1.50524 0.652332 -2.53705 -2.00982 1.04013 
-2.459 -2.51261 1.42835 -2.36898 -3.02001 1.80771 -2.27439 -3.53736 2.17157 
-2.18202 -4.06748 2.51668 -2.09564 -4.60987 2.84294 -2.014 -5.16018 3.15262 
-1.93004 -5.7106 3.44925 -1.83126 -6.25132 3.73658 -1.7019 -6.77145 4.01766 
-1.52586 -7.26123 4.29474 -1.2902 -7.71339 4.56927 -0.987587 -8.1241 4.84215 
-0.617499 -8.49328 5.11399 -0.18583 -8.82398 5.38545 0.296737 -9.12124 5.65762 
0.816988 -9.39073 5.93166 1.36144 -9.63652 6.20896 1.91804 -9.86052 6.49069 
2.47722 -10.0611 6.77832 3.03221 -10.2333 7.07294 3.57871 -10.37 7.37553 
4.11432 -10.4635 7.68674 4.63784 -10.5077 8.0068 5.1488 -10.5008 8.33547 
5.64737 -10.4454 8.67151 6.13463 -10.3496 9.01278 6.61289 -10.2254 9.35555 
7.08587 -10.0859 9.69502 7.55833 -9.94375 10.026 8.03516 -9.80768 10.3447 
8.5201 -9.68147 10.6493 9.01483 -9.56369 10.9421 9.51879 -9.44938 11.2283 
10.0298 -9.3331 11.5154 10.5449 -9.21205 11.8112 11.0616 -9.08885 12.1217 
11.577 -8.97303 12.4495 12.0879 -8.87995 12.7943 12.5887 -8.8286 13.1521 
13.0704 -8.8383 13.5177 13.5204 -8.92549 13.8845 13.9232 -9.10086 14.2468 
14.2629 -9.36827 14.5998 14.5256 -9.7236 14.9404 14.7022 -10.1552 15.2678 
14.7886 -10.6447 15.5847 14.7875 -11.1684 15.8966 14.7059 -11.699 16.2121 
14.5549 -12.2068 16.5423 14.3467 -12.6609 16.899 14.0943 -13.0303 17.2946 

LINES 2 120
OFFSETS vtktypeint64
0 120 
CONNECTIVITY vtktypeint64
0 1 2 3 4 5 6 7 8 
9 10 11 12 13 14 15 16 17 
18 19 20 21 22 23 24 25 26 
27 28 29 30 31 32 33 34 35 
36 37 38 39 40 41 42 43 44 
45 46 47 48 49 50 51 52 53 
54 55 56 57 58 59 60 61 62 
63 64 65 66 67 68 69 70 71 
72 73 74 75 76 77 78 79 80 
81 82 83 84 85 86 87 88 89 
90 91 92 93 94 95 96 97 98 
99 100 101 102 103 104 105 106 107 
108 109 110 111 112 113 114 115 116 
117 118 119 
CELL_DATA 1
FIELD FieldData 2
Length 1 1 double
70.86093912 
Tortuosity 1 1 double
0.7246552141 
POINT_DATA 120
FIELD FieldData 19
Curvature 1 120 double
0 0.34250133717 0.33683158545 0.27844116181 0.20126211361 0.13082481464 0.077229788068 0.052170390929 0.071916737247 
0.11913047461 0.18573515249 0.27293555446 0.36887701706 0.43356770578 0.42336991529 0.34956319634 0.26278861921 0.19766841297 
0.16191462497 0.15123749759 0.15860464326 0.17491477733 0.18962773347 0.19300513032 0.18235278285 0.16492531247 0.15141815412 
0.14786922536 0.15553797866 0.17777895597 0.22385376566 0.31349224279 0.47333260094 0.69884069949 0.85955058915 0.78978063039 
0.58708300032 0.41949575155 0.3217510872 0.27225690496 0.24656650188 0.22788350968 0.20192269767 0.1613484055 0.13354755132 
0.21630283591 0.40979047641 0.60225336048 0.63158379939 0.49021884102 0.32625081681 0.21561065763 0.15410518087 0.12648596738 
0.12064277583 0.13074230687 0.15180086185 0.17556833775 0.18730972189 0.17636170863 0.14506572201 0.10922233683 0.086046464263 
0.079399964693 0.079914588464 0.077864697332 0.07003262644 0.056967111618 0.042897270799 0.038079211527 0.04635233701 0.055781357707 
0.056999234107 0.046376504398 0.029630144001 0.04326642344 0.091323770004 0.15047700196 0.20500849314 0.23617917935 0.23136533998 
0.19669946353 0.14995189159 0.10636990865 0.07499051835 0.057239731722 0.055221589131 0.065709918989 0.084949372112 0.10873495167 
0.13044819515 0.14156812122 0.13793523337 0.11600773525 0.082697281398 0.045022605886 0.02151228873 0.03881440321 0.054193717713 
0.050966799472 0.032392748671 0.0076366793397 0.017393534478 0.031841715116 0.046499680756 0.073962143852 0.11580625114 0.1694347628 
0.23155748392 0.29693953145 0.35400200277 0.38152647435 0.3663384554 0.31751371187 0.2576319673 0.21070046222 0.19251136669 
0.2154887628 0.27968582689 0 
Torsion 1 120 double
0 0 0.075998598257 0.11434528148 0.18817564281 0.35235777858 0.80750312216 1.5747209451 0.90035620075 
0.45085005838 0.29823232801 0.22617435894 0.17942337846 0.14614501347 0.12273920171 0.099044814072 0.062651698125 0.014686333752 
-0.012455119717 0.022279134202 0.10759020566 0.20206864461 0.28835057783 0.37193692332 0.45405119812 0.50934795437 0.48763242392 
0.37036047013 0.20750216513 0.053349463516 -0.059080467049 -0.11183957115 -0.10990647639 -0.081693117179 -0.052817102943 -0.02953698962 
-0.0078575035437 0.0037480438278 -0.0104810608 -0.049363836641 -0.1054700345 -0.18716049232 -0.35129150946 -0.84247234791 -1.9746983736 
-1.2330038787 -0.5171614602 -0.28019776918 -0.19577841599 -0.15187146942 -0.097586217278 -0.024632067986 0.036851156675 0.035227660876 
-0.045960091411 -0.16029918633 -0.24539780394 -0.29209229893 -0.3356661133 -0.41184542809 -0.56171415969 -0.80323174932 -0.97047754492 
-0.8415673524 -0.62494192074 -0.50966139681 -0.50299194294 -0.63397155717 -0.99739016629 -1.1727436965 -0.69562645127 -0.34346569413 
-0.10549520502 0.26675629596 1.6242259665 1.0460338346 0.24121053929 0.071518109901 0.025429852609 0.011862259305 0.012440936543 
0.02744809863 0.05913905905 0.12466779832 0.24300479585 0.36095099756 0.29283597712 0.10962995992 0.0040467741903 -0.026128159635 
-0.020409444827 -0.013482766257 -0.010003975028 -0.02957783203 -0.13671498772 -0.64354251469 -2.7261080629 -0.52898006432 -0.073314859209 
0.081514479566 0.29204635933 3.4833917255 0.95746677244 0.82599907055 0.82136480792 0.50240175485 0.23445504368 0.083779211355 
-0.0031511322003 -0.054789046662 -0.084123415883 -0.10981381973 -0.14825704447 -0.21019019958 -0.31848582518 -0.47943651519 -0.59430364609 
-0.520041897 0 0 
FrenetTangent 3 120 double
-0.61133948632 -0.76515808958 -0.20198299534 -0.61133948632 -0.76515808958 -0.20198299534 -0.61792993123 -0.78612349489 0.013132055329 
-0.60737924522 -0.76837114432 0.20173308368 -0.59252942879 -0.72861458935 0.34355444431 -0.58431900579 -0.68359568907 0.43734223826 
-0.58818365399 -0.64345124711 0.48990864634 -0.60535296783 -0.612951137 0.50777818778 -0.63456255281 -0.59425235936 0.49416039902 
-0.67264155973 -0.58869302249 0.44832338484 -0.71386036666 -0.5971716756 0.36577228815 -0.74799539369 -0.61887367825 0.23978795089 
-0.75848712565 -0.64822406847 0.067103183869 -0.72633453174 -0.67288580826 -0.14022423843 -0.64565993592 -0.67967523536 -0.34808737637 
-0.5348523044 -0.66623154154 -0.51968119607 -0.42117886102 -0.64064373365 -0.64201555554 -0.3202426762 -0.61061108366 -0.72429188375 
-0.23329980429 -0.57855420615 -0.78156652427 -0.15380469755 -0.54364405041 -0.82510318231 -0.072835952334 -0.50493857528 -0.86007671707 
0.017266632385 -0.46369172153 -0.88582834161 0.11950680493 -0.42473150321 -0.89739694325 0.22961793763 -0.3960935418 -0.88903628096 
0.33670073087 -0.38622035784 -0.85875866983 0.42833944182 -0.39978706576 -0.81036758612 0.49651642168 -0.43575966986 -0.75072295364 
0.53974026587 -0.48920192819 -0.68509993348 0.56143887283 -0.55437421831 -0.61437416788 0.56703759444 -0.62704307256 -0.53412110205 
0.56117144964 -0.70461918469 -0.43427918287 0.54505644949 -0.78359255791 -0.29815460763 0.51271115467 -0.85243312307 -0.10239649686 
0.44691815285 -0.87803477009 0.17122823124 0.32818375489 -0.8052082455 0.49389786839 0.16976813931 -0.61901318699 0.76681252807 
0.017335601303 -0.38793208132 0.92152491947 -0.10447925356 -0.17620458763 0.97879314918 -0.197921851 0.0017866526656 0.98021617451 
-0.27017056499 0.15389504132 0.95043368105 -0.32433300336 0.28866790265 0.90082126135 -0.35924736854 0.40948492039 0.83860803011 
-0.37156913318 0.51439917986 0.77287118139 -0.35794340095 0.59753275908 0.71751733327 -0.31562844222 0.65111725277 0.69023547403 
-0.24117357307 0.6641278369 0.70765070756 -0.13059747301 0.61683507347 0.77618219007 0.011293723823 0.4849269559 0.8744817318 
0.15467494491 0.27524348129 0.9488501923 0.2605240336 0.049097606976 0.96421815628 0.32065433544 -0.1371236 0.93721817923 
0.35132834342 -0.27303520163 0.89555579043 0.36864747902 -0.37127664832 0.85220460373 0.3812783376 -0.44676905408 0.80933567918 
0.39163365578 -0.51147925684 0.76486080399 0.39755481149 -0.57426208613 0.71566278952 0.3934261401 -0.64079850618 0.65923679112 
0.37220897759 -0.71178673066 0.59566779925 0.3294056411 -0.78145021316 0.529931588 0.26737670693 -0.84002103094 0.47209571505 
0.19603993618 -0.87967575006 0.43328849301 0.12834489991 -0.89834108602 0.42013197907 0.074597241772 -0.89879980689 0.43196546002 
0.040390833601 -0.88574285575 0.46241558586 0.027067730803 -0.8640974486 0.50259619703 0.032566157432 -0.83881404444 0.543443138 
0.052275643135 -0.81481132574 0.57736449543 0.079886957543 -0.79656803686 0.59924739188 0.10838213575 -0.78752869026 0.60667279044 
0.13132047411 -0.78933046382 0.59976024541 0.14430569404 -0.80103623817 0.58096197105 0.14622525401 -0.81923891461 0.55449596561 
0.139879041 -0.83929197058 0.52537876053 0.1317373041 -0.85675131089 0.49862057117 0.13065069859 -0.86840277549 0.47833776191 
0.1460739019 -0.87221780406 0.46679601269 0.18624176352 -0.86602442904 0.46402122131 0.25586670721 -0.84608614193 0.46762214295 
0.35289717097 -0.80740371452 0.47282431039 0.46605120933 -0.74709879048 0.47396167307 0.57737048213 -0.66937384636 0.46752751809 
0.67097249498 -0.58571949544 0.45467415107 0.74015978793 -0.50838834291 0.44011905336 0.78662994935 -0.4445636759 0.42845823701 
0.81585139851 -0.39484476994 0.42247378996 0.83337856479 -0.35558731791 0.42312861767 0.84359695809 -0.32099385443 0.4304731324 
0.84971004196 -0.28428385625 0.44404451766 0.8535412666 -0.23937575392 0.46278132487 0.85529700813 -0.18193078334 0.48514762491 
0.85368797226 -0.11101133879 0.50881561363 0.84679942472 -0.030586967443 0.53103217578 0.83410245709 0.051507567999 0.54919947333 
0.81771170578 0.1254075611 0.56180113015 0.80222153215 0.18281353959 0.56834832902 0.79272836492 0.21982622485 0.56855797445 
0.79265958422 0.23609248216 0.56209529745 0.80213487391 0.23505259615 0.5489352613 0.81802282979 0.22308714366 0.53016108522 
0.83509616599 0.20798975506 0.50926874569 0.84816730225 0.19710313684 0.49169358431 0.8541455729 0.19405770711 0.48246963283 
0.85242420002 0.19715528062 0.48425486941 0.84476971836 0.19996725585 0.49636399903 0.83445051184 0.19324789157 0.51608874788 
0.82451849496 0.16782558257 0.54037378295 0.81575145584 0.11646704202 0.56655537278 0.80480365099 0.034114488233 0.59255994215 
0.78357429855 -0.081479632823 0.61593212945 0.74008036913 -0.22784977139 0.63274444202 0.66172820022 -0.39462731324 0.63748339011 
0.54280998993 -0.56110504421 0.62491474954 0.39157766319 -0.70147905868 0.59547801296 0.22778442271 -0.79785388377 0.55816076261 
0.071333827708 -0.84752634548 0.52593780881 -0.067238203598 -0.8574123464 0.51021867097 -0.18680970551 -0.83427309857 0.51873936705 
-0.29081143762 -0.77866107825 0.55598168403 -0.38168964023 -0.68238600122 0.62342791394 -0.38168964023 -0.68238600122 0.62342791394 

FrenetNormal 3 120 double
-0.081053680569 -0.19334939258 0.97777620817 -0.081053680569 -0.19334939258 0.97777620817 0.018450948975 0.0021986296694 0.99982734935 
0.087458454614 0.1877208124 0.97832096743 0.10201184639 0.35518190179 0.92921439928 0.030026806864 0.52033375012 0.85343492977 
-0.21124750502 0.70698661706 0.67494030471 -0.68849400079 0.72334831648 0.052375795105 -0.73492425576 0.26606644874 -0.6237747856 
-0.54538363174 -0.015067637314 -0.83805110855 -0.35879293198 -0.1366624045 -0.92335855395 -0.16681315126 -0.17438988174 -0.97044399205 
0.041056709039 -0.15029483283 -0.98778834265 0.25857972786 -0.078479816332 -0.96279667779 0.460021999 0.017641678923 -0.88773224094 
0.61842153774 0.1104316548 -0.77804861755 0.72428255698 0.18849300481 -0.66323839213 0.78376032124 0.25868940923 -0.56462336863 
0.80979121054 0.3293726225 -0.48554286204 0.82511705813 0.38874909293 -0.40994631737 0.85370320121 0.414291548 -0.31552077191 
0.90078959725 0.39170075279 -0.18747965689 0.94838219374 0.31626591645 -0.023389841518 0.96857966497 0.18266737157 0.16877815016 
0.92903399675 -0.012307991609 0.36978959723 0.79896188126 -0.2513754564 0.54632434708 0.57779504022 -0.47950543772 0.66047515222 
0.32484105633 -0.62976128035 0.7056054265 0.11860193887 -0.68085834417 0.72274856988 -0.011716095968 -0.65452198855 0.75595218076 
-0.080956025742 -0.56889189184 0.81841806999 -0.12592505245 -0.42810365743 0.89491348166 -0.18539203756 -0.22637279402 0.95623488251 
-0.27911175603 0.044989919491 0.95920411529 -0.38720689832 0.36223866455 0.84785256254 -0.46247729388 0.63706000688 0.61665979298 
-0.48628084614 0.80204313955 0.34678197903 -0.47724822267 0.87234018018 0.10609780396 -0.44773025897 0.8894205751 -0.092025299713 
-0.39348320115 0.88329466018 -0.25487548666 -0.30839810894 0.86800026056 -0.38918652863 -0.18346603038 0.85007245736 -0.49367705328 
-0.0011696132166 0.83221173388 -0.5544567269 0.31117948879 0.80084007224 -0.51168594318 0.84238553124 0.5271022024 -0.11202626914 
0.89774740965 -0.12429556297 0.42261117056 0.71685306599 -0.48206912063 0.50371722694 0.59568098783 -0.70568509071 0.38363096003 
0.48042002791 -0.86016629139 0.17120323576 0.35546217409 -0.93343083363 -0.048513107612 0.24537656353 -0.94366217405 -0.2220181149 
0.17286043503 -0.92117134573 -0.34865831669 0.14633984845 -0.88216224865 -0.44763200937 0.14315002225 -0.83637627006 -0.52913401517 
0.11825235347 -0.79638866434 -0.59311168949 0.030696120904 -0.77118724891 -0.63586789138 -0.12047800165 -0.74681533653 -0.65402744915 
-0.30713289509 -0.70007978527 -0.64463763388 -0.50357040015 -0.62017185574 -0.60150122314 -0.69787053842 -0.50664471377 -0.50624879814 
-0.87764470371 -0.35448996616 -0.32260911014 -0.99031149439 -0.13873966715 0.0058693136627 -0.8796552775 0.14473137779 0.45305564896 
-0.4926266028 0.38498314345 0.78045307961 -0.062899755665 0.50031185252 0.86355756667 0.28626254575 0.5287804754 0.79902751125 
0.57203382824 0.49833640509 0.65148916085 0.821714166 0.39293686353 0.4127789368 0.99079689509 0.13535068458 -0.0013057058887 
0.76806449351 -0.30149288214 -0.56495926918 0.24437333722 -0.5400732842 -0.80535862804 -0.096006077742 -0.56962711124 -0.81627678344 
-0.25462399791 -0.54324107822 -0.80003484338 -0.23680802802 -0.51564039199 -0.82342998732 0.25993822858 -0.43559108592 -0.86179610303 
0.96636580657 0.024851669415 -0.25596781518 0.97503805529 0.22102663674 0.02116640257 0.94541743528 0.31997735223 0.061647117829 
0.90811668141 0.41727194274 0.034759441061 0.85328697428 0.52114544637 -0.01757166053 0.78091617752 0.61988705814 -0.076876256703 
0.69944243635 0.70351104645 -0.12590665493 0.61854557885 0.77147696712 -0.14907936172 0.54261451746 0.82886748457 -0.13619169751 
0.45739378279 0.88764170059 -0.053694867788 0.34437237198 0.93286461466 0.10569427669 0.20516626101 0.9335145262 0.29403645133 
0.10778873327 0.91806408573 0.38149695081 0.050849515389 0.92224408138 0.38324950247 0.0053191837296 0.93936259337 0.34288427271 
-0.049006431838 0.95555767169 0.290702435 -0.11552867674 0.96393690814 0.23974728771 -0.18273515437 0.96521308635 0.18700684827 
-0.24393812229 0.95950473798 0.14087175119 -0.26978819099 0.96022858493 0.07194022998 -0.19288533733 0.97524505953 -0.108131034 
0.40665317781 0.4821709826 -0.775979598 0.59632957293 -0.36327597224 -0.71583630003 0.56421817196 -0.49035960408 -0.66423287566 
0.54010140255 -0.48574055974 -0.68727475117 0.52850595925 -0.37788392682 -0.76018760111 0.43467479734 0.24287416391 -0.8672196729 
-0.5142786453 0.48318473092 0.70855486082 -0.51164290364 0.030035093753 0.85867306485 -0.37565062527 -0.48574393937 0.78926512218 
-0.20369805455 -0.80293622146 0.56017901321 -0.12288552239 -0.92225737753 0.36652486679 -0.13774994776 -0.96035293616 0.24237819603 
-0.21787702627 -0.96444333477 0.14959497131 -0.34571786849 -0.93591893318 0.067341710073 -0.49917589186 -0.86631119646 -0.018120151128 
-0.65377767192 -0.74937020391 -0.10497167803 -0.78885309613 -0.58907947346 -0.17520321535 -0.89426959411 -0.39820021706 -0.20425102246 
-0.96760730114 -0.18681730248 -0.1698099122 -0.99772760361 0.055567492008 -0.038103580184 -0.9282155357 0.32282907991 0.18492513201 
-0.73300332294 0.55479126469 0.3935896101 -0.49610775242 0.72035183358 0.48473738647 -0.49610775242 0.72035183358 0.48473738647 

FrenetBinormal 3 120 double
-0.78720666494 0.61412467002 0.056183238964 -0.78720666494 0.61412467002 0.056183238964 -0.78601664268 0.6180655441 0.013146125412 
-0.78958309961 0.61185511453 -0.046817172495 -0.79906348885 0.58563350043 -0.13612840982 -0.81096836581 0.51181024059 -0.28351470382 
-0.78065003734 0.29349687542 -0.5517654423 -0.39940430044 -0.31789639301 -0.85989423076 0.23920013558 -0.7589945838 -0.60556627787 
0.50011001425 -0.80821624061 -0.31092841952 0.60139089524 -0.79038558759 -0.1167031022 0.6423988353 -0.76588741961 0.027206559745 
0.65039344006 -0.74646970487 0.14061064272 0.63684744825 -0.73557161953 0.23099722983 0.60951046552 -0.7333009925 0.30127503515 
0.57574978431 -0.73752314044 0.35294730936 0.54591496104 -0.74434265877 0.38461781245 0.53213192649 -0.74848773809 0.39572935036 
0.53833948086 -0.7461827565 0.39166554259 0.54362299012 -0.7438583798 0.38877854288 0.51564112355 -0.75723150255 0.40089235869 
0.4339123931 -0.79470781276 0.42445203199 0.29375046922 -0.84828003647 0.44060372394 0.095545985394 -0.89985695391 0.42559185515 
-0.15338986507 -0.92232442694 0.35466773291 -0.42211992949 -0.881465077 0.21174060348 -0.64778417278 -0.76170075838 0.013697451857 
-0.77663294646 -0.60339224658 -0.18099464978 -0.8189749521 -0.47864510991 -0.31651048416 -0.82360858397 -0.422395492 -0.37848507071 
-0.82373097915 -0.42411533804 -0.37628905648 -0.82888862222 -0.45023323031 -0.33201459348 -0.83830606838 -0.47128879556 -0.27409817018 
-0.84991810917 -0.47647754372 -0.22496301482 -0.86160677859 -0.46949209927 -0.19290134214 -0.87022613815 -0.45932256853 -0.1781270516 
-0.87363059448 -0.45413159171 -0.17474004065 -0.87253551191 -0.45604227144 -0.17523477715 -0.8719888509 -0.45708625932 -0.17523582808 
-0.87873706888 -0.44283954154 -0.17808510389 -0.89425874854 -0.40403760919 -0.19249649614 -0.91503089778 -0.33120826863 -0.23025972053 
-0.92840455151 -0.20692296575 -0.3086225445 -0.88036574642 0.040122070251 -0.47259535758 -0.43676687514 0.54608569965 -0.71486019991 
0.36862568564 0.73721423567 -0.56624224022 0.68488391851 0.62219277967 -0.37922310465 0.80314171386 0.51657951973 -0.29683158064 
0.86329152561 0.42936578481 -0.2652786547 0.89764907993 0.35538191261 -0.26063350798 0.91486126775 0.30116244718 -0.26894244955 
0.92015632645 0.27729971236 -0.27643661917 0.91797804166 0.28972990434 -0.2708743206 0.91330986002 0.31760375815 -0.25493715382 
0.91249080026 0.32272908939 -0.25140897816 0.9170648396 0.2747604112 -0.28896158293 0.91142795843 0.17788796363 -0.3710187987 
0.87585949887 0.056990738927 -0.47918910038 0.79869191539 -0.068719965796 -0.59780330427 0.66444443575 -0.19410255431 -0.72169092429 
0.43738783416 -0.31702908171 -0.84153695336 0.053016325327 -0.41681482451 -0.90744403206 -0.46972528598 -0.41377739838 -0.77983743197 
-0.86930294534 -0.25932136961 -0.4207907039 -0.99765272449 -0.054987721739 -0.040809211846 -0.9575976192 0.12954616043 0.25734139198 
-0.81856249394 0.29621500773 0.49215049803 -0.56427289799 0.45943441745 0.6859417706 -0.081085296653 0.60123103229 0.79495057738 
0.62676300696 0.53484526819 0.56666451468 0.95888348548 0.25818945143 0.11781624864 0.98458164117 0.066125297217 -0.16194578396 
0.95687014457 -0.021865933769 -0.28969191801 0.96258362783 -0.0096009075429 -0.27081466356 0.95674579292 0.2369325334 0.16882079948 
0.21165902548 0.48848592283 0.84651164205 -0.12089167162 0.44849628109 0.88557116573 -0.20178726723 0.42632468202 0.88177614182 
-0.2253612204 0.41711313523 0.88047086991 -0.23387520134 0.41261461557 0.88037013194 -0.23835530215 0.40948588371 0.88062935505 
-0.24612230541 0.40249829836 0.88171363299 -0.26375150279 0.38257624338 0.88547759022 -0.29458921948 0.33962012764 0.89323869188 
-0.35380421566 0.2370439179 0.90478326574 -0.43230525924 0.0576304611 0.89988382183 -0.49623681609 -0.15972969287 0.85336712356 
-0.51611474845 -0.27629879401 0.81073086956 -0.51853797643 -0.30358705966 0.79934552242 -0.51811073543 -0.29068730323 0.80440173892 
-0.51847392957 -0.27310440996 0.81030782152 -0.51921465613 -0.26436730989 0.81272754741 -0.52046225072 -0.25634092217 0.81449885033 
-0.52138446344 -0.25223719275 0.81518994098 -0.53259266364 -0.21104566906 0.81963698075 -0.57825339263 -0.023947958916 0.81550567697 
-0.45422899128 0.84366550445 0.28618969247 0.031155810008 0.9015435902 -0.43156514047 0.11178776489 0.84248417494 -0.52699517133 
0.10442637843 0.8489972735 -0.51797563753 0.035967741662 0.90462925627 -0.42467897318 -0.28547006997 0.95044923421 0.12309789737 
-0.094289226349 -0.85303124863 0.51327110835 0.15679815721 -0.97934212088 0.12768456511 0.40321080221 -0.85247174602 -0.33273558754 
0.5278980527 -0.5719510452 -0.62785002019 0.56519793939 -0.36861464663 -0.73802068508 0.57733528841 -0.27669195816 -0.76819628029 
0.58184269358 -0.25141623546 -0.77346554963 0.57685370991 -0.26858933745 -0.77142696685 0.55940970497 -0.30622572481 -0.77025098991 
0.52719263133 -0.35157563461 -0.77360358235 0.47368526092 -0.40113900855 -0.78403429097 0.38522220836 -0.45262099739 -0.80420027537 
0.24217265703 -0.49678807273 -0.83339907306 0.0043189081701 -0.51162126819 -0.85920022403 -0.32174221547 -0.44695613003 -0.83469285646 
-0.61492669182 -0.29307606154 -0.73210080306 -0.77986544771 -0.12426818254 -0.61348781755 -0.77986544771 -0.12426818254 -0.61348781755 

plain_curvature_peaks 1 120 unsigned_char
0 0 0 0 0 0 0 0 0 
0 0 0 0 0 0 0 0 0 
0 1 0 0 0 0 0 0 0 
0 0 0 0 0 0 0 0 0 
0 0 0 0 1 0 0 0 0 
0 0 0 0 0 0 0 0 0 
0 0 0 0 0 0 0 0 0 
0 0 0 0 0 0 0 0 0 
0 0 0 0 0 0 1 0 0 
0 0 0 0 0 0 0 0 0 
0 0 0 0 0 0 0 0 0 
0 0 0 0 0 0 0 0 0 
0 0 0 0 0 1 0 0 0 
0 0 0 
weighted_curvature_peaks 1 120 unsigned_char
0 0 0 0 0 0 0 0 0 
0 0 0 0 0 0 0 0 0 
0 0 1 0 0 0 0 0 0 
0 0 0 0 0 0 0 0 0 
0 0 0 0 0 0 0 0 1 
0 0 0 0 0 0 0 0 0 
0 0 0 0 0 0 0 0 0 
0 0 0 0 0 0 0 0 0 
0 0 0 0 0 0 0 0 0 
0 0 1 0 0 0 0 0 0 
0 0 0 0 0 0 0 0 0 
0 0 0 0 0 0 0 0 0 
0 0 0 0 0 0 0 0 1 
0 0 0 
plain_torsion_tp 1 120 unsigned_char
0 0 0 0 0 0 0 0 0 
0 0 0 0 0 0 0 0 0 
0 1 0 0 0 0 0 0 0 
0 0 0 0 0 0 0 0 0 
0 0 0 0 1 0 0 0 0 
0 0 0 0 0 0 0 0 0 
0 0 0 0 0 0 0 0 0 
0 0 0 0 0 0 0 0 0 
0 0 0 0 0 0 1 0 0 
0 0 0 0 0 0 0 0 0 
0 0 0 0 0 0 0 0 0 
0 0 0 0 0 0 0 0 0 
0 0 0 0 0 1 0 0 0 
0 0 0 
plain_torsion_tn 1 120 unsigned_char
0 0 0 0 0 0 0 0 2 
0 0 0 0 0 0 0 0 0 
0 0 0 0 0 0 2 0 0 
0 0 0 0 0 0 0 0 0 
0 0 0 0 0 0 0 0 0 
0 0 0 0 0 0 0 0 0 
0 0 0 0 0 2 0 0 0 
0 0 0 0 0 0 0 0 0 
0 0 0 0 0 0 0 0 0 
0 0 0 0 0 0 0 0 0 
0 0 0 0 0 0 2 0 0 
0 0 0 0 0 0 0 0 0 
0 0 0 0 0 0 0 0 0 
0 0 0 
plain_torsion_tz 1 120 unsigned_char
0 0 0 0 0 0 0 0 0 
3 0 0 0 0 0 0 0 0 
0 0 0 0 3 0 0 0 0 
0 3 0 0 0 0 0 0 0 
0 0 0 0 0 0 0 0 0 
0 0 0 0 0 0 0 0 0 
0 0 0 0 0 0 0 0 0 
0 0 3 0 0 0 0 0 0 
0 0 0 0 0 0 0 0 0 
0 0 0 0 0 0 0 3 0 
0 0 0 0 0 0 0 0 0 
0 0 0 3 0 0 0 0 0 
0 0 0 0 0 0 0 0 0 
0 0 0 
weighted_torsion_tp 1 120 unsigned_char
0 0 0 0 0 0 0 0 0 
0 0 0 0 0 0 0 0 0 
0 0 1 0 0 0 0 0 0 
0 0 0 0 0 0 0 0 0 
0 0 0 0 0 0 0 0 1 
0 0 0 0 0 0 0 0 0 
0 0 0 0 0 0 0 0 0 
0 0 0 0 0 0 0 0 0 
0 0 0 0 0 0 0 0 0 
0 0 1 0 0 0 0 0 0 
0 0 0 0 0 0 0 0 0 
0 0 0 0 0 0 0 0 0 
0 0 0 0 0 0 0 0 1 
0 0 0 
weighted_torsion_tn 1 120 unsigned_char
0 0 0 0 0 0 0 0 0 
2 0 0 0 0 0 0 0 0 
0 0 0 0 0 0 0 0 2 
0 0 0 0 0 0 0 0 0 
0 0 0 0 0 0 0 0 0 
0 0 0 0 0 0 0 0 0 
0 0 0 0 0 0 0 0 0 
0 0 2 0 0 0 0 0 0 
0 0 0 0 0 0 0 0 0 
0 0 0 0 0 0 0 0 0 
0 0 0 0 0 0 0 0 0 
0 0 2 0 0 0 0 0 0 
0 0 0 0 0 0 0 0 0 
0 0 0 
weighted_torsion_tz 1 120 unsigned_char
0 0 0 0 0 0 0 0 0 
0 3 0 0 0 0 0 0 0 
0 0 0 0 0 3 0 0 0 
0 0 0 0 3 0 0 0 0 
0 0 0 0 0 0 0 0 0 
0 0 0 0 0 0 0 0 0 
0 0 0 0 0 0 0 0 0 
0 0 0 0 0 0 3 0 0 
0 0 0 0 0 0 0 0 0 
0 0 0 0 0 0 0 0 0 
0 0 0 0 3 0 0 0 0 
0 0 0 0 0 0 0 0 3 
0 0 0 0 0 0 0 0 0 
0 0 0 
plain_torsion_tp_raw 1 120 unsigned_char
0 0 0 0 0 0 0 0 0 
0 0 0 0 0 0 0 0 0 
0 0 0 1 0 0 0 0 1 
0 0 0 0 0 0 0 0 0 
0 0 0 0 0 0 0 0 0 
0 0 0 0 0 0 0 0 0 
0 0 0 0 0 0 0 0 0 
1 0 0 0 0 0 0 0 0 
0 0 0 0 0 0 0 0 0 
0 1 0 0 0 0 0 0 0 
0 0 0 0 0 0 0 0 0 
0 0 0 0 0 0 0 0 1 
0 0 0 0 0 0 0 1 0 
0 0 0 
plain_torsion_tn_raw 1 120 unsigned_char
0 0 0 0 0 0 0 0 0 
0 0 0 0 0 0 0 2 0 
0 0 0 0 2 0 0 0 0 
0 0 0 0 0 0 0 0 0 
0 0 0 0 0 0 0 0 0 
0 0 0 0 0 0 0 0 2 
0 0 0 0 0 0 0 0 0 
0 0 0 0 0 0 2 0 0 
0 0 0 0 0 0 0 0 0 
0 0 0 0 0 0 0 0 0 
0 0 0 0 0 0 0 2 0 
0 0 0 0 0 0 0 0 0 
0 0 0 2 0 0 0 0 0 
0 0 0 
plain_torsion_tz_raw 1 120 unsigned_char
0 0 0 0 0 0 0 0 3 
0 0 0 0 0 0 0 0 0 
0 3 0 3 0 0 3 0 0 
0 0 0 0 0 0 0 0 0 
0 0 0 0 0 0 0 0 0 
0 0 0 0 0 0 0 0 0 
0 0 0 0 0 0 0 0 0 
0 0 0 0 0 0 0 0 0 
0 0 0 0 0 0 0 0 0 
0 0 0 0 0 0 0 0 0 
0 0 0 0 0 0 0 0 0 
0 0 0 0 0 0 0 0 0 
0 0 0 0 0 0 0 0 0 
0 0 0 
weighted_torsion_tp_raw 1 120 unsigned_char
0 0 0 0 0 0 0 0 0 
0 0 0 0 0 0 0 0 0 
0 0 0 0 1 0 0 0 0 
0 1 0 0 0 0 0 0 0 
0 0 0 0 0 0 0 0 0 
0 0 0 0 0 0 0 0 0 
0 0 0 0 0 0 0 0 0 
0 0 0 0 1 0 0 0 0 
0 0 0 0 0 0 0 0 0 
0 0 0 0 0 0 0 1 0 
0 0 0 0 0 0 0 0 0 
0 0 0 0 0 0 0 0 0 
0 0 0 0 1 0 0 0 0 
1 0 0 
weighted_torsion_tn_raw 1 120 unsigned_char
0 0 0 0 0 0 0 0 0 
0 0 0 0 0 0 0 0 0 
2 0 0 0 0 2 0 0 0 
0 0 0 0 0 0 0 0 0 
0 0 0 0 0 0 0 0 0 
0 0 0 0 0 0 0 0 0 
0 0 0 0 2 0 0 0 0 
0 0 0 0 0 0 0 0 0 
0 0 2 0 0 0 0 0 0 
0 0 0 0 0 0 0 0 0 
0 0 0 0 0 0 0 0 0 
0 0 0 2 0 0 0 0 0 
0 0 0 0 0 0 2 0 0 
0 0 0 
weighted_torsion_tz_raw 1 120 unsigned_char
0 0 0 0 0 0 0 0 0 
3 0 0 0 0 0 0 0 0 
0 0 0 3 3 0 0 3 0 
0 0 0 0 0 0 0 0 0 
0 0 0 0 0 0 0 0 0 
0 0 0 0 0 0 0 0 0 
0 0 0 0 0 0 0 0 0 
0 0 0 0 0 0 0 0 0 
0 0 0 0 0 0 0 0 0 
0 0 0 0 0 0 0 0 0 
0 0 0 0 0 0 0 0 0 
0 0 0 0 0 0 0 0 0 
0 0 0 0 0 0 0 0 0 
0 0 0 
