# vtk DataFile Version 5.1
vtk output
ASCII
DATASET POLYDATA
POINTS 120 float
-4.11999 16.3237 -10.276 -4.25335 15.9104 -9.9694 -4.45305 15.4804 -9.68679 
-4.71346 15.036 -9.42401 -5.02885 14.5795 -9.17698 -5.39304 14.1145 -8.94189 
-5.79874 13.646 -8.71563 -6.23627 13.182 -8.49682 -6.69267 12.7332 -8.2871 
-7.15107 12.3135 -8.09245 -7.59126 11.9384 -7.92372 -7.99085 11.6221 -7.79566 
-8.32721 11.3737 -7.72423 -8.57982 11.1927 -7.72268 -8.73329 11.066 -7.79748 
-8.77985 10.9681 -7.94647 -8.72165 10.8654 -8.15886 -8.57237 10.722 -8.41729 
-8.35637 10.5071 -8.70182 -8.1053 10.2008 -8.99414 -7.85279 9.7975 -9.281 
-7.62834 9.3058 -9.55596 -7.45159 8.746 -9.81959 -7.32874 8.14633 -10.0782 
-7.25147 7.53825 -10.3415 -7.19892 6.95184 -10.6198 -7.14213 6.41166 -10.9205 
-7.05007 5.93352 -11.246 -6.89587 5.52342 -11.5908 -6.66213 5.17746 -11.9414 
-6.34396 4.8845 -12.2766 -5.94991 4.63034 -12.5705 -5.5003 4.40107 -12.7951 
-5.02363 4.18684 -12.9252 -4.55183 3.98296 -12.9419 -4.11558 3.79023 -12.8358 
-3.74017 3.61417 -12.6076 -3.44275 3.46265 -12.2676 -3.23124 3.3446 -11.8328 
-3.10509 3.26697 -11.3235 -3.05722 3.23271 -10.7602 -3.07624 3.23961 -10.1609 
-3.14842 3.28018 -9.54029 -3.2592 3.34335 -8.90878 -3.39473 3.41561 -8.27368 
-3.54327 3.48208 -7.6401 -3.69634 3.52822 -7.01242 -3.84909 3.53933 -6.39525 
-3.99982 3.50167 -5.7941 -4.1486 3.40325 -5.2152 -4.29561 3.23443 -4.66487 
-4.43982 2.98955 -4.14847 -4.57846 2.66772 -3.66918 -4.70748 2.27347 -3.22704 
-4.82243 1.81662 -2.81848 -4.91934 1.3115 -2.4366 -4.99517 0.774449 -2.07215 
-5.0479 0.222295 -1.71493 -5.07614 -0.329965 -1.35538 -5.07859 -0.870506 -0.986044 
-5.05359 -1.39228 -0.602745 -4.99891 -1.89252 -0.205359 -4.9118 -2.37274 0.202123 
-4.78927 -2.83729 0.611893 -4.62826 -3.29113 1.0141 -4.42567 -3.7379 1.39806 
-4.17824 -4.17755 1.75501 -3.88263 -4.60562 2.07908 -3.53584 -5.01379 2.36836 
-3.13608 -5.39169 2.62481 -2.68368 -5.72966 2.85331 -2.18179 -6.02046 3.06052 
-1.63645 -6.26058 3.2539 -1.05588 -6.45032 3.44061 -0.449497 -6.59231 3.62637 
0.173264 -6.6901 3.81546 0.803829 -6.74703 4.01033 1.43508 -6.76504 4.21224 
2.06147 -6.74389 4.42123 2.67888 -6.68198 4.63685 3.28444 -6.57682 4.85879 
3.87619 -6.4269 5.08691 4.45292 -6.23374 5.32172 5.01405 -6.0038 5.56432 
5.5595 -5.74884 5.81617 6.08972 -5.48645 6.07918 6.60568 -5.23761 6.35535 
7.10877 -5.02429 6.64659 7.6011 -4.8659 6.95405 8.08468 -4.77558 7.27853 
8.56146 -4.75768 7.62002 9.03224 -4.8072 7.97802 9.4955 -4.91073 8.35193 
9.9466 -5.05009 8.74104 10.3769 -5.20671 9.14565 10.7747 -5.36504 9.56612 
11.1263 -5.51573 10.0031 11.4192 -5.65634 10.4568 11.6439 -5.79097 10.9259 
11.7966 -5.93004 11.4071 11.8797 -6.0885 11.895 11.9013 -6.2835 12.3818 
11.8728 -6.53081 12.8589 11.8075 -6.84235 13.3172 11.718 -7.22327 13.7489 
11.615 -7.67152 14.148 11.5068 -8.17922 14.5112 11.3992 -8.73315 14.8393 
11.2961 -9.31803 15.1371 11.1998 -9.91753 15.4135 11.1114 -10.5163 15.68 
11.0308 -11.1017 15.9499 10.9566 -11.6648 16.2348 10.8858 -12.2007 16.5443 
10.8138 -12.7094 16.8833 10.7344 -13.1946 17.2528 10.6401 -13.6631 17.6503 
10.5231 -14.123 18.0709 10.3749 -14.5838 18.5089 10.1874 -15.0547 18.958 

LINES 2 120
OFFSETS vtktypeint64
0 120 
CONNECTIVITY vtktypeint64
0 1 2 3 4 5 6 7 8 
9 10 11 12 13 14 15 16 17 
18 19 20 21 22 23 24 25 26 
27 28 29 30 31 32 33 34 35 
36 37 38 39 40 41 42 43 44 
45 46 47 48 49 50 51 52 53 
54 55 56 57 58 59 60 61 62 
63 64 65 66 67 68 69 70 71 
72 73 74 75 76 77 78 79 80 
81 82 83 84 85 86 87 88 89 
90 91 92 93 94 95 96 97 98 
99 100 101 102 103 104 105 106 107 
108 109 110 111 112 113 114 115 116 
117 118 119 
CELL_DATA 1
FIELD FieldData 2
Length 1 1 double
70.299914571 
Tortuosity 1 1 double
0.55496826244 
POINT_DATA 120
FIELD FieldData 19
Curvature 1 120 double
0 0.23800869961 0.18833053707 0.14459061739 0.10967663252 0.083923696065 0.066602006057 0.057065453445 0.054928295462 
0.062689655344 0.091192179521 0.17648087534 0.45098041376 1.4550369852 3.7145212079 2.5392879569 0.81641483981 0.38897756418 
0.30700726106 0.27009722967 0.23385150984 0.19352022466 0.14968834671 0.10505484288 0.074601718007 0.10337161063 0.18425003982 
0.27676009968 0.33706504928 0.34086099697 0.31463535121 0.30362961757 0.33368242883 0.40633004894 0.5087374452 0.60248583793 
0.62728946427 0.56033021636 0.44398184506 0.32915506623 0.23580188805 0.16263060372 0.1050283374 0.059367815252 0.033461436076 
0.048809349701 0.084063211975 0.12465859642 0.16777220601 0.20945765788 0.23877511483 0.24562916611 0.22598050184 0.18661590454 
0.13913020683 0.095715834771 0.064581297919 0.056555354577 0.068489917574 0.083569027497 0.093271898494 0.095870955076 0.096127529401 
0.10219165127 0.11717497931 0.13686867179 0.15679388271 0.17433407569 0.18811375441 0.19457509603 0.19062282699 0.17509936126 
0.15182639227 0.12816896041 0.10894988679 0.095885126185 0.090156190786 0.091455579022 0.097091988402 0.10531996792 0.11100556946 
0.10902513836 0.09562310241 0.072654886519 0.04637498657 0.050274342205 0.094239593681 0.14945437279 0.19701171278 0.21679574736 
0.1997950106 0.15586380369 0.1085208287 0.083310694154 0.094196277463 0.1315498012 0.17780486603 0.22453440664 0.25636885187 
0.26752324647 0.26295062517 0.25554242649 0.24648201247 0.22916190988 0.20190272974 0.16909598449 0.13264131566 0.096901393814 
0.060289763825 0.025346902416 0.024786206326 0.057795271164 0.087233923183 0.1031545763 0.10353132684 0.092366941349 0.079029745102 
0.073326287739 0.077759780106 0 
Torsion 1 120 double
0 0 -0.062309758815 -0.086998170967 -0.12443219955 -0.16448171646 -0.17397483207 -0.095664125881 0.11532131648 
0.4311065635 0.73996135794 0.99892935897 1.2697806354 1.1088318334 0.70680464598 1.1713341669 2.8785501575 2.4177864591 
1.0344627356 0.53184426712 0.37117589671 0.33733225161 0.41021348997 0.73255052134 1.5945124692 1.1177518195 0.54280260618 
0.38371259795 0.37566779797 0.44655602049 0.54609431734 0.55927000103 0.42839593738 0.25937150964 0.12317607892 0.034477391779 
-0.027072302082 -0.072604297135 -0.095004133409 -0.091423047616 -0.057664390858 0.0049183244077 0.12814702711 0.55053729062 1.7763459529 
0.68611835108 0.12693753225 -0.0056730161147 -0.026528764614 -0.0085917427095 0.021446640324 0.054167254727 0.090619464255 0.14207363873 
0.23741157413 0.44221113569 0.83840728958 0.89420638079 0.41707052863 0.098284761921 -0.10356785978 -0.28380454039 -0.42123668999 
-0.41919482846 -0.25954157217 -0.069437685369 0.077657727027 0.17394415518 0.21371439164 0.21662685054 0.20779861523 0.20006387524 
0.19726196296 0.19801338937 0.18908690099 0.15899248217 0.10324476265 0.040775061551 0.0094203123818 0.0030400188372 0.020936099948 
0.065611043021 0.15318075 0.39778539636 1.2987962374 1.3367954421 0.43872614352 0.17127871694 0.074203364452 0.019842091936 
-0.047630237013 -0.17872260259 -0.49081558774 -0.86773604701 -0.5310258458 -0.10079475881 0.10738538602 0.23452167564 0.34922634343 
0.46704084959 0.54521572779 0.5216547959 0.41350668093 0.28974649273 0.19914794958 0.13804253762 0.10932640518 0.12518662607 
0.26723217974 1.4205138134 1.534210419 0.31402815175 0.18629118224 0.2000227748 0.28093829418 0.42985351482 0.61358803985 
0.65057787924 0 0 
FrenetTangent 3 120 double
-0.30801381066 -0.77990124342 0.54486837213 -0.30801381066 -0.77990124342 0.54486837213 -0.40768439597 -0.77476774884 0.48324773009 
-0.48610562045 -0.76056832611 0.43039185296 -0.54700696264 -0.7417462375 0.38806687823 -0.59450883061 -0.72085882592 0.35626086429 
-0.63226324193 -0.69919819537 0.33371406397 -0.66336111251 -0.67737098204 0.31799463377 -0.69061847806 -0.65563053625 0.30527809894 
-0.7168599053 -0.6340922932 0.28989453233 -0.74476799578 -0.61322153253 0.26321091259 -0.77564304114 -0.59512559956 0.21024603083 
-0.80406799155 -0.58612898022 0.099636757871 -0.78890575921 -0.59780948497 -0.14230784507 -0.5335502672 -0.59915913352 -0.59693588022 
0.028161362792 -0.48504712393 -0.8740344531 0.36379902903 -0.43144939843 -0.82553115209 0.48958630651 -0.4803115436 -0.7277403861 
0.514964857 -0.57472552796 -0.63600453109 0.48177814212 -0.67886231584 -0.55410809227 0.41140874573 -0.77195338232 -0.48459345792 
0.32156246027 -0.84276707345 -0.43167261211 0.22931721773 -0.8874842288 -0.39973160656 0.15037015609 -0.90751591518 -0.39217812261 
0.098504694067 -0.9063366762 -0.41091441277 0.085999743342 -0.886108423 -0.45542936536 0.12355587004 -0.84527715005 -0.51984659909 
0.21607924722 -0.7793601874 -0.5881389778 0.35330965324 -0.68856285179 -0.63328783982 0.50739625157 -0.58739513908 -0.63048869497 
0.64953137697 -0.49897069071 -0.57370483714 0.76562686094 -0.43870764278 -0.47047966372 0.85252475796 -0.40818256338 -0.32647899171 
0.90598594745 -0.39938414373 -0.14029172736 0.91269427851 -0.39864159718 0.089855611756 0.85244552865 -0.38732286046 0.35116608955 
0.7160806505 -0.34863170667 0.60471847589 0.52718984548 -0.27923722581 0.80255681328 0.33054105449 -0.19155342367 0.92414820087 
0.15930282503 -0.10243020769 0.98190155438 0.024798860425 -0.023527118737 0.99941557483 -0.074498156701 0.038773387617 0.99646708378 
-0.14409548873 0.081707181809 0.98618478318 -0.18984908192 0.10438512136 0.97624846865 -0.21726721047 0.10610686914 0.97032792992 
-0.23169843615 0.08650930911 0.96893342089 -0.23833246675 0.044618495576 0.9701581444 -0.24165814765 -0.021139985701 0.97013114612 
-0.24448728268 -0.1110869883 0.96326821272 -0.24700587178 -0.22315901167 0.94296773795 -0.24666841595 -0.35040423452 0.90353282453 
-0.23968452936 -0.48024065205 0.84375366222 -0.22355834719 -0.59809631172 0.76961189395 -0.19870364052 -0.6931664003 0.69284717271 
-0.16774855445 -0.76167893111 0.62586390564 -0.13354905978 -0.80574031049 0.57701577161 -0.097921754133 -0.82961783378 0.54967770551 
-0.061379405708 -0.83724343608 0.54337463807 -0.023356372362 -0.83170063365 0.55473285089 0.017312308848 -0.81584392772 0.5780129493 
0.06183614907 -0.79315661424 0.60587034583 0.11108974678 -0.76813938007 0.63057193161 0.16550923419 -0.74587271811 0.64519809499 
0.2253483102 -0.72990778015 0.64533152066 0.29098343144 -0.72074932688 0.62916536016 0.36296589511 -0.71494346423 0.59758815412 
0.44168438689 -0.70576467379 0.55390534173 0.5265929301 -0.6854981489 0.50278442082 0.61510361769 -0.64766152524 0.44964662594 
0.70194120639 -0.58966922349 0.39946057333 0.78024723902 -0.51410604194 0.35624320855 0.84414500351 -0.42796084548 0.32290668589 
0.89096913767 -0.34015556142 0.30077930408 0.92191039225 -0.25765922799 0.28929733992 0.94027901139 -0.18342661464 0.28675783823 
0.94954748197 -0.11721909891 0.2908939022 0.95242159327 -0.056570710681 0.29948766813 0.9505478001 0.002372174406 0.3105692395 
0.94449014145 0.063075137573 0.3224281311 0.93385769388 0.12757881805 0.33411592714 0.91797762188 0.19556994347 0.34506446199 
0.89688119713 0.26333551047 0.35532875927 0.87227481148 0.32434281996 0.36597593966 0.84767756202 0.37145186496 0.37876940592 
0.82748590717 0.39798842657 0.39607106149 0.81530312727 0.39840284001 0.42018565864 0.81225258953 0.36837173859 0.45226982324 
0.81617010319 0.30477710166 0.49089436844 0.82081523816 0.20918660026 0.53151040542 0.81825134942 0.092205620929 0.56741770562 
0.80424600686 -0.026837150944 0.5936902625 0.78066202635 -0.12791347853 0.61172292962 0.75229831401 -0.19984482219 0.62778124675 
0.72100132672 -0.24211422416 0.64925941604 0.68402049996 -0.26014014253 0.68150059566 0.63507916116 -0.26188556428 0.72669829385 
0.5666457988 -0.25613073012 0.78314084799 0.47341303241 -0.25176428141 0.84409409863 0.3565296537 -0.25857308067 0.89778982395 
0.22660123885 -0.28588418781 0.93108652106 0.10048073367 -0.33919637923 0.93533386471 -0.0065192657925 -0.41704777365 0.90886118504 
-0.08573241198 -0.5109642337 0.85531602663 -0.135991248 -0.60833077 0.78194632472 -0.16186979277 -0.69713217676 0.69843031028 
-0.1702362235 -0.77046687264 0.61432924915 -0.16787531146 -0.82607776159 0.53797157137 -0.16001010986 -0.86504820461 0.47548750609 
-0.14978627623 -0.88968554952 0.43130464226 -0.13905796944 -0.90202462865 0.40867401489 -0.12894203594 -0.90331443964 0.40914175357 
-0.1204992473 -0.8938737191 0.43182138171 -0.11529404257 -0.8736989355 0.47260708189 -0.11535862603 -0.84393127123 0.52390113269 
-0.12310316206 -0.80810543965 0.57603056334 -0.14049187123 -0.77153296387 0.62048281184 -0.16832846588 -0.7395356156 0.6517304664 
-0.20611667668 -0.71565173098 0.66735186787 -0.25246429476 -0.70076145047 0.66722947282 -0.25246429476 -0.70076145047 0.66722947282 

FrenetNormal 3 120 double
-0.86384494832 -0.010698284994 -0.50364417197 -0.86384494832 -0.010698284994 -0.50364417197 -0.83341351201 0.099467396056 -0.54362501333 
-0.80568860125 0.19929037554 -0.55780751521 -0.78601176099 0.29557872722 -0.54297212415 -0.77468398512 0.3947595446 -0.49399354768 
-0.76436907274 0.49266806007 -0.4159544485 -0.74663152175 0.57078787585 -0.34167612079 -0.72202429661 0.60078673114 -0.34312711755 
-0.68230573493 0.55248097424 -0.47877307483 -0.58138505411 0.40262917294 -0.70702274925 -0.3921798702 0.19342562416 -0.89932278818 
-0.13149397442 0.011884047738 -0.99124573346 0.21987404579 -0.058351613634 -0.97378154284 0.69975589634 0.083697936074 -0.70946200817 
0.96798072776 0.23142479189 -0.097241330658 0.90700396455 -0.037740943479 0.41942750206 0.46058827914 -0.56621446912 0.6835639049 
-0.060924701714 -0.7646086837 0.64160871372 -0.39653266872 -0.73277926615 0.5529885982 -0.62493954819 -0.62593028832 0.46654242601 
-0.79289747659 -0.48886071651 0.36377024544 -0.91948255337 -0.33224272977 0.21015851769 -0.98840924643 -0.12962383519 -0.079024191969 
-0.71448759656 0.22300737286 -0.6631554765 0.16378349946 0.46347790944 -0.87084050937 0.59339283088 0.48281619733 -0.64402908929 
0.75969084553 0.5125938796 -0.40014664038 0.82628612758 0.54710852203 -0.13387867826 0.82694319965 0.53765796056 0.16458694355 
0.76014936681 0.4428147276 0.47548717875 0.61064473168 0.26563876226 0.74602215762 0.39532400289 0.094919232424 0.91362425102 
0.15531228407 0.0053167043786 0.98785111584 -0.095086289379 0.0066770618168 0.99544664067 -0.34910278669 0.078307249082 0.93380684248 
-0.57981721468 0.18526606927 0.79340310129 -0.74499681664 0.30239119137 0.59459171755 -0.83169187922 0.40374158584 0.38115790679 
-0.85671709119 0.47988989506 0.1890542628 -0.84970121406 0.52620103298 0.033471177392 -0.84007454576 0.53598090719 -0.083661369228 
-0.85059667915 0.49905062802 -0.16563139827 -0.92102889059 0.32549434023 -0.21391404157 -0.89852990172 -0.41012291117 -0.15634325523 
-0.29067492092 -0.9566896211 0.015907835581 -0.072612131102 -0.99696676653 0.028013297726 -0.032555511604 -0.9990232121 -0.029879095383 
-0.02793731104 -0.99219649701 -0.12151385914 -0.014885273116 -0.97213224557 -0.23396009441 0.019849113665 -0.93397345417 -0.35679069437 
0.077190278069 -0.87576213499 -0.47653157702 0.15347554029 -0.80134680978 -0.57817691841 0.24900466358 -0.71945233159 -0.64837105124 
0.3769324795 -0.63617700015 -0.67320184965 0.5693313447 -0.53894409334 -0.62080680102 0.85231864666 -0.35505525535 -0.38404256301 
0.99515546247 -0.0094451912871 0.097859051085 0.86839784478 0.25804071738 0.42343850954 0.77815377492 0.37399969993 0.50457995107 
0.77760455843 0.41883614786 0.46894288773 0.8458485661 0.40617743238 0.34577463276 0.93733760598 0.32236296307 0.13221320832 
0.97367537153 0.19201994352 -0.12281942909 0.93766036306 0.084204230319 -0.33719829647 0.88669700697 0.067894196123 -0.45733881966 
0.8512245905 0.13461763474 -0.5072423375 0.82291027727 0.26260339609 -0.5038433605 0.78067483784 0.42041645509 -0.46238166254 
0.71219571765 0.57523257339 -0.40234903538 0.62005426888 0.71056719474 -0.33260632195 0.51315941263 0.81935781646 -0.25557814038 
0.40126908203 0.89986168248 -0.17097390508 0.291222173 0.95339507715 -0.078914338442 0.18532890785 0.98245761061 0.020742209956 
0.089055640049 0.99012319453 0.10828274389 0.0038212311162 0.98476274217 0.17386126605 -0.066159396931 0.97856590479 0.19501718944 
-0.12860209802 0.9740662163 0.18616258123 -0.1914100808 0.96744182425 0.16558531839 -0.25767950301 0.95544010922 0.14399816468 
-0.33033799793 0.93307467523 0.14229707507 -0.40855834145 0.89462263673 0.18091550372 -0.49329773353 0.8145823101 0.30514423829 
-0.55625765511 0.48502647446 0.67477903066 -0.23628137854 -0.43359157929 0.86958004377 0.019089180368 -0.79172785976 0.61057562944 
0.06437028605 -0.89224621925 0.44693752416 0.020199135788 -0.9405738103 0.33898805627 -0.062628871595 -0.96687878088 0.24743291522 
-0.16531811543 -0.96965343985 0.18011698224 -0.28553365521 -0.94369581806 0.16705907554 -0.44530905621 -0.85649818352 0.26098027912 
-0.65028813172 -0.56004474756 0.51329837957 -0.72439618088 -0.13231954927 0.67656611651 -0.74167029342 0.056176058604 0.66840812854 
-0.79634117467 0.073788456944 0.60032990693 -0.87068554234 0.011340279496 0.49170934954 -0.93420457039 -0.11119562965 0.33896512004 
-0.94813903357 -0.28351909663 0.14369862512 -0.86946623493 -0.48693857505 -0.083182272456 -0.69586209823 -0.6508305935 -0.30363708404 
-0.4757962883 -0.73326233614 -0.48574091699 -0.28177293819 -0.73293281221 -0.61920392771 -0.12914035067 -0.68671256754 -0.71536607371 
-0.015593423119 -0.62124491247 -0.78346129699 0.071595016316 -0.55449173919 -0.82910377204 0.1491851949 -0.49735325954 -0.85462477898 
0.27165555845 -0.45646987065 -0.84725351268 0.62815969587 -0.39937869136 -0.66776646919 0.59680064239 0.25881509445 0.75950229764 
0.19436418419 0.40532838335 0.89327009664 0.058160474045 0.46902606358 0.88126721881 -0.052383741547 0.53185693098 0.84521248724 
-0.19053803886 0.58889290786 0.78543007252 -0.39497063723 0.61834615143 0.67944553331 -0.66403225995 0.57370985442 0.47949782135 
-0.89813033088 0.40908003191 0.16129301363 -0.96703134117 0.20649785512 -0.14902691373 -0.96703134117 0.20649785512 -0.14902691373 

FrenetBinormal 3 120 double
0.39862187309 -0.62581115139 -0.67041852979 0.39862187309 -0.62581115139 -0.67041852979 0.37311573443 -0.6243726231 -0.68625321583 
0.33847777413 -0.61791517827 -0.70965740247 0.28804321621 -0.60203466277 -0.74470488814 0.21546223225 -0.56967311245 -0.7931258232 
0.12642433923 -0.51807341774 -0.84594138111 0.04993400794 -0.46407946892 -0.88438500744 0.041557584936 -0.45738813236 -0.88829559467 
0.14342510329 -0.54100992302 -0.828696267 0.32758518179 -0.67959480659 -0.65638315604 0.49454304377 -0.78000772347 -0.38342551974 
0.57981376291 -0.81013059932 -0.08662801153 0.57383195021 -0.799511669 0.17747671413 0.47504294322 -0.79624304595 0.37460808037 
0.24943986917 -0.84331005761 0.47603350554 -0.212118068 -0.9013473458 0.37759619629 -0.74038077068 -0.66985221956 -0.055984983313 
-0.85504349409 -0.29165755316 -0.42876158282 -0.78144204162 -0.046695858866 -0.62222811922 -0.66347072659 0.11090198233 -0.7399373928 
-0.51760136761 0.22529726975 -0.82542714063 -0.31932029013 0.3193532717 -0.89221524318 0.020880079568 0.39951536272 -0.91648867818 
0.69267907404 0.35891717851 -0.62559904041 0.9827405606 0.00030024508066 0.18498891968 0.79537343131 -0.2288996706 0.56123617628 
0.61333480102 -0.3603404125 0.70283369938 0.43866105856 -0.47597632741 0.76224865461 0.24230969529 -0.60488913698 0.75854804959 
0.016790785176 -0.74494521063 0.66691431436 -0.20230798669 -0.85847053074 0.4712746825 -0.34193635345 -0.90795227533 0.24228536051 
-0.39378618239 -0.91676825774 0.066846123039 -0.39742641022 -0.9170824902 -0.031811234151 -0.38918358779 -0.91861252795 -0.068462825596 
-0.38863929232 -0.91876679124 -0.069477217708 -0.40871825261 -0.91136498677 -0.048613278859 -0.44612916218 -0.8945948903 -0.025860257373 
-0.49056950129 -0.87132872165 -0.011305893598 -0.52668098821 -0.85003467434 -0.0069418353824 -0.53733116625 -0.84333925056 -0.0073570536223 
-0.50568941016 -0.86271223888 -0.0024110866378 -0.34009279439 -0.93976442842 0.034346910857 0.38136462208 -0.90583692244 0.18444645556 
0.92834472317 -0.27795882487 0.24680957567 0.96846533945 -0.063768772022 0.24084939279 0.96981517741 -0.038803642629 0.24073387585 
0.96924995499 -0.056619716904 0.2394759537 0.96889964803 -0.0718258494 0.23680058996 0.96889664323 -0.070074669672 0.23733696596 
0.9677773439 -0.049087666953 0.24697654462 0.96253151841 -0.011139675029 0.27094092291 0.94789954149 0.043688488861 0.31555946378 
0.91092388726 0.12297979665 0.39381930024 0.81118830648 0.24560500059 0.53070869139 0.51377451729 0.43089443663 0.74186638276 
-0.076799570785 0.54674876964 0.83376711906 -0.4953177395 0.49161879964 0.71622014268 -0.62783515873 0.4410475145 0.64132683042 
-0.62570555485 0.44212992042 0.64266141326 -0.52172720017 0.49495634778 0.69485174131 -0.30660219473 0.58288593088 0.75248859511 
-0.034269665305 0.65602055895 0.75396459882 0.19005706031 0.68806253742 0.7003201114 0.28639863272 0.69587802171 0.65858150755 
0.28342829589 0.69553886854 0.6602227529 0.21335079455 0.67906681866 0.70238856359 0.11042797229 0.63544044017 0.76421273866 
0.0074701096993 0.56691947698 0.82373934232 -0.082139817644 0.48040528661 0.8731917378 -0.15519868003 0.38144761547 0.91126894294 
-0.21250204595 0.27302590801 0.93824289713 -0.25548165219 0.15700174868 0.95398090982 -0.28553209393 0.033641052305 0.95777852499 
-0.30071360538 -0.076913864155 0.95060800809 -0.30475975269 -0.16444481243 0.93812546965 -0.30344985407 -0.205920234 0.93033060968 
-0.30232411927 -0.21729365679 0.92810753344 -0.30211254285 -0.21858628019 0.92787286282 -0.30152671433 -0.22110313184 0.92746700515 
-0.29407639375 -0.24500216198 0.92384685704 -0.26873171547 -0.30733055981 0.91286975638 -0.19519246128 -0.44551001345 0.87373950979 
0.076449294103 -0.77868769824 0.62273668114 0.52863212238 -0.80825337577 -0.2593733983 0.58299342535 -0.48730817589 -0.65011491885 
0.57421496753 -0.3331780343 -0.74784327805 0.57083652626 -0.26751051129 -0.77626270465 0.57143884504 -0.2379990474 -0.78537513318 
0.5708399786 -0.24300611908 -0.78427657425 0.55591126302 -0.3050841605 -0.77323109266 0.48553794001 -0.47589169847 -0.73333484857 
0.23933748683 -0.79229450534 -0.56123701251 -0.085826154341 -0.95646152203 -0.27895380999 -0.21586948586 -0.96346261041 -0.15855649913 
-0.21154969212 -0.96382172247 -0.16215552737 -0.13336711405 -0.96772214228 -0.21383888379 0.012183049439 -0.95957047365 -0.28120469307 
0.22289964461 -0.91536176073 -0.33530373608 0.48366526491 -0.80488299799 -0.34384774402 0.71814583437 -0.63442154208 -0.28596480121 
0.87536726326 -0.4485999312 -0.18025053715 0.9497949209 -0.30453762832 -0.071738700624 0.97832557976 -0.2059916933 0.021130127227 
0.98527989595 -0.14295298837 0.093744171822 0.98320498038 -0.10066997053 0.15222852424 0.97577689169 -0.065812908509 0.2086339347 
0.95066678127 -0.0097406452338 0.31006094694 0.76555749465 0.16385429564 0.62215230626 -0.79196145399 0.34210783392 0.50572649265 
-0.97350012599 0.19156898485 0.12489527108 -0.9916272702 0.12909191216 -0.0032611666808 -0.99194169739 0.070058649699 -0.1055625624 
-0.97393062753 -0.013066808358 -0.22646940474 -0.90788778483 -0.1496159172 -0.39160547427 -0.72850990749 -0.35205692182 -0.58764720579 
-0.3884299478 -0.56612377396 -0.72706674261 -0.033349138788 -0.68285578665 -0.72979162066 -0.033349138788 -0.68285578665 -0.72979162066 

plain_curvature_peaks 1 120 unsigned_char
0 0 0 0 0 0 0 0 0 
0 0 0 0 0 0 1 0 0 
0 0 0 0 0 0 0 0 0 
0 0 0 0 0 0 0 0 0 
0 0 0 0 0 0 0 0 0 
0 1 0 0 0 0 0 0 0 
0 0 0 0 0 0 0 0 0 
0 0 0 0 0 0 0 0 0 
0 0 0 0 0 0 0 1 0 
0 0 0 0 0 0 0 0 0 
0 0 0 0 0 0 0 0 0 
0 0 0 0 0 0 0 0 0 
0 0 0 1 0 0 0 0 0 
0 0 0 
weighted_curvature_peaks 1 120 unsigned_char
0 0 0 0 0 0 0 0 0 
0 0 0 0 0 0 0 0 1 
0 0 0 0 0 0 0 0 0 
0 0 0 0 0 0 0 0 0 
0 0 0 0 0 0 0 0 0 
0 0 0 0 0 1 0 0 0 
0 0 0 0 0 0 0 0 0 
0 0 0 0 0 0 0 0 0 
0 0 0 0 0 0 0 0 0 
0 0 0 1 0 0 0 0 0 
0 0 0 0 0 0 0 0 0 
0 0 0 0 0 0 0 0 0 
0 0 0 0 0 0 1 0 0 
0 0 0 
plain_torsion_tp 1 120 unsigned_char
0 0 0 0 0 0 0 0 0 
0 0 0 0 0 0 1 0 0 
0 0 0 0 0 0 0 0 0 
0 0 0 0 0 0 0 0 0 
0 0 0 0 0 0 0 0 0 
0 1 0 0 0 0 0 0 0 
0 0 0 0 0 0 0 0 0 
0 0 0 0 0 0 0 0 0 
0 0 0 0 0 0 0 1 0 
0 0 0 0 0 0 0 0 0 
0 0 0 0 0 0 0 0 0 
0 0 0 0 0 0 0 0 0 
0 0 0 1 0 0 0 0 0 
0 0 0 
plain_torsion_tn 1 120 unsigned_char
0 0 0 0 0 0 2 0 0 
0 0 0 0 0 0 0 0 0 
0 0 0 0 0 0 0 0 0 
0 0 0 2 0 0 0 0 0 
0 0 0 0 0 0 0 0 0 
0 0 0 0 0 0 0 0 0 
0 0 0 0 0 2 0 0 0 
0 0 0 0 0 0 0 0 0 
0 0 0 0 0 0 0 0 0 
0 0 0 0 0 0 0 0 0 
0 0 0 0 0 2 0 0 0 
0 0 0 0 0 0 0 0 0 
0 0 0 0 0 0 0 0 0 
0 0 0 
plain_torsion_tz 1 120 unsigned_char
0 0 0 0 0 0 3 0 0 
0 0 0 0 0 0 0 0 0 
0 0 0 0 0 0 3 0 0 
0 0 0 0 0 0 0 0 0 
3 0 0 0 0 0 0 0 0 
0 0 0 0 0 0 0 0 0 
0 0 0 0 0 0 0 0 0 
0 0 0 3 0 0 0 0 0 
0 0 0 0 0 0 0 0 0 
0 0 0 0 0 0 0 0 0 
3 0 0 0 0 0 0 0 0 
0 0 3 0 0 0 0 0 0 
0 0 0 0 0 0 0 0 0 
0 0 0 
weighted_torsion_tp 1 120 unsigned_char
0 0 0 0 0 0 0 0 0 
0 0 0 0 0 0 0 0 1 
0 0 0 0 0 0 0 0 0 
0 0 0 0 0 0 0 0 0 
0 0 0 0 0 0 0 0 0 
0 0 0 0 0 1 0 0 0 
0 0 0 0 0 0 0 0 0 
0 0 0 0 0 0 0 0 0 
0 0 0 0 0 0 0 0 0 
0 0 0 1 0 0 0 0 0 
0 0 0 0 0 0 0 0 0 
0 0 0 0 0 0 0 0 0 
0 0 0 0 0 0 1 0 0 
0 0 0 
weighted_torsion_tn 1 120 unsigned_char
0 0 0 0 0 0 0 2 0 
0 0 0 0 0 0 0 0 0 
0 0 0 0 0 0 0 0 0 
0 0 0 0 0 0 0 2 0 
0 0 0 0 0 0 0 0 0 
0 0 0 0 0 0 0 0 0 
0 0 0 0 0 0 0 0 0 
0 0 2 0 0 0 0 0 0 
0 0 0 0 0 0 0 0 0 
0 0 0 0 0 0 0 0 0 
0 0 0 0 0 0 0 0 0 
0 2 0 0 0 0 0 0 0 
0 0 0 0 0 0 0 0 0 
0 0 0 
weighted_torsion_tz 1 120 unsigned_char
0 0 0 0 0 0 0 3 0 
0 0 0 0 0 0 0 0 0 
0 0 0 0 0 0 0 0 0 
3 0 0 0 0 0 0 0 0 
0 0 0 3 0 0 0 0 0 
0 0 0 0 0 0 0 0 0 
0 0 0 0 0 0 0 0 0 
0 0 0 0 0 0 0 3 0 
0 0 0 0 0 0 0 0 0 
0 0 0 0 0 0 0 0 0 
0 0 0 0 0 3 0 0 0 
0 0 0 0 0 0 3 0 0 
0 0 0 0 0 0 0 0 0 
0 0 0 
plain_torsion_tp_raw 1 120 unsigned_char
0 0 0 0 0 0 0 0 0 
0 0 0 0 0 0 0 0 0 
1 0 0 0 0 0 0 0 0 
0 0 0 0 0 1 0 0 0 
0 0 0 0 0 0 0 0 0 
0 0 0 0 0 0 0 0 0 
0 0 0 0 0 0 0 0 0 
1 0 0 0 0 0 0 0 0 
0 0 0 0 0 0 0 0 0 
0 0 1 0 0 0 0 0 0 
0 0 0 0 0 0 0 0 0 
0 0 0 0 0 0 1 0 0 
0 0 0 0 1 0 0 0 0 
0 0 0 
plain_torsion_tn_raw 1 120 unsigned_char
0 0 0 0 0 0 0 0 0 
0 2 0 0 0 0 0 0 0 
0 0 0 0 0 0 0 0 2 
0 0 0 0 0 0 0 0 0 
0 0 0 0 0 0 0 0 0 
0 0 0 0 0 0 0 0 0 
2 0 0 0 0 0 0 0 0 
0 0 0 0 0 0 0 2 0 
0 0 0 0 0 0 0 0 0 
0 0 0 0 0 0 0 0 0 
0 0 0 0 0 0 2 0 0 
0 0 0 0 0 0 0 0 0 
2 0 0 0 0 0 0 0 0 
0 0 0 
plain_torsion_tz_raw 1 120 unsigned_char
0 0 0 0 0 0 3 0 0 
0 0 0 0 0 0 0 3 0 
0 3 0 0 0 0 0 0 0 
0 0 3 0 0 0 0 0 0 
0 0 0 0 0 0 0 0 0 
0 0 0 0 0 0 0 0 0 
0 0 0 0 0 0 0 0 0 
0 0 0 0 0 0 0 0 0 
0 0 0 0 0 0 0 0 0 
0 0 0 0 0 0 0 0 0 
0 0 0 0 0 0 0 0 0 
0 0 0 0 0 0 0 0 0 
0 0 0 0 0 0 0 0 0 
0 0 0 
weighted_torsion_tp_raw 1 120 unsigned_char
0 0 0 0 0 0 0 0 0 
0 0 0 0 0 0 0 0 0 
0 0 0 1 0 0 0 0 0 
0 0 0 0 0 0 0 0 1 
0 0 0 0 0 0 0 0 0 
0 0 0 0 0 0 0 0 0 
0 0 0 0 0 0 0 0 0 
0 0 0 0 0 1 0 0 0 
0 0 0 0 0 0 0 0 0 
0 0 0 0 0 0 0 1 0 
0 0 0 0 0 0 0 0 0 
0 0 0 0 0 0 0 0 0 
0 1 0 0 0 0 0 1 0 
0 0 0 
weighted_torsion_tn_raw 1 120 unsigned_char
0 0 0 0 0 0 0 0 0 
0 0 0 2 0 0 0 0 0 
0 0 0 0 0 0 0 0 0 
0 0 2 0 0 0 0 0 0 
0 0 0 0 0 0 0 0 0 
0 0 0 0 0 0 0 0 0 
0 0 0 0 0 0 2 0 0 
0 0 0 0 0 0 0 0 0 
0 0 0 2 0 0 0 0 0 
0 0 0 0 0 0 0 0 0 
0 0 0 0 0 0 0 0 0 
0 0 2 0 0 0 0 0 0 
0 0 0 0 0 2 0 0 0 
0 0 0 
weighted_torsion_tz_raw 1 120 unsigned_char
0 0 0 0 0 0 0 3 0 
0 0 0 0 0 0 0 0 0 
3 0 0 0 3 0 0 0 0 
0 0 0 0 0 0 3 0 0 
0 0 0 0 0 0 0 0 0 
0 0 0 0 0 0 0 0 0 
0 0 0 0 0 0 0 0 0 
0 0 0 0 0 0 0 0 0 
0 0 0 0 0 0 0 0 0 
0 0 0 0 0 0 0 0 0 
0 0 0 0 0 0 0 0 0 
0 0 0 0 0 0 0 0 0 
0 0 0 0 0 0 0 0 0 
0 0 0 
