# vtk DataFile Version 5.1
vtk output
ASCII
DATASET POLYDATA
POINTS 120 float
-1.28186 14.6044 0.827692 -1.57735 14.2761 0.420759 -1.87912 13.863 0.0755617 
-2.18233 13.3852 -0.209006 -2.48217 12.8628 -0.434444 -2.77382 12.3165 -0.60336 
-3.05257 11.7678 -0.720714 -3.31378 11.2388 -0.795063 -3.55303 10.7512 -0.839771 
-3.76622 10.3242 -0.873455 -3.95027 9.97123 -0.918843 -4.10418 9.69714 -0.999965 
-4.2306 9.49576 -1.13828 -4.33686 9.35014 -1.34863 -4.43434 9.23551 -1.63715 
-4.53661 9.1243 -2.00039 -4.65608 8.99143 -2.4269 -4.80032 8.81921 -2.90047 
-4.96884 8.59992 -3.40346 -5.1519 8.33585 -3.91986 -5.33149 8.03709 -4.43715 
-5.48459 7.71847 -4.94695 -5.58757 7.3964 -5.44484 -5.62107 7.0859 -5.92967 
-5.57368 6.79856 -6.40271 -5.44371 6.54104 -6.86695 -5.23911 6.31417 -7.32628 
-4.97495 6.11279 -7.78468 -4.66993 5.92637 -8.24504 -4.34256 5.74068 -8.70797 
-4.00798 5.54019 -9.1707 -3.67614 5.31122 -9.62598 -3.35191 5.04465 -10.0621 
-3.037 4.73738 -10.4626 -2.73267 4.39284 -10.8077 -2.44261 4.01991 -11.0752 
-2.17472 3.63198 -11.2449 -1.94091 3.24546 -11.3005 -1.75551 2.87825 -11.2336 
-1.63237 2.54837 -11.0451 -1.58197 2.27203 -10.7455 -1.60913 2.06197 -10.353 
-1.71212 1.92609 -9.89105 -1.88296 1.86828 -9.38485 -2.10886 1.88795 -8.85866 
-2.37427 1.98095 -8.33289 -2.66286 2.13927 -7.82256 -2.95905 2.35077 -7.33628 
-3.24922 2.59938 -6.87631 -3.52263 2.86694 -6.43936 -3.77205 3.13445 -6.01812 
-3.99426 3.38482 -5.60295 -4.19009 3.60441 -5.18365 -4.36359 3.78415 -4.75086 
-4.52053 3.91946 -4.29728 -4.66656 4.00876 -3.81853 -4.80586 4.05149 -3.31405 
-4.94025 4.04594 -2.78762 -5.06881 3.98781 -2.24738 -5.18762 3.87136 -1.70519 
-5.28981 3.69055 -1.17527 -5.36617 3.44153 -0.67228 -5.40664 3.12393 -0.209415 
-5.40218 2.74156 0.203395 -5.34685 2.30204 0.560817 -5.23935 1.8159 0.862756 
-5.08346 1.29503 1.11421 -4.88716 0.751732 1.32444 -4.66098 0.197505 1.50568 
-4.41583 -0.35764 1.67158 -4.16108 -0.905652 1.83568 -3.9034 -1.44092 2.00993 
-3.64645 -1.96022 2.20345 -3.39146 -2.46332 2.42148 -3.13826 -2.9527 2.66471 
-2.88627 -3.43347 2.92938 -2.63519 -3.91238 3.2078 -2.38505 -4.39664 3.48963 
-2.13568 -4.89202 3.76359 -1.88596 -5.40095 4.01914 -1.63291 -5.92161 4.24806 
-1.37115 -6.44649 4.44535 -1.09288 -6.96346 4.60945 -0.788632 -7.45706 4.74174 
-0.44857 -7.91086 4.8456 -0.0642959 -8.31094 4.92534 0.369457 -8.648 4.98532 
0.853676 -8.91975 5.02952 1.38485 -9.13083 5.06133 1.95562 -9.29161 5.08391 
2.55624 -9.4156 5.1006 3.17609 -9.51699 5.11553 3.80513 -9.60747 5.13413 
4.43479 -9.69464 5.16328 5.05835 -9.78113 5.21106 5.6709 -9.86464 5.28607 
6.26903 -9.93902 5.39617 6.85045 -9.99588 5.54734 7.41356 -10.0265 5.74247 
7.95732 -10.0233 5.9809 8.48125 -9.98187 6.25841 8.98562 -9.90167 6.56805 
9.47192 -9.78702 6.90107 9.94284 -9.64741 7.2481 10.4027 -9.49713 7.60027 
10.8568 -9.35336 7.95024 11.3103 -9.23449 8.29321 11.7668 -9.1564 8.62771 
12.2273 -9.13002 8.95597 12.6894 -9.15971 9.28351 13.1479 -9.24296 9.61822 
13.5959 -9.37115 9.96877 14.026 -9.53208 10.3429 14.4324 -9.71181 10.7463 
14.8112 -9.89683 11.1817 15.161 -10.0753 11.6486 15.4821 -10.2374 12.1444 
15.7765 -10.3749 12.6653 16.0463 -10.4803 13.2062 16.2942 -10.5466 13.7622 

LINES 2 120
OFFSETS vtktypeint64
0 120 
CONNECTIVITY vtktypeint64
0 1 2 3 4 5 6 7 8 
9 10 11 12 13 14 15 16 17 
18 19 20 21 22 23 24 25 26 
27 28 29 30 31 32 33 34 35 
36 37 38 39 40 41 42 43 44 
45 46 47 48 49 50 51 52 53 
54 55 56 57 58 59 60 61 62 
63 64 65 66 67 68 69 70 71 
72 73 74 75 76 77 78 79 80 
81 82 83 84 85 86 87 88 89 
90 91 92 93 94 95 96 97 98 
99 100 101 102 103 104 105 106 107 
108 109 110 111 112 113 114 115 116 
117 118 119 
CELL_DATA 1
FIELD FieldData 2
Length 1 1 double
67.353965158 
Tortuosity 1 1 double
1.022729827 
POINT_DATA 120
FIELD FieldData 19
Curvature 1 120 double
0 0.28181130945 0.22416511639 0.18103669074 0.15028055801 0.12686844532 0.10499269666 0.076004318759 0.026502698356 
0.10582601538 0.39407526742 0.94195112044 1.2600458223 0.77698043269 0.24545002467 0.011684515053 0.098086999311 0.11438753034 
0.10040233638 0.082281036594 0.087344505455 0.12927575055 0.19384636788 0.25814129726 0.2909279708 0.26903728887 0.20286683748 
0.12199371212 0.051188399558 0.0389441641 0.079970383318 0.11643136519 0.14981710445 0.1894946993 0.24918205446 0.34223415846 
0.48776578418 0.68563172713 0.87040680789 0.89771381228 0.74579957027 0.54515859951 0.39331835031 0.29532088288 0.23513443391 
0.19439758958 0.15994021512 0.12381547527 0.085132406906 0.053358589122 0.072719999249 0.12778312552 0.17989218308 0.20826215043 
0.20829880014 0.19140101177 0.1757392974 0.17364001367 0.18526358545 0.21006805962 0.24212776061 0.27490007999 0.29689906035 
0.29624185509 0.26804953707 0.21955532213 0.1630621713 0.10856214516 0.061329741218 0.029798045776 0.038554718849 0.0625414017 
0.077986854778 0.078708988545 0.063496761978 0.035977947044 0.0092849178668 0.033465038656 0.058845120229 0.075686504559 0.085396815064 
0.097541886733 0.12387487972 0.16901012513 0.22327772108 0.26672574128 0.2741822935 0.23990332253 0.18062940456 0.11905005071 
0.066992768425 0.031696700541 0.027333765905 0.047256093741 0.071838087559 0.098939329387 0.12664359155 0.15020184206 0.16445611654 
0.16527699827 0.15225422607 0.12643649523 0.089994497961 0.04422674289 0.01457274246 0.069245049952 0.1226654253 0.1610363283 
0.1751285141 0.16552056945 0.14346351088 0.12496848151 0.11656697791 0.11602978108 0.11694253176 0.11746852296 0.11727388569 
0.11999194926 0.12614598734 0 
Torsion 1 120 double
0 0 0.042088509809 0.05514817467 0.071209597475 0.093332612427 0.13883857565 0.31374609573 4.659266932 
0.95262899659 0.27133039894 0.12709723162 0.086551368691 0.10492150736 0.23440309271 24.543038567 0.027691977231 -0.16287382895 
-0.41726548802 -0.87372431966 -0.972872017 -0.53121938377 -0.27062295676 -0.16101477227 -0.11176057313 -0.081939318292 -0.036579856075 
0.12413379633 1.2112783858 1.7006660939 0.088718254523 -0.16908456306 -0.24387579944 -0.23097523468 -0.1556798947 -0.068098805433 
0.0051154934751 0.046127119715 0.06025744084 0.059588007284 0.049852290626 0.025597495675 -0.016791867794 -0.05895174564 -0.098976990815 
-0.13207211054 -0.17870621462 -0.29428075908 -0.67348669115 -1.9643590612 -1.2668938271 -0.49428750271 -0.27765670403 -0.19852160015 
-0.16010413297 -0.1322131008 -0.096159581726 -0.037159967973 0.028836550237 0.079895527199 0.10937763768 0.11904955599 0.11579148354 
0.10562253851 0.094016829872 0.088761872007 0.10418626922 0.17897510978 0.50919962195 1.9686230254 0.94228981716 0.23439206823 
0.080974622943 0.053036565438 0.099043251414 0.38156370385 5.9339158058 0.51732115532 0.27926721405 0.34167949106 0.49273652017 
0.60288933073 0.52891202894 0.34873866788 0.20798227878 0.12071272489 0.069458991972 0.040261308016 0.02990723549 0.05745062235 
0.23516038096 1.1597436672 1.1840152547 0.070875754085 -0.18390256658 -0.23048633527 -0.21747729853 -0.19531790722 -0.17259322495 
-0.15023632498 -0.12757556672 -0.094578851303 -0.022436200115 0.34385207687 4.4162433861 0.091111916096 -0.080586377302 -0.15544540973 
-0.23728302003 -0.35410592753 -0.50270401319 -0.60861960968 -0.58914561762 -0.47575475913 -0.37539020831 -0.32049063817 -0.29852439161 
-0.27807261741 0 0 
FrenetTangent 3 120 double
-0.49226164317 -0.61105310283 -0.61991336506 -0.49226164317 -0.61105310283 -0.61991336506 -0.48496673446 -0.71411053574 -0.50483007954 
-0.47319327406 -0.78481855052 -0.40018491743 -0.46082212413 -0.83261505902 -0.30723791011 -0.45004838745 -0.86396817879 -0.22586596688 
-0.44237454733 -0.88297121061 -0.1570560445 -0.43923991837 -0.89227192804 -0.10449450008 -0.44209749161 -0.8936902717 -0.076599648685 
-0.45199407306 -0.88747205414 -0.089970612099 -0.46713301154 -0.86672289156 -0.17486617391 -0.47196686665 -0.80047972247 -0.36943130714 
-0.42757888047 -0.63767704582 -0.6407372989 -0.34045455659 -0.43489117979 -0.83364282318 -0.27816346417 -0.31448561138 -0.90759235753 
-0.2590926898 -0.28520303906 -0.92278394254 -0.26737772423 -0.30933301679 -0.91259094742 -0.28494714823 -0.35668787284 -0.88970719008 
-0.29752111852 -0.40903958474 -0.86265161111 -0.29445672787 -0.45699809299 -0.83931399274 -0.26750554174 -0.49640865689 -0.8258445559 
-0.20968205823 -0.52461101205 -0.82511618605 -0.11599006265 -0.53760013558 -0.83518405132 0.012306337569 -0.52942376864 -0.84826825194 
0.16144617346 -0.49597998986 -0.85319340289 0.30547505545 -0.44227183909 -0.84325595808 0.42005718394 -0.3837560988 -0.82236440758 
0.49569630573 -0.3377301196 -0.80013969956 0.53621574784 -0.31552039687 -0.78289178749 0.5508242682 -0.32135767112 -0.77027389464 
0.54941713802 -0.35405675797 -0.75682535673 0.54102925443 -0.40864049437 -0.73505121741 0.53303424422 -0.47856979031 -0.69774311196 
0.53016487931 -0.5580595274 -0.63835316607 0.53304875611 -0.64343449876 -0.54940974638 0.53654333091 -0.73165435282 -0.42047968092 
0.52819335696 -0.81534044552 -0.23713231658 0.48601725027 -0.87385116586 0.013090927016 0.38376766196 -0.86707145813 0.31766250665 
0.21761974642 -0.76023925559 0.61210940217 0.02746521335 -0.57476831701 0.81785514843 -0.1397900908 -0.37158176408 0.91781573484 
-0.26725572685 -0.18903681724 0.94490182463 -0.35850577171 -0.034462591963 0.9328911734 -0.42119084039 0.096586061581 0.90181450902 
-0.46109435656 0.20917242353 0.86234499569 -0.48199232182 0.30482148192 0.82144218657 -0.48679522597 0.38198161326 0.78557014652 
-0.47828114366 0.43804298598 0.7611606204 -0.45923110375 0.46998408599 0.75380485025 -0.43230330512 0.47469668185 0.76666610244 
-0.40004821417 0.44973858393 0.79855909767 -0.36534303564 0.3950197782 0.84290203532 -0.33141920589 0.31598268208 0.88899733104 
-0.30125097385 0.22333612197 0.92702148162 -0.27641575046 0.12789690205 0.95248974553 -0.25643241215 0.034829289965 0.96593443802 
-0.23894534012 -0.057864428985 0.96930739825 -0.2200901469 -0.15531792203 0.96303513453 -0.19483133687 -0.26206738685 0.94517799113 
-0.15759829842 -0.37939663916 0.9117132041 -0.1037713755 -0.50327270529 0.85787416661 -0.032101326598 -0.62406492358 0.78071279994 
0.053009275142 -0.72864080161 0.68284156213 0.14182266955 -0.80625675535 0.57431382958 0.22342621337 -0.85423030036 0.46943723876 
0.29051929288 -0.87781651192 0.38083685728 0.34085741187 -0.88547537931 0.31583156492 0.37575739107 -0.88442969971 0.2767498678 
0.39822914106 -0.87880715904 0.26289071576 0.41152023375 -0.86995339658 0.27172078499 0.41849752561 -0.8575653808 0.29906761562 
0.42127292428 -0.84133120227 0.3386604957 0.42115313912 -0.8225015774 0.3822580131 0.41890655321 -0.8044526904 0.42115694057 
0.41506097433 -0.79179724901 0.44808649171 0.4102281162 -0.78832269411 0.45854140775 0.40540998645 -0.79508847166 0.45108432152 
0.40242710542 -0.80979156102 0.42695439162 0.40415303096 -0.82764237943 0.38944629841 0.41486818733 -0.8425642972 0.34346730881 
0.43980856489 -0.8484959784 0.29431785691 0.48401805936 -0.83968826246 0.24627249157 0.55078055109 -0.80986864924 0.20187509883 
0.63836371058 -0.75253562487 0.16180823934 0.73697147088 -0.66409945361 0.12587679223 0.82967556374 -0.55024715398 0.094162245452 
0.90104024579 -0.4284589503 0.067449265198 0.9464706662 -0.3193919347 0.046712632917 0.97118409863 -0.23609648323 0.032556062093 
0.9830539382 -0.18153865471 0.025469029051 0.98805541532 -0.15179886218 0.026525491562 0.98948831096 -0.13965675515 0.037534959882 
0.98870891289 -0.13700616831 0.060695925776 0.9859125349 -0.13559022364 0.097937555525 0.98039913938 -0.1278579855 0.14989950981 
0.97062664502 -0.10799079806 0.21499279875 0.95459638757 -0.072941370807 0.28883436993 0.93086966738 -0.023069758983 0.3646223369 
0.89975113917 0.037590540754 0.43478136898 0.86386159704 0.10218711519 0.49325544564 0.82774314813 0.16280719416 0.5369684332 
0.79674643276 0.21163466733 0.56604407026 0.77585342063 0.24162827336 0.58280978647 0.76840116545 0.2472045394 0.59029616689 
0.77459788792 0.22415662735 0.59139827396 0.79029861912 0.1710580591 0.58835978197 0.80703527073 0.091948089869 0.58330062623 
0.81504970892 -0.0029278480599 0.57938363775 0.80779187518 -0.09910055695 0.58107776244 0.78425849244 -0.18292852191 0.59285392206 
0.74753696247 -0.24611777469 0.61693964917 0.70191196282 -0.28582981984 0.65239628336 0.6513800641 -0.30260105162 0.6957992639 
0.59949265402 -0.29909070168 0.74239700292 0.54904991327 -0.27873453677 0.78794114676 0.50216678174 -0.24445546813 0.82949987788 
0.45997636932 -0.19802846094 0.86556713681 0.42262204509 -0.14012174378 0.89540856815 0.42262204509 -0.14012174378 0.89540856815 

FrenetNormal 3 120 double
0.018133170537 -0.71922226358 0.69454339224 0.018133170537 -0.71922226358 0.69454339224 0.074212182676 -0.60877956522 0.78986074273 
0.10879065769 -0.50284177772 0.85750495006 0.12291825313 -0.40272767887 0.90702895197 0.11758780672 -0.30805992001 0.94407213358 
0.087753607178 -0.2168999171 0.97224160083 0.0051421821123 -0.11881088289 0.99290358649 -0.48531652572 0.16651061904 0.85833681245 
-0.29744612528 0.24503866216 -0.92275774535 -0.10699611467 0.25172876839 -0.96186509377 0.046848803479 0.39567459735 -0.91719507338 
0.22537503858 0.61121723738 -0.75869597384 0.36666462048 0.75501042285 -0.54361412553 0.45134562773 0.79127772786 -0.41251264431 
0.31874995355 -0.92712987628 0.1970498912 -0.34759316165 -0.85234476813 0.39075233871 -0.29290038496 -0.85139149164 0.43513433839 
-0.12428299381 -0.87928688647 0.45979159272 0.25797412505 -0.88365798578 0.39063783096 0.75745355378 -0.63809448898 0.1382010745 
0.95934781579 -0.27341984619 -0.069952527085 0.99246123913 -0.029218285847 -0.11902512592 0.98656938589 0.14461431256 -0.075944370559 
0.95723100158 0.28902735245 0.013114844703 0.90585251933 0.40790529679 0.11421244269 0.84683612605 0.49150827599 0.20319495628 
0.80955241238 0.51329676842 0.28487070601 0.84053844684 0.28448492145 0.46104603766 0.1777071949 -0.85658264159 0.48444435285 
-0.1479912916 -0.93269730413 0.32889864164 -0.14159921559 -0.90580068028 0.39934294754 -0.071435738343 -0.84717495493 0.52648982045 
0.0023387401986 -0.75190322343 0.65926934776 0.035367195155 -0.63184295019 0.77428912417 0.0045226631994 -0.49577346502 0.86844010553 
-0.088196208349 -0.33043569326 0.93969871845 -0.23216297194 -0.11465423552 0.96589583328 -0.39485021455 0.15688850655 0.90525096221 
-0.52721990473 0.43621375973 0.72921651647 -0.58919905533 0.65162556241 0.47773277008 -0.58808225715 0.77688714252 0.22495694391 
-0.54133273118 0.84067332131 0.015074514706 -0.46783634294 0.87140376204 -0.147596205 -0.37117438552 0.88887946427 -0.26855702101 
-0.25781914193 0.89831468068 -0.35575275758 -0.12815322342 0.90292262481 -0.41025295239 0.031725769485 0.90645764649 -0.4211033254 
0.28842772328 0.8969943049 -0.33497860443 0.7801746058 0.61916090338 0.089260070508 0.76707531322 -0.25336290947 0.58940877153 
0.51471781541 -0.61067695574 0.60178004805 0.38618066882 -0.75958078631 0.52335601659 0.31331960845 -0.85191532916 0.41960826362 
0.26288168889 -0.91505723348 0.30588147558 0.22267024526 -0.95561171568 0.1929357684 0.19187535979 -0.97762736561 0.08618921229 
0.17906911753 -0.98372841528 -0.014582733877 0.19973487447 -0.97350150021 -0.11135891973 0.25195300123 -0.94468099915 -0.20999403568 
0.32675036961 -0.89127971418 -0.31441162041 0.40773112875 -0.80824912826 -0.42483958539 0.48113548645 -0.69430414421 -0.53521061182 
0.53617918757 -0.55610459842 -0.63502720763 0.5695723753 -0.40805147788 -0.71349933475 0.58541552967 -0.26747187193 -0.76534139791 
0.59839227175 -0.1439039155 -0.78817406213 0.62908022237 -0.034823660525 -0.77655996967 0.72862835732 0.097425955086 -0.6779446144 
0.91694950302 0.38914590222 -0.088142360379 0.39262005817 0.43826913258 0.8085602373 0.1147972531 0.37659676935 0.91923689221 
0.021861354535 0.38272415831 0.92360397348 -0.02697443518 0.40991298903 0.91172568313 -0.081543509347 0.42861238076 0.89980113533 
-0.2043172763 0.39881078116 0.89398233284 -0.90946211449 -0.31626498211 0.2699168824 -0.21937082107 -0.5636544987 -0.79634794466 
-0.042469298819 -0.48239873018 -0.87492161008 0.1041909476 -0.38134155086 -0.91854388465 0.31176028422 -0.22300270212 -0.92362076635 
0.55923612845 0.0023168191875 -0.8290051779 0.73993935188 0.24249716935 -0.62744312762 0.79335470435 0.43284917004 -0.42805362874 
0.75837650198 0.5789111296 -0.29954462985 0.67297413667 0.70354007271 -0.22833566841 0.55742580186 0.80744689955 -0.19314755973 
0.43344195745 0.88375624045 -0.17636036113 0.32264078087 0.93167766923 -0.16697199518 0.23828963403 0.95938452184 -0.15099466733 
0.18304988915 0.97959475256 -0.082987100389 0.13881877052 0.95152693451 0.27445553712 0.0071731895269 0.30663446262 0.95180032133 
-0.061307550406 -0.00024503480662 0.99811889283 -0.089882458273 0.064320798448 0.99387322058 -0.12127532243 0.20798122659 0.97058544475 
-0.16465087891 0.35340832962 0.92086515877 -0.22086221142 0.4773581755 0.85049929797 -0.28468663003 0.57970702701 0.76347448256 
-0.3499584838 0.65736739699 0.66738082456 -0.40929494626 0.71319042949 0.56906683109 -0.45776122067 0.74936729757 0.47843841629 
-0.49704018121 0.76225943245 0.41462225688 -0.5480539705 0.71573810655 0.43284617158 -0.024012976755 -0.91059652037 0.41259829622 
0.30604532756 -0.95116219535 -0.040332810584 0.2605419005 -0.96292089357 -0.070009076646 0.15678749308 -0.98571295341 -0.061543931355 
0.013459986723 -0.99962167032 -0.023986349843 -0.165333463 -0.9842886365 0.061973591753 -0.37331375308 -0.90234892593 0.21541415377 
-0.57434887707 -0.7060523502 0.41426253291 -0.70592686831 -0.40107809099 0.58378388255 -0.74529630971 -0.083238720226 0.66151698859 
-0.72860834224 0.17997088794 0.66086334678 -0.68557758646 0.38902556109 0.61533932571 -0.62092585596 0.56570450305 0.54261357947 
-0.54133851878 0.71015421844 0.45014841343 -0.45239820327 0.82347095741 0.34239078256 -0.45239820327 0.82347095741 0.34239078256 

FrenetBinormal 3 120 double
-0.87025838852 0.33065607675 0.36512586339 -0.87025838852 0.33065607675 0.36512586339 -0.87137811449 0.345591643 0.34823353928 
-0.87421548727 0.36222919447 0.32332227341 -0.87893917478 0.38021386108 0.28792941301 -0.88522853358 0.39831905769 0.24023399346 
-0.89252678632 0.41631270363 0.17343491141 -0.89835508129 0.43558556053 0.056774707249 -0.75433260421 0.41664362711 -0.50733658473 
0.84096799016 -0.39031962181 -0.37473114676 0.87768934195 -0.43060893676 -0.21032679956 0.88037064149 -0.4501930996 -0.14924378272 
0.875432689 -0.46880856857 -0.11762709328 0.86582200884 -0.49074323544 -0.097587529347 0.84788690963 -0.52438378849 -0.078162848221 
-0.91173979029 -0.24308315248 0.33112102889 -0.89871471923 0.42168884377 0.12037596305 -0.91269627325 0.3845858673 0.1381275623 
-0.94659121139 0.2440106338 0.21076975378 -0.92018725606 -0.10149535543 0.37809272224 -0.59557106965 -0.58856934043 0.54670031324 
-0.18890527465 -0.80624120072 0.56061566466 0.039585277487 -0.84269353029 0.53693632752 0.16287848499 -0.83594089133 0.52409295485 
0.24009152982 -0.81882051708 0.52142978254 0.29345562477 -0.79875458634 0.52523795283 0.32622160848 -0.78176139024 0.53144011035 
0.31449970445 -0.7889643806 0.5278495449 0.077251479894 -0.90527079298 0.41775231924 -0.81548315644 -0.40372691927 -0.41471893641 
-0.82233775668 -0.068698988327 -0.56483720039 -0.82899759228 -0.11197354137 -0.54792784017 -0.8430726124 -0.23079330916 -0.48576024814 
-0.84789134389 -0.3510143964 -0.39732752545 -0.84534500952 -0.43216493623 -0.31404662517 -0.84386065175 -0.4678574349 -0.26269492008 
-0.84453135318 -0.47542844943 -0.24644387389 -0.84254826977 -0.47248126546 -0.25859981998 -0.83475486803 -0.47283515416 -0.28215461592 
-0.82138956533 -0.48140817409 -0.30588454013 -0.80752098131 -0.49500051331 -0.32075591432 -0.79662914166 -0.50830439737 -0.32712176673 
-0.7972033935 -0.50747753504 -0.3270065761 -0.80783833028 -0.4893544863 -0.32852613118 -0.82754326261 -0.44784420362 -0.33853761651 
-0.84907083592 -0.38636463568 -0.36027917493 -0.86675264813 -0.30300923711 -0.39613791688 -0.87293979375 -0.18006827107 -0.45337791547 
-0.82949176974 0.05932587476 -0.55535920314 -0.4247756794 0.6290904026 -0.65100759408 0.4740351424 0.84289400066 -0.25459848275 
0.75830534538 0.65177362777 0.012811764156 0.84698816836 0.51671694757 0.12495854815 0.88993939846 0.41760653319 0.18333753165 
0.91659209488 0.33584406512 0.21695090578 0.93488624697 0.26542161045 0.23566729499 0.94732584906 0.20744072543 0.24401246101 
0.95437905236 0.17008854411 0.24541905301 0.95481218423 0.1678427007 0.24528049384 0.94792427722 0.19722701285 0.25008212662 
0.93187819606 0.24835189004 0.26443215844 0.90718621477 0.30569581414 0.28907307198 0.876058302 0.35844766213 0.32254786468 
0.84243806631 0.399787766 0.36120333138 0.80961326551 0.42830367246 0.40135062534 0.77933906922 0.44581318024 0.44031945621 
0.74667612094 0.45686960339 0.48347175298 0.6986231449 0.46337961252 0.54516514573 0.57263173154 0.45639050116 0.68102908197 
-0.024842707451 0.27615836763 0.96079102612 -0.82249655752 -0.22605586745 0.52191776906 -0.90093363337 -0.35036622407 0.2560509662 
-0.9066703946 -0.38168576962 0.17962396506 -0.90658833726 -0.39428732747 0.15044962661 -0.90436052311 -0.41127520709 0.11395063961 
-0.88655447559 -0.46260898964 0.0037529340992 -0.067761013804 -0.52775353248 -0.84669041212 0.88742277734 0.22389267147 -0.40293037353 
0.91446639276 0.33395971737 -0.22852160443 0.90873790171 0.41180907392 -0.067887499826 0.85480401983 0.49026033893 0.17016135797 
0.70272567826 0.52919675641 0.47552856288 0.46713624753 0.48592051279 0.73869139801 0.25928574513 0.39592217288 0.88091800719 
0.13174541459 0.31392998794 0.94026119159 0.063078225074 0.25298869898 0.96541071866 0.030247881897 0.21273827568 0.9766409226 
0.015954466172 0.18814312467 0.98201202622 0.0098083916218 0.17310549587 0.9848544475 0.0044155278788 0.15440139201 0.98799833667 
-0.0098839606481 0.086242898802 0.99622510997 -0.066901757927 -0.26749504358 0.96123387188 -0.14443485668 -0.94152604695 0.30441300087 
-0.13673357241 -0.990570164 -0.0086417806672 -0.14105891402 -0.98867493452 0.051227498826 -0.15527338364 -0.96974024611 0.18839859714 
-0.17542520929 -0.92921501284 0.32524676148 -0.19991403252 -0.87567615515 0.43957439745 -0.22898730321 -0.81449834196 0.53306403548 
-0.2607238907 -0.75263208583 0.60462219294 -0.29363376531 -0.69348194264 0.65792249323 -0.32449336753 -0.64182744633 0.69481046593 
-0.34372398833 -0.61169545137 0.71251841704 -0.31255129997 -0.65523640035 0.68773319284 0.63951780733 -0.33121577981 -0.69376731064 
0.5534748138 0.21223638837 -0.80537031603 0.55456831022 0.20862045237 -0.80556284432 0.56930813608 0.1411223662 -0.80992143073 
0.57923466812 0.027348563529 -0.81470194263 0.56580662104 -0.14613336263 -0.81148500166 0.49555570706 -0.39026090216 -0.77596454136 
0.33363431649 -0.66401515024 -0.66915769674 0.094799013924 -0.87030895607 -0.48329645968 -0.14225829615 -0.94947560212 -0.27974749 
-0.33126792992 -0.93709937128 -0.11002875508 -0.47804556863 -0.87804679308 0.022500299595 -0.60189667278 -0.78754043663 0.13228928892 
-0.70382835106 -0.67562246461 0.21945372533 -0.7853193444 -0.54978312017 0.28462615497 -0.7853193444 -0.54978312017 0.28462615497 

plain_curvature_peaks 1 120 unsigned_char
0 0 0 0 0 0 0 0 0 
0 0 0 0 0 0 0 0 0 
0 1 0 0 0 0 0 0 0 
0 0 0 0 0 0 0 0 0 
0 0 0 0 0 0 0 0 0 
0 0 0 0 0 0 0 0 0 
0 0 0 1 0 0 0 0 0 
0 0 0 0 0 0 0 0 0 
0 0 0 0 0 0 0 0 0 
0 0 1 0 0 0 0 0 0 
0 0 0 0 0 0 0 0 0 
0 0 0 0 0 0 0 0 0 
0 0 0 0 0 0 1 0 0 
0 0 0 
weighted_curvature_peaks 1 120 unsigned_char
0 0 0 0 0 0 0 0 0 
0 0 0 0 0 0 0 0 0 
0 0 0 0 1 0 0 0 0 
0 0 0 0 0 0 0 0 0 
0 0 0 0 0 0 0 0 0 
0 0 0 0 0 0 0 0 0 
0 0 0 0 0 0 0 0 1 
0 0 0 0 0 0 0 0 0 
0 0 0 0 0 0 0 0 0 
0 0 0 0 0 0 0 1 0 
0 0 0 0 0 0 0 0 0 
0 0 0 0 0 0 0 0 0 
0 0 0 0 0 0 0 0 0 
1 0 0 
plain_torsion_tp 1 120 unsigned_char
0 0 0 0 0 0 0 0 0 
0 0 0 0 0 0 0 0 0 
0 1 0 0 0 0 0 0 0 
0 0 0 0 0 0 0 0 0 
0 0 0 0 0 0 0 0 0 
0 0 0 0 0 0 0 0 0 
0 0 0 1 0 0 0 0 0 
0 0 0 0 0 0 0 0 0 
0 0 0 0 0 0 0 0 0 
0 0 1 0 0 0 0 0 0 
0 0 0 0 0 0 0 0 0 
0 0 0 0 0 0 0 0 0 
0 0 0 0 0 0 1 0 0 
0 0 0 
plain_torsion_tn 1 120 unsigned_char
0 0 0 0 0 0 0 2 0 
0 0 0 0 0 0 0 0 0 
0 0 0 0 0 0 0 0 0 
0 0 0 0 0 0 0 0 0 
0 0 0 2 0 0 0 0 0 
0 0 0 0 0 0 0 0 0 
0 0 0 0 0 0 0 0 0 
0 0 0 0 0 0 0 2 0 
0 0 0 0 0 0 0 0 0 
0 0 0 0 0 0 0 0 0 
0 0 0 0 0 0 0 2 0 
0 0 0 0 0 0 0 0 0 
0 0 0 0 0 0 0 0 0 
0 0 0 
plain_torsion_tz 1 120 unsigned_char
0 0 0 0 0 0 0 0 3 
0 0 0 0 0 0 0 0 0 
0 0 0 0 0 0 0 0 0 
0 0 0 3 0 0 0 0 0 
0 0 0 0 0 0 0 0 0 
0 0 0 3 0 0 0 0 0 
0 0 0 0 0 0 0 0 0 
0 0 0 0 0 0 0 0 0 
0 3 0 0 0 0 0 0 0 
0 0 0 0 0 0 0 0 0 
0 3 0 0 0 0 0 0 0 
0 0 0 0 0 3 0 0 0 
0 0 0 0 0 0 0 0 0 
0 0 0 
weighted_torsion_tp 1 120 unsigned_char
0 0 0 0 0 0 0 0 0 
0 0 0 0 0 0 0 0 0 
0 0 0 0 1 0 0 0 0 
0 0 0 0 0 0 0 0 0 
0 0 0 0 0 0 0 0 0 
0 0 0 0 0 0 0 0 0 
0 0 0 0 0 0 0 0 1 
0 0 0 0 0 0 0 0 0 
0 0 0 0 0 0 0 0 0 
0 0 0 0 0 0 0 1 0 
0 0 0 0 0 0 0 0 0 
0 0 0 0 0 0 0 0 0 
0 0 0 0 0 0 0 0 0 
1 0 0 
weighted_torsion_tn 1 120 unsigned_char
0 0 0 0 0 0 0 0 2 
0 0 0 0 0 0 0 0 0 
0 0 0 0 0 0 0 0 0 
0 0 0 0 0 0 0 0 0 
0 0 0 0 0 0 0 2 0 
0 0 0 0 0 0 0 0 0 
0 0 0 0 0 0 0 0 0 
0 0 0 0 0 0 0 0 0 
0 0 0 2 0 0 0 0 0 
0 0 0 0 0 0 0 0 0 
0 0 0 0 0 0 0 0 0 
0 0 0 2 0 0 0 0 0 
0 0 0 0 0 0 0 0 0 
0 0 0 
weighted_torsion_tz 1 120 unsigned_char
0 0 0 0 0 0 0 0 0 
3 0 0 0 0 0 0 0 0 
0 0 0 0 0 0 0 0 0 
0 0 0 0 0 0 3 0 0 
0 0 0 0 0 0 0 0 0 
0 0 0 0 0 0 0 3 0 
0 0 0 0 0 0 0 0 0 
0 0 0 0 0 0 0 0 0 
0 0 0 0 0 0 3 0 0 
0 0 0 0 0 0 0 0 0 
0 0 0 0 0 0 3 0 0 
0 0 0 0 0 0 0 0 0 
3 0 0 0 0 0 0 0 0 
0 0 0 
plain_torsion_tp_raw 1 120 unsigned_char
0 0 0 0 0 0 0 0 0 
0 0 0 0 0 0 0 0 0 
0 0 0 0 0 0 0 1 0 
0 0 0 0 0 0 0 0 0 
0 0 0 0 0 0 0 1 0 
0 0 0 0 0 0 0 0 0 
0 0 0 0 0 0 0 0 0 
0 0 0 0 0 0 0 0 0 
1 0 0 0 0 0 0 0 0 
0 0 0 0 1 0 0 0 0 
0 0 0 0 0 0 0 0 0 
0 0 0 0 0 0 0 0 0 
1 0 0 0 0 0 0 1 0 
0 0 0 
plain_torsion_tn_raw 1 120 unsigned_char
0 0 0 0 0 0 0 0 0 
0 0 0 0 0 0 2 0 0 
0 0 0 0 0 0 0 0 0 
0 0 0 0 2 0 0 0 0 
0 0 0 0 0 0 0 0 0 
0 0 0 0 0 0 0 0 0 
0 0 0 0 0 0 0 0 0 
0 0 0 2 0 0 0 0 0 
0 0 0 2 0 0 0 0 0 
0 0 0 0 0 0 0 0 0 
0 0 0 0 0 0 0 0 0 
2 0 0 0 0 0 0 0 0 
0 0 0 2 0 0 0 0 0 
0 0 0 
plain_torsion_tz_raw 1 120 unsigned_char
0 0 0 0 0 0 0 3 0 
0 0 0 0 0 0 0 0 0 
0 0 3 0 0 0 0 0 3 
0 0 0 0 0 0 0 0 0 
0 3 0 0 0 0 0 0 0 
0 0 0 0 0 0 0 0 0 
0 0 0 0 0 0 0 0 0 
0 0 0 0 0 0 0 0 0 
0 0 0 0 0 0 0 0 0 
0 0 0 0 0 0 0 0 0 
0 0 0 0 0 0 0 0 0 
0 0 0 0 0 0 0 0 0 
0 0 0 0 0 0 0 0 0 
0 0 0 
weighted_torsion_tp_raw 1 120 unsigned_char
0 0 0 0 0 0 0 0 0 
0 0 0 0 0 0 0 0 0 
0 0 0 0 0 0 0 0 0 
1 0 0 0 0 0 0 0 0 
0 0 0 0 0 0 0 0 0 
0 0 1 0 0 0 0 0 0 
0 0 0 0 0 0 0 0 0 
0 0 0 0 0 0 0 0 0 
0 0 0 0 0 1 0 0 0 
0 0 0 0 0 0 0 0 0 
0 1 0 0 0 0 0 0 0 
0 0 0 0 0 0 0 0 0 
0 0 0 0 0 1 0 0 0 
0 1 0 
weighted_torsion_tn_raw 1 120 unsigned_char
0 0 0 0 0 0 0 0 0 
0 0 0 0 0 0 0 0 2 
0 0 0 0 0 0 0 0 0 
0 0 0 0 0 0 0 2 0 
0 0 0 0 0 0 0 0 0 
0 0 0 0 0 0 0 0 0 
0 0 0 0 0 0 0 0 0 
0 0 0 0 0 0 0 0 2 
0 0 0 0 0 0 0 0 2 
0 0 0 0 0 0 0 0 0 
0 0 0 0 0 0 0 0 0 
0 0 0 0 2 0 0 0 0 
0 0 0 0 0 0 0 2 0 
0 0 0 
weighted_torsion_tz_raw 1 120 unsigned_char
0 0 0 0 0 0 0 0 3 
0 0 0 0 0 0 0 0 0 
0 0 0 0 0 3 0 0 0 
0 3 0 0 0 0 0 0 0 
0 0 0 0 0 3 0 0 0 
0 0 0 0 0 0 0 0 0 
0 0 0 0 0 0 0 0 0 
0 0 0 0 0 0 0 0 0 
0 0 0 0 0 0 0 0 0 
0 0 0 0 0 0 0 0 0 
0 0 0 0 0 0 0 0 0 
0 0 0 0 0 0 0 0 0 
0 0 0 0 0 0 0 0 0 
0 0 0 
