# vtk DataFile Version 5.1
vtk output
ASCII
DATASET POLYDATA
POINTS 120 float
-0.334338 16.2023 -5.03232 -0.828347 15.9981 -4.78986 -1.3018 15.7045 -4.55206 
-1.75674 15.3337 -4.31097 -2.19511 14.8979 -4.05923 -2.61835 14.4099 -3.7915 
-3.02697 13.884 -3.50669 -3.42004 13.3364 -3.21087 -3.79512 12.7863 -2.91943 
-4.14887 12.2567 -2.65738 -4.47806 11.773 -2.45643 -4.78053 11.3604 -2.34952 
-5.05555 11.0382 -2.36352 -5.30363 10.8132 -2.51229 -5.52616 10.6748 -2.79236 
-5.72542 10.5942 -3.18328 -5.90476 10.5301 -3.65223 -6.06893 10.4379 -4.16182 
-6.22369 10.2804 -4.67867 -6.37506 10.0362 -5.17991 -6.5281 9.70246 -5.65567 
-6.68558 9.29172 -6.10743 -6.84639 8.82635 -6.54334 -7.0041 8.33164 -6.97316 
-7.14599 7.83087 -7.40463 -7.25341 7.34288 -7.84223 -7.30417 6.88162 -8.28754 
-7.27645 6.45639 -8.74031 -7.15325 6.07191 -9.19921 -6.92595 5.72847 -9.66194 
-6.5959 5.42118 -10.1245 -6.174 5.14119 -10.5796 -5.67851 4.87656 -11.0154 
-5.13215 4.61467 -11.4143 -4.55954 4.34472 -11.7526 -3.98501 4.05981 -12.0027 
-3.43126 3.75807 -12.1369 -2.91824 3.44316 -12.1319 -2.46206 3.1241 -11.9741 
-2.07384 2.81404 -11.6636 -1.759 2.52999 -11.215 -1.51759 2.29171 -10.6563 
-1.34579 2.11975 -10.0244 -1.23825 2.03378 -9.35981 -1.19 2.04881 -8.70079 
-1.19689 2.17251 -8.07829 -1.25429 2.40312 -7.51221 -1.35507 2.72805 -7.00942 
-1.48852 3.12466 -6.56381 -1.64154 3.56244 -6.15841 -1.80168 4.00625 -5.76954 
-1.96069 4.42061 -5.37197 -2.11619 4.77425 -4.94429 -2.27055 5.0437 -4.4729 
-2.42744 5.21547 -3.9538 -2.58813 5.28466 -3.39231 -2.74955 5.25279 -2.80136 
-2.90524 5.12425 -2.19944 -3.04837 4.90449 -1.60867 -3.17462 4.59872 -1.05269 
-3.28336 4.21234 -0.554183 -3.37665 3.75186 -0.131866 -3.45729 3.22516 0.202667 
-3.52728 2.64272 0.447425 -3.58742 2.01687 0.61126 -3.63782 1.36122 0.712949 
-3.67866 0.689471 0.778431 -3.71078 0.0138966 0.836556 -3.7354 -0.655674 0.914136 
-3.75358 -1.31296 1.03146 -3.76512 -1.95528 1.19923 -3.76783 -2.58351 1.41754 
-3.75715 -3.20085 1.67682 -3.72636 -3.81168 1.96081 -3.66728 -4.41998 2.25019 
-3.57131 -5.02813 2.52644 -3.43049 -5.63595 2.77489 -3.23834 -6.24026 2.98659 
-2.99061 -6.83546 3.15883 -2.68559 -7.41427 3.29471 -2.3242 -7.96887 3.40176 
-1.90991 -8.49182 3.49042 -1.44829 -8.97722 3.57241 -0.946462 -9.42105 3.65911 
-0.41236 -9.82135 3.76046 0.146005 -10.178 3.88412 0.721255 -10.4922 4.03509 
1.30715 -10.7663 4.21573 1.89891 -11.003 4.42612 2.49322 -11.205 4.66468 
3.08803 -11.3747 4.92894 3.68206 -11.5144 5.21604 4.27428 -11.6251 5.52356 
4.8632 -11.7071 5.84974 5.44638 -11.7595 6.19398 6.02005 -11.7797 6.55626 
6.57902 -11.764 6.9374 7.11721 -11.7078 7.33827 7.62852 -11.6066 7.75951 
8.10816 -11.457 8.20047 8.55412 -11.2585 8.6588 8.96852 -11.0153 9.12986 
9.35833 -10.7365 9.60735 9.73504 -10.437 10.0828 10.1132 -10.1359 10.5479 
10.5082 -9.85382 10.9949 10.9321 -9.61012 11.4194 11.3925 -9.41889 11.8207 
11.8893 -9.28672 12.2033 12.4151 -9.21212 12.5759 12.9566 -9.18674 12.9504 
13.4968 -9.19852 13.3392 14.0173 -9.23542 13.7539 14.5005 -9.28866 14.2031 
14.93 -9.35374 14.6922 15.2912 -9.42987 15.2237 15.5708 -9.51824 15.798 
15.7555 -9.6209 16.4143 15.8328 -9.73944 17.0714 15.7901 -9.87555 17.7681 

LINES 2 120
OFFSETS vtktypeint64
0 120 
CONNECTIVITY vtktypeint64
0 1 2 3 4 5 6 7 8 
9 10 11 12 13 14 15 16 17 
18 19 20 21 22 23 24 25 26 
27 28 29 30 31 32 33 34 35 
36 37 38 39 40 41 42 43 44 
45 46 47 48 49 50 51 52 53 
54 55 56 57 58 59 60 61 62 
63 64 65 66 67 68 69 70 71 
72 73 74 75 76 77 78 79 80 
81 82 83 84 85 86 87 88 89 
90 91 92 93 94 95 96 97 98 
99 100 101 102 103 104 105 106 107 
108 109 110 111 112 113 114 115 116 
117 118 119 
CELL_DATA 1
FIELD FieldData 2
Length 1 1 double
76.38140548 
Tortuosity 1 1 double
0.99905344714 
POINT_DATA 120
FIELD FieldData 19
Curvature 1 120 double
0 0.25414954898 0.19346085289 0.14048204081 0.100378961 0.071699843233 0.049460465698 0.030150471999 0.033862044968 
0.091946993204 0.22741309861 0.53522973316 1.0585283688 1.1790384452 0.65730634833 0.24895147911 0.1310950968 0.20890684167 
0.26845137135 0.26152463195 0.19894309692 0.12107498957 0.05695916247 0.037125995064 0.078712356921 0.13956611013 0.21093920022 
0.27417551284 0.29735281153 0.26577970876 0.20450743573 0.1481035958 0.1190731955 0.12715705859 0.17141810414 0.25110423296 
0.36305401717 0.47197444554 0.50386239188 0.43658636566 0.33894231619 0.26998144659 0.24586552533 0.26029450018 0.29944160361 
0.33549656336 0.32897017236 0.26370188212 0.16137281141 0.048931214262 0.072745727251 0.1898153414 0.29130504828 0.34151525624 
0.32983267758 0.28524110643 0.24546995373 0.22544913363 0.22671261349 0.24372021185 0.26670993408 0.28056844424 0.26693651887 
0.22213090864 0.15727756923 0.087444249123 0.025580428283 0.046445250815 0.092366373079 0.1194688542 0.12063966711 0.099396535132 
0.071301317522 0.063291779776 0.085810322364 0.11642634193 0.14096797055 0.15454559484 0.15695836702 0.15157646161 0.14275626636 
0.13404281599 0.12749380711 0.12332206134 0.12037984284 0.11759804822 0.11287888353 0.10714320966 0.099387845795 0.091298226042 
0.083305627638 0.077693640934 0.074876932997 0.076446871958 0.082692997486 0.093874566735 0.10866285331 0.12470031314 0.13667609167 
0.13835970764 0.12483863582 0.095798694204 0.053704445831 0.019878952061 0.065765374933 0.12120769757 0.16329321595 0.17579243034 
0.15612504564 0.11881979834 0.089609299567 0.092684805297 0.12089815052 0.15611841756 0.19170058473 0.22400017449 0.25031827241 
0.2625309645 0.25615802998 0 
Torsion 1 120 double
0 0 0.16991307724 0.2173936961 0.23980855462 0.18089235092 -0.059805472303 -1.0229232307 -1.5156342819 
-0.39002299173 -0.13526638454 -0.027058427703 0.037241653457 0.10447896379 0.33783231032 1.3829801262 2.6563953287 0.59373566882 
0.20219985613 0.10112673985 0.046568262008 -0.077609198344 -0.76772545346 -1.8267394179 -0.23251803064 0.021351172584 0.056891433952 
0.0569783683 0.066143878945 0.10145076091 0.18823157196 0.36300551172 0.52981234828 0.42181961682 0.19839046774 0.059800051128 
-0.0068843629705 -0.038753834676 -0.066733492843 -0.11081320074 -0.1733169327 -0.23098051026 -0.22945910151 -0.16130913203 -0.087397077995 
-0.041019532442 -0.019614662942 -0.0060643641281 0.051057894603 1.1670237287 0.46325553508 -0.022090028561 -0.061223159162 -0.054565438415 
-0.027592422152 0.0084138356085 0.024301905558 -0.0037776512053 -0.055158932765 -0.085952917469 -0.081618534283 -0.05523328324 -0.022391610896 
0.014509848604 0.070666857531 0.24806123046 2.656317321 0.67624477191 0.1027673709 -0.015131115776 -0.11731153989 -0.3176321765 
-0.79123444961 -1.0273630899 -0.45992541688 -0.13984008727 0.0057065020741 0.093369937623 0.16201360907 0.22175338152 0.27038943944 
0.29886026735 0.30059922978 0.27596067967 0.23347892948 0.18344211904 0.1322888766 0.08249999817 0.0414915955 0.0061628543495 
-0.016693805219 -0.021487202412 -0.0050091037124 0.013462523718 0.027359344242 0.030392262417 0.020209191037 0.0037691853735 -0.014200862492 
-0.034282358617 -0.064289444404 -0.14037400873 -0.51960541106 -4.1718061571 -0.45881643494 -0.17504334789 -0.13643902225 -0.16666760451 
-0.26620425889 -0.50953063525 -0.88885618041 -0.72490081055 -0.31000344194 -0.09994601444 -0.01397084509 0.014978350559 0.016132143153 
0.011520723515 0 0 
FrenetTangent 3 120 double
-0.81346127138 -0.4185851335 0.40381585651 -0.81346127138 -0.4185851335 0.40381585651 -0.74989710915 -0.53668051515 0.38681823942 
-0.68683957099 -0.62022017557 0.37891732282 -0.63082647229 -0.67632221096 0.38032384729 -0.58454360355 -0.71242945877 0.38826929034 
-0.54899782121 -0.73518630985 0.39762102826 -0.52511536976 -0.75039327271 0.40145209517 -0.51494294399 -0.76282762578 0.39105981357 
-0.52263462335 -0.77543876817 0.35432720371 -0.55464513562 -0.78695451607 0.27031715292 -0.61489677901 -0.78237831689 0.09892482208 
-0.6755617611 -0.70670377072 -0.21020487003 -0.64191974666 -0.49576876195 -0.5849379228 -0.51296633016 -0.26636223268 -0.81603719592 
-0.39827590539 -0.15215788706 -0.90455750541 -0.32753302652 -0.14908770445 -0.93300320092 -0.28901998402 -0.2263503382 -0.93017900064 
-0.26936729223 -0.35339013657 -0.89585527472 -0.25901621865 -0.49172977963 -0.83133171616 -0.25261031194 -0.60567946864 -0.75454649398 
-0.24727785363 -0.68064274989 -0.68962244028 -0.23923937288 -0.72109000761 -0.65022590181 -0.22192194624 -0.73737980326 -0.63798250409 
-0.18607259676 -0.73798596606 -0.6486553034 -0.12111993078 -0.72683788119 -0.67604486304 -0.018261203258 -0.7023843993 -0.71156354887 
0.12283229893 -0.65903489177 -0.74201431103 0.28598603315 -0.59392208999 -0.75197642241 0.44198067089 -0.51603189102 -0.73373304002 
0.56802339654 -0.44363843509 -0.6932058568 0.66000078545 -0.391815529 -0.64099887242 0.72600325772 -0.3668947645 -0.58164207341 
0.77618786276 -0.36891861261 -0.51130368567 0.81729229793 -0.39531365311 -0.41923789834 0.84928851964 -0.4415886744 -0.28932413145 
0.86104041799 -0.49773375533 -0.10426172544 0.82871513207 -0.54208171701 0.1392071908 0.73269908634 -0.54589431098 0.40638829968 
0.58925954891 -0.49794029447 0.63626146132 0.4401883691 -0.41334449836 0.79710759963 0.31177541198 -0.30953387418 0.89832336785 
0.20675540715 -0.19091094031 0.95958595992 0.11673336062 -0.053157036362 0.9917397098 0.032068896188 0.10757336753 0.99367980582 
-0.051770783667 0.28529324913 0.95704103776 -0.13019294772 0.45725335328 0.87975517462 -0.19286384029 0.59411676333 0.78091536714 
-0.23370578672 0.68071010996 0.69427325416 -0.255169742 0.71834912982 0.64719620708 -0.26442563567 0.71100344773 0.6515774555 
-0.26873086897 0.65620225667 0.7051115645 -0.27254554923 0.54805573035 0.79079317146 -0.27590045623 0.39111452954 0.87801387405 
-0.27572859751 0.20920328385 0.93819386405 -0.26905230922 0.031165977936 0.96262118028 -0.25477381902 -0.12887765334 0.95837406664 
-0.23383393118 -0.2725444071 0.93329590098 -0.20883916336 -0.40742275948 0.88904043716 -0.18315042215 -0.53945470256 0.82185433426 
-0.15942479551 -0.66827175917 0.72663373888 -0.13847468046 -0.78595728096 0.60257440651 -0.11951515776 -0.88003078678 0.45963239811 
-0.1014992067 -0.94241054727 0.31868522312 -0.084163778345 -0.97572773621 0.20216785897 -0.068039649353 -0.98986359083 0.1246622544 
-0.05384856924 -0.99437318635 0.091226629121 -0.041929502321 -0.99407466786 0.10028694609 -0.031895572323 -0.98888011481 0.14525422888 
-0.022331077963 -0.97652998121 0.21422072437 -0.010728898764 -0.956745418 0.29072856046 0.0059775355689 -0.93369879452 0.35800953923 
0.030865256703 -0.91408857788 0.40433823431 0.066559293524 -0.90291032567 0.42464432676 0.11480756117 -0.90077008331 0.41884660786 
0.17600596242 -0.9038303129 0.39001623898 0.24874558882 -0.90551684943 0.34375117082 0.32972905887 -0.8991398677 0.28779549346 
0.4144505885 -0.88026041197 0.23102449394 0.49841384334 -0.84768708943 0.1816872015 0.57798155499 -0.80291337508 0.14583358392 
0.65050032829 -0.7488575977 0.12673445173 0.71412192223 -0.68876515882 0.12502974116 0.76765520156 -0.62552873558 0.13935312153 
0.81044326799 -0.56153212733 0.16692327381 0.84249261101 -0.49854513346 0.20410524318 0.86441836362 -0.43799101108 0.24686993914 
0.87759951282 -0.38066738259 0.29139567418 0.88386766352 -0.32687687587 0.33455860682 0.88507981641 -0.27670346731 0.37425781188 
0.88290436883 -0.22980201684 0.40947638338 0.87847512522 -0.18540888472 0.44034645433 0.87221451226 -0.14232588006 0.46795853285 
0.86377131977 -0.099031496175 0.49405654525 0.85220870038 -0.053432992297 0.52046637387 0.83600004047 -0.0032957118591 0.54871948263 
0.81316488855 0.053266518667 0.57959084018 0.78180131962 0.11722245817 0.61240966023 0.74102378277 0.18756576038 0.64475021435 
0.69247695038 0.26040710178 0.67280295372 0.64144200611 0.32930393265 0.69290047823 0.59628387333 0.38707095165 0.70329341018 
0.56660096992 0.42747478937 0.70443498304 0.56031193533 0.4457885024 0.6980853431 0.58117112827 0.43837297134 0.68561596952 
0.62686499453 0.40245130657 0.66713808501 0.68779763888 0.33825858049 0.64227372722 0.74849005318 0.25289764862 0.61302970533 
0.79396963194 0.16054691982 0.58637608248 0.81684761506 0.076522417888 0.57175544888 0.81703870134 0.01027138566 0.57649133484 
0.79659169263 -0.036557881284 0.60341129966 0.7561491501 -0.067911177899 0.6508659883 0.69440417845 -0.090026549867 0.71393140936 
0.60883220863 -0.10872383961 0.7858132529 0.4972732326 -0.12765556959 0.85815114501 0.35930305496 -0.14784055801 0.92143609876 
0.19870113845 -0.16773055748 0.96560049589 0.025083654043 -0.18481078731 0.98245395983 0.025083654043 -0.18481078731 0.98245395983 

FrenetNormal 3 120 double
0.39893363326 -0.90678918705 -0.13632801071 0.39893363326 -0.90678918705 -0.13632801071 0.54186290584 -0.83372319152 -0.10625549956 
0.66038357002 -0.7502862669 -0.031049285818 0.75172103286 -0.65416663639 0.083555374384 0.80823319461 -0.55327541978 0.20160707575 
0.83557021636 -0.49446635815 0.23942730461 0.80904411012 -0.58651496169 -0.038050329648 0.10272799437 -0.50781972436 -0.85531636645 
-0.30912395072 -0.21496570653 -0.92640818655 -0.36366556752 -0.062935942028 -0.92940110943 -0.28914495307 0.10696624028 -0.95129039707 
-0.079994289664 0.35367024865 -0.93194327555 0.23226234504 0.60129774247 -0.76452287603 0.5037228493 0.67635230289 -0.53741125171 
0.78299102044 0.45729330172 -0.42167273817 0.75942897309 -0.6290339926 -0.16608392752 0.23350046094 -0.95896800417 0.16080392319 
0.088011271468 -0.93537980189 0.34251809049 0.048419239585 -0.86623331145 0.49728807282 0.040518931454 -0.78577602256 0.61718251641 
0.067075198499 -0.72204250924 0.68858952403 0.27860099205 -0.69249361292 0.66545779979 0.96247997588 -0.27044123053 -0.022222440301 
0.91317849681 0.11374686324 -0.39136515439 0.90934617847 0.19183941728 -0.36917091663 0.92983421936 0.24967446169 -0.27031645842 
0.93546144729 0.326554778 -0.13518083297 0.9111312903 0.41155705176 0.021460777993 0.86143718398 0.47228116821 0.18675244634 
0.80425975427 0.47798866414 0.35311907994 0.75057791086 0.38038328609 0.54031597737 0.65929671487 0.13081254973 0.74041604426 
0.48685006757 -0.16460848685 0.8578350994 0.30802871916 -0.31515319691 0.89766183535 0.14806736294 -0.32679742662 0.93342353623 
-0.026417736227 -0.24852586515 0.96826494182 -0.23116466089 -0.10501026867 0.96723096674 -0.43852273388 0.0779418881 0.89533394549 
-0.59263415269 0.26886841279 0.75927237384 -0.66205438663 0.45028508303 0.5991054441 -0.64922045534 0.62092827684 0.43927312165 
-0.57574613852 0.76924330004 0.27709408029 -0.49369604262 0.8633468463 0.10438601667 -0.43626932167 0.89598756721 -0.082917780758 
-0.39891095801 0.87264400206 -0.28171349498 -0.36468640792 0.80302093983 -0.47133978622 -0.3276520001 0.71118175742 -0.62198446504 
-0.30469805272 0.62680621903 -0.71712834308 -0.44977316552 0.5043402486 -0.73711940228 -0.11292561656 -0.69380487553 0.71125424415 
-0.026785611731 -0.73684739126 0.67552827698 -0.022309990158 -0.82528710757 0.56427250015 -0.012083974187 -0.91480827857 0.40370755632 
0.013956933493 -0.97505490061 0.22152459188 0.059882787548 -0.99700123114 0.049016291778 0.11776585464 -0.98783717159 -0.10153288095 
0.16589877495 -0.95701539496 -0.2379057172 0.18021896892 -0.90954952888 -0.37448735325 0.16189666568 -0.84113194556 -0.5160295726 
0.13192283572 -0.74386761905 -0.65517732771 0.11108533041 -0.61692290633 -0.77914451612 0.10777328807 -0.47171453751 -0.8751401679 
0.1236141742 -0.32980427596 -0.9359212977 0.16319456967 -0.21364554769 -0.96318384143 0.2616393874 -0.13828195705 -0.95520831828 
0.75550679563 -0.10030896734 -0.64741608941 0.34411729326 0.079865388493 0.93552381488 0.14993089727 0.13894999744 0.97888386658 
0.1237556784 0.20992606465 0.96985338038 0.16635677187 0.28498565246 0.94398548842 0.3020821351 0.34297554578 0.88944598411 
0.62049029795 0.3346671404 0.70921766425 0.97629999701 0.14677103774 0.1590489809 0.94685686496 -0.028303858422 -0.32040750441 
0.86243502048 -0.049430043979 -0.50374845528 0.82467531169 0.011870901397 -0.56548184055 0.81426187979 0.11658372483 -0.56867022625 
0.81530426301 0.24633848951 -0.52401937684 0.81491647797 0.38659594341 -0.4318040186 0.80064483886 0.52338260305 -0.29161360192 
0.75949519651 0.64048223578 -0.11379609894 0.68472257398 0.72441976431 0.079818555226 0.58057666187 0.77087401353 0.26207631514 
0.46038327927 0.78671047619 0.41125887567 0.33890673872 0.78501463398 0.51855013922 0.22605260353 0.77716249593 0.58729777401 
0.12997746434 0.77401332268 0.61968478687 0.050199788107 0.77743261608 0.62695973454 -0.012589020204 0.78956981609 0.61353159828 
-0.061372782769 0.80809758384 0.5858427063 -0.10160210977 0.82806370349 0.55135062733 -0.14110272258 0.84283813681 0.51933986639 
-0.18823084628 0.84609813335 0.49868536899 -0.24004463753 0.84396329989 0.47969211004 -0.30121820997 0.83309197051 0.46392387161 
-0.36583522468 0.82128374003 0.43778717061 -0.43304063854 0.80873873765 0.39801690869 -0.49815028343 0.79741308593 0.34055640576 
-0.55700552533 0.78566864108 0.26920184096 -0.59999166758 0.77817901142 0.18560017517 -0.61412053759 0.78416676932 0.089097941607 
-0.53378520942 0.84169078423 -0.081424651944 0.52280618441 0.46336006411 -0.71552158914 0.79404330628 -0.48990791797 -0.35984088104 
0.71069560066 -0.6462715832 -0.27792949456 0.61645409258 -0.73937776285 -0.27074873138 0.49807276404 -0.82471173573 -0.26790683952 
0.3506514777 -0.90883840982 -0.22595638078 0.14704756974 -0.98604028491 -0.078112539186 -0.17536226226 -0.94804923398 0.26542555816 
-0.4957461193 -0.61072310115 0.61745694499 -0.63561797021 -0.31279229175 0.70579797263 -0.71595684346 -0.18594522012 0.67292657357 
-0.79170192008 -0.14609834714 0.59318069987 -0.86589644847 -0.13486894355 0.48169877372 -0.93084403937 -0.12720151774 0.34256261947 
-0.97722871628 -0.10874591007 0.18220417976 -0.99632156702 -0.085174436818 0.0094154343656 -0.99632156702 -0.085174436818 0.0094154343656 

FrenetBinormal 3 120 double
0.42324073081 0.05019816989 0.90462557311 0.42324073081 0.05019816989 0.90462557311 0.37952459335 0.12992176329 0.9160138746 
0.3035538571 0.22890489624 0.92490951142 0.19228481638 0.33860637737 0.92107126249 0.071189034746 0.43166025546 0.89922274503 
0.020586545213 0.46368535718 0.88576073727 0.26401037161 0.30481164017 0.91508927854 0.85104683984 -0.40026633746 0.33986193593 
0.79454102069 -0.5937040187 -0.1273581745 0.74840906497 -0.61379284521 -0.2512811466 0.73368736345 -0.6135490141 -0.29199393833 
0.73295103558 -0.61277005122 -0.29545836217 0.73074841219 -0.62662138455 -0.27083647927 0.69507469758 -0.68673045904 -0.21277321592 
0.47780892112 -0.87620249578 -0.062990644513 -0.56212965708 -0.7629476342 0.31925092967 -0.92840992217 -0.1707216781 0.33001382555 
-0.95900744417 0.013417808794 0.28306303968 -0.96465857987 0.088553226662 0.24817765881 -0.96671932147 0.12533325032 0.22303661104 
-0.96662018438 0.12401637746 0.22419936947 -0.93013225387 -0.021949874604 0.36656812915 -0.1561503948 -0.61897703235 0.76973013948 
0.36260449763 -0.66516040546 0.65274774094 0.39801945942 -0.65947276854 0.63771167268 0.36752530928 -0.66657244078 0.64854169352 
0.33139720423 -0.67752120882 0.65661320778 0.29673516928 -0.69128673079 0.65884056884 0.25015807926 -0.71460589531 0.65326820662 
0.17468734544 -0.75809747121 0.6283092833 0.032121066972 -0.83772856398 0.54514134878 -0.19556868754 -0.92101916843 0.33686285019 
-0.40063626073 -0.91476942632 0.051840941873 -0.48698214332 -0.86278941703 -0.13580432227 -0.50673964364 -0.83558535446 -0.21216043215 
-0.50784988117 -0.83096089147 -0.22713981387 -0.50970003869 -0.8337387214 -0.21233373496 -0.52043237865 -0.83422087202 -0.18227911546 
-0.54914291863 -0.82447876853 -0.13666314486 -0.60656260093 -0.79144783131 -0.075446282001 -0.69376429201 -0.72016446438 -0.0073655534189 
-0.7910553619 -0.60976861039 0.049128975007 -0.8617642021 -0.50180330057 0.074537960263 -0.89924449671 -0.43085293314 0.075664292361 
-0.91552707963 -0.39635868563 0.068629139473 -0.92198352493 -0.38219987062 0.062206419681 -0.92490416041 -0.37582679448 0.057502300918 
-0.9233313067 -0.3791407522 0.060922804431 -0.85591617717 -0.47918205447 0.19440179095 0.95777183521 0.11449406973 0.26375029795 
0.96284279665 0.1626484563 0.21559041862 0.96188418634 0.13614737059 0.23715544595 0.96111025165 0.10077320198 0.2571222393 
0.96113419694 0.074174974397 0.26593068393 0.96126214253 0.07083238612 0.26637917789 0.95980284675 0.08699582119 0.26685243576 
0.95801841793 0.099202217538 0.26899745526 0.96120098163 0.082014325372 0.26337487227 0.96966251475 0.038544442325 0.24138958855 
0.97835581462 -0.0085919281267 0.20675124855 0.98411625951 -0.040954610854 0.17273652657 0.9869655746 -0.055056420379 0.15122084886 
0.98712585164 -0.055601258568 0.14997017394 0.98299745211 -0.04807249459 0.17721468454 0.96276447643 -0.032375483163 0.26839595938 
0.65292404868 0.034059908126 0.75665719405 -0.93798998146 0.073736520404 0.33872956801 -0.9881818651 0.053000158029 0.14383179321 
-0.99206141696 0.048168902522 0.11616325499 -0.9860072592 0.058492589547 0.15610349702 -0.95326316027 0.10283159099 0.28410387392 
-0.78360648675 0.22899776621 0.57751268124 -0.20593245565 0.40399406714 0.89128032483 0.30046846953 0.43337299018 0.84965084017 
0.47458164381 0.42502639475 0.77079493195 0.50797269841 0.42414421733 0.7497102244 0.47776180138 0.42184799801 0.77057636073 
0.40436328767 0.40553539389 0.81977519839 0.29579515666 0.36327699482 0.88347894731 0.15781370057 0.2853081894 0.94535394058 
0.0040459082881 0.17027860704 0.98538765296 -0.14555025549 0.028610506102 0.98893708701 -0.27135996613 -0.1202790764 0.95493283144 
-0.36225535957 -0.25645330301 0.89610421148 -0.41874625113 -0.36770201841 0.83032933395 -0.44908920391 -0.45186538829 0.77080254138 
-0.46143791984 -0.50596019621 0.72875189604 -0.46503541226 -0.53735466452 0.70355669983 -0.46526899225 -0.54773597352 0.69534888233 
-0.46552471151 -0.54237378997 0.69936929796 -0.46686022069 -0.52908794017 0.70859543175 -0.46832880146 -0.5190059913 0.71505308524 
-0.46740587892 -0.52374680095 0.71219451897 -0.46488590319 -0.53373295175 0.7064065637 -0.45866275445 -0.55312467577 0.69547219264 
-0.45268913441 -0.56802790104 0.68732586975 -0.44862289511 -0.57636841476 0.68303510045 -0.45025553688 -0.57354289806 0.68433799806 
-0.45849811117 -0.56117103254 0.68910561911 -0.47808174158 -0.5347862621 0.69673632189 -0.5170120963 -0.48503459287 0.70529421946 
-0.62772341925 -0.32988168818 0.70508253469 -0.64243616699 0.765878621 0.026565188283 0.17814417592 0.7535379021 -0.63280746098 
0.31929929819 0.64835637314 -0.69114540553 0.38329983002 0.58215260587 -0.71706316582 0.43781978257 0.50585900433 -0.7432499618 
0.49664450541 0.38501614429 -0.77788611241 0.55779654535 0.14788129058 -0.81669709066 0.54926845666 -0.317957778 -0.77279170151 
0.3459443025 -0.79099988309 -0.50462037665 0.15565429242 -0.9473906555 -0.27968319062 0.072170875329 -0.97842710277 -0.19357626228 
0.05031313413 -0.98327737677 -0.17502625195 0.054246407007 -0.98260593506 -0.17760321988 0.066563421448 -0.98079709588 -0.18332039612 
0.074443896047 -0.97981671099 -0.1855190535 0.081939888891 -0.97907624229 -0.18626745932 0.081939888891 -0.97907624229 -0.18626745932 

plain_curvature_peaks 1 120 unsigned_char
0 0 0 0 0 0 0 0 0 
0 0 0 0 0 0 0 1 0 
0 0 0 0 0 0 0 0 0 
0 0 0 0 0 1 0 0 0 
0 0 0 0 0 0 0 0 0 
0 0 0 0 0 0 0 0 0 
0 0 0 0 0 0 0 0 0 
0 0 0 0 1 0 0 0 0 
0 0 0 0 0 0 0 0 0 
0 0 0 0 0 0 0 0 0 
0 0 0 0 0 0 0 0 0 
0 0 1 0 0 0 0 0 0 
0 0 0 0 0 0 0 0 0 
0 0 0 
weighted_curvature_peaks 1 120 unsigned_char
0 0 0 0 0 0 0 0 0 
0 0 0 0 0 0 0 0 0 
0 1 0 0 0 0 0 0 0 
0 0 0 0 0 0 0 0 0 
0 0 0 0 1 0 0 0 0 
0 0 0 0 0 0 0 0 0 
0 0 0 0 0 0 0 0 0 
0 0 0 0 0 0 0 0 1 
0 0 0 0 0 0 0 0 0 
0 0 0 0 0 0 0 0 0 
0 0 0 0 0 0 0 0 0 
0 0 0 0 0 0 1 0 0 
0 0 0 0 0 0 0 0 0 
0 0 0 
plain_torsion_tp 1 120 unsigned_char
0 0 0 0 0 0 0 0 0 
0 0 0 0 0 0 0 1 0 
0 0 0 0 0 0 0 0 0 
0 0 0 0 0 1 0 0 0 
0 0 0 0 0 0 0 0 0 
0 0 0 0 0 0 0 0 0 
0 0 0 0 0 0 0 0 0 
0 0 0 0 1 0 0 0 0 
0 0 0 0 0 0 0 0 0 
0 0 0 0 0 0 0 0 0 
0 0 0 0 0 0 0 0 0 
0 0 1 0 0 0 0 0 0 
0 0 0 0 0 0 0 0 0 
0 0 0 
plain_torsion_tn 1 120 unsigned_char
0 2 0 0 0 0 0 0 0 
0 0 0 0 0 0 0 0 0 
0 0 0 0 0 2 0 0 0 
0 0 0 0 0 0 0 0 0 
0 0 0 0 0 0 0 0 0 
0 0 0 2 0 0 0 0 0 
0 0 0 0 0 0 0 0 0 
0 0 0 0 0 0 0 0 0 
0 0 0 0 0 0 0 0 0 
0 2 0 0 0 0 0 0 0 
0 0 0 0 0 0 0 0 0 
0 0 0 0 0 0 0 0 0 
0 0 0 0 0 0 0 0 0 
0 0 0 
plain_torsion_tz 1 120 unsigned_char
0 0 3 0 0 0 0 0 0 
0 0 0 0 0 0 0 0 0 
0 0 0 0 3 0 3 0 0 
0 0 0 0 0 0 0 0 0 
0 0 0 0 0 0 0 0 0 
0 0 0 0 0 0 0 3 0 
0 0 0 0 0 0 0 0 0 
0 0 0 0 0 0 0 0 0 
0 0 0 0 0 3 0 0 0 
0 0 0 0 0 0 3 0 0 
0 0 0 0 0 0 0 0 0 
0 0 0 0 0 0 0 0 0 
0 0 0 0 0 0 0 0 0 
0 0 0 
weighted_torsion_tp 1 120 unsigned_char
0 0 0 0 0 0 0 0 0 
0 0 0 0 0 0 0 0 0 
0 1 0 0 0 0 0 0 0 
0 0 0 0 0 0 0 0 0 
0 0 0 0 1 0 0 0 0 
0 0 0 0 0 0 0 0 0 
0 0 0 0 0 0 0 0 0 
0 0 0 0 0 0 0 0 1 
0 0 0 0 0 0 0 0 0 
0 0 0 0 0 0 0 0 0 
0 0 0 0 0 0 0 0 0 
0 0 0 0 0 0 1 0 0 
0 0 0 0 0 0 0 0 0 
0 0 0 
weighted_torsion_tn 1 120 unsigned_char
0 0 0 0 2 0 0 0 0 
0 0 0 0 0 0 0 0 0 
0 0 0 0 0 0 0 0 0 
0 0 0 0 0 0 0 0 0 
0 0 2 0 0 0 0 0 0 
0 0 0 0 0 0 0 2 0 
0 0 0 0 0 0 0 0 0 
0 0 0 0 0 0 0 0 0 
0 0 0 0 0 0 0 0 0 
0 0 0 0 0 0 2 0 0 
0 0 0 0 0 0 0 0 0 
0 0 0 0 0 0 0 0 0 
0 0 0 0 0 0 0 0 0 
0 0 0 
weighted_torsion_tz 1 120 unsigned_char
0 0 0 0 0 3 0 0 0 
0 0 0 0 0 0 0 0 0 
0 0 0 0 0 0 0 0 0 
0 0 0 0 0 0 0 3 0 
0 0 0 3 0 0 0 0 0 
0 0 0 0 0 0 0 0 0 
0 0 0 3 0 0 0 0 0 
0 0 0 0 0 0 0 0 0 
0 0 0 0 0 0 0 0 0 
0 3 0 0 0 0 0 0 0 
0 0 0 3 0 0 0 0 0 
0 0 0 0 0 0 0 0 0 
0 0 0 0 0 0 0 0 0 
0 0 0 
plain_torsion_tp_raw 1 120 unsigned_char
0 0 0 0 0 0 0 0 0 
0 0 0 0 0 0 0 0 0 
0 1 0 0 0 1 0 0 0 
0 0 0 0 0 0 0 0 0 
0 0 0 0 0 0 0 0 0 
0 0 0 0 0 1 0 0 0 
0 0 0 0 0 0 0 0 0 
0 0 0 0 0 0 0 1 0 
0 0 0 0 0 0 0 0 0 
0 0 0 0 0 0 0 0 0 
0 0 1 0 0 0 0 0 0 
0 0 0 0 1 0 0 0 0 
0 0 0 0 0 0 0 0 0 
0 0 0 
plain_torsion_tn_raw 1 120 unsigned_char
0 0 0 0 0 0 0 0 0 
0 2 0 0 0 0 0 0 0 
0 0 0 0 2 0 0 0 0 
0 0 0 0 0 0 0 0 0 
0 0 0 0 0 0 0 2 0 
0 0 0 0 0 0 0 0 0 
0 0 2 0 0 0 0 0 0 
0 0 0 0 0 0 0 0 0 
0 0 0 0 0 0 0 0 0 
0 0 2 0 0 0 0 0 0 
0 0 0 0 0 0 0 2 0 
0 0 0 0 0 0 0 0 0 
0 0 0 0 0 0 0 0 0 
0 0 0 
plain_torsion_tz_raw 1 120 unsigned_char
0 3 0 0 0 0 0 0 0 
0 0 0 0 0 0 0 3 0 
0 0 3 0 0 3 0 0 0 
0 0 0 0 0 0 0 0 0 
0 0 0 0 0 0 0 0 0 
0 0 0 0 0 0 0 0 0 
0 0 0 0 0 0 0 0 0 
0 0 0 0 0 0 0 0 0 
0 0 0 0 0 0 0 0 0 
0 0 0 0 0 0 0 0 0 
0 0 0 0 0 0 0 0 0 
0 0 0 0 0 0 0 0 0 
0 0 0 0 0 0 0 0 0 
0 0 0 
weighted_torsion_tp_raw 1 120 unsigned_char
0 0 0 0 0 0 0 0 0 
0 0 0 0 0 0 0 0 0 
0 0 0 0 0 0 0 0 1 
0 0 0 0 0 0 0 0 0 
0 0 0 1 0 0 0 0 0 
0 0 0 0 0 0 0 0 0 
0 1 0 0 0 0 0 0 0 
0 0 0 0 0 0 0 0 0 
0 0 0 1 0 0 0 0 0 
0 0 0 0 0 0 0 0 0 
0 0 0 0 0 0 0 1 0 
0 0 0 0 0 0 0 0 1 
0 0 0 0 0 0 0 0 0 
0 0 0 
weighted_torsion_tn_raw 1 120 unsigned_char
0 0 0 0 0 0 0 0 0 
0 0 0 2 0 0 0 0 0 
0 0 0 0 0 0 0 0 0 
0 0 0 0 0 0 0 0 0 
2 0 0 0 0 0 0 0 0 
0 0 0 2 0 0 0 0 0 
0 0 0 0 0 0 0 2 0 
0 0 0 0 0 0 0 0 0 
0 0 0 0 0 0 0 0 0 
0 0 0 0 0 0 0 2 0 
0 0 0 0 0 0 0 0 0 
0 0 0 2 0 0 0 0 0 
0 0 0 0 0 0 0 0 0 
0 0 0 
weighted_torsion_tz_raw 1 120 unsigned_char
0 0 0 0 3 0 0 0 0 
0 0 0 0 0 0 0 0 0 
0 0 3 0 0 0 0 0 0 
0 3 0 0 0 0 0 0 0 
0 0 3 0 0 0 0 0 0 
0 0 0 0 0 0 0 0 0 
0 0 0 0 0 0 0 0 0 
0 0 0 0 0 0 0 0 0 
0 0 0 0 0 0 0 0 0 
0 0 0 0 0 0 0 0 0 
0 0 0 0 0 0 0 0 0 
0 0 0 0 0 0 0 0 0 
0 0 0 0 0 0 0 0 0 
0 0 0 
