# vtk DataFile Version 5.1
vtk output
ASCII
DATASET POLYDATA
POINTS 120 float
-3.8874 15.8536 -5.52888 -3.89605 15.3081 -5.97701 -4.05115 14.8204 -6.26772 
-4.32684 14.3789 -6.43317 -4.69753 13.9723 -6.50569 -5.13834 13.59 -6.51802 
-5.62596 13.2233 -6.50319 -6.1393 12.866 -6.49369 -6.6597 12.5153 -6.51961 
-7.17067 12.1714 -6.60615 -7.6571 11.8372 -6.77126 -8.1045 11.5166 -7.02387 
-8.49862 11.214 -7.36348 -8.82564 10.9326 -7.78091 -9.07305 10.6742 -8.26019 
-9.23087 10.4392 -8.78121 -9.29283 10.2259 -9.32261 -9.25731 10.0296 -9.86458 
-9.12787 9.84261 -10.3911 -8.91348 9.6539 -10.8916 -8.62799 9.45111 -11.3609 
-8.28916 9.22277 -11.7984 -7.91697 8.96089 -12.2057 -7.53178 8.6626 -12.5834 
-7.15267 8.33051 -12.9275 -6.79625 7.97159 -13.2279 -6.47596 7.5957 -13.4674 
-6.20201 7.21417 -13.6245 -5.98165 6.8393 -13.6782 -5.81946 6.48434 -13.6126 
-5.71767 6.16314 -13.4213 -5.67575 5.88887 -13.1091 -5.69015 5.67176 -12.6914 
-5.75403 5.51677 -12.1907 -5.85771 5.42222 -11.6324 -5.98949 5.37896 -11.041 
-6.13713 5.37243 -10.437 -6.2895 5.38414 -9.8353 -6.43839 5.39489 -9.24527 
-6.57973 5.38636 -8.67126 -6.71362 5.34411 -8.11427 -6.84286 5.25876 -7.57294 
-6.97074 5.12747 -7.04464 -7.09851 4.95285 -6.52577 -7.22386 4.74219 -6.01211 
-7.34072 4.50404 -5.4991 -7.44083 4.24637 -4.9824 -7.51613 3.97471 -4.45887 
-7.56102 3.69122 -3.92752 -7.57342 3.39484 -3.39037 -7.55443 3.08161 -2.85269 
-7.50694 2.74614 -2.32283 -7.43418 2.38256 -1.8111 -7.33879 1.98609 -1.32857 
-7.22254 1.55384 -0.885381 -7.08655 1.08561 -0.489361 -6.9316 0.583755 -0.144891 
-6.75804 0.053646 0.147819 -6.56548 -0.497041 0.392923 -6.35232 -1.05872 0.598546 
-6.11561 -1.62109 0.775782 -5.85142 -2.17391 0.937163 -5.55565 -2.70815 1.09489 
-5.22519 -3.21726 1.25915 -4.85875 -3.69714 1.43678 -4.45716 -4.1461 1.63073 
-4.02304 -4.56333 1.8402 -3.55989 -4.94825 2.06136 -3.0712 -5.29924 2.28855 
-2.55983 -5.61342 2.51549 -2.02781 -5.88705 2.73654 -1.47666 -6.11689 2.94761 
-0.908005 -6.30114 3.14679 -0.323964 -6.4407 3.33444 0.272551 -6.53915 3.513 
0.878058 -6.60218 3.68639 1.48899 -6.63679 3.85919 2.10223 -6.64956 4.03581 
2.71567 -6.64643 4.21974 3.32847 -6.63137 4.41301 3.94098 -6.60647 4.61596 
4.55432 -6.57137 4.82717 5.16965 -6.52409 5.04423 5.78719 -6.46106 5.26421 
6.40529 -6.37831 5.48457 7.01976 -6.27236 5.70425 7.6235 -6.14133 5.92423 
8.20693 -5.98619 6.14865 8.75955 -5.81158 6.38421 9.27145 -5.62588 6.63975 
9.73604 -5.44138 6.92443 10.1526 -5.27299 7.24561 10.5278 -5.13691 7.60599 
10.8752 -5.0486 8.00287 11.213 -5.02111 8.42755 11.5597 -5.06265 8.8674 
11.9284 -5.17659 9.30787 12.3231 -5.36118 9.73592 12.7354 -5.61101 10.1408 
13.1455 -5.91861 10.5158 13.5253 -6.27639 10.8575 13.8437 -6.6778 11.1652 
14.0726 -7.11757 11.4409 14.1935 -7.59164 11.6888 14.2013 -8.09586 11.9148 
14.1059 -8.62565 12.1266 13.9313 -9.17543 12.3327 13.7114 -9.73878 12.5417 
13.4854 -10.3087 12.7611 13.2914 -10.8778 12.9966 13.1621 -11.4395 13.2515 
13.1197 -11.9873 13.5268 13.1748 -12.516 13.8224 13.3248 -13.021 14.1375 
13.5557 -13.4985 14.472 13.843 -13.9451 14.8274 14.1559 -14.3579 15.2063 
14.4589 -14.7337 15.6125 14.7146 -15.0699 16.0509 14.8851 -15.3634 16.5258 

LINES 2 120
OFFSETS vtktypeint64
0 120 
CONNECTIVITY vtktypeint64
0 1 2 3 4 5 6 7 8 
9 10 11 12 13 14 15 16 17 
18 19 20 21 22 23 24 25 26 
27 28 29 30 31 32 33 34 35 
36 37 38 39 40 41 42 43 44 
45 46 47 48 49 50 51 52 53 
54 55 56 57 58 59 60 61 62 
63 64 65 66 67 68 69 70 71 
72 73 74 75 76 77 78 79 80 
81 82 83 84 85 86 87 88 89 
90 91 92 93 94 95 96 97 98 
99 100 101 102 103 104 105 106 107 
108 109 110 111 112 113 114 115 116 
117 118 119 
CELL_DATA 1
FIELD FieldData 2
Length 1 1 double
71.554605069 
Tortuosity 1 1 double
0.68035350187 
POINT_DATA 120
FIELD FieldData 19
Curvature 1 120 double
0 0.46315530146 0.55671855612 0.45937369032 0.2832548684 0.13947120556 0.061325636409 0.093263026604 0.15763242764 
0.21705313017 0.2617052525 0.28609293456 0.292559394 0.29013248703 0.28813690808 0.2904673003 0.29407902427 0.29040870026 
0.27046368839 0.23323372686 0.18844306048 0.15018336212 0.12872640613 0.12664384307 0.1441371104 0.19001275606 0.28833735816 
0.4737277373 0.7502338181 0.96705542974 0.88876604483 0.62753556519 0.40431933931 0.26187550251 0.16968059867 0.1044541548 
0.049084331892 0.0023736240912 0.054348965561 0.10208428444 0.13831959513 0.15150577785 0.14095425288 0.11209424768 0.083738404718 
0.07266369201 0.080401012944 0.089828315614 0.092015582373 0.090382977975 0.093112103691 0.10533250478 0.12406739106 0.14376396715 
0.15835171199 0.16366352164 0.15658965001 0.13864615035 0.11417514971 0.091498938305 0.082262047692 0.091895398452 0.10930755254 
0.12210198901 0.12434945568 0.11862890044 0.10968650785 0.10396477092 0.10485871134 0.11188198928 0.12048529706 0.12592079083 
0.12285034704 0.11083537587 0.092331155392 0.071616217453 0.054579182277 0.042520220878 0.03640613636 0.032480018354 0.029920363283 
0.030306793724 0.036141919279 0.044822046209 0.053747864218 0.061754178666 0.070099468591 0.082807927376 0.10638311181 0.14178697881 
0.18315503185 0.21580423509 0.2309056837 0.23153427079 0.22653003386 0.21904452107 0.20196876304 0.17985554658 0.16249698736 
0.16823192555 0.21132826847 0.29038395005 0.37425195513 0.39729835557 0.32825796901 0.21102985626 0.098665929276 0.018936939674 
0.084409051538 0.16273220857 0.23097380301 0.27259736828 0.26881759516 0.22568517246 0.16675325106 0.11820702264 0.11312324666 
0.1720652797 0.28043443341 0 
Torsion 1 120 double
0 0 0.025751859695 0.05457974672 0.15387591311 0.57312123262 2.4210350097 0.79652737442 0.20274787986 
0.085045548048 0.06497989105 0.078321985585 0.10546534525 0.13495904593 0.16058982639 0.18219733083 0.20521534807 0.23679706301 
0.28398645274 0.35410324521 0.44784393216 0.53183089258 0.50273376436 0.3007142763 0.033079580578 -0.15768491563 -0.2084355461 
-0.17404958803 -0.1225937106 -0.08666182367 -0.069771140235 -0.060129927093 -0.052586103296 -0.04717660785 -0.048906942706 -0.063764073552 
-0.096495265159 -13.618805608 -0.14653347965 -0.12448405084 -0.10118218214 -0.054317373072 0.045467454956 0.26125705163 0.64364592246 
0.78067031152 0.39141177428 0.058892792923 -0.17539339566 -0.35460198486 -0.4079748591 -0.31054806917 -0.18024675076 -0.087116599 
-0.029573848993 0.015437766825 0.068947159444 0.15681681907 0.32120865131 0.58943101631 0.7546084231 0.54636808268 0.29939287856 
0.15001367275 0.055300507705 -0.0244717078 -0.10028434082 -0.15271591007 -0.15285664761 -0.1082340568 -0.052847372071 -0.0049251802515 
0.037599160157 0.087168048566 0.1554975077 0.25934014581 0.3796013883 0.43247861099 0.29165601991 0.010156359113 -0.29603251165 
-0.42733935436 -0.27813212522 -0.059797267804 0.11647468541 0.28605049672 0.44700776117 0.55230972849 0.55631399596 0.5078181988 
0.48483288228 0.52106916743 0.59563923437 0.63255755337 0.54918719103 0.36099456018 0.15317458153 -0.075576716667 -0.32704820404 
-0.46920758386 -0.39318116501 -0.24658600565 -0.14746216713 -0.10229633695 -0.091850069353 -0.12223761531 -0.35202669422 -7.3125695523 
-0.33437816224 -0.085833847705 -0.027019616961 0.0134731184 0.062675507108 0.15899570184 0.38327237761 0.88233240055 1.1178916001 
0.58418913682 0 0 
FrenetTangent 3 120 double
-0.12786153051 -0.80673608053 -0.57691275371 -0.12786153051 -0.80673608053 -0.57691275371 -0.38421903922 -0.82876612046 -0.40684450036 
-0.59158611767 -0.77626658466 -0.21779819768 -0.71499675539 -0.69511901078 -0.074760956634 -0.77830991892 -0.62787679068 0.0020990092695 
-0.81012156335 -0.5859310695 0.019693511267 -0.82497872666 -0.56501191674 -0.013100934739 -0.82606059928 -0.55633700143 -0.09007234398 
-0.80953242516 -0.55039922656 -0.20424970996 -0.76884534105 -0.53907138064 -0.34391697855 -0.69953164536 -0.51798097576 -0.49229176907 
-0.60214045525 -0.48770211592 -0.63211827871 -0.48111330389 -0.45215979209 -0.75105360077 -0.34148008032 -0.41573954915 -0.84294245475 
-0.18722848337 -0.38188322539 -0.90504734527 -0.02282297108 -0.35352926261 -0.93514500077 0.14380148479 -0.33412844649 -0.93149305645 
0.29993281409 -0.32777451371 -0.8958817864 0.43126275461 -0.33775992058 -0.83661859443 0.52803693204 -0.36464449977 -0.76694940328 
0.58853022511 -0.4057655955 -0.69927566498 0.61766020171 -0.45682591113 -0.6401608877 0.62350555542 -0.51426016384 -0.58887800626 
0.61423490664 -0.57705501784 -0.53825921809 0.59597513195 -0.64713477311 -0.47542636394 0.57072556945 -0.72745155582 -0.38090229497 
0.53274538792 -0.81521485073 -0.22717195866 0.46420461412 -0.8856109353 0.014399566259 0.34285014574 -0.87817553456 0.33355885248 
0.18123249146 -0.75097100393 0.6349782164 0.031253077981 -0.55817982108 0.82913119134 -0.078752127662 -0.37432912369 0.9239457828 
-0.15220205329 -0.22667553191 0.96200454168 -0.19926458039 -0.1166311261 0.97298037361 -0.22742635639 -0.040522322946 0.97295179416 
-0.2414632921 0.0041690360606 0.97040099841 -0.24504436513 0.018262434522 0.96933984887 -0.24192614149 0.0018522167757 0.97029289978 
-0.23622348124 -0.043581292582 0.97072093716 -0.23150780042 -0.11226400469 0.96633375787 -0.22932145858 -0.1932159937 0.95398073797 
-0.22815674302 -0.27301280792 0.93456327091 -0.22384787953 -0.34073011721 0.91312382186 -0.21128754394 -0.39150522535 0.89558987952 
-0.18651910818 -0.42621842224 0.88518273753 -0.1486150529 -0.44848755691 0.88134696763 -0.10031622855 -0.4633719752 0.88046752745 
-0.047072964454 -0.47645126687 0.8779398193 0.005336067149 -0.49333210365 0.86982467308 0.053147486641 -0.51856564841 0.85338444616 
0.095421138079 -0.55472587113 0.82654341344 0.1331584111 -0.60191020812 0.78738360341 0.16792095124 -0.65751982787 0.73448637162 
0.20075142248 -0.71666240398 0.66790258653 0.2318933723 -0.77322064505 0.59021631454 0.26144167697 -0.82128181857 0.5070940978 
0.29022378803 -0.85674787683 0.42632526128 0.32023858626 -0.87799827799 0.35576153771 0.35427608428 -0.88520154649 0.30150734352 
0.39486424295 -0.87910700821 0.26693275886 0.44308879188 -0.86018136502 0.25250810239 0.497500648 -0.82889006942 0.25580140355 
0.55431281106 -0.78663172053 0.27193352818 0.60895870316 -0.73645684772 0.2946194313 0.6583355214 -0.68234842033 0.31779706501 
0.70194149685 -0.62752321357 0.33688685256 0.74132316499 -0.57315430683 0.34919064366 0.77882483001 -0.51802711462 0.35366621647 
0.81603032766 -0.45971577767 0.35036539228 0.85273889145 -0.39636326233 0.34019486664 0.88702015932 -0.32800872659 0.32497001746 
0.91610961012 -0.25735065773 0.30743100235 0.93787159287 -0.18908755485 0.29093430855 0.95182921431 -0.12786894909 0.27869459746 
0.95895710305 -0.076968137304 0.27290507572 0.96093154876 -0.037188118971 0.2742765072 0.95938838485 -0.0075399950515 0.28198772224 
0.95570375807 0.014173836057 0.29398882493 0.95103213426 0.031015928188 0.30753193624 0.946374503 0.046323415567 0.31973339087 
0.94239447502 0.063183805191 0.32848205463 0.93919527683 0.084037576697 0.33294131267 0.93620841684 0.1104507693 0.33363816898 
0.93214549367 0.14270030863 0.33277830542 0.92525390647 0.17998995696 0.33392936972 0.91354390764 0.22021321938 0.34197027184 
0.89507420424 0.25980992221 0.36240995188 0.8679590371 0.29378364092 0.40042262954 0.83051776984 0.31485327041 0.45946452758 
0.78250658398 0.31338010049 0.53803007225 0.72761284952 0.27980211892 0.62633083547 0.67504092609 0.20960632504 0.70737892011 
0.63679302933 0.1076137094 0.76348800078 0.62066022554 -0.012738288363 0.78397616063 0.62482880293 -0.13579430516 0.76886206417 
0.63921849897 -0.24997412512 0.72726380863 0.65161655328 -0.35078571502 0.67256616747 0.65114781679 -0.44131580241 0.61745192787 
0.62834406245 -0.52928594201 0.57012290848 0.57279458951 -0.62290042298 0.53282400591 0.4714658896 -0.72464901706 0.50259697275 
0.31525192623 -0.82344549731 0.47175601319 0.11756764803 -0.89374814686 0.43288808961 -0.077776765532 -0.91806388369 0.38872802857 
-0.22717036235 -0.90817922753 0.35157377199 -0.31515332268 -0.88923474843 0.33157193093 -0.34539898327 -0.87781517857 0.33187355218 
-0.32394370044 -0.87859571435 0.35089891659 -0.25371292965 -0.88742645446 0.38484287345 -0.13835790623 -0.89356960663 0.42707194698 
0.010409902101 -0.88342520569 0.4684565507 0.16846058376 -0.84868110683 0.50135956222 0.30770670457 -0.7936584566 0.52480742967 
0.40984058511 -0.7309337205 0.54567993461 0.46898942263 -0.67149767514 0.57370706266 0.4842117904 -0.62006438048 0.61729985105 
0.45131214127 -0.57519551022 0.68225176891 0.35866588239 -0.52985272485 0.76851471995 0.35866588239 -0.52985272485 0.76851471995 

FrenetNormal 3 120 double
-0.85808467394 -0.20170462614 0.47223504331 -0.85808467394 -0.20170462614 0.47223504331 -0.78458588823 0.060835285067 0.6170284046 
-0.65452619818 0.30467243034 0.69193219761 -0.54409915476 0.48610909497 0.68385236534 -0.52489922153 0.65248713931 0.54657235593 
-0.57265422277 0.78367581216 -0.24066441903 -0.13440704793 0.21865912848 -0.9665003523 0.071019953001 0.05578899268 -0.99591352766 
0.20825530361 0.05605682728 -0.97646677395 0.3460645822 0.10147729483 -0.93270663318 0.48968308175 0.15426921812 -0.85814421154 
0.63092394337 0.19450243656 -0.75106842555 0.75931836103 0.21324287453 -0.61478703879 0.86582873877 0.20980498475 -0.4542273258 
0.9434655761 0.18664225377 -0.27392950887 0.98621105192 0.14539912107 -0.079037058758 0.98895766515 0.082602166174 0.12304315785 
0.9472277714 -0.0090486180847 0.32043356814 0.85610141066 -0.13949953315 0.49762461245 0.70494646051 -0.31536852455 0.63528984058 
0.47858423412 -0.52225578265 0.70583711176 0.19611278664 -0.69881012819 0.68789837887 -0.047690372209 -0.77683008061 0.62790178711 
-0.17695731686 -0.76545004596 0.61868597459 -0.20589397415 -0.69541706444 0.68847859654 -0.20124806212 -0.57363861847 0.79400122978 
-0.22609060463 -0.39578443132 0.89007736878 -0.30103249753 -0.1424588736 0.94291298897 -0.40136313205 0.18409811149 0.89722657204 
-0.46904982866 0.50149420299 0.72697718162 -0.47874756198 0.71982794331 0.50264152627 -0.45166752544 0.83963632518 0.30167414191 
-0.41067925471 0.8998432055 0.14705357959 -0.36786967932 0.92917861763 0.036041581296 -0.31923457044 0.94702258448 -0.035178310365 
-0.26299734292 0.96228460771 -0.069575364799 0.55874150192 -0.81442446802 0.15659093177 0.17045167311 -0.98436618759 0.044378326546 
0.10079341419 -0.99470370816 -0.020130092392 0.044866536153 -0.99349437142 -0.10467056837 0.010160146153 -0.98052143941 -0.1961491226 
0.017765652571 -0.96088826265 -0.27636593187 0.11129902349 -0.93970617873 -0.32336484817 0.37272579233 -0.87931188867 -0.29645587559 
0.74592203658 -0.64780703795 -0.15474610471 0.93179004987 -0.36198604211 -0.027081511582 0.97239987433 -0.23301980228 -0.011842978511 
0.96691528154 -0.24233730495 -0.079671004476 0.90866923302 -0.3607549401 -0.21018110799 0.77293213193 -0.51972555554 -0.36395228582 
0.5973765733 -0.63228297691 -0.49331477454 0.45800691686 -0.66716702559 -0.58746729618 0.37104953668 -0.64811673652 -0.66503153096 
0.32130014639 -0.59590290179 -0.73597958366 0.29457083041 -0.52244652569 -0.80017351472 0.29338225365 -0.43289399551 -0.85236708166 
0.32947822847 -0.32880309915 -0.88506079958 0.4342308405 -0.19772029635 -0.87883460422 0.634599169 -0.0092379123787 -0.77278622897 
0.85180747772 0.24144005628 -0.46489861273 0.8954787167 0.43796904868 -0.079378714642 0.82325140537 0.54409041962 0.16193436579 
0.73904774457 0.61546285173 0.27388667253 0.66830474595 0.67643230458 0.30952884172 0.61601109697 0.73102265456 0.29348970498 
0.58466070454 0.7778072087 0.23062481795 0.56834413392 0.81283745469 0.12759395634 0.55175204482 0.83398268184 0.0065243715452 
0.52045565638 0.84808190155 -0.099413268766 0.47130348741 0.86464110987 -0.17397923407 0.40727689888 0.88739871194 -0.21598391997 
0.33419438749 0.91377230141 -0.23094218443 0.25679745833 0.94213215024 -0.21550423865 0.17735635302 0.97101869157 -0.16021056353 
0.093372717396 0.99449167421 -0.047621902289 -0.0023231402483 0.98981446896 0.14234437133 -0.10630815311 0.91627478758 0.38618530555 
-0.18971802554 0.7933192136 0.57849087816 -0.23342497183 0.72426038935 0.64881404959 -0.22785951592 0.79729743455 0.55892471931 
-0.17969362419 0.92389929672 0.33781694886 -0.12196159236 0.98801069706 0.094658504561 -0.10678021301 0.99384843589 -0.02938150085 
-0.14258192483 0.98946942299 -0.024912962168 -0.21740528036 0.97296350389 0.077954885414 -0.32415955324 0.90201717342 0.28510630105 
-0.42811157391 0.72805358563 0.53540494649 -0.49534950406 0.45411766017 0.74054440755 -0.52034778583 0.14432225347 0.84167052279 
-0.51747077369 -0.15324868861 0.84186628262 -0.48148128398 -0.44204613898 0.75681634773 -0.38970451556 -0.71282196312 0.58310825706 
-0.22509761265 -0.92112738901 0.31757738899 -0.036063350626 -0.99927363361 0.012314215814 0.098138013535 -0.96328886642 -0.2498869547 
0.13576222631 -0.89416135119 -0.42666625826 0.079193207538 -0.85034380762 -0.52023441325 -0.091128379056 -0.85313654894 -0.51366686422 
-0.34724598722 -0.84663113626 -0.40328146929 -0.5929616276 -0.76367564723 -0.25533510145 -0.76731733401 -0.61798493874 -0.17122711356 
-0.88620722725 -0.43326901939 -0.16405702428 -0.9545517803 -0.2219260506 -0.19894654253 -0.97230542033 -0.016345162665 -0.23314159915 
-0.95987162521 0.14785013431 -0.23829981306 -0.94771675006 0.27643272627 -0.15942995172 -0.2871924473 0.43554247465 0.8531255775 
0.85594358983 -0.1141792605 0.50430513333 0.91772433484 -0.095129748463 0.38565836721 0.95258984616 -0.002083294611 0.30425029971 
0.9642176467 0.13297934877 0.22934869216 0.94327493118 0.28642704314 0.16790459541 0.88669263502 0.43924178231 0.14437045295 
0.77484676265 0.59462956238 0.21454178603 0.50092487061 0.73722727402 0.45339852276 -0.10221275052 0.66060685577 0.74374130969 
-0.56474669334 0.40785404315 0.71743728077 -0.7700618411 0.29738271512 0.5644185341 -0.7700618411 0.29738271512 0.5644185341 

FrenetBinormal 3 120 double
-0.49733501923 0.55542068756 -0.66645760441 -0.49733501923 0.55542068756 -0.66645760441 -0.48662173594 0.55627851447 -0.67361227754 
-0.47076673765 0.55189210877 -0.68832679666 -0.43901679875 0.52962959569 -0.72578009189 -0.34454967327 0.4243009177 -0.83740925114 
0.125579432 -0.20624500778 -0.9704085753 0.54894885556 -0.795581372 -0.25633071316 0.559088591 -0.82908185913 -0.006574061032 
0.54889614785 -0.83301760097 0.069243738698 0.53769521711 -0.83612463498 0.10853316676 0.52044784233 -0.84136598285 0.14573032052 
0.48924620574 -0.85106724076 0.19058515647 0.4381388084 -0.86607101261 0.24073924836 0.3656937925 -0.88495338615 0.28831502645 
0.27352916067 -0.9051684215 0.32534893114 0.16391117429 -0.92405419542 0.34533602603 0.035831125056 -0.938900987 0.34231720244 
-0.11313644911 -0.94471264979 0.30776314466 -0.28478555293 -0.93083732 0.22899579154 -0.47352664784 -0.8761147656 0.090528621297 
-0.65160517568 -0.75006878284 -0.11317029658 -0.76160071569 -0.55043118704 -0.3420378023 -0.78036302499 -0.36341644121 -0.5088831295 
-0.76902638932 -0.28476961483 -0.57228024515 -0.77615804673 -0.31242869893 -0.54769242699 -0.79609769618 -0.37650095529 -0.47378844308 
-0.8155154138 -0.42282316762 -0.3951647489 -0.83300270808 -0.44203929758 -0.33272773815 -0.84932997934 -0.44149248674 -0.28934921868 
-0.86437667846 -0.42958830947 -0.26135577686 -0.8773961574 -0.41265363123 -0.24473038964 -0.88870385891 -0.39355882482 -0.23519545607 
-0.89898669886 -0.37269345144 -0.23004892202 -0.90827612874 -0.35074816745 -0.22805744231 -0.91998181583 -0.31860032302 -0.22831402217 
-0.93409200627 -0.27201278078 -0.23125996391 0.79231382239 0.57998212849 0.18936614662 0.95520572088 0.17612432548 0.23782820013 
0.96645701124 0.09308707698 0.23936508002 0.97179788654 0.01912399543 0.23503859369 0.97329771399 -0.035288619168 0.22681770939 
0.97346231679 -0.04645162452 0.22408338711 0.96824823997 0.029245254118 0.24827416481 0.90356685281 0.27117201361 0.33171174464 
0.63938324784 0.63141420488 0.43875410454 0.33118102151 0.81720561465 0.47169281782 0.2106540735 0.8549784701 0.4739585182 
0.25071692073 0.84514307719 0.47209554619 0.41748263598 0.79150445905 0.44635069167 0.63225885846 0.67895140857 0.37319394515 
0.79626379805 0.54083032922 0.27104707877 0.87891893919 0.43885334831 0.18684013758 0.91330432796 0.38420355517 0.13514004858 
0.92545398713 0.36234614717 0.11063538012 0.92706714414 0.35941544465 0.10661636081 0.91955157701 0.37161668845 0.12777297868 
0.89845102806 0.39733058973 0.18685329175 0.84195654581 0.43591938275 0.31793626203 0.68685686341 0.46511598883 0.55847539438 
0.34424736824 0.41094715881 0.84416596835 -0.042310642274 0.26128745026 0.96433328154 -0.2734048807 0.13002641305 0.95307025088 
-0.38281292918 0.049152969311 0.92251734231 -0.42724473594 0.0084052821408 0.90409694549 -0.43257909066 0.002551820674 0.90159237937 
-0.40675544933 0.035079374642 0.9128633205 -0.35696625959 0.10387209839 0.92832412265 -0.29833130105 0.19005471556 0.93534894019 
-0.25143669996 0.2634738925 0.93132222882 -0.22518749027 0.30869388624 0.92412048934 -0.21753336436 0.32393487204 0.92073092381 
-0.22148881148 0.31431007007 0.92312073221 -0.23334939614 0.27682649455 0.93215618393 -0.25013170698 0.20192135222 0.94692232875 
-0.26773645654 0.071149249972 0.96086157904 -0.27677637474 -0.13742037999 0.95105755743 -0.26129007559 -0.40047929049 0.87826182559 
-0.22502754854 -0.60864088566 0.76086718598 -0.20260962991 -0.68882864387 0.69603479601 -0.22903131024 -0.60180639912 0.76509719442 
-0.28213977898 -0.37738295705 0.88203131965 -0.32099470708 -0.12950887305 0.93818433681 -0.33483098176 -0.0081187463552 0.94224322742 
-0.33282904523 -0.024225665908 0.94267594844 -0.31086999315 -0.1447260705 0.93936904988 -0.24567888158 -0.37131005489 0.89541651218 
-0.12475034743 -0.63437905133 0.76288961852 0.035720844705 -0.84111136186 0.53968110788 0.19869176069 -0.93810367512 0.28369539821 
0.34627654325 -0.93718074674 0.042246935237 0.48862594527 -0.85223587419 -0.18691896732 0.62645840936 -0.66929069723 -0.39949946676 
0.73744538955 -0.37409039385 -0.56234391138 0.78324984467 -0.035915751128 -0.62066878418 0.77456949161 0.23159116243 -0.58856404592 
0.75694671442 0.37146791894 -0.537627433 0.75440327635 0.39225602734 -0.5263182551 0.75346011123 0.27820566386 -0.59573439499 
0.69613501819 0.055426624532 -0.71576806701 0.56595306027 -0.16968962515 -0.80678532751 0.43467691895 -0.3049236258 -0.84739457076 
0.33948928316 -0.36635429547 -0.86633224389 0.27387724779 -0.38982441952 -0.87922020853 0.22039270483 -0.39609536871 -0.89136721644 
0.16443871074 -0.39160034278 -0.9053226397 0.050113320188 -0.36448115181 -0.92986135801 -0.89343160934 0.19935712943 -0.40253781732 
-0.40301495006 0.46371614938 0.78901602191 -0.3056334317 0.45102618425 0.83854849982 -0.27097910394 0.44891983471 0.85149357439 
-0.26490746258 0.44930657547 0.85319847486 -0.28610039484 0.44463460039 0.84879127953 -0.34509818164 0.42091912637 0.83888874953 
-0.48129324658 0.33489039966 0.81006495481 -0.72740854783 0.074745024721 0.68212167963 -0.8689600081 -0.42322422683 0.25649514255 
-0.69092584516 -0.70908758593 -0.14077028088 -0.52760169228 -0.79424153173 -0.30135833088 -0.52760169228 -0.79424153173 -0.30135833088 

plain_curvature_peaks 1 120 unsigned_char
0 0 0 0 0 0 0 0 1 
0 0 0 0 0 0 0 0 0 
0 0 0 0 0 0 0 0 0 
0 0 0 0 0 0 0 0 0 
0 0 0 0 0 0 0 0 1 
0 0 0 0 0 0 0 0 0 
0 0 0 0 0 0 0 0 0 
1 0 0 0 0 0 0 0 0 
0 0 0 0 0 0 0 0 0 
0 0 0 0 0 0 0 0 0 
0 0 0 0 0 0 0 1 0 
0 0 0 0 0 0 0 0 0 
0 0 0 0 0 0 0 0 0 
0 0 0 
weighted_curvature_peaks 1 120 unsigned_char
0 0 0 0 0 0 0 0 0 
1 0 0 0 0 0 0 0 0 
0 0 0 0 0 0 0 0 0 
0 0 0 0 0 0 0 0 0 
0 0 0 0 0 0 0 0 0 
0 0 0 1 0 0 0 0 0 
0 0 0 0 0 0 0 0 0 
0 0 0 0 0 1 0 0 0 
0 0 0 0 0 0 0 0 0 
0 0 0 0 0 0 0 0 0 
0 0 0 0 0 0 0 0 0 
0 0 0 1 0 0 0 0 0 
0 0 0 0 0 0 0 0 0 
0 0 0 
plain_torsion_tp 1 120 unsigned_char
0 0 0 0 0 0 0 0 1 
0 0 0 0 0 0 0 0 0 
0 0 0 0 0 0 0 0 0 
0 0 0 0 0 0 0 0 0 
0 0 0 0 0 0 0 0 1 
0 0 0 0 0 0 0 0 0 
0 0 0 0 0 0 0 0 0 
1 0 0 0 0 0 0 0 0 
0 0 0 0 0 0 0 0 0 
0 0 0 0 0 0 0 0 0 
0 0 0 0 0 0 0 1 0 
0 0 0 0 0 0 0 0 0 
0 0 0 0 0 0 0 0 0 
0 0 0 
plain_torsion_tn 1 120 unsigned_char
0 0 0 0 2 0 0 0 0 
0 0 0 0 0 0 0 0 0 
0 0 0 0 0 0 0 0 0 
0 0 0 2 0 0 0 0 0 
0 0 0 0 0 0 0 0 0 
0 0 0 0 0 0 0 0 0 
0 0 0 0 0 0 2 0 0 
0 0 0 0 0 0 0 0 0 
0 0 0 0 0 0 0 0 2 
0 0 0 0 0 0 0 0 0 
0 0 0 0 0 0 0 0 0 
0 0 0 0 0 0 0 0 0 
0 0 0 0 0 0 0 0 0 
0 0 0 
plain_torsion_tz 1 120 unsigned_char
0 0 0 0 0 3 0 0 0 
0 0 0 0 0 0 0 0 0 
0 0 3 0 0 0 0 0 0 
0 0 0 0 0 0 0 0 3 
0 0 0 0 0 0 0 0 0 
0 0 0 0 0 0 0 0 0 
0 0 0 0 0 0 0 3 0 
0 0 0 0 0 0 0 0 0 
3 0 0 0 0 0 0 0 0 
0 0 0 0 3 0 0 0 0 
0 0 0 0 0 0 0 0 0 
0 0 0 0 0 0 0 0 0 
0 0 0 0 0 0 0 0 0 
0 0 0 
weighted_torsion_tp 1 120 unsigned_char
0 0 0 0 0 0 0 0 0 
1 0 0 0 0 0 0 0 0 
0 0 0 0 0 0 0 0 0 
0 0 0 0 0 0 0 0 0 
0 0 0 0 0 0 0 0 0 
0 0 0 1 0 0 0 0 0 
0 0 0 0 0 0 0 0 0 
0 0 0 0 0 1 0 0 0 
0 0 0 0 0 0 0 0 0 
0 0 0 0 0 0 0 0 0 
0 0 0 0 0 0 0 0 0 
0 0 0 1 0 0 0 0 0 
0 0 0 0 0 0 0 0 0 
0 0 0 
weighted_torsion_tn 1 120 unsigned_char
0 2 0 0 0 0 0 0 0 
0 0 0 0 0 0 0 0 0 
0 0 0 0 0 0 0 0 0 
0 0 0 0 0 0 2 0 0 
0 0 0 0 0 0 0 0 0 
0 0 0 0 0 0 0 0 0 
0 0 0 2 0 0 0 0 0 
0 0 0 0 0 0 0 0 0 
0 0 0 0 0 0 0 0 0 
0 0 0 0 2 0 0 0 0 
0 0 0 0 0 0 0 0 0 
0 0 0 0 0 0 0 0 0 
0 0 0 0 0 0 0 0 0 
0 0 0 
weighted_torsion_tz 1 120 unsigned_char
0 3 0 0 0 0 0 0 0 
0 0 0 0 0 0 0 0 0 
0 0 0 0 0 3 0 0 0 
0 0 0 0 0 0 0 0 0 
0 0 0 3 0 0 0 0 0 
0 0 0 0 0 0 0 0 0 
0 0 0 0 3 0 0 0 0 
0 0 0 0 0 0 0 0 0 
0 0 0 0 0 3 0 0 0 
0 0 0 0 0 0 0 0 0 
3 0 0 0 0 0 0 0 0 
0 0 0 0 0 0 0 0 0 
0 0 0 0 0 0 0 0 0 
0 0 0 
plain_torsion_tp_raw 1 120 unsigned_char
0 0 0 0 0 0 0 0 0 
0 0 0 0 1 0 0 0 0 
0 0 0 0 0 0 0 0 0 
0 0 0 0 0 1 0 0 0 
0 0 0 0 0 0 0 0 0 
0 0 0 0 0 0 0 0 0 
0 0 0 0 0 0 1 0 0 
0 0 0 1 0 0 0 0 0 
0 0 0 0 0 0 0 0 0 
0 0 0 0 0 0 0 0 0 
1 0 0 0 0 0 0 0 0 
0 1 0 0 0 0 0 0 0 
0 0 0 0 0 0 0 0 0 
0 0 0 
plain_torsion_tn_raw 1 120 unsigned_char
0 0 0 0 0 2 0 0 0 
0 0 0 0 0 0 0 0 0 
0 0 0 0 0 0 0 2 0 
0 0 0 0 0 0 0 0 0 
0 0 0 0 0 0 0 0 0 
0 0 0 0 0 0 0 0 0 
0 0 0 2 0 0 0 2 0 
0 0 0 0 0 0 0 0 0 
0 0 0 0 0 0 0 0 0 
2 0 0 0 0 0 0 0 0 
0 0 0 0 2 0 0 0 0 
0 0 0 0 0 0 0 0 0 
0 0 0 0 0 0 0 0 0 
0 0 0 
plain_torsion_tz_raw 1 120 unsigned_char
0 0 0 0 3 0 0 0 0 
3 0 0 0 0 0 3 0 0 
0 0 0 0 0 0 0 0 0 
0 0 3 0 0 0 0 0 0 
0 0 0 0 0 0 0 0 0 
0 0 0 0 0 0 0 0 0 
0 0 0 0 0 0 0 0 0 
0 0 0 0 0 0 0 0 0 
0 0 0 0 0 0 0 0 0 
0 0 0 0 0 0 0 0 0 
0 0 0 0 0 0 0 0 0 
0 0 0 0 0 0 0 0 0 
0 0 0 0 0 0 0 0 0 
0 0 0 
weighted_torsion_tp_raw 1 120 unsigned_char
0 0 0 0 0 0 0 0 0 
0 0 0 0 0 0 0 1 0 
0 0 0 0 0 0 0 0 0 
0 0 0 0 0 0 0 0 1 
0 0 0 0 0 0 0 0 0 
0 0 0 0 0 0 0 0 0 
0 0 0 1 0 0 0 0 0 
0 0 0 0 0 0 0 0 1 
0 0 0 0 0 0 0 0 0 
0 0 0 0 0 0 0 0 0 
0 0 0 0 0 1 0 0 0 
0 0 0 0 0 1 0 0 0 
0 0 0 0 0 0 0 0 0 
0 0 0 
weighted_torsion_tn_raw 1 120 unsigned_char
0 0 0 0 2 0 0 0 0 
0 0 0 0 0 0 0 0 0 
0 0 0 0 0 0 0 0 0 
2 0 0 0 0 0 0 0 0 
0 0 0 0 0 0 0 0 0 
0 0 0 0 0 0 0 0 0 
0 0 2 0 0 2 0 0 0 
0 0 0 0 0 0 0 0 0 
0 0 0 0 0 0 0 0 0 
0 0 0 0 0 2 0 0 0 
0 0 0 0 0 0 0 0 0 
2 0 0 0 0 0 0 0 0 
0 0 0 0 0 0 0 0 0 
0 0 0 
weighted_torsion_tz_raw 1 120 unsigned_char
0 3 0 0 0 0 0 0 0 
0 3 0 0 0 0 0 0 3 
0 0 0 0 0 0 0 0 0 
0 0 0 0 0 3 0 0 0 
0 0 0 0 0 0 0 0 0 
0 0 0 0 0 0 0 0 0 
0 0 0 0 0 0 0 0 0 
0 0 0 0 0 0 0 0 0 
0 0 0 0 0 0 0 0 0 
0 0 0 0 0 0 0 0 0 
0 0 0 0 0 0 0 0 0 
0 0 0 0 0 0 0 0 0 
0 0 0 0 0 0 0 0 0 
0 0 0 
