# vtk DataFile Version 5.1
vtk output
ASCII
DATASET POLYDATA
POINTS 120 float
-1.26089 14.8643 -3.0557 -1.55013 14.4097 -3.32106 -1.89992 13.9801 -3.53704 
-2.29733 13.5757 -3.70689 -2.72937 13.1968 -3.83413 -3.18299 12.8439 -3.92312 
-3.64524 12.5173 -3.97991 -4.10354 12.2181 -4.01317 -4.54636 11.9474 -4.03476 
-4.96394 11.7066 -4.05941 -5.3489 11.4962 -4.10345 -5.69681 11.3148 -4.18265 
-6.00659 11.158 -4.31022 -6.28063 11.0178 -4.49529 -6.52425 10.8836 -4.74243 
-6.74439 10.7446 -5.05156 -6.94787 10.5918 -5.41867 -7.13956 10.4201 -5.83637 
-7.32096 10.2285 -6.29426 -7.48959 10.0182 -6.77957 -7.63918 9.79081 -7.27795 
-7.7605 9.54682 -7.77484 -7.84248 9.28476 -8.25709 -7.87397 9.00203 -8.71485 
-7.84538 8.69613 -9.14289 -7.75027 8.36604 -9.54107 -7.58629 8.01304 -9.9135 
-7.35565 7.64073 -10.2664 -7.065 7.25443 -10.6056 -6.72493 6.86035 -10.9332 
-6.34931 6.46479 -11.2459 -5.95454 6.07381 -11.5339 -5.55839 5.69314 -11.7811 
-5.17851 5.32829 -11.9672 -4.83065 4.98469 -12.0703 -4.52684 4.66772 -12.0708 
-4.27378 4.38229 -11.9555 -4.07236 4.13268 -11.72 -3.91835 3.92201 -11.3698 
-3.80382 3.75129 -10.9193 -3.71963 3.61945 -10.3897 -3.6578 3.52212 -9.80497 
-3.61342 3.45192 -9.18935 -3.58559 3.39811 -8.56459 -3.57734 3.34815 -7.94855 
-3.59442 3.28898 -7.3544 -3.64308 3.20881 -6.79062 -3.72747 3.09874 -6.26128 
-3.84726 2.95386 -5.76655 -3.99648 2.77364 -5.3033 -4.16395 2.5623 -4.86582 
-4.33533 2.32739 -4.44673 -4.49612 2.0786 -4.03824 -4.63457 1.82485 -3.63372 
-4.74355 1.57213 -3.22938 -4.82092 1.32082 -2.82561 -4.86857 1.06511 -2.42733 
-4.89082 0.79397 -2.0429 -4.89285 0.49381 -1.6818 -4.87949 0.152461 -1.3517 
-4.85442 -0.237376 -1.05594 -4.81961 -0.676353 -0.792437 -4.77527 -1.15869 -0.55407 
-4.71974 -1.67377 -0.330493 -4.64993 -2.20864 -0.110544 -4.5617 -2.75038 0.115259 
-4.45038 -3.28783 0.352999 -4.3113 -3.81261 0.6047 -4.14009 -4.31853 0.868635 
-3.93307 -4.80102 1.14058 -3.68739 -5.25572 1.4153 -3.40122 -5.67804 1.68804 
-3.07387 -6.06254 1.95538 -2.70596 -6.40351 2.21571 -2.29952 -6.69609 2.46907 
-1.85816 -6.93687 2.71679 -1.38686 -7.12564 2.96091 -0.891645 -7.26493 3.20377 
-0.378958 -7.3607 3.44762 0.14493 -7.42074 3.69451 0.674414 -7.45459 3.94626 
1.2048 -7.47194 4.20459 1.73239 -7.48135 4.47115 2.25437 -7.48899 4.74752 
2.76873 -7.49797 5.035 3.27415 -7.5077 5.33418 3.76998 -7.51403 5.64448 
4.25634 -7.51022 5.96376 4.73416 -7.48848 6.28812 5.20527 -7.44127 6.61209 
5.6722 -7.36434 6.9294 6.13793 -7.25738 7.23427 6.60541 -7.12581 7.52218 
7.0771 -6.97982 7.79179 7.55468 -6.83326 8.04446 8.03866 -6.70086 8.28484 
8.52845 -6.59556 8.51977 9.02233 -6.52594 8.75727 9.51773 -6.49544 9.00525 
10.0117 -6.50295 9.27021 10.5007 -6.54479 9.5557 10.9813 -6.61716 9.86235 
11.45 -6.71855 10.1876 11.9026 -6.85038 10.5261 12.3339 -7.01712 10.8716 
12.7378 -7.22477 11.2175 13.1068 -7.47938 11.5586 13.4323 -7.78516 11.8913 
13.7062 -8.14432 12.2138 13.922 -8.55572 12.5253 14.076 -9.01506 12.8263 
14.1692 -9.51419 13.1175 14.2073 -10.0411 13.4008 14.2018 -10.5793 13.6789 
14.1692 -11.1083 13.9555 14.1306 -11.603 14.236 14.1104 -12.0352 14.5271 
14.1353 -12.3743 14.8358 14.233 -12.5881 15.1702 14.4315 -12.644 15.5383 

LINES 2 120
OFFSETS vtktypeint64
0 120 
CONNECTIVITY vtktypeint64
0 1 2 3 4 5 6 7 8 
9 10 11 12 13 14 15 16 17 
18 19 20 21 22 23 24 25 26 
27 28 29 30 31 32 33 34 35 
36 37 38 39 40 41 42 43 44 
45 46 47 48 49 50 51 52 53 
54 55 56 57 58 59 60 61 62 
63 64 65 66 67 68 69 70 71 
72 73 74 75 76 77 78 79 80 
81 82 83 84 85 86 87 88 89 
90 91 92 93 94 95 96 97 98 
99 100 101 102 103 104 105 106 107 
108 109 110 111 112 113 114 115 116 
117 118 119 
CELL_DATA 1
FIELD FieldData 2
Length 1 1 double
64.641929833 
Tortuosity 1 1 double
0.76018153885 
POINT_DATA 120
FIELD FieldData 19
Curvature 1 120 double
0 0.2301208129 0.20214584945 0.17401202052 0.14785453955 0.12270772003 0.096060331771 0.066275439203 0.054474368696 
0.11700713068 0.24068909058 0.40018080835 0.52302151052 0.51464118391 0.38879698193 0.24942490367 0.15311491652 0.10092193377 
0.080125492055 0.081675063734 0.1020996904 0.14061173913 0.19318900324 0.24715225464 0.27870850928 0.26942240064 0.22540544064 
0.17068547166 0.12438142646 0.09321444427 0.080076377796 0.092778312615 0.14360947805 0.25138179069 0.44798918868 0.72291240195 
0.88075920992 0.72985911009 0.46185020978 0.27073463064 0.1613351085 0.099666209255 0.062007133028 0.05042374173 0.075334333478 
0.12071521341 0.16848144128 0.20009462538 0.20000141027 0.1654096723 0.11420123042 0.076425313279 0.087793290186 0.11672117463 
0.13081400525 0.13063938859 0.14500655472 0.19189546294 0.24066016712 0.25308778899 0.2188417515 0.15720896286 0.094073851235 
0.050424220976 0.050121787403 0.073084712007 0.093831345851 0.10985323558 0.12309876015 0.13696489699 0.15217717356 0.16895543477 
0.18506554513 0.19645165151 0.20001929804 0.19072404636 0.17107796999 0.14189473564 0.11046178763 0.07829841684 0.050595826745 
0.033662036027 0.032734072967 0.038675995961 0.042243843645 0.043295048884 0.04770041454 0.059858828747 0.078439099303 0.093385696936 
0.10035857532 0.093353635234 0.074336665094 0.056298238107 0.062638490862 0.09126967776 0.11786170627 0.13221145514 0.13279087751 
0.12479456871 0.11484213 0.10868706187 0.1098651617 0.12352742372 0.14854559965 0.18155039408 0.21556377392 0.24324261859 
0.25541108618 0.24581928835 0.21613152959 0.17288509928 0.12376669622 0.076038596706 0.062369280643 0.15025675556 0.35532874897 
0.75391672084 1.1615974492 0 
Torsion 1 120 double
0 0 -0.045067217407 -0.051685610914 -0.041628586358 0.014789373529 0.20652857301 0.95772783844 2.4764538097 
0.89417186271 0.3790435068 0.25800695653 0.2382636846 0.26457631649 0.32321456833 0.38583574732 0.41300703614 0.38508952647 
0.31767367509 0.22398810778 0.12890686765 0.05280883829 -0.001784767394 -0.042656354078 -0.076326727265 -0.10679404746 -0.13103855928 
-0.12753210061 -0.0490971827 0.16340981083 0.46577388986 0.50994149762 0.29000794252 0.11183812954 0.015477591132 -0.0326485473 
-0.060051193423 -0.090909263858 -0.12934276248 -0.14622864016 -0.091394871324 0.10383962544 0.65365724634 1.2320405225 0.58975552724 
0.23336297338 0.13401630401 0.13133586 0.1864449929 0.34582091097 0.79911490606 1.6984036724 1.0241726234 0.23971688314 
-0.25678658861 -0.78139467858 -0.95836231771 -0.58012071546 -0.28099267207 -0.12378765546 -0.016743603952 0.1224081744 0.47044746785 
1.488834368 1.0868269026 0.25011381449 -0.020644922071 -0.12707265527 -0.1554407954 -0.12707933846 -0.065909679358 0.00073960850741 
0.05100612005 0.083492924556 0.098076261706 0.10633674969 0.11495855209 0.13349421502 0.17729355799 0.29130087746 0.59322021588 
1.0737382629 0.73891089943 0.13783709166 -0.27897806196 -0.63604373282 -0.78923502074 -0.6531679971 -0.45605586979 -0.35814677537 
-0.34675272491 -0.43499087938 -0.74205840817 -1.4332690842 -1.2484356582 -0.62964601426 -0.40044317172 -0.3204048984 -0.27833791417 
-0.21984985014 -0.1031946144 0.063392428708 0.19036796236 0.19873673782 0.11793372415 0.025684731067 -0.030530596779 -0.059283597908 
-0.074443975574 -0.077882387584 -0.092341345206 -0.14273178821 -0.30308421088 -1.048471953 -2.3020027679 -0.68379159182 -0.24216609616 
-0.10206359826 0 0 
FrenetTangent 3 120 double
-0.53590905728 -0.74152480938 -0.40366129292 -0.53590905728 -0.74152480938 -0.40366129292 -0.63088387518 -0.70417228049 -0.32577129313 
-0.70360414072 -0.6643988815 -0.25202249785 -0.7575830361 -0.62598484028 -0.18496195058 -0.79661293595 -0.59104260861 -0.12679300093 
-0.82429860475 -0.56038382994 -0.080633574526 -0.84403131545 -0.53382782503 -0.051371117939 -0.85867093245 -0.51044515964 -0.046151584731 
-0.86927422248 -0.48869782302 -0.074409434226 -0.87236982058 -0.46631774126 -0.14669240041 -0.8564825931 -0.44038180756 -0.26926089819 
-0.80436376931 -0.40922652725 -0.43073492546 -0.71101084782 -0.37688718241 -0.5936494134 -0.59911776133 -0.35299728427 -0.71864513173 
-0.49856886944 -0.34350810172 -0.79588395289 -0.42188365142 -0.34639861721 -0.8378676403 -0.36622316504 -0.35660957234 -0.8594825224 
-0.32309526384 -0.37101945773 -0.87060554355 -0.28344824078 -0.38983376183 -0.87617734103 -0.23887953959 -0.41561415469 -0.87761121232 
-0.1813850578 -0.45151428728 -0.87363282287 -0.10387443763 -0.49871655504 -0.86051838966 -0.0027317768562 -0.55346525429 -0.83286778644 
0.11781007505 -0.60572662503 -0.78690281608 0.24399597735 -0.64328069656 -0.72571062309 0.35905161202 -0.65993185013 -0.65997870654 
0.45266585842 -0.6587410285 -0.60096079572 0.52354953857 -0.64777718461 -0.55342623697 0.5756454139 -0.63512996357 -0.51501678307 
0.61425097448 -0.62713011091 -0.47896092151 0.64417749997 -0.62848971465 -0.43593121832 0.66893772409 -0.6426365763 -0.37355127104 
0.68915298556 -0.67087553408 -0.27385065319 0.69795999526 -0.70748876265 -0.11095717975 0.6722571608 -0.727229725 0.13859017582 
0.5791076945 -0.68177481492 0.4470093734 0.43063372802 -0.55765524971 0.70963033669 0.28980928083 -0.4115845803 0.86406522555 
0.19018921908 -0.28958424356 0.93806664306 0.12730092009 -0.19979487431 0.9715330586 0.087306754718 -0.13769940936 0.98661867165 
0.057831864234 -0.099313249508 0.99337422654 0.028959615336 -0.083308849543 0.99610289442 -0.0072636036898 -0.089815970422 0.995931891 
-0.056276080531 -0.11928342738 0.99126407517 -0.11906385213 -0.17023449689 0.97818403953 -0.18995236648 -0.23718460497 0.95271273826 
-0.25698773849 -0.31056745846 0.91515307791 -0.30688923924 -0.37943577347 0.87283875295 -0.33104765552 -0.43597908514 0.83685702907 
-0.32741994653 -0.47679116119 0.81576121949 -0.29878126459 -0.50176964472 0.81176165194 -0.25097146748 -0.51371849784 0.82043075727 
-0.19202219374 -0.51936515787 0.83269881104 -0.13062947519 -0.52975897072 0.83802826513 -0.073883703979 -0.55686723969 0.82730893604 
-0.025842384806 -0.60805093163 0.79347730635 0.01201282322 -0.6802203477 0.73290925131 0.03989965429 -0.759096984 0.64975363522 
0.059781508677 -0.82745330865 0.55834325753 0.075231946249 -0.87567239119 0.4770094523 0.090487914866 -0.9036835215 0.41853079962 
0.10930616183 -0.9156622617 0.38680070512 0.13439915966 -0.91555537188 0.37907153271 0.16749675908 -0.90584597225 0.3890859934 
0.20935182112 -0.8880998334 0.40920716136 0.2599775184 -0.86357629039 0.43202740724 0.31884438098 -0.83322710777 0.45174201442 
0.38507323775 -0.79718023818 0.4649970639 0.45745135753 -0.75433055089 0.47087543522 0.53418529178 -0.7025021903 0.47025179071 
0.61258406396 -0.63920774168 0.46492389438 0.68851779996 -0.56332097035 0.45674141864 0.75699008651 -0.47622809136 0.44740676562 
0.81326474 -0.38276895641 0.43827889372 0.85464490617 -0.2900853915 0.43061879893 0.88128047123 -0.20552246703 0.42556462092 
0.89560219381 -0.13462108191 0.42399749379 0.90092648687 -0.080305110338 0.42647690971 0.90022644026 -0.043490179525 0.433244689 
0.89558258151 -0.022655052807 0.44431811608 0.88810470786 -0.014422935941 0.4594148526 0.87831558195 -0.014084244715 0.477873804 
0.86669419334 -0.015902214469 0.49858629625 0.85411025378 -0.013698506733 0.51991155527 0.84188423584 -0.0021588687887 0.53965384528 
0.83150802896 0.02203703235 0.55507546062 0.8242080991 0.05988256444 0.56311196742 0.820645022 0.10860345148 0.56102320646 
0.82091538795 0.16186093346 0.54763031696 0.82511472354 0.21090139258 0.52412431312 0.83340796478 0.24630440271 0.49473761273 
0.84585687445 0.26067550277 0.46537557973 0.86159206269 0.24995319246 0.44179465715 0.87778619848 0.21426874994 0.42846270849 
0.8900657379 0.15828149471 0.42746923941 0.89404394798 0.090482327704 0.43874635891 0.88758666867 0.020622787468 0.46017888504 
0.87166826848 -0.043764227986 0.48813842511 0.84915595332 -0.10002195186 0.5185843963 0.82296456069 -0.1506351763 0.54775758827 
0.7947626736 -0.20119189477 0.57260292886 0.76406444904 -0.25806703269 0.59127567542 0.72813359363 -0.32637662011 0.60274353724 
0.68232058525 -0.40811063151 0.606534691 0.62104152794 -0.50117181437 0.60260620064 0.54034494523 -0.59937831003 0.59057004803 
0.44060100117 -0.69325613755 0.57032156326 0.32813074856 -0.77263728128 0.54347202635 0.21429292619 -0.83095174941 0.51341769734 
0.11089753321 -0.86712500621 0.48558826256 0.027071313488 -0.88431532212 0.46610466104 -0.031616305957 -0.88685905772 0.4609570706 
-0.060968208693 -0.87668386396 0.47718788773 -0.053913511777 -0.84997509903 0.52405692847 0.0048457910514 -0.78942376982 0.61382947954 
0.14302204491 -0.64517018187 0.75053323118 0.36627861629 -0.33349872158 0.8686878484 0.36627861629 -0.33349872158 0.8686878484 

FrenetNormal 3 120 double
-0.77948709637 0.25088851883 0.57398154823 -0.77948709637 0.25088851883 0.57398154823 -0.69632439021 0.32867187673 0.63804948166 
-0.61157939358 0.38561164357 0.69085042209 -0.53121205943 0.42659939729 0.73200184573 -0.46453476441 0.4643420355 0.75405167377 
-0.43124909262 0.52920247241 0.73073179985 -0.47315016647 0.69613604639 0.53992918506 -0.46482389566 0.81352269357 -0.34945611036 
-0.14840217824 0.40157277279 -0.90372346525 0.036489835021 0.23712463997 -0.97079369439 0.20460714212 0.18926368424 -0.96037241486 
0.39318623965 0.1768736528 -0.90228614746 0.58123869553 0.160147351 -0.79781852873 0.73568377389 0.11149024682 -0.66808630409 
0.8434683661 0.019566491064 -0.53682238013 0.90518194139 -0.10835743483 -0.41097970668 0.92417709538 -0.24711274155 -0.2912593163 
0.91011622558 -0.37399219341 -0.17837683482 0.87975885475 -0.46934101308 -0.075785031033 0.8531707438 -0.52142440441 0.01470620295 
0.84250797165 -0.52955287535 0.098762694923 0.84737181551 -0.49737088709 0.18596560691 0.85920320368 -0.4274200703 0.28121511035 
0.86760980648 -0.32270900779 0.37830162568 0.86565464154 -0.19286142385 0.46200271943 0.85403534995 -0.052897122782 0.51751861362 
0.83631380471 0.079860674495 0.54240344092 0.81088417573 0.17951024225 0.55699454798 0.76716929601 0.20151527938 0.60896868839 
0.6659912009 0.086436454184 0.74093485525 0.46960745083 -0.12489012459 0.87399731058 0.2715279211 -0.25655680794 0.92760508427 
0.12416870976 -0.26300161111 0.95677180355 -0.015399512434 -0.16973011402 0.98537025702 -0.18746328453 0.013882906781 0.98217349885 
-0.37816870845 0.2611009453 0.88815242178 -0.51857567146 0.49063555207 0.70025425955 -0.5721798732 0.64920066299 0.50114737541 
-0.5598086573 0.75295471486 0.34593852718 -0.52688645809 0.8162530198 0.23690012229 -0.53307581424 0.83020926783 0.16304216595 
-0.70064887038 0.70477967807 0.11125091372 -0.98690447638 0.15581615954 0.041723841215 -0.91620555495 -0.3984362019 -0.042614247578 
-0.80283216331 -0.58482091437 -0.11595264413 -0.73462379147 -0.6476655004 -0.20213184954 -0.6718206693 -0.6762197215 -0.30229766218 
-0.58543079946 -0.70340389299 -0.40310512571 -0.4498399861 -0.75036174544 -0.4843565194 -0.17273290492 -0.84387913478 -0.5079678626 
0.44672464749 -0.83887740568 -0.31100126617 0.91423443914 -0.39444292641 0.092683159687 0.96762561104 -0.10974460727 0.22728131915 
0.98097781271 -0.076971554791 0.17820749343 0.96663767947 -0.25590721306 -0.011094815545 0.77201208284 -0.55708360113 -0.30603137959 
0.47659191906 -0.70522389673 -0.52489941718 0.28637475097 -0.6999190512 -0.65429567 0.18941314008 -0.63273491955 -0.75084564589 
0.15210584754 -0.54526064852 -0.8243510395 0.17321862828 -0.45961603158 -0.87106165702 0.31330845865 -0.37308477363 -0.87329580408 
0.74132412568 -0.18413686861 -0.64539302313 0.97811649863 0.1838841947 0.097338163404 0.86035478111 0.32701421511 0.39096208733 
0.8256307983 0.38476634066 0.4126604512 0.83879930107 0.42361483384 0.34200322377 0.85999146622 0.45468951229 0.23167245292 
0.8656449274 0.48667730037 0.11749070163 0.84809826698 0.52929523566 0.023997563497 0.80717417034 0.58916731564 -0.036765920623 
0.74491755089 0.66355786029 -0.069201216963 0.66354397383 0.74348697772 -0.083285705576 0.56591319489 0.82011821868 -0.084547993661 
0.4597505189 0.88436948378 -0.080746990865 0.35069809949 0.93410530831 -0.066769124657 0.24596899082 0.96838051507 -0.041694527181 
0.14518473308 0.98937643835 0.0074603297019 0.040314980312 0.99396735101 0.10199807592 -0.099479083819 0.94814108259 0.30188143265 
-0.31272090418 0.67830082993 0.66491625052 -0.45195894201 0.1545740053 0.87854424569 -0.47670837839 -0.1014994277 0.8731821048 
-0.49867800513 -0.05307643897 0.86516075895 -0.5038313043 0.22621899123 0.83365399586 -0.42039250268 0.62439809294 0.65832907063 
-0.26340141894 0.89538660165 0.35902997938 -0.12437912061 0.98925421387 0.07685007931 -0.030989601893 0.98878728201 -0.1460799627 
0.037382256479 0.94169961837 -0.33437164302 0.12076855706 0.84042509586 -0.52829973867 0.24910663371 0.6316826287 -0.73411371166 
0.46350741776 0.072578769831 -0.88311561862 0.48060039453 -0.68178066618 -0.55154182434 0.30209055506 -0.94172947109 -0.14794221787 
0.13610445199 -0.98728071191 0.08217283035 -0.015911404986 -0.97235812354 0.23295172629 -0.1586160278 -0.92422149472 0.34735512725 
-0.28341149922 -0.85759281611 0.42919981811 -0.3804342736 -0.79692405767 0.46923534583 -0.43740186093 -0.78328094994 0.4417584923 
-0.45706066162 -0.81913304365 0.34657843036 -0.45630679365 -0.86407066169 0.21252294389 -0.46679504393 -0.88003856354 0.087375703989 
-0.51092551153 -0.85961730895 -0.0036337060369 -0.58639854439 -0.80724482819 -0.06702637171 -0.67427700193 -0.72829389665 -0.12222325793 
-0.76218452973 -0.62454589425 -0.17034426497 -0.83733395709 -0.50421706552 -0.2112746912 -0.89210268375 -0.38055878624 -0.24357301134 
-0.93574499404 -0.2556969116 -0.2428999702 -0.97440251547 -0.12744288177 -0.18519732649 -0.9932899422 0.079209512394 0.08426709836 
-0.36484807792 0.46456828867 0.80688424523 0.35496801696 0.4742261224 0.80567195047 0.53733717344 0.5197430209 0.66418066387 
0.58052190806 0.66886507434 0.46434235924 0.50511051305 0.85530691986 0.1153838916 0.50511051305 0.85530691986 0.1153838916 

FrenetBinormal 3 120 double
-0.32434757425 0.62225067954 -0.71246245016 -0.32434757425 0.62225067954 -0.71246245016 -0.34222489627 0.62937762658 -0.69768612107 
-0.36181743811 0.640216984 -0.67765061417 -0.37931740184 0.6528061994 -0.65571516277 -0.38680134816 0.65958707452 -0.64446071113 
-0.36681879766 0.63711435891 -0.67788587782 -0.25246793559 0.48002339332 -0.84014134725 0.21592354156 -0.27861544473 -0.93581539748 
0.4715284929 -0.77454099048 -0.42160068127 0.48748270543 -0.85224390248 -0.18984452218 0.47389184959 -0.87763495908 -0.071995787966 
0.44542508637 -0.89512533219 0.018631481354 0.39575895834 -0.91230963916 0.10519491045 0.31595457411 -0.92895793347 0.19289858717 
0.19997549301 -0.93894586451 0.27998297397 0.051573613866 -0.93180827659 0.35926800308 -0.10852322219 -0.90097996974 0.42006880908 
-0.2594184003 -0.84998494178 0.45850593489 -0.38168239714 -0.79230590783 0.47599358834 -0.46372000979 -0.7452391998 0.47914745915 
-0.50722754116 -0.71812854043 0.47645736525 -0.52074092165 -0.70986195729 0.47426247386 -0.51162720039 -0.71483445342 0.47670673587 
-0.48308799397 -0.72729234289 0.48751598749 -0.43715901525 -0.74094157436 0.50980150919 -0.37643799083 -0.74946103807 0.54461233136 
-0.30931026604 -0.74811932875 0.58706441663 -0.26146268227 -0.74037881657 0.61925477289 -0.28299050994 -0.74565509558 0.60325355343 
-0.4232628742 -0.77410371616 0.4707568119 -0.60374182451 -0.76772595068 0.21469204454 -0.69195007721 -0.72193963398 0.0028732463796 
-0.7138979577 -0.69336582719 -0.097946596028 -0.71597115866 -0.68604033345 -0.12935981158 -0.71618979796 -0.68625373732 -0.12699598936 
-0.72223452294 -0.68338085874 -0.10662033474 -0.73867033598 -0.66955013069 -0.077902228677 -0.76721624947 -0.63963789165 -0.047356035718 
-0.80650004846 -0.59093160624 -0.018907897336 -0.84034822308 -0.5420452157 -0.0013594532217 -0.84155077497 -0.54017723412 -0.00092134785523 
-0.71115865734 -0.70244037743 -0.028824993425 -0.15868489272 -0.98426671183 -0.077705500493 0.40064276 -0.91278786389 -0.079395808358 
0.59354319162 -0.80234404221 -0.062853143175 0.66794586915 -0.74266386452 -0.047944762177 0.71594349412 -0.69747426577 -0.030895983703 
0.76891357207 -0.63935187266 -0.0010495797848 0.83872700073 -0.54128157625 0.059592562152 0.92766954964 -0.31271431563 0.20405627525 
0.83260631029 0.26259262527 0.48765955872 0.27368804543 0.76983245024 0.57658724608 -0.026720766614 0.85091093902 0.52462994051 
-0.028460640801 0.85107885213 0.52426594337 0.22033505586 0.8086203876 0.54551400707 0.63129909095 0.61608176301 0.47106763746 
0.87874473758 0.36460021944 0.30801682771 0.95804237594 0.21774664254 0.18638992884 0.98108647934 0.15303035802 0.11853703882 
0.98655460182 0.13420822323 0.093263982625 0.98200583556 0.14815858677 0.11710496185 0.94533049618 0.2101519561 0.249372028 
0.66218630586 0.35729012877 0.65867523121 -0.15882374192 0.35769395294 0.92023369588 -0.48138808285 0.26926711214 0.83412273438 
-0.52393282001 0.25146281834 0.81379410855 -0.47835909362 0.27347113784 0.83449752206 -0.39843812411 0.31462681749 0.86154339819 
-0.31996478125 0.35727982474 0.87748143319 -0.26733421974 0.38837092257 0.88187325702 -0.25122884544 0.39921491306 0.88176613703 
-0.26426995093 0.38872153146 0.88264203617 -0.29266471246 0.36041170671 0.88569225341 -0.32666231 0.31719538518 0.89032512199 
-0.35669303757 0.26716762934 0.89520474462 -0.38287455827 0.20808108667 0.90006073906 -0.40353932471 0.1414202729 0.90396699045 
-0.42049744793 0.054876475315 0.90563263454 -0.43209509095 -0.074699359987 0.89872901255 -0.42390596615 -0.31486043223 0.84921530843 
-0.31644505966 -0.73443497513 0.60038969972 -0.083684781236 -0.98787593138 0.13075932695 0.036205807173 -0.99473589471 -0.095862606365 
0.012705213186 -0.99846382568 -0.053931126046 -0.12903368244 -0.97398014298 0.18631422349 -0.33838007792 -0.78110329715 0.52476333908 
-0.48909517507 -0.44474397444 0.75032573388 -0.55245890682 -0.1333798291 0.82279947585 -0.5705973996 0.10249390839 0.81480893853 
-0.56982496675 0.29496248401 0.76700498062 -0.55190637669 0.49920562983 0.66797686376 -0.49333259499 0.73505863562 0.46509327335 
-0.26398299497 0.96269445019 -0.059433777759 0.1633474159 0.68753074462 -0.70754441339 0.37179656576 0.25929617445 -0.89136569802 
0.43503857342 -0.014958754309 -0.90028755146 0.4476966007 -0.21525015206 -0.86789119465 0.43247064793 -0.38129952706 -0.81705557298 
0.39984040795 -0.51246390518 -0.75993973055 0.36633854617 -0.59574126553 -0.71476458652 0.36250371571 -0.60314177199 -0.7105005693 
0.39930920883 -0.53716187344 -0.74297326834 0.4560587986 -0.43218433365 -0.77796341429 0.50192016974 -0.34497888128 -0.79313663052 
0.52287067293 -0.30741469483 -0.7950487185 0.52004246722 -0.31174123859 -0.79521898396 0.50336653131 -0.3321650818 -0.7976769356 
0.47428419793 -0.3596364188 -0.80356464946 0.43726657333 -0.38574185981 -0.81240455528 0.39778303561 -0.40582533234 -0.82284534161 
0.33478805722 -0.42744977834 -0.83976404052 0.22317455464 -0.44916001931 -0.86512912054 -0.11124522425 -0.45519980765 -0.88341249436 
-0.92906875826 -0.12490679659 -0.34818031908 -0.93332258099 0.22946005286 0.27614677974 -0.84335359153 0.3266149168 0.4267053032 
-0.80158530983 0.36928978967 0.4701978757 -0.78147510828 0.39652071263 0.48173434547 -0.78147510828 0.39652071263 0.48173434547 

plain_curvature_peaks 1 120 unsigned_char
0 0 0 0 0 0 0 0 0 
0 0 0 0 0 0 0 0 0 
0 0 1 0 0 0 0 0 0 
0 0 0 0 0 0 0 0 0 
0 0 0 0 0 0 0 0 0 
0 0 0 1 0 0 0 0 0 
0 0 0 0 0 0 0 0 0 
0 0 0 0 0 0 0 0 0 
0 0 0 0 0 0 0 0 0 
0 1 0 0 0 0 0 0 0 
0 0 0 0 0 0 0 0 0 
0 0 0 0 0 0 0 0 0 
0 0 0 0 0 0 1 0 0 
0 0 0 
weighted_curvature_peaks 1 120 unsigned_char
0 0 0 0 0 0 0 0 0 
0 0 0 0 0 0 0 0 0 
0 0 0 0 0 0 1 0 0 
0 0 0 0 0 0 0 0 0 
0 0 0 0 0 0 0 0 0 
0 0 0 0 0 0 0 1 0 
0 0 0 0 0 0 0 0 0 
0 0 0 0 0 0 0 0 0 
0 0 0 0 0 0 0 0 0 
0 0 0 0 0 0 1 0 0 
0 0 0 0 0 0 0 0 0 
0 0 0 0 0 0 0 0 0 
0 0 0 0 0 0 0 0 1 
0 0 0 
plain_torsion_tp 1 120 unsigned_char
0 0 0 0 0 0 0 0 0 
0 0 0 0 0 0 0 0 0 
0 0 1 0 0 0 0 0 0 
0 0 0 0 0 0 0 0 0 
0 0 0 0 0 0 0 0 0 
0 0 0 1 0 0 0 0 0 
0 0 0 0 0 0 0 0 0 
0 0 0 0 0 0 0 0 0 
0 0 0 0 0 0 0 0 0 
0 1 0 0 0 0 0 0 0 
0 0 0 0 0 0 0 0 0 
0 0 0 0 0 0 0 0 0 
0 0 0 0 0 0 1 0 0 
0 0 0 
plain_torsion_tn 1 120 unsigned_char
0 0 0 0 0 0 0 0 2 
0 0 0 0 0 0 0 0 0 
0 0 0 0 0 0 0 0 0 
0 0 0 0 0 0 0 0 0 
0 2 0 0 0 0 0 0 0 
0 0 0 0 0 0 0 0 0 
0 0 0 0 0 0 0 0 0 
2 0 0 0 0 0 0 0 0 
0 0 0 0 0 0 0 0 0 
0 0 0 0 0 0 0 0 0 
0 0 0 0 0 0 2 0 0 
0 0 0 0 0 0 0 0 0 
0 0 0 0 0 0 0 0 0 
0 0 0 
plain_torsion_tz 1 120 unsigned_char
0 0 0 0 0 0 0 0 0 
3 0 0 0 0 0 0 0 0 
0 0 0 0 0 0 0 0 0 
0 0 0 0 0 3 0 0 0 
0 0 0 0 0 0 3 0 0 
0 0 0 0 0 0 0 0 0 
0 0 0 0 0 0 0 0 0 
0 0 0 0 0 0 3 0 0 
0 0 0 0 0 0 0 0 0 
0 0 0 0 0 0 0 0 0 
3 0 0 0 0 0 0 0 0 
0 0 0 3 0 0 0 0 0 
0 0 0 0 0 0 0 0 0 
0 0 0 
weighted_torsion_tp 1 120 unsigned_char
0 0 0 0 0 0 0 0 0 
0 0 0 0 0 0 0 0 0 
0 0 0 0 0 0 1 0 0 
0 0 0 0 0 0 0 0 0 
0 0 0 0 0 0 0 0 0 
0 0 0 0 0 0 0 1 0 
0 0 0 0 0 0 0 0 0 
0 0 0 0 0 0 0 0 0 
0 0 0 0 0 0 0 0 0 
0 0 0 0 0 0 1 0 0 
0 0 0 0 0 0 0 0 0 
0 0 0 0 0 0 0 0 0 
0 0 0 0 0 0 0 0 1 
0 0 0 
weighted_torsion_tn 1 120 unsigned_char
0 0 0 0 0 0 0 0 0 
2 0 0 0 0 0 0 0 0 
0 0 0 0 0 0 0 0 0 
0 0 0 0 0 0 0 0 0 
0 0 0 0 0 2 0 0 0 
0 0 0 0 0 0 0 0 0 
0 0 0 0 0 0 0 0 0 
0 0 0 0 0 2 0 0 0 
0 0 0 0 0 0 0 0 0 
0 0 0 0 0 0 0 0 0 
0 0 0 0 0 0 0 0 0 
0 0 2 0 0 0 0 0 0 
0 0 0 0 0 0 0 0 0 
0 0 0 
weighted_torsion_tz 1 120 unsigned_char
0 0 0 0 0 0 0 0 0 
0 3 0 0 0 0 0 0 0 
0 0 0 0 0 0 0 0 0 
0 0 0 0 0 0 0 0 3 
0 0 0 0 0 0 0 0 0 
0 3 0 0 0 0 0 0 0 
0 0 0 0 0 0 0 0 0 
0 0 0 0 0 0 0 0 0 
0 0 3 0 0 0 0 0 0 
0 0 0 0 0 0 0 0 0 
0 0 0 0 0 3 0 0 0 
0 0 0 0 0 0 0 0 3 
0 0 0 0 0 0 0 0 0 
0 0 0 
plain_torsion_tp_raw 1 120 unsigned_char
0 0 0 0 0 0 0 0 0 
0 0 0 0 0 0 0 0 0 
0 0 0 0 0 0 0 0 1 
0 0 0 0 0 0 0 0 0 
0 0 0 1 0 0 0 0 0 
0 0 0 0 0 0 0 0 0 
0 0 0 0 0 0 0 0 0 
0 0 0 0 1 0 0 0 0 
0 0 0 0 0 0 0 0 0 
0 0 0 0 1 0 0 0 0 
0 0 0 0 0 0 0 0 0 
0 0 0 0 0 0 0 0 1 
0 0 0 0 0 0 0 1 0 
0 0 0 
plain_torsion_tn_raw 1 120 unsigned_char
0 0 0 0 0 0 0 0 0 
0 0 0 0 0 0 0 2 0 
0 0 0 0 0 0 0 0 0 
0 0 0 0 0 0 0 2 0 
0 0 0 0 0 0 0 0 0 
0 0 0 0 0 0 0 0 0 
0 0 0 2 0 0 0 0 0 
0 0 0 0 0 0 0 0 0 
0 0 2 0 0 0 0 0 0 
0 0 0 0 0 0 0 0 0 
0 0 0 0 0 0 0 2 0 
0 0 0 0 0 0 0 0 0 
0 0 0 2 0 0 0 0 0 
0 0 0 
plain_torsion_tz_raw 1 120 unsigned_char
0 0 0 0 0 0 0 0 3 
0 0 0 0 0 0 0 0 0 
0 0 0 3 0 0 0 0 0 
3 0 0 0 0 0 0 0 0 
0 3 0 0 0 0 0 0 0 
0 0 0 0 0 0 0 0 0 
0 0 0 0 0 0 0 0 0 
0 0 0 0 0 0 0 0 0 
0 0 0 0 0 0 0 0 0 
0 0 0 0 0 0 0 0 0 
0 0 0 0 0 0 0 0 0 
0 0 0 0 0 0 0 0 0 
0 0 0 0 0 0 0 0 0 
0 0 0 
weighted_torsion_tp_raw 1 120 unsigned_char
0 0 0 0 0 0 0 0 0 
0 0 0 0 0 0 0 0 0 
0 0 0 0 0 0 0 0 0 
0 0 0 1 0 0 0 0 0 
0 0 0 0 0 0 0 1 0 
0 0 0 0 0 0 0 0 0 
0 0 0 0 0 0 0 0 0 
0 0 0 0 0 0 0 0 1 
0 0 0 0 0 0 0 0 0 
0 0 0 0 0 0 0 0 0 
1 0 0 0 0 0 0 0 0 
0 0 0 0 0 0 0 0 0 
0 0 0 1 0 0 0 0 0 
0 1 0 
weighted_torsion_tn_raw 1 120 unsigned_char
0 0 0 0 0 0 0 0 0 
0 0 0 0 0 0 0 0 0 
0 2 0 0 0 0 0 0 0 
0 0 0 0 0 0 0 0 0 
0 2 0 0 0 0 0 0 0 
0 0 0 0 0 0 0 0 0 
0 0 0 0 0 0 0 0 0 
2 0 0 0 0 0 0 0 0 
0 0 0 0 0 0 0 2 0 
0 0 0 0 0 0 0 0 0 
0 0 0 0 0 0 0 0 0 
0 0 0 2 0 0 0 0 0 
0 0 0 0 0 0 2 0 0 
0 0 0 
weighted_torsion_tz_raw 1 120 unsigned_char
0 0 0 0 0 0 0 0 0 
3 0 0 0 0 0 0 0 0 
0 0 0 0 0 0 0 3 0 
0 0 0 0 3 0 0 0 0 
0 0 0 0 3 0 0 0 0 
0 0 0 0 0 0 0 0 0 
0 0 0 0 0 0 0 0 0 
0 0 0 0 0 0 0 0 0 
0 0 0 0 0 0 0 0 0 
0 0 0 0 0 0 0 0 0 
0 0 0 0 0 0 0 0 0 
0 0 0 0 0 0 0 0 0 
0 0 0 0 0 0 0 0 0 
0 0 0 
