# vtk DataFile Version 5.1
vtk output
ASCII
DATASET POLYDATA
POINTS 120 float
-3.31415 14.7978 -6.73881 -3.4434 14.3246 -6.72624 -3.64884 13.8487 -6.66822 
-3.90993 13.3744 -6.58473 -4.20628 12.906 -6.49605 -4.51787 12.4479 -6.42297 
-4.8256 12.0047 -6.38649 -5.112 11.5804 -6.40636 -5.36204 11.1777 -6.49854 
-5.56434 10.7972 -6.67236 -5.71226 10.4363 -6.92816 -5.8047 10.089 -7.257 
-5.84655 9.74658 -7.64225 -5.84821 9.39894 -8.06296 -5.8237 9.03717 -8.49836 
-5.7878 8.65565 -8.93202 -5.75273 8.25355 -9.35467 -5.72542 7.83528 -9.76502 
-5.70601 7.40951 -10.1684 -5.6876 6.98718 -10.5738 -5.65749 6.57883 -10.9898 
-5.59911 6.19223 -11.4216 -5.49478 5.83066 -11.8674 -5.32895 5.49241 -12.318 
-5.09155 5.1715 -12.757 -4.78113 4.85956 -13.1622 -4.40667 4.54855 -13.5089 
-3.98766 4.23364 -13.7723 -3.55227 3.91595 -13.9314 -3.13376 3.60443 -13.972 
-2.76588 3.31521 -13.8889 -2.47845 3.06957 -13.6871 -2.29344 2.89002 -13.3812 
-2.2225 2.79482 -12.9929 -2.26595 2.79346 -12.547 -2.41373 2.88364 -12.0678 
-2.64762 3.05108 -11.5751 -2.94436 3.2713 -11.0824 -3.27915 3.51492 -10.5966 
-3.62874 3.75172 -10.1189 -3.97368 3.9556 -9.64699 -4.29951 4.10762 -9.17677 
-4.597 4.19737 -8.70468 -4.86145 4.22205 -8.2286 -5.09161 4.18463 -7.74841 
-5.28842 4.0914 -7.26578 -5.45394 3.94937 -6.78387 -5.59073 3.76459 -6.30701 
-5.70177 3.54055 -5.84057 -5.79052 3.27795 -5.39054 -5.8608 2.97499 -4.9627 
-5.91632 2.62969 -4.56119 -5.96004 2.24132 -4.1872 -5.9937 1.81218 -3.83848 
-6.01751 1.34777 -3.50976 -6.03029 0.855671 -3.1942 -6.02967 0.344699 -2.8852 
-6.0124 -0.177076 -2.57797 -5.97441 -0.702683 -2.27046 -5.91097 -1.22651 -1.96328 
-5.81685 -1.74423 -1.65887 -5.68697 -2.25165 -1.36001 -5.51733 -2.74413 -1.06837 
-5.30604 -3.21605 -0.783168 -5.05424 -3.66118 -0.500601 -4.76635 -4.073 -0.214084 
-4.44961 -4.44573 0.0846595 -4.11293 -4.77578 0.403843 -3.76557 -5.0629 0.749808 
-3.41592 -5.31094 1.12561 -3.07054 -5.52721 1.53037 -2.73372 -5.72155 1.95975 
-2.40728 -5.90382 2.40708 -2.09054 -6.0812 2.86485 -1.78069 -6.25631 3.32621 
-1.47329 -6.42645 3.78584 -1.1634 -6.58422 4.24073 -0.846476 -6.71982 4.69003 
-0.51897 -6.82363 5.13419 -0.178192 -6.88929 5.57387 0.178243 -6.91553 6.00877 
0.552852 -6.90662 6.43656 0.948281 -6.87112 6.85353 1.36668 -6.81936 7.25488 
1.80882 -6.76053 7.63658 2.27337 -6.70004 7.99625 2.75649 -6.63803 8.33412 
3.25232 -6.56972 8.65306 3.75391 -6.48705 8.95727 4.25461 -6.3811 9.25152 
4.74949 -6.24505 9.53934 5.23617 -6.07618 9.82233 5.71531 -5.87749 10.1002 
6.19014 -5.657 10.3713 6.66565 -5.4269 10.6331 7.14733 -5.20102 10.8842 
7.64025 -4.99268 11.1245 8.14747 -4.81255 11.3562 8.66967 -4.66656 11.5836 
9.20426 -4.55641 11.8123 9.74594 -4.47946 12.0488 10.2868 -4.43207 12.2983 
10.8176 -4.41125 12.5644 11.3291 -4.41808 12.8474 11.8131 -4.45791 13.1446 
12.2634 -4.54026 13.4513 12.6766 -4.67543 13.7619 13.0518 -4.87194 14.072 
13.3903 -5.13306 14.3799 13.6945 -5.45539 14.6873 13.9664 -5.82928 14.9983 
14.2068 -6.24058 15.3189 14.4143 -6.67279 15.6547 14.5853 -7.1095 16.0097 
14.7146 -7.53485 16.3862 14.7959 -7.93344 16.7841 14.8233 -8.28983 17.2025 
14.7911 -8.58785 17.6394 14.6938 -8.81105 18.0931 14.5261 -8.94225 18.5618 

LINES 2 120
OFFSETS vtktypeint64
0 120 
CONNECTIVITY vtktypeint64
0 1 2 3 4 5 6 7 8 
9 10 11 12 13 14 15 16 17 
18 19 20 21 22 23 24 25 26 
27 28 29 30 31 32 33 34 35 
36 37 38 39 40 41 42 43 44 
45 46 47 48 49 50 51 52 53 
54 55 56 57 58 59 60 61 62 
63 64 65 66 67 68 69 70 71 
72 73 74 75 76 77 78 79 80 
81 82 83 84 85 86 87 88 89 
90 91 92 93 94 95 96 97 98 
99 100 101 102 103 104 105 106 107 
108 109 110 111 112 113 114 115 116 
117 118 119 
CELL_DATA 1
FIELD FieldData 2
Length 1 1 double
66.838507323 
Tortuosity 1 1 double
0.71325365358 
POINT_DATA 120
FIELD FieldData 19
Curvature 1 120 double
0 0.3271779636 0.19405359918 0.10903139675 0.076616900611 0.11719741214 0.20387452618 0.31889127834 0.42951537552 
0.46822380924 0.40134346219 0.27801945586 0.1618783228 0.083431451634 0.059216649902 0.06694960705 0.063166344694 0.037556609211 
0.0114012544 0.061659436492 0.11461911465 0.15976764918 0.19272889031 0.21408656155 0.22862674238 0.24411472375 0.26946739309 
0.31381035544 0.3898836554 0.51723553871 0.71590257932 0.95409753653 1.0527966698 0.86858966132 0.57349752623 0.34354202073 
0.19528125796 0.099906125281 0.044740459805 0.071617624897 0.13159838127 0.18881956585 0.22901484565 0.24206571493 0.23049606907 
0.20764219138 0.18523295128 0.17200608494 0.17002002434 0.17789529649 0.18465120864 0.18011121529 0.15792858304 0.12297970914 
0.086483160229 0.059017573141 0.049714690951 0.055756492393 0.06853017793 0.08436456816 0.10185576127 0.11863778331 0.13197943533 
0.14000569963 0.14502869698 0.15055763672 0.15724312598 0.16016803055 0.15211240444 0.13147893597 0.10139302104 0.070181838113 
0.044131641461 0.023297226413 0.012023097218 0.036522558337 0.071229365157 0.1056067128 0.12932956749 0.13524513101 0.12444692669 
0.10622455788 0.094261740885 0.091451724313 0.090207956037 0.081728379744 0.067229402614 0.060701692823 0.072228678279 0.090089185102 
0.098838010085 0.090170726806 0.067030010244 0.038388839302 0.037476289865 0.067786655898 0.095451981467 0.10891726126 0.10857869535 
0.098050520867 0.090777358058 0.091997683042 0.10537987262 0.12822091171 0.16570809095 0.21301280549 0.25616201265 0.26994918634 
0.24407883964 0.19446910201 0.14652297771 0.12024606625 0.12046434249 0.14010798024 0.17355071807 0.22066516287 0.2867351035 
0.36765342816 0.4463097394 0 
Torsion 1 120 double
0 0 0.35333069675 0.93118320274 1.7989804255 0.81758590403 0.317899124 0.16988513588 0.13013631543 
0.13840841547 0.1868812536 0.300918436 0.58088333081 1.3288253369 1.5691675168 0.707509819 0.42612993789 0.60542816125 
5.6584136705 0.47632189438 0.35265283856 0.35796673569 0.38545495235 0.41034199114 0.41726671848 0.39631847903 0.34209233455 
0.25717889519 0.1586845844 0.060824441045 -0.020304510142 -0.061783438695 -0.071389671884 -0.065392004304 -0.038825555378 0.020483873741 
0.14343293941 0.52513167671 2.423740671 0.88789710649 0.25474462873 0.11828082529 0.071564041034 0.049682021243 0.029444714605 
-0.0040375518589 -0.068039626361 -0.15700237272 -0.21964371773 -0.20854116112 -0.14843549074 -0.074770657386 0.0085092777257 0.12584607206 
0.33717038659 0.68086727498 0.72470209816 0.33925197365 0.069404106884 -0.012118577113 0.012080814174 0.083549197075 0.17581789178 
0.28069377387 0.37638764232 0.41817933407 0.39196798358 0.33718009514 0.29733394134 0.29467933193 0.34489996397 0.42540306221 
0.42139146524 -0.15459041226 -3.0833349736 -0.17989454997 0.05401971191 0.041513116657 -0.021852610964 -0.12673619045 -0.28373293744 
-0.48368781865 -0.57065358491 -0.40697976278 -0.1356101743 0.16507909419 0.58873376144 0.91409312044 0.59139446033 0.24137707497 
0.050086100315 -0.10683112573 -0.40111404446 -1.4961221463 -1.6357957167 -0.52569212625 -0.29382362614 -0.26530622704 -0.31237075316 
-0.41004892921 -0.44123827588 -0.28415487459 -0.0084299761745 0.19216628947 0.23917312682 0.19215543026 0.11195637939 0.023695988607 
-0.07845584666 -0.23296976937 -0.46014813429 -0.60701445476 -0.49367958829 -0.29836020109 -0.18284435741 -0.13127730883 -0.10514048461 
-0.082870007349 0 0 
FrenetTangent 3 120 double
-0.33175579643 -0.94076674285 0.069971616261 -0.33175579643 -0.94076674285 0.069971616261 -0.43683909705 -0.88972713693 0.13250367958 
-0.50281247915 -0.85033026961 0.15529984996 -0.54288046608 -0.82729269591 0.14445620392 -0.56353999231 -0.82005190252 0.099687282252 
-0.56496790997 -0.82496170999 0.015793598475 -0.54068991367 -0.83360705222 -0.11293227943 -0.47980549812 -0.83076998872 -0.28214873704 
-0.37833096909 -0.80091481331 -0.46411328321 -0.25320682335 -0.7460187267 -0.6159077561 -0.13405034274 -0.6884488771 -0.71278934422 
-0.040976538468 -0.64984376012 -0.75896245673 0.020546832672 -0.63791528731 -0.76983239337 0.052751016387 -0.64907089103 -0.75889677078 
0.061030903157 -0.67384280779 -0.73634984841 0.053278721081 -0.70068407202 -0.71147959148 0.039817058681 -0.71934332048 -0.69351264525 
0.032257930027 -0.72332935109 -0.68974928474 0.041499463825 -0.71044091983 -0.70253220135 0.075920010152 -0.68201557606 -0.72738635268 
0.13971124876 -0.64242018348 -0.75350983724 0.231128378 -0.59870504166 -0.76689761114 0.34220301786 -0.55940368763 -0.75496000479 
0.46080303495 -0.53233034934 -0.71013024309 0.57423498159 -0.52231417137 -0.63043008518 0.67216560362 -0.53022937234 -0.51676901417 
0.74686367078 -0.55297432929 -0.36934272488 0.79114352111 -0.58296127419 -0.18506237275 0.79392590026 -0.60649910212 0.042901095836 
0.73418289548 -0.59924517136 0.31918756334 0.58076137267 -0.52268306658 0.62411428434 0.3242773191 -0.34809266754 0.87958837823 
0.03272411632 -0.11492770945 0.99283470619 -0.20155586025 0.093617209475 0.97499284781 -0.3548657442 0.23952782679 0.90371274407 
-0.44798895972 0.32728465227 0.8319799567 -0.50378963725 0.37001981888 0.7805647539 -0.53648051685 0.37659445919 0.75522530966 
-0.5528384899 0.3507765629 0.75586070609 -0.55432938515 0.29411465448 0.77859842203 -0.53949189586 0.20925419099 0.81557414001 
-0.50711368141 0.10326897988 0.85567004851 -0.45937755517 -0.011834032433 0.88816226979 -0.40230001505 -0.12309714349 0.9071944616 
-0.34283918336 -0.2226025989 0.91263868936 -0.28598879087 -0.30916606226 0.90698773831 -0.2343495616 -0.38657676792 0.89198581014 
-0.18906639729 -0.46051559263 0.86728270268 -0.15055087109 -0.53540772487 0.83106738798 -0.11865815519 -0.6114916083 0.78230317345 
-0.092562921112 -0.68429369927 0.7233078451 -0.07074593766 -0.7473303592 0.66067567423 -0.051184062286 -0.79583188091 0.60335048612 
-0.031706229351 -0.82898155231 0.55837648674 -0.010291065614 -0.84884625787 0.52853961485 0.01487450244 -0.85864833514 0.512349281 
0.045454504241 -0.86153632795 0.50565704155 0.083106930568 -0.85989260837 0.50366451152 0.12935442878 -0.85508110732 0.50209932449 
0.18506416654 -0.84695689861 0.49841274679 0.24975382574 -0.83377194959 0.49238944201 0.32104456343 -0.81276592925 0.48615011318 
0.39452683771 -0.78126755751 0.48370401891 0.46457554821 -0.73768796547 0.4898836858 0.52554402712 -0.68192533868 0.50870552192 
0.57249757091 -0.61574232205 0.54139442567 0.60197213555 -0.54312895509 0.58535500865 0.61293021056 -0.47060404573 0.63470338673 
0.60773573856 -0.40599062958 0.68251657911 0.59158633646 -0.35607280851 0.72335175506 0.57076656106 -0.32409206344 0.75444672919 
0.55106983415 -0.30814725315 0.77547876068 0.53696772653 -0.30207111169 0.78766661993 0.53155606549 -0.29731712185 0.7931271514 
0.53628045977 -0.28488274422 0.79450933948 0.55049286404 -0.25764683114 0.79408797815 0.57164203219 -0.21236780171 0.79254356589 
0.59618249423 -0.15118219547 0.78848613009 0.62126420668 -0.081887683981 0.77931071641 0.64642015624 -0.015328299273 0.76282765082 
0.67315536219 0.038819859575 0.73848146684 0.70314910152 0.075397366592 0.70703364711 0.73630842488 0.094630516165 0.66999624541 
0.77016887076 0.10134792476 0.62973685668 0.80102629722 0.1035417117 0.5896066359 0.82538119751 0.10988135524 0.55377970942 
0.84118434464 0.12733345547 0.52554266187 0.84760063845 0.15950687361 0.50609358322 0.84488115018 0.20537089619 0.49396218182 
0.83487545697 0.25935282183 0.48550909894 0.82141534666 0.31259286235 0.47703514617 0.80998719845 0.35591080882 0.46609895357 
0.80603496148 0.3821727496 0.45194206525 0.81269550501 0.38714669196 0.43548071719 0.82966108356 0.36964883167 0.41835657957 
0.85323281443 0.33141364787 0.40268940684 0.87732764378 0.27793338308 0.39121508155 0.89621208157 0.21721511935 0.38680938042 
0.90645104629 0.15757788509 0.39181080998 0.90730597328 0.1042180641 0.40735054432 0.89966295051 0.057265609382 0.43281315307 
0.88470984741 0.01187902396 0.46599074529 0.86323534411 -0.040459556588 0.50317766739 0.83481368963 -0.10916838319 0.53960019247 
0.79695919204 -0.20076582903 0.56969213451 0.74600697633 -0.31386221873 0.5873364444 0.68028335198 -0.43616182082 0.5890478988 
0.6040518404 -0.54833354826 0.57831798689 0.52610237678 -0.63581434492 0.56476225789 0.45319768836 -0.69457548829 0.5587277927 
0.38650280218 -0.72788918296 0.56638584131 0.3227038391 -0.74089638586 0.58901169569 0.25665915366 -0.73693653466 0.62534040548 
0.18307282221 -0.71634972433 0.67329593361 0.097379431117 -0.67577750197 0.73064493033 -0.0044749026252 -0.60769319345 0.7941592774 
-0.12456037848 -0.5011316778 0.85635959364 -0.25893944312 -0.34640817653 0.90163836433 -0.25893944312 -0.34640817653 0.90163836433 

FrenetNormal 3 120 double
-0.79239540812 0.31814494658 0.52047412054 -0.79239540812 0.31814494658 0.52047412054 -0.79887300934 0.45143072931 0.39750749878 
-0.84958240071 0.5192729482 0.092549174392 -0.69256080808 0.34372778355 -0.6342008656 -0.17742882448 0.0022960716315 -0.98413095688 
0.092952898584 -0.08265395543 -0.99223388488 0.26005965539 -0.037966800267 -0.96484584143 0.40831825177 0.073201667949 -0.90989984124 
0.54882096531 0.2096755614 -0.80921672437 0.67212791372 0.32224259566 -0.66663616549 0.78366298196 0.36660834942 -0.50146849237 
0.90720533741 0.29410469857 -0.3008004356 0.99809723107 -0.031685826344 0.052895422645 0.55404525064 -0.61323813769 0.56300341626 
-0.05198449539 -0.73886971039 0.67184013225 -0.3641033456 -0.67707197405 0.63953287302 -0.61141571933 -0.56649839193 0.55249469689 
-0.24646426991 0.66304058755 -0.70684690204 0.55912239193 0.5992454635 -0.57296337171 0.72855045152 0.53599694442 -0.42652258459 
0.84587260968 0.4730316021 -0.24645614542 0.92034182849 0.39016638964 -0.027223282792 0.93545246952 0.27846919544 0.21767770779 
0.87585293677 0.14354720238 0.46073401636 0.74203354429 0.0067123552767 0.6703291456 0.55351336435 -0.10369885168 0.82635918561 
0.33958452487 -0.16037666253 0.926801854 0.12245516757 -0.14547483622 0.98175445197 -0.096375966861 -0.055863714934 0.99377609066 
-0.32153323805 0.10718701839 0.94081205345 -0.54266514296 0.32290881917 0.77539953386 -0.70784843969 0.52754189909 0.46973410685 
-0.75715759282 0.64558108007 0.099686752811 -0.71430331255 0.66704444935 -0.21171320287 -0.64982197227 0.63176419694 -0.42261732551 
-0.62171992537 0.5546903662 -0.55297642992 -0.68171050596 0.3846675128 -0.62233567362 -0.83612384356 -0.3584986224 -0.41518147354 
-0.19588365385 -0.93636938872 0.29127643575 0.083677949322 -0.91104690581 0.40372210271 0.22066860987 -0.89963021904 0.37679017186 
0.32531358458 -0.89642570229 0.30098510256 0.4144514148 -0.88724678109 0.20254178387 0.48686183075 -0.86794941263 0.098129378226 
0.53654681146 -0.84385975984 -0.0042690552287 0.55754913782 -0.82348960475 -0.10489914099 0.53474533892 -0.81751619661 -0.2138099408 
0.4668846283 -0.81915236971 -0.33317883946 0.37337271237 -0.80918220043 -0.45367056788 0.29270287807 -0.77440051755 -0.56091787597 
0.24287598053 -0.72000124206 -0.65008420186 0.23266720892 -0.65642878609 -0.71761216454 0.27473846137 -0.59205264453 -0.75762289033 
0.4001298917 -0.52246469498 -0.75294535809 0.6562419911 -0.40454820154 -0.63693579092 0.91953333846 -0.18951283276 -0.34430121358 
0.99556269166 -0.0026818430723 -0.094062397859 0.99625033626 0.083888683055 -0.021164979457 0.99134430594 0.12297987419 -0.045961044557 
0.98265991489 0.16538681481 -0.083825372983 0.96779846546 0.23145574107 -0.098966510382 0.94149153462 0.32950146679 -0.070869412404 
0.89068902661 0.45454793123 0.0076964978729 0.79345996009 0.59239836211 0.13959037326 0.63479708084 0.71240708911 0.29918022252 
0.43179161431 0.78774774603 0.43932845394 0.22056176224 0.81762837667 0.53182360488 0.022442344926 0.81332740813 0.58137326078 
-0.15977270834 0.77935960509 0.60586408345 -0.34075661035 0.7026916698 0.62458734352 -0.52690863035 0.56012331434 0.63924108754 
-0.69187202651 0.35082088033 0.63106085987 -0.76171593724 0.22767625753 0.60659076214 -0.062878463156 0.91993553628 0.3869947131 
0.47045219073 0.88242474681 -0.0011412499001 0.4544023174 0.89041386379 -0.026109100369 0.39663247584 0.91709070346 -0.040340063603 
0.3470920592 0.93412126967 -0.083334002572 0.32722229141 0.93077265229 -0.16305778657 0.36273186167 0.88575884554 -0.28958049671 
0.4624060564 0.75721669633 -0.46130631233 0.58664829585 0.50035206652 -0.63678221278 0.64289552335 0.2109788361 -0.73632416555 
0.62917694045 0.041455414214 -0.77615580024 0.58835554639 0.045518403859 -0.80732015083 0.51308781481 0.2632577216 -0.8169677266 
0.31215270219 0.67925531656 -0.6642084804 0.034686119297 0.93505698955 -0.35279639938 -0.13455129744 0.97526982254 -0.17534172804 
-0.22339948475 0.96578142321 -0.13175322688 -0.26046437713 0.94970636814 -0.17382785324 -0.22281685267 0.92195347603 -0.31678768631 
0.048282096313 0.71858400344 -0.69376211281 0.55491999712 -0.28626828624 -0.78109811489 0.53944581483 -0.72377289457 -0.43029177304 
0.45271641606 -0.85399718847 -0.25639159252 0.35373348764 -0.92543400329 -0.13581062283 0.23652127448 -0.9716233869 -0.002383431833 
0.094753196572 -0.98001111781 0.17492867321 -0.068052193012 -0.91962586915 0.38685547666 -0.21264722824 -0.80834048918 0.54896886056 
-0.29872937464 -0.75296439119 0.5863492017 -0.33666719797 -0.78886695057 0.5141440772 -0.35303289396 -0.85824251851 0.37254201804 
-0.3807403403 -0.89915871177 0.21575542707 -0.4331472412 -0.8986035423 0.069965285757 -0.51144824899 -0.8581479254 -0.044752952266 
-0.6068717511 -0.78684438441 -0.11217215539 -0.71486786252 -0.69034996301 -0.11126934752 -0.83805844551 -0.54557828777 0.0015407226951 
-0.92204972883 -0.31892241259 0.21934628402 -0.90359084489 -0.055904475322 0.42473318057 -0.84049670264 0.14925284488 0.52085399215 
-0.79200921211 0.29826598778 0.53269016178 -0.75566308894 0.42755133529 0.49615839376 -0.72019615153 0.55292236616 0.41903980755 
-0.67235679253 0.67733992564 0.29857489626 -0.6032081375 0.78705755239 0.12915243732 -0.6032081375 0.78705755239 0.12915243732 

FrenetBinormal 3 120 double
-0.51190585924 0.11722511896 -0.85100567728 -0.51190585924 0.11722511896 -0.85100567728 -0.41348944151 0.067793203579 -0.90798158754 
-0.15934037536 -0.085405139539 -0.98352255029 0.47501613306 -0.44433996682 -0.75955359733 0.80680957438 -0.57228454918 -0.14679477326 
0.81986036576 -0.55911224338 0.12337941461 0.80001462042 -0.55105154438 0.23731582869 0.776571239 -0.55178142561 0.30409598666 
0.74542687493 -0.56086684764 0.36023208263 0.69579477736 -0.58276562095 0.41982598638 0.60654994544 -0.62580864628 0.49036792507 
0.41868771068 -0.70086055226 0.57749033517 -0.058135574265 -0.76945441361 0.63605043855 -0.83081357146 -0.45016215401 0.32726570945 
-0.99678124034 -0.0027242347487 -0.080123264076 -0.92983338916 0.22497860602 -0.29119494369 -0.79030716812 0.4020258191 -0.46237411345 
0.96861488199 0.19279997179 -0.15688652354 0.82804585944 -0.36902381211 0.42209179186 0.68077190868 -0.49755605672 0.53757564934 
0.51476236767 -0.6029406366 0.60949347295 0.31551638882 -0.69951587651 0.64119181755 0.088463392669 -0.78071916939 0.61858856011 
-0.14332549016 -0.83427729195 0.53239008632 -0.34589074152 -0.85272671512 0.39142910502 -0.49174826567 -0.84148877643 0.22378624253 
-0.57173158715 -0.8176177085 0.06800202199 -0.59924674463 -0.79937051786 -0.043704853637 -0.60032769211 -0.79311921202 -0.10280358754 
-0.59798984341 -0.79335752829 -0.11398236482 -0.60682021277 -0.78900716499 -0.096108911986 -0.62753072176 -0.77493937796 -0.07532697883 
-0.65241207211 -0.7549944971 -0.06589231748 -0.67018356655 -0.73911265764 -0.067575634975 -0.67216196556 -0.73722480944 -0.068541027088 
-0.64247196543 -0.76498585218 -0.045015770531 -0.5305344357 -0.84564545658 0.058454891205 0.11439219062 -0.85419866017 0.50720713292 
0.8099377743 0.012968067979 0.58637243367 0.82808027 0.28894654427 0.48040915998 0.8125600648 0.38324685588 0.43916738101 
0.79812704867 0.43099475411 0.42099493598 0.78562222892 0.46114325878 0.41248588862 0.77531945393 0.48115580675 0.40910736241 
0.77108936801 0.48820977938 0.4087449056 0.77932622849 0.47569025301 0.40788406781 0.8118668028 0.42687898846 0.39830468705 
0.86387073181 0.34192803944 0.36988183866 0.9153836643 0.24199738563 0.32172971961 0.9488125565 0.16242491002 0.27087429046 
0.96563107019 0.11550040941 0.23284392135 0.96997988752 0.10294941967 0.2203189388 0.96015570071 0.12698536701 0.24894928591 
0.91590981258 0.19955006496 0.3482656842 0.75448031326 0.34029514121 0.56121179048 0.39273042743 0.47624355406 0.78673686109 
0.082394265684 0.50768884501 0.85759152377 -0.024052143182 0.50353489544 0.8636400312 -0.022447690881 0.50369857102 0.86358777824 
-0.011434418726 0.50528330013 0.86287776694 -0.031450862889 0.50125101098 0.86473017018 -0.10258693155 0.48045845568 0.87099689657 
-0.22587968522 0.42779338681 0.87519779822 -0.39318043154 0.3238528156 0.86053965747 -0.56642399465 0.16569240134 0.8072855049 
-0.6969953609 -0.017744899671 0.71685604233 -0.76745166431 -0.19103605892 0.61198297945 -0.78981826906 -0.34209700281 0.50907439783 
-0.77790099225 -0.47725277856 0.40877846276 -0.73069182219 -0.6159842305 0.29436862733 -0.62975616554 -0.76238192997 0.14893275264 
-0.46651381204 -0.88429066505 -0.019871660158 -0.36256653407 -0.92569788011 -0.10783757756 -0.84468600563 -0.25558000343 0.47030247048 
-0.70076958033 0.37439068933 0.60725086005 -0.70034001784 0.37520829093 0.6072417952 -0.71826740574 0.33740859269 0.60847956041 
-0.7239430475 0.32335954805 0.609380888 -0.71200867797 0.35630980476 0.60505120901 -0.67124256282 0.46389256384 0.57813243385 
-0.57709834289 0.65200912056 0.4917739413 -0.40177744836 0.86253292496 0.30759036939 -0.2110337639 0.97289927337 0.094507959278 
-0.10476778188 0.99398694497 -0.031838107669 -0.11042926328 0.99358300552 -0.024457901862 -0.23555630556 0.9584474215 0.16090918906 
-0.44155360812 0.72277133731 0.5316314561 -0.52949979304 0.31658487576 0.78702222688 -0.51775649724 0.081679668412 0.85162000994 
-0.50306623974 0.0015350529517 0.8642464938 -0.50738066234 0.018534204113 0.8615226908 -0.54246971208 0.15273926867 0.8260734394 
-0.58989531279 0.5810172282 0.56075172803 -0.17773523267 0.87645188527 -0.44748439064 0.14373830138 0.58267704462 -0.79989171916 
0.2589239483 0.40106582513 -0.87869482354 0.32429743321 0.25753628894 -0.91022317851 0.37531532286 0.093624708041 -0.92215661494 
0.41154384022 -0.12143895216 -0.90326311143 0.41492742723 -0.37871738263 -0.82728977645 0.38129743221 -0.58592346218 -0.71505661641 
0.35783969404 -0.65795403669 -0.66260639823 0.37613819068 -0.61323075476 -0.69459923908 0.42243801839 -0.50149979416 -0.75501263372 
0.46892732859 -0.388853048 -0.79303245051 0.50582314964 -0.30659775183 -0.80631306567 0.52500976147 -0.27082282803 -0.80685794672 
0.51655401637 -0.28320705249 -0.80806293913 0.46063025115 -0.34519131994 -0.81771799807 0.30375960425 -0.46894479738 -0.82934967284 
0.020973351508 -0.60701386482 -0.79441442991 -0.28175488863 -0.66928860372 -0.68750778008 -0.47717017058 -0.65927849365 -0.58108561859 
-0.58241372726 -0.63077767318 -0.51275118461 -0.64768089551 -0.6004370271 -0.46902540878 -0.69375606561 -0.57007529296 -0.44013257298 
-0.72967188219 -0.53858858755 -0.42130900502 -0.75438074448 -0.51043293825 -0.4127564753 -0.75438074448 -0.51043293825 -0.4127564753 

plain_curvature_peaks 1 120 unsigned_char
0 0 0 0 0 0 0 0 0 
0 0 0 0 0 0 0 1 0 
0 0 0 0 0 0 0 0 0 
0 0 0 0 0 0 0 0 0 
0 0 0 0 0 0 0 0 0 
0 0 0 0 0 0 0 0 0 
0 0 0 1 0 0 0 0 0 
0 0 0 0 0 0 0 0 0 
0 0 0 0 0 0 0 0 0 
0 0 0 0 0 0 0 0 0 
0 0 0 0 0 0 0 0 0 
0 0 0 1 0 0 0 0 0 
0 0 0 0 0 0 0 0 0 
0 1 0 
weighted_curvature_peaks 1 120 unsigned_char
0 0 0 0 0 0 0 0 0 
0 0 0 0 0 0 0 0 0 
1 0 0 0 0 0 0 0 0 
0 0 0 0 0 0 1 0 0 
0 0 0 0 0 0 0 0 0 
0 0 0 0 0 0 0 0 0 
0 0 0 0 0 0 0 0 0 
0 0 0 0 0 0 0 0 0 
0 0 0 1 0 0 0 0 0 
0 0 0 0 0 0 0 0 0 
0 0 0 0 0 0 0 0 0 
0 0 0 0 0 0 0 0 0 
0 0 1 0 0 0 0 0 0 
0 0 0 
plain_torsion_tp 1 120 unsigned_char
0 0 0 0 0 0 0 0 0 
0 0 0 0 0 0 0 1 0 
0 0 0 0 0 0 0 0 0 
0 0 0 0 0 0 0 0 0 
0 0 0 0 0 0 0 0 0 
0 0 0 0 0 0 0 0 0 
0 0 0 1 0 0 0 0 0 
0 0 0 0 0 0 0 0 0 
0 0 0 0 0 0 0 0 0 
0 0 0 0 0 0 0 0 0 
0 0 0 0 0 0 0 0 0 
0 0 0 1 0 0 0 0 0 
0 0 0 0 0 0 0 0 0 
0 1 0 
plain_torsion_tn 1 120 unsigned_char
0 0 0 0 0 0 0 2 0 
0 0 0 0 0 0 0 0 0 
0 0 0 0 0 0 0 0 0 
0 0 0 0 0 0 0 0 0 
0 0 2 0 0 0 0 0 0 
0 0 0 0 0 0 0 0 0 
0 0 0 0 0 0 0 0 0 
0 0 0 0 0 0 0 0 0 
0 0 0 0 0 0 2 0 0 
0 0 0 0 0 0 0 0 0 
0 0 0 0 0 0 0 0 0 
0 0 0 0 0 0 0 0 0 
0 0 0 0 0 0 2 0 0 
0 0 0 
plain_torsion_tz 1 120 unsigned_char
0 0 0 0 0 0 0 3 0 
0 0 0 0 0 0 0 0 0 
0 0 0 0 0 0 0 0 0 
3 0 0 0 0 0 0 0 0 
0 0 0 0 0 0 0 0 0 
3 0 0 0 0 0 0 0 0 
0 0 0 0 0 0 0 0 0 
0 0 0 0 0 0 0 0 0 
0 0 0 0 0 0 0 0 0 
0 0 0 3 0 0 0 0 0 
0 0 0 0 0 0 0 0 0 
0 0 0 0 0 0 0 0 0 
0 0 0 3 0 0 0 3 0 
0 0 0 
weighted_torsion_tp 1 120 unsigned_char
0 0 0 0 0 0 0 0 0 
0 0 0 0 0 0 0 0 0 
1 0 0 0 0 0 0 0 0 
0 0 0 0 0 0 1 0 0 
0 0 0 0 0 0 0 0 0 
0 0 0 0 0 0 0 0 0 
0 0 0 0 0 0 0 0 0 
0 0 0 0 0 0 0 0 0 
0 0 0 1 0 0 0 0 0 
0 0 0 0 0 0 0 0 0 
0 0 0 0 0 0 0 0 0 
0 0 0 0 0 0 0 0 0 
0 0 1 0 0 0 0 0 0 
0 0 0 
weighted_torsion_tn 1 120 unsigned_char
0 0 0 0 0 0 0 0 2 
0 0 0 0 0 0 0 0 0 
0 0 0 0 0 0 0 0 0 
0 2 0 0 0 0 0 0 0 
0 0 0 0 0 0 0 0 0 
0 0 0 0 0 0 2 0 0 
0 0 0 0 0 0 0 0 0 
0 0 0 0 0 0 0 0 0 
0 0 0 0 0 0 0 0 0 
0 0 0 0 0 0 0 0 0 
0 0 0 0 2 0 0 0 0 
0 0 0 0 0 0 0 0 0 
0 0 0 0 0 0 0 0 0 
0 0 0 
weighted_torsion_tz 1 120 unsigned_char
0 0 0 0 0 0 0 0 0 
3 0 0 0 0 0 0 0 0 
0 0 0 0 0 0 0 0 3 
0 3 0 0 0 0 0 0 0 
0 0 0 0 0 0 0 0 0 
0 0 0 0 0 0 0 0 0 
0 0 0 3 0 0 0 0 0 
0 0 0 0 0 0 0 0 0 
0 0 0 0 0 0 0 0 0 
0 0 0 0 0 3 0 0 0 
0 0 0 0 0 0 0 0 0 
0 3 0 0 0 0 0 0 0 
0 0 0 0 0 0 0 0 0 
0 0 0 
plain_torsion_tp_raw 1 120 unsigned_char
0 0 0 0 0 0 0 0 0 
0 0 0 0 0 0 0 0 0 
0 0 1 0 0 0 0 0 0 
0 0 0 0 0 0 0 0 0 
0 0 0 0 0 1 0 0 0 
0 0 0 0 0 0 0 0 0 
0 0 0 0 0 0 0 0 0 
0 0 0 0 0 0 0 0 0 
0 0 0 0 0 0 0 0 0 
1 0 0 0 0 0 0 0 0 
0 0 0 0 0 0 0 0 0 
0 0 0 0 0 0 0 1 0 
0 0 0 0 0 0 0 0 1 
0 1 0 
plain_torsion_tn_raw 1 120 unsigned_char
0 0 0 0 0 0 0 0 0 
0 0 0 2 0 0 0 0 0 
0 0 0 0 0 0 0 0 0 
0 0 0 2 0 0 0 0 0 
0 0 0 0 0 0 0 0 0 
0 0 0 0 0 0 0 0 0 
0 0 0 0 0 0 0 0 0 
0 0 0 0 0 0 0 0 2 
0 0 0 0 0 0 0 0 0 
0 0 0 0 0 0 0 2 0 
0 0 0 0 0 0 0 0 0 
0 0 0 0 0 0 0 0 0 
0 0 0 0 0 0 2 0 0 
2 0 0 
plain_torsion_tz_raw 1 120 unsigned_char
0 0 0 0 0 0 0 3 0 
0 0 0 0 0 0 0 3 0 
0 0 0 3 0 0 0 0 0 
0 0 0 0 0 0 0 0 0 
0 3 0 0 0 0 0 0 0 
0 0 0 0 0 0 0 0 0 
0 0 0 0 0 0 0 0 0 
0 0 0 0 0 0 0 0 0 
0 0 0 0 0 0 0 0 0 
0 0 0 0 0 0 0 0 0 
0 0 0 0 0 0 0 0 0 
0 0 0 0 0 0 0 0 0 
0 0 0 0 0 0 0 0 0 
0 0 0 
weighted_torsion_tp_raw 1 120 unsigned_char
0 0 0 0 0 0 0 0 0 
0 0 0 0 0 0 0 0 0 
0 0 0 0 1 0 0 0 0 
0 1 0 0 0 0 0 0 0 
0 0 0 0 0 0 0 0 0 
0 0 0 0 0 0 0 0 0 
1 0 0 0 0 0 0 0 0 
0 0 0 0 0 0 0 0 0 
0 0 0 0 0 0 0 0 1 
0 0 0 0 0 0 0 0 0 
0 0 0 0 0 0 0 0 0 
0 0 0 0 0 0 1 0 0 
0 0 0 0 0 0 0 0 0 
1 0 0 
weighted_torsion_tn_raw 1 120 unsigned_char
0 0 0 0 0 0 0 0 0 
0 0 0 0 0 2 0 0 0 
0 0 0 0 0 0 0 0 0 
2 0 0 0 0 0 0 0 0 
0 0 0 0 0 0 0 0 0 
2 0 0 0 0 0 0 0 0 
0 0 0 0 0 0 0 0 2 
0 0 0 0 0 0 0 0 0 
0 0 0 0 0 0 0 0 0 
0 0 0 0 0 0 0 0 0 
0 0 0 0 0 2 0 0 0 
0 0 0 0 0 0 0 0 0 
0 2 0 0 0 0 0 0 0 
0 0 0 
weighted_torsion_tz_raw 1 120 unsigned_char
0 0 0 0 0 0 0 0 3 
0 0 0 0 0 0 0 0 0 
0 3 0 0 0 3 0 0 0 
3 0 0 0 0 0 0 0 0 
0 0 0 0 0 0 0 0 0 
0 0 0 0 0 0 0 0 0 
0 0 0 0 0 0 0 0 0 
0 0 0 0 0 0 0 0 0 
0 0 0 0 0 0 0 0 0 
0 0 0 0 0 0 0 0 0 
0 0 0 0 0 0 0 0 0 
0 0 0 0 0 0 0 0 0 
0 0 0 0 0 0 0 0 0 
0 0 0 
