# vtk DataFile Version 5.1
vtk output
ASCII
DATASET POLYDATA
POINTS 120 float
-4.89293 16.7467 -3.98414 -5.00157 15.9499 -4.4274 -5.20364 15.2038 -4.66011 
-5.47295 14.5096 -4.73821 -5.78316 13.8681 -4.7176 -6.1079 13.2795 -4.65338 
-6.42102 12.7422 -4.59788 -6.69777 12.252 -4.59663 -6.91634 11.801 -4.68306 
-7.05972 11.3777 -4.87392 -7.11697 10.968 -5.16758 -7.08366 10.558 -5.54649 
-6.96172 10.1378 -5.98335 -6.75881 9.70456 -6.44917 -6.48737 9.26407 -6.92051 
-6.16327 8.82863 -7.38378 -5.80402 8.41328 -7.83588 -5.42657 8.0305 -8.28191 
-5.04499 7.68601 -8.73155 -4.66878 7.3767 -9.19539 -4.30196 7.09133 -9.6819 
-3.94365 6.81316 -10.1955 -3.59004 6.52324 -10.7353 -3.23736 6.20313 -11.2946 
-2.88492 5.8377 -11.8604 -2.53726 5.41705 -12.4141 -2.20446 4.9398 -12.9318 
-1.90062 4.41438 -13.3859 -1.64063 3.85965 -13.7465 -1.4367 3.30281 -13.9838 
-1.29578 2.77552 -14.0718 -1.21869 2.30854 -13.9927 -1.20124 1.92657 -13.7418 
-1.23681 1.64455 -13.3295 -1.31944 1.46625 -12.7813 -1.44635 1.38643 -12.1347 
-1.61902 1.39311 -11.4336 -1.84217 1.47332 -10.7222 -2.12083 1.61718 -10.0391 
-2.45615 1.82028 -9.41259 -2.84174 2.08402 -8.85802 -3.26177 2.41349 -8.37669 
-3.69203 2.81264 -7.95712 -4.10356 3.28043 -7.57796 -4.46771 3.80607 -7.21212 
-4.76123 4.36718 -6.83189 -4.97022 4.9303 -6.41425 -5.09211 5.45387 -5.94552 
-5.13536 5.89371 -5.42439 -5.1169 6.20894 -4.86211 -5.05827 6.36777 -4.28015 
-4.98107 6.35205 -3.70533 -4.90279 6.15881 -3.16394 -4.83393 5.80025 -2.67624 
-4.77721 5.30142 -2.25252 -4.72932 4.69627 -1.8924 -4.68453 4.02256 -1.58719 
-4.639 3.3162 -1.3247 -4.59411 2.60644 -1.09471 -4.55706 1.91285 -0.89305 
-4.53848 1.24376 -0.722754 -4.54792 0.59833 -0.592071 -4.58895 -0.0311411 -0.509835 
-4.6557 -0.655273 -0.479901 -4.73203 -1.28351 -0.497124 -4.79347 -1.9216 -0.546444 
-4.81145 -2.57043 -0.60524 -4.75897 -3.2262 -0.647652 -4.61633 -3.88187 -0.649565 
-4.37528 -4.52818 -0.592443 -4.0405 -5.1554 -0.465426 -3.6282 -5.75313 -0.265434 
-3.16259 -6.31065 0.00437808 -2.67135 -6.81761 0.336615 -2.18132 -7.26409 0.721619 
-1.71493 -7.64228 1.14894 -1.28732 -7.94774 1.60804 -0.904216 -8.17992 2.08832 
-0.560306 -8.34192 2.57851 -0.238972 -8.43982 3.06615 0.0857213 -8.48117 3.5378 
0.443735 -8.474 3.98038 0.861926 -8.42701 4.3837 1.35684 -8.34863 4.74314 
1.92991 -8.24647 5.06179 2.56655 -8.12582 5.35093 3.23935 -7.9885 5.6283 
3.91408 -7.83299 5.91469 4.55715 -7.65488 6.22933 5.14308 -7.4487 6.58525 
5.66007 -7.21019 6.98653 6.11253 -6.9388 7.42741 6.51967 -6.63871 7.89436 
6.9107 -6.31948 8.36987 7.31721 -5.99453 8.83803 7.76532 -5.67996 9.28773 
8.26971 -5.3918 9.71581 8.82984 -5.14495 10.1262 9.43075 -4.95116 10.5288 
10.0459 -4.8187 10.9353 10.6416 -4.75241 11.3562 11.1824 -4.75414 11.7978 
11.6363 -4.82405 12.2608 11.9788 -4.96233 12.7401 12.197 -5.17017 13.2268 
12.2903 -5.4491 13.7106 12.2706 -5.79916 14.1819 12.1593 -6.21689 14.6349 
11.9815 -6.6947 15.0676 11.7619 -7.22062 15.4815 11.5198 -7.78031 15.8806 
11.2686 -8.35894 16.2704 11.0171 -8.94334 16.658 10.7728 -9.52246 17.0508 
10.5444 -10.0877 17.4582 10.342 -10.6324 17.8906 10.1782 -11.1503 18.3601 
10.0662 -11.6357 18.8793 10.0199 -12.083 19.4615 10.0532 -12.4862 20.1201 

LINES 2 120
OFFSETS vtktypeint64
0 120 
CONNECTIVITY vtktypeint64
0 1 2 3 4 5 6 7 8 
9 10 11 12 13 14 15 16 17 
18 19 20 21 22 23 24 25 26 
27 28 29 30 31 32 33 34 35 
36 37 38 39 40 41 42 43 44 
45 46 47 48 49 50 51 52 53 
54 55 56 57 58 59 60 61 62 
63 64 65 66 67 68 69 70 71 
72 73 74 75 76 77 78 79 80 
81 82 83 84 85 86 87 88 89 
90 91 92 93 94 95 96 97 98 
99 100 101 102 103 104 105 106 107 
108 109 110 111 112 113 114 115 116 
117 118 119 
CELL_DATA 1
FIELD FieldData 2
Length 1 1 double
81.076518217 
Tortuosity 1 1 double
0.99056796452 
POINT_DATA 120
FIELD FieldData 19
Curvature 1 120 double
0 0.28435796646 0.27826113104 0.21416521098 0.12304879616 0.037304539807 0.14824302463 0.3456535862 0.53365812642 
0.5495691235 0.4023603256 0.25703343373 0.17379739472 0.13112200891 0.10370493214 0.082663797288 0.071648747514 0.074288153869 
0.0803261571 0.075803241141 0.057514902202 0.038844963617 0.045290682338 0.06801746855 0.091626940385 0.11363269003 0.13974872571 
0.17967984792 0.25397200364 0.40259831142 0.67368313896 0.95193519829 0.87364716293 0.54985289659 0.31616159887 0.20030246308 
0.15816677001 0.15855954949 0.17868767463 0.19833970104 0.20071286169 0.18133737397 0.15525633491 0.14106768918 0.1480259456 
0.17129859312 0.20592283671 0.25362601576 0.32071692284 0.41054407758 0.50484616843 0.55001344896 0.4957650629 0.37229577587 
0.2478401494 0.15444206927 0.09296022071 0.056415445181 0.043007750401 0.058821743121 0.095527798734 0.13302055276 0.14543246154 
0.12099188286 0.087001888891 0.10729251051 0.16875715068 0.22305232062 0.24533329039 0.2307039819 0.19592568421 0.16190809598 
0.13961983982 0.13260462747 0.13898756104 0.15436992325 0.17112059414 0.17803892007 0.16886332615 0.16520777192 0.20097131053 
0.24533347375 0.24464560834 0.19195595476 0.11920792551 0.052506903393 0.033212787106 0.084490887414 0.13791958611 0.17408031917 
0.17193168132 0.12625312481 0.054356682973 0.034692373318 0.092660438553 0.12641562729 0.13176665626 0.1204491242 0.11265704237 
0.12492816643 0.16308055659 0.22654313931 0.31449056464 0.40643702293 0.45043339446 0.4029096428 0.29799997104 0.19502053848 
0.11920872204 0.069423232174 0.035403929553 0.0093524039346 0.017629577762 0.04474779749 0.076558822968 0.11440842705 0.15312952486 
0.18487862077 0.19915328786 0 
Torsion 1 120 double
0 0 0.042182012365 0.098458077723 0.3702411768 5.342000649 0.57348936735 0.22964159618 0.19159025273 
0.23349485769 0.34107299531 0.4450067644 0.39243381509 0.17315889122 -0.10644886748 -0.42948808649 -0.68841164164 -0.6328984925 
-0.4807839067 -0.45507211605 -0.67961875772 -1.3578384295 -0.88802750356 -0.305031156 -0.10858012324 -0.043489392521 -0.038304884808 
-0.069640177177 -0.11233260747 -0.13475077379 -0.11355248111 -0.076070506678 -0.043721602927 0.014424580647 0.1301463139 0.2739244741 
0.31378501956 0.18825960853 0.023566961203 -0.11628918004 -0.24849034322 -0.4138701813 -0.61040761849 -0.72197860929 -0.64903814958 
-0.52109189723 -0.42632602093 -0.3586462143 -0.29611975959 -0.22717915441 -0.15731650598 -0.096023482052 -0.045143566212 0.0023325156019 
0.049482811253 0.088620242834 0.077299607655 -0.13837905395 -0.55318061855 -0.25132784162 0.041370242792 0.16087985642 0.28338680048 
0.60589218335 1.4223469657 0.99452305175 0.38644400072 0.19618662702 0.13615768219 0.12539982882 0.14071751593 0.16877393351 
0.18782436443 0.17328652196 0.12391614178 0.047673659596 -0.062718807782 -0.24742649032 -0.59407880335 -0.94093720245 -0.70483275667 
-0.37313773745 -0.19740644887 -0.089298055245 0.065911128368 0.79503291174 1.9573748574 0.21083868392 0.016615762071 -0.039456171296 
-0.08356606014 -0.181199382 -0.86198230281 -1.8846107807 -0.31243428746 -0.24001691065 -0.30172057809 -0.44005532488 -0.56727443991 
-0.51051410868 -0.32248942404 -0.15663995136 -0.036313574996 0.042285197849 0.094050513623 0.13702685658 0.17866305141 0.22052681862 
0.24880846825 0.24728381837 0.29982146784 2.0458095587 0.46164022975 8.2235408688e-05 -0.04275487248 -0.039967315953 -0.027461211791 
-0.018068671909 0 0 
FrenetTangent 3 120 double
-0.18139835653 -0.90075118143 -0.39464154038 -0.18139835653 -0.90075118143 -0.39464154038 -0.30468797037 -0.93102357175 -0.20089885406 
-0.39770122992 -0.91666631925 -0.039453654725 -0.45782769005 -0.88693417901 0.061168360503 -0.49084109009 -0.8663651206 0.092122212768 
-0.49730311647 -0.86625663959 0.047843962172 -0.46421388205 -0.88211850238 -0.079827435594 -0.36706882079 -0.88666528677 -0.28122082079 
-0.20383047704 -0.84625772048 -0.492240802 -0.022579723642 -0.77287119537 -0.6341610769 0.1322150437 -0.70703082089 -0.69471332255 
0.25299720967 -0.66466167384 -0.70300588279 0.34719314675 -0.63948693122 -0.68593978135 0.42159397088 -0.62008851035 -0.66162584824 
0.47976809514 -0.59732857488 -0.64266721444 0.5227091014 -0.56629728942 -0.63724608694 0.54960725059 -0.52660897734 -0.64854826735 
0.55923230196 -0.48249275662 -0.67413646412 0.55245962254 -0.44215666706 -0.70660161848 0.53406360848 -0.41504849079 -0.73655333302 
0.5112404416 -0.4079536505 -0.75644367267 0.48984073869 -0.42308102023 -0.76227193378 0.47185480731 -0.4587561543 -0.7529248513 
0.45559481815 -0.51155058463 -0.72852547041 0.43768377778 -0.57754282002 -0.68911334461 0.41485032841 -0.65335683416 -0.63326459894 
0.38466721153 -0.73692286359 -0.55585594311 0.3449863712 -0.82660671333 -0.444641142 0.29144825589 -0.91622568177 -0.27493347231 
0.21417543239 -0.9767558816 -0.0087653813611 0.10323297489 -0.92707549006 0.36038033885 -0.01930710114 -0.70737624489 0.70657348097 
-0.11029488565 -0.42954654515 0.89628388569 -0.16895797569 -0.20813761605 0.96339604278 -0.21667934009 -0.052905239984 0.97480823712 
-0.26935288575 0.059129129923 0.9612246194 -0.33479163743 0.14948990677 0.93035870893 -0.41279244599 0.23326832221 0.88044777607 
-0.49366777043 0.31968337558 0.80876119579 -0.55939997032 0.4119094296 0.71930681563 -0.59163351552 0.50697784114 0.62685185802 
-0.58114326401 0.59850714123 0.55141790739 -0.52979613657 0.67852202055 0.50884567534 -0.44643702591 0.73770700892 0.50644086613 
-0.34246750955 0.76618483332 0.54376171813 -0.22964541313 0.75420427676 0.61517387229 -0.11870876515 0.69253480803 0.71155025735 
-0.018765137004 0.5716734835 0.82026660172 0.062120309851 0.3820173307 0.92206497935 0.11574859758 0.1219546179 0.98576332521 
0.13564983544 -0.18230697549 0.97383945742 0.12502178356 -0.46885214866 0.87438390672 0.099851617406 -0.68176403932 0.72472577517 
0.077029117666 -0.8129570442 0.57720651358 0.064162193956 -0.88529541225 0.46058142159 0.060415791154 -0.9231199453 0.37973609095 
0.060194235797 -0.94280271023 0.32787147414 0.055721350547 -0.9543235425 0.29353314518 0.039352915454 -0.96395904984 0.26312411191 
0.0067758274271 -0.97475256957 0.22318493739 -0.039014802249 -0.98558828364 0.16460127689 -0.085319153822 -0.99238892384 0.088796766971 
-0.11350370968 -0.99348640029 0.010083666512 -0.10801022885 -0.99278005434 -0.052168516979 -0.061380838704 -0.99461062388 -0.083558958215 
0.026358098651 -0.9966579553 -0.077318631511 0.14708438958 -0.98855946431 -0.033412091502 0.28243987282 -0.95842372241 0.040640946798 
0.40846205566 -0.90338119996 0.13061836261 0.50767078142 -0.83240089408 0.2222141517 0.57562428032 -0.75747448379 0.30804073484 
0.61621746418 -0.6855269393 0.38772264873 0.63521406696 -0.61719610401 0.46429738135 0.63695005358 -0.54920880408 0.54098458275 
0.62403940361 -0.47720565317 0.6187484039 0.59949981422 -0.39756990175 0.694649657 0.57018643157 -0.30914784141 0.76112748301 
0.54938316115 -0.21464074326 0.80753172915 0.55458215789 -0.11954472699 0.82349723035 0.59806842275 -0.029937224552 0.80088571238 
0.67534851455 0.04712366016 0.73599167423 0.76323676095 0.10479327944 0.63756412644 0.83574451225 0.14127921841 0.53063291709 
0.88169717462 0.16239732227 0.44298668376 0.90314238383 0.17793045494 0.39073595654 0.9045220692 0.19655881809 0.378423648 
0.88662380473 0.2244615887 0.40437015726 0.84652622732 0.26469650183 0.46187564168 0.78232474311 0.31542238102 0.5371002866 
0.70164301219 0.36903515353 0.60951631554 0.62532125549 0.41572965728 0.66041061431 0.57770370087 0.44826317228 0.68214262613 
0.57237023474 0.46230853873 0.67724672713 0.60707450002 0.45427710598 0.65199145884 0.66671698311 0.42189253061 0.61440634522 
0.73067568383 0.36722406008 0.57555150488 0.78221900313 0.29686602756 0.54772620242 0.81253842947 0.21799340603 0.54061092809 
0.81817819371 0.13429999151 0.55905988553 0.79576738705 0.045204343498 0.60391293498 0.73874885905 -0.053210365206 0.67187705742 
0.63651748912 -0.16639222555 0.75309967024 0.47951687288 -0.29598108965 0.82611062407 0.27572197899 -0.43097644351 0.85920701548 
0.064236067416 -0.54887101497 0.83343526237 -0.10835700574 -0.63520071595 0.76470831679 -0.22374178399 -0.69298193046 0.68535805106 
-0.28962521172 -0.73164025526 0.61710596629 -0.32223840824 -0.75773390149 0.56745197399 -0.33554066605 -0.77425346084 0.53660417422 
-0.33820040514 -0.78240207906 0.52294117513 -0.33361879767 -0.78291790887 0.52510765164 -0.32065733524 -0.77622903905 0.54281428895 
-0.29568839376 -0.76178624699 0.57641138755 -0.25413414168 -0.73738179882 0.6258465633 -0.19215955432 -0.69904234538 0.68877754395 
-0.10898070513 -0.64237361833 0.75860354625 -0.0086609343543 -0.56535323532 0.82480343569 -0.0086609343543 -0.56535323532 0.82480343569 

FrenetNormal 3 120 double
-0.54747963708 -0.24086146314 0.80140614083 -0.54747963708 -0.24086146314 0.80140614083 -0.51216820008 -0.017680533434 0.85870316965 
-0.4861411134 0.17405674753 0.85637086972 -0.53664390495 0.33055395669 0.77636808345 -0.85247654103 0.45574172188 -0.25609222933 
0.11205121103 -0.11881583153 -0.98657352705 0.33446159232 -0.091126207041 -0.93799331429 0.51547827634 0.057761112631 -0.85495368324 
0.68019877171 0.23920441022 -0.69290033995 0.81283890574 0.35510994877 -0.46172485054 0.91424508876 0.35778062592 -0.19012874951 
0.95702517739 0.27840764819 0.081191078773 0.9374845677 0.21789751984 0.27137309405 0.90621571135 0.2622744851 0.33164013474 
0.86468463538 0.44611967418 0.23086298458 0.6999095828 0.711834032 -0.058471247625 0.35764707303 0.84988969044 -0.38700915395 
0.012322992546 0.81792986802 -0.57518594807 -0.27781056105 0.70157088902 -0.65621610758 -0.57078785693 0.46567278108 -0.67627663226 
-0.85397003228 -0.14200485985 -0.50056947944 -0.60484227664 -0.79462203257 0.052360727044 -0.32484971814 -0.88435194871 0.33525257858 
-0.23307344718 -0.85839468394 0.45698504877 -0.22541384894 -0.8124293882 0.53772398671 -0.2470900836 -0.75072022914 0.61267089709 
-0.26643149834 -0.66520209429 0.69751016512 -0.27134395065 -0.54132877123 0.7958238636 -0.26965353819 -0.35444573539 0.89535199224 
-0.27629188941 -0.069185410555 0.95858028918 -0.28713387117 0.31911506797 0.9031720287 -0.27156823847 0.68384685196 0.67720320061 
-0.24192073192 0.88626672188 0.39497551462 -0.25159784078 0.95417390784 0.16202061632 -0.34624904871 0.93778038153 -0.026068223757 
-0.50367060931 0.84207542455 -0.19293754605 -0.61666999518 0.71178257033 -0.33627918405 -0.62617355669 0.62930432249 -0.46030723066 
-0.5405650283 0.61569614262 -0.57333036737 -0.36500113511 0.65671415601 -0.65992475985 -0.092451819071 0.72973853479 -0.6774469219 
0.28648529698 0.78466815187 -0.54974727471 0.67842203627 0.69909433724 -0.2258553704 0.89011574931 0.42404864712 0.1669631627 
0.89063059645 0.080464249237 0.44755183528 0.77543583681 -0.24019860297 0.58395538709 0.61222515382 -0.51313414224 0.60155940114 
0.43628953439 -0.73349854379 0.52118262484 0.26979938527 -0.89588186441 0.35299288482 0.12432701042 -0.98640779361 0.10743583755 
0.0060325279423 -0.98275458454 -0.18481621997 -0.076332511965 -0.88323183726 -0.4626822552 -0.11526265111 -0.73138787764 -0.67215049929 
-0.11043502543 -0.58232116978 -0.80542296987 -0.06647842738 -0.46429896881 -0.88318009843 -0.0021849462137 -0.38055241688 -0.92475677019 
-0.0058843923825 -0.32879654288 -0.94438244759 -0.27916247599 -0.29715587775 -0.91310826101 -0.58527250596 -0.23566629549 -0.775833417 
-0.64048639312 -0.1756308766 -0.74761686405 -0.58356589701 -0.11124245218 -0.80441031861 -0.45478689627 -0.040506854032 -0.8896786351 
-0.18824412376 0.011538855974 -0.98205448152 0.45085083001 -0.0021465516764 -0.89259672943 0.97988863991 -0.044123127873 -0.19460576293 
0.97204623352 0.0075020272811 0.23466963902 0.90107308724 0.11998231979 0.41673916828 0.81660841242 0.26244680318 0.51407429062 
0.71061810679 0.40453673515 0.57564914334 0.58256862419 0.52168518311 0.6232642841 0.43338711393 0.60205422416 0.67060146186 
0.2655755377 0.64433308389 0.71715027071 0.093755016418 0.65833446987 0.74686392514 -0.060429580235 0.66402263799 0.7452665309 
-0.18065850631 0.68228633722 0.70841220919 -0.25409580799 0.72846739803 0.63621582059 -0.25425844204 0.81459201959 0.52133720975 
-0.11430988154 0.93805048892 0.32710018528 0.23882467792 0.97085879454 -0.019899102382 0.5527825117 0.73896798042 -0.38517245315 
0.62930824791 0.48353145458 -0.6084147118 0.58160834889 0.31836987692 -0.7485802228 0.49638384269 0.21883803404 -0.84006725658 
0.41095026347 0.19694112688 -0.89013149225 0.29506722983 0.40386762213 -0.86592509703 -0.32378501267 0.89406555677 0.30953197859 
-0.45858594743 0.54005678249 0.70571779098 -0.5316094509 0.46598722805 0.70728162355 -0.62186885999 0.44442200134 0.64480090392 
-0.70944827076 0.44128268312 0.54950226997 -0.76840412654 0.47564054087 0.42816022025 -0.73477041384 0.64955466418 0.19542563084 
0.69741985947 0.15992739525 -0.6985905581 0.79385046992 -0.31002176714 -0.52315192374 0.73711323793 -0.49518333037 -0.45984513023 
0.63629238711 -0.67186923661 -0.37910912283 0.4753257499 -0.85271764104 -0.21665192391 0.22104501107 -0.97339902057 0.060278104063 
-0.083232027977 -0.93443075577 0.34628253231 -0.33332128988 -0.7998814609 0.49908573033 -0.51426520818 -0.68885223422 0.5108951899 
-0.66140670235 -0.62002693685 0.42202816454 -0.78201583114 -0.57124750696 0.24925393805 -0.8575779276 -0.5140614535 0.017347049196 
-0.86388708841 -0.44867113615 -0.2288958498 -0.80489504705 -0.39540460482 -0.44249199057 -0.69954777042 -0.3754527465 -0.6080034145 
-0.56068957323 -0.39284454675 -0.72890353584 -0.4124997482 -0.42713542107 -0.80461126626 -0.2507483812 -0.47567008978 -0.8431270456 
0.15755986735 -0.59491804912 -0.78819249111 0.61844328822 0.23863767121 0.74871887991 0.54485020642 0.31761570373 0.77605316655 
0.57771315757 0.33795037769 0.74299195809 0.62073227168 0.37188173461 0.69021404098 0.66215130677 0.42566353114 0.61673836041 
0.69209465789 0.49876072345 0.52176884275 0.70916395818 0.57804945494 0.4036648462 0.70916395818 0.57804945494 0.4036648462 

FrenetBinormal 3 120 double
-0.81692146699 0.36143196416 -0.44945105635 -0.81692146699 0.36143196416 -0.44945105635 -0.80302489099 0.36453053039 -0.47145362112 
-0.77813915824 0.35975979179 -0.51485176763 -0.70880683229 0.32261717843 -0.62730457569 0.17988543928 -0.2042326143 -0.96225270485 
0.86031048841 -0.48526511573 0.15615258883 0.82014688622 -0.46212872899 0.33733680924 0.77430138023 -0.45879006431 0.43585439021 
0.70411843293 -0.47605579574 0.52686631298 0.5820507447 -0.52589641533 0.62020149221 0.38298185322 -0.61000036231 0.6937034367 
0.14175761617 -0.69333544606 0.70653431445 -0.024074970014 -0.73727683786 0.67516165485 -0.032118658448 -0.73939322001 0.67250729214 
0.14880543074 -0.66646516034 0.73053482726 0.48672556048 -0.41545118955 0.76843902678 0.75499698096 -0.019248352476 0.65544569544 
0.82891940278 0.31335518317 0.46335855757 0.78588145266 0.55883429517 0.26475379679 0.62368043458 0.78159043703 0.01179424725 
0.096790468749 0.90189158929 -0.42097881934 -0.62787090321 0.43540587464 -0.6451355309 -0.81964974315 0.086396884865 -0.56631252577 
-0.85913335979 -0.038400077447 -0.5103090281 -0.87041456064 -0.08001737454 -0.48577331379 -0.87569726253 -0.097693320168 -0.47287452838 
-0.88376772575 -0.12021175845 -0.45222089742 -0.89853039132 -0.15389770273 -0.41104577965 -0.91779348629 -0.18681199297 -0.35036608826 
-0.93690537196 -0.20288254414 -0.28468754324 -0.95231144744 -0.19671453715 -0.23325157653 -0.96222550772 -0.17880808489 -0.2053040211 
-0.96400694897 -0.17326587442 -0.20166690134 -0.95296995176 -0.21501368882 -0.21358226671 -0.91277689489 -0.3431748703 -0.22151602324 
-0.8208318587 -0.53610887454 -0.19703384073 -0.71248345704 -0.68630775921 -0.14611291213 -0.66144468661 -0.74132446307 -0.11370561557 
-0.68123533571 -0.72022274287 -0.13113968902 -0.74420819975 -0.63170969527 -0.21701847001 -0.80088853435 -0.45875389855 -0.38486675111 
-0.76170774009 -0.16150880265 -0.62746810704 -0.50897897243 0.22555481655 -0.8307017698 -0.091585668774 0.52532952883 -0.84595564388 
0.2991540499 0.63756278576 -0.70994404613 0.58818555509 0.61113054257 -0.52967651706 0.78172155536 0.50703933943 -0.36307370899 
0.89961064457 0.3676537971 -0.23565095727 0.96091069242 0.22684453723 -0.15872049999 0.98546692316 0.11012145968 -0.1293375718 
0.99073847748 0.030945003564 -0.13221072574 0.9892132739 -0.0088985592558 -0.14621188184 0.988303686 -0.016418499678 -0.15161219314 
0.9908938491 -0.0017027952891 -0.13463461776 0.99572276842 0.026048044186 -0.088643487263 0.9981709063 0.055040208963 -0.025008342771 
0.99816933829 0.054917055328 -0.025339477718 0.95862580974 -0.031063814095 -0.28296924985 0.8098811282 -0.12346800149 -0.57345288454 
0.76793962548 -0.1378811927 -0.62550580198 0.81112803493 -0.1274396013 -0.57081560855 0.88650410093 -0.11629023437 -0.44786946806 
0.97554141776 -0.11336501773 -0.18832767985 0.88604024713 -0.11992979619 0.44782756106 0.18987007668 -0.093823538863 0.97731596607 
-0.23330531611 -0.081342730037 0.96899535073 -0.40796258871 -0.091402562621 0.9084118547 -0.50336708177 -0.11200733822 0.85678231609 
-0.57287053982 -0.14231105887 0.80719694445 -0.63473157775 -0.18695807351 0.74977496821 -0.69342072177 -0.25251359882 0.6748367099 
-0.74144836005 -0.33895087034 0.57910848455 -0.76662447523 -0.43088826275 0.4760485469 -0.7685329499 -0.50738902803 0.38976079735 
-0.76022189316 -0.55385929497 0.33956229847 -0.75896988946 -0.55791883212 0.33569522437 -0.7811786466 -0.4907824913 0.38586586832 
-0.82771456024 -0.2720121901 0.49081358499 -0.79712069561 0.20770714794 0.5669711962 -0.5802979032 0.67307509722 0.4585021887 
-0.38454585292 0.87405760284 0.29689694158 -0.28142738894 0.94215656345 0.18204294741 -0.23480670979 0.96547920604 0.1127639647 
-0.2317972675 0.96687191616 0.10690521276 -0.3118800481 0.89734703265 0.31224852056 -0.27749430967 -0.40250641142 0.87234482681 
-0.059976309521 -0.81114466459 0.58176212958 -0.02801317841 -0.84426990069 0.53518557213 -0.035314547892 -0.83844964445 0.54383368453 
-0.066183340565 -0.81797472396 0.57143426253 -0.13611916016 -0.77519992772 0.61687652436 -0.35548681121 -0.61411632988 0.70462065002 
-0.43127468509 0.87217775899 -0.23088547535 -0.035524397673 0.83517591853 -0.54883440334 0.11023855455 0.75947360845 -0.64112970541 
0.24747735891 0.64322485851 -0.72458038769 0.40273919925 0.42981761985 -0.8081200103 0.53937037713 0.070521072579 -0.83911046627 
0.56890849251 -0.32985250483 -0.75335280726 0.50561960348 -0.598453186 -0.62145201001 0.43563909249 -0.72294623344 -0.53625304162 
0.39671987614 -0.76673347707 -0.50471092223 0.39813918228 -0.76555305522 -0.505384716 0.43420903766 -0.74161993445 -0.51133392655 
0.49957264348 -0.70529059295 -0.50298345239 0.58344041901 -0.66345704379 -0.46842505112 0.67865494251 -0.61547646519 -0.40076949709 
0.77572188264 -0.55711372177 -0.29644537746 0.85206007182 -0.49335045008 -0.17492560538 0.90804058871 -0.41745603848 -0.034536143198 
0.92779058745 -0.18417247764 0.32447669303 -0.71149588692 0.57453599526 0.40457631302 -0.7748013461 0.54459961778 0.32108274697 
-0.76079950142 0.55269454143 0.34016593379 -0.74169217667 0.56389011184 0.36320883365 -0.72431371147 0.57458711927 0.38107648804 
-0.71353219299 0.58188819821 0.39022805428 -0.70499040322 0.58841698392 0.39592168975 -0.70499040322 0.58841698392 0.39592168975 

plain_curvature_peaks 1 120 unsigned_char
0 0 0 0 0 0 0 0 0 
0 0 0 0 0 0 0 0 0 
0 0 0 0 0 0 0 0 1 
0 0 0 0 0 0 0 0 0 
0 0 0 0 0 0 0 0 0 
0 0 0 0 0 0 0 0 0 
0 0 0 0 0 0 1 0 0 
0 0 0 0 0 0 0 0 0 
0 0 0 0 0 0 0 0 0 
0 0 0 0 0 0 0 0 1 
0 0 0 0 0 0 0 0 0 
0 0 0 0 0 0 0 0 0 
0 0 0 1 0 0 0 0 0 
0 0 0 
weighted_curvature_peaks 1 120 unsigned_char
0 0 0 0 0 0 0 0 0 
0 0 0 0 0 0 0 0 0 
0 0 0 0 0 0 0 0 0 
0 0 1 0 0 0 0 0 0 
0 0 0 0 0 0 0 0 0 
0 0 0 0 0 0 0 0 0 
0 0 0 0 0 0 0 0 0 
0 0 0 1 0 0 0 0 0 
0 0 0 0 0 0 0 0 0 
0 0 0 0 0 0 0 0 1 
0 0 0 0 0 0 0 0 0 
0 0 0 0 0 0 0 0 0 
0 0 0 0 0 0 1 0 0 
0 0 0 
plain_torsion_tp 1 120 unsigned_char
0 0 0 0 0 0 0 0 0 
0 0 0 0 0 0 0 0 0 
0 0 0 0 0 0 0 0 1 
0 0 0 0 0 0 0 0 0 
0 0 0 0 0 0 0 0 0 
0 0 0 0 0 0 0 0 0 
0 0 0 0 0 0 1 0 0 
0 0 0 0 0 0 0 0 0 
0 0 0 0 0 0 0 0 0 
0 0 0 0 0 0 0 0 1 
0 0 0 0 0 0 0 0 0 
0 0 0 0 0 0 0 0 0 
0 0 0 1 0 0 0 0 0 
0 0 0 
plain_torsion_tn 1 120 unsigned_char
0 0 0 0 0 0 0 0 0 
0 2 0 0 0 0 0 0 0 
0 0 0 0 0 0 0 0 0 
0 0 0 0 0 0 0 0 0 
0 0 0 0 0 0 0 0 0 
0 0 0 2 0 0 0 0 0 
0 0 0 0 0 0 0 0 0 
0 0 0 0 0 0 0 0 0 
0 0 2 0 0 0 0 0 0 
0 0 0 0 0 0 0 0 0 
0 0 2 0 0 0 0 0 0 
0 0 0 0 0 0 0 0 0 
0 0 0 0 0 0 0 0 0 
0 0 0 
plain_torsion_tz 1 120 unsigned_char
0 0 0 0 0 0 0 0 0 
0 0 3 0 0 0 0 0 0 
0 0 0 0 0 0 0 0 0 
0 0 0 0 0 0 0 0 0 
0 0 3 0 0 0 0 0 0 
0 0 0 0 0 0 0 3 0 
0 0 0 0 0 0 0 0 0 
0 0 0 0 0 0 0 0 0 
0 0 0 0 0 0 0 0 0 
3 0 0 0 0 0 0 0 0 
3 0 0 0 0 0 3 0 0 
0 0 0 0 0 0 0 0 0 
0 0 0 0 0 0 0 0 0 
0 0 0 
weighted_torsion_tp 1 120 unsigned_char
0 0 0 0 0 0 0 0 0 
0 0 0 0 0 0 0 0 0 
0 0 0 0 0 0 0 0 0 
0 0 1 0 0 0 0 0 0 
0 0 0 0 0 0 0 0 0 
0 0 0 0 0 0 0 0 0 
0 0 0 0 0 0 0 0 0 
0 0 0 1 0 0 0 0 0 
0 0 0 0 0 0 0 0 0 
0 0 0 0 0 0 0 0 1 
0 0 0 0 0 0 0 0 0 
0 0 0 0 0 0 0 0 0 
0 0 0 0 0 0 1 0 0 
0 0 0 
weighted_torsion_tn 1 120 unsigned_char
0 0 0 0 0 0 0 0 0 
0 0 2 0 0 0 0 0 0 
0 0 0 0 0 0 0 0 0 
0 0 0 0 0 0 0 0 0 
0 0 0 0 0 0 0 0 0 
0 0 0 0 0 0 0 2 0 
0 0 0 0 0 0 0 0 0 
0 0 0 0 0 0 0 0 0 
0 0 0 0 0 0 0 2 0 
0 0 0 0 0 0 0 0 0 
0 0 0 0 0 0 2 0 0 
0 0 0 0 0 0 0 0 0 
0 0 0 0 0 0 0 0 0 
0 0 0 
weighted_torsion_tz 1 120 unsigned_char
0 0 0 0 0 0 0 0 0 
0 0 0 0 3 0 0 0 0 
0 0 0 0 0 0 0 0 0 
0 0 0 0 0 0 0 0 0 
0 0 0 0 0 0 0 3 0 
0 0 0 0 0 0 0 0 0 
0 0 0 3 0 0 0 0 0 
0 0 0 0 0 0 0 0 0 
0 0 0 0 0 0 0 0 0 
0 0 0 3 0 0 0 0 0 
0 3 0 0 0 0 0 0 0 
0 0 3 0 0 0 0 0 0 
0 0 0 0 0 0 0 0 0 
0 0 0 
plain_torsion_tp_raw 1 120 unsigned_char
0 0 0 0 0 0 0 0 0 
0 0 0 0 0 0 0 0 0 
0 0 0 0 0 0 0 0 0 
0 0 0 0 0 1 0 0 0 
0 0 0 0 0 0 0 0 0 
0 0 0 0 1 0 0 0 0 
0 0 0 0 0 0 0 0 0 
0 0 0 0 0 0 0 0 0 
0 0 0 0 0 0 1 0 0 
0 0 0 0 0 0 0 0 1 
0 0 0 0 0 0 0 0 0 
0 0 1 0 0 0 0 0 0 
0 0 0 0 0 0 1 0 0 
0 0 0 
plain_torsion_tn_raw 1 120 unsigned_char
0 0 0 0 0 0 0 0 0 
0 0 0 0 0 0 0 0 0 
0 0 2 0 0 0 0 0 0 
0 0 0 0 0 0 0 0 0 
0 0 0 0 0 2 0 0 0 
0 0 0 0 0 0 0 0 0 
0 0 0 0 0 0 0 0 0 
0 0 0 0 0 0 0 2 0 
0 0 0 0 0 0 0 0 0 
0 0 0 0 2 0 0 0 0 
0 0 2 0 0 0 0 0 0 
0 0 0 0 0 0 0 0 2 
0 0 0 0 0 0 0 0 0 
0 0 0 
plain_torsion_tz_raw 1 120 unsigned_char
0 0 0 0 0 0 0 0 0 
0 3 0 0 0 0 0 0 0 
0 0 0 0 0 0 0 0 0 
3 0 0 0 0 0 3 0 0 
0 0 0 0 0 0 0 0 0 
0 3 0 0 0 0 0 0 0 
0 0 0 0 0 0 0 0 0 
0 0 0 0 0 0 0 0 0 
0 0 0 0 0 0 0 0 0 
0 0 0 0 0 0 0 0 0 
0 0 0 0 0 0 0 0 0 
0 0 0 0 0 0 0 0 0 
0 0 0 0 0 0 0 0 0 
0 0 0 
weighted_torsion_tp_raw 1 120 unsigned_char
0 0 0 0 0 0 0 0 0 
0 0 0 0 0 0 0 0 0 
0 0 0 0 0 0 0 0 0 
0 0 0 0 0 0 0 0 1 
0 0 0 0 0 0 0 0 0 
0 0 0 0 0 0 0 0 0 
1 0 0 0 0 0 0 0 0 
0 0 0 0 0 0 0 0 0 
0 0 0 0 0 0 0 0 0 
0 1 0 0 0 0 0 0 0 
1 0 0 0 0 0 0 0 0 
0 0 0 0 0 0 0 1 0 
0 0 0 0 0 0 0 0 1 
0 0 0 
weighted_torsion_tn_raw 1 120 unsigned_char
0 0 0 0 0 0 0 0 0 
0 0 0 0 0 0 0 0 0 
0 0 0 0 0 2 0 0 0 
0 0 0 0 0 0 0 0 0 
0 0 0 0 0 0 0 0 0 
2 0 0 0 0 0 0 0 0 
0 0 0 0 0 0 0 0 0 
0 0 0 0 0 0 0 0 0 
0 0 0 2 0 0 0 0 0 
0 0 0 0 0 0 2 0 0 
0 0 0 0 0 0 0 2 0 
0 0 0 0 0 0 0 0 0 
0 0 0 2 0 0 0 0 0 
0 0 0 
weighted_torsion_tz_raw 1 120 unsigned_char
0 0 0 0 0 0 0 0 0 
0 0 3 0 0 0 0 0 0 
0 0 0 0 0 0 0 0 0 
0 0 0 0 3 0 0 0 0 
0 3 0 0 0 0 0 0 0 
0 0 0 0 0 0 3 0 0 
0 0 0 0 0 0 0 0 0 
0 0 0 0 0 0 0 0 0 
0 0 0 0 0 0 0 0 0 
0 0 0 0 0 0 0 0 0 
0 0 0 0 0 0 0 0 0 
0 0 0 0 0 0 0 0 0 
0 0 0 0 0 0 0 0 0 
0 0 0 
