# vtk DataFile Version 5.1
vtk output
ASCII
DATASET POLYDATA
POINTS 120 float
-3.58375 18.1994 -5.23817 -4.12821 17.8862 -5.01178 -4.60457 17.5254 -4.85102 
-5.01835 17.1216 -4.75068 -5.37518 16.6791 -4.70546 -5.68095 16.2027 -4.70995 
-5.9419 15.6971 -4.75871 -6.16463 15.1672 -4.84639 -6.35593 14.6182 -4.96813 
-6.52242 14.0553 -5.11986 -6.67011 13.4843 -5.29851 -6.80373 12.912 -5.50206 
-6.92592 12.3461 -5.7296 -7.03628 11.7958 -5.98117 -7.13076 11.2716 -6.25754 
-7.20163 10.784 -6.5596 -7.2382 10.3428 -6.88776 -7.2285 9.95499 -7.24109 
-7.16156 9.6241 -7.61692 -7.02972 9.34872 -8.01095 -6.8306 9.12263 -8.41796 
-6.56808 8.93495 -8.83268 -6.25248 8.77061 -9.25064 -5.89949 8.61109 -9.66819 
-5.52831 8.43569 -10.0819 -5.15926 8.22375 -10.4874 -4.81124 7.95781 -10.8778 
-4.49973 7.62656 -11.2429 -4.23565 7.22734 -11.5685 -4.02509 6.76733 -11.8371 
-3.87019 6.26321 -12.0297 -3.77014 5.73956 -12.1285 -3.72238 5.22583 -12.1203 
-3.72343 4.75312 -11.9991 -3.76941 4.35025 -11.7674 -3.85641 4.04081 -11.4361 
-3.98042 3.8392 -11.0225 -4.13733 3.74983 -10.5478 -4.32259 3.7665 -10.0336 
-4.53087 3.87413 -9.49948 -4.75563 4.05209 -8.96078 -4.98871 4.27692 -8.42782 
-5.22001 4.526 -7.90567 -5.43758 4.7791 -7.3946 -5.62834 5.01927 -6.89144 
-5.77944 5.23245 -6.39119 -5.87992 5.40746 -5.88874 -5.92237 5.53564 -5.38046 
-5.90406 5.61114 -4.86524 -5.82748 5.63034 -4.34501 -5.69963 5.59153 -3.82467 
-5.53062 5.49399 -3.31157 -5.33195 5.33751 -2.81477 -5.11483 5.12171 -2.34367 
-4.88938 4.84677 -1.90656 -4.66412 4.51405 -1.50904 -4.44589 4.12696 -1.15303 
-4.23976 3.69127 -0.836438 -4.04877 3.21477 -0.553625 -3.87386 2.70716 -0.296539 
-3.71399 2.17813 -0.0563398 -3.56623 1.6372 0.174954 -3.42613 1.09188 0.403081 
-3.28828 0.547898 0.630772 -3.14691 0.00834138 0.857663 -2.99663 -0.525625 1.08095 
-2.83327 -1.05501 1.29659 -2.6546 -1.58165 1.50066 -2.46079 -2.1082 1.69083 
-2.2544 -2.63679 1.86715 -2.03992 -3.16937 2.03235 -1.82273 -3.7064 2.19143 
-1.60789 -4.24729 2.35078 -1.39871 -4.78954 2.51687 -1.19559 -5.32951 2.69498 
-0.995386 -5.86205 2.88809 -0.791224 -6.38129 3.09638 -0.573465 -6.88126 3.31727 
-0.331089 -7.35657 3.54615 -0.0538343 -7.80301 3.77781 0.265632 -8.21833 4.00785 
0.62993 -8.60254 4.23422 1.03614 -8.95711 4.45796 1.47625 -9.28439 4.6834 
1.93857 -9.58627 4.91755 2.40996 -9.86314 5.1686 2.87825 -10.1132 5.4444 
3.33438 -10.3328 5.7503 3.77383 -10.5172 6.08802 4.19708 -10.6623 6.45441 
4.60931 -10.7658 6.84184 5.01899 -10.8284 7.23909 5.43607 -10.8544 7.63347 
5.86984 -10.8502 8.01291 6.3272 -10.8238 8.36787 6.81151 -10.7826 8.69339 
7.32229 -10.7323 8.9892 7.85529 -10.6761 9.25935 8.40392 -10.615 9.51072 
8.96015 -10.5489 9.75169 9.51611 -10.4786 9.98943 10.0651 -10.4076 10.2288 
10.6027 -10.3429 10.471 11.1267 -10.2953 10.7139 11.6377 -10.2784 10.9525 
12.1377 -10.3058 11.1813 12.6294 -10.3883 11.3958 13.1154 -10.5317 11.5946 
13.5969 -10.7358 11.7806 14.0731 -10.9943 11.9603 14.5404 -11.2969 12.1437 
14.9928 -11.6315 12.3425 15.422 -11.986 12.5675 15.8177 -12.3508 12.8281 
16.1679 -12.7189 13.1306 16.46 -13.0862 13.4786 16.6804 -13.4506 13.8733 
16.8155 -13.8118 14.3144 16.8515 -14.1697 14.801 16.7744 -14.5248 15.3318 

LINES 2 120
OFFSETS vtktypeint64
0 120 
CONNECTIVITY vtktypeint64
0 1 2 3 4 5 6 7 8 
9 10 11 12 13 14 15 16 17 
18 19 20 21 22 23 24 25 26 
27 28 29 30 31 32 33 34 35 
36 37 38 39 40 41 42 43 44 
45 46 47 48 49 50 51 52 53 
54 55 56 57 58 59 60 61 62 
63 64 65 66 67 68 69 70 71 
72 73 74 75 76 77 78 79 80 
81 82 83 84 85 86 87 88 89 
90 91 92 93 94 95 96 97 98 
99 100 101 102 103 104 105 106 107 
108 109 110 111 112 113 114 115 116 
117 118 119 
CELL_DATA 1
FIELD FieldData 2
Length 1 1 double
68.667070624 
Tortuosity 1 1 double
0.5718374188 
POINT_DATA 120
FIELD FieldData 19
Curvature 1 120 double
0 0.22832662756 0.25380252607 0.26014190677 0.24542931437 0.21498379676 0.17753025932 0.14083212294 0.10960990267 
0.086578394557 0.073214758993 0.070706175402 0.07905165408 0.09855965191 0.13131985863 0.18034167655 0.24398921471 0.30925476024 
0.3482820699 0.33527507022 0.27202260991 0.18463424135 0.10093777463 0.061852403193 0.1086458857 0.17401894504 0.23170813024 
0.27338894965 0.30029550369 0.32421809245 0.36049200148 0.42169115588 0.51105187155 0.61193451412 0.67695604361 0.64981715674 
0.53852844859 0.40010453451 0.27961795702 0.18931327719 0.12113550791 0.068505767998 0.034047285712 0.062296790683 0.12375672231 
0.19407886103 0.25812864774 0.29574542311 0.29727510695 0.27248348357 0.24221093677 0.22113793735 0.21498701819 0.21780978939 
0.2207161316 0.21405754792 0.19343951597 0.16095043674 0.12189827412 0.084429535806 0.051325101272 0.025349191676 0.0050932228725 
0.012492458468 0.028591067081 0.043460173463 0.054718816247 0.058604161624 0.053212705573 0.039315140607 0.020417705837 0.010039828918 
0.024232190896 0.037368258069 0.046144510095 0.05559077678 0.073515480375 0.1022307638 0.13494396721 0.15987347174 0.16598277065 
0.15134711023 0.1231403141 0.096209276389 0.087239761659 0.10152252316 0.12436910077 0.14432836988 0.15112989581 0.14401697845 
0.12754372739 0.1138470634 0.11351981999 0.1212961174 0.12469161122 0.11595157272 0.094466204695 0.06619813525 0.036396874553 
0.013752950862 0.012229275892 0.024894552061 0.04969360757 0.091567043438 0.14377658995 0.1914160041 0.2145287709 0.20322236812 
0.16690641714 0.12700062429 0.10537275282 0.11260185235 0.13900169289 0.17465610354 0.21346484427 0.25341125479 0.28719593661 
0.30552295903 0.29835507602 0 
Torsion 1 120 double
0 0 -0.0055378402159 -0.0079001791551 -0.013047994817 -0.024005425994 -0.045828407974 -0.085607883587 -0.14999083994 
-0.23316209061 -0.28385426708 -0.21622315565 -0.052654198458 0.095840249305 0.17730715892 0.20219954905 0.19724373253 0.18382857924 
0.17389306318 0.17774635024 0.21409948772 0.35463374666 0.98731621152 2.3222761679 0.62179317489 0.14760413397 -0.0048220095192 
-0.08973486128 -0.15165092445 -0.19007005296 -0.19207280503 -0.15785345535 -0.10532718342 -0.052249813906 -0.0092766670454 0.022675187311 
0.046656329641 0.06321997447 0.067879309616 0.046502118447 -0.044616770374 -0.44859426947 -2.4629839731 -0.79846245355 -0.20092950806 
-0.090430682485 -0.067655546883 -0.078192832055 -0.10957372825 -0.15390759718 -0.19910787643 -0.22030637342 -0.20136597263 -0.16364185302 
-0.13317466372 -0.11967156118 -0.12283399573 -0.14030567306 -0.17680275377 -0.23586882909 -0.3295618638 -0.48736494012 -2.7955746214 
-0.70312965977 -0.41639638173 -0.31216532857 -0.24879236981 -0.21814417132 -0.23222108952 -0.34120682273 -0.93381600412 -3.3615036067 
-0.72290294309 -0.54252156315 -0.66561741482 -0.76523561156 -0.63759734085 -0.40829472022 -0.2350561471 -0.1195486104 -0.02303188338 
0.094097756531 0.28932527307 0.5954880507 0.70761426591 0.39719442563 0.10717728854 -0.073022540439 -0.21457398644 -0.37484634299 
-0.58110660249 -0.75684358026 -0.69809226427 -0.48100981371 -0.29140040593 -0.15518055348 -0.037935134487 0.11306586792 0.45595509638 
1.9613871984 2.2569260926 1.2472634747 0.7162103029 0.3578280073 0.17410923321 0.069715621082 -0.0099113254468 -0.10312044308 
-0.26283750717 -0.53633446902 -0.74277096221 -0.53178693771 -0.2324418595 -0.051819834594 0.039937361952 0.075053322233 0.077708026704 
0.070560408325 0 0 
FrenetTangent 3 120 double
-0.79562567991 -0.52529049571 0.30174438286 -0.79562567991 -0.52529049571 0.30174438286 -0.74046018906 -0.6360391081 0.21719337326 
-0.66788791742 -0.73349110735 0.12616071182 -0.58451655417 -0.81058606624 0.0359252991 -0.49928018688 -0.8651696244 -0.046912855413 
-0.42023270014 -0.89964107274 -0.118534459 -0.35252911888 -0.91865425088 -0.17831878108 -0.29824005118 -0.92686946266 -0.2279602401 
-0.25708658957 -0.92780615878 -0.27033722865 -0.22724881704 -0.92359743471 -0.30874869027 -0.2056743116 -0.91518434178 -0.34660596952 
-0.18803768543 -0.90252413315 -0.38741711105 -0.16865574813 -0.88465216887 -0.43467893753 -0.14046805894 -0.85954374269 -0.49137895643 
-0.095285968391 -0.82374161267 -0.55890101071 -0.025032758124 -0.77225639062 -0.63481763379 0.074656523299 -0.69999559193 -0.71023416899 
0.19880369785 -0.60633997613 -0.76995384477 0.33051281055 -0.50080573077 -0.79997181331 0.44848344972 -0.40197308728 -0.79829833548 
0.53875408473 -0.32804155971 -0.77597214595 0.59800887439 -0.28967024477 -0.74731287654 0.62849712286 -0.29067553778 -0.7214562345 
0.63263368203 -0.33104054448 -0.7001334032 0.61129034428 -0.40738516495 -0.67849940484 0.56504504124 -0.51163574815 -0.64726575885 
0.49688129275 -0.63058617688 -0.59621309483 0.41365259729 -0.74882825389 -0.51782987065 0.32355215496 -0.85358147616 -0.40830462474 
0.23213605782 -0.93579829315 -0.26531943991 0.14053788374 -0.98631831022 -0.086170146591 0.046902397506 -0.99041993611 0.12987884838 
-0.049758321009 -0.92635822028 0.37334241281 -0.14491412458 -0.77624137467 0.61355458172 -0.22746089185 -0.55090098287 0.80297549761 
-0.28782842769 -0.2981367608 0.91009299968 -0.32620596989 -0.069307392537 0.94275455478 -0.34929608383 0.11033133582 0.93049408497 
-0.36338835986 0.23964822176 0.90028752614 -0.37132265255 0.32666731443 0.86914207894 -0.37257870756 0.38022442988 0.84653085566 
-0.36393389652 0.40716013935 0.83771877136 -0.34042696079 0.41124356368 0.84556975803 -0.29652085193 0.39321597657 0.87031981486 
-0.22782323029 0.35154200299 0.90802797086 -0.13421612854 0.28472481538 0.94916690331 -0.023125394882 0.1951191489 0.98050687598 
0.090882771826 0.090707856743 0.99172194012 0.19273578891 -0.0184860159 0.98107654283 0.27389164219 -0.12580913336 0.95349642385 
0.33294017723 -0.23001631446 0.91446341287 0.37214518267 -0.33320449091 0.86630406339 0.39403087463 -0.43691983652 0.80860418395 
0.40010392554 -0.53941987562 0.74090690815 0.39159057447 -0.63557712931 0.66535594586 0.37084364394 -0.71902137511 0.5877782353 
0.34190662479 -0.78535779373 0.51605522549 0.309917021 -0.8335612558 0.45730413614 0.27956252004 -0.86567425887 0.41527445733 
0.25444808519 -0.88497130955 0.3899768624 0.23711248027 -0.89474699278 0.37842501321 0.22911937353 -0.89795225423 0.3757473377 
0.23119217627 -0.89715274361 0.37638694487 0.24303315857 -0.8945463176 0.37512900382 0.26303783198 -0.89179902212 0.36811085707 
0.28820942773 -0.88986311491 0.35366504279 0.31442869778 -0.88903503832 0.33279317097 0.33729395201 -0.88928368178 0.30888075896 
0.35320133615 -0.89056292651 0.28661208989 0.36027737282 -0.89271935314 0.27065175257 0.35878408288 -0.89517580109 0.26445087827 
0.35105766665 -0.8967503646 0.26943885815 0.34126140624 -0.89575615819 0.28488867595 0.3348548763 -0.89044114096 0.30819926395 
0.33804603171 -0.87927090471 0.33557049419 0.35646101604 -0.86108194223 0.3625926541 0.3938113281 -0.83470587663 0.38493991399 
0.45028144406 -0.79873819922 0.39907882711 0.52098590522 -0.75238539718 0.40310036055 0.59625176106 -0.69719750409 0.39799431871 
0.6650982374 -0.63771927129 0.38853373809 0.71966574207 -0.5798137681 0.3819649382 0.75691941167 -0.52770605529 0.38548582782 
0.77750153096 -0.48192688874 0.40402703284 0.78356135972 -0.43935352448 0.43931773932 0.77753840504 -0.39502919236 0.48927085124 
0.76249200807 -0.34399606382 0.54797139132 0.74288178028 -0.28373089041 0.60631958764 0.72498491795 -0.21568720667 0.65412223447 
0.71569474894 -0.14464343953 0.68327103095 0.72012594109 -0.077189562963 0.68953636621 0.73966943212 -0.018924940093 0.6727042276 
0.77143695519 0.026495970934 0.63575387352 0.80915284175 0.05807890869 0.58472088988 0.84566492363 0.077717725216 0.52802537072 
0.87557299164 0.089320354581 0.47475658033 0.8964936181 0.097222612704 0.43225797424 0.90840457807 0.10460414453 0.40479512781 
0.9127576417 0.11192036302 0.39287061466 0.91181508006 0.11654936025 0.39371246666 0.9083175368 0.11347890225 0.40259382893 
0.90536800613 0.095792992229 0.413681612 0.9052485493 0.056393919008 0.42112324785 0.90763998918 -0.0093800462451 0.41964468872 
0.9083366287 -0.10060687467 0.40595914293 0.9009052259 -0.20818604122 0.38082587385 0.88140614147 -0.31660029158 0.35055309034 
0.85151834317 -0.41134659903 0.32513149141 0.81595490454 -0.48534189864 0.31410322378 0.77789949993 -0.53886826282 0.32325433226 
0.73684213404 -0.57585099373 0.35420234685 0.6888749979 -0.60078596342 0.40559519651 0.62800349655 -0.61711867432 0.47410563182 
0.54746893725 -0.62675980121 0.55448166275 0.44116097294 -0.62984072056 0.63927901786 0.3058186842 -0.62421984597 0.71890508156 
0.14421973317 -0.6062297203 0.78210369823 -0.033038491393 -0.57356045501 0.81849670893 -0.033038491393 -0.57356045501 0.81849670893 

FrenetNormal 3 120 double
0.31016469532 -0.78109254666 -0.54193384774 0.31016469532 -0.78109254666 -0.54193384774 0.42398360226 -0.69278773819 -0.58333785651 
0.52920353622 -0.58721686346 -0.61247038501 0.61724987538 -0.47296666635 -0.62873295115 0.68298022633 -0.35966783324 -0.6357492117 
0.72418888506 -0.25379388145 -0.64120131355 0.73902677238 -0.15640459499 -0.6552686719 0.72166115319 -0.062653099625 -0.68940537356 
0.66094513196 0.03527241122 -0.74960482226 0.54807245385 0.1407696867 -0.82450013987 0.41897002403 0.23773191895 -0.8763262256 
0.3471632813 0.3079139468 -0.88581412129 0.36783491723 0.35264966413 -0.8604276193 0.45059374983 0.38642465447 -0.80476161628 
0.55404007388 0.42257120263 -0.7172678546 0.64919940948 0.47033690833 -0.59776527115 0.72069135527 0.53012827228 -0.44673032734 
0.76082127002 0.59070487512 -0.26873545654 0.7694755895 0.63378925297 -0.078857466223 0.76098904684 0.64018410287 0.10516646339 
0.7612345629 0.58415795614 0.2815695696 0.79384904702 0.3425066157 0.50248672494 0.4795495987 -0.58547194433 0.65364729387 
-0.14207611869 -0.93830477307 0.31527532305 -0.34025947811 -0.90933843051 0.23943079659 -0.43673753243 -0.85106204899 0.29146820846 
-0.4940840903 -0.7703653716 0.40301129755 -0.51586619268 -0.66143618231 0.54441183674 -0.50266128183 -0.52064660484 0.69011502564 
-0.46336110178 -0.34622175275 0.8157370822 -0.41689417056 -0.13789427744 0.89843442655 -0.37494539861 0.10305893459 0.92130060461 
-0.33667835255 0.36748411307 0.86695046777 -0.29333366374 0.62592759994 0.72261331385 -0.24035588465 0.83083928584 0.50193139952 
-0.18569809796 0.94964640483 0.25236466116 -0.14176549511 0.98961652629 0.023699689498 -0.11529265607 0.9804371114 -0.15953267393 
-0.099676556111 0.95080150222 -0.29332761127 -0.072495537462 0.92300965898 -0.37788565266 0.058667373153 0.92003535497 -0.38741848812 
0.70518446011 0.70801746173 -0.037764415847 0.8755567489 -0.1892099766 0.44452217515 0.78511909584 -0.41848902318 0.45656866167 
0.76770704792 -0.50877095622 0.38958696421 0.7645251207 -0.57964305875 0.28198451066 0.75277411585 -0.64199525528 0.14551021516 
0.71349601702 -0.7006580789 -0.0013000650837 0.64115578033 -0.75450018621 -0.14017394319 0.53357482156 -0.80496451189 -0.25948033526 
0.39781918128 -0.84499583633 -0.3573820583 0.25065003784 -0.86258854905 -0.43944914789 0.11199384805 -0.85040043235 -0.51407828457 
-0.012781200524 -0.81164134593 -0.58401623821 -0.12641795666 -0.75340836019 -0.64528624891 -0.23359629258 -0.68477803745 -0.69029834964 
-0.33850648564 -0.61521316267 -0.71198744627 -0.4457407989 -0.55223660544 -0.70452102297 -0.56428224942 -0.49807779463 -0.6584102471 
-0.69949967661 -0.44687139359 -0.55767926267 -0.84394165878 -0.38265358044 -0.37595041421 -0.97157219704 -0.18733026313 0.14475786147 
0.95037872046 0.29102642089 0.10992683954 0.96386394078 0.17920952474 -0.1971046674 0.90546805001 0.096467998503 -0.41330562018 
0.82653603455 0.04469416425 -0.56110659886 0.73583097789 0.0067732760903 -0.67713137183 0.6390969368 -0.024607591401 -0.76873244488 
0.4984997523 -0.080092730134 -0.86318199213 0.20728736502 -0.20626848305 -0.95628722736 -0.90867253944 -0.39976712335 -0.1204178689 
-0.68192705696 -0.047662735258 0.72986557163 -0.42760772182 0.12196233197 0.89569907102 -0.11459166485 0.28617147983 0.95130154761 
0.288439242 0.43619766993 0.85236987066 0.62743460688 0.50817534579 0.58998612867 0.79374353413 0.52000378683 0.31554280804 
0.83893752037 0.53147137616 0.11714099723 0.82573956048 0.56385773451 -0.014786260312 0.78238733384 0.61573383517 -0.093498150154 
0.72116049096 0.68356943301 -0.11251833867 0.64049386388 0.76676813878 -0.04282793104 0.49995193173 0.84746844841 0.17845250045 
0.2430158985 0.82278794994 0.51377355178 -0.012796452111 0.6955162084 0.71839644672 -0.15769683527 0.63070606245 0.75982996186 
-0.22166452626 0.6567947696 0.72075340334 -0.23339728746 0.73912187433 0.63184219635 -0.18175544569 0.85613014007 0.48374181257 
-0.043380302773 0.96722366793 0.25019297656 0.18717810754 0.97855968445 -0.08593776829 0.41074550105 0.8045164284 -0.42900052424 
0.52136421436 0.5464602438 -0.65540869534 0.53394934571 0.34273439012 -0.77293675941 0.50354538447 0.21173190984 -0.83762261439 
0.45837186453 0.15670144595 -0.8748370652 0.41194712358 0.17622290258 -0.89400506485 0.34710702205 0.35102292569 -0.86965488608 
0.13602431754 0.82358123428 -0.55064628899 -0.40978107414 0.31887264342 0.85463425426 -0.26964173354 -0.57695704561 0.7709824272 
-0.069023851725 -0.92806435931 0.36596755713 0.026891227715 -0.99676985905 0.075675028595 0.032603817172 -0.99515435191 -0.092762098875 
-0.021213209443 -0.98047017423 -0.19552042655 -0.11322935064 -0.95980031704 -0.25683158988 -0.22774930912 -0.93501185601 -0.2718144244 
-0.35660822301 -0.9089396984 -0.21600740716 -0.50404854394 -0.86332491892 -0.024599791263 -0.62582572491 -0.71077262976 0.3211610668 
-0.6455522249 -0.44367239764 0.62162458807 -0.63825614908 -0.23746990344 0.73228214038 -0.67020970829 -0.11926227497 0.73252676175 
-0.73799136392 -0.049228548572 0.67301210745 -0.82010517669 0.0063236726557 0.57217786598 -0.89570140306 0.067368977386 0.43952294303 
-0.94876697931 0.13984131209 0.28334718352 -0.9702068196 0.2150712255 0.11154862238 -0.9702068196 0.2150712255 0.11154862238 

FrenetBinormal 3 120 double
0.52036298797 -0.33758603149 0.78438385507 0.52036298797 -0.33758603149 0.78438385507 0.52149459578 -0.33985203073 0.78265189182 
0.52332527841 -0.3422968751 0.78036113581 0.52663363854 -0.3453299317 0.77679099443 0.53315786165 -0.34945753784 0.77046876888 
0.54676771713 -0.35529509703 0.7581625535 0.57407547418 -0.36278364077 0.73404726002 0.62470637251 -0.37011834364 0.68757134891 
0.70502341664 -0.37139142254 0.60416090014 0.8049686705 -0.35658333373 0.47420856763 0.88439934222 -0.32545530456 0.33453945689 
0.91875975368 -0.30106343259 0.25542381366 0.9144685409 -0.30500615485 0.26592956438 0.88160875508 -0.33445558871 0.33302471702 
0.82701885152 -0.37799911939 0.41612075769 0.76020621396 -0.42708694643 0.4895745627 0.68922447284 -0.47850829272 0.54405830555 
0.61776054002 -0.53237165952 0.57875066421 0.54650580895 -0.58949537984 0.59483325221 0.46878381576 -0.6546617077 0.59300909146 
0.36092378202 -0.7423935731 0.56443405831 0.1104041516 -0.89374513565 0.43477644348 -0.61239166303 -0.7567894913 -0.22857409503 
-0.76130742862 -0.099981551987 -0.64063615914 -0.71452613846 0.084504119308 -0.69448646587 -0.69998887787 0.11799258448 -0.70433892472 
-0.71343527571 0.094330630067 -0.69434273929 -0.75018237783 0.041933553566 -0.65989997506 -0.80165181892 -0.01804927767 -0.59751868992 
-0.85522473071 -0.066423282481 -0.51398308098 -0.89802469553 -0.090340241195 -0.43056972378 -0.9258596617 -0.091908683759 -0.36651968662 
-0.94030409784 -0.082558308809 -0.33017015194 -0.94496309886 -0.075259337568 -0.31840347657 -0.9436580903 -0.078830122298 -0.32139573803 
-0.93950572783 -0.096364815379 -0.32869866097 -0.93460805133 -0.12591908602 -0.33264421559 -0.92989238586 -0.16300327275 -0.32974245069 
-0.92629017272 -0.19632939968 -0.32162288902 -0.9256694252 -0.20332642505 -0.31905247236 -0.92614429005 -0.094680137997 -0.36509235198 
-0.60849568296 0.5770025085 -0.54479455669 0.34279711758 0.8916716414 -0.29565490034 0.54374938135 0.81868683466 -0.18463065032 
0.59893444075 0.7858564336 -0.15397143061 0.63046599484 0.76350881065 -0.13988182656 0.65787259148 0.74146517783 -0.13203425101 
0.69474006325 0.70770780778 -0.12839744281 0.742813692 0.65603943191 -0.13356677267 0.80017577952 0.57983117936 -0.15334446618 
0.85492148025 0.48277793205 -0.1898281616 0.89369039468 0.38067802969 -0.2374904549 0.91224834767 0.29312141021 -0.28615169237 
0.91638064672 0.22419750973 -0.33163532223 0.91141391378 0.16857507378 -0.37537597456 0.89883689501 0.11868993876 -0.42190631021 
0.87664885736 0.068745183873 -0.4761941627 0.83980151244 0.014503945687 -0.54269978373 0.77680778857 -0.050265177008 -0.62772850151 
0.66779965137 -0.1308882686 -0.73274271526 0.48118618878 -0.2302260982 -0.84584620082 -0.059596800381 -0.39823249696 -0.91534643701 
-0.20815971113 0.3322959178 0.91991790812 0.10909256391 0.40947628981 0.90577479573 0.3330746303 0.44202763422 0.83287025474 
0.48350130234 0.45403311378 0.74838520979 0.59973941507 0.4577890599 0.65630923401 0.6912220304 0.45669355126 0.56003848522 
0.79167342579 0.44775308877 0.41565653897 0.90952304146 0.40063133856 0.11073557525 0.21351392913 -0.19709523646 -0.95685174914 
-0.6416650245 -0.43996255211 -0.62825070559 -0.83707364602 -0.42748812224 -0.34141121319 -0.9352758749 -0.35386502881 -0.0062112173188 
-0.89583909499 -0.19134855334 0.40107112463 -0.69228704894 0.017196124509 0.72141731 -0.46355564918 0.18127923545 0.86732577438 
-0.30566396262 0.28205578425 0.90940314301 -0.21616628974 0.34055934776 0.91503631941 -0.17987189131 0.36713415058 0.91261087995 
-0.19383467411 0.35503093004 0.91453876781 -0.26804632067 0.27546799391 0.92318392225 -0.42085754145 0.057650222622 0.9052929811 
-0.5800298634 -0.30127473067 0.75683478661 -0.62118261918 -0.56852940502 0.53935745962 -0.60874110822 -0.66795344148 0.42810333237 
-0.60784107744 -0.6710345287 0.42454903824 -0.62741721903 -0.61089740277 0.48285815365 -0.66435068052 -0.46959579656 0.58147911497 
-0.69706468543 -0.20870230374 0.68596222399 -0.66811899017 0.19095212837 0.71913441 -0.53308279333 0.59362880917 0.60284954373 
-0.36477990646 0.83706580713 0.40774557554 -0.24529528106 0.93763531194 0.24631331044 -0.17689794437 0.97423280254 0.13991984754 
-0.15253579947 0.9835987653 0.09626161635 -0.16309126306 0.97953726432 0.11793213188 -0.23306187546 0.93050571121 0.2825619996 
-0.3851893983 0.55604656539 0.73650617415 -0.025937059409 -0.94060431846 0.33851260693 0.31976958562 -0.80885295713 -0.49346155459 
0.41898028756 -0.35988921575 -0.83362777726 0.42403057184 -0.0571801887 -0.90384097062 0.41848135101 0.097876609128 -0.90293605989 
0.41770153064 0.16898666877 -0.8927311673 0.41898554642 0.1882602551 -0.8882618917 0.41382782165 0.15974067887 -0.89623068991 
0.38437883204 0.06798970606 -0.92066840575 0.2831124496 -0.13825095226 -0.94907007912 0.056696825672 -0.45213191008 -0.89014729447 
-0.20081333229 -0.68669530112 -0.69865840651 -0.34362817905 -0.76332448613 -0.54704241467 -0.39551302789 -0.7777795649 -0.48849605238 
-0.39452060721 -0.77765590179 -0.48949442172 -0.36442351065 -0.77669857595 -0.51374587785 -0.32279084398 -0.77833861833 -0.53851189983 
-0.28114389117 -0.78289841848 -0.55500286378 -0.24001496887 -0.79042569063 -0.56357789374 -0.24001496887 -0.79042569063 -0.56357789374 

plain_curvature_peaks 1 120 unsigned_char
0 0 0 0 0 0 0 0 1 
0 0 0 0 0 0 0 0 0 
0 0 0 0 0 0 0 0 0 
0 0 0 0 0 0 0 0 0 
0 0 1 0 0 0 0 0 0 
0 0 0 0 0 0 0 0 0 
0 0 0 0 0 0 0 0 0 
0 0 0 0 0 0 0 0 0 
0 0 0 1 0 0 0 0 0 
0 0 0 0 0 0 0 0 0 
0 0 0 0 0 0 0 0 0 
0 0 0 0 0 0 0 0 0 
0 0 0 0 0 0 0 0 1 
0 0 0 
weighted_curvature_peaks 1 120 unsigned_char
0 0 0 0 0 0 0 0 1 
0 0 0 0 0 0 0 0 0 
0 0 0 0 0 0 0 0 0 
0 0 0 0 0 0 0 0 0 
0 0 0 0 0 0 1 0 0 
0 0 0 0 0 0 0 0 0 
0 0 0 0 0 0 0 0 0 
0 0 0 0 0 0 0 0 0 
0 0 0 0 0 0 0 0 1 
0 0 0 0 0 0 0 0 0 
0 0 0 0 0 0 0 0 0 
0 0 0 0 0 0 0 0 0 
0 0 0 0 0 0 0 0 0 
1 0 0 
plain_torsion_tp 1 120 unsigned_char
0 0 0 0 0 0 0 0 1 
0 0 0 0 0 0 0 0 0 
0 0 0 0 0 0 0 0 0 
0 0 0 0 0 0 0 0 0 
0 0 1 0 0 0 0 0 0 
0 0 0 0 0 0 0 0 0 
0 0 0 0 0 0 0 0 0 
0 0 0 0 0 0 0 0 0 
0 0 0 1 0 0 0 0 0 
0 0 0 0 0 0 0 0 0 
0 0 0 0 0 0 0 0 0 
0 0 0 0 0 0 0 0 0 
0 0 0 0 0 0 0 0 1 
0 0 0 
plain_torsion_tn 1 120 unsigned_char
0 0 0 0 2 0 0 0 0 
0 0 0 0 0 0 0 0 0 
0 0 0 0 0 0 0 0 0 
2 0 0 0 0 0 0 0 0 
0 0 0 0 0 0 0 0 0 
0 0 0 0 0 0 0 0 0 
2 0 0 0 0 0 0 0 0 
0 0 0 0 0 0 0 0 0 
0 0 0 0 0 0 0 0 0 
0 0 0 0 0 0 0 0 0 
0 0 0 0 0 0 0 0 0 
2 0 0 0 0 0 0 0 0 
0 0 0 0 0 0 0 0 0 
0 0 0 
plain_torsion_tz 1 120 unsigned_char
0 0 0 0 3 0 0 0 0 
0 0 0 0 0 0 0 0 0 
3 0 0 0 0 0 0 0 0 
0 0 0 3 0 0 0 0 0 
0 0 0 0 0 0 0 0 0 
0 0 0 0 0 0 0 0 0 
0 0 0 0 0 3 0 0 0 
0 0 0 0 0 0 0 0 0 
0 0 0 0 0 0 0 0 0 
0 0 0 0 0 0 0 0 0 
0 0 3 0 0 0 0 0 0 
0 0 0 0 0 0 3 0 0 
0 0 0 0 0 0 0 0 0 
0 0 0 
weighted_torsion_tp 1 120 unsigned_char
0 0 0 0 0 0 0 0 1 
0 0 0 0 0 0 0 0 0 
0 0 0 0 0 0 0 0 0 
0 0 0 0 0 0 0 0 0 
0 0 0 0 0 0 1 0 0 
0 0 0 0 0 0 0 0 0 
0 0 0 0 0 0 0 0 0 
0 0 0 0 0 0 0 0 0 
0 0 0 0 0 0 0 0 1 
0 0 0 0 0 0 0 0 0 
0 0 0 0 0 0 0 0 0 
0 0 0 0 0 0 0 0 0 
0 0 0 0 0 0 0 0 0 
1 0 0 
weighted_torsion_tn 1 120 unsigned_char
0 2 0 0 0 0 0 0 0 
0 0 0 0 0 0 0 0 0 
0 0 0 0 0 0 0 0 0 
0 0 2 0 0 0 0 0 0 
0 0 0 0 0 0 0 0 0 
0 0 0 0 0 0 0 0 0 
0 0 0 0 0 2 0 0 0 
0 0 0 0 0 0 0 0 0 
0 0 0 0 0 0 0 0 0 
0 0 0 0 0 0 0 0 0 
0 0 0 0 0 0 0 0 0 
0 0 0 0 2 0 0 0 0 
0 0 0 0 0 0 0 0 0 
0 0 0 
weighted_torsion_tz 1 120 unsigned_char
0 3 0 0 0 0 0 0 0 
0 0 0 0 0 0 0 0 0 
0 0 0 3 0 0 0 0 0 
0 0 0 0 0 0 3 0 0 
0 0 0 0 0 0 0 0 0 
0 0 0 0 0 0 0 0 0 
0 0 0 0 0 0 0 0 0 
0 0 3 0 0 0 0 0 0 
0 0 0 0 0 0 0 0 0 
0 0 0 0 0 0 0 0 0 
0 0 0 0 0 0 0 3 0 
0 0 0 0 0 0 0 0 0 
0 0 3 0 0 0 0 0 0 
0 0 0 
plain_torsion_tp_raw 1 120 unsigned_char
0 0 0 0 0 0 0 0 0 
0 0 0 1 0 0 0 0 0 
0 0 0 0 0 0 0 0 0 
0 1 0 0 0 0 0 0 0 
0 0 0 0 0 0 0 0 0 
0 0 0 0 0 0 0 0 0 
0 0 0 1 0 0 0 0 0 
0 0 0 0 0 0 0 0 0 
0 0 0 0 0 0 0 0 0 
1 0 0 0 0 0 0 0 0 
0 0 0 0 0 0 0 0 0 
0 0 0 0 0 0 0 0 0 
0 1 0 0 0 0 0 0 0 
1 0 0 
plain_torsion_tn_raw 1 120 unsigned_char
0 0 0 0 0 0 2 0 0 
0 0 0 0 0 0 0 0 0 
0 0 2 0 0 0 0 0 0 
0 0 0 0 0 0 0 0 0 
0 0 0 0 0 0 0 0 0 
0 0 0 0 2 0 0 0 0 
0 0 0 0 0 0 0 0 0 
0 2 0 0 0 0 0 0 0 
0 0 0 0 0 0 0 0 0 
0 0 0 0 0 0 0 0 0 
0 0 0 0 0 0 0 0 0 
0 2 0 0 0 0 0 0 0 
0 0 0 0 0 2 0 0 0 
0 0 0 
plain_torsion_tz_raw 1 120 unsigned_char
0 0 0 0 3 0 0 0 0 
3 0 0 0 3 0 0 0 0 
0 0 0 0 0 0 0 0 3 
0 0 0 0 0 0 0 0 0 
0 0 0 0 0 0 0 0 0 
0 0 0 0 0 0 0 0 0 
0 0 0 0 0 0 0 0 0 
0 0 0 0 0 0 0 0 0 
0 0 0 0 0 0 0 0 0 
0 0 0 0 0 0 0 0 0 
0 0 0 0 0 0 0 0 0 
0 0 0 0 0 0 0 0 0 
0 0 0 0 0 0 0 0 0 
0 0 0 
weighted_torsion_tp_raw 1 120 unsigned_char
0 0 0 0 0 0 0 0 0 
0 0 0 0 0 1 0 0 0 
0 0 0 0 0 0 0 0 0 
0 0 0 0 1 0 0 0 0 
0 0 0 0 0 0 0 0 0 
0 0 0 0 0 0 0 0 0 
0 0 0 0 0 0 0 0 0 
1 0 0 0 0 0 0 0 0 
0 0 0 0 0 0 0 0 0 
0 0 0 0 0 1 0 0 0 
0 0 0 0 0 0 0 0 0 
0 0 0 0 0 0 0 0 0 
0 0 0 0 0 0 1 0 0 
0 1 0 
weighted_torsion_tn_raw 1 120 unsigned_char
0 0 0 0 0 0 2 0 0 
0 0 0 0 0 0 0 0 0 
0 0 0 0 0 2 0 0 0 
0 0 0 0 0 0 0 0 0 
0 0 0 0 0 0 0 0 0 
0 0 0 0 0 0 0 0 0 
2 0 0 0 0 0 0 0 0 
0 0 0 0 0 0 0 2 0 
0 0 0 0 0 0 0 0 0 
0 0 0 0 0 0 0 0 0 
0 0 0 0 0 0 0 0 0 
0 0 0 0 0 0 2 0 0 
0 0 0 0 0 0 0 0 2 
0 0 0 
weighted_torsion_tz_raw 1 120 unsigned_char
0 3 0 0 0 0 0 0 0 
3 0 0 0 0 0 0 3 0 
0 0 0 0 0 0 0 0 0 
0 3 0 0 0 0 0 0 0 
0 0 0 0 0 0 0 0 0 
0 0 0 0 0 0 0 0 0 
0 0 0 0 0 0 0 0 0 
0 0 0 0 0 0 0 0 0 
0 0 0 0 0 0 0 0 0 
0 0 0 0 0 0 0 0 0 
0 0 0 0 0 0 0 0 0 
0 0 0 0 0 0 0 0 0 
0 0 0 0 0 0 0 0 0 
0 0 0 
