# vtk DataFile Version 5.1
vtk output
ASCII
DATASET POLYDATA
POINTS 120 float
-0.13527 17.0301 -2.15821 -0.723824 16.4717 -1.77301 -1.20697 15.9762 -1.41435 
-1.59861 15.541 -1.10047 -1.91287 15.163 -0.849103 -2.16459 14.8384 -0.676411 
-2.36965 14.5616 -0.595151 -2.54506 14.3241 -0.612322 -2.70809 14.1144 -0.727119 
-2.87497 13.9193 -0.930978 -3.05912 13.726 -1.2089 -3.26971 13.5251 -1.54246 
-3.51143 13.3131 -1.91381 -3.78498 13.0931 -2.30885 -4.08787 12.8734 -2.71881 
-4.41533 12.664 -3.1398 -4.76033 12.4724 -3.57132 -5.11318 12.3005 -4.01444 
-5.46095 12.1433 -4.47016 -5.78741 11.991 -4.93823 -6.07396 11.8318 -5.41652 
-6.3013 11.6561 -5.90112 -6.45166 11.4595 -6.38692 -6.51111 11.2442 -6.86861 
-6.47135 11.0172 -7.3416 -6.33113 10.7877 -7.80296 -6.09672 10.5634 -8.25171 
-5.78151 10.3471 -8.68886 -5.40457 10.1358 -9.11672 -4.98835 9.92041 -9.53775 
-4.55623 9.68765 -9.95305 -4.13001 9.42274 -10.3607 -3.72805 9.11266 -10.7543 
-3.36415 8.74913 -11.1221 -3.04736 8.3311 -11.4474 -2.78268 7.86585 -11.7098 
-2.57243 7.36851 -11.8875 -2.41798 6.86014 -11.9612 -2.32083 6.36466 -11.9171 
-2.28287 5.90488 -11.7504 -2.30565 5.49982 -11.4661 -2.38873 5.16065 -11.0785 
-2.52802 4.89015 -10.609 -2.71449 4.68168 -10.0827 -2.93406 4.52096 -9.52441 
-3.16855 4.38879 -8.95599 -3.39769 4.26474 -8.39387 -3.60193 4.13076 -7.84833 
-3.76546 3.97364 -7.32389 -3.87889 3.78648 -6.82065 -3.94085 3.56799 -6.33603 
-3.95782 3.32081 -5.8666 -3.94199 3.04936 -5.40943 -3.90784 2.75853 -4.96301 
-3.86852 2.45149 -4.52749 -3.83324 2.13006 -4.10437 -3.80646 1.79357 -3.69572 
-3.78918 1.44015 -3.30315 -3.78097 1.06733 -2.92654 -3.782 0.673532 -2.56311 
-3.79394 0.259901 -2.20735 -3.81955 -0.169676 -1.85202 -3.86132 -0.609547 -1.49015 
-3.91959 -1.05343 -1.11724 -3.9911 -1.49677 -0.732748 -4.06851 -1.93773 -0.340437 
-4.14116 -2.37741 0.0525674 -4.19694 -2.81982 0.437577 -4.22499 -3.27049 0.806336 
-4.21829 -3.73516 1.15298 -4.1753 -4.2181 1.47513 -4.10001 -4.72107 1.77412 
-4.00004 -5.24201 2.05431 -3.88338 -5.77543 2.32167 -3.75497 -6.31242 2.58218 
-3.61421 -6.84171 2.84048 -3.45421 -7.35116 3.09898 -3.26339 -7.82924 3.35775 
-3.02852 -8.26714 3.61504 -2.73832 -8.65981 3.86799 -2.38648 -9.00641 4.11362 
-1.97297 -9.31066 4.34947 -1.50371 -9.57898 4.57401 -0.989036 -9.81923 4.78675 
-0.441339 -10.0393 4.98811 0.127121 -10.245 5.17918 0.705962 -10.44 5.36141 
1.28777 -10.6243 5.53633 1.86845 -10.7956 5.70525 2.44682 -10.9486 5.86932 
3.02386 -11.0767 6.02959 3.60157 -11.174 6.18735 4.18191 -11.2357 6.34452 
4.76582 -11.2599 6.50408 5.35259 -11.2479 6.67019 5.93964 -11.2042 6.84823 
6.52274 -11.1364 7.04429 7.09656 -11.0539 7.26439 7.65548 -10.968 7.51348 
8.19453 -10.8901 7.79443 8.71025 -10.8313 8.1075 9.2012 -10.8007 8.44984 
9.66844 -10.8043 8.81625 10.1154 -10.844 9.19981 10.5474 -10.9176 9.5926 
10.9706 -11.0195 9.98712 11.3916 -11.1422 10.3764 11.8145 -11.2797 10.7553 
12.2413 -11.4298 11.1196 12.6696 -11.5954 11.4668 13.0928 -11.784 11.7959 
13.5005 -12.0045 12.1074 13.8789 -12.2629 12.4047 14.2121 -12.5579 12.6932 
14.4831 -12.8776 12.9818 14.6741 -13.1999 13.2821 14.7663 -13.494 13.6074 
14.741 -13.7233 13.9725 14.5791 -13.849 14.3931 14.2616 -13.8311 14.8846 

LINES 2 120
OFFSETS vtktypeint64
0 120 
CONNECTIVITY vtktypeint64
0 1 2 3 4 5 6 7 8 
9 10 11 12 13 14 15 16 17 
18 19 20 21 22 23 24 25 26 
27 28 29 30 31 32 33 34 35 
36 37 38 39 40 41 42 43 44 
45 46 47 48 49 50 51 52 53 
54 55 56 57 58 59 60 61 62 
63 64 65 66 67 68 69 70 71 
72 73 74 75 76 77 78 79 80 
81 82 83 84 85 86 87 88 89 
90 91 92 93 94 95 96 97 98 
99 100 101 102 103 104 105 106 107 
108 109 110 111 112 113 114 115 116 
117 118 119 
CELL_DATA 1
FIELD FieldData 2
Length 1 1 double
67.453488783 
Tortuosity 1 1 double
0.77132896693 
POINT_DATA 120
FIELD FieldData 19
Curvature 1 120 double
0 0.058817607279 0.052803352939 0.065180417837 0.162174936 0.42191787395 0.90734827831 1.2300446928 0.87545660797 
0.39413922071 0.13944137287 0.059339347274 0.060757066956 0.066342406926 0.070976176608 0.072812346726 0.066482646822 0.056803909169 
0.070693010623 0.1180085944 0.18280121299 0.2539923021 0.31954648158 0.36169529427 0.36224579241 0.31708993701 0.24198599392 
0.1597580851 0.087689939311 0.050574478071 0.080314820454 0.12787477222 0.17227779239 0.21164254077 0.25149574695 0.30301973656 
0.37832664579 0.47860592542 0.57366388437 0.60179935648 0.52736469621 0.39714050686 0.26917436599 0.16624432085 0.084154142435 
0.017523465265 0.061375282775 0.1292315431 0.18508221964 0.21031881863 0.19525284921 0.15106974668 0.10108959924 0.070849105253 
0.067951414598 0.079471832189 0.089841005057 0.095272667828 0.090851421528 0.07447234075 0.055776256877 0.048584881183 0.050037339553 
0.044718320777 0.026167280065 0.013709157753 0.051931271696 0.095024361012 0.12855451838 0.14063472949 0.12772053684 0.097456818994 
0.06332452509 0.037282172444 0.0375165868 0.068928051351 0.1186560334 0.1781445171 0.23144521005 0.2560693831 0.23933298658 
0.19446235628 0.14224665064 0.096622308405 0.063714861278 0.042263625274 0.031973982077 0.032498098994 0.044290738601 0.062856903781 
0.081979850063 0.09705052301 0.10311656759 0.09948671574 0.089080270802 0.079380506909 0.077154743867 0.085401042841 0.10061996992 
0.11733100082 0.12972185664 0.13460346277 0.12762935782 0.11007891625 0.085531141381 0.062606031602 0.053131013988 0.056692856336 
0.06747471542 0.088142619349 0.12117947365 0.15902844386 0.19577363073 0.23559316026 0.3115761067 0.47364856462 0.73622421247 
0.90812686314 0.71187826331 0 
Torsion 1 120 double
0 0 -0.94594427988 -1.7483048666 -0.89624931076 -0.42996346094 -0.23273194844 -0.17543349152 -0.22799145619 
-0.45153004507 -1.2801710998 -2.3706945269 -0.39882960767 0.33792026305 0.49468311532 0.51735310555 0.71763750156 1.287923927 
1.0699379604 0.41555855823 0.12333087108 -0.014199934539 -0.086336815334 -0.11814281674 -0.11931133929 -0.093080564536 -0.030029681307 
0.12207780101 0.64760075348 1.9229728831 0.55827193934 0.070787401527 -0.086711840632 -0.17074359206 -0.21830888443 -0.2212148471 
-0.17583031055 -0.10353703381 -0.03710439714 0.012001692151 0.046169326106 0.066024416108 0.069464180165 0.040519455354 -0.1242722828 
-5.1003322062 -0.33231865884 -0.0093342420595 0.024166155387 0.0047059469096 -0.057791197671 -0.19929996552 -0.5361702248 -0.95379651954 
-0.62527674923 -0.14114159611 0.037868784836 0.016433907188 -0.13372393015 -0.42404585294 -0.87787880136 -0.96106372259 -0.58224634094 
-0.40456636788 -0.84641199837 -3.6336817683 -0.3552340847 -0.14295338393 -0.097376881229 -0.089914946597 -0.088875118457 -0.062253214035 
0.10814290145 0.86870340303 0.92564444783 0.11562136857 -0.075091869468 -0.099531844571 -0.090462787735 -0.083691810072 -0.083711863184 
-0.087859189835 -0.10104162373 -0.1144220751 -0.096866233891 0.009856273936 0.2665478443 0.37697860361 0.22175074417 0.10945665471 
0.080698434222 0.097195464114 0.14767185705 0.24156030569 0.39522500668 0.57827266083 0.66383755962 0.56416545583 0.42587185572 
0.3298445632 0.27895047558 0.25081455361 0.25761978873 0.30675232247 0.44363509413 0.69247372235 0.63092781613 0.089751168842 
-0.39821370706 -0.52602675084 -0.47154109308 -0.4438995018 -0.52003544707 -0.67872351011 -0.73279766395 -0.57029606981 -0.34241770932 
-0.2036764079 0 0 
FrenetTangent 3 120 double
-0.63904423059 -0.62839254993 0.44355977561 -0.63904423059 -0.62839254993 0.44355977561 -0.60598594265 -0.64477256649 0.46588558126 
-0.58041520658 -0.66866470267 0.46476413736 -0.56778325797 -0.70473449645 0.42540740648 -0.57331434321 -0.75479591752 0.31873780253 
-0.59169634128 -0.79997582642 0.099670039934 -0.58737928771 -0.77622443371 -0.22904410247 -0.53931994323 -0.66164023574 -0.52092820742 
-0.49340068672 -0.54587375072 -0.67718358709 -0.47689148378 -0.47627163096 -0.73874207017 -0.48437445562 -0.44222710827 -0.75486195523 
-0.50538269282 -0.42374110263 -0.75168597948 -0.53209882131 -0.40582786713 -0.74308450839 -0.55893706617 -0.3804116409 -0.73680142476 
-0.58096652803 -0.3464190922 -0.73652678557 -0.59314915108 -0.30903943859 -0.74341691531 -0.59063541866 -0.2774549982 -0.75773908848 
-0.56907491379 -0.26115785429 -0.77971168879 -0.52403840873 -0.26628787153 -0.80899599236 -0.4501139693 -0.29339140669 -0.84339723566 
-0.34154530422 -0.33664700242 -0.87750532815 -0.19567265296 -0.38412944852 -0.90230636685 -0.018708725748 -0.4203081148 -0.90718855384 
0.17053363114 -0.43252253053 -0.88534882461 0.34566662967 -0.418748405 -0.83974064713 0.48560551999 -0.38929162044 -0.78271279101 
0.58286856347 -0.36006276321 -0.7284360262 0.64085577786 -0.34477614734 -0.68588138932 0.66652203602 -0.35211428857 -0.65708743961 
0.66586785255 -0.38607206553 -0.63841081066 0.64309862383 -0.44648691316 -0.62215239002 0.60170868623 -0.52924052928 -0.59820658563 
0.54592056616 -0.6268265325 -0.55593096118 0.4806321148 -0.73009030799 -0.48575808012 0.40939234112 -0.82975271929 -0.3793525219 
0.33185780991 -0.91516735625 -0.2287774116 0.24301761782 -0.96959999325 -0.028605777591 0.1368182139 -0.96733115588 0.21342729723 
0.015561288059 -0.88655055691 0.46236993453 -0.1049906537 -0.73812470958 0.66644495327 -0.20684527093 -0.56710675384 0.79724837011 
-0.28277258394 -0.41576663042 0.86439445556 -0.33404820365 -0.30373264497 0.89227701865 -0.36337975268 -0.23439846865 0.90167206524 
-0.37135388266 -0.20522192273 0.9055276121 -0.3560804018 -0.21200474154 0.91008831276 -0.31479274673 -0.24916786381 0.91587166254 
-0.24758003235 -0.30776769226 0.91868556927 -0.1620748324 -0.37483643849 0.91281399698 -0.074147094981 -0.43742786126 0.89619142738 
-0.0010696431088 -0.48841309881 0.87261188439 0.046910991879 -0.52775167966 0.84810230718 0.068790627932 -0.5597966126 0.82576970278 
0.069939391199 -0.58918185523 0.80496783974 0.058421977647 -0.61931634549 0.7829649652 0.041634547459 -0.65194293698 0.75712414529 
0.02408986172 -0.68631783292 0.72690268315 0.0067328444096 -0.71945480236 0.69450662788 -0.011997162063 -0.74667881424 0.66507654933 
-0.034018609038 -0.76401055491 0.64430629845 -0.059675172423 -0.77003915887 0.63519962815 -0.086712877079 -0.7660430241 0.63691362222 
-0.11057365345 -0.75589299893 0.64529004434 -0.12552105863 -0.74535351726 0.65474620896 -0.12615501136 -0.74038456536 0.66023905405 
-0.10854995667 -0.74553350566 0.65756877879 -0.071553396536 -0.76223330383 0.64333545058 -0.018374374655 -0.78776714918 0.61569903446 
0.042808304613 -0.81626193569 0.5760936568 0.10098124028 -0.84175901716 0.53032494391 0.14735534609 -0.86090017555 0.48696744215 
0.17938281036 -0.87307004847 0.45339882865 0.20113719126 -0.87854159672 0.43325338212 0.22136543756 -0.87689962684 0.42666659993 
0.25094125397 -0.86666492071 0.43118488178 0.30018194625 -0.84498146283 0.44260267354 0.37530576159 -0.80755312396 0.45497641401 
0.47422877152 -0.75015664448 0.46083845435 0.5843128157 -0.67281502463 0.45376037293 0.68697643791 -0.58420029721 0.43217286644 
0.76862129667 -0.49853262436 0.40085723737 0.82628870176 -0.42708402575 0.36721412867 0.86397867626 -0.37433973556 0.33676491703 
0.88765337831 -0.33862747748 0.31209439514 0.90246583741 -0.31516685151 0.29364139357 0.91230508832 -0.29814726809 0.2807269712 
0.9201486537 -0.28152557056 0.27215768997 0.92815866886 -0.25964699775 0.26665506181 0.93741743086 -0.22804134467 0.26314578742 
0.94747494892 -0.18492541615 0.2609479098 0.95659613377 -0.13132670641 0.26014829047 0.96249196496 -0.071057223673 0.2618398143 
0.96336809338 -0.010031176709 0.267994948 0.95861342044 0.045459761745 0.28105821499 0.9486069946 0.090375589157 0.30327713842 
0.93401859719 0.12134963219 0.33598143828 0.91529347684 0.13604196064 0.37911797135 0.89253958363 0.13313979262 0.43086759831 
0.86582396371 0.11219306477 0.48760801888 0.83571925022 0.074287879784 0.54410903846 0.80375726606 0.022711841126 0.59452369972 
0.77260652492 -0.03659167049 0.63382979364 0.74601850279 -0.096206793486 0.65893903086 0.72748565155 -0.14929580004 0.66968305256 
0.71928181041 -0.19131269516 0.66785711787 0.72098641676 -0.22236156846 0.65630322239 0.72941341825 -0.24691697491 0.63795616838 
0.73947742379 -0.27296201867 0.6153575189 0.74457229989 -0.30968486932 0.59136061075 0.73784473736 -0.3633353239 0.56883440996 
0.71227447965 -0.4340299195 0.55161861337 0.66191374926 -0.51474127022 0.54489596555 0.58253592975 -0.59251659666 0.5563955187 
0.46852004218 -0.65104965479 0.59717946806 0.30683815714 -0.6680142727 0.6779434171 0.076996311321 -0.60234127106 0.79451655818 
-0.21211116033 -0.40241821777 0.89054389767 -0.46270314771 -0.10405709381 0.88038509661 -0.46270314771 -0.10405709381 0.88038509661 

FrenetNormal 3 120 double
0.71949140258 -0.28447590736 0.63356576592 0.71949140258 -0.28447590736 0.63356576592 0.79491637398 -0.51278884594 0.32427697707 
0.51059292717 -0.7434431418 -0.43195735626 0.05031010574 -0.54552868371 -0.83658074835 -0.09127716153 -0.32775990875 -0.94034138588 
-0.055034967128 -0.083262982943 -0.99500674775 0.083566090407 0.2233275166 -0.97115473992 0.20923076588 0.49392205478 -0.84395704299 
0.22630756713 0.6711696029 -0.70591518556 0.037842108039 0.82856629231 -0.55861066415 -0.59153653747 0.80125792009 -0.089834683274 
-0.82345259283 0.49719541782 0.27335424608 -0.78225548533 0.57143768594 0.24806315075 -0.64430946215 0.75857296523 0.097120406711 
-0.43799756658 0.89577227585 -0.07582981932 -0.15564935007 0.94999027311 -0.27072451092 0.32648857901 0.77656865542 -0.53883794521 
0.7721530392 0.15630742746 -0.61591206529 0.84866461926 -0.24331292774 -0.46964580612 0.86965140239 -0.35846224161 -0.33942784161 
0.911271117 -0.34716255471 -0.22150194563 0.95969839056 -0.26426639619 -0.095615223674 0.98967904372 -0.13671915716 0.042933232823 
0.98273206104 0.0091803527318 0.18480643207 0.93829826265 0.14420079828 0.3143286498 0.87385924388 0.24035196229 0.42261206338 
0.81255419799 0.26319875972 0.52007892499 0.7521449586 0.1032764911 0.65085476694 0.35475435876 -0.6254122022 0.6949884332 
-0.24835844507 -0.92159816389 0.298286619 -0.40682146762 -0.88750630416 0.21639975406 -0.45926606988 -0.8420169903 0.28298774728 
-0.4719528574 -0.77831278132 0.4141131667 -0.45576722523 -0.68121658348 0.57290505566 -0.42279671133 -0.54099225924 0.72702841508 
-0.3951870989 -0.35508809775 0.84719513673 -0.39057554455 -0.12480122633 0.91207203548 -0.40728733401 0.14146781772 0.90227705507 
-0.42473559853 0.41277008206 0.80574222348 -0.42946552018 0.63808975775 0.63906246019 -0.4219156706 0.78691057846 0.45028758412 
-0.41255951052 0.86627614802 0.28170957679 -0.40294357972 0.90181012933 0.15612482889 -0.36679254014 0.9256611859 0.092814877126 
0.27367010809 0.90774902317 0.31795657388 0.75367128892 -0.6409265704 0.14557719468 0.73541819776 -0.67405125313 0.069390075294 
0.76869161682 -0.63958008432 -0.0071073187868 0.80001802089 -0.59144402507 -0.10082227658 0.80763419726 -0.55351312266 -0.2033475509 
0.77014484009 -0.55701431365 -0.31082467675 0.63539142147 -0.63936310078 -0.43300411879 0.25440190442 -0.79052201123 -0.55709480413 
-0.20235646403 -0.7985463041 -0.56690004558 -0.3727175883 -0.74112201859 -0.55840823144 -0.37521137307 -0.71251941592 -0.59290176881 
-0.34132680818 -0.68906702112 -0.63928291892 -0.36022738219 -0.64963810729 -0.66948230946 -0.49517488295 -0.57340571198 -0.65269267253 
-0.78039740554 -0.3824372462 -0.49469348303 -0.9934730741 -0.016154103003 -0.11291720855 -0.93094419247 0.28994258544 0.22198244896 
-0.7990850414 0.45367807267 0.39451147385 -0.58353706135 0.58919814089 0.55886496474 0.95182679294 0.097168250201 0.29083343584 
0.89797180181 -0.35730412646 -0.25686651078 0.83678299683 -0.39689819891 -0.37718170145 0.79970405171 -0.38119329369 -0.46385892525 
0.76369525221 -0.34504087421 -0.54563390371 0.71913480101 -0.30659378781 -0.62357468458 0.67395508353 -0.2729592666 -0.68649674738 
0.65983749962 -0.23506132458 -0.71369506638 0.81247369955 -0.097449561401 -0.57479567719 0.97030104937 0.24181506438 -0.006430258755 
0.90165242805 0.37134461146 0.22164403564 0.88785405257 0.41713487635 0.19420009337 0.87765998936 0.46747048279 0.1057558074 
0.84474055646 0.5351727612 0.0018729479 0.78475887486 0.61088517204 -0.10475120477 0.70661887201 0.67581118093 -0.20968790485 
0.62492965579 0.71906220278 -0.30399420035 0.55346400758 0.73663739578 -0.38864243135 0.49869426291 0.72859679682 -0.46952182036 
0.45885587444 0.70779626274 -0.53709937344 0.43015708612 0.69546001388 -0.57558687473 0.4050632047 0.75775794138 -0.51159232058 
0.36386480176 0.87153930225 -0.3286664733 0.30709761587 0.939042282 -0.15456599545 0.2547413303 0.96434128711 -0.07178256487 
0.20030309013 0.9791652873 -0.033376821707 0.13593546316 0.9907176553 0.00027810351234 0.059046196994 0.99682233425 0.053467565414 
-0.030952651883 0.98846317621 0.14826490692 -0.13682709474 0.93925742934 0.31475995229 -0.25354667096 0.7905222151 0.55748427159 
-0.35084225585 0.48861052964 0.79885509439 -0.39464092607 0.11454197575 0.91166807296 -0.40304349648 -0.19311217041 0.89457455228 
-0.40303541992 -0.42110984579 0.81254473604 -0.40461379302 -0.58660941796 0.70155332603 -0.40287660545 -0.71453000713 0.57195918533 
-0.39403025461 -0.81043461507 0.43351573576 -0.35589797133 -0.89393954508 0.27241278192 -0.27155075544 -0.95899289731 0.081196121356 
-0.068934378054 -0.97624514815 -0.20541047256 0.193762488 -0.84464370677 -0.49903217017 0.32791617603 -0.6922476101 -0.64285630417 
0.23670689008 -0.75029773573 -0.61727073149 0.014628651269 -0.87809562766 -0.47826150927 -0.21540620197 -0.92544034254 -0.31170553502 
-0.42440649218 -0.89227066649 -0.15405254665 -0.6130561006 -0.79003774608 -0.0016053906556 -0.78347428425 -0.59156434362 0.19031466909 
-0.87989468679 -0.28327267749 0.38149958105 -0.88255820246 0.066946336611 0.46541294275 -0.83636598252 0.39476488564 0.38033226047 
-0.73001400559 0.67107608479 0.12936939386 -0.53192493405 0.82704332235 -0.18181091135 -0.53192493405 0.82704332235 -0.18181091135 

FrenetBinormal 3 120 double
-0.27194593756 0.72401399249 0.63391572446 -0.27194593756 0.72401399249 0.63391572446 0.029816030795 0.56684736657 0.82328310278 
0.63436034767 -0.013409336826 0.77292117256 0.82163925492 -0.45359425125 0.34519732039 0.81423531221 -0.56820468593 0.11901382793 
0.80428017016 -0.59422718956 0.0052397590611 0.80498588863 -0.58957649957 -0.066311916422 0.81569386748 -0.56415707232 -0.12794652128 
0.83984560927 -0.50155080741 -0.20762018249 0.87814719014 -0.29435222572 -0.37711308604 0.64456645241 0.40301480146 -0.64970236126 
0.25790339499 0.75712627378 -0.60020466877 0.32395555255 0.71327604288 -0.62152239431 0.52197190828 0.52901232489 -0.66909736741 
0.6860291721 0.27854235295 -0.6721444284 0.78990338928 -0.044867654135 -0.6115877118 0.73793970621 -0.56564993361 -0.36808306481 
0.28272500164 -0.95255685566 0.1127031951 -0.071778201347 -0.93267871674 0.35349441459 -0.20274085174 -0.88624280184 0.4164971107 
-0.23006902547 -0.87529820997 0.42534843029 -0.20172062868 -0.88465125254 0.42035812034 -0.14207524062 -0.89702227436 0.41852797434 
-0.071805131157 -0.90157638706 0.42661931676 -0.010533349081 -0.89658011526 0.44275630484 0.023607220255 -0.88920355852 0.45690232071 
0.004462403814 -0.89503140695 0.44598079277 -0.15356377582 -0.93298626711 0.3255069771 -0.65566586036 -0.69632973879 -0.29193693571 
-0.70351836203 -0.040064754185 -0.70954684818 -0.64878382649 0.11393856436 -0.75239454413 -0.65346869396 0.10445980193 -0.74971115491 
-0.69226529295 0.036300311226 -0.72072952734 -0.74917888827 -0.053963956174 -0.66016580099 -0.80848058228 -0.13725086621 -0.57229480847 
-0.8565614694 -0.19073844105 -0.47950109097 -0.88791507557 -0.21047685619 -0.40903094209 -0.90299380059 -0.21037417001 -0.37462635344 
-0.90518369277 -0.20892335772 -0.37012634726 -0.89695949162 -0.21911954308 -0.38399257315 -0.88272430623 -0.24323172337 -0.40203995814 
-0.86592974083 -0.27695440853 -0.41648762231 -0.85208466082 -0.30738407736 -0.42363517298 -0.85639849827 -0.29699954008 -0.42234214252 
-0.88724346477 0.3658902477 -0.28093301846 0.55243672553 0.73774461768 0.38800327752 0.60005466501 0.69539217985 0.39542902675 
0.58976039695 0.70442626537 0.39492570293 0.57767024759 0.71392689373 0.39573409692 0.58500359975 0.70871721387 0.39432308967 
0.63786815342 0.67170506869 0.3767446344 0.77076397189 0.55918958321 0.3053357327 0.9646489105 0.24840028639 0.088032818785 
0.97681131393 -0.12324180165 -0.17507459925 0.92610392068 -0.25920150034 -0.27412790869 0.92600377428 -0.25939639331 -0.27428182799 
0.93963593406 -0.23271113558 -0.25085820456 0.93284023387 -0.24567278425 -0.26354123236 0.86871048307 -0.33715966224 -0.36285735319 
0.62435776897 -0.51964374788 -0.58322187169 0.097211752515 -0.63779208114 -0.76404917146 -0.35471648883 -0.5736823009 -0.73828506025 
-0.59096240471 -0.4720190468 -0.65418763033 -0.80232721621 -0.3119193567 -0.50889817551 -0.27948286058 0.66512331678 0.69245960468 
0.42645462836 0.56259537249 0.70825341284 0.54283913607 0.51134353445 0.66622328248 0.60011316603 0.48385389481 0.63698476939 
0.64415604539 0.46331765288 0.60860475 0.68749394695 0.44434446807 0.57437798235 0.7239274462 0.42935314895 0.53998604252 
0.72968231542 0.42719417618 0.53391839677 0.54720226409 0.46761976627 0.69419121023 -0.097535719826 0.41541848669 0.90438612566 
-0.35220929296 0.33315926336 0.87461621251 -0.34872049048 0.33467121539 0.87543657515 -0.29809147656 0.35962383084 0.88420143174 
-0.2480331924 0.38840072659 0.88748206238 -0.20671729906 0.41729995112 0.88494559667 -0.1695675189 0.44943215335 0.87707331282 
-0.13669026161 0.48416399183 0.86423434403 -0.10452068528 0.52437065334 0.84505079389 -0.069605165756 0.5735995729 0.81617317456 
-0.039022640513 0.61996441991 0.78365895106 -0.022809944567 0.64575941713 0.76320015829 -0.060193239029 0.58044044381 0.81207491352 
-0.1446681068 0.40145061683 0.90438296154 -0.21026778107 0.22535090233 0.95131720843 -0.23739295472 0.13432433549 0.96208188734 
-0.24933891243 0.083892375138 0.96477571287 -0.25777002678 0.035097345609 0.96556863538 -0.26480703164 -0.036001456841 0.96362914604 
-0.26639040899 -0.15112883503 0.95194339392 -0.24967710407 -0.3401894935 0.90660490414 -0.18936434576 -0.60572838823 0.7728093324 
-0.067223296634 -0.86402200035 0.49894590017 0.080600190619 -0.98405930753 0.15852724856 0.20230924744 -0.97210158176 -0.11869912863 
0.29649842184 -0.9000440067 -0.31938921687 0.3712963955 -0.80645564148 -0.46018288214 0.43779526955 -0.6992360411 -0.5651586156 
0.49781453988 -0.58468520107 -0.64056529686 0.56284369722 -0.43774004002 -0.70113524363 0.63009905096 -0.24092195207 -0.73819496002 
0.69128990209 0.10170970153 -0.71538339922 0.66530796259 0.48696236147 -0.56589130884 0.60035576684 0.67810416148 -0.42396662535 
0.63019281802 0.60211713489 -0.49021624614 0.66738151967 0.36475108006 -0.64927540906 0.63967594273 0.10745982882 -0.76109596864 
0.55905652222 -0.12438282322 -0.81974674031 0.4313147413 -0.33298916573 -0.83850212251 0.21637914979 -0.54678671348 -0.8088290014 
-0.079210543682 -0.70419524081 -0.7055740589 -0.35628831666 -0.74113097323 -0.56901978518 -0.54273705542 -0.69379080294 -0.47338230895 
-0.64968331309 -0.62266882565 -0.43611366209 -0.70919790019 -0.55242326542 -0.43802611131 -0.70919790019 -0.55242326542 -0.43802611131 

plain_curvature_peaks 1 120 unsigned_char
0 0 0 0 0 0 0 0 0 
0 0 0 1 0 0 0 0 0 
0 0 0 0 0 0 0 0 0 
0 0 0 0 0 0 0 0 0 
0 1 0 0 0 0 0 0 0 
0 0 0 0 0 0 0 0 0 
0 0 0 0 0 0 0 0 0 
0 0 0 0 0 0 0 0 0 
0 0 0 0 0 0 0 0 0 
0 0 0 1 0 0 0 0 0 
0 0 0 0 0 0 0 0 0 
0 0 0 0 0 0 0 0 0 
0 0 0 0 0 0 1 0 0 
0 0 0 
weighted_curvature_peaks 1 120 unsigned_char
0 0 0 0 0 0 0 0 0 
0 0 0 0 1 0 0 0 0 
0 0 0 0 0 0 0 0 0 
0 0 0 0 0 0 0 0 0 
0 0 0 0 0 0 1 0 0 
0 0 0 0 0 0 0 0 0 
0 0 0 0 0 0 0 0 0 
0 0 0 0 0 0 0 0 0 
0 0 0 0 0 0 0 0 0 
0 0 0 0 0 0 0 0 0 
1 0 0 0 0 0 0 0 0 
0 0 0 0 0 0 0 0 0 
0 0 0 0 0 0 0 0 0 
1 0 0 
plain_torsion_tp 1 120 unsigned_char
0 0 0 0 0 0 0 0 0 
0 0 0 1 0 0 0 0 0 
0 0 0 0 0 0 0 0 0 
0 0 0 0 0 0 0 0 0 
0 1 0 0 0 0 0 0 0 
0 0 0 0 0 0 0 0 0 
0 0 0 0 0 0 0 0 0 
0 0 0 0 0 0 0 0 0 
0 0 0 0 0 0 0 0 0 
0 0 0 1 0 0 0 0 0 
0 0 0 0 0 0 0 0 0 
0 0 0 0 0 0 0 0 0 
0 0 0 0 0 0 1 0 0 
0 0 0 
plain_torsion_tn 1 120 unsigned_char
0 2 0 0 0 0 0 0 0 
0 0 0 0 0 0 0 0 0 
0 0 0 2 0 0 0 0 0 
0 0 0 0 0 0 0 0 0 
0 0 0 0 0 0 0 0 0 
0 0 0 0 0 0 0 0 0 
0 0 0 0 0 0 2 0 0 
0 0 0 0 0 0 0 0 0 
0 0 0 0 0 0 0 0 0 
0 0 0 0 0 0 0 0 0 
0 0 0 0 0 0 0 0 0 
0 0 0 0 2 0 0 0 0 
0 0 0 0 0 0 0 0 0 
0 0 0 
plain_torsion_tz 1 120 unsigned_char
0 3 0 0 0 0 0 0 0 
0 0 0 0 0 0 0 0 3 
0 0 0 0 0 0 0 0 0 
3 0 0 0 0 0 0 0 0 
0 0 0 0 0 0 0 0 0 
0 0 0 0 0 0 0 0 0 
0 0 0 0 0 0 0 0 0 
0 0 0 0 3 0 0 0 0 
0 0 0 0 0 0 0 0 0 
0 0 0 0 0 0 0 0 0 
0 0 0 0 0 0 3 0 0 
0 0 0 0 0 0 0 0 0 
3 0 0 0 0 0 0 0 0 
0 0 0 
weighted_torsion_tp 1 120 unsigned_char
0 0 0 0 0 0 0 0 0 
0 0 0 0 1 0 0 0 0 
0 0 0 0 0 0 0 0 0 
0 0 0 0 0 0 0 0 0 
0 0 0 0 0 0 1 0 0 
0 0 0 0 0 0 0 0 0 
0 0 0 0 0 0 0 0 0 
0 0 0 0 0 0 0 0 0 
0 0 0 0 0 0 0 0 0 
0 0 0 0 0 0 0 0 0 
1 0 0 0 0 0 0 0 0 
0 0 0 0 0 0 0 0 0 
0 0 0 0 0 0 0 0 0 
1 0 0 
weighted_torsion_tn 1 120 unsigned_char
0 0 0 0 2 0 0 0 0 
0 0 0 0 0 0 0 0 0 
0 0 0 0 0 0 2 0 0 
0 0 0 0 0 0 0 0 0 
0 0 0 0 0 0 0 0 0 
0 0 0 0 0 0 0 0 0 
0 0 0 0 0 0 0 0 0 
0 0 2 0 0 0 0 0 0 
0 0 0 0 0 0 0 0 0 
0 0 0 0 0 0 0 0 0 
0 0 0 0 0 0 0 0 0 
0 0 0 0 0 0 0 0 2 
0 0 0 0 0 0 0 0 0 
0 0 0 
weighted_torsion_tz 1 120 unsigned_char
0 0 0 0 3 0 0 0 0 
0 0 0 0 0 0 0 0 0 
0 0 3 0 0 0 0 0 0 
0 0 0 3 0 0 0 0 0 
0 0 0 0 0 0 0 0 0 
0 0 0 0 0 0 0 0 0 
0 0 0 0 0 0 0 0 0 
0 0 0 0 0 0 0 0 3 
0 0 0 0 0 0 0 0 0 
0 0 0 0 0 0 0 0 0 
0 0 0 0 0 0 0 0 0 
0 3 0 0 0 0 0 0 0 
0 0 0 0 3 0 0 0 0 
0 0 0 
plain_torsion_tp_raw 1 120 unsigned_char
0 0 0 0 0 0 0 0 0 
0 0 0 0 0 1 0 0 0 
0 0 0 0 0 0 1 0 0 
0 0 0 0 0 0 0 0 0 
0 0 0 0 0 0 0 0 0 
0 0 0 0 0 0 0 0 0 
0 0 0 0 0 0 0 0 0 
0 1 0 0 0 0 0 0 0 
0 0 0 0 0 0 0 0 0 
0 0 0 0 0 0 0 1 0 
0 0 0 0 0 0 0 0 0 
0 0 0 0 0 0 0 0 0 
0 0 0 1 0 0 0 1 0 
0 0 0 
plain_torsion_tn_raw 1 120 unsigned_char
0 0 0 0 0 0 0 0 0 
0 2 0 0 0 0 0 0 0 
2 0 0 0 0 0 0 0 0 
0 0 0 0 0 0 0 0 0 
0 0 0 0 0 0 0 0 0 
0 0 0 0 0 0 0 0 2 
0 0 0 0 0 0 0 0 0 
0 0 0 0 0 0 0 0 2 
0 0 0 0 0 0 0 0 0 
0 0 0 0 0 0 0 0 0 
0 0 0 0 0 0 0 0 0 
0 0 0 0 0 2 0 0 0 
0 0 0 0 0 2 0 0 0 
0 0 0 
plain_torsion_tz_raw 1 120 unsigned_char
0 3 0 0 0 0 0 0 0 
0 0 0 3 0 3 0 0 0 
0 0 3 0 0 0 0 0 0 
0 0 0 0 0 0 0 0 0 
0 0 0 0 0 0 0 0 0 
0 0 0 0 0 0 0 0 0 
0 0 0 0 0 0 0 0 0 
0 0 0 0 0 0 0 0 0 
0 0 0 0 0 0 0 0 0 
0 0 0 0 0 0 0 0 0 
0 0 0 0 0 0 0 0 0 
0 0 0 0 0 0 0 0 0 
0 0 0 0 0 0 0 0 0 
0 0 0 
weighted_torsion_tp_raw 1 120 unsigned_char
0 0 0 0 0 0 0 0 0 
0 0 0 0 0 0 0 0 1 
0 0 0 0 0 0 0 0 1 
0 0 0 0 0 0 0 0 0 
0 0 0 0 0 0 0 0 0 
0 0 0 0 0 0 0 0 0 
0 0 0 0 0 0 0 0 0 
0 0 0 0 0 0 1 0 0 
0 0 0 0 0 0 0 0 0 
0 0 0 0 0 0 0 0 0 
0 0 0 0 0 1 0 0 0 
0 0 0 0 0 0 0 0 0 
0 0 0 0 0 0 1 0 0 
1 0 0 
weighted_torsion_tn_raw 1 120 unsigned_char
0 0 0 0 0 0 0 0 0 
0 2 0 0 0 0 0 0 0 
0 0 0 2 0 0 0 0 0 
0 0 0 0 0 0 0 0 0 
0 0 0 0 0 0 0 0 0 
0 0 0 0 0 0 0 0 0 
0 0 0 0 2 0 0 0 0 
0 0 0 0 0 0 0 0 0 
0 0 0 0 2 0 0 0 0 
0 0 0 0 0 0 0 0 0 
0 0 0 0 0 0 0 0 0 
0 0 0 0 0 0 0 0 0 
2 0 0 0 0 0 0 0 2 
0 0 0 
weighted_torsion_tz_raw 1 120 unsigned_char
0 0 0 0 3 0 0 0 0 
0 0 0 0 3 0 0 0 3 
0 0 0 0 0 3 0 0 0 
0 0 0 0 0 0 0 0 0 
0 0 0 0 0 0 0 0 0 
0 0 0 0 0 0 0 0 0 
0 0 0 0 0 0 0 0 0 
0 0 0 0 0 0 0 0 0 
0 0 0 0 0 0 0 0 0 
0 0 0 0 0 0 0 0 0 
0 0 0 0 0 0 0 0 0 
0 0 0 0 0 0 0 0 0 
0 0 0 0 0 0 0 0 0 
0 0 0 
