# vtk DataFile Version 5.1
vtk output
ASCII
DATASET POLYDATA
POINTS 120 float
0.222052 15.9177 -0.948887 0.0969896 15.4419 -0.452835 -0.162809 14.9919 -0.119347 
-0.528398 14.5732 0.0684384 -0.970661 14.1914 0.127443 -1.46023 13.8511 0.0746264 
-1.96783 13.5566 -0.0732264 -2.46524 13.3097 -0.299828 -2.92698 13.1099 -0.589607 
-3.33224 12.9526 -0.927653 -3.66691 12.8285 -1.29959 -3.92486 12.7244 -1.69175 
-4.10838 12.6249 -2.09207 -4.22733 12.516 -2.49146 -4.29671 12.388 -2.88514 
-4.33307 12.2374 -3.27319 -4.35038 12.0667 -3.65989 -4.35725 11.8814 -4.052 
-4.35585 11.6871 -4.45653 -4.34308 11.4866 -4.87872 -4.31279 11.2788 -5.32058 
-4.2579 11.0594 -5.78026 -4.1717 10.823 -6.25232 -4.04877 10.5653 -6.72854 
-3.88598 10.284 -7.19935 -3.68393 9.97852 -7.65533 -3.44816 9.64941 -8.08886 
-3.18983 9.29726 -8.49554 -2.92498 8.92234 -8.87502 -2.67257 8.52509 -9.23081 
-2.45122 8.10708 -9.56895 -2.27575 7.67214 -9.89557 -2.15484 7.22683 -10.2139 
-2.09049 6.7801 -10.5218 -2.07979 6.34211 -10.8096 -2.11814 5.92288 -11.0606 
-2.20239 5.53129 -11.2533 -2.33243 5.17418 -11.3648 -2.51071 4.85766 -11.3767 
-2.73989 4.58685 -11.2785 -3.02004 4.36556 -11.0697 -3.34648 4.19685 -10.7597 
-3.70917 4.08117 -10.3647 -4.09361 4.01642 -9.90433 -4.48295 3.99709 -9.39813 
-4.8605 4.01515 -8.86328 -5.212 4.06062 -8.31343 -5.52683 4.12183 -7.75873 
-5.79785 4.18671 -7.20616 -6.02004 4.2439 -6.66004 -6.18887 4.28325 -6.12262 
-6.29912 4.29758 -5.59462 -6.34503 4.2822 -5.07586 -6.32199 4.23467 -4.56597 
-6.22909 4.15286 -4.06516 -6.07126 4.03341 -3.57473 -5.8599 3.87131 -3.09746 
-5.61174 3.65992 -2.63763 -5.34617 3.39271 -2.2008 -5.08232 3.06546 -1.79332 
-4.83635 2.67658 -1.42128 -4.61952 2.22895 -1.08941 -4.43719 1.72885 -0.799811 
-4.28859 1.18595 -0.551173 -4.16747 0.611741 -0.338606 -4.06346 0.0183924 -0.154168 
-3.96413 -0.582714 0.0121242 -3.85753 -1.18153 0.17106 -3.73478 -1.77144 0.332993 
-3.59201 -2.34804 0.506778 -3.43095 -2.90996 0.698866 -3.25798 -3.45858 0.912723 
-3.0818 -3.99659 1.14836 -2.91038 -4.5271 1.40222 -2.74807 -5.05398 1.66739 
-2.59366 -5.57978 1.93432 -2.44014 -6.10613 2.19223 -2.27609 -6.63284 2.43104 
-2.08833 -7.15799 2.64351 -1.86489 -7.67773 2.82707 -1.59725 -8.18597 2.98456 
-1.28134 -8.67541 3.12396 -0.917438 -9.1379 3.2567 -0.509176 -9.56498 3.39546 
-0.062391 -9.94994 3.55178 0.415943 -10.2882 3.73407 0.91847 -10.5781 3.9467 
1.43797 -10.8211 4.18994 1.96773 -11.0212 4.46088 2.50173 -11.1832 4.7548 
3.03503 -11.3115 5.06639 3.56403 -11.4104 5.39065 4.08685 -11.4818 5.7232 
4.60347 -11.5265 6.06034 5.11562 -11.5446 6.39899 5.6262 -11.5377 6.73678 
6.13817 -11.509 7.07239 6.65354 -11.4655 7.406 7.17234 -11.4172 7.73932 
7.69218 -11.375 8.07523 8.20837 -11.3485 8.41707 8.71453 -11.3431 8.76765 
9.20361 -11.3585 9.12857 9.66902 -11.3879 9.49982 10.106 -11.4201 9.87958 
10.5126 -11.4431 10.2646 10.8905 -11.4484 10.6503 11.2457 -11.4358 11.0309 
11.5871 -11.4146 11.3997 11.9247 -11.4036 11.7503 12.2671 -11.4269 12.0769 
12.6184 -11.5094 12.3757 12.9769 -11.672 12.6451 13.3347 -11.928 12.8862 
13.6783 -12.2834 13.1023 13.9911 -12.7372 13.2983 14.2548 -13.2831 13.4804 
14.4503 -13.9118 13.6548 14.5591 -14.6125 13.8284 14.5619 -15.374 14.0081 

LINES 2 120
OFFSETS vtktypeint64
0 120 
CONNECTIVITY vtktypeint64
0 1 2 3 4 5 6 7 8 
9 10 11 12 13 14 15 16 17 
18 19 20 21 22 23 24 25 26 
27 28 29 30 31 32 33 34 35 
36 37 38 39 40 41 42 43 44 
45 46 47 48 49 50 51 52 53 
54 55 56 57 58 59 60 61 62 
63 64 65 66 67 68 69 70 71 
72 73 74 75 76 77 78 79 80 
81 82 83 84 85 86 87 88 89 
90 91 92 93 94 95 96 97 98 
99 100 101 102 103 104 105 106 107 
108 109 110 111 112 113 114 115 116 
117 118 119 
CELL_DATA 1
FIELD FieldData 2
Length 1 1 double
67.754109757 
Tortuosity 1 1 double
0.80532473996 
POINT_DATA 120
FIELD FieldData 19
Curvature 1 120 double
0 0.46530707046 0.5085713958 0.4557547588 0.3680898658 0.29697611815 0.25627191867 0.2434284167 0.2519726189 
0.27412169012 0.30043271269 0.31971437024 0.31970539056 0.29023010724 0.23042314426 0.15444984897 0.083790091632 0.04529565407 
0.053690763708 0.072817101508 0.091384943804 0.11012458848 0.1264563985 0.13716396226 0.13982355237 0.1332374403 0.11826276174 
0.1014895795 0.098001844838 0.11796326304 0.14847342906 0.17230667756 0.18247858086 0.18740228149 0.21183816952 0.29826845296 
0.4972775643 0.80397910592 0.99965585481 0.82944709358 0.52432479648 0.31275026693 0.19973525038 0.14031535802 0.10969219418 
0.09501701024 0.09044845161 0.096404073729 0.1152616676 0.14901127571 0.19508884514 0.24652089806 0.28657183898 0.29773284106 
0.27498414897 0.23407469227 0.20056990513 0.18949976339 0.19694339148 0.21165331316 0.21752990131 0.20854657499 0.1816497339 
0.14189177182 0.095792482173 0.050840815193 0.025695354035 0.046061412756 0.068224134429 0.07759503429 0.074475461272 0.064960842187 
0.053938275241 0.039879988509 0.021088449113 0.022532158103 0.05845586173 0.098197396343 0.13037152168 0.14872329011 0.15381738762 
0.15329772918 0.15591878902 0.16142484178 0.16600849819 0.16356000978 0.1515331071 0.13320500606 0.11263677382 0.09570035644 
0.081285627463 0.074185239806 0.07070343561 0.070219016488 0.06663841441 0.058444346237 0.039926067591 0.013198497006 0.016593271887 
0.044738785548 0.064774386896 0.07400561576 0.074149355852 0.072442389891 0.079027928648 0.08858815836 0.078998420918 0.035537239194 
0.055861608504 0.17388083155 0.29794412221 0.38414573662 0.3982173986 0.3588932748 0.30184849509 0.25442071912 0.22387173146 
0.20544324622 0.19441828187 0 
Torsion 1 120 double
0 0 0.020472635067 0.033590933233 0.058159681027 0.097304635378 0.14872049122 0.20630756508 0.26812646384 
0.33865864517 0.41822242799 0.49012176349 0.53105170479 0.52868023833 0.47603566142 0.31802224398 -0.24417321462 -1.6002545377 
-0.33765785678 0.35447266005 0.42655090636 0.30934749963 0.19335301292 0.13720683173 0.14808061964 0.23078181962 0.41462468735 
0.72826987285 0.91163467183 0.65597811166 0.37080738992 0.17952180706 0.001260591048 -0.23609212241 -0.46001885009 -0.43418769332 
-0.21899754725 -0.066325304873 0.00049680657928 0.038196765407 0.058068591345 0.027666252711 -0.050631476374 -0.1639823873 -0.27829448655 
-0.38324018532 -0.4661298483 -0.47292558177 -0.3865048647 -0.22758231736 -0.094950309028 -0.024936421112 -0.022169252387 -0.08139271374 
-0.19441705752 -0.36172871262 -0.51246057158 -0.49924016921 -0.35629950581 -0.20970232407 -0.1109316522 -0.045319369091 0.0076655456798 
0.074070436758 0.21532920503 0.76100620515 2.6057163982 0.73518785137 0.36691398794 0.34802911657 0.43240716339 0.53842887638 
0.60223348097 0.70625679475 1.7628855374 1.9688938359 0.50733182085 0.30643415977 0.2781080538 0.30812037304 0.36760274339 
0.41708955323 0.39540145331 0.31345173438 0.21935034311 0.14631242897 0.096462934077 0.063812264305 0.036254404166 0.0066689710209 
-0.040533710885 -0.1164111459 -0.18065571931 -0.20645516985 -0.2028442149 -0.18077713615 -0.19286803251 -0.66061737674 -0.45721887989 
-0.20083304855 -0.23630154732 -0.34834857806 -0.55659187107 -0.78259480241 -0.71287906416 -0.49471886844 -0.43900176474 -1.6547802395 
-1.1369635323 -0.29297495078 -0.21091649692 -0.19791140646 -0.2178651271 -0.24654173053 -0.26449576708 -0.25681249968 -0.22044667581 
-0.17518036899 0 0 
FrenetTangent 3 120 double
-0.29575962289 -0.71143204917 0.63748779195 -0.29575962289 -0.71143204917 0.63748779195 -0.5252862146 -0.72963950009 0.43783626239 
-0.69414890132 -0.68788800665 0.21205516522 -0.79043425908 -0.61252439113 0.0052490320314 -0.83166969368 -0.52944729879 -0.16736510515 
-0.83650404951 -0.45069055441 -0.31167130012 -0.81467610803 -0.37938735013 -0.43859785403 -0.76831668262 -0.31645618384 -0.55636764726 
-0.69584211208 -0.26459708584 -0.66767667116 -0.59648245983 -0.22963583024 -0.76907480819 -0.47484372336 -0.21896402135 -0.85239556295 
-0.34369612594 -0.2368277799 -0.90872744851 -0.22186381527 -0.27917393439 -0.93425818799 -0.1263980727 -0.33300862989 -0.93441360202 
-0.063852882644 -0.38226171047 -0.92184532004 -0.02822294746 -0.41555707411 -0.90912913461 -0.0062016089821 -0.4301205152 -0.90275017721 
0.015465689442 -0.43088895008 -0.90227242291 0.045013202683 -0.42686181399 -0.90319588315 0.08506627217 -0.42671002621 -0.90037896625 
0.13478268044 -0.43539265847 -0.89009373776 0.19195484062 -0.45342600333 -0.8703781929 0.253630462 -0.47847169066 -0.84067617427 
0.31559208856 -0.50761953581 -0.80170071754 0.37193975522 -0.53910260688 -0.75566473899 0.41548885344 -0.57287218566 -0.70653129553 
0.43898315096 -0.6100570847 -0.65963940648 0.43647502228 -0.65157105469 -0.62043913128 0.40466549726 -0.69636433726 -0.59272467903 
0.34449363947 -0.74046619725 -0.57709093139 0.26210139693 -0.77843261822 -0.57039067017 0.16757385696 -0.80689196241 -0.5664312522 
0.070188419236 -0.82748893448 -0.55707777654 -0.02730416905 -0.84632143243 -0.53197228815 -0.13148793742 -0.86961986678 -0.475890964 
-0.25630207711 -0.89550425924 -0.36384250296 -0.41051497438 -0.89691537463 -0.16437842488 -0.56590964484 -0.81571692125 0.11980057707 
-0.65984900494 -0.63752433296 0.39769588328 -0.68279321401 -0.43900276995 0.58401198179 -0.67160079188 -0.27715839399 0.68712124184 
-0.64969604152 -0.15689438086 0.74382740397 -0.6235225499 -0.067750952162 0.77886419756 -0.59309773136 -0.00098684778485 0.80512986977 
-0.55716864845 0.048552380831 0.82897874731 -0.51479260607 0.08241753727 0.85334396481 -0.46531794036 0.10014736608 0.87945990213 
-0.4074470004 0.10085016407 0.90764320428 -0.33825912544 0.083512598111 0.9373400717 -0.25309086995 0.048681533387 0.96621691139 
-0.14754952491 -0.00099030760139 0.98905417293 -0.022186018381 -0.061030747408 0.99788928667 0.11305206969 -0.12612477742 0.98555150553 
0.24060822848 -0.1931374516 0.95121270238 0.34397043527 -0.26231608584 0.90159559159 0.41453226842 -0.33692414826 0.84536685336 
0.45109758443 -0.42024494365 0.78734055952 0.45623770718 -0.51229029316 0.72760278318 0.4339206508 -0.60952307017 0.66347154855 
0.38982853823 -0.70461351941 0.59291947096 0.3322038485 -0.78874756833 0.51722130321 0.27137688135 -0.85530204509 0.44137625664 
0.21781474286 -0.90212990015 0.37244916573 0.179588622 -0.93137134749 0.31669439515 0.16120032053 -0.94694305822 0.27805269492 
0.16341907544 -0.95220043984 0.25808628045 0.18312366316 -0.94912109931 0.2561930187 0.21368176956 -0.93879785807 0.27018268457 
0.24624416427 -0.92273215837 0.29652854076 0.27186405845 -0.90384321542 0.33038973299 0.28463543088 -0.88583656427 0.36643724277 
0.28360468136 -0.87181493219 0.39938341067 0.27259238699 -0.86369235091 0.42394446987 0.25933374265 -0.86193075499 0.43568495902 
0.25335134262 -0.86564933886 0.43181514484 0.26314006154 -0.8725590208 0.41157995971 0.29379936168 -0.87843393836 0.3768763073 
0.34534116677 -0.87756182249 0.33260295586 0.41295102924 -0.86442237801 0.28678458787 0.48901339392 -0.83604275092 0.24879392919 
0.56604342157 -0.79262157128 0.22659631426 0.63876566145 -0.73588944104 0.22460000071 0.70341600854 -0.66804089081 0.24274943284 
0.75699331374 -0.59177014895 0.27707257853 0.79753170012 -0.51071594263 0.32111121633 0.8245340943 -0.42997968049 0.36777846825 
0.83962854955 -0.3545882174 0.41144999072 0.84582310428 -0.28785496427 0.4491356096 0.84640850959 -0.23022817879 0.48019539834 
0.84394419346 -0.1805206829 0.50514402043 0.84032359403 -0.13605056827 0.52473469506 0.83694955459 -0.093480515409 0.53923727274 
0.83471395351 -0.050991253601 0.54831788944 0.83403714408 -0.0091250324611 0.55163282723 0.83481353734 0.02910895416 0.54976270033 
0.83645228469 0.058784321825 0.54487794867 0.83807281219 0.074345309057 0.54046899679 0.83836806079 0.073056364054 0.54018678466 
0.83555371502 0.055455793035 0.54660282137 0.82769917649 0.025771041555 0.56057999131 0.81346939821 -0.0082010758488 0.58154989513 
0.79289630589 -0.037184455569 0.60822098318 0.76755730421 -0.052436532974 0.63883189867 0.73998556036 -0.048391294074 0.67087976055 
0.71308891017 -0.025693805073 0.70060262244 0.69124604481 0.0068997095187 0.7225865343 0.6804996649 0.03302353606 0.73200386074 
0.68606231197 0.032464914469 0.72681808826 0.70847529874 -0.012856075702 0.70561850344 0.73802043927 -0.11257739417 0.66532109657 
0.75382873045 -0.26021715382 0.60334838859 0.73532152356 -0.42965708051 0.52411549315 0.67650890908 -0.58975683255 0.44104713398 
0.58578789211 -0.72220880903 0.36778659793 0.4747134752 -0.82324805875 0.31130330905 0.35043599859 -0.89622546717 0.27198257829 
0.21622023392 -0.94450831935 0.24729101303 0.073924352708 -0.96936569749 0.23423350445 0.073924352708 -0.96936569749 0.23423350445 

FrenetNormal 3 120 double
-0.81037110768 -0.16648651177 -0.56176588471 -0.81037110768 -0.16648651177 -0.56176588471 -0.67808118097 0.048067079005 -0.73341357223 
-0.49406501698 0.24105143935 -0.83534062668 -0.30028471741 0.38000613545 -0.8748853785 -0.11626496663 0.46077059336 -0.87987096658 
0.060506967766 0.48933385521 -0.86999499136 0.23738450477 0.471877548 -0.84910551558 0.41720965378 0.41160007114 -0.81026013491 
0.59466463381 0.30902006041 -0.74221329519 0.75585730674 0.16159527916 -0.63448143991 0.87615178239 -0.02632129964 -0.48131615742 
0.92819427839 -0.23259150073 -0.2904420344 0.90136144478 -0.4241772583 -0.087299481069 0.81318688609 -0.57425399324 0.094654315989 
0.71077342742 -0.66583188244 0.2268678893 0.69868038462 -0.65863446698 0.27936778456 0.94832488499 -0.28892951174 0.13114743515 
0.9841594579 0.16594815675 -0.06238085202 0.99324167961 0.11594362028 -0.0052955456575 0.98874115795 -0.075496825874 0.12919424082 
0.93745524935 -0.23493372985 0.25687311662 0.87507572637 -0.32241828475 0.36095556897 0.81753057557 -0.35850140871 0.45068891484 
0.75442818156 -0.37821604708 0.53646131323 0.66362616782 -0.41477490786 0.62254484593 0.50378300523 -0.50180344043 0.70313298231 
0.19542961535 -0.65175314157 0.73281996963 -0.29086788366 -0.75475262195 0.58800030095 -0.68255710441 -0.66135745644 0.31100179106 
-0.86214202954 -0.49281235181 0.11767373027 -0.93870667458 -0.34278322129 0.03646151805 -0.97159228699 -0.23256263947 0.043852554974 
-0.97320584151 -0.1793860404 0.1438437992 -0.92084667238 -0.18577953053 0.34282265387 -0.802796486 -0.18822483074 0.56576427525 
-0.67269883034 -0.10504907618 0.73242130994 -0.54589152518 0.097337822155 0.83218254675 -0.37233223441 0.38249963705 0.84561382136 
-0.16714344931 0.6405485173 0.74950694749 -0.00091889043492 0.79986199122 0.60018326422 0.11516212229 0.87707722676 0.46634024476 
0.20978942537 0.90346890234 0.37380789118 0.32124695981 0.88604598024 0.33424977443 0.46492531776 0.81600325894 0.34348672507 
0.63007492249 0.67497252964 0.38395009608 0.78531516125 0.44461385784 0.43081157705 0.88053469885 0.15363443608 0.4483916861 
0.90084347484 -0.1187463567 0.41758871704 0.88433699728 -0.31235551611 0.34696124683 0.88092418282 -0.40123456547 0.25096495292 
0.8925585341 -0.43095705553 0.13272256587 0.90328932384 -0.42898779146 -0.0061540414164 0.88769716664 -0.43275756133 -0.15720888475 
0.82802557563 -0.47049111541 -0.30497828844 0.7036020604 -0.56383211173 -0.43247831204 0.48227882539 -0.70642935243 -0.51803928866 
0.18644958838 -0.81835751611 -0.54362443545 -0.085316117794 -0.83907738184 -0.53728047362 -0.28214292087 -0.79130294243 -0.54243435133 
-0.41180336859 -0.70927662403 -0.57214041652 -0.49393473092 -0.61263935598 -0.61701013047 -0.53720300216 -0.51510985292 -0.66788829447 
-0.54054410313 -0.42924378599 -0.72357573534 -0.48257149411 -0.36393987596 -0.79666336665 -0.24396462567 -0.31122778005 -0.91848708774 
0.76027711693 -0.045161834543 -0.6480270937 0.9412600964 0.24448191027 0.23293352372 0.80106476196 0.32668249189 0.50157132757 
0.64961836817 0.38418644258 0.65604630406 0.4391236777 0.42200797983 0.79314542213 0.13713197594 0.41594221782 0.89899215381 
-0.22676171214 0.34370061305 0.91128975331 -0.59398733036 0.19556210029 0.78034256343 -0.93185806093 -0.10479080172 0.34736068021 
0.0040842087761 -0.44541740602 -0.89531371801 0.55373461732 -0.21274825386 -0.80505661544 0.70946927603 -0.06382422167 -0.70184030598 
0.78757705276 0.078270862818 -0.61122504693 0.8341684331 0.23259520108 -0.50006249375 0.85112424693 0.39490355365 -0.34588827619 
0.82423797412 0.54916868601 -0.13800549383 0.73805001032 0.66853007963 0.091376774374 0.60803811388 0.74242792768 0.281230198 
0.46710896685 0.78659919746 0.40382040023 0.33522267573 0.81770701176 0.4679540582 0.21888131488 0.84178829697 0.49344040479 
0.12072356549 0.86039047521 0.4951303373 0.038959251333 0.8730071022 0.48614892393 -0.02147963085 0.88622429175 0.46275817676 
-0.066876958879 0.8989219384 0.43297438844 -0.080209194817 0.9261323709 0.36857199655 -0.067610210519 0.96009552483 0.27137693828 
-0.034153802731 0.98899320405 0.14396513501 0.0043045025911 0.99994040619 0.010032712603 0.040724637983 0.99260007198 -0.11439668251 
0.079839176954 0.97055323511 -0.22727103564 0.17137316204 0.90464996732 -0.39017903064 -0.078684384576 -0.96438092534 0.25254345858 
-0.17892561684 -0.91318847646 0.36615902296 -0.27370440715 -0.85353020235 0.44336451276 -0.39035126376 -0.74893823276 0.53546000261 
-0.52817230071 -0.53971612829 0.65554597217 -0.63866602144 -0.14718075233 0.75527712742 -0.62311378465 0.32626044651 0.71083284422 
-0.52863444684 0.63668622226 0.56140562519 -0.42096645161 0.81659833521 0.39491062983 -0.18354486926 0.97481812112 0.12665272087 
0.53150534781 -0.70454551184 -0.47023152489 0.3506331605 -0.86128969401 -0.367745088 0.19551229094 -0.90801472254 -0.37051883587 
0.0086045693084 -0.91425115226 -0.40505652936 -0.20084623372 -0.87676614879 -0.43696900433 -0.41437005138 -0.79993175705 -0.43405834237 
-0.60795736293 -0.691658572 -0.38986698325 -0.76854595505 -0.56010228402 -0.30922895468 -0.8853472288 -0.41172432218 -0.21597075495 
-0.95911769042 -0.25284859226 -0.12712531346 -0.99437726619 -0.089506098015 -0.056590731598 -0.99437726619 -0.089506098015 -0.056590731598 

FrenetBinormal 3 120 double
0.50579137329 -0.68274935431 -0.52728398979 0.50579137329 -0.68274935431 -0.52728398979 0.51408200198 -0.68214056896 -0.52000378788 
0.52350459576 -0.68461981705 -0.50718699148 0.5338939694 -0.69311558003 -0.48430158182 0.54296222535 -0.71230331889 -0.44476511076 
0.54460984383 -0.74661261864 -0.3820598326 0.52910437145 -0.79586231111 -0.29436668605 0.4854127934 -0.8546583324 -0.18421062633 
0.40271296024 -0.9135069701 -0.057682642352 0.26997853055 -0.9597678632 0.077183170567 0.082954762345 -0.97537784809 0.20434422151 
-0.14257753881 -0.94329942036 0.299762988 -0.37191933713 -0.86147290607 0.34574620573 -0.56811144638 -0.74788876423 0.34338284877 
-0.70051691218 -0.64073698897 0.31421675117 -0.71487704214 -0.62730611113 0.30893018233 -0.3172403703 -0.85528713286 0.40968581597 
0.1766096653 -0.88701517572 0.42662993819 0.10698026674 -0.89685342653 0.42919593877 -0.12310423192 -0.90123181414 0.41548353189 
-0.32095371086 -0.86904509407 0.37649613538 -0.44429248506 -0.83093399808 0.33489233875 -0.51702547979 -0.80158691431 0.30023835875 
-0.57553431913 -0.77412856077 0.2636004911 -0.64904632183 -0.7330280725 0.20349131936 -0.75734516325 -0.64808237599 0.080109535187 
-0.87698406976 -0.45060869483 -0.16688542633 -0.85140203734 -0.076181627395 -0.51895176121 -0.6085734422 0.2787167462 -0.74293696962 
-0.37153095868 0.4569964952 -0.80815775076 -0.22390318628 0.52587291439 -0.82056385558 -0.16711502123 0.54299169397 -0.82294142559 
-0.21896112866 0.53205517742 -0.81790788743 -0.38896772144 0.49922539903 -0.77425971911 -0.58157434982 0.45643477124 -0.67337847845 
-0.69410772142 0.43247752922 -0.57548037133 -0.73039708279 0.43135618592 -0.52957713538 -0.73560518017 0.43393540077 -0.52017793769 
-0.73257242511 0.42808915179 -0.52922331778 -0.73061110212 0.40926441695 -0.5465437352 -0.73190850654 0.39232481814 -0.55712761117 
-0.73067328584 0.39890863084 -0.55406538748 -0.71275523188 0.45862002723 -0.53070486152 -0.65732756672 0.57804645793 -0.48351087114 
-0.54089619081 0.73624367606 -0.40666516967 -0.34390212306 0.89192256781 -0.29360766815 -0.090210079784 0.98303965592 -0.1596720902 
0.14989321432 0.98778972822 -0.042467365389 0.32175897703 0.94628731235 0.031803823455 0.39989698133 0.91468078135 0.058664065211 
0.42610843796 0.90237189428 0.064471416303 0.42845790696 0.90124620535 0.064645953586 0.4463328017 0.89264406884 0.063036469578 
0.50643985476 0.86100873115 0.046718715746 0.62179456436 0.78312426912 -0.0093754384187 0.77173190489 0.62244653452 -0.13034637947 
0.87278148486 0.39202699291 -0.29080460195 0.88575860966 0.18305136664 -0.42652535983 0.85563323977 0.048179666122 -0.51533530712 
0.82368179317 -0.021129573212 -0.56665849039 0.80353536614 -0.050500425317 -0.59311096973 0.7986034828 -0.055859207708 -0.59925973182 
0.81263079585 -0.043719737518 -0.58113662265 0.85724715218 -0.0097560112347 -0.51481272354 0.95629269478 0.080225391314 -0.28119062663 
0.62870733354 0.30211708174 0.71655589989 -0.28371668071 0.19848862534 0.93814024042 -0.55913804065 0.10925717907 0.82184397565 
-0.71927726733 0.031082812896 0.69402742845 -0.8563062124 -0.070545778775 0.51162775892 -0.94877684029 -0.2056347559 0.23986841081 
-0.93174433758 -0.34901090612 -0.10021914385 -0.75688337406 -0.46453308591 -0.45971357404 -0.2537450772 -0.49607888634 -0.83037291281 
0.96736570976 0.22859255573 -0.10931160522 0.79002232981 0.43974871882 0.42718354686 0.64057418106 0.47358239479 0.6044703747 
0.5103546458 0.47303162658 0.71817770486 0.36556049112 0.44572797178 0.81712428828 0.19092777917 0.38089854548 0.90468938382 
-0.015053468793 0.26488638893 0.9641621202 -0.21739505978 0.10739768712 0.97015726807 -0.36809723036 -0.050220916068 0.92843001276 
-0.4569139263 -0.17626625702 0.87187147596 -0.50156649109 -0.26556443447 0.82335082812 -0.52176095804 -0.32635860254 0.78819766887 
-0.52957503672 -0.36605385704 0.76521556063 -0.53203895816 -0.39369800488 0.74962419114 -0.53210079905 -0.40199687859 0.74516256566 
-0.53224587429 -0.39918871692 0.74656727599 -0.53611821681 -0.35180829218 0.76733837592 -0.54308774844 -0.26358675315 0.79723128455 
-0.54962362902 -0.13889684804 0.82378488213 -0.55169150215 -0.0059931500326 0.83402671936 -0.5490244637 0.11788878613 0.82745052563 
-0.54219302952 0.23360398397 0.80712817905 -0.5179432409 0.41962031843 0.74542175147 0.5393957381 -0.25422863434 -0.80275777119 
0.51945703667 -0.4037467789 -0.75309556205 0.4898979187 -0.52040565628 -0.69941259794 0.43115360262 -0.6625890626 -0.61243963382 
0.30389055411 -0.8410254557 -0.44757872379 0.054419645464 -0.98771870295 -0.14645909339 -0.25327965143 -0.9440404672 0.21127473694 
-0.46048868369 -0.7706948052 0.44043125392 -0.58733819232 -0.57716510024 0.56737491564 -0.70938810748 -0.22054268703 0.66942470537 
0.49681039577 0.70891582792 -0.5006173984 0.61246970361 0.50795155704 -0.60569470681 0.64583339594 0.40352892581 -0.64812316015 
0.65701461669 0.31053480231 -0.68694972888 0.64727354912 0.21604609118 -0.73100002674 0.60879648196 0.11088761211 -0.78553852931 
0.53594812278 0.0047807881243 -0.84423737998 0.42893383107 -0.092455747255 -0.89859206727 0.30554033344 -0.1651150948 -0.93775375772 
0.18259810069 -0.20969412027 -0.9605656196 0.075822441015 -0.2287330386 -0.97053189257 0.075822441015 -0.2287330386 -0.97053189257 

plain_curvature_peaks 1 120 unsigned_char
0 0 0 0 0 0 0 0 0 
0 0 0 0 0 0 0 0 0 
0 0 0 0 0 0 0 0 0 
0 0 1 0 0 0 0 0 0 
0 0 0 0 0 0 0 0 0 
0 0 0 0 0 0 0 0 0 
0 0 0 0 0 0 0 1 0 
0 0 0 0 0 0 0 0 0 
0 0 0 0 0 0 0 0 0 
0 1 0 0 0 0 0 0 0 
0 0 0 0 0 0 0 0 1 
0 0 0 0 0 0 0 0 0 
0 0 0 0 0 0 0 0 0 
0 0 0 
weighted_curvature_peaks 1 120 unsigned_char
0 0 0 0 0 0 0 0 0 
0 0 0 0 0 0 0 0 0 
0 0 0 0 0 0 0 0 0 
0 0 0 0 0 0 1 0 0 
0 0 0 0 0 0 0 0 0 
0 0 0 0 0 0 0 0 0 
0 0 0 0 0 0 0 0 1 
0 0 0 0 0 0 0 0 0 
0 0 0 0 0 0 0 0 0 
0 0 0 0 0 0 0 1 0 
0 0 0 0 0 0 0 0 0 
0 0 0 0 0 1 0 0 0 
0 0 0 0 0 0 0 0 0 
0 0 0 
plain_torsion_tp 1 120 unsigned_char
0 0 0 0 0 0 0 0 0 
0 0 0 0 0 0 0 0 0 
0 0 0 0 0 0 0 0 0 
0 0 1 0 0 0 0 0 0 
0 0 0 0 0 0 0 0 0 
0 0 0 0 0 0 0 0 0 
0 0 0 0 0 0 0 1 0 
0 0 0 0 0 0 0 0 0 
0 0 0 0 0 0 0 0 0 
0 1 0 0 0 0 0 0 0 
0 0 0 0 0 0 0 0 1 
0 0 0 0 0 0 0 0 0 
0 0 0 0 0 0 0 0 0 
0 0 0 
plain_torsion_tn 1 120 unsigned_char
0 0 0 0 0 0 0 0 2 
0 0 0 0 0 0 0 0 0 
0 0 0 0 0 0 0 0 0 
0 0 0 0 0 0 0 0 0 
0 0 0 0 0 0 0 0 0 
0 0 0 0 0 0 0 0 0 
0 2 0 0 0 0 0 0 0 
0 0 0 0 0 0 0 2 0 
0 0 0 0 0 0 0 0 0 
0 0 0 0 0 2 0 0 0 
0 0 0 0 0 0 0 0 0 
0 0 0 0 0 0 0 0 0 
0 0 0 0 0 0 0 0 0 
0 0 0 
plain_torsion_tz 1 120 unsigned_char
0 0 0 0 0 0 0 0 0 
0 3 0 0 0 0 0 0 0 
0 0 0 0 0 0 0 0 0 
0 0 0 0 0 0 0 0 0 
0 0 0 0 0 0 0 0 0 
0 3 0 0 0 0 0 0 0 
0 0 0 0 0 0 3 0 0 
0 0 0 0 0 0 0 0 0 
0 0 3 0 0 0 0 0 0 
0 0 0 3 0 0 0 3 0 
0 0 0 0 0 0 0 0 0 
0 0 0 0 0 0 0 0 0 
0 0 0 0 0 0 0 0 0 
0 0 0 
weighted_torsion_tp 1 120 unsigned_char
0 0 0 0 0 0 0 0 0 
0 0 0 0 0 0 0 0 0 
0 0 0 0 0 0 0 0 0 
0 0 0 0 0 0 1 0 0 
0 0 0 0 0 0 0 0 0 
0 0 0 0 0 0 0 0 0 
0 0 0 0 0 0 0 0 1 
0 0 0 0 0 0 0 0 0 
0 0 0 0 0 0 0 0 0 
0 0 0 0 0 0 0 1 0 
0 0 0 0 0 0 0 0 0 
0 0 0 0 0 1 0 0 0 
0 0 0 0 0 0 0 0 0 
0 0 0 
weighted_torsion_tn 1 120 unsigned_char
0 0 0 0 0 0 0 0 0 
0 2 0 0 0 0 0 0 0 
0 0 0 0 0 0 0 0 0 
0 0 0 0 0 0 0 0 0 
0 0 0 0 0 0 0 0 0 
0 0 0 0 0 0 0 0 0 
0 0 0 2 0 0 0 0 0 
0 0 0 0 0 0 0 0 0 
0 0 0 2 0 0 0 0 0 
0 0 0 0 0 0 0 0 0 
0 2 0 0 0 0 0 0 0 
0 0 0 0 0 0 0 0 0 
0 0 0 0 0 0 0 0 0 
0 0 0 
weighted_torsion_tz 1 120 unsigned_char
0 0 0 0 0 0 0 0 0 
0 0 0 3 0 0 0 0 0 
0 0 0 0 0 0 0 0 0 
0 0 0 0 0 0 0 0 0 
0 0 0 0 0 0 0 0 0 
0 0 0 0 0 3 0 0 0 
0 0 0 0 0 0 3 0 0 
0 0 0 0 0 0 0 0 0 
0 0 0 0 0 0 0 0 3 
0 0 0 0 0 0 0 0 0 
3 0 0 0 3 0 0 0 0 
0 0 0 0 0 0 0 0 0 
0 0 0 0 0 0 0 0 0 
0 0 0 
plain_torsion_tp_raw 1 120 unsigned_char
0 0 0 0 0 0 0 0 0 
0 0 0 0 0 0 0 0 0 
0 0 0 0 0 0 0 0 0 
0 0 0 0 0 0 0 0 0 
0 1 0 0 0 0 0 0 0 
0 0 0 0 0 0 0 0 0 
0 0 0 0 1 0 0 0 0 
0 0 0 0 0 0 0 0 0 
0 1 0 0 0 0 0 0 0 
0 0 1 0 0 0 0 0 0 
0 1 0 0 0 0 0 0 0 
0 0 1 0 0 0 0 0 0 
0 0 0 0 0 0 0 0 0 
0 0 0 
plain_torsion_tn_raw 1 120 unsigned_char
0 0 0 0 0 0 0 0 0 
0 0 0 0 0 0 0 0 0 
0 0 2 0 0 0 0 0 0 
0 0 0 0 0 0 0 0 0 
0 0 0 0 0 0 0 0 0 
0 0 0 0 2 0 0 0 0 
0 0 0 0 0 0 0 0 0 
0 0 0 2 0 0 0 0 0 
0 0 0 0 0 2 0 0 0 
0 0 0 0 0 2 0 0 0 
0 0 0 0 0 2 0 0 0 
0 0 0 0 0 0 0 0 0 
0 0 0 0 0 0 0 0 0 
0 0 0 
plain_torsion_tz_raw 1 120 unsigned_char
0 0 0 0 0 0 0 0 3 
0 0 0 0 0 0 0 0 0 
0 0 0 0 0 0 0 0 0 
0 0 0 0 0 3 0 0 0 
0 0 0 3 0 0 0 0 0 
0 0 0 0 0 0 0 0 3 
0 0 0 0 0 0 0 0 0 
0 0 0 0 0 0 0 0 0 
0 0 0 0 0 0 0 0 0 
0 0 0 0 0 0 0 0 0 
0 0 0 0 0 0 0 0 0 
0 0 0 0 0 0 0 0 0 
0 0 0 0 0 0 0 0 0 
0 0 0 
weighted_torsion_tp_raw 1 120 unsigned_char
0 0 0 0 0 0 0 0 0 
0 0 0 0 0 0 0 0 0 
0 0 0 0 0 0 0 0 0 
0 0 0 0 0 0 0 0 0 
0 0 0 0 0 0 1 0 0 
0 0 0 0 0 0 0 0 0 
0 0 0 0 0 1 0 0 0 
0 0 0 0 0 0 0 0 0 
0 0 0 0 0 0 1 0 0 
0 0 0 0 0 0 0 0 1 
0 0 0 0 0 0 1 0 0 
0 0 0 0 0 0 0 1 0 
0 0 0 0 0 0 0 0 0 
0 0 0 
weighted_torsion_tn_raw 1 120 unsigned_char
0 0 0 0 0 0 0 0 0 
0 0 0 0 0 0 0 0 0 
0 0 0 0 2 0 0 0 0 
0 0 0 0 0 0 0 0 0 
0 0 0 0 0 0 0 0 0 
0 0 0 0 0 0 0 2 0 
0 0 0 0 0 0 0 0 0 
0 0 0 0 0 0 0 2 0 
0 0 0 0 0 0 0 0 0 
0 2 0 0 0 0 0 0 0 
0 0 2 0 0 0 0 0 0 
0 2 0 0 0 0 0 0 0 
0 0 0 0 0 0 0 0 0 
0 0 0 
weighted_torsion_tz_raw 1 120 unsigned_char
0 0 0 0 0 0 0 0 0 
0 3 0 0 0 0 0 0 0 
0 0 0 0 0 0 0 0 0 
0 0 0 0 0 0 0 3 0 
0 0 0 0 0 0 0 3 0 
0 0 0 0 0 0 0 0 0 
0 0 3 0 0 0 0 0 0 
0 0 0 0 0 0 0 0 0 
0 0 0 0 0 0 0 0 0 
0 0 0 0 0 0 0 0 0 
0 0 0 0 0 0 0 0 0 
0 0 0 0 0 0 0 0 0 
0 0 0 0 0 0 0 0 0 
0 0 0 
