# vtk DataFile Version 5.1
vtk output
ASCII
DATASET POLYDATA
POINTS 120 float
-1.32872 17.7175 -3.51322 -1.55731 17.2391 -3.88612 -1.88966 16.8215 -4.21639 
-2.30585 16.4503 -4.49908 -2.78606 16.1115 -4.72958 -3.31069 15.7918 -4.90445 
-3.86074 15.4797 -5.02285 -4.41821 15.1668 -5.08845 -4.96664 14.8485 -5.11125 
-5.49155 14.5249 -5.1086 -5.98104 14.2004 -5.10458 -6.42624 13.8819 -5.12749 
-6.82173 13.5764 -5.20544 -7.16576 13.2893 -5.36126 -7.4599 13.022 -5.60828 
-7.708 12.7723 -5.9483 -7.91453 12.5346 -6.37203 -8.08244 12.3026 -6.86173 
-8.21145 12.0705 -7.39559 -8.29735 11.8343 -7.95209 -8.33289 11.5911 -8.51329 
-8.31018 11.3387 -9.06673 -8.22368 11.0739 -9.60546 -8.07279 10.7917 -10.1269 
-7.86323 10.4857 -10.6305 -7.60675 10.149 -11.1153 -7.31958 9.77647 -11.5771 
-7.01999 9.3673 -12.0068 -6.72593 8.92638 -12.3894 -6.45317 8.46479 -12.705 
-6.21445 7.99884 -12.9312 -6.01936 7.54785 -13.0469 -5.87479 7.13079 -13.0368 
-5.78557 6.7634 -12.8947 -5.75465 6.45494 -12.6264 -5.78285 6.20681 -12.2481 
-5.86805 6.01255 -11.7841 -6.00442 5.85832 -11.2622 -6.18169 5.72522 -10.7098 
-6.38521 5.59273 -10.1496 -6.59656 5.44254 -9.59769 -6.79486 5.26219 -9.06315 
-6.95917 5.04719 -8.54862 -7.07089 4.80039 -8.05228 -7.11614 4.53 -7.57018 
-7.08739 4.24543 -7.09827 -6.98438 3.95438 -6.63372 -6.81438 3.65998 -6.17546 
-6.59155 3.36067 -5.72388 -6.33531 3.05147 -5.28017 -6.06743 2.72595 -4.84541 
-5.80865 2.37888 -4.4203 -5.57544 2.00778 -4.00516 -5.37757 1.61281 -3.60044 
-5.21727 1.19702 -3.20735 -5.09007 0.764158 -2.82811 -4.98716 0.31801 -2.46582 
-4.89829 -0.139006 -2.12363 -4.81414 -0.605642 -1.80347 -4.72736 -1.08138 -1.50459 
-4.63238 -1.56486 -1.22262 -4.52461 -2.05347 -0.949719 -4.39996 -2.54312 -0.675949 
-4.25489 -3.02941 -0.391644 -4.08683 -3.50918 -0.0899768 -3.89459 -3.98118 0.231277 
-3.67829 -4.44666 0.569353 -3.43884 -4.90828 0.917463 -3.17715 -5.36915 1.26662 
-2.89346 -5.83051 1.60782 -2.5868 -6.2914 1.93378 -2.25508 -6.74751 2.24001 
-1.89546 -7.19156 2.52508 -1.50507 -7.61418 2.79023 -1.08173 -8.00509 3.0387 
-0.624463 -8.35418 3.27489 -0.133961 -8.65257 3.50366 0.387278 -8.89401 3.72973 
0.934901 -9.07504 3.95725 1.50289 -9.19551 4.18962 2.084 -9.25752 4.42929 
2.67045 -9.26497 4.67754 3.25485 -9.22194 4.9344 3.83093 -9.13258 5.19856 
4.39438 -9.00064 5.46761 4.94315 -8.83042 5.73843 5.47759 -8.62675 6.00798 
6.00008 -8.39652 6.27407 6.5143 -8.14853 6.53618 7.02467 -7.89373 6.79604 
7.53443 -7.64369 7.05759 8.04531 -7.41013 7.32666 8.55642 -7.20274 7.60986 
9.06388 -7.02929 7.91356 9.56227 -6.89529 8.24193 10.0444 -6.80558 8.59612 
10.5035 -6.76512 8.97367 10.9341 -6.77981 9.36802 11.3324 -6.8563 9.77043 
11.6954 -7.00036 10.1716 12.022 -7.2154 10.5636 12.3126 -7.50101 10.9415 
12.5701 -7.85215 11.3035 12.7996 -8.25953 11.6505 13.008 -8.71098 11.9856 
13.2028 -9.19348 12.3121 13.3886 -9.69549 12.6331 13.567 -10.2081 12.9505 
13.7347 -10.7267 13.2645 13.8857 -11.2496 13.5745 14.0123 -11.7775 13.8789 
14.1079 -12.3127 14.1759 14.1681 -12.8572 14.4639 14.1918 -13.4124 14.7421 
14.1809 -13.9788 15.0101 14.1398 -14.5559 15.2681 14.0747 -15.1425 15.5169 
13.9927 -15.737 15.7574 13.9015 -16.3378 15.9909 13.8087 -16.9428 16.2185 

LINES 2 120
OFFSETS vtktypeint64
0 120 
CONNECTIVITY vtktypeint64
0 1 2 3 4 5 6 7 8 
9 10 11 12 13 14 15 16 17 
18 19 20 21 22 23 24 25 26 
27 28 29 30 31 32 33 34 35 
36 37 38 39 40 41 42 43 44 
45 46 47 48 49 50 51 52 53 
54 55 56 57 58 59 60 61 62 
63 64 65 66 67 68 69 70 71 
72 73 74 75 76 77 78 79 80 
81 82 83 84 85 86 87 88 89 
90 91 92 93 94 95 96 97 98 
99 100 101 102 103 104 105 106 107 
108 109 110 111 112 113 114 115 116 
117 118 119 
CELL_DATA 1
FIELD FieldData 2
Length 1 1 double
71.08076055 
Tortuosity 1 1 double
0.66624234164 
POINT_DATA 120
FIELD FieldData 19
Curvature 1 120 double
0 0.31246866983 0.27463885414 0.22533603792 0.18244242507 0.15174539552 0.12916195072 0.10634148207 0.077028484333 
0.055108076636 0.10638746057 0.22583983347 0.3772715582 0.48192659694 0.45487568523 0.33516181335 0.22024863869 0.15172702802 
0.12846183996 0.13655168811 0.15953954346 0.18091845104 0.18569707118 0.16868084057 0.14015564347 0.11813911212 0.1143024394 
0.1290838389 0.16309209669 0.22777236167 0.35050857702 0.56796186657 0.84675182395 0.94421264939 0.72477417972 0.4420569392 
0.24747995895 0.13000277963 0.062462699269 0.056599011702 0.096680016195 0.14352549077 0.18938818163 0.2277547799 0.24942577332 
0.24369527814 0.20851388676 0.15367090454 0.095357176205 0.057314815879 0.068837417829 0.099297202867 0.12088791302 0.12439475913 
0.11274824986 0.09301900039 0.077492413261 0.072126886347 0.070769945767 0.062964138454 0.050508522128 0.049661704026 0.066251853667 
0.081434201435 0.084317177238 0.074285244495 0.059719876809 0.051441470154 0.056034373128 0.066831911165 0.078264138123 0.090105899744 
0.10433678945 0.12169157358 0.14105237707 0.15898710411 0.17023086592 0.17260479973 0.16512603281 0.15228118527 0.13760656832 
0.12574752116 0.11648873536 0.10943663986 0.10108201407 0.090434874248 0.073446677055 0.050338910519 0.020396236554 0.012245822016 
0.046243228526 0.076713139402 0.10386224072 0.1253039766 0.14451551679 0.16252936285 0.1822196347 0.20766194442 0.23668083321 
0.25946065251 0.26295705592 0.23731090289 0.1904687189 0.13528068922 0.086210869887 0.051809080019 0.032312311549 0.032034814698 
0.044292162174 0.064984485695 0.084271209274 0.098395756985 0.10219479456 0.096135048233 0.082752235663 0.065247946474 0.04727177622 
0.029347483139 0.016788608357 0 
Torsion 1 120 double
0 0 -0.20623072324 -0.28791693499 -0.36619407117 -0.40308731023 -0.40356273117 -0.45583819526 -0.85155096065 
-2.2783105727 -0.98015531961 -0.32613777314 -0.1299202114 -0.043804884684 0.018625766069 0.1053128064 0.24924600378 0.41209527188 
0.41338777388 0.25356426103 0.13981602545 0.11377692443 0.14945766502 0.23868785247 0.37649810275 0.48135549473 0.3985539622 
0.1930569048 0.021055319945 -0.071168419792 -0.086089382451 -0.051575472412 -0.0036353558776 0.041159834049 0.10049111955 0.19119591357 
0.33232080823 0.64151856801 1.7060652131 1.7399297881 0.73533241087 0.49633629298 0.40360891547 0.32036673782 0.22717148034 
0.12423870652 0.00030351754712 -0.18518284183 -0.63274745909 -1.6640313237 -0.96264709025 -0.34064767804 -0.12540902761 0.0058558208034 
0.15968864993 0.38298471974 0.60568531419 0.60080092005 0.49910486598 0.59751709188 1.0441816853 1.128910091 0.5101695078 
0.16783164758 -0.02646017044 -0.22454821267 -0.5050007903 -0.66950074577 -0.39274752581 -0.067951796326 0.14661526298 0.26252655549 
0.29604850676 0.27452488793 0.23094748486 0.18585034051 0.15354664258 0.13504404307 0.12836020224 0.12468253469 0.11430564621 
0.085322857757 0.038421587345 -0.014430302511 -0.061207821086 -0.091635971948 -0.10386408775 -0.094332925663 0.079048505893 0.54778213729 
-0.1085145524 -0.14646284978 -0.12608979305 -0.087531165553 -0.020531441219 0.071429662265 0.14598532572 0.1668843435 0.14391425838 
0.10102506954 0.064012696721 0.042239168415 0.029473113214 0.036174893593 0.037561230846 -0.07584776971 -0.36335965638 -0.37698454287 
-0.12817753558 0.001815647741 0.033920045202 0.03621738117 0.043103803397 0.054311935443 0.069477122927 0.10769888793 0.20593121457 
0.51158303872 0 0 
FrenetTangent 3 120 double
-0.44182634808 -0.7057144297 -0.55385613823 -0.44182634808 -0.7057144297 -0.55385613823 -0.59965800491 -0.63189212725 -0.49104237767 
-0.71518848859 -0.56645014773 -0.40943821991 -0.79249921904 -0.51935855263 -0.31970561713 -0.83915419138 -0.49333661179 -0.22899613654 
-0.86190310832 -0.48643341634 -0.14319763733 -0.8663890468 -0.49454365354 -0.069257449641 -0.85815289336 -0.51314153641 -0.016105130295 
-0.84271402414 -0.53833298701 0.0055379243153 -0.82373078784 -0.56673661881 -0.016649146245 -0.79925561678 -0.59329313912 -0.095883836621 
-0.75765920064 -0.60711575438 -0.23950573371 -0.68150733206 -0.59200670764 -0.43020438683 -0.5696894897 -0.54319436629 -0.61676070381 
-0.44848879988 -0.48085127474 -0.7534187733 -0.34251280251 -0.42960547307 -0.83553822033 -0.25543362067 -0.39922607188 -0.88055221819 
-0.17819483237 -0.38835451585 -0.90411690159 -0.099356447485 -0.39228931355 -0.9144601636 -0.010519271643 -0.40624901749 -0.91370185548 
0.090006616218 -0.42625343306 -0.90011489258 0.19516471287 -0.44966642955 -0.87161392657 0.291735219 -0.47601877852 -0.82963647732 
0.3676068558 -0.5069860428 -0.7796347555 0.41761242267 -0.54482075576 -0.72716587415 0.44353101898 -0.59087127145 -0.67390754245 
0.45070733011 -0.6453969939 -0.61670545875 0.44488646531 -0.70835752344 -0.54800150728 0.42990507401 -0.77961754164 -0.45538787435 
0.4052566633 -0.85659277777 -0.31939920152 0.36207653833 -0.92533585207 -0.1124906274 0.28080121677 -0.94219844324 0.18279160325 
0.15022371759 -0.84508204583 0.51309762277 0.0031939825719 -0.65234872494 0.75791222417 -0.11835147018 -0.46169614187 0.87910727564 
-0.20730407506 -0.32604428667 0.92234491574 -0.27145054951 -0.24868040895 0.92977021536 -0.31584059561 -0.22028558286 0.92288622275 
-0.34000927768 -0.23167957617 0.91143747184 -0.33933150673 -0.27380392444 0.89993640859 -0.30774499756 -0.33552855784 0.89034465425 
-0.24104753165 -0.40327617607 0.88275954444 -0.14042878271 -0.46268684507 0.87532887556 -0.014946981547 -0.50276764396 0.86429236022 
0.11901267182 -0.51994069101 0.84587094865 0.24236661859 -0.51973735572 0.81922616124 0.34003818694 -0.51391800175 0.78756734245 
0.40469585545 -0.51403888038 0.75629709377 0.43536937967 -0.5272372687 0.72970841145 0.43450913791 -0.55491261602 0.70941792876 
0.40663425358 -0.59358149138 0.6944851308 0.35863189886 -0.63731529175 0.68206479166 0.30035013622 -0.67986893543 0.66900525133 
0.24303862941 -0.7174044981 0.65288820691 0.19620444484 -0.74949053531 0.63227189824 0.16512741446 -0.77766969188 0.60659936311 
0.15048922562 -0.80339408143 0.57611712602 0.14988768825 -0.82635926804 0.54282966116 0.15999867334 -0.84437536073 0.51130291876 
0.17823973301 -0.85457220474 0.4877878068 0.2030762468 -0.85475454231 0.47765543061 0.2332980371 -0.84413713773 0.48270541595 
0.26706949188 -0.82395304513 0.4997752154 0.30195991134 -0.79766416463 0.52206521853 0.3357579065 -0.77047849255 0.54187592744 
0.36748512666 -0.74754846601 0.55328651948 0.39764536772 -0.73196917899 0.55326239936 0.42789074373 -0.7235597229 0.54163718376 
0.4604013519 -0.71924554934 0.52030417538 0.49726795085 -0.71429688273 0.49244750825 0.54019546723 -0.70336426083 0.46202551204 
0.58992494661 -0.68168353986 0.43277720464 0.64578202021 -0.64561523158 0.40761078877 0.7055074995 -0.59286403404 0.38829293747 
0.76530038205 -0.52283092776 0.37545059091 0.820114288 -0.43758404387 0.36869060087 0.86506129173 -0.34191826334 0.3670978926 
0.89695305543 -0.24240116903 0.36975247073 0.91517238871 -0.14532988173 0.37595042815 0.92128643452 -0.054808593815 0.38500301767 
0.91784328915 0.027891992697 0.39596178263 0.907372479 0.10351033273 0.40738286091 0.89205434788 0.17323780454 0.41740592174 
0.87389623144 0.23741667543 0.42419181851 0.85497931967 0.29511446541 0.42651824725 0.83760116791 0.34385863819 0.42448265036 
0.8241216386 0.38015599348 0.41988682453 0.8164031998 0.4006303426 0.41591001904 0.81482768912 0.40324119143 0.41647614406 
0.81791804595 0.3875448359 0.42522825667 0.82249995511 0.35488010456 0.44447039859 0.82427960991 0.30819205309 0.47495345361 
0.81970197953 0.25054547175 0.51508798407 0.80669245525 0.18406077448 0.5615771665 0.78481308814 0.10854581386 0.6101526227 
0.75519362823 0.021867980392 0.65513691341 0.71869464059 -0.079058089007 0.69081678624 0.67448401168 -0.19541107804 0.7119591481 
0.62089797953 -0.32330574828 0.71411420105 0.55779078919 -0.45244507328 0.69581814517 0.48956785783 -0.56877950804 0.66091843961 
0.42461882468 -0.66142544492 0.61823558174 0.37076665724 -0.72725905014 0.57760398187 0.33226422744 -0.76963111399 0.54522328595 
0.30741690552 -0.79505121021 0.52286558439 0.29071438168 -0.80986743217 0.50950946076 0.27513149384 -0.81991541783 0.50203721844 
0.25392238418 -0.82969192027 0.49712648315 0.22235245684 -0.84167055228 0.49208745804 0.17897764435 -0.85633142624 0.48442077913 
0.12591262072 -0.87221265755 0.47264266837 0.067662566467 -0.88701775524 0.45675078433 0.010200797585 -0.89901102976 0.43780716315 
-0.041300181257 -0.90772276369 0.41753284817 -0.083336400251 -0.91364326471 0.39788318542 -0.11430389568 -0.91781102572 0.38020723363 
-0.13350149798 -0.92126360342 0.3653090788 -0.14109305811 -0.92470406404 0.35357480524 -0.14109305811 -0.92470406404 0.35357480524 

FrenetNormal 3 120 double
-0.8966518349 0.36691942493 0.24776122089 -0.8966518349 0.36691942493 0.24776122089 -0.79736525585 0.41967538043 0.43368332205 
-0.6741991957 0.40465759305 0.61782495653 -0.52475980772 0.31358036203 0.79138770571 -0.34592289061 0.15920067982 0.92465804344 
-0.15119758335 -0.023015144702 0.98823559636 0.045582345971 -0.21643028378 0.97523339873 0.27037802145 -0.47838910175 0.83548763776 
0.5371330707 -0.84005218407 0.076160307264 0.34641739221 -0.4798245514 -0.80607902234 0.25578414321 -0.19143719698 -0.94758971696 
0.30757676189 -0.0084862698461 -0.95148542751 0.43016145149 0.15151906153 -0.88994555993 0.56678838205 0.28376761128 -0.77345127369 
0.68483819082 0.35678556419 -0.63537446721 0.79329793074 0.34422226947 -0.50218464959 0.90401637644 0.22429511741 -0.36393143782 
0.9781844166 0.029794091087 -0.20559075672 0.99116923726 -0.12012332335 -0.056159863771 0.98079926571 -0.18214227356 0.069692127022 
0.96087856095 -0.20053360276 0.19104623855 0.92246623167 -0.21768598812 0.31885555038 0.84954766226 -0.26959121204 0.45341961575 
0.71470432029 -0.38237980125 0.58564786532 0.48295971286 -0.54478324339 0.68553711313 0.19949019634 -0.66796572114 0.71695568688 
-0.0098358818746 -0.69440207242 0.71951999086 -0.10981012555 -0.65041874779 0.75159642684 -0.14560869279 -0.55764046334 0.81721185884 
-0.16954531611 -0.41373516539 0.89447056894 -0.22032720359 -0.20221610621 0.95423507049 -0.30459879108 0.093122283538 0.9479176213 
-0.39240561458 0.42538965355 0.81551301418 -0.45036696003 0.67576122292 0.5835378059 -0.49687388848 0.79405416108 0.35013472865 
-0.57597614948 0.80276831213 0.1543195136 -0.72851539012 0.68438772726 -0.029643972908 -0.94349597989 0.17574019029 -0.28094611839 
-0.38484488749 -0.85003297377 -0.35963642207 0.25679217521 -0.94732547253 -0.19139547498 0.57975550066 -0.80810710597 -0.10414636205 
0.78525715418 -0.61555741289 -0.066785277223 0.91303843837 -0.40245640938 -0.066254423324 0.97338760392 -0.20500443587 -0.10241949917 
0.98501781552 -0.045256133239 -0.16640848989 0.9659302877 0.050276953789 -0.25387183229 0.92955382238 0.056785691374 -0.36428707987 
0.84688393163 -0.10132253463 -0.52203577494 0.41103553562 -0.60472514877 -0.68217100708 -0.38028695867 -0.82703708693 -0.41399454817 
-0.66920398044 -0.71102637742 -0.21588775597 -0.77177861369 -0.61345948517 -0.16740738188 -0.81616281299 -0.54616875861 -0.18862118072 
-0.80948130824 -0.52086268173 -0.27100198963 -0.72540883063 -0.54479530374 -0.4206900349 -0.49940071132 -0.59629577224 -0.62851434475 
-0.16175444296 -0.59491004671 -0.78734842129 0.13775368232 -0.52622252749 -0.83911487567 0.4101773657 -0.41426971707 -0.81248700309 
0.7581055059 -0.19676733504 -0.62173841589 0.97904391464 0.18485822062 -0.085442679515 0.84862493317 0.41911039511 0.32277267466 
0.73114440805 0.511090949 0.4519003169 0.69186259999 0.56011423437 0.45562944065 0.72636392572 0.57804393621 0.37183417706 
0.82988487845 0.53211902955 0.16775108616 0.91570447021 0.3547015728 -0.18887063693 0.86415098365 0.1518959013 -0.47976109954 
0.79746091315 0.077614693959 -0.59835779537 0.78753519043 0.13347214499 -0.60164234421 0.80275580111 0.2659383743 -0.53372268535 
0.80099858283 0.4263910327 -0.42022845874 0.76221951541 0.57629338441 -0.294800518 0.68969008454 0.70041445283 -0.18370405969 
0.59370087116 0.7987029258 -0.097943411752 0.48357720189 0.87448620562 -0.037775203424 0.36500112074 0.93098073698 0.0070035155497 
0.24335181273 0.96890010329 0.044860729972 0.1231724688 0.98895352461 0.082458893379 0.0094670292332 0.99288596903 0.11869215584 
-0.092803646761 0.98496086979 0.14573801193 -0.17879232698 0.97219860169 0.15120576274 -0.24597343043 0.96093938927 0.12685646088 
-0.29491675305 0.95262234482 0.074396081338 -0.32589914091 0.94540415482 -0.00085674170091 -0.34156684969 0.9360702529 -0.084288604409 
-0.34353797388 0.92486999853 -0.16308631559 -0.34199657947 0.91575330051 -0.21079428893 0.16358253298 -0.84917295761 0.50214145712 
0.16555565656 -0.86637466818 0.47115417744 0.085930353585 -0.85003033041 0.51967721878 -0.014356845363 -0.82722214316 0.56169155846 
-0.11209741478 -0.8117028112 0.57321262712 -0.20277337843 -0.80636471693 0.55557078782 -0.27047760647 -0.82583077113 0.49481855447 
-0.31045299534 -0.86831173415 0.38685096617 -0.3357389318 -0.9094798873 0.24520543278 -0.36502154285 -0.92649033182 0.091514689026 
-0.40682584197 -0.91159889585 -0.058993113122 -0.46183613815 -0.86577232891 -0.19273208346 -0.51433001755 -0.80043008084 -0.30785762737 
-0.55672875094 -0.72924398862 -0.39781440766 -0.58300671269 -0.66638002001 -0.46480193835 -0.58227906749 -0.62213548892 -0.52335315132 
-0.60237676256 -0.58795632708 -0.53986071664 -0.69852485691 -0.54355286537 -0.46541734693 -0.84758590544 -0.45332355256 -0.27585483427 
-0.91469889172 -0.37305798899 -0.15541452423 -0.93246546529 -0.33098144442 -0.14477375278 -0.93630680757 -0.29946433205 -0.18344120565 
-0.93749616366 -0.26042068353 -0.23082896421 -0.93559828479 -0.21541313264 -0.27973743366 -0.92616808889 -0.17355306725 -0.33480143963 
-0.91014132535 -0.13823673202 -0.39055521225 -0.8834039426 -0.11703152726 -0.45376325968 -0.83259684819 -0.12028016331 -0.54066178957 
-0.69141678572 -0.17750077149 -0.70031157676 -0.18890546313 -0.32543843804 -0.92650124071 -0.18890546313 -0.32543843804 -0.92650124071 

FrenetBinormal 3 120 double
0.028371907028 0.60608355804 -0.79489480786 0.028371907028 0.60608355804 -0.79489480786 -0.067962680264 0.65160180677 -0.75551052905 
-0.18428475333 0.71790421542 -0.67130668638 -0.31076057025 0.79494279691 -0.52105068624 -0.4197113256 0.85514567824 -0.30425034454 
-0.48400653163 0.87341446895 -0.053710732254 -0.49728489754 0.8417746177 0.21005528718 -0.43642792891 0.71262166045 0.54927318515 
-0.036347460285 0.067155961307 0.9970802069 0.44884583048 -0.66975966195 0.5915736773 0.54384274486 -0.78189196868 0.30476223221 
0.57562928282 -0.79456808645 0.19316439825 0.59203790588 -0.79156176771 0.15139711327 0.59515108611 -0.79019986283 0.14621683034 
0.5743295646 -0.80092828191 0.16929098755 0.50335213638 -0.83483541295 0.22290459862 0.34279448152 -0.88899395039 0.30361439295 
0.10677944011 -0.92102827435 0.37457318246 -0.087817079516 -0.91196462742 0.40076012636 -0.19473609144 -0.89542499852 0.4003647421 
-0.26193739736 -0.88209652815 0.39152843434 -0.33311677574 -0.86626376625 0.37231747341 -0.43949895512 -0.83709420073 0.3257513892 
-0.59503187656 -0.77249649838 0.22177967866 -0.76964263148 -0.63748063642 0.035618225661 -0.87377565586 -0.45243003432 -0.17839049099 
-0.89261758778 -0.318227092 -0.31932015268 -0.8888294377 -0.27419896336 -0.36714732626 -0.89105540564 -0.28501509156 -0.35325155577 
-0.89834371075 -0.3083375196 -0.3129002259 -0.90573533869 -0.32072138571 -0.2770943684 -0.91014847862 -0.32185452283 -0.26084365625 
-0.90744182641 -0.32385178474 -0.26771132438 -0.8928378351 -0.34320243395 -0.29163794256 -0.85971464362 -0.39536649054 -0.32338223468 
-0.79074426694 -0.49925760903 -0.35421087523 -0.62895144926 -0.6853987839 -0.36694492979 -0.10029982096 -0.95947363044 -0.26334444823 
0.85807231843 -0.4730417714 0.19985839699 0.90493751568 0.16615011301 0.39176808529 0.75443792052 0.48413168886 0.44321544639 
0.57032209259 0.67709482147 0.46505409733 0.38293676639 0.78990488158 0.47896733813 0.22867697802 0.83976060723 0.49245198981 
0.12480339358 0.85300267305 0.50676479033 0.090758478953 0.85284541916 0.51421550882 0.1424911321 0.85595775172 0.49702374646 
0.34497662374 0.85176157077 0.3943264582 0.80093900623 0.59693245593 -0.046565559756 0.81644573496 -0.089897972329 -0.57038120274 
0.62194422289 -0.37696485738 -0.68635477701 0.52511040037 -0.4663653921 -0.71187245239 0.49362744896 -0.48936481051 -0.71892560385 
0.53448314868 -0.46263684774 -0.70731528394 0.65976196031 -0.3761143636 -0.65057831291 0.85048919248 -0.19915120472 -0.48683357642 
0.97528892804 0.025297949415 -0.21948011436 0.97905955075 0.20054977359 0.034959753942 0.89786132181 0.33972172689 0.28006105599 
0.62730107565 0.48061311129 0.61278413634 -0.015266014552 0.48499702131 0.87438254679 -0.47477125933 0.33433361993 0.8141334546 
-0.62777523133 0.244719066 0.7389254615 -0.65585543733 0.22361557396 0.72100604742 -0.59971833026 0.26875286105 0.75373060442 
-0.41981635294 0.39751808683 0.81592499683 -0.057995558175 0.58172838616 0.8113128866 0.26486334004 0.67334163882 0.69025969645 
0.3899829319 0.69040698072 0.60930412258 0.36402322576 0.68699719784 0.6289053516 0.25253114851 0.65920823543 0.70828844504 
0.10193050409 0.59455717869 0.79756625656 -0.044575696289 0.50106577197 0.86426043498 -0.16305445544 0.39740638067 0.90304009499 
-0.24866564061 0.29786147333 0.92165283154 -0.30588501833 0.20927035319 0.92878429941 -0.34415569647 0.12793267201 0.93015594822 
-0.36912750047 0.049741965194 0.92804667194 -0.38378124222 -0.029157360043 0.92296359976 -0.38876944444 -0.10570463824 0.91525124885 
-0.38594193826 -0.17051135363 0.90662820306 -0.38040568892 -0.21003687745 0.90065310855 -0.37912545674 -0.21583362393 0.89982205732 
-0.38643173451 -0.1901157289 0.90251123217 -0.40348495993 -0.13826943393 0.90447855185 -0.4263289466 -0.074388968136 0.90150424886 
-0.45033896711 -0.0098441073198 0.89280339843 -0.46532156084 0.029853328102 0.88463813157 0.55614439847 -0.34103054055 -0.75789285421 
0.55100035815 -0.31496656093 -0.77278371541 0.56223642551 -0.38924099061 -0.72964488147 0.56600088841 -0.46980973199 -0.67743767983 
0.56171419276 -0.52760355654 -0.63726890147 0.55509480238 -0.5620476622 -0.61316570826 0.55759329362 -0.55337269877 -0.61876358585 
0.57732271873 -0.49553660185 -0.64895450893 0.60889849997 -0.40816192027 -0.68018119908 0.64174028333 -0.32160562127 -0.69623216898 
0.67005852977 -0.25389140636 -0.69753904583 0.68962077767 -0.21384978409 -0.69187531597 0.70412210989 -0.1892129935 -0.68440521437 
0.71396915312 -0.17527003699 -0.67788528715 0.72293516918 -0.16441393774 -0.67106840056 0.74199162444 -0.14358057602 -0.65485345495 
0.73663904467 -0.14899976706 -0.65966808873 0.65387167898 -0.22060150693 -0.72373116733 0.45376292709 -0.34962331772 -0.81967233802 
0.31440318112 -0.41525781665 -0.85364605394 0.2847236221 -0.42666376091 -0.85842326049 0.30215321432 -0.42073459836 -0.85538636464 
0.32441787108 -0.41403640855 -0.85048627109 0.34652218775 -0.4084074977 -0.84446769579 0.37697296303 -0.40206778188 -0.83440570703 
0.41223423308 -0.39614390086 -0.82044679711 0.46114262284 -0.38930657132 -0.79736307597 0.5419567398 -0.37835909317 -0.75041807601 
0.71001421004 -0.34607347361 -0.61328050059 0.97180629497 -0.19751510574 -0.12876454503 0.97180629497 -0.19751510574 -0.12876454503 

plain_curvature_peaks 1 120 unsigned_char
0 0 0 0 0 0 0 0 1 
0 0 0 0 0 0 0 0 0 
0 0 0 0 0 0 0 0 0 
0 0 0 1 0 0 0 0 0 
0 0 0 0 0 0 0 0 0 
0 0 0 0 0 0 0 0 0 
0 0 0 0 0 0 0 0 0 
0 0 0 1 0 0 0 0 0 
0 0 0 0 0 0 0 0 0 
0 0 0 0 0 0 0 0 0 
0 0 0 0 0 0 0 0 0 
0 0 0 0 0 0 0 0 1 
0 0 0 0 0 0 0 0 0 
0 0 0 
weighted_curvature_peaks 1 120 unsigned_char
0 0 0 0 0 0 0 0 0 
1 0 0 0 0 0 0 0 0 
0 0 0 0 0 0 0 0 0 
0 0 0 0 0 0 1 0 0 
0 0 0 0 0 0 0 0 0 
0 0 0 0 0 0 0 0 0 
0 0 0 0 0 0 0 0 0 
0 0 0 0 0 0 0 0 0 
1 0 0 0 0 0 0 0 0 
0 0 0 0 0 0 0 0 0 
0 0 0 0 0 0 0 0 0 
0 0 0 0 0 0 0 0 0 
0 0 0 1 0 0 0 0 0 
0 0 0 
plain_torsion_tp 1 120 unsigned_char
0 0 0 0 0 0 0 0 1 
0 0 0 0 0 0 0 0 0 
0 0 0 0 0 0 0 0 0 
0 0 0 1 0 0 0 0 0 
0 0 0 0 0 0 0 0 0 
0 0 0 0 0 0 0 0 0 
0 0 0 0 0 0 0 0 0 
0 0 0 1 0 0 0 0 0 
0 0 0 0 0 0 0 0 0 
0 0 0 0 0 0 0 0 0 
0 0 0 0 0 0 0 0 0 
0 0 0 0 0 0 0 0 1 
0 0 0 0 0 0 0 0 0 
0 0 0 
plain_torsion_tn 1 120 unsigned_char
2 0 0 0 0 0 0 0 0 
0 0 0 0 0 0 0 2 0 
0 0 0 0 0 0 0 0 0 
0 0 0 0 0 0 0 0 0 
0 0 0 0 0 0 0 0 0 
0 2 0 0 0 0 0 0 0 
0 0 0 0 0 0 0 0 0 
0 0 0 0 0 0 0 0 0 
0 0 0 0 0 0 0 0 0 
0 0 0 0 0 2 0 0 0 
0 0 0 0 0 0 0 0 0 
0 0 0 0 0 0 0 0 0 
0 0 0 0 0 0 0 0 0 
0 0 0 
plain_torsion_tz 1 120 unsigned_char
0 3 0 0 0 0 0 0 0 
0 0 0 3 0 0 0 0 0 
0 0 3 0 0 0 0 0 0 
0 0 0 0 0 0 0 0 0 
0 0 0 0 0 0 0 0 0 
0 0 0 0 0 0 3 0 0 
0 0 0 0 0 0 0 0 0 
0 0 0 0 0 0 0 0 0 
0 0 0 0 0 0 3 0 0 
0 0 0 0 0 0 0 0 0 
0 0 0 3 0 0 0 0 0 
0 0 0 0 0 0 0 0 0 
0 0 0 0 0 0 0 0 0 
0 0 0 
weighted_torsion_tp 1 120 unsigned_char
0 0 0 0 0 0 0 0 0 
1 0 0 0 0 0 0 0 0 
0 0 0 0 0 0 0 0 0 
0 0 0 0 0 0 1 0 0 
0 0 0 0 0 0 0 0 0 
0 0 0 0 0 0 0 0 0 
0 0 0 0 0 0 0 0 0 
0 0 0 0 0 0 0 0 0 
1 0 0 0 0 0 0 0 0 
0 0 0 0 0 0 0 0 0 
0 0 0 0 0 0 0 0 0 
0 0 0 0 0 0 0 0 0 
0 0 0 1 0 0 0 0 0 
0 0 0 
weighted_torsion_tn 1 120 unsigned_char
0 0 0 2 0 0 0 0 0 
0 0 0 0 0 0 0 0 0 
0 2 0 0 0 0 0 0 0 
0 0 0 0 0 0 0 0 0 
0 0 0 0 0 0 0 0 0 
0 0 0 0 0 0 2 0 0 
0 0 0 0 0 0 0 0 0 
0 0 0 0 0 0 0 0 0 
0 0 0 0 0 0 0 0 0 
0 0 0 0 0 0 0 0 0 
0 2 0 0 0 0 0 0 0 
0 0 0 0 0 0 0 0 0 
0 0 0 0 0 0 0 0 0 
0 0 0 
weighted_torsion_tz 1 120 unsigned_char
0 0 0 3 0 0 0 0 0 
0 0 0 0 0 3 0 0 0 
0 0 0 0 0 3 0 0 0 
0 0 0 0 0 0 0 0 0 
0 0 0 0 0 0 0 0 0 
0 0 0 0 0 0 0 0 0 
0 0 3 0 0 0 0 0 0 
0 0 0 0 0 0 0 0 0 
0 0 0 0 0 0 0 0 0 
0 0 3 0 0 0 0 0 0 
0 0 0 0 0 0 0 0 3 
0 0 0 0 0 0 0 0 0 
0 0 0 0 0 0 0 0 0 
0 0 0 
plain_torsion_tp_raw 1 120 unsigned_char
0 0 0 0 0 0 0 0 0 
0 1 0 0 0 0 0 0 1 
0 0 0 0 0 0 0 0 0 
0 0 0 0 0 0 0 0 0 
0 0 0 0 0 0 0 0 0 
0 0 0 0 1 0 0 0 0 
0 0 0 0 0 0 0 0 0 
0 0 0 0 0 0 0 0 1 
0 0 0 0 0 0 0 0 0 
0 0 0 0 0 0 0 0 0 
0 0 0 0 0 0 0 0 1 
0 0 0 0 0 0 0 0 0 
0 1 0 0 0 0 0 0 0 
0 0 0 
plain_torsion_tn_raw 1 120 unsigned_char
0 0 0 0 0 0 2 0 0 
0 0 0 0 2 0 0 0 0 
0 0 0 0 0 0 0 0 0 
0 0 0 0 0 0 0 0 0 
0 0 0 0 0 2 0 0 0 
0 0 0 0 0 0 0 0 0 
0 2 0 0 0 0 0 0 0 
0 0 0 0 0 0 0 0 0 
0 0 0 0 0 0 0 0 0 
0 0 0 0 0 0 2 0 0 
0 0 0 0 0 0 0 0 0 
0 0 0 0 2 0 0 0 0 
0 0 0 0 0 0 0 0 0 
0 0 0 
plain_torsion_tz_raw 1 120 unsigned_char
3 0 0 0 0 0 0 0 0 
3 3 0 0 0 0 3 0 0 
0 0 0 0 0 0 0 0 0 
0 0 0 0 0 0 0 0 0 
0 0 0 0 0 0 0 0 0 
0 0 0 0 0 0 0 0 0 
0 0 0 0 0 0 0 0 0 
0 0 0 0 0 0 0 0 0 
0 0 0 0 0 0 0 0 0 
0 0 0 0 0 0 0 0 0 
0 0 0 0 0 0 0 0 0 
0 0 0 0 0 0 0 0 0 
0 0 0 0 0 0 0 0 0 
0 0 0 
weighted_torsion_tp_raw 1 120 unsigned_char
0 0 0 0 0 0 0 0 0 
0 0 0 1 0 0 0 0 0 
0 0 1 0 0 0 0 0 0 
0 0 0 0 0 0 0 0 0 
0 0 0 0 0 0 0 0 0 
0 0 0 0 0 0 0 0 0 
1 0 0 0 0 0 0 0 0 
0 0 0 0 0 0 0 0 0 
0 0 0 0 1 0 0 0 0 
0 0 0 0 0 0 0 0 0 
0 0 0 0 0 0 0 0 0 
0 0 0 1 0 0 0 0 0 
0 0 0 0 0 1 0 0 0 
0 0 0 
weighted_torsion_tn_raw 1 120 unsigned_char
0 0 0 0 0 0 0 2 0 
0 0 0 0 0 0 2 0 0 
0 0 0 0 0 0 0 0 0 
0 0 0 0 0 0 0 0 0 
0 0 0 0 0 0 0 0 0 
2 0 0 0 0 0 0 0 0 
0 0 0 0 0 0 0 2 0 
0 0 0 0 0 0 0 0 0 
0 0 0 0 0 0 0 0 0 
0 0 0 0 0 0 0 0 0 
0 0 2 0 0 0 0 0 0 
0 0 0 0 0 0 0 0 2 
0 0 0 0 0 0 0 0 0 
0 0 0 
weighted_torsion_tz_raw 1 120 unsigned_char
0 0 0 3 0 0 0 0 0 
0 3 0 3 0 0 0 0 3 
0 0 0 0 0 0 0 0 0 
0 0 0 0 0 0 0 0 0 
0 0 0 0 0 0 0 0 0 
0 0 0 0 0 0 0 0 0 
0 0 0 0 0 0 0 0 0 
0 0 0 0 0 0 0 0 0 
0 0 0 0 0 0 0 0 0 
0 0 0 0 0 0 0 0 0 
0 0 0 0 0 0 0 0 0 
0 0 0 0 0 0 0 0 0 
0 0 0 0 0 0 0 0 0 
0 0 0 
