# vtk DataFile Version 5.1
vtk output
ASCII
DATASET POLYDATA
POINTS 120 float
-3.90001 15.6419 -11.3575 -4.06403 15.0116 -11.6674 -4.29414 14.4378 -11.7675 
-4.57831 13.9102 -11.6941 -4.90431 13.4187 -11.4842 -5.25928 12.9532 -11.1757 
-5.62921 12.5041 -10.8076 -5.99839 12.0631 -10.4199 -6.34932 11.6239 -10.0526 
-6.66318 11.1833 -9.74314 -6.92122 10.7411 -9.52378 -7.10676 10.2999 -9.41836 
-7.20753 9.86386 -9.43963 -7.21757 9.43672 -9.58815 -7.13819 9.01983 -9.85238 
-6.97794 8.61062 -10.2105 -6.75127 8.20242 -10.6338 -6.47691 7.78564 -11.0897 
-6.17622 7.35047 -11.5459 -5.87161 6.88985 -11.9722 -5.58539 6.40224 -12.3426 
-5.33878 5.89299 -12.6356 -5.15084 5.37411 -12.8345 -5.03739 4.86279 -12.9282 
-5.00971 4.37857 -12.9117 -5.07337 3.94122 -12.7874 -5.22728 3.56719 -12.5651 
-5.46319 3.26866 -12.2606 -5.76573 3.05204 -11.8938 -6.11348 2.9185 -11.4853 
-6.48097 2.86438 -11.0537 -6.842 2.88335 -10.6136 -7.17339 2.96845 -10.1752 
-7.45855 3.11357 -9.74365 -7.68953 3.31414 -9.32 -7.86712 3.56573 -8.90193 
-7.99877 3.86126 -8.48454 -8.0951 4.18876 -8.06132 -8.16633 4.53014 -7.62545 
-8.21996 4.86106 -7.17152 -8.25963 5.15398 -6.69719 -8.28511 5.38202 -6.20448 
-8.29249 5.52264 -5.70022 -8.27494 5.56092 -5.19536 -8.22365 5.49025 -4.70317 
-8.12961 5.31321 -4.23705 -7.98623 5.03961 -3.80782 -7.79179 4.68451 -3.42165 
-7.55108 4.26525 -3.07905 -7.27518 3.79946 -2.77526 -6.97953 3.30248 -2.50188 
-6.68078 2.78657 -2.24925 -6.39364 2.25966 -2.00876 -6.12853 1.72607 -1.77436 
-5.89058 1.18663 -1.54317 -5.68017 0.639684 -1.31515 -5.49447 0.0818329 -1.09173 
-5.32913 -0.490659 -0.874408 -5.17976 -1.08094 -0.663871 -5.0426 -1.6899 -0.459052 
-4.91415 -2.31528 -0.257664 -4.79026 -2.95034 -0.0565104 -4.66485 -3.58342 0.147641 
-4.52897 -4.19842 0.356673 -4.37066 -4.77552 0.571243 -4.17584 -5.29413 0.79049 
-3.93037 -5.73566 1.01238 -3.6227 -6.08682 1.23476 -3.24656 -6.34326 1.45619 
-2.80269 -6.51044 1.6769 -2.29892 -6.6027 1.89925 -1.74895 -6.64123 2.12737 
-1.16961 -6.64945 2.36648 -0.577897 -6.64835 2.62201 0.0119229 -6.6532 2.89828 
0.590102 -6.6717 3.19719 1.15222 -6.70357 3.51793 1.69883 -6.74243 3.85654 
2.23416 -6.77826 4.20674 2.76421 -6.80003 4.56035 3.29493 -6.79736 4.90932 
3.8305 -6.76193 5.2464 4.37222 -6.6877 5.56683 4.91811 -6.57061 5.8692 
5.46327 -6.40942 6.15542 6.00086 -6.20533 6.43127 6.5235 -5.96227 6.70457 
7.02513 -5.68704 6.98471 7.50232 -5.3891 7.27985 7.95594 -5.07954 7.59608 
8.39093 -4.77079 7.93538 8.817 -4.47488 8.2955 9.2464 -4.20325 8.6699 
9.69234 -3.96542 9.04933 10.1664 -3.76918 9.42386 10.6755 -3.62029 9.78478 
11.2201 -3.52309 10.1265 11.7925 -3.48136 10.448 12.3771 -3.49855 10.7523 
12.9515 -3.57774 11.0462 13.4887 -3.72115 11.3377 13.9607 -3.929 11.635 
14.3423 -4.19877 11.9443 14.6139 -4.5249 12.2689 14.7652 -4.89887 12.6098 
14.7956 -5.30949 12.9657 14.7146 -5.74404 13.3347 14.5394 -6.1887 13.7155 
14.292 -6.62948 14.1081 13.9952 -7.05335 14.5134 13.6703 -7.45045 14.9328 
13.335 -7.81547 15.3658 13.0031 -8.14924 15.8091 12.6861 -8.45958 16.2557 
12.3936 -8.76131 16.6947 12.136 -9.07482 17.112 11.9239 -9.42468 17.4916 
11.769 -9.83761 17.8162 11.683 -10.3416 18.068 11.6779 -10.9646 18.2291 

LINES 2 120
OFFSETS vtktypeint64
0 120 
CONNECTIVITY vtktypeint64
0 1 2 3 4 5 6 7 8 
9 10 11 12 13 14 15 16 17 
18 19 20 21 22 23 24 25 26 
27 28 29 30 31 32 33 34 35 
36 37 38 39 40 41 42 43 44 
45 46 47 48 49 50 51 52 53 
54 55 56 57 58 59 60 61 62 
63 64 65 66 67 68 69 70 71 
72 73 74 75 76 77 78 79 80 
81 82 83 84 85 86 87 88 89 
90 91 92 93 94 95 96 97 98 
99 100 101 102 103 104 105 106 107 
108 109 110 111 112 113 114 115 116 
117 118 119 
CELL_DATA 1
FIELD FieldData 2
Length 1 1 double
71.416898108 
Tortuosity 1 1 double
0.67131108059 
POINT_DATA 120
FIELD FieldData 19
Curvature 1 120 double
0 0.46673740119 0.50351770286 0.39041745969 0.2424627795 0.12692273124 0.043016567057 0.034856643329 0.11701609871 
0.23921981291 0.43425201917 0.68367982486 0.79617543176 0.62565701975 0.37172057807 0.1911273234 0.085539578892 0.048406161931 
0.080879822654 0.12967605168 0.18826890269 0.26673662787 0.37882036779 0.52862342965 0.67376136836 0.71470136219 0.61719657813 
0.46734405358 0.34489054983 0.2663548937 0.22865083798 0.22582588508 0.24777923897 0.27397959193 0.27404640828 0.23042011599 
0.15831398075 0.091623271413 0.084535057689 0.14294526753 0.22193385227 0.31049074604 0.39596146078 0.4582924194 0.46888914388 
0.42430657282 0.34348311272 0.25480569994 0.17472499258 0.11084727349 0.065591438266 0.04791464131 0.055537869766 0.066858866266 
0.071269312385 0.069279223788 0.063344344957 0.055725764186 0.045397483771 0.032274467951 0.015340914613 0.008381940941 0.037507639946 
0.08188639424 0.14915911188 0.24769401728 0.36815922703 0.45026927773 0.42314177131 0.30745147956 0.18017591032 0.084296605615 
0.034547734437 0.048978858708 0.068160002637 0.071279390468 0.058410664977 0.038991707801 0.036911470377 0.061197621067 0.087408442804 
0.10633524536 0.1161601437 0.11631615617 0.11042562421 0.10289389383 0.096078751513 0.090375477377 0.083651256666 0.073980117186 
0.065246771585 0.071176237564 0.095258493127 0.12553553027 0.14789675299 0.15625539205 0.15187261413 0.14451550313 0.14744466679 
0.17407023305 0.23087130724 0.31595745551 0.41165135895 0.4690805399 0.44501331396 0.35506881689 0.2534017378 0.17266061847 
0.12111005296 0.094073860682 0.082761793073 0.07291272746 0.054195180644 0.042374659485 0.096672416875 0.201041551 0.33265924341 
0.43409448093 0.42397803551 0 
Torsion 1 120 double
0 0 -0.0056706267927 -0.010735692459 -0.0260179243 -0.088260135321 -0.75366100872 -1.146288094 -0.086782158307 
0.0033145120522 0.031311914619 0.042410151728 0.054540933194 0.084458914372 0.15243151621 0.32176403913 0.94582210399 2.0145573767 
0.59609704184 0.23593996885 0.13825780407 0.099672115782 0.07985724079 0.067400782104 0.059029719739 0.051323992183 0.035629535034 
-0.0043695379925 -0.083116858489 -0.19583005387 -0.29606946375 -0.30336679896 -0.21489572415 -0.1173285521 -0.072077765638 -0.11125183303 
-0.34811097247 -1.2666026022 -1.4418269953 -0.39086660797 -0.072789572972 0.045463013815 0.10750525353 0.1459694195 0.16465083879 
0.15986988338 0.13051496042 0.071853481794 -0.028094168664 -0.23186794722 -0.70324639948 -1.0716067056 -0.48890303358 -0.09659356121 
0.093795617023 0.19224305075 0.2191583758 0.16274445833 0.057642389063 -0.063702014544 -0.49027271412 -2.2907818094 -0.26640506934 
-0.14982966089 -0.10701590242 -0.072542377809 -0.046567674598 -0.025567128466 -0.0015904791464 0.039762621885 0.14486315264 0.56931353764 
2.4162692322 0.68162288194 0.089872410905 -0.12167647151 -0.39082084389 -1.1541473909 -1.3885299278 -0.47052222985 -0.15671843315 
-0.0044743593843 0.099089330823 0.20484841702 0.3174718834 0.41891201718 0.48957675197 0.51836299368 0.56827235537 0.72069301136 
1.0072566629 0.9527285796 0.55659910901 0.27784699658 0.1141844725 -0.023075199648 -0.17061455756 -0.33603986511 -0.45499642837 
-0.42309390455 -0.30468820216 -0.19733039705 -0.1287247457 -0.094851897965 -0.086089511169 -0.10729891239 -0.17294962212 -0.29674735656 
-0.46271130841 -0.54997428726 -0.48658707277 -0.47438462647 -0.9377214168 -2.3342916096 -0.71622873207 -0.23780464542 -0.10819294964 
-0.059346670437 0 0 
FrenetTangent 3 120 double
-0.29596037306 -0.90422611631 -0.30786780955 -0.29596037306 -0.90422611631 -0.30786780955 -0.42297390983 -0.90587700312 -0.021907232434 
-0.49968453102 -0.8345781907 0.23193665746 -0.53039503367 -0.74543606766 0.4037402349 -0.53735575232 -0.67797916129 0.50159052254 
-0.53483419453 -0.64407117234 0.54692294642 -0.52755200911 -0.64479289202 0.55311030011 -0.5138223762 -0.67998440588 0.52307530383 
-0.48575900629 -0.74987136721 0.4491448769 -0.4263074777 -0.84902215741 0.31212707458 -0.30898505976 -0.94672044133 0.090822017275 
-0.12496807814 -0.9735067712 -0.19148771728 0.073597505827 -0.89589859983 -0.43811996753 0.22569387013 -0.77808269491 -0.58621633965 
0.32373344671 -0.68393270789 -0.65378337893 0.38375921169 -0.63188605391 -0.67338613167 0.41846101972 -0.61995470451 -0.66373679974 
0.4337235846 -0.64186692515 -0.63236911892 0.43055505237 -0.69100713021 -0.58063025488 0.40654922656 -0.76060874155 -0.50615419455 
0.35626203977 -0.84289084323 -0.40325226029 0.27090197524 -0.92599071006 -0.26297019734 0.13995046954 -0.98719462442 -0.076554814276 
-0.038557857522 -0.98780692348 0.15083359556 -0.23942097786 -0.89285420862 0.38143014762 -0.41511658444 -0.71619930794 0.56101405743 
-0.53687113601 -0.5136413635 0.66928464275 -0.60729943547 -0.32701083094 0.72405200927 -0.63904230684 -0.16766247592 0.75067584498 
-0.64097719137 -0.030925488225 0.76693666904 -0.61638840064 0.092634332501 0.7819745648 -0.56518944529 0.21104541947 0.79750907321 
-0.48829155849 0.32704569274 0.80908124979 -0.39317233947 0.43511392524 0.80999468118 -0.29580023449 0.52333443812 0.79913909125 
-0.21288766099 0.58180002525 0.78497616169 -0.15210587107 0.6071902613 0.77986139189 -0.11126698581 0.59909344611 0.79291027279 
-0.083135712461 0.55586109721 0.82710754677 -0.059206462814 0.47344023228 0.87883385302 -0.030893065839 0.34666478645 0.93748021009 
0.0099210101155 0.17455236607 0.98459791035 0.068839424839 -0.03239687479 0.99710158765 0.14526534488 -0.2476031288 0.95790953132 
0.23048784016 -0.43747713593 0.86918876608 0.31174696137 -0.5801805525 0.75246551986 0.37873417671 -0.67396987881 0.63429096308 
0.42638018047 -0.73046543973 0.53349806284 0.45373504041 -0.76431103899 0.45820644777 0.46190895928 -0.78711921121 0.40875843805 
0.45284554632 -0.80601832484 0.38113694547 0.42925902056 -0.82430708709 0.36912669836 0.39509273623 -0.84272921682 0.36566268185 
0.3553283037 -0.86098581792 0.36393023772 0.31500434565 -0.87857399475 0.35899860442 0.27794723713 -0.89496788794 0.34896677913 
0.24618173895 -0.90959808482 0.3347026673 0.22022384571 -0.92173049515 0.3192402733 0.20026172072 -0.93064344495 0.30626462673 
0.18733255491 -0.93573512455 0.29884158102 0.18405478999 -0.93625984921 0.29923457192 0.19493390193 -0.93111803196 0.30825311747 
0.22649736064 -0.91779063898 0.32612771828 0.2870406002 -0.89065171529 0.35262900603 0.38463102934 -0.8387748122 0.38537745873 
0.5199635187 -0.74513973838 0.41761789894 0.67255736609 -0.59760302968 0.43650567951 0.80125607779 -0.41392901969 0.43203178641 
0.8792463208 -0.24071243455 0.41107594337 0.91357371165 -0.11339386142 0.39054437082 0.92336077705 -0.038219701594 0.38202634702 
0.92117910503 -0.0056042632191 0.3890985077 0.91188734834 -0.0028937031533 0.41043037219 0.89697721248 -0.017925463253 0.44171320793 
0.87798679759 -0.038786647757 0.47711086679 0.85820950653 -0.054755070137 0.51037077229 0.84212735654 -0.058137874078 0.53613571319 
0.83352281238 -0.045063348399 0.55064418264 0.83362158727 -0.015007187755 0.55213207981 0.84059253752 0.030040232622 0.54083432795 
0.85037266431 0.086565191903 0.51901136726 0.85785655573 0.15090277862 0.49123363199 0.85873133402 0.21901975714 0.4632610948 
0.85024247689 0.28683894699 0.44137415985 0.83155740058 0.3507124872 0.43071224833 0.80373967095 0.40669680469 0.43428130331 
0.76961421671 0.45066501413 0.45232179086 0.73375389585 0.4788899085 0.48194364387 0.70214360928 0.48856633131 0.5179742193 
0.68153060624 0.47859275719 0.55359281563 0.6776973629 0.44959786204 0.58188318997 0.69331256828 0.40351626752 0.5970697652 
0.72657128294 0.34281909141 0.59545717006 0.77085983467 0.2706155248 0.5766648533 0.81671831939 0.19073410555 0.54460232073 
0.854991088 0.10633800418 0.50762433778 0.87942152532 0.018658139943 0.47567809978 0.88620375057 -0.073690741698 0.45739762469 
0.87123056058 -0.17447117738 0.4588214452 0.82717191727 -0.2878960051 0.4825997405 0.74166810505 -0.41499252472 0.52698161863 
0.60041110929 -0.54775246503 0.58264374784 0.40103715392 -0.66395371894 0.6311375922 0.17057370842 -0.7367287833 0.65432049475 
-0.045374708958 -0.75825996822 0.6503713988 -0.21641433919 -0.74285920702 0.633502196 -0.33824871977 -0.70876173201 0.61906753332 
-0.41979225208 -0.66698907936 0.61554856275 -0.47121243319 -0.62223322799 0.62512770919 -0.50007427673 -0.5772096057 0.6455654799 
-0.51150531085 -0.53574262184 0.67182003552 -0.50860071307 -0.50483539049 0.69747153574 -0.49270689019 -0.49475357218 0.71586229344 
-0.46249412887 -0.51732384029 0.72005223771 -0.41261468869 -0.58277585493 0.70008672434 -0.33332249451 -0.6927639499 0.63951092592 
-0.21716525454 -0.8264421769 0.51945411777 -0.075702945925 -0.93625706318 0.34306234948 -0.075702945925 -0.93625706318 0.34306234948 

FrenetNormal 3 120 double
-0.45915309093 -0.14795583581 0.8759494904 -0.45915309093 -0.14795583581 0.8759494904 -0.34254880446 0.1374677549 0.92938847256 
-0.21033992301 0.37665387154 0.90215795615 -0.099879711635 0.52787976249 0.84342575225 -0.0097695212991 0.59971985318 0.80015039471 
0.16884516174 0.55275892042 0.81605691422 0.40677322352 -0.76332184118 -0.50187180775 0.25034354125 -0.70202533565 -0.66669973711 
0.28530266336 -0.62171788091 -0.72943078276 0.37411034449 -0.47964160275 -0.79371618545 0.48898640714 -0.2400434088 -0.83861281622 
0.58330327113 0.08403416174 -0.80789575661 0.62011930362 0.38516699673 -0.68344599926 0.62942985351 0.57574704591 -0.52185572588 
0.6745570194 0.65137563894 -0.3473940192 0.82775308051 0.55863349546 -0.052473378528 0.7389063507 -0.19255728919 0.64570821217 
0.10860307728 -0.65946053259 0.74385292737 -0.14798977457 -0.68865406836 0.7098271626 -0.29475355838 -0.6335738157 0.71533527796 
-0.40996343331 -0.52881629751 0.74315765948 -0.50994676987 -0.3697552027 0.77668229153 -0.59021051643 -0.14525042926 0.79407421511 
-0.6305162211 0.14115366191 0.76323321381 -0.60764649353 0.44419995335 0.65837082283 -0.52355341161 0.69237411468 0.49649764401 
-0.40573909736 0.85273576153 0.32896429273 -0.27006152518 0.9420627248 0.19895877755 -0.1090384142 0.98584434931 0.12736382204 
0.08764236814 0.98970421287 0.1131564684 0.30004366553 0.94577001781 0.12447036668 0.48234399114 0.86880245141 0.11192218119 
0.61403769609 0.78754603501 0.05223935794 0.70404543282 0.70907457377 -0.039157085724 0.77135015929 0.62434248374 -0.12335069828 
0.85202637158 0.50378280678 -0.14231635788 0.98188790784 0.1830116854 0.049018970343 0.6871529977 -0.5300200988 0.49688977915 
0.29995664371 -0.7775319925 0.5526934164 0.19788062154 -0.85734165411 0.47519316887 0.19911381161 -0.91699458991 0.34565099753 
0.24143214664 -0.95593349484 0.16703793583 0.29859464521 -0.95298526454 -0.051578323178 0.35504002542 -0.89064984071 -0.28405886994 
0.39444248526 -0.7745578333 -0.49444442427 0.4113865747 -0.63143894135 -0.65730202305 0.40141836246 -0.49790316253 -0.76873645615 
0.36083206167 -0.40348426144 -0.8408333212 0.25452886207 -0.38160938805 -0.88858839365 -0.019257201036 -0.46966210887 -0.88263620122 
-0.55621162016 -0.58948831759 -0.58577483475 -0.84247164738 -0.51274856632 -0.16531917949 -0.90102245383 -0.43307684931 -0.024555656902 
-0.91472102518 -0.40042968762 -0.054235701885 -0.90352710225 -0.393392713 -0.16994395798 -0.86484668995 -0.39125393584 -0.31457997485 
-0.80960178053 -0.38284320545 -0.44494498199 -0.78077277156 -0.36274493812 -0.50873371134 -0.79013534653 -0.33824162458 -0.51115431874 
-0.87446839427 -0.29744377543 -0.38318693594 0.42800890745 0.35039909649 0.83308393834 0.77546393247 0.33874416229 0.53283025623 
0.83274240491 0.3561421878 0.42391370482 0.85100266367 0.40609840594 0.33298431062 0.83476416928 0.49426780349 0.24262753372 
0.77171464677 0.61938180894 0.14430065392 0.65178783402 0.7576807705 0.033052525452 0.48849194648 0.86951920044 -0.07288331975 
0.32352197739 0.93513878826 -0.14439174784 0.186209541 0.9703919823 -0.15383565105 0.048273223578 0.99869349863 -0.016762806498 
-0.28388698119 0.67420368366 0.68180464567 -0.39383536134 -0.28772419542 0.87298825624 -0.39686622967 -0.47283211567 0.78671912786 
-0.44185443622 -0.44906063138 0.77660106009 -0.50219085438 -0.2953039386 0.81277298775 -0.51998343465 0.17601878892 0.83584365382 
-0.17565411471 0.92333842014 0.34145540539 0.10687727495 0.98512072894 -0.13458973779 0.17064418647 0.93293315584 -0.31704303864 
0.14523916627 0.90943826528 -0.38965064639 0.067752950395 0.91435641107 -0.39920156718 -0.043902539323 0.93217649003 -0.35933210055 
-0.19368657958 0.9501422593 -0.244366929 -0.36025054713 0.93076831684 -0.062368931881 -0.52129491746 0.83319129408 0.18450982767 
-0.63121934762 0.64373832397 0.43262351466 -0.66608567135 0.36722119142 0.64921373599 -0.59290034303 -0.0016580249087 0.80527413605 
-0.32409569611 -0.48085337493 0.8147036342 0.12571185888 -0.85049821499 0.51073409406 0.42060115841 -0.89935317373 0.11940910534 
0.51154162478 -0.84847718254 -0.13568948676 0.50139753333 -0.81614246988 -0.2872489903 0.43722189499 -0.82046718043 -0.36833492963 
0.32856994864 -0.86834553561 -0.37150749607 0.17437895877 -0.94240444561 -0.28542221292 -0.031615568385 -0.99458688519 -0.098981733902 
-0.25132725613 -0.96144294848 0.11163362911 -0.44505871473 -0.8599484826 0.24982263253 -0.61638860745 -0.73152967267 0.29142653037 
-0.77411459029 -0.58089333324 0.2516138639 -0.9039136969 -0.39864444203 0.15499237849 -0.98003267161 -0.19570947094 0.035124999052 
-0.99763879809 0.00079603570507 -0.068674557618 -0.9759309245 0.18248444938 -0.11940794086 -0.92742146026 0.36264157991 -0.091545177698 
-0.82767360581 0.5596396667 0.04195051481 -0.62549547295 0.73543983446 0.26054493512 -0.35202713947 0.81659465524 0.45743858835 
-0.077701140686 0.80747543384 0.58476145263 0.27529324952 0.67219754891 0.68728748134 0.8571865124 -0.1342301895 0.49720573125 
0.67305775959 -0.73350463406 -0.094679480729 0.54671934085 -0.77317722391 -0.32139530608 0.53219698456 -0.69815432184 -0.47890177753 
0.55250687719 -0.54277401892 -0.6325602857 0.56562456608 -0.32366110604 -0.75849346647 0.56562456608 -0.32366110604 -0.75849346647 

FrenetBinormal 3 120 double
-0.83760724487 0.40060479432 -0.37138915184 -0.83760724487 0.40060479432 -0.37138915184 -0.83890010619 0.40061137227 -0.36845235817 
-0.84028119475 0.40200883655 -0.36375322553 -0.84184627543 0.40702337203 -0.35443874388 -0.84329908805 0.42506511803 -0.32888644474 
-0.82791527086 0.52880043576 -0.1868860707 0.74580454699 -0.039773020756 0.6649764541 0.82055754038 -0.21161671923 0.53094603028 
0.82622065944 -0.22618534258 0.51594535827 0.82359175846 -0.22159717763 0.52210277366 0.81573312209 -0.21470809921 0.53710325418 
0.80258349929 -0.21265659191 0.55734809642 0.7810476659 -0.22138672826 0.58391134613 0.74355923536 -0.25120242637 0.61969105568 
0.66345269843 -0.32855110422 0.6722236896 0.40933324462 -0.53726030248 0.73742637749 -0.52811720277 -0.76064305343 0.37751074872 
-0.89447706721 -0.39130379037 -0.21631486282 -0.8903490178 -0.21969233064 -0.39876547789 -0.86477630992 -0.14162825405 -0.48177107784 
-0.83964715349 -0.099440182517 -0.53395159681 -0.81643518525 -0.076303964209 -0.57237338629 -0.79502541618 -0.065947602782 -0.60298051487 
-0.77521776718 -0.065674391173 -0.62827087135 -0.75726041377 -0.074146905533 -0.64889051629 -0.74402288037 -0.087616417562 -0.66238456871 
-0.73969261737 -0.094943513287 -0.6662136002 -0.74716408392 -0.074711036645 -0.6604272047 -0.76140367369 -0.0004616330755 -0.64827789766 
-0.76253987138 0.13974686119 -0.63166744363 -0.72803786875 0.31134860502 -0.61075601333 -0.66925717415 0.44793094484 -0.59283446551 
-0.62010407327 0.52231442408 -0.58537046451 -0.59138442659 0.55487757289 -0.58512848084 -0.56349015346 0.57992889985 -0.58835475529 
-0.4782571546 0.63852299427 -0.60295810788 -0.1129599063 0.77319254367 -0.62402992715 0.71794179125 0.60013809886 -0.35269511859 
0.95032334771 0.29404496466 -0.10209355293 0.97843643349 0.20203869575 -0.042924480665 0.97948931005 0.19734347696 -0.040696972741 
0.97036698838 0.23605640202 -0.051626378314 0.95189409676 0.3012798169 -0.055929424158 0.92349583644 0.38136013406 -0.041471535138 
0.88954509799 0.45680840448 -0.0059665933356 0.85648988215 0.51446612118 0.04182931895 0.83392069267 0.54576280856 0.081970940756 
0.82945775358 0.55101786915 0.091537658391 0.85401380052 0.51981045644 0.021389667909 0.88671826052 0.39982602571 -0.23209884881 
0.6968210278 0.053272727122 -0.71526391756 0.32554295666 -0.24001402859 -0.91455729697 0.17905381167 -0.3197685252 -0.93042346425 
0.19242464155 -0.31362316019 -0.92984583169 0.290535777 -0.27083188348 -0.91773582973 0.41807360149 -0.21436612897 -0.88275796597 
0.53285974549 -0.16143854599 -0.8306612351 0.58471816883 -0.13721881862 -0.79954715862 0.57929386099 -0.13962586355 -0.80307113063 
0.44745004335 -0.18954412978 -0.87399169422 -0.88483456613 -0.025258027118 0.46522018727 -0.6005468036 0.13517249375 0.78808117197 
-0.50521186911 0.17556504515 0.84494844945 -0.43977512466 0.20450820704 0.87451371229 -0.39398953407 0.22837721616 0.89028989334 
-0.3661890812 0.2472507736 0.89709119479 -0.35048424892 0.26227937192 0.89909416766 -0.34549141238 0.2694422512 0.89890853664 
-0.34965617042 0.2599480151 0.90009310182 -0.36153710768 0.21326329474 0.90763962391 -0.38088655961 0.033919761296 0.92399939313 
-0.26615265989 -0.73852419404 0.61947136855 0.11556457974 -0.95770894005 -0.26351169624 0.19475388581 -0.88097018574 -0.4312336441 
0.18412995531 -0.89265903082 -0.41140735804 0.10621105725 -0.95383303892 -0.28093014288 -0.14296413203 -0.98266849626 0.11799950597 
-0.52381805356 -0.38133378622 0.76170807417 -0.54189694347 0.17120728295 0.82282183304 -0.514086323 0.35879424626 0.77909045775 
-0.50573898048 0.40672903658 0.76078878437 -0.50940324646 0.37574020937 0.77416253304 -0.51054193071 0.28823139563 0.81010468432 
-0.48946219403 0.12228289165 0.86340816247 -0.42276687765 -0.10330097625 0.90033164749 -0.28679984375 -0.37468650434 0.88167787377 
-0.096208589194 -0.6184674731 0.77989864218 0.13392198752 -0.7973788636 0.58843168605 0.39428864451 -0.87252518065 0.28850697383 
0.65610823232 -0.73466251067 -0.17260643934 0.72451557116 -0.27297353123 -0.63290018043 0.58516010477 0.16834040139 -0.79325226823 
0.45871487541 0.40318921274 -0.79184539009 0.39290664141 0.51056704417 -0.76481740602 0.37657429719 0.53893794339 -0.75348370379 
0.4012879618 0.48442570085 -0.77736716683 0.44295570833 0.3339546896 -0.83202434205 0.46221571622 0.073257097939 -0.8837364026 
0.42165379239 -0.21257296415 -0.88148784125 0.34308797666 -0.42143148617 -0.8394558611 0.26456285937 -0.5409672286 -0.79834889054 
0.20063175459 -0.60210478528 -0.77279798563 0.14869172718 -0.63265161657 -0.76002809312 0.10217912004 -0.64724686391 -0.75540116798 
0.051555449022 -0.65195182868 -0.75650568323 -0.02690101116 -0.64409597443 -0.76447152421 -0.15961590965 -0.60510155491 -0.77998389062 
-0.37246592775 -0.4918627974 -0.78698165239 -0.62186353498 -0.26824253928 -0.73575246108 -0.7912032677 0.0014967019899 -0.61155142797 
-0.85575980842 0.2469074055 -0.45465578562 -0.81580570079 0.54156410861 -0.20290237758 -0.14990398034 0.8586041923 0.49023222827 
0.57714160569 0.44084804194 0.68743041168 0.72859253429 0.2501385283 0.63763911081 0.77824320381 0.18071705126 0.60139742526 
0.80472069867 0.149631857 0.57448664431 0.82118080483 0.13662430268 0.55407209431 0.82118080483 0.13662430268 0.55407209431 

plain_curvature_peaks 1 120 unsigned_char
0 0 0 0 0 0 0 0 0 
0 0 0 1 0 0 0 0 0 
0 0 0 0 0 0 0 0 0 
0 0 0 0 0 0 0 0 0 
0 0 0 0 0 0 0 0 0 
0 0 0 0 0 1 0 0 0 
0 0 0 0 0 0 0 0 0 
0 0 0 0 0 0 0 0 0 
0 0 0 0 0 0 0 0 0 
0 0 0 0 0 0 0 0 0 
0 0 0 0 0 1 0 0 0 
0 0 0 0 0 0 0 0 0 
0 0 0 0 0 0 0 0 0 
0 1 0 
weighted_curvature_peaks 1 120 unsigned_char
0 0 0 0 0 0 0 0 0 
0 0 0 0 0 1 0 0 0 
0 0 0 0 0 0 0 0 0 
0 0 0 0 0 0 0 0 0 
0 0 0 0 0 0 0 0 0 
0 0 0 0 0 0 0 0 0 
1 0 0 0 0 0 0 0 0 
0 0 0 0 0 0 0 0 0 
0 0 0 0 0 0 0 0 0 
0 0 0 0 0 0 0 0 0 
0 0 0 0 0 0 0 0 0 
0 1 0 0 0 0 0 0 0 
0 0 0 0 0 0 0 0 0 
0 1 0 
plain_torsion_tp 1 120 unsigned_char
0 0 0 0 0 0 0 0 0 
0 0 0 1 0 0 0 0 0 
0 0 0 0 0 0 0 0 0 
0 0 0 0 0 0 0 0 0 
0 0 0 0 0 0 0 0 0 
0 0 0 0 0 1 0 0 0 
0 0 0 0 0 0 0 0 0 
0 0 0 0 0 0 0 0 0 
0 0 0 0 0 0 0 0 0 
0 0 0 0 0 0 0 0 0 
0 0 0 0 0 1 0 0 0 
0 0 0 0 0 0 0 0 0 
0 0 0 0 0 0 0 0 0 
0 1 0 
plain_torsion_tn 1 120 unsigned_char
0 0 0 0 0 0 2 0 0 
0 0 0 0 0 0 0 0 0 
0 0 0 0 0 0 0 0 0 
0 0 0 0 0 2 0 0 0 
0 0 0 0 0 0 0 0 0 
0 0 0 0 0 0 0 0 0 
0 0 0 0 0 0 0 0 0 
0 0 0 0 0 0 2 0 0 
0 0 0 0 0 0 0 0 0 
0 0 0 0 0 0 0 0 0 
0 0 0 0 0 0 0 0 0 
0 0 0 0 0 0 0 0 0 
0 0 2 0 0 0 0 0 0 
0 0 0 
plain_torsion_tz 1 120 unsigned_char
0 0 0 0 0 0 3 0 0 
0 0 0 0 0 0 0 0 0 
0 0 0 0 0 3 0 0 0 
0 0 0 0 0 0 0 0 0 
0 0 3 0 0 0 0 0 0 
0 0 0 0 0 0 0 0 0 
0 0 0 0 0 0 0 0 0 
0 0 0 0 0 0 0 0 0 
0 0 0 3 0 0 0 0 0 
0 0 0 0 0 0 0 0 0 
0 0 0 0 0 0 0 0 0 
0 0 0 0 0 0 3 0 0 
0 0 0 0 0 3 0 0 0 
0 0 0 
weighted_torsion_tp 1 120 unsigned_char
0 0 0 0 0 0 0 0 0 
0 0 0 0 0 1 0 0 0 
0 0 0 0 0 0 0 0 0 
0 0 0 0 0 0 0 0 0 
0 0 0 0 0 0 0 0 0 
0 0 0 0 0 0 0 0 0 
1 0 0 0 0 0 0 0 0 
0 0 0 0 0 0 0 0 0 
0 0 0 0 0 0 0 0 0 
0 0 0 0 0 0 0 0 0 
0 0 0 0 0 0 0 0 0 
0 1 0 0 0 0 0 0 0 
0 0 0 0 0 0 0 0 0 
0 1 0 
weighted_torsion_tn 1 120 unsigned_char
0 0 0 0 0 0 2 0 0 
0 0 0 0 0 0 0 0 0 
0 0 0 0 0 0 0 0 0 
0 0 0 0 0 0 0 2 0 
0 0 0 0 0 0 0 0 0 
0 0 0 0 0 0 0 0 0 
0 0 0 0 0 0 0 0 0 
0 0 0 0 0 0 0 0 0 
0 0 2 0 0 0 0 0 0 
0 0 0 0 0 0 0 0 0 
0 0 0 0 0 0 0 0 0 
0 0 0 0 0 0 0 0 0 
0 0 0 0 0 2 0 0 0 
0 0 0 
weighted_torsion_tz 1 120 unsigned_char
0 0 0 0 0 0 0 3 0 
0 0 0 0 0 0 0 0 0 
0 0 0 0 0 0 0 3 0 
0 0 0 0 0 0 0 0 0 
0 0 0 0 0 0 3 0 0 
0 0 0 0 0 0 0 0 0 
0 0 0 0 0 0 0 0 0 
0 0 0 0 0 0 0 0 0 
0 0 0 0 0 0 0 0 3 
0 0 0 0 0 0 0 0 0 
0 0 0 0 0 0 0 0 0 
0 0 0 0 0 0 0 0 0 
0 0 3 0 0 0 0 3 0 
0 0 0 
plain_torsion_tp_raw 1 120 unsigned_char
0 0 0 0 0 0 0 0 0 
0 0 0 0 0 0 0 1 0 
0 0 0 0 0 0 0 0 0 
0 0 0 0 0 0 0 1 0 
0 0 0 0 0 0 0 0 0 
0 0 0 0 0 0 0 0 0 
0 0 0 0 0 0 0 0 0 
0 0 0 0 0 0 0 0 0 
0 1 0 0 0 0 0 0 0 
0 0 0 0 0 0 0 0 0 
0 0 0 0 0 0 0 0 0 
1 0 0 0 0 0 0 0 0 
0 0 0 0 0 0 0 0 1 
0 1 0 
plain_torsion_tn_raw 1 120 unsigned_char
0 0 0 0 0 0 0 0 0 
2 0 0 0 0 0 0 0 0 
0 0 0 0 0 0 0 0 2 
0 0 0 0 0 0 0 0 0 
0 0 0 0 0 0 0 0 0 
0 0 0 0 0 0 0 0 0 
0 0 0 0 0 0 0 0 0 
2 0 0 0 0 0 0 0 0 
0 0 0 0 0 0 0 0 0 
0 2 0 0 0 0 0 0 0 
0 0 0 0 0 0 0 0 0 
0 0 0 0 0 0 0 0 0 
0 0 0 2 0 0 0 0 0 
2 0 0 
plain_torsion_tz_raw 1 120 unsigned_char
0 0 0 0 0 0 3 0 0 
0 0 0 0 3 0 0 0 3 
0 0 0 0 0 0 0 0 0 
0 0 0 3 0 0 0 0 0 
0 0 0 0 0 0 0 0 0 
0 0 0 0 0 0 0 0 0 
0 0 0 0 0 0 0 0 0 
0 0 0 0 0 0 0 0 0 
0 0 0 0 0 0 0 0 0 
0 0 0 0 0 0 0 0 0 
0 0 0 0 0 0 0 0 0 
0 0 0 0 0 0 0 0 0 
0 0 0 0 0 0 0 0 0 
0 0 0 
weighted_torsion_tp_raw 1 120 unsigned_char
0 0 0 0 0 0 0 0 0 
0 0 0 0 0 0 0 0 0 
1 0 0 0 0 0 0 0 0 
0 0 0 0 0 0 0 0 0 
0 1 0 0 0 0 0 0 0 
0 0 0 0 0 0 0 0 0 
0 0 0 0 0 0 0 0 0 
0 0 0 0 0 0 0 0 0 
0 0 0 0 0 1 0 0 0 
0 0 0 0 0 0 0 0 0 
0 0 0 0 0 0 0 0 0 
0 0 0 0 1 0 0 0 0 
0 0 0 0 0 0 0 0 1 
0 1 0 
weighted_torsion_tn_raw 1 120 unsigned_char
0 0 0 0 0 0 0 0 0 
0 0 2 0 0 0 0 0 0 
0 0 0 0 0 0 0 0 0 
0 0 2 0 0 0 0 0 0 
0 0 0 0 0 0 0 0 0 
0 0 0 0 0 0 0 0 0 
0 0 0 0 0 0 0 0 0 
0 0 0 0 0 2 0 0 0 
0 0 0 0 0 0 0 0 0 
0 0 0 0 0 0 2 0 0 
0 0 0 0 0 0 0 0 0 
0 0 0 0 0 0 0 0 0 
0 0 0 0 0 0 2 0 0 
2 0 0 
weighted_torsion_tz_raw 1 120 unsigned_char
0 0 0 0 0 0 3 0 0 
0 0 0 0 0 0 3 0 0 
0 3 0 0 0 0 0 0 0 
0 0 0 0 0 0 3 0 0 
0 0 0 0 0 0 0 0 0 
0 0 0 0 0 0 0 0 0 
0 0 0 0 0 0 0 0 0 
0 0 0 0 0 0 0 0 0 
0 0 0 0 0 0 0 0 0 
0 0 0 0 0 0 0 0 0 
0 0 0 0 0 0 0 0 0 
0 0 0 0 0 0 0 0 0 
0 0 0 0 0 0 0 0 0 
0 0 0 
