# vtk DataFile Version 5.1
vtk output
ASCII
DATASET POLYDATA
POINTS 120 float
-0.347166 17.5894 -4.45007 -0.485141 17.0297 -4.32251 -0.650701 16.4709 -4.20584 
-0.84623 15.9182 -4.10261 -1.07393 15.3767 -4.01531 -1.33543 14.8514 -3.94637 
-1.63118 14.3464 -3.89808 -1.95972 13.8651 -3.87262 -2.317 13.409 -3.87219 
-2.69604 12.9777 -3.89918 -3.08708 12.5686 -3.95635 -3.47831 12.1771 -4.04669 
-3.85703 11.7975 -4.17315 -4.21132 11.424 -4.33816 -4.53166 11.0527 -4.54314 
-4.81182 10.6828 -4.78819 -5.04883 10.3169 -5.07205 -5.24181 9.96052 -5.39232 
-5.39042 9.62096 -5.74578 -5.49383 9.30524 -6.12872 -5.55074 9.01889 -6.5371 
-5.56037 8.76504 -6.96651 -5.52353 8.5442 -7.41183 -5.44281 8.35424 -7.86695 
-5.32162 8.19012 -8.32434 -5.16276 8.04374 -8.77528 -4.96725 7.90367 -9.21045 
-4.73448 7.75552 -9.62107 -4.46348 7.58302 -10.0002 -4.15452 7.37049 -10.3437 
-3.81067 7.10591 -10.6497 -3.43834 6.78439 -10.9182 -3.04732 6.41058 -11.1486 
-2.65033 5.99911 -11.3379 -2.262 5.57336 -11.479 -1.89776 5.16174 -11.5608 
-1.57231 4.79378 -11.5694 -1.29814 4.49465 -11.4911 -1.08418 4.28141 -11.3156 
-0.935068 4.15973 -11.0385 -0.851117 4.12418 -10.6634 -0.829029 4.15918 -10.2013 
-0.863131 4.24275 -9.66975 -0.946826 4.3509 -9.08997 -1.0737 4.46188 -8.48473 
-1.23798 4.55855 -7.87593 -1.43438 4.62937 -7.28271 -1.65735 4.66804 -6.72013 
-1.90024 4.67265 -6.19823 -2.15461 4.64391 -5.72161 -2.41009 4.58387 -5.28942 
-2.65499 4.4945 -4.89567 -2.87763 4.37648 -4.53018 -3.06808 4.22916 -4.17984 
-3.22008 4.05168 -3.83059 -3.33218 3.84355 -3.46936 -3.40752 3.60711 -3.08589 
-3.45237 3.34692 -2.67424 -3.47351 3.06935 -2.23341 -3.4755 2.78057 -1.7674 
-3.45925 2.48447 -1.28461 -3.42236 2.18141 -0.79685 -3.36101 1.86827 -0.317849 
-3.27253 1.53877 0.138357 -3.15771 1.18513 0.559124 -3.02174 0.800378 0.934761 
-2.8738 0.379295 1.25947 -2.72544 -0.0803448 1.53179 -2.58822 -0.577233 1.75446 
-2.47141 -1.10706 1.93375 -2.38032 -1.66313 2.07859 -2.31549 -2.23761 2.19938 
-2.27287 -2.82219 2.30689 -2.24475 -3.40944 2.41123 -2.22106 -3.9932 2.52116 
-2.1908 -4.56903 2.64351 -2.14339 -5.13422 2.78298 -2.0698 -5.68759 2.94196 
-1.96324 -6.22865 3.12066 -1.81931 -6.75741 3.31739 -1.63591 -7.27329 3.52906 
-1.41256 -7.77436 3.75188 -1.14986 -8.25686 3.98207 -0.849062 -8.71486 4.21643 
-0.511786 -9.14065 4.45284 -0.13997 -9.52542 4.69028 0.264121 -9.86048 4.92876 
0.69784 -10.1384 5.16906 1.158 -10.3551 5.41232 1.64073 -10.5107 5.65971 
2.1413 -10.6107 5.91227 2.6542 -10.6652 6.1709 3.17334 -10.6878 6.43624 
3.69249 -10.6938 6.70965 4.20576 -10.6976 6.99224 4.70814 -10.7109 7.28592 
5.19591 -10.7406 7.59268 5.66684 -10.7891 7.91493 6.12004 -10.8536 8.25476 
6.5555 -10.928 8.61412 6.9733 -11.005 8.99456 7.37272 -11.0772 9.3974 
7.75168 -11.1401 9.82338 8.10679 -11.1923 10.2724 8.43401 -11.2352 10.7429 
8.73009 -11.2743 11.2311 8.99411 -11.3181 11.7295 9.2288 -11.3781 12.2275 
9.44078 -11.468 12.7115 9.63956 -11.6019 13.1666 9.83515 -11.7918 13.58 
10.0349 -12.0442 13.9436 10.241 -12.3588 14.2572 10.4487 -12.7264 14.5288 
10.645 -13.1301 14.7755 10.811 -13.5461 15.0211 10.9226 -13.9465 15.2944 
10.9535 -14.301 15.6268 10.8761 -14.5784 16.0506 10.6626 -14.7472 16.5982 

LINES 2 120
OFFSETS vtktypeint64
0 120 
CONNECTIVITY vtktypeint64
0 1 2 3 4 5 6 7 8 
9 10 11 12 13 14 15 16 17 
18 19 20 21 22 23 24 25 26 
27 28 29 30 31 32 33 34 35 
36 37 38 39 40 41 42 43 44 
45 46 47 48 49 50 51 52 53 
54 55 56 57 58 59 60 61 62 
63 64 65 66 67 68 69 70 71 
72 73 74 75 76 77 78 79 80 
81 82 83 84 85 86 87 88 89 
90 91 92 93 94 95 96 97 98 
99 100 101 102 103 104 105 106 107 
108 109 110 111 112 113 114 115 116 
117 118 119 
CELL_DATA 1
FIELD FieldData 2
Length 1 1 double
64.784668057 
Tortuosity 1 1 double
0.61462793794 
POINT_DATA 120
FIELD FieldData 19
Curvature 1 120 double
0 0.083828655414 0.094429851297 0.10643435274 0.11871298905 0.12918088368 0.13521794595 0.13493367678 0.12829565622 
0.11904398804 0.11514936227 0.12570963227 0.15088466223 0.18034578639 0.20263650798 0.21313157418 0.21577638922 0.21890571184 
0.22707964989 0.23817633615 0.24453957938 0.2388466468 0.21955718834 0.19243287469 0.16852992371 0.16238794426 0.18445669877 
0.22490301214 0.25712416618 0.25823367224 0.22849810417 0.18699073329 0.15352370265 0.14071420147 0.16320190492 0.24942474848 
0.46595456416 0.90909172598 1.3442266825 1.0929794795 0.57239356085 0.27404229439 0.1459325754 0.10211361962 0.097486392769 
0.10763115701 0.12235927691 0.13662729284 0.14705553429 0.15098564275 0.15314582429 0.17311963101 0.22337437804 0.27314688515 
0.27894298131 0.22837861718 0.15810247941 0.10163427765 0.070368296443 0.058553235312 0.062967571965 0.084197881019 0.11779101774 
0.15558193959 0.18783124225 0.20856402672 0.21314305123 0.20191437772 0.17907895006 0.14853911838 0.11391396393 0.077525188382 
0.042253594826 0.021122555033 0.043760502158 0.075291263357 0.10194502057 0.12004214882 0.12814440221 0.12854134471 0.12603610717 
0.12487942004 0.12832233986 0.13783728528 0.15361827233 0.17412977373 0.19551449291 0.20853926758 0.20559065789 0.18252514842 
0.14279186791 0.096828864952 0.05321074391 0.032187191441 0.052007214772 0.074882209583 0.088496812382 0.090604359079 0.086949598912 
0.085005268197 0.089959345097 0.09824940707 0.10582962845 0.1102153947 0.10930576644 0.10313174805 0.099947993407 0.12112466194 
0.18104485181 0.26514080122 0.33233758073 0.33852070017 0.27173544352 0.17181334988 0.12565516956 0.24278003629 0.45798374277 
0.65489041528 0.6189692454 0 
Torsion 1 120 double
0 0 -0.0013623827082 0.0044200685074 0.016931476422 0.0406408053 0.082645204947 0.15579892808 0.278947447 
0.46142011595 0.62649194176 0.59162298637 0.39387760665 0.2041630108 0.065170429652 -0.035667894404 -0.097180005217 -0.10606595634 
-0.069695885401 -0.020051060173 0.019524636125 0.056956434313 0.12797314266 0.28055846232 0.53918648236 0.75484240592 0.68085692424 
0.4770067591 0.32940567714 0.23993350482 0.16787278413 0.077940308575 -0.062740157368 -0.23875289307 -0.32675864222 -0.24848275894 
-0.11886048118 -0.0193931051 0.029983268988 0.086211784385 0.21574302368 0.43333530848 0.69348702465 0.7105647323 0.4284885967 
0.20550835827 0.10983910854 0.11078943985 0.19977274829 0.40940229647 0.75235210627 0.91538453536 0.67723716721 0.42007966775 
0.30043535762 0.28958391266 0.33430494673 0.38567196741 0.17415658465 -0.34179860976 -0.62389423351 -0.51869936404 -0.38919890302 
-0.32281104373 -0.30624681011 -0.30837694932 -0.31163073853 -0.30888404021 -0.29937197256 -0.29161480344 -0.30401277661 -0.39708363469 
-0.90139683944 -3.0920849515 -0.76753641331 -0.30394602817 -0.19239787353 -0.15439369462 -0.14045508631 -0.12861598683 -0.10506969859 
-0.061618866517 -0.0037344195549 0.047695549262 0.078148390015 0.087711805036 0.081781546219 0.072455397791 0.06909293289 0.079850342704 
0.12137028944 0.27055198137 0.89878354787 2.1076732449 0.56756848801 0.082431003284 -0.11753708895 -0.27933346058 -0.42809849334 
-0.47291500844 -0.3236336 -0.11109520929 0.052283532795 0.19390442952 0.35366049239 0.59952879705 0.96497550792 0.95849935425 
0.56538718342 0.27753767196 0.11377371504 -0.01804873629 -0.24813642173 -1.0120207968 -2.3901798598 -0.78450176435 -0.25224727342 
-0.10969238632 0 0 
FrenetTangent 3 120 double
-0.25628526131 -0.94434999117 0.20620610807 -0.25628526131 -0.94434999117 0.20620610807 -0.30363690854 -0.93467260558 0.18491010832 
-0.35607908523 -0.92060376908 0.16030092143 -0.41317342198 -0.90104124994 0.13195601269 -0.47337976338 -0.87521112747 0.099584546864 
-0.53377870599 -0.84326975333 0.063058830836 -0.590301958 -0.80687464442 0.022291401292 -0.63838708761 -0.76937098488 -0.023026376401 
-0.67376532692 -0.73526749286 -0.073634218916 -0.69290039163 -0.70909723486 -0.13065281779 -0.69298741193 -0.69404018446 -0.1951324403 
-0.67210392339 -0.69054431574 -0.26725430615 -0.63000944971 -0.69548978928 -0.3455170709 -0.56933124825 -0.70271980828 -0.42666942804 
-0.49564625216 -0.70525373514 -0.50690429253 -0.41537324715 -0.69775814456 -0.58360829094 -0.33258680947 -0.67756670506 -0.6559644612 
-0.24770411055 -0.64404924646 -0.7237701581 -0.15918276317 -0.59778531728 -0.78569304589 -0.066602856594 -0.54070660424 -0.8385704667 
0.027333210461 -0.4767894693 -0.87859245249 0.11795814177 -0.41216623828 -0.90344057293 0.20202568365 -0.35428830533 -0.91305280234 
0.28005446341 -0.31051483124 -0.90837769518 0.35564924111 -0.28748375868 -0.88930686818 0.43222588848 -0.29087223256 -0.85356553683 
0.50879628647 -0.32384319983 -0.79765401071 0.57801103664 -0.38374056221 -0.72017110636 0.62944093697 -0.46003935887 -0.6262330997 
0.65748056842 -0.53804985573 -0.52746720742 0.66563939618 -0.60632831271 -0.43507490328 0.66274267121 -0.66044634532 -0.35296285459 
0.6574563071 -0.70090639674 -0.27655275673 0.65571682075 -0.72961064233 -0.19417456472 0.66012326757 -0.74615686112 -0.08652866703 
0.66649332745 -0.74148285361 0.077393942064 0.64927046105 -0.68151786188 0.33761112593 0.54192266812 -0.49991490863 0.67557746107 
0.32817256258 -0.22137929727 0.91831039192 0.12565921211 -0.00064078148145 0.9920732593 -0.012004960627 0.11847211741 0.99288480617 
-0.10388507283 0.16907357367 0.98011326811 -0.17211999598 0.17912799972 0.96865260372 -0.23005018063 0.16407142762 0.95924839381 
-0.28487841585 0.13228353409 0.9493920975 -0.33973509487 0.088696893314 0.93632949672 -0.394431896 0.036643812653 0.91819426616 
-0.44567628677 -0.021628423904 0.89493287944 -0.48750256968 -0.084883540599 0.86898563227 -0.5120702 -0.15289383298 0.84522635199 
-0.51072062365 -0.22654552957 0.82936214503 -0.47589342108 -0.30568701024 0.82467017864 -0.40578566496 -0.38487433621 0.8289811454 
-0.31054494887 -0.45343472315 0.83543927761 -0.21123972862 -0.50102081184 0.83925915137 -0.12717048594 -0.52544784166 0.84126822905 
-0.0653351052 -0.53239310058 0.8439721029 -0.021624576596 -0.52959211433 0.84797675094 0.012793445403 -0.52471114363 0.85118420069 
0.046537365797 -0.52473429432 0.84999305524 0.085381697092 -0.53552132262 0.8401945482 0.13090068809 -0.56146392627 0.81708216805 
0.17989819511 -0.60450708808 0.77602050222 0.22500515353 -0.66246202599 0.71450454512 0.25698774721 -0.72942862225 0.63394888029 
0.26826921597 -0.79739638739 0.54054660219 0.25630312786 -0.85846358242 0.44423978245 0.22450893066 -0.90740918841 0.35525245227 
0.18044162203 -0.94249486734 0.28132587169 0.13306450383 -0.96483434354 0.2266903777 0.090585057977 -0.97711501543 0.19245933051 
0.059300078456 -0.98231707469 0.1775856567 0.043480734171 -0.98273850376 0.17981784946 0.045571836587 -0.97950287069 0.19620737504 
0.066199650798 -0.97253081638 0.22316231184 0.10394824312 -0.96096432325 0.25640267587 0.15538360771 -0.9439447649 0.29124597038 
0.21573197578 -0.92136633932 0.32333231109 0.28014287307 -0.89406269239 0.34953093245 0.34520015851 -0.86305745548 0.36873931049 
0.40949263682 -0.8286459068 0.38165657539 0.47322799716 -0.7898409857 0.39013648895 0.53738399598 -0.74432286447 0.39648696612 
0.60266999162 -0.68890954745 0.40273132066 0.66861331203 -0.6202965489 0.41010782777 0.73286709065 -0.53619387344 0.41881016885 
0.79086479252 -0.43759952684 0.4278311981 0.83720063751 -0.33060926471 0.4356519329 0.86838840831 -0.22572939977 0.44152894628 
0.88469686963 -0.13484433068 0.44623811509 0.88969117302 -0.066506826381 0.45169288094 0.88735825119 -0.024418552325 0.46043356562 
0.88041074247 -0.0083733333375 0.47413796708 0.86966050465 -0.014639120856 0.49343317966 0.85447487369 -0.037101487004 0.51816616051 
0.83416220529 -0.068038939028 0.54730623789 0.80892619812 -0.098847015825 0.57954091612 0.78003987116 -0.12197397867 0.61372644389 
0.74885472657 -0.13287459937 0.64927724382 0.71575295968 -0.13063540294 0.68602630577 0.679792158 -0.11803772298 0.72384371095 
0.63946879516 -0.10025250106 0.76225264581 0.59385193121 -0.08275728176 0.80030688871 0.54370192519 -0.071562100335 0.83622190975 
0.49239841405 -0.072909594863 0.86731078214 0.44561846548 -0.092726258296 0.89040778537 0.41009786449 -0.13756114855 0.90160782602 
0.39151827491 -0.21333404183 0.89509889231 0.39151741731 -0.32149964906 0.86217868658 0.40441000383 -0.45249477454 0.79479621779 
0.41756602368 -0.58331290642 0.69669553542 0.41821088162 -0.6894416459 0.59141345554 0.39872611935 -0.76116376532 0.5115146177 
0.35431432519 -0.80164015974 0.48149186209 0.27578716831 -0.81121448222 0.51562825915 0.14570510465 -0.7716276187 0.61916140104 
-0.047116165222 -0.64052038378 0.7664944259 -0.26256459558 -0.40280294802 0.87681789342 -0.26256459558 -0.40280294802 0.87681789342 

FrenetNormal 3 120 double
-0.90331523985 0.1580694566 -0.3987927085 -0.90331523985 0.1580694566 -0.3987927085 -0.8891560144 0.20823726632 -0.40747861658 
-0.86947926542 0.26355778742 -0.41778355605 -0.84219794195 0.32296352591 -0.43173740573 -0.80464822846 0.3836521677 -0.4531580769 
-0.75335053963 0.44033651868 -0.48843291735 -0.68240489905 0.48411019438 -0.54768683885 -0.57826227744 0.49912898258 -0.64535493896 
-0.41312511724 0.45742949472 -0.7874553288 -0.1565674622 0.32484654211 -0.93271718857 0.1468361069 0.12911418386 -0.98069806018 
0.38908958225 -0.022280991546 -0.92093042864 0.54568908875 -0.079899563239 -0.83416993366 0.64496081787 -0.059958485135 -0.76185991066 
0.70543586537 0.013566740284 -0.70864390451 0.73469400036 0.12096213866 -0.66752744276 0.74344188064 0.2395847817 -0.62441436762 
0.74714779098 0.34859802251 -0.56590599673 0.75684363783 0.4371200012 -0.48591543753 0.77143084489 0.50512186937 -0.38697073357 
0.78544166889 0.55391155153 -0.27615824785 0.80192415069 0.57611797119 -0.15813203283 0.83744180471 0.5458826428 -0.026521010887 
0.89968397689 0.4149728841 0.13552212804 0.93423481748 0.13664822015 0.32944281709 0.84675541255 -0.19462774911 0.49510131347 
0.67284854175 -0.42840024008 0.60311530752 0.48317565888 -0.55025535997 0.68099950183 0.29878688287 -0.60066318191 0.74157274796 
0.13353479789 -0.60575943024 0.7843621424 0.0052991923144 -0.57914159993 0.81520974343 -0.064377565041 -0.51984598833 0.85183077987 
-0.054841696025 -0.41056662899 0.91017988966 0.010988606815 -0.24793276437 0.9687149193 0.055907569117 -0.066069332285 0.99624755309 
0.011089509954 0.11366234522 0.99345754517 -0.14236059081 0.32715376194 0.93418621175 -0.38563573398 0.566314292 0.72840456022 
-0.59361507054 0.7078802725 0.38278801944 -0.70975139077 0.69863418309 0.090350658646 -0.81028685831 0.58067286437 -0.079083701457 
-0.93430112371 0.32128765519 -0.1544527528 -0.98392312026 -0.078821948986 -0.16025727372 -0.90139850762 -0.40745944628 -0.14648389025 
-0.80447511681 -0.57153635179 -0.1617590338 -0.73433041695 -0.64704942178 -0.20514844508 -0.67318287187 -0.69166589715 -0.26157811022 
-0.58894794176 -0.74580163644 -0.31132015833 -0.44561239178 -0.83169470385 -0.3312303064 -0.17910724183 -0.943392615 -0.27916118978 
0.21548821221 -0.96759713524 -0.13160780479 0.55189009925 -0.83386404268 0.0093849170737 0.74982392941 -0.65880341318 0.061173014291 
0.86218423544 -0.50443748638 0.046702960196 0.93627667727 -0.35025767802 0.026562051766 0.98095506468 -0.19216797466 0.028260052995 
0.99730193678 -0.0064708679094 0.073123011192 0.9814911841 0.15018513518 0.11882542116 0.98983316245 0.12724143857 0.063560418748 
0.98586168478 -0.11299272761 -0.12373108743 0.87737013789 -0.35920517261 -0.3181089202 0.72296904313 -0.50988245607 -0.46619271087 
0.56019448691 -0.58551099401 -0.58596844005 0.3889008314 -0.61130465091 -0.68924797215 0.19903663867 -0.6019685577 -0.77331641132 
-0.0039163559195 -0.56201294461 -0.82711916448 -0.20677066923 -0.49764702373 -0.84237362857 -0.39483442381 -0.41799934774 -0.81815788394 
-0.55995874928 -0.33357997416 -0.75840002634 -0.70146409902 -0.25326438865 -0.66618711127 -0.83213851131 -0.18043310211 -0.52439431123 
-0.96928276847 -0.099199468425 -0.22505639342 -0.5757031293 0.12245321538 0.80843745395 0.44346210899 0.19583371259 0.87463736194 
0.67562400006 0.20827120375 0.70721659782 0.76908229646 0.24112735387 0.5919206201 0.82042537071 0.2875304685 0.49419473973 
0.8521298184 0.33933249862 0.39840711335 0.8694123666 0.39067384646 0.30248319373 0.87284953144 0.4396181862 0.21182432774 
0.86161266205 0.48878637932 0.13678997033 0.83436228956 0.54395399747 0.08918306115 0.79033364707 0.60852624717 0.071193629034 
0.72927880157 0.68036534541 0.07249431936 0.65128706511 0.75464497709 0.079599732167 0.55753383255 0.82609314844 0.082013021278 
0.45183729304 0.88901951965 0.074076678555 0.33951303001 0.93869152632 0.059909271986 0.22777027122 0.97247121995 0.049197865004 
0.12174541133 0.99086234361 0.058050588576 0.015127854979 0.9930844179 0.11642373865 -0.16124216607 0.91911114656 0.35949362185 
-0.46425193186 0.18862459447 0.86538483123 -0.42470884159 -0.53167838142 0.7327622388 -0.4082108385 -0.66487036055 0.62554881103 
-0.45354356595 -0.64925742665 0.61054322347 -0.52933004094 -0.55140909315 0.64479277272 -0.61147597906 -0.35674557592 0.70627878426 
-0.66128832703 -0.085134970434 0.74528503631 -0.66609827404 0.16739419486 0.7268371708 -0.67197617379 0.295157696 0.67921274748 
-0.70707629246 0.31259454956 0.6342931217 -0.76417925296 0.25320291092 0.59322706888 -0.83003281335 0.10163536274 0.54837558461 
-0.8645723966 -0.15579625576 0.47774689714 -0.76820423771 -0.55030357821 0.32715167886 -0.42739870575 -0.90228100514 0.056739176005 
-0.095816179276 -0.97691722425 -0.19092406016 0.065180011733 -0.92493360161 -0.3744988634 0.10064343551 -0.84173481722 -0.53042755997 
0.059101986618 -0.74768051158 -0.66142331965 -0.055255544612 -0.66918882736 -0.74103518009 -0.34819266107 -0.64165499832 -0.6834037854 
-0.91192453138 -0.41018632509 -0.011867087803 -0.82325112259 0.077566493493 0.56235311704 -0.72257811654 0.34447793365 0.59934615935 
-0.672643447 0.58763358643 0.4497083069 -0.58181575299 0.79101736799 0.18916118286 -0.58181575299 0.79101736799 0.18916118286 

FrenetBinormal 3 120 double
0.3440050033 -0.28847381348 -0.89355661076 0.3440050033 -0.28847381348 -0.89355661076 0.3423539248 -0.28813948237 -0.89429828853 
0.34236456019 -0.28814231387 -0.89429330473 0.34639623258 -0.28951550364 -0.89229503148 0.35840316413 -0.29464639243 -0.88585025561 
0.38411359969 -0.30822049483 -0.87031998087 0.43112312874 -0.3385123748 -0.8363864059 0.50801049681 -0.3986709751 -0.76353571544 
0.6126727689 -0.50013995172 -0.61195760224 0.7038292954 -0.62582412513 -0.33610785077 0.70583822836 -0.70826389847 0.012435654595 
0.62998858176 -0.7229468206 0.28365874117 0.55255000833 -0.71407983643 0.42985866921 0.5097915978 -0.7089357172 0.48736298146 
0.50665079943 -0.70882516365 0.49078697498 0.53636721692 -0.70604655138 0.46239428619 0.5802414879 -0.69534343498 0.42404872733 
0.61677617663 -0.68094051638 0.39485080867 0.63391525916 -0.67199614508 0.38284804454 0.63281791302 -0.6726724799 0.38347519312 
0.61833185296 -0.68253483065 0.38963049749 0.58566503509 -0.7058378534 0.3984838659 0.50781576076 -0.75927066123 0.40697815191 
0.33487048131 -0.85520643417 0.39558022664 0.026812741374 -0.94798752757 0.31717617262 -0.31013876354 -0.93675684337 0.16217448549 
-0.53702996074 -0.84356316671 -7.1026516969e-05 -0.65760514307 -0.74159437682 -0.13263957205 -0.71730781781 -0.65388648112 -0.24062826999 
-0.74154417259 -0.58613809417 -0.32642667578 -0.74625472382 -0.54494126696 -0.38228641454 -0.74607484938 -0.54182171734 -0.38704204647 
-0.75149423992 -0.58323688683 -0.30836851527 -0.7549269511 -0.63733637504 -0.15455627954 -0.74907383837 -0.66248379749 -0.0018980872286 
-0.74542851249 -0.66127456406 0.083977876157 -0.74711533955 -0.65460203176 0.11538998838 -0.74672947073 -0.65526575281 0.1141134994 
-0.73479515322 -0.67074341334 0.10089279586 -0.69315418611 -0.71547876811 0.087335025451 -0.58591047795 -0.80547090698 0.089025444937 
-0.34101217261 -0.93176626324 0.12458863841 0.047644521234 -0.98066317361 0.18981501395 0.36682099839 -0.89836371603 0.24162985921 
0.52121403916 -0.80984397583 0.26923718203 0.5876554297 -0.75727135618 0.28495822334 0.6254984416 -0.72128740299 0.29748307825 
0.67417577034 -0.66581688952 0.31964808825 0.75084674924 -0.54870639154 0.36762814777 0.8400623228 -0.29433628691 0.45569885233 
0.83230359544 0.11150294577 0.5429897035 0.6847939618 0.45959352703 0.56553604641 0.52259168478 0.64641303213 0.5559209682 
0.40025014539 0.73480594321 0.54759478352 0.28064882088 0.79138973022 0.5430824378 0.14681562787 0.82884017471 0.53987881622 
-0.033468954655 0.84647251244 0.53137944518 -0.190282509 0.83485125478 0.51654230142 -0.1416567622 0.84171719245 0.52100434707 
0.16096897861 0.84373370436 0.51205705156 0.47215633739 0.76432228607 0.43918086943 0.6783662525 0.65175005983 0.33917707319 
0.80859061102 0.54013707183 0.233309167 0.89338055957 0.43295575743 0.12008533585 0.94569641759 0.32491189665 -0.0095155224138 
0.96333602129 0.21977363688 -0.15389366007 0.94422168848 0.12404723871 -0.3050535782 0.89089927479 0.043417854333 -0.45212097064 
0.80863280922 -0.020683952355 -0.58794995873 0.7001728041 -0.070369304131 -0.71049715371 0.54711958954 -0.11265053169 -0.82943957733 
0.23869314077 -0.15878485517 -0.95802554993 -0.81650188773 -0.13867315267 -0.56044127619 -0.89513382553 0.047151705404 0.44329691074 
-0.73426821855 0.10395632198 0.67085264131 -0.63064029687 0.13566565025 0.76412541334 -0.55023462772 0.16215582165 0.8191137552 
-0.47679606459 0.1895719498 0.85832860178 -0.40699153243 0.21914800423 0.88675365507 -0.34492107217 0.24873214288 0.90507556318 
-0.29989898463 0.27282565227 0.91412622897 -0.28265673965 0.28331125275 0.91642779399 -0.29426377144 0.27509867309 0.91527567043 
-0.32394646283 0.25001326405 0.91244290617 -0.35886125145 0.21387648297 0.90855679637 -0.38995109054 0.17339619425 0.90436270755 
-0.41276620571 0.13472545341 0.90081802359 -0.4287493382 0.097753427072 0.89811929747 -0.44047959757 0.05784431216 0.89589718142 
-0.44998833728 0.0029702688769 0.89302949213 -0.45631213511 -0.09674802821 0.8845445463 -0.43196793623 -0.39324093704 0.81164355939 
-0.096680237422 -0.98201356897 0.16217978309 0.25162075933 -0.84681981252 -0.46859705356 0.32130453088 -0.74603678416 -0.58326024647 
0.31380192645 -0.75751930452 -0.57244462985 0.25582828959 -0.82835818307 -0.49837195626 0.13279656031 -0.92620459003 -0.3528599311 
-0.043753251661 -0.98746968442 -0.15162214653 -0.20978748778 -0.97719679442 0.03279687398 -0.29382076812 -0.94812922666 0.12132734966 
-0.30186549432 -0.94458143303 0.12900829322 -0.25173389354 -0.96386696085 0.087123639885 -0.12423262574 -0.99224448541 -0.0041395490793 
0.10029143972 -0.98509477598 -0.13974945241 0.45965903927 -0.82979986312 -0.31645814064 0.80569850929 -0.40861463285 -0.42881697023 
0.91516812674 -0.011014697262 -0.40292179917 0.91785929097 0.20281964469 -0.34117226399 0.90902334826 0.29450123344 -0.294865352 
0.9067224333 0.31736399577 -0.27773102661 0.90666779103 0.2772301034 -0.31795752308 0.84839810969 0.094385303388 -0.5208762444 
0.20701451163 -0.43487956149 -0.87637021798 -0.49618446867 -0.57958131693 -0.64644138955 -0.67575948974 -0.53472027387 -0.50736903802 
-0.7384652058 -0.49438892186 -0.45852887997 -0.76977286437 -0.46047943342 -0.44205025583 -0.76977286437 -0.46047943342 -0.44205025583 

plain_curvature_peaks 1 120 unsigned_char
0 0 0 0 0 0 0 0 0 
0 0 0 0 0 0 0 0 0 
0 0 0 0 0 0 0 0 0 
1 0 0 0 0 0 0 0 0 
0 0 0 0 0 0 0 0 0 
0 0 0 0 0 0 0 0 0 
0 0 0 0 0 0 0 0 0 
0 0 0 0 0 0 0 0 0 
0 0 1 0 0 0 0 0 0 
0 0 0 0 0 0 0 0 0 
0 0 0 0 0 0 0 0 0 
0 0 1 0 0 0 0 0 0 
0 0 0 0 0 1 0 0 0 
0 0 0 
weighted_curvature_peaks 1 120 unsigned_char
0 0 0 0 0 0 0 0 0 
0 0 0 0 0 0 0 0 0 
0 0 0 0 0 0 0 0 0 
0 0 1 0 0 0 0 0 0 
0 0 0 0 0 0 0 0 0 
0 0 0 0 0 0 0 0 0 
0 0 0 0 0 0 0 0 0 
0 0 0 0 0 0 0 0 0 
0 0 0 0 0 0 0 1 0 
0 0 0 0 0 0 0 0 0 
0 0 0 0 0 0 0 0 0 
0 0 0 0 0 0 1 0 0 
0 0 0 0 0 0 0 0 1 
0 0 0 
plain_torsion_tp 1 120 unsigned_char
0 0 0 0 0 0 0 0 0 
0 0 0 0 0 0 0 0 0 
0 0 0 0 0 0 0 0 0 
1 0 0 0 0 0 0 0 0 
0 0 0 0 0 0 0 0 0 
0 0 0 0 0 0 0 0 0 
0 0 0 0 0 0 0 0 0 
0 0 0 0 0 0 0 0 0 
0 0 1 0 0 0 0 0 0 
0 0 0 0 0 0 0 0 0 
0 0 0 0 0 0 0 0 0 
0 0 1 0 0 0 0 0 0 
0 0 0 0 0 1 0 0 0 
0 0 0 
plain_torsion_tn 1 120 unsigned_char
0 0 0 0 0 0 0 0 2 
0 0 0 0 0 0 0 0 0 
0 0 0 0 0 0 0 0 0 
0 0 0 0 0 0 0 0 0 
0 0 0 0 0 0 0 0 0 
0 0 0 0 0 0 0 0 0 
2 0 0 0 0 0 0 0 0 
0 0 0 0 0 0 0 0 0 
0 0 0 0 0 0 0 0 0 
0 0 0 0 0 0 2 0 0 
0 0 0 0 0 0 0 0 0 
0 0 0 0 0 0 0 0 0 
2 0 0 0 0 0 0 0 0 
0 0 0 
plain_torsion_tz 1 120 unsigned_char
0 0 0 0 0 0 0 0 0 
0 3 0 0 0 0 0 0 0 
0 0 0 0 0 0 0 0 0 
0 0 0 0 0 0 0 0 0 
0 0 0 0 0 0 0 0 0 
3 0 0 0 0 0 0 0 0 
0 0 0 0 0 0 0 0 0 
3 0 0 0 0 0 0 0 0 
0 0 0 0 0 0 0 0 0 
0 0 0 0 0 0 0 0 0 
3 0 0 0 0 0 0 0 0 
0 0 0 0 0 0 0 0 3 
0 3 0 0 0 0 0 0 0 
0 0 0 
weighted_torsion_tp 1 120 unsigned_char
0 0 0 0 0 0 0 0 0 
0 0 0 0 0 0 0 0 0 
0 0 0 0 0 0 0 0 0 
0 0 1 0 0 0 0 0 0 
0 0 0 0 0 0 0 0 0 
0 0 0 0 0 0 0 0 0 
0 0 0 0 0 0 0 0 0 
0 0 0 0 0 0 0 0 0 
0 0 0 0 0 0 0 1 0 
0 0 0 0 0 0 0 0 0 
0 0 0 0 0 0 0 0 0 
0 0 0 0 0 0 1 0 0 
0 0 0 0 0 0 0 0 1 
0 0 0 
weighted_torsion_tn 1 120 unsigned_char
0 0 0 0 0 0 0 0 0 
0 2 0 0 0 0 0 0 0 
0 0 0 0 0 0 0 0 0 
0 0 0 0 0 0 0 0 0 
0 0 0 0 0 0 0 0 0 
0 0 0 0 0 0 0 0 0 
0 0 0 0 0 0 2 0 0 
0 0 0 0 0 0 0 0 0 
0 0 0 0 0 0 0 0 0 
0 0 0 0 0 0 0 0 0 
0 0 2 0 0 0 0 0 0 
0 0 0 0 0 0 0 0 0 
0 0 0 0 2 0 0 0 0 
0 0 0 
weighted_torsion_tz 1 120 unsigned_char
0 0 0 0 0 0 0 0 0 
0 0 3 0 0 0 0 0 0 
0 0 0 0 0 0 0 0 0 
0 0 0 0 0 0 0 0 0 
0 0 0 0 0 0 0 0 0 
0 0 0 0 3 0 0 0 0 
0 0 0 0 0 0 0 0 0 
0 0 0 0 0 3 0 0 0 
0 0 0 0 0 0 0 0 0 
0 0 0 0 0 0 0 0 0 
0 0 0 0 0 3 0 0 0 
0 0 0 0 0 0 0 0 0 
0 0 0 3 3 0 0 0 0 
0 0 0 
plain_torsion_tp_raw 1 120 unsigned_char
0 0 0 0 0 0 0 0 0 
0 0 0 0 0 0 0 0 0 
0 0 0 0 0 0 0 0 0 
0 0 0 0 0 0 0 0 1 
0 0 0 0 0 0 0 0 0 
0 0 0 0 0 0 0 0 0 
0 0 0 1 0 0 0 0 0 
0 0 0 0 0 0 0 0 0 
0 0 0 0 0 0 0 0 0 
0 0 0 0 0 0 0 1 0 
0 0 0 0 0 0 0 0 0 
0 0 0 0 1 0 0 0 0 
0 0 1 0 0 0 0 1 0 
0 0 0 
plain_torsion_tn_raw 1 120 unsigned_char
0 0 0 0 0 0 0 0 0 
0 0 0 0 0 0 0 0 0 
2 0 0 0 0 0 0 0 0 
0 0 0 0 0 0 0 0 0 
0 0 0 0 0 0 0 0 0 
0 0 0 0 2 0 0 0 0 
0 0 0 0 0 0 0 0 0 
0 0 0 0 0 0 0 0 0 
0 0 0 0 0 0 0 0 0 
0 0 0 2 0 0 0 0 0 
0 0 0 2 0 0 0 0 0 
0 0 0 0 0 0 0 0 0 
2 0 0 2 0 0 0 0 0 
0 0 0 
plain_torsion_tz_raw 1 120 unsigned_char
0 0 0 0 0 0 0 0 3 
0 0 0 0 0 0 0 0 0 
0 0 0 0 0 0 0 0 0 
0 0 3 0 0 0 0 0 0 
3 0 0 0 0 0 0 0 0 
0 0 0 0 0 0 0 0 3 
0 0 0 0 0 0 0 0 0 
0 0 0 0 0 0 0 0 0 
0 0 0 0 0 0 0 0 0 
0 0 0 0 0 0 0 0 0 
0 0 0 0 0 0 0 0 0 
0 0 0 0 0 0 0 0 0 
0 0 0 0 0 0 0 0 0 
0 0 0 
weighted_torsion_tp_raw 1 120 unsigned_char
0 0 0 0 0 0 0 0 0 
0 0 0 0 0 0 0 0 0 
0 0 0 0 0 0 0 0 0 
0 0 0 0 0 0 0 0 0 
0 0 1 0 0 0 0 0 0 
0 0 0 0 0 0 0 0 0 
0 0 0 0 0 0 0 0 0 
1 0 0 0 0 0 0 0 0 
0 0 0 0 0 0 0 0 0 
0 0 0 0 0 0 0 0 0 
0 0 0 0 1 0 0 0 0 
0 0 0 0 0 0 0 0 0 
1 0 0 0 0 1 0 0 0 
1 0 0 
weighted_torsion_tn_raw 1 120 unsigned_char
0 0 0 0 0 0 0 0 0 
0 0 0 0 0 0 0 0 0 
0 0 2 0 0 0 0 0 0 
0 0 0 0 0 0 0 0 0 
0 0 0 0 0 0 0 0 0 
0 0 0 0 0 0 0 0 2 
0 0 0 0 0 0 0 0 0 
0 0 0 0 0 0 0 0 0 
0 0 0 0 0 0 0 0 0 
0 0 0 0 0 0 0 2 0 
0 0 0 0 0 0 0 0 2 
0 0 0 0 0 0 0 0 0 
0 0 0 0 2 0 2 0 0 
0 0 0 
weighted_torsion_tz_raw 1 120 unsigned_char
0 0 0 0 0 0 0 0 0 
0 3 0 0 0 0 0 0 0 
0 0 0 0 0 0 0 0 0 
0 0 0 0 3 0 0 0 0 
0 0 0 0 3 0 0 0 0 
0 0 0 0 0 0 0 0 0 
0 0 0 0 0 3 0 0 0 
0 0 0 0 0 0 0 0 0 
0 0 0 0 0 0 0 0 0 
0 0 0 0 0 0 0 0 0 
0 0 0 0 0 0 0 0 0 
0 0 0 0 0 0 0 0 0 
0 0 0 0 0 0 0 0 0 
0 0 0 
