# vtk DataFile Version 5.1
vtk output
ASCII
DATASET POLYDATA
POINTS 120 float
-0.943625 14.1148 -10.1142 -1.34147 13.6251 -10.2758 -1.75429 13.2607 -10.2045 
-2.17131 12.9921 -9.95498 -2.58187 12.7906 -9.58194 -2.97569 12.6284 -9.13929 
-3.34366 12.4806 -8.67908 -3.67886 12.3273 -8.24946 -3.97808 12.1548 -7.89232 
-4.24327 11.9562 -7.64077 -4.48227 11.7303 -7.51681 -4.70775 11.4798 -7.52967 
-4.93436 11.2085 -7.67492 -5.17468 10.9196 -7.93495 -5.43547 10.6139 -8.28167 
-5.71524 10.2899 -8.68134 -6.00376 9.94456 -9.10047 -6.28353 9.57516 -9.51171 
-6.53267 9.18105 -9.8982 -6.72863 8.76499 -10.2554 -6.85193 8.33314 -10.59 
-6.88933 7.89367 -10.9167 -6.83582 7.45448 -11.2526 -6.69498 7.02086 -11.6115 
-6.4779 6.59407 -11.9997 -6.20118 6.17111 -12.4124 -5.88466 5.74596 -12.8331 
-5.54962 5.31188 -13.2355 -5.21736 4.86445 -13.587 -4.90807 4.40471 -13.8532 
-4.63961 3.94148 -14.0043 -4.4261 3.49225 -14.0197 -4.2768 3.08185 -13.8917 
-4.19536 2.73915 -13.6265 -4.17971 2.49152 -13.2427 -4.22284 2.35924 -12.7677 
-4.31411 2.35113 -12.2327 -4.4411 2.46138 -11.6679 -4.59148 2.67052 -11.098 
-4.7546 2.94878 -10.5397 -4.92244 3.26114 -10.001 -5.08976 3.57341 -9.48171 
-5.25346 3.85768 -8.97576 -5.41145 4.09608 -8.47368 -5.56135 4.28179 -7.96529 
-5.69959 4.41682 -7.44196 -5.8213 4.50828 -6.8984 -5.92071 4.56335 -6.33364 
-5.99198 4.58547 -5.7513 -6.03001 4.57246 -5.15926 -6.0315 4.51709 -4.5684 
-5.99566 4.40927 -3.991 -5.92509 4.23888 -3.43895 -5.82587 3.9985 -2.92197 
-5.70703 3.68574 -2.44605 -5.57894 3.30367 -2.01264 -5.45137 2.86145 -1.61852 
-5.33132 2.37228 -1.25685 -5.22159 1.85182 -0.91856 -5.12017 1.3154 -0.594458 
-5.02089 0.776129 -0.276708 -4.91517 0.243461 0.0400114 -4.79454 -0.278024 0.358434 
-4.653 -0.787884 0.67889 -4.48861 -1.28926 1.00023 -4.30378 -1.78752 1.32055 
-4.10418 -2.28837 1.63782 -3.89678 -2.79652 1.94998 -3.68734 -3.31433 2.25572 
-3.47841 -3.84063 2.5532 -3.26797 -4.37069 2.84121 -3.0492 -4.89666 3.11813 
-2.81148 -5.40778 3.38258 -2.54244 -5.89282 3.63407 -2.23062 -6.34088 3.873 
-1.86816 -6.74301 4.10177 -1.45269 -7.09379 4.32458 -0.98789 -7.3905 4.5475 
-0.48253 -7.63324 4.77734 0.0515586 -7.82358 5.02021 0.601946 -7.96363 5.2807 
1.1579 -8.05542 5.56036 1.71183 -8.10091 5.8572 2.2597 -8.10231 6.16663 
2.80052 -8.06229 6.48233 3.33531 -7.98441 6.79824 3.86587 -7.87321 7.11001 
4.39384 -7.73431 7.41563 4.92027 -7.57397 7.71616 5.44554 -7.39925 8.01395 
5.96968 -7.21766 8.31254 6.49269 -7.03716 8.61519 7.01471 -6.86542 8.9241 
7.53598 -6.70973 9.23996 8.05647 -6.57636 9.56265 8.57506 -6.47047 9.89166 
9.08965 -6.39525 10.227 9.59625 -6.35219 10.5698 10.0897 -6.34225 10.9219 
10.5648 -6.36584 11.2857 11.016 -6.42427 11.663 11.4396 -6.52001 12.054 
11.8324 -6.65651 12.4576 12.1914 -6.83717 12.8716 12.5132 -7.0641 13.2941 
12.7927 -7.33645 13.7238 13.0242 -7.65 14.1606 13.2022 -7.99565 14.6051 
13.3225 -8.35989 15.0585 13.3827 -8.72483 15.5219 13.3837 -9.07067 15.9962 
13.3294 -9.37796 16.4812 13.2278 -9.63226 16.9752 13.0917 -9.8275 17.4752 
12.9394 -9.96785 17.9761 12.7941 -10.0682 18.4715 12.6834 -10.1519 18.9543 
12.6374 -10.2478 19.4168 12.6876 -10.3875 19.8513 12.8658 -10.6033 20.2498 

LINES 2 120
OFFSETS vtktypeint64
0 120 
CONNECTIVITY vtktypeint64
0 1 2 3 4 5 6 7 8 
9 10 11 12 13 14 15 16 17 
18 19 20 21 22 23 24 25 26 
27 28 29 30 31 32 33 34 35 
36 37 38 39 40 41 42 43 44 
45 46 47 48 49 50 51 52 53 
54 55 56 57 58 59 60 61 62 
63 64 65 66 67 68 69 70 71 
72 73 74 75 76 77 78 79 80 
81 82 83 84 85 86 87 88 89 
90 91 92 93 94 95 96 97 98 
99 100 101 102 103 104 105 106 107 
108 109 110 111 112 113 114 115 116 
117 118 119 
CELL_DATA 1
FIELD FieldData 2
Length 1 1 double
69.444590311 
Tortuosity 1 1 double
0.67268075916 
POINT_DATA 120
FIELD FieldData 19
Curvature 1 120 double
0 0.70992481709 0.67898830823 0.42170747978 0.2160743807 0.090523905132 0.052425661367 0.16380096483 0.39019448405 
0.81164426497 1.2218641661 1.008904244 0.51820381511 0.2173390651 0.070689074598 0.019841339209 0.069372892409 0.11836574193 
0.17112752879 0.22920436463 0.28101946075 0.30097226913 0.27160462709 0.20624385399 0.13331783356 0.074039547222 0.059235472557 
0.10790637708 0.19172739796 0.31617802328 0.49455379751 0.70783439319 0.86070523857 0.84637192541 0.69741004121 0.52241027861 
0.3738347394 0.2595461948 0.17052669849 0.095281580969 0.026051297881 0.047044541725 0.1119312682 0.15801596583 0.17263766819 
0.16032753384 0.14231953618 0.13458989929 0.14064408864 0.15925612645 0.18836974418 0.22176523862 0.24858203879 0.25519175552 
0.2370002055 0.19711934284 0.1487961795 0.10005551475 0.056154184559 0.017874601895 0.019497177695 0.045403072337 0.061387892559 
0.063808793946 0.053549470455 0.037180888098 0.026121886867 0.02607101116 0.028246062701 0.025161893076 0.033025105092 0.063131707331 
0.10699421372 0.15581687628 0.19663799511 0.21523573215 0.20919156226 0.18635304477 0.16138337826 0.14340414337 0.13263382202 
0.12487766153 0.11680078015 0.10761256509 0.097615484845 0.086500980184 0.072844896113 0.056232873357 0.037060174018 0.017335983483 
0.010823541487 0.027189926177 0.044006022504 0.058991016781 0.071810206355 0.081123292627 0.088266551067 0.09751739933 0.10826900689 
0.12341174479 0.13908102605 0.15507978112 0.16924216147 0.18064687732 0.18668053282 0.18732448469 0.18162557827 0.17504658117 
0.17321936173 0.18147577126 0.19997812208 0.21743402315 0.21740746971 0.18711814882 0.13236775977 0.12439875784 0.2656535006 
0.50315963042 0.69146814217 0 
Torsion 1 120 double
0 0 -0.045326395216 -0.098655422341 -0.25084995481 -1.045390475 -3.3201544644 -0.6737553689 -0.38292418716 
-0.27584599613 -0.21389594386 -0.22674323796 -0.27085925554 -0.23732816426 0.20314323949 4.23859006 -0.1090566174 -0.34535593146 
-0.41530829267 -0.42011919927 -0.37666315481 -0.31046517591 -0.23308567688 -0.1228750705 0.10759395378 0.83722620171 1.4462832004 
0.4090802244 0.10165170059 0.0023201373514 -0.045242361696 -0.074623113989 -0.093525548542 -0.10527173495 -0.10702774054 -0.093313264908 
-0.068681784467 -0.04087485373 -0.0035385221848 0.089087793908 1.5246473831 0.52936200387 0.15283797681 0.15313168852 0.20893916736 
0.28191870763 0.29068506785 0.16001119456 -0.026891282574 -0.14736875099 -0.18759684422 -0.18881095991 -0.18116618332 -0.17903267579 
-0.18079613256 -0.18725230264 -0.19120327488 -0.17927560851 -0.089971856434 1.065541946 0.76903329599 -0.057431301964 -0.1513371945 
-0.21624008687 -0.34734852647 -0.69663073454 -1.1347164661 -0.59080133676 0.10904488399 0.98958310923 1.0847841297 0.42937276024 
0.19691463182 0.13250830085 0.11954008561 0.14006890596 0.18418798884 0.23502043239 0.27123785987 0.24594041553 0.14548783115 
0.022720321397 -0.090351249297 -0.17339435634 -0.20175861171 -0.1799661646 -0.10796374973 -0.001648210534 0.16507306324 1.0082017819 
2.505658876 0.45466263079 0.20229929798 0.097500405792 0.012495845013 -0.080448135836 -0.16264802951 -0.18501536769 -0.15408945445 
-0.06729512085 0.014468304919 0.052514511374 0.037735454645 -0.021921742099 -0.098088903292 -0.17808493263 -0.26723331016 -0.36213454484 
-0.4327262555 -0.43339679717 -0.36627355841 -0.30034018632 -0.30082925585 -0.46925814324 -1.2899244717 -2.2198953743 -0.73820828776 
-0.27058204005 0 0 
FrenetTangent 3 120 double
-0.68640649692 -0.72319541564 -0.07638397593 -0.68640649692 -0.72319541564 -0.07638397593 -0.76000482656 -0.5797171696 0.29380378977 
-0.727690394 -0.41332641801 0.54738283007 -0.66922487897 -0.30264351001 0.67863463455 -0.6237535848 -0.25383991028 0.73925419539 
-0.59925155962 -0.25658947978 0.75832671531 -0.59743222512 -0.30682937639 0.74089842095 -0.62071695466 -0.4081613613 0.6694137475 
-0.66467602818 -0.55959609962 0.49503331488 -0.68858907457 -0.70620018032 0.16470091592 -0.63832219264 -0.73668444606 -0.2232505438 
-0.55965087951 -0.67143840193 -0.48575854648 -0.50804878698 -0.60289393274 -0.61514659709 -0.48429051671 -0.56418558675 -0.66869822725 
-0.47334907821 -0.55749923109 -0.68200825325 -0.46044902928 -0.57907813257 -0.67279655752 -0.43198418862 -0.62359670577 -0.65154954481 
-0.37516821531 -0.68288044291 -0.62683579262 -0.28006766784 -0.74380445088 -0.60689129198 -0.1453545191 -0.78808504364 -0.59815886499 
0.014636118988 -0.79837319007 -0.60198507739 0.1716318485 -0.77075709764 -0.61357640521 0.29966206152 -0.72034483361 -0.62554453844 
0.38950166564 -0.6702767901 -0.63167830191 0.44645246533 -0.63826554033 -0.62713419315 0.48028247899 -0.63336537296 -0.60677594276 
0.49866054278 -0.65873189045 -0.56339147986 0.50465853186 -0.7135970905 -0.48590015296 0.49544958531 -0.79148508684 -0.35788415127 
0.46109930084 -0.87294142558 -0.15925043885 0.38602844319 -0.91466564835 0.1198698994 0.26209802275 -0.85544594522 0.44667310337 
0.10999687844 -0.6688056662 0.73525483173 -0.02925800296 -0.40439622618 0.91411578124 -0.13067975664 -0.1365090835 0.98198170621 
-0.19385938801 0.090719591504 0.97682572314 -0.22903596969 0.26374002996 0.93700785545 -0.24717311472 0.38428477926 0.88951147254 
-0.2567396126 0.45816207413 0.8509831286 -0.26317009773 0.49047065541 0.83077074807 -0.26879731253 0.48440953995 0.83252351461 
-0.27258469683 0.44287533457 0.85414227216 -0.27047891063 0.37257990501 0.88770793242 -0.25768220792 0.28684178197 0.92267094451 
-0.23184601004 0.2020036275 0.95154714129 -0.19402993754 0.12857364667 0.97253339311 -0.14684867721 0.066412506781 0.98692697042 
-0.0926703276 0.0077196299962 0.99566692106 -0.033333419589 -0.05767536292 0.99777875085 0.029115131933 -0.13827950199 0.98996519556 
0.09109434878 -0.23817858404 0.96693990595 0.14665109667 -0.35479812406 0.92336977805 0.1884250607 -0.47795433715 0.85793685554 
0.21091335675 -0.59349671505 0.77670921532 0.21382101472 -0.68939925296 0.6921049369 0.2021810001 -0.76047181538 0.61709436978 
0.1838423497 -0.80780771555 0.5600434672 0.16691118278 -0.83544887004 0.52360848219 0.15820563727 -0.84793086765 0.50594883142 
0.16239049046 -0.84913371949 0.50259452348 0.18088407026 -0.84241229716 0.50756524184 0.21122364833 -0.83092744249 0.51472726341 
0.24748611911 -0.81804597434 0.51918340181 0.28205825341 -0.80737847787 0.5182500701 0.30852806693 -0.80185124579 0.51170793579 
0.32380120782 -0.80274063121 0.50075967971 0.32870523512 -0.80903416721 0.48725412743 0.32777995815 -0.8180421031 0.47261762197 
0.32801874965 -0.82624873224 0.45794839486 0.33737416993 -0.83006195528 0.44404483992 0.3635083798 -0.82584064692 0.4311019412 
0.41166500244 -0.80923592114 0.41912903705 0.48261061739 -0.77527794589 0.4074691382 0.5706444919 -0.71951170692 0.39581279346 
0.66318718906 -0.64185592113 0.38497237404 0.74588483898 -0.54864513839 0.37768282871 0.8092521561 -0.44997683996 0.37766624333 
0.85113095342 -0.35461950654 0.38706731418 0.87428711531 -0.2663565677 0.40580317747 0.88309747607 -0.18505574166 0.43115336047 
0.88212792473 -0.10911149551 0.45819756216 0.87551115845 -0.037257108056 0.48175939983 0.86679464904 0.030750086868 0.49771625305 
0.85849558448 0.094098359828 0.50411390588 0.85167962371 0.15115640655 0.50179035394 0.84636133076 0.19996736225 0.49364516794 
0.84184656458 0.23891369877 0.48395723597 0.83766326569 0.2668736951 0.47654872171 0.83384154185 0.28311734109 0.47387008163 
0.83067108918 0.28723515807 0.47695021288 0.82871868213 0.27933094849 0.48497377982 0.82842861888 0.25999752222 0.49609203971 
0.82968222596 0.2302138354 0.50855579233 0.83148815325 0.19145557518 0.52150955287 0.83210590135 0.14586443273 0.5350918951 
0.82921328453 0.096045516234 0.55061836835 0.82044378184 0.043478201893 0.57007161551 0.80408539439 -0.01132982453 0.59440584923 
0.77898584971 -0.068970545848 0.62323680071 0.74487211503 -0.13126568108 0.65416729758 0.70213769157 -0.19975313154 0.68344813155 
0.65086344749 -0.27457118736 0.70780465935 0.59049625391 -0.3535131216 0.72549476013 0.51999502807 -0.4318049818 0.73698685774 
0.4389333904 -0.50329385419 0.74433377937 0.34872987134 -0.56134908048 0.75051628009 0.252192547 -0.60014913422 0.75909152013 
0.15232596428 -0.61522927177 0.77349191577 0.051968812725 -0.60325863382 0.79585065384 -0.045949031834 -0.56218282549 0.82573552497 
-0.13685086301 -0.49289680244 0.85925815878 -0.21283075136 -0.40261438294 0.89028351098 -0.26351733229 -0.30667634822 0.91460824019 
-0.2788570107 -0.2255567163 0.93346822941 -0.24909788817 -0.17905870911 0.95178160352 -0.16070717453 -0.18417540892 0.969666243 
0.0045028012109 -0.25400570009 0.96719223999 0.24448325927 -0.38065854364 0.89181108374 0.24448325927 -0.38065854364 0.89181108374 

FrenetNormal 3 120 double
-0.33449830627 0.22071478348 0.91618549839 -0.33449830627 0.22071478348 0.91618549839 -0.02102559114 0.47375793058 0.88040408207 
0.23568552977 0.59877632373 0.76545362054 0.42164389465 0.59735241263 0.6821924371 0.64000696068 0.37706562713 0.66948682072 
0.44125909309 -0.89622827979 0.045445387789 -0.11790176071 -0.88025797787 -0.45961404158 -0.2043032469 -0.74010581358 -0.64070552363 
-0.14857757715 -0.55034284882 -0.82161271431 0.025679257753 -0.2507308861 -0.96771617661 0.22188434187 0.10162604481 -0.96976259252 
0.31773226705 0.36751356757 -0.87405948546 0.3243990296 0.52766163831 -0.7850722674 0.34671511681 0.57797191471 -0.7387402071 
0.71528418167 -0.69513682527 0.071786722972 0.41166127411 -0.81079070962 0.41611707558 0.55483616463 -0.75330112359 0.35312072669 
0.73792175341 -0.62927800528 0.24388660873 0.89232851949 -0.43482902136 0.12113436958 0.98130901344 -0.19190118557 0.014372025515 
0.99652726504 0.061002705818 -0.056675214224 0.95439380928 0.28452195283 -0.090441777788 0.88970646448 0.4477047289 -0.08934697967 
0.85145801303 0.52353484702 -0.030504360228 0.88730384814 0.40635727347 0.21809550058 0.6179224603 -0.24663939203 0.74655263937 
0.16282126124 -0.56721391048 0.80731506653 -0.0086027468233 -0.56695675028 0.82370263813 -0.10956537079 -0.46565890629 0.87815557421 
-0.20552379872 -0.27965136777 0.93784597918 -0.30491458357 -0.0038757203372 0.95237181579 -0.38429747111 0.33205223636 0.86142716815 
-0.41017728158 0.64326940289 0.64649754291 -0.37528060177 0.85205162878 0.36492806391 -0.30346022095 0.94844419265 0.091463149565 
-0.22529225794 0.96498628215 -0.1343312092 -0.1587167834 0.93959559495 -0.30326407735 -0.11610661543 0.89963557415 -0.42092171193 
-0.11798025762 0.85905468799 -0.49810209983 -0.35687816013 0.7505488214 -0.55616044944 -0.18416286915 -0.87423481969 0.44921878596 
-0.029468226404 -0.89118664517 0.45267867976 0.072479301528 -0.91158006416 0.40468325573 0.19797449671 -0.91898562006 0.34098611229 
0.35864108104 -0.89153935216 0.27664807707 0.53122182585 -0.81966956409 0.21434826206 0.65493403468 -0.74118580658 0.14732620388 
0.69128662795 -0.71919014723 0.069916594233 0.6533026477 -0.75677948574 -0.021919408684 0.57128766338 -0.81038938917 -0.12999785995 
0.46683611541 -0.84746223196 -0.25272872166 0.34991115528 -0.85450294904 -0.38391000703 0.22291636377 -0.82996884045 -0.5113316132 
0.087570194879 -0.77991660649 -0.61972699464 -0.050111855845 -0.71529827724 -0.69702021239 -0.18636884121 -0.64846879157 -0.73807511906 
-0.31236709414 -0.58823244473 -0.7459285418 -0.40340103925 -0.5424400564 -0.7369032411 -0.27271066932 -0.52999380559 -0.80295420597 
0.9352715083 0.29479470126 0.19586548922 0.89846531093 0.35145874134 0.26312893833 0.92197881527 0.3442363936 0.17735943594 
0.94579302691 0.32028199212 0.053805165002 0.95861784563 0.25894259933 -0.11832394642 0.91460094276 0.10225355855 -0.39121519048 
0.57404630664 -0.25403504182 -0.7784195754 0.025714475165 -0.50806464036 -0.86093500741 -0.12611100584 -0.53366328409 -0.83624130095 
0.17113326896 -0.42477570286 -0.8889763813 0.76216708503 -0.036003951412 -0.64637841083 0.91836006088 0.2399529774 -0.31470202926 
0.91127146516 0.37096043073 -0.1788090479 0.87072152247 0.4749062043 -0.12770327884 0.80577833827 0.58355951199 -0.10089383296 
0.7168146676 0.69266024401 -0.079990741189 0.60381534464 0.7963251643 -0.035682800808 0.47107211043 0.8811653894 0.04047991218 
0.32303498449 0.93501055578 0.14629989535 0.16861281742 0.95059026647 0.26066810907 0.034908046604 0.94229956315 0.33294588385 
-0.059532194679 0.93916841384 0.33825819759 -0.11426528466 0.95278067859 0.28134040453 -0.13103584831 0.97706684529 0.16783916794 
-0.12357693568 0.9920129619 0.025278931677 -0.10892326078 0.9876477116 -0.11263978438 -0.10007003462 0.97004060707 -0.22137571863 
-0.12188447563 0.95767972509 -0.26075605217 -0.16885123187 0.95629228718 -0.2387348382 -0.33259237689 0.94281517588 0.021951195098 
-0.3958014635 -0.29782609832 0.86870064847 -0.073357126036 -0.80485244146 0.5889238317 0.020952081909 -0.89949460397 0.43642922416 
0.048755912193 -0.93740749219 0.34480437151 0.037393968158 -0.95589845288 0.29130712131 -0.010955438761 -0.96028461483 0.27880716791 
-0.09813012355 -0.94480728122 0.31258547665 -0.20788893042 -0.90616468697 0.36830388634 -0.31513441591 -0.85592203336 0.40998508842 
-0.4077094407 -0.81085584945 0.41986402962 -0.47209419685 -0.79652573122 0.37772189348 -0.52272377711 -0.79635577449 0.30426523508 
-0.5684856158 -0.79419204168 0.21466975933 -0.62622471338 -0.7677617376 0.13558953731 -0.70184063257 -0.70776958097 0.080510537977 
-0.79097114637 -0.60943420389 0.054356202495 -0.88231198727 -0.46670923392 0.060893744348 -0.95700954791 -0.27084142449 0.10381545161 
-0.98405008966 -0.021653422308 0.1765688261 -0.93660805601 0.24706895711 0.24843969058 -0.82691852382 0.48516136996 0.28429597264 
-0.69229099182 0.66801226731 0.27293367943 -0.54397991104 0.80571522205 0.23432634794 -0.34543947931 0.9152446387 0.20736156218 
0.066923229227 0.96509854938 0.25319176797 0.8747531953 0.38017188365 0.30045995771 0.95552950706 -0.27514602577 0.10610384366 
0.88924139757 -0.44140116498 -0.12006143595 0.80414738476 -0.43432908285 -0.40583892295 0.80414738476 -0.43432908285 -0.40583892295 

FrenetBinormal 3 120 double
-0.6457220796 0.65442598905 -0.39340770298 -0.6457220796 0.65442598905 -0.39340770298 -0.649577238 0.66293395334 -0.37224721004 
-0.6441420818 0.68602345901 -0.33830872314 -0.61184514991 0.74268230151 -0.27215530779 -0.4486898213 0.89072263516 -0.072736727147 
0.66797303917 0.36185177817 0.65028863558 0.79320483559 -0.3619414679 0.48971875869 0.75694824493 -0.5344601836 0.37600753536 
0.7322093151 -0.61965712619 0.28265626623 0.72469694501 -0.66212938922 0.19078524528 0.73709708805 -0.66855678438 0.098588583727 
0.7653999605 -0.643509324 0.0076583543105 0.79790456801 -0.5984079723 -0.072499648545 0.80327537196 -0.58961266058 -0.084294645606 
-0.51411009483 -0.45384953617 0.72781275676 -0.78646149736 -0.085363584564 0.61171183706 -0.71101792608 -0.2089606799 0.67140817916 
-0.56099937261 -0.37105726346 0.73999743997 -0.35399422981 -0.50762058768 0.78549947437 -0.12611377371 -0.58488964683 0.80124866123 
0.08197069016 -0.59906503759 0.79649349444 0.24428459917 -0.57007083314 0.78443883114 0.3444198832 -0.52977711956 0.77505557713 
0.35115196782 -0.52596605271 0.77463023882 0.11563769831 -0.6538278568 0.74775467662 -0.62249544049 -0.73349663574 0.27291411091 
-0.85136766438 -0.4943082806 -0.17559163925 -0.86327617769 -0.41150848805 -0.29225845633 -0.86169898337 -0.39587010535 -0.31742986903 
-0.86321920908 -0.39971037016 -0.308357288 -0.87063720216 -0.40419268984 -0.28039103356 -0.88522318099 -0.39743370155 -0.24171547882 
-0.90534815646 -0.37269753979 -0.20357126376 -0.92644937217 -0.3323728541 -0.17669138819 -0.94384039726 -0.2860400034 -0.16536753292 
-0.95480989532 -0.24611263879 -0.16663322849 -0.96039133027 -0.21817725487 -0.173341219 -0.96198997147 -0.20731869706 -0.1777477219 
-0.95925253721 -0.22828174888 -0.16649928826 -0.89631438596 -0.44284873589 -0.022483741586 0.94542691013 -0.032571116676 0.32420222077 
0.96168040777 0.098223222824 0.25597459212 0.95999370298 0.17379873706 0.21955885143 0.94573039413 0.27053137015 0.1800188862 
0.904225637 0.40540364827 0.13425304225 0.8247155601 0.55822094469 0.090739306986 0.74128056512 0.66800672083 0.065346344247 
0.71661356978 0.69477042211 0.061311109561 0.7563626998 0.6511208509 0.062905515437 0.82023332946 0.56933980824 0.055402779602 
0.87963961994 0.47442462784 0.03399134481 0.9252327487 0.37939820934 -0.0011659731068 0.95645401942 0.28759585444 -0.049843086259 
0.97357435099 0.19872527806 -0.11252220646 0.97558668275 0.11435490627 -0.18749287945 0.96145176594 0.034217603105 -0.27283631982 
0.93200256918 -0.037805894606 -0.36047458354 0.89967119471 -0.08822681431 -0.42756025381 0.94899940315 -0.010945762606 -0.31508780222 
-0.31447819378 0.43825564518 0.8420424307 -0.40005129444 0.40843392946 0.82045151416 -0.32456067935 0.43710512538 0.83880836595 
-0.21030019283 0.47772400964 0.85296752547 -0.0386648125 0.53017801136 0.84700431436 0.26137243048 0.58870942696 0.76492199811 
0.75207952747 0.53951244336 0.37855344117 0.94408242975 0.29552332819 -0.14619961807 0.93629926479 0.21450085494 -0.27808824137 
0.92904095934 0.36997112689 0.0020642515868 0.55252149639 0.55650774107 0.62049909763 0.15644953308 0.51030362974 0.84564398482 
-0.010781583534 0.45554975883 0.89014503014 -0.094504086089 0.41642310662 0.90424596985 -0.15838602662 0.37651188503 0.91277196879 
-0.21531252767 0.32900267913 0.91945513896 -0.28118114544 0.25466594752 0.92524722027 -0.35100144533 0.14514957807 0.9250565309 
-0.41379282125 0.00051591441954 0.91037093259 -0.45518321345 -0.15947515206 0.87599995324 -0.46788917069 -0.2789729481 0.83860230037 
-0.46723253548 -0.32566450833 0.82197103708 -0.46949297774 -0.30136503845 0.82991292161 -0.48114098023 -0.2107007641 0.85094567697 
-0.4977088229 -0.083998702948 0.8632671345 -0.51261831982 0.041276367597 0.85762388007 -0.5231237769 0.13796475878 0.84101559996 
-0.5257742256 0.16052971278 0.83533925743 -0.51943191546 0.11951356549 0.84611287241 -0.44055714037 -0.17590939515 0.88032112934 
0.39156958907 -0.91038210611 -0.13370743355 0.55483698323 -0.52362846437 -0.64650533899 0.55970262969 -0.35115629836 -0.75061456183 
0.55610274676 -0.26128295692 -0.7889746203 0.55428254722 -0.22271710871 -0.80197752296 0.55450856377 -0.23785925624 -0.79746048612 
0.55025067707 -0.31323227831 -0.77402179053 0.53259195775 -0.42068421178 -0.73441854586 0.504120004 -0.51698076162 -0.6918048234 
0.47639695415 -0.58116766532 -0.65976517555 0.47147916344 -0.59018309064 -0.65527957237 0.4834899326 -0.57089067856 -0.66356711658 
0.50319069681 -0.54209746726 -0.67300034074 0.50907443706 -0.53438786207 -0.6747390832 0.4868520281 -0.55911240188 -0.6710949447 
0.42626532161 -0.612605295 -0.66559193815 0.31609023072 -0.68342497819 -0.65804047385 0.14328867523 -0.75263931566 -0.64265264029 
-0.091881563194 -0.78805080576 -0.60871479848 -0.34650337939 -0.75831124952 -0.55217701593 -0.56044129169 -0.66975287668 -0.48717208741 
-0.70852312873 -0.5575054734 -0.43264607151 -0.81165813472 -0.43442449241 -0.3904951123 -0.90068317499 -0.26129842858 -0.34712094363 
-0.95799793787 0.13307500784 -0.25402951269 -0.4156405772 0.90741793986 0.061932164581 0.24725809429 0.9435963561 0.22020297808 
0.45741607059 0.86060799199 0.22388484204 0.54182554344 0.81636837331 0.19991938259 0.54182554344 0.81636837331 0.19991938259 

plain_curvature_peaks 1 120 unsigned_char
0 0 0 0 0 0 0 0 0 
0 0 0 0 1 0 0 0 0 
0 0 0 0 0 0 0 0 0 
0 0 0 0 0 0 0 0 0 
0 0 0 0 0 0 0 0 0 
0 0 0 0 0 0 0 0 1 
0 0 0 0 0 0 0 0 0 
0 0 0 0 0 0 0 0 0 
0 0 0 0 0 0 0 0 0 
0 0 0 0 0 0 0 0 0 
0 1 0 0 0 0 0 0 0 
0 0 0 0 0 0 0 0 0 
0 0 0 0 0 0 0 1 0 
0 0 0 
weighted_curvature_peaks 1 120 unsigned_char
0 0 0 0 0 0 0 0 0 
0 0 0 0 0 0 1 0 0 
0 0 0 0 0 0 0 0 0 
0 0 0 0 0 0 0 0 0 
0 0 0 0 0 0 0 0 0 
0 0 0 0 0 0 0 0 0 
0 0 0 0 1 0 0 0 0 
0 0 0 0 0 0 0 0 0 
0 0 0 0 0 0 0 0 0 
0 0 0 0 0 0 0 0 0 
0 0 0 0 0 0 0 1 0 
0 0 0 0 0 0 0 0 0 
0 0 0 0 0 0 0 0 0 
0 1 0 
plain_torsion_tp 1 120 unsigned_char
0 0 0 0 0 0 0 0 0 
0 0 0 0 1 0 0 0 0 
0 0 0 0 0 0 0 0 0 
0 0 0 0 0 0 0 0 0 
0 0 0 0 0 0 0 0 0 
0 0 0 0 0 0 0 0 1 
0 0 0 0 0 0 0 0 0 
0 0 0 0 0 0 0 0 0 
0 0 0 0 0 0 0 0 0 
0 0 0 0 0 0 0 0 0 
0 1 0 0 0 0 0 0 0 
0 0 0 0 0 0 0 0 0 
0 0 0 0 0 0 0 1 0 
0 0 0 
plain_torsion_tn 1 120 unsigned_char
0 0 2 0 0 0 0 0 0 
0 0 0 0 0 0 0 0 0 
0 0 0 0 0 0 0 0 0 
0 0 0 0 0 0 0 0 0 
0 0 0 0 2 0 0 0 0 
0 0 0 0 0 0 0 0 0 
0 0 0 0 0 0 0 0 0 
2 0 0 0 0 0 0 0 0 
0 0 0 0 0 0 0 0 0 
0 0 0 0 0 0 0 0 0 
0 0 0 0 0 0 0 0 0 
0 0 0 0 0 0 0 0 0 
2 0 0 0 0 0 0 0 0 
0 0 0 
plain_torsion_tz 1 120 unsigned_char
0 0 0 3 0 0 0 0 0 
0 0 0 0 0 0 0 0 0 
0 0 0 0 0 0 0 0 0 
0 0 3 0 0 0 0 0 0 
0 0 0 0 0 0 0 0 0 
0 3 0 0 0 0 0 0 0 
0 0 0 0 0 0 0 0 0 
0 0 0 0 0 0 3 0 0 
0 0 0 0 0 0 0 0 0 
0 0 0 0 0 0 0 0 0 
0 0 0 0 0 0 0 0 0 
0 0 0 3 0 0 0 0 0 
0 0 0 3 0 0 0 0 0 
0 0 0 
weighted_torsion_tp 1 120 unsigned_char
0 0 0 0 0 0 0 0 0 
0 0 0 0 0 0 1 0 0 
0 0 0 0 0 0 0 0 0 
0 0 0 0 0 0 0 0 0 
0 0 0 0 0 0 0 0 0 
0 0 0 0 0 0 0 0 0 
0 0 0 0 1 0 0 0 0 
0 0 0 0 0 0 0 0 0 
0 0 0 0 0 0 0 0 0 
0 0 0 0 0 0 0 0 0 
0 0 0 0 0 0 0 1 0 
0 0 0 0 0 0 0 0 0 
0 0 0 0 0 0 0 0 0 
0 1 0 
weighted_torsion_tn 1 120 unsigned_char
0 0 0 0 0 0 2 0 0 
0 0 0 0 0 0 0 0 0 
0 0 0 0 0 0 0 0 0 
0 0 0 0 0 0 0 0 0 
0 0 0 0 0 0 0 0 2 
0 0 0 0 0 0 0 0 0 
0 0 0 0 0 0 0 0 0 
0 0 0 0 0 2 0 0 0 
0 0 0 0 0 0 0 0 0 
0 0 0 0 0 0 0 0 0 
0 0 0 0 0 0 0 0 0 
0 0 0 0 0 0 0 0 0 
0 0 0 0 0 2 0 0 0 
0 0 0 
weighted_torsion_tz 1 120 unsigned_char
0 0 0 0 0 0 3 0 0 
0 0 0 0 0 0 0 0 0 
0 0 0 0 0 0 0 0 0 
0 0 0 0 3 0 0 0 0 
0 0 0 0 0 0 0 0 0 
0 0 0 0 0 3 0 0 0 
0 0 0 0 0 0 0 0 0 
0 0 0 0 0 0 0 0 0 
0 0 0 3 0 0 0 0 0 
0 0 0 0 0 0 0 0 0 
0 0 0 0 0 0 0 0 0 
0 0 0 0 0 0 0 0 3 
0 0 0 0 0 0 0 3 0 
0 0 0 
plain_torsion_tp_raw 1 120 unsigned_char
0 0 0 0 0 0 0 0 0 
0 0 0 0 0 0 0 0 0 
0 0 1 0 0 0 0 0 0 
0 0 0 0 0 0 0 0 0 
0 0 0 0 0 0 0 1 0 
0 0 0 0 0 0 0 0 0 
0 0 0 0 0 0 0 0 0 
0 0 0 0 1 0 0 0 0 
0 0 0 0 0 0 0 0 0 
0 0 0 0 0 0 0 0 0 
0 0 0 0 0 1 0 0 0 
0 0 0 0 0 0 0 0 0 
0 0 0 0 0 1 0 0 1 
0 0 0 
plain_torsion_tn_raw 1 120 unsigned_char
0 0 0 0 0 0 0 0 0 
0 2 0 0 0 0 0 0 0 
0 0 0 0 0 0 0 0 0 
0 0 0 0 0 2 0 0 0 
0 0 0 0 0 0 0 0 0 
0 0 0 0 0 0 0 0 0 
0 0 0 2 0 0 0 0 0 
0 0 0 0 0 0 0 0 0 
0 0 2 0 0 0 0 0 0 
0 0 0 0 0 0 0 0 0 
0 0 0 0 0 0 0 0 0 
0 0 0 0 0 0 0 0 0 
0 2 0 0 0 0 0 2 0 
0 0 0 
plain_torsion_tz_raw 1 120 unsigned_char
0 0 3 0 0 0 0 0 0 
0 0 0 0 3 0 0 0 0 
0 0 0 3 0 0 0 0 0 
0 0 0 0 0 0 0 0 0 
0 0 3 0 0 0 0 0 0 
0 0 0 0 0 0 0 0 0 
0 0 0 0 0 0 0 0 0 
0 0 0 0 0 0 0 0 0 
0 0 0 0 0 0 0 0 0 
0 0 0 0 0 0 0 0 0 
0 0 0 0 0 0 0 0 0 
0 0 0 0 0 0 0 0 0 
0 0 0 0 0 0 0 0 0 
0 0 0 
weighted_torsion_tp_raw 1 120 unsigned_char
0 0 0 0 0 0 0 0 0 
0 0 0 0 0 0 0 0 0 
0 0 0 0 1 0 0 0 0 
0 0 0 0 0 0 0 0 0 
0 0 0 0 0 0 0 0 0 
0 1 0 0 0 0 0 0 0 
0 0 0 0 0 0 0 0 0 
0 0 0 0 0 0 0 0 0 
1 0 0 0 0 0 0 0 0 
0 0 0 0 0 0 0 0 0 
0 0 0 0 0 0 0 0 0 
1 0 0 0 0 0 0 0 0 
0 0 0 0 0 0 0 0 1 
0 1 0 
weighted_torsion_tn_raw 1 120 unsigned_char
0 0 0 0 0 0 0 0 0 
0 0 2 0 0 0 0 0 0 
0 0 0 0 0 0 0 0 0 
0 0 0 0 0 0 0 2 0 
0 0 0 0 0 0 0 0 0 
0 0 0 0 0 0 0 0 0 
0 0 0 0 0 0 0 0 0 
2 0 0 0 0 0 0 0 0 
0 0 0 0 0 0 0 2 0 
0 0 0 0 0 0 0 0 0 
0 0 0 0 0 0 0 0 0 
0 0 0 0 0 0 0 0 0 
0 0 0 0 0 2 0 0 0 
2 0 0 
weighted_torsion_tz_raw 1 120 unsigned_char
0 0 0 0 0 0 3 0 0 
0 0 0 0 0 0 0 3 0 
0 0 0 0 0 3 0 0 0 
0 0 0 0 0 0 0 0 0 
0 0 0 0 0 0 3 0 0 
0 0 0 0 0 0 0 0 0 
0 0 0 0 0 0 0 0 0 
0 0 0 0 0 0 0 0 0 
0 0 0 0 0 0 0 0 0 
0 0 0 0 0 0 0 0 0 
0 0 0 0 0 0 0 0 0 
0 0 0 0 0 0 0 0 0 
0 0 0 0 0 0 0 0 0 
0 0 0 
