# vtk DataFile Version 5.1
vtk output
ASCII
DATASET POLYDATA
POINTS 120 float
3.69202 15.0993 -7.58221 3.24112 14.7164 -7.58751 2.75728 14.3156 -7.53577 
2.24499 13.906 -7.44304 1.70884 13.4965 -7.32547 1.15389 13.0961 -7.19949 
0.58603 12.713 -7.082 0.012473 12.3546 -6.99021 -0.558043 12.0262 -6.9412 
-1.11544 11.7308 -6.95073 -1.64908 11.4677 -7.03156 -2.1489 11.232 -7.19139 
-2.60669 11.0146 -7.43096 -3.01706 10.8026 -7.74319 -3.37743 10.5811 -8.11427 
-3.6876 10.3345 -8.52612 -3.94872 10.0499 -8.96024 -4.16229 9.71886 -9.40193 
-4.32966 9.33891 -9.84322 -4.452 8.91392 -10.2836 -4.53075 8.45278 -10.7279 
-4.56811 7.96707 -11.1826 -4.56765 7.46863 -11.6508 -4.53448 6.96757 -12.1276 
-4.47517 6.47156 -12.598 -4.39719 5.98629 -13.0371 -4.30797 5.51677 -13.4133 
-4.21387 5.06846 -13.6932 -4.1193 4.64786 -13.8475 -4.02619 4.26211 -13.8573 
-3.93404 3.91804 -13.7175 -3.84022 3.62164 -13.4384 -3.74089 3.37831 -13.0431 
-3.63206 3.19322 -12.5629 -3.51104 3.07197 -12.0312 -3.37767 3.01983 -11.4768 
-3.23528 3.04015 -10.9202 -3.09066 3.13202 -10.3719 -2.9532 3.28911 -9.83367 
-2.83351 3.49972 -9.30156 -2.74192 3.7491 -8.76883 -2.68725 4.02228 -8.22924 
-2.67598 4.30627 -7.67896 -2.71171 4.59171 -7.11736 -2.79478 4.87247 -6.54667 
-2.92206 5.14347 -5.97098 -3.08699 5.39858 -5.39508 -3.28023 5.62795 -4.82349 
-3.49075 5.81727 -4.26022 -3.70726 5.94869 -3.70901 -3.91957 6.00342 -3.17381 
-4.11918 5.96517 -2.65895 -4.29915 5.82331 -2.16868 -4.45381 5.57503 -1.70627 
-4.57854 5.22594 -1.27313 -4.6702 4.78897 -0.868532 -4.72779 4.28208 -0.489931 
-4.75288 3.72515 -0.133952 -4.74943 3.13741 0.202395 -4.72295 2.53461 0.520544 
-4.67939 1.9279 0.819841 -4.62421 1.32335 1.09765 -4.56171 0.722551 1.35029 
-4.49494 0.123695 1.57423 -4.42567 -0.476848 1.76737 -4.35446 -1.08352 1.92972 
-4.28071 -1.70042 2.06354 -4.20258 -2.33084 2.17297 -4.11708 -2.9765 2.26353 
-4.02042 -3.63699 2.34171 -3.90864 -4.30952 2.41472 -3.77857 -4.98779 2.4904 
-3.62914 -5.66229 2.5773 -3.46235 -6.31988 2.68438 -3.28384 -6.94513 2.8208 
-3.10249 -7.52167 2.99483 -2.92882 -8.03433 3.21286 -2.77211 -8.47159 3.47852 
-2.63688 -8.82803 3.79119 -2.51975 -9.10588 4.14598 -2.40794 -9.31479 4.53362 
-2.28073 -9.47029 4.9412 -2.1136 -9.58982 5.35397 -1.88329 -9.68922 5.75741 
-1.57295 -9.77903 6.13876 -1.17566 -9.86282 6.48921 -0.69523 -9.93699 6.80463 
-0.144487 -9.99289 7.08532 0.457855 -10.0193 7.33541 1.09101 -10.0051 7.56147 
1.73549 -9.94171 7.77098 2.37575 -9.82479 7.97092 3.0014 -9.65584 8.16773 
3.60719 -9.44193 8.36646 4.19228 -9.19516 8.57142 4.75886 -8.93089 8.78663 
5.31069 -8.66626 9.01596 5.85192 -8.41792 9.26355 6.38623 -8.19994 9.5336 
6.91655 -8.0222 9.82987 7.44483 -7.88908 10.1544 7.97176 -7.79918 10.5073 
8.49693 -7.74512 10.8857 9.01796 -7.71537 11.2843 9.52961 -7.69708 11.6966 
10.0237 -7.67918 12.1162 10.4887 -7.65455 12.5386 10.9111 -7.62233 12.9627 
11.2776 -7.58768 13.3904 11.5782 -7.56017 13.8261 11.8107 -7.55247 14.2736 
11.9817 -7.57776 14.7345 12.1077 -7.64844 15.2059 12.2131 -7.77543 15.6801 
12.3277 -7.96807 16.1443 12.4837 -8.23397 16.5823 12.7133 -8.57979 16.976 
13.0486 -9.01058 17.3068 13.5211 -9.53123 17.5556 14.162 -10.1463 17.7035 

LINES 2 120
OFFSETS vtktypeint64
0 120 
CONNECTIVITY vtktypeint64
0 1 2 3 4 5 6 7 8 
9 10 11 12 13 14 15 16 17 
18 19 20 21 22 23 24 25 26 
27 28 29 30 31 32 33 34 35 
36 37 38 39 40 41 42 43 44 
45 46 47 48 49 50 51 52 53 
54 55 56 57 58 59 60 61 62 
63 64 65 66 67 68 69 70 71 
72 73 74 75 76 77 78 79 80 
81 82 83 84 85 86 87 88 89 
90 91 92 93 94 95 96 97 98 
99 100 101 102 103 104 105 106 107 
108 109 110 111 112 113 114 115 116 
117 118 119 
CELL_DATA 1
FIELD FieldData 2
Length 1 1 double
72.144105597 
Tortuosity 1 1 double
0.93761675937 
POINT_DATA 120
FIELD FieldData 19
Curvature 1 120 double
0 0.15072142508 0.094074200218 0.05782862457 0.041064085141 0.048011751998 0.071394711427 0.10517392276 0.14897364537 
0.20107017618 0.25206358011 0.28332660964 0.27974545024 0.24867404653 0.21463310341 0.19712141038 0.19267904805 0.18392719527 
0.16180838733 0.13111645611 0.10344336932 0.084167147787 0.069359304032 0.056080686149 0.058883098413 0.10428750761 0.20944893059 
0.41571402973 0.76345872328 1.059278349 0.92326508558 0.58589442565 0.36172289922 0.26077158899 0.22738105946 0.22271147189 
0.2190505393 0.20065373375 0.16704507586 0.13435827986 0.11858806342 0.11811107157 0.120281306 0.11703362316 0.10807404276 
0.096696381479 0.09068992832 0.10275188628 0.1426812839 0.20936182514 0.29159286758 0.36262387782 0.38479238975 0.34517152526 
0.27125390229 0.19706245063 0.13874057674 0.097470105737 0.070649588323 0.054938572539 0.049178193897 0.052963830995 0.063038100963 
0.073187264334 0.078208776497 0.075249442289 0.065299192572 0.051389022288 0.038334213001 0.031916044015 0.035837194939 0.04682032458 
0.062935049441 0.08606781531 0.12075191705 0.17296061348 0.246816038 0.32884860365 0.38089907562 0.36025956651 0.28727737429 
0.25658462108 0.30040164621 0.33836074831 0.318794792 0.25796671963 0.19290619364 0.14499227424 0.12055383543 0.11487612253 
0.11780497835 0.11733766594 0.10760468337 0.086958228195 0.06074116746 0.043854424105 0.059847560607 0.091579525013 0.11924315282 
0.13190641993 0.12648617752 0.10367359832 0.072956438463 0.046682372574 0.039397673223 0.055314976464 0.084807483917 0.12945648337 
0.19159275882 0.25242058151 0.28364924811 0.26791022076 0.24045700655 0.25487538142 0.31272881208 0.36738656369 0.37123177 
0.31460991108 0.22932182165 0 
Torsion 1 120 double
0 0 0.33393114451 0.67816412124 1.1468547559 0.83026692579 0.44597068328 0.29009600195 0.22902586058 
0.20733076322 0.21166153354 0.24521907664 0.32154761457 0.445012159 0.55333092047 0.5003023024 0.29730337601 0.084684825192 
-0.1024074911 -0.27165805571 -0.3676272573 -0.28219728688 0.0091054853397 0.57988874939 1.0085870101 0.50834038416 0.18572362098 
0.048924939797 -0.013585469 -0.046947768423 -0.090693866404 -0.16614051088 -0.23724892855 -0.22259489814 -0.10763620391 0.029590955948 
0.14717869066 0.27172728475 0.44727000029 0.64238127265 0.64542900528 0.4251155014 0.22008952909 0.12450361695 0.13664515641 
0.27309224053 0.49881441412 0.5412768941 0.34434534828 0.1754202612 0.09270863384 0.063375094398 0.062872415219 0.078820844528 
0.10339607173 0.12813801369 0.14234651498 0.12692350079 0.042951736144 -0.12927594267 -0.29957056886 -0.29554778683 -0.18577604482 
-0.091938619779 -0.023281928593 0.044739444897 0.14342663115 0.32085367535 0.63114935064 0.90360450474 0.73463692376 0.50626669673 
0.39411098633 0.33039730564 0.2672335736 0.19100460891 0.096876031413 -0.014920271388 -0.17068662208 -0.45587045002 -1.0182905775 
-1.2867557634 -0.69555417199 -0.26864036841 -0.046406950085 0.11480540763 0.27259996697 0.43192997958 0.49835686148 0.4130949703 
0.29044114476 0.21598227171 0.20427628043 0.30317483884 0.68035310463 1.4216073205 0.74383985277 0.25735305871 0.093214226803 
0.020224373523 -0.030510570966 -0.1006720436 -0.27850577441 -0.73453576353 -0.87333470301 -0.13078493466 0.24667075428 0.33759151646 
0.34115687824 0.36085162476 0.4560420979 0.70148882479 1.0182434667 0.9193917233 0.53541736815 0.2916025657 0.17264213659 
0.11103008079 0 0 
FrenetTangent 3 120 double
-0.7657382763 -0.64202602954 0.038045625247 -0.7657382763 -0.64202602954 0.038045625247 -0.77083619302 -0.62714700017 0.11179536531 
-0.7783663151 -0.60808653689 0.15613021223 -0.79037837129 -0.58666715011 0.17641906125 -0.80740193189 -0.56342757394 0.17507566738 
-0.82883309737 -0.53846157889 0.1519698153 -0.85264781834 -0.51184067806 0.10493244573 -0.87469556483 -0.48370457194 0.030619535549 
-0.88772417107 -0.45446697649 -0.073522536481 -0.88139174974 -0.42546435844 -0.2052526813 -0.84580366445 -0.40021772474 -0.35276328323 
-0.77884502962 -0.38515645478 -0.49503022652 -0.68968582793 -0.38789000801 -0.6114530239 -0.59228292101 -0.41347030614 -0.6915513339 
-0.496468063 -0.46157185378 -0.73516725051 -0.40534158435 -0.52573701889 -0.74786281293 -0.31851555938 -0.59452713228 -0.73829894177 
-0.23583212421 -0.65523470603 -0.7176703207 -0.15856032365 -0.6987379239 -0.69758435867 -0.088571408769 -0.72231477077 -0.6858691402 
-0.027343988083 -0.72917018919 -0.68378588865 0.02444372569 -0.72644999095 -0.68678447487 0.067093925579 -0.72337507708 -0.6871876767 
0.10206915362 -0.72957129189 -0.67624523505 0.13200270013 -0.75379254902 -0.64371739156 0.16039185699 -0.80301601505 -0.57396840661 
0.19067913129 -0.87813715293 -0.43876714729 0.22235790448 -0.9553741977 -0.1944662045 0.24245139666 -0.95513887893 0.17007951731 
0.23614356628 -0.81324975377 0.53184683331 0.21821435812 -0.60976423328 0.7619514904 0.20885398336 -0.42985266793 0.87841146254 
0.21243799225 -0.28314025635 0.9352548822 0.2253417467 -0.15358416619 0.9620982284 0.24081269041 -0.027783028711 0.97017387692 
0.25020264627 0.097804055342 0.96324088501 0.24532010938 0.21651203805 0.94495533297 0.22157664527 0.31682523186 0.92223942809 
0.17919975105 0.3901483493 0.90314545604 0.12169838256 0.43481568303 0.89225827285 0.05379190542 0.4545280442 0.88910667974 
-0.01957355251 0.45574546975 0.88989490551 -0.093431283389 0.44529081343 0.8904979993 -0.16312523466 0.42787805776 0.88899410882 
-0.22489345853 0.4049020253 0.88627156235 -0.2763593867 0.3738143361 0.88537468425 -0.31661077615 0.32832458178 0.88992167376 
-0.34553637386 0.25952934176 0.90180326852 -0.36257436973 0.15739029366 0.91856851779 -0.36514665796 0.014612663299 0.93083531747 
-0.34842490827 -0.16532437068 0.9226418242 -0.30912836292 -0.36041049182 0.8800817761 -0.25121155421 -0.53712241686 0.80522808218 
-0.18511124915 -0.67243295841 0.71663640843 -0.12079567526 -0.76392945671 0.63389288528 -0.063828966582 -0.82120522827 0.56705188131 
-0.016179447922 -0.85555410906 0.5174605221 0.022026482267 -0.87609603352 0.48163323611 0.051509883104 -0.88947483978 0.45407184601 
0.073398543944 -0.90033431851 0.42896476388 0.08900568926 -0.91165666168 0.40119835306 0.09964001477 -0.92472608295 0.36736023052 
0.10652324576 -0.93914620372 0.32658414865 0.11093722529 -0.9533526293 0.28073420926 0.11439046031 -0.96555296744 0.23371411952 
0.11867379973 -0.97457424344 0.19005676331 0.1256775692 -0.98010757797 0.15360431052 0.1370080806 -0.98240560488 0.12691734848 
0.15353097975 -0.98184891222 0.11135956105 0.17521218917 -0.97861988981 0.10772093595 0.20094840229 -0.97260310956 0.11688854049 
0.22868376292 -0.96333956285 0.14028764458 0.2556632468 -0.94980717912 0.18028484884 0.27845514876 -0.92992399824 0.24021675135 
0.29319844291 -0.89954914473 0.32379933491 0.29603614065 -0.85118436562 0.43341409662 0.28495063042 -0.77470261058 0.56448118072 
0.26433308567 -0.66435954933 0.69910972603 0.24971811096 -0.53091958623 0.80979334278 0.26357673171 -0.4018668452 0.8769437526 
0.32205924755 -0.30093767889 0.89761592816 0.42559542637 -0.23443468383 0.87401882821 0.55645824904 -0.19474055361 0.80773159766 
0.68523957667 -0.16810816427 0.70865109022 0.7886192057 -0.14192163921 0.5982791963 0.86063218634 -0.10855541091 0.49752182123 
0.90647790248 -0.06474009944 0.41726074802 0.93306347791 -0.0092434261209 0.35959297166 0.94494603052 0.057418330221 0.32214924299 
0.94437353765 0.13255698599 0.30097718661 0.93281959637 0.21064936927 0.292360127 0.91293650663 0.28383542303 0.29323094567 
0.88926764475 0.34399912519 0.30144262783 0.86710554987 0.38477207313 0.31635173007 0.85075208161 0.40232943102 0.33815961405 
0.84196916328 0.39513179493 0.36736738113 0.83929518852 0.36389302144 0.40393744005 0.83885183995 0.31179599327 0.44621838733 
0.83619553545 0.24554527959 0.49039223298 0.82851032357 0.17510730388 0.53189103759 0.8160115885 0.11165685255 0.56714886468 
0.80115576821 0.064178666919 0.59500465022 0.78595854902 0.036565402591 0.61719699493 0.77026720871 0.027719796957 0.63711854473 
0.75108907745 0.033301410431 0.65936045817 0.72281427679 0.046306633184 0.68948909853 0.67833931524 0.057509413923 0.7324946694 
0.61043756301 0.056875024231 0.790019755 0.51652247429 0.034107830558 0.85559405646 0.40583703515 -0.017694597571 0.91377415269 
0.3020068678 -0.09761330127 0.9482950465 0.23295460546 -0.19897279891 0.95191490013 0.21671201204 -0.31476369313 0.92409941095 
0.2582781638 -0.43773359159 0.86120943614 0.34982404684 -0.55506134248 0.75467214228 0.4696209977 -0.64554832765 0.60226528639 
0.5870347135 -0.69138673821 0.42115866769 0.67926110073 -0.69284526385 0.24201197781 0.67926110073 -0.69284526385 0.24201197781 

FrenetNormal 3 120 double
-0.056455332792 0.12602469451 0.99041939186 -0.056455332792 0.12602469451 0.99041939186 -0.095430146966 0.28719564279 0.95310636857 
-0.24700477964 0.52525164864 0.81430912094 -0.51418065593 0.79183094542 0.32957852924 -0.58524106132 0.72719420305 -0.35872202495 
-0.47328043382 0.52989198653 -0.7037187745 -0.34101233284 0.39300230686 -0.85396708113 -0.20067915344 0.30393905683 -0.9313156968 
-0.043746459679 0.24225042282 -0.96922700123 0.13337050911 0.19269593314 -0.97215255215 0.32554345409 0.13667190313 -0.93559726934 
0.51819506199 0.049529414685 -0.8538270989 0.69049181057 -0.097995587119 -0.71667142013 0.80570668377 -0.31046739958 -0.50442713402 
0.82461888681 -0.51532555117 -0.23333081197 0.7863875898 -0.61768160675 0.0079994551033 0.77051610414 -0.61604973384 0.16366935782 
0.80807661625 -0.54244329671 0.22971167174 0.89085040911 -0.405884764 0.20406642778 0.97373203542 -0.20779685689 0.093093444753 
0.99924306806 -0.0010041151449 -0.038888079085 0.99035798379 0.11130115035 -0.082481015287 0.99682901144 0.019066517616 0.077255354917 
0.80532908958 -0.33846635613 0.48670893073 0.43007560697 -0.54154026984 0.72233586955 0.24012428995 -0.53228329371 0.81179727803 
0.15418607607 -0.41462868954 0.89683315268 0.090587783386 -0.17835183278 0.97978797566 0.016798971828 0.17941704262 0.98362966576 
-0.047435369886 0.53702603485 0.84223092058 -0.061345859333 0.77065243549 0.63429607378 -0.013998305672 0.89681399782 0.44218627382 
0.068656698075 0.95906071055 0.2747522726 0.12709884029 0.98369211899 0.12726232686 0.11595055765 0.99325492939 -0.00033678037407 
0.032247543618 0.99349087925 -0.10925185935 -0.11817589895 0.97415082606 -0.19252175199 -0.34510617482 0.91001875759 -0.22971196952 
-0.6427205447 0.74145096518 -0.19277128328 -0.89644586164 0.43407043219 -0.089261845433 -0.99279379904 0.11982924208 -0.0011938734952 
-0.99642351321 -0.082070640099 0.020114481334 -0.98031050873 -0.19741884945 -0.0041357407813 -0.95686141627 -0.28819607571 -0.036868035023 
-0.91036908519 -0.41155867362 -0.04298356536 -0.78392488886 -0.62061358042 0.017336447848 -0.52793880069 -0.84043891003 0.12224181455 
-0.26133035467 -0.94959216181 0.17315072035 -0.082831132462 -0.98717783471 0.13645118598 0.038877263275 -0.99876519149 0.030929769932 
0.14233479996 -0.98223986379 -0.12225242208 0.24106840292 -0.92487968685 -0.29408092418 0.33476241159 -0.82877995186 -0.44839482511 
0.42218743414 -0.712929437 -0.55990123085 0.50609052154 -0.59674056951 -0.62271428176 0.58715006693 -0.49036111429 -0.64405029034 
0.66042796196 -0.39771143188 -0.63691484833 0.70278341135 -0.32906930045 -0.63072091469 0.68108789413 -0.301242482 -0.66736215619 
0.5563576508 -0.32001003509 -0.76685053422 0.36531808496 -0.3448465738 -0.86465226383 0.20594992548 -0.34203616315 -0.91684016671 
0.11319387145 -0.31486368708 -0.94236299059 0.070779442193 -0.27418145898 -0.95906975665 0.071103169261 -0.22669756151 -0.97136633405 
0.12356729423 -0.1754259372 -0.97670715384 0.26336596415 -0.11631501736 -0.95765817788 0.54157432126 -0.032991647782 -0.84000524149 
0.88662667771 0.087126024181 -0.45420500908 0.97758281502 0.18590688479 0.098845687685 0.84154991556 0.23247159503 0.48759685922 
0.64924361431 0.25829938611 0.7153769331 0.44495403896 0.28116201114 0.85027279547 0.25222662897 0.3121321101 0.91594501663 
0.089273350826 0.36296416834 0.92751672833 -0.033673655178 0.44417054248 0.89530922822 -0.10975675561 0.55865201551 0.8221078884 
-0.12465715733 0.69527650639 0.70784968234 -0.033005759427 0.83113525033 0.55508991659 0.26030590945 0.90499683631 0.33648411519 
0.7050682784 0.70897476077 -0.01528107945 0.87377238641 0.35766636965 -0.32953995928 0.82975646048 0.18068622123 -0.52806884566 
0.72823621471 0.14358981975 -0.67011490003 0.61480342786 0.19754317028 -0.76354007162 0.50338390137 0.32894442282 -0.79899950847 
0.38391620284 0.53778203889 -0.75059897938 0.23468471492 0.77324657086 -0.58907794496 0.068233384347 0.92826916456 -0.3655961753 
-0.081375863214 0.98089913776 -0.17667724931 -0.20856220242 0.97724438477 -0.038668076634 -0.3160281602 0.9463156498 0.067918281083 
-0.41180053006 0.88897752776 0.20034789386 -0.49455308199 0.7408992448 0.4544068201 -0.43584781863 0.18053255534 0.8817282322 
-0.13128758265 -0.5103903369 0.84986191504 -0.010397897241 -0.73209498686 0.68112320027 -0.0097383270889 -0.81098561746 0.58498503678 
-0.057778638504 -0.84975397152 0.52400364199 -0.12929305786 -0.86436512865 0.48595908218 -0.21168093014 -0.85528391288 0.47294884732 
-0.31810535279 -0.79647799422 0.51422931582 -0.49102889011 -0.56969524632 0.65904321209 -0.63714906879 -0.0088613593544 0.77068965249 
-0.63149722458 0.32752488326 0.7028077306 -0.67187435757 0.28045999709 0.68551224473 -0.73387363314 0.10167424091 0.67163370919 
-0.78484658058 -0.090911769704 0.61298523236 -0.81643295179 -0.28162496871 0.50410773871 -0.80810480324 -0.47398026263 0.3497275191 
-0.69845178033 -0.69967116064 0.15041734449 -0.38185465702 -0.91894427193 -0.098632884979 0.095646989109 -0.93519458696 -0.34097322183 
0.42096014599 -0.75137887717 -0.50815582102 0.54569985677 -0.53405463906 -0.6457532879 0.55619833078 -0.31344575844 -0.76967212068 
0.49757035962 -0.10223734255 -0.86137753803 0.41198841684 0.087088050996 -0.90701775934 0.41198841684 0.087088050996 -0.90701775934 

FrenetBinormal 3 120 double
-0.64066971803 0.75625415951 -0.1327477255 -0.64066971803 0.75625415951 -0.1327477255 -0.62984494169 0.72402023655 -0.28122952634 
-0.57717806468 0.59526588115 -0.5590384713 -0.33304696855 0.16978047252 -0.92749895304 0.074799869822 -0.39209432535 -0.91687895575 
0.29839793509 -0.65518975166 -0.69403534612 0.39585639661 -0.76391642677 -0.50963654322 0.4411751877 -0.82076241192 -0.362923569 
0.45829253033 -0.85718988557 -0.23493287705 0.45316761886 -0.88422189356 -0.11309620759 0.42265543969 -0.90617137656 0.014690664004 
0.35337557578 -0.92152121105 0.16101043451 0.21806998482 -0.9164814273 0.33542104157 -0.0061385027886 -0.85595110826 0.5170203275 
-0.27115153315 -0.72207409599 0.63646354646 -0.4661467136 -0.58486752316 0.66380510826 -0.55213474052 -0.51673998725 0.65431415535 
-0.53981051441 -0.52575921283 0.65740539902 -0.42572781487 -0.58908647247 0.68682818491 -0.20976422178 -0.65960733637 0.72174589231 
0.027669428217 -0.68433166444 0.72864571349 0.1363582349 -0.67814634452 0.72216616315 -0.042782322374 -0.69019197747 0.7223605105 
-0.58397512392 -0.59427792809 0.55299800978 -0.89309028628 -0.37219743308 0.2527030102 -0.95740000919 -0.26802942901 0.10744974451 
-0.96946795864 -0.23865915122 0.056335483535 -0.97074755514 -0.23547986351 0.046887291076 -0.97001810024 -0.23562522524 0.059545263687 
-0.97055968482 -0.22411576447 0.088238440174 -0.9739708309 -0.18515507955 0.13076091566 -0.97784664497 -0.10464863683 0.18128596673 
-0.97475964076 0.0058436909158 0.22318040688 -0.96595392333 0.093604054054 0.24118726972 -0.96362062884 0.11257330303 0.24240984948 
-0.96765630868 0.058397256772 0.24542010649 -0.9622122951 -0.064441488684 0.26456529193 -0.91203372655 -0.26737171371 0.3109772473 
-0.74484746804 -0.54592557347 0.38362418795 -0.42611538441 -0.788998214 0.44261438914 -0.10708362854 -0.88263537759 0.45769846702 
0.082201328261 -0.88631849627 0.45572191608 0.17395948309 -0.87335095429 0.45496836031 0.24042959027 -0.85665826888 0.45643205681 
0.347348616 -0.81650095412 0.46116713986 0.55595616555 -0.68927616085 0.46455475034 0.78805979414 -0.43112110537 0.43942730156 
0.90128300775 -0.17583869597 0.39594152717 0.92826657266 -0.026612367818 0.37096219749 0.93013788041 0.047482231825 0.3641276714 
0.92646688447 0.088728250538 0.36576824567 0.919959608 0.12125115354 0.37279012515 0.90819980336 0.15691813376 0.38800749539 
0.88740723228 0.19891087024 0.41586400398 0.85397938432 0.24558598875 0.45870113722 0.80695765808 0.2918354856 0.51346994792 
0.75071508079 0.33144046738 0.57146660799 0.7110628037 0.35237641173 0.60845752 0.73038757685 0.34363858404 0.59029358047 
0.82769488227 0.29494354095 0.47741961576 0.92661787382 0.22352398474 0.30235135879 0.97347649979 0.16701177985 0.15636677952 
0.98784611432 0.13735088858 0.072765292734 0.99130378926 0.1262667484 0.037060837029 0.9908880673 0.12773285668 0.042721837662 
0.98521452134 0.13939434916 0.099607039752 0.95647452529 0.16081029925 0.2435087886 0.82941306983 0.18382268269 0.52752552633 
0.43625837828 0.1684688977 0.88390998291 -0.11675841962 0.087987166475 0.98925513897 -0.50141148694 0.00038573156007 0.86520886032 
-0.72538711448 -0.072514231562 0.68451093517 -0.85828445603 -0.1371650319 0.49450333322 -0.92673861351 -0.19446054445 0.32146638842 
-0.951874436 -0.24303980889 0.18672629537 -0.95458299188 -0.27963852545 0.10282804436 -0.95223767664 -0.29621578407 0.074159398912 
-0.95634126385 -0.27425712184 0.10096741146 -0.96775590151 -0.16534384964 0.19002612053 -0.92885313156 0.13958425771 0.34314442294 
-0.63178838535 0.63780193008 0.44051348915 -0.23535154513 0.90394421677 0.35706372424 -0.0431095508 0.96406877671 0.26213157077 
0.01089670338 0.97525463791 0.22081588051 -0.0098231105891 0.9699664655 0.24304024831 -0.076921308365 0.93808916925 0.33774520406 
-0.17580148326 0.8405945504 0.51234230776 -0.27260893378 0.63403809012 0.72365742551 -0.32003313057 0.36744998774 0.87324641531 
-0.31864806649 0.14235704058 0.93712212796 -0.29385269839 -0.024904932347 0.95552620895 -0.25821141885 -0.15467431454 0.95362609004 
-0.19905622183 -0.30229713363 0.93219797444 -0.059541703686 -0.55047139871 0.83272806169 0.29369639874 -0.89751825909 0.32894285213 
0.52330822535 -0.76378830093 -0.37785702673 0.54357655418 -0.57586352477 -0.61066007777 0.54427268496 -0.49506119506 -0.67726040601 
0.54537936836 -0.46650370154 -0.69637320527 0.54484304982 -0.47139193512 -0.69349527365 0.53788127988 -0.50598633939 -0.67428595796 
0.50691066234 -0.60125194672 -0.61768736184 0.37571237443 -0.82104220211 -0.42980218013 0.02700909706 -0.99957645489 0.010836028283 
-0.1925524684 -0.94425550933 0.26703011067 -0.16163034651 -0.95874808253 0.23383272939 -0.035850578493 -0.99315407468 0.11117427749 
0.10668564397 -0.9942335147 -0.010857790859 0.25815067072 -0.95891815756 -0.11761886888 0.42692262516 -0.88035766133 -0.20665783379 
0.64881196225 -0.70776543458 -0.27948367977 0.89438200603 -0.3405161529 -0.29005099019 0.97153875749 0.16228031925 -0.17256170106 
0.86953145176 0.49378040234 -0.0097963600952 0.76146884544 0.63772450838 0.11607174002 0.68563804982 0.69643313619 0.21185219247 
0.63860314936 0.71521458599 0.28399667888 0.60734660732 0.71580801319 0.34459974875 0.60734660732 0.71580801319 0.34459974875 

plain_curvature_peaks 1 120 unsigned_char
0 0 0 0 1 0 0 0 0 
0 0 0 0 0 0 0 0 0 
1 0 0 0 0 0 0 0 0 
0 0 0 0 0 0 0 0 0 
0 0 0 0 0 0 0 0 0 
0 0 0 0 0 0 0 0 0 
0 0 0 0 0 1 0 0 0 
0 0 0 0 0 0 0 0 0 
0 0 0 0 0 0 0 0 0 
0 0 0 0 0 0 0 0 0 
0 0 0 0 0 0 0 0 0 
0 0 0 0 0 1 0 0 0 
0 0 0 0 0 0 0 0 0 
0 0 0 
weighted_curvature_peaks 1 120 unsigned_char
0 0 0 1 0 0 0 0 0 
0 0 0 0 0 0 0 0 0 
0 0 1 0 0 0 0 0 0 
0 0 0 0 0 0 0 0 0 
0 0 0 0 0 0 0 0 0 
0 0 0 0 0 0 0 0 0 
0 0 0 0 0 0 0 0 0 
0 0 1 0 0 0 0 0 0 
0 0 0 0 0 0 0 0 0 
0 0 0 0 0 0 0 0 0 
0 0 0 0 0 0 0 0 0 
0 0 0 0 0 0 0 0 0 
0 1 0 0 0 0 0 0 0 
0 0 0 
plain_torsion_tp 1 120 unsigned_char
0 0 0 0 1 0 0 0 0 
0 0 0 0 0 0 0 0 0 
1 0 0 0 0 0 0 0 0 
0 0 0 0 0 0 0 0 0 
0 0 0 0 0 0 0 0 0 
0 0 0 0 0 0 0 0 0 
0 0 0 0 0 1 0 0 0 
0 0 0 0 0 0 0 0 0 
0 0 0 0 0 0 0 0 0 
0 0 0 0 0 0 0 0 0 
0 0 0 0 0 0 0 0 0 
0 0 0 0 0 1 0 0 0 
0 0 0 0 0 0 0 0 0 
0 0 0 
plain_torsion_tn 1 120 unsigned_char
0 0 2 0 0 0 2 0 0 
0 0 0 0 0 0 0 0 0 
0 0 0 0 0 0 0 0 0 
0 0 0 0 0 0 0 0 0 
2 0 0 0 0 0 0 0 0 
0 0 0 0 0 0 0 0 0 
0 0 0 0 0 0 0 0 0 
0 0 0 0 0 0 0 0 0 
0 0 0 0 0 0 0 0 2 
0 0 0 0 0 0 0 0 0 
0 0 0 0 0 0 0 0 0 
0 0 0 0 0 0 0 0 0 
0 0 0 0 0 0 0 0 0 
0 0 0 
plain_torsion_tz 1 120 unsigned_char
0 0 0 3 3 0 0 0 0 
0 3 0 0 0 0 0 0 0 
0 0 0 0 0 0 0 0 0 
0 0 0 0 0 0 0 0 0 
0 0 0 0 0 0 3 0 0 
0 0 0 0 0 0 0 0 0 
0 0 0 0 0 0 0 0 0 
0 0 0 0 0 0 0 0 0 
3 0 0 0 0 0 0 0 0 
0 0 0 0 0 0 3 0 0 
0 0 0 0 0 0 0 0 0 
0 0 0 0 0 0 0 0 0 
0 0 0 0 0 0 0 0 0 
0 0 0 
weighted_torsion_tp 1 120 unsigned_char
0 0 0 1 0 0 0 0 0 
0 0 0 0 0 0 0 0 0 
0 0 1 0 0 0 0 0 0 
0 0 0 0 0 0 0 0 0 
0 0 0 0 0 0 0 0 0 
0 0 0 0 0 0 0 0 0 
0 0 0 0 0 0 0 0 0 
0 0 1 0 0 0 0 0 0 
0 0 0 0 0 0 0 0 0 
0 0 0 0 0 0 0 0 0 
0 0 0 0 0 0 0 0 0 
0 0 0 0 0 0 0 0 0 
0 1 0 0 0 0 0 0 0 
0 0 0 
weighted_torsion_tn 1 120 unsigned_char
0 2 0 0 0 0 0 2 0 
0 0 0 0 0 0 0 0 0 
0 0 0 0 0 0 0 0 0 
0 0 0 0 0 0 0 0 0 
0 0 0 2 0 0 0 0 0 
0 0 0 0 0 0 0 0 0 
0 0 0 0 0 0 0 0 0 
0 0 0 0 0 0 0 0 0 
0 0 0 0 0 0 0 0 0 
0 0 0 0 2 0 0 0 0 
0 0 0 0 0 0 0 0 0 
0 0 0 0 0 0 0 0 0 
0 0 0 0 0 0 0 0 0 
0 0 0 
weighted_torsion_tz 1 120 unsigned_char
0 3 0 0 3 0 0 0 0 
0 0 3 0 0 0 0 0 0 
0 0 0 0 0 0 0 0 0 
0 0 0 0 0 0 0 0 0 
0 0 0 0 0 0 0 0 0 
0 3 0 0 0 0 0 0 0 
0 0 0 0 0 0 0 0 0 
0 0 0 0 0 0 0 0 0 
0 0 0 0 0 3 0 0 0 
0 0 0 0 0 0 0 0 0 
0 0 0 3 0 0 0 0 0 
0 0 0 0 0 0 0 0 0 
0 0 0 0 0 0 0 0 0 
0 0 0 
plain_torsion_tp_raw 1 120 unsigned_char
0 0 0 0 1 0 0 1 0 
0 0 0 0 0 0 0 0 0 
0 0 0 0 0 0 0 0 0 
0 0 0 0 0 0 0 0 0 
0 0 0 1 0 0 0 0 0 
0 0 0 0 0 0 0 0 0 
0 0 0 0 0 0 0 0 0 
0 0 1 0 0 0 0 0 0 
0 0 0 0 0 0 0 0 0 
0 0 0 0 0 0 0 0 0 
0 0 0 0 1 0 0 0 0 
0 0 0 0 0 0 0 0 1 
0 0 0 0 0 0 0 0 0 
0 0 0 
plain_torsion_tn_raw 1 120 unsigned_char
0 0 0 2 0 2 0 0 0 
0 0 0 0 0 0 0 0 0 
0 0 0 0 0 0 0 0 0 
0 0 0 2 0 0 0 0 0 
0 0 0 0 0 0 0 0 0 
0 2 0 0 0 0 0 0 0 
0 0 0 0 0 0 0 0 0 
0 0 0 0 0 0 0 0 0 
0 0 0 0 0 0 0 0 0 
2 0 0 0 0 0 0 0 0 
0 0 0 0 0 0 0 0 0 
0 2 0 0 0 0 0 0 0 
0 0 0 0 0 0 0 0 0 
0 0 0 
plain_torsion_tz_raw 1 120 unsigned_char
0 0 3 0 3 0 3 0 0 
0 0 0 0 0 0 0 0 0 
0 0 0 0 0 0 0 0 0 
0 0 0 0 0 0 0 0 0 
0 0 0 0 0 0 0 0 0 
0 0 0 0 0 0 0 0 0 
0 0 0 0 0 0 0 0 0 
0 0 0 0 0 0 0 0 0 
0 0 0 0 0 0 0 0 0 
0 0 0 0 0 0 0 0 0 
0 0 0 0 0 0 0 0 0 
0 0 0 0 0 0 0 0 0 
0 0 0 0 0 0 0 0 0 
0 0 0 
weighted_torsion_tp_raw 1 120 unsigned_char
0 0 0 0 1 0 0 0 1 
0 0 0 0 0 0 0 0 0 
0 0 0 0 0 0 0 0 0 
0 0 0 0 0 0 0 0 0 
0 0 0 0 0 0 0 1 0 
0 0 0 0 0 0 0 0 0 
0 0 0 0 0 0 0 0 0 
0 0 0 0 0 0 1 0 0 
0 0 0 0 0 0 0 0 0 
0 0 0 0 0 0 0 0 0 
0 0 0 0 0 0 0 0 1 
0 0 0 0 0 0 0 0 0 
0 0 0 0 1 0 0 0 0 
0 0 0 
weighted_torsion_tn_raw 1 120 unsigned_char
0 0 2 0 0 2 0 0 0 
0 0 0 0 0 0 0 0 0 
0 0 0 0 0 0 0 0 0 
0 0 0 0 0 0 2 0 0 
0 0 0 0 0 0 0 0 0 
0 0 0 0 0 0 2 0 0 
0 0 0 0 0 0 0 0 0 
0 0 0 0 0 0 0 0 0 
0 0 0 0 0 0 0 0 0 
0 0 0 0 0 2 0 0 0 
0 0 0 0 0 0 0 0 0 
0 0 0 0 0 2 0 0 0 
0 0 0 0 0 0 0 0 0 
0 0 0 
weighted_torsion_tz_raw 1 120 unsigned_char
0 3 0 3 3 0 3 0 0 
0 0 0 0 0 0 0 0 0 
0 0 0 0 0 0 0 0 0 
0 0 0 0 0 0 0 0 0 
0 0 0 0 0 0 0 0 0 
0 0 0 0 0 0 0 0 0 
0 0 0 0 0 0 0 0 0 
0 0 0 0 0 0 0 0 0 
0 0 0 0 0 0 0 0 0 
0 0 0 0 0 0 0 0 0 
0 0 0 0 0 0 0 0 0 
0 0 0 0 0 0 0 0 0 
0 0 0 0 0 0 0 0 0 
0 0 0 
