# vtk DataFile Version 5.1
vtk output
ASCII
DATASET POLYDATA
POINTS 120 float
-4.26032 16.8106 -9.75621 -4.47544 16.325 -9.63851 -4.76513 15.8441 -9.50657 
-5.11135 15.367 -9.36616 -5.49594 14.8924 -9.22316 -5.9005 14.4195 -9.08369 
-6.30629 13.9471 -8.95435 -6.69446 13.4747 -8.84248 -7.04679 13.0016 -8.75618 
-7.34691 12.5276 -8.70404 -7.58193 12.0527 -8.6944 -7.74423 11.5768 -8.73447 
-7.83265 11.0998 -8.82936 -7.85275 10.6211 -8.98153 -7.81599 10.1401 -9.19069 
-7.73773 9.65608 -9.45412 -7.63503 9.16888 -9.76681 -7.52422 8.67902 -10.1212 
-7.41894 8.1877 -10.5062 -7.32902 7.69667 -10.9065 -7.26046 7.20822 -11.3014 
-7.21623 6.7254 -11.666 -7.19776 6.25229 -11.9724 -7.20642 5.79505 -12.1934 
-7.24452 5.36219 -12.3068 -7.3158 4.96463 -12.2991 -7.42491 4.61479 -12.1681 
-7.57636 4.32479 -11.9226 -7.77296 4.10405 -11.5807 -8.01432 3.95656 -11.1653 
-8.29552 3.88036 -10.7 -8.60656 3.86713 -10.2054 -8.93262 3.90461 -9.69689 
-9.25493 3.97776 -9.18396 -9.55221 4.07121 -8.67202 -9.8024 4.16953 -8.16439 
-9.98428 4.25748 -7.66466 -10.0797 4.31988 -7.17811 -10.0757 4.34224 -6.71213 
-9.96696 4.31187 -6.27522 -9.75638 4.21972 -5.87522 -9.45549 4.06126 -5.51732 
-9.08249 3.8375 -5.20259 -8.65959 3.55432 -4.92739 -8.20994 3.22097 -4.684 
-7.75465 2.84845 -4.46208 -7.31056 2.4479 -4.25053 -6.88919 2.0288 -4.0394 
-6.49671 1.59833 -3.82122 -6.13496 1.16106 -3.59189 -5.80306 0.718258 -3.35075 
-5.49913 0.268791 -3.10021 -5.2217 -0.190499 -2.84489 -4.97049 -0.664228 -2.59047 
-4.74637 -1.15655 -2.34249 -4.55063 -1.67077 -2.10516 -4.38364 -2.20731 -1.88037 
-4.24331 -2.76301 -1.66724 -4.12385 -3.33046 -1.46203 -4.01524 -3.89771 -1.25877 
-3.9035 -4.44975 -1.05034 -3.77211 -4.96977 -0.830015 -3.60407 -5.44174 -0.592927 
-3.38431 -5.85294 -0.337174 -3.10198 -6.19596 -0.0643408 -2.752 -6.46958 0.220928 
-2.33562 -6.67879 0.512205 -1.85994 -6.83304 0.802676 -1.33656 -6.9439 1.08693 
-0.779813 -7.02213 1.3619 -0.204829 -7.07551 1.62677 0.374154 -7.10741 1.8826 
0.945167 -7.11592 2.13212 1.49936 -7.09571 2.37808 2.03151 -7.03952 2.62279 
2.54014 -6.94116 2.86813 3.02733 -6.79781 3.11492 3.49811 -6.61223 3.36353 
3.95958 -6.39297 3.61448 4.41945 -6.15334 3.86824 4.88458 -5.90889 4.12603 
5.35936 -5.67411 4.38989 5.84473 -5.4594 4.66242 6.33764 -5.26956 4.94673 
6.8318 -5.10301 5.2459 7.31881 -4.95297 5.56295 7.78989 -4.80985 5.8994 
8.23812 -4.66371 6.25555 8.66019 -4.50705 6.62981 9.05754 -4.33688 7.01861 
9.43684 -4.15593 7.4172 9.80917 -3.97192 7.81955 10.1879 -3.7962 8.2201 
10.5862 -3.64176 8.61438 11.0142 -3.52047 8.99946 11.4767 -3.44204 9.37507 
11.9708 -3.41297 9.74293 12.4855 -3.43665 10.1062 13.0018 -3.51384 10.4684 
13.4941 -3.64316 10.8321 13.9332 -3.82174 11.1981 14.2893 -4.04448 11.565 
14.5358 -4.30443 11.9295 14.6538 -4.59261 12.2873 14.6347 -4.89907 12.6342 
14.4817 -5.21447 12.9667 14.2104 -5.53228 13.2836 13.8464 -5.85002 13.586 
13.4216 -6.16916 13.8768 12.9705 -6.49479 14.1609 12.5249 -6.83252 14.444 
12.1111 -7.18617 14.7325 11.747 -7.5551 15.0326 11.4412 -7.93277 15.3513 
11.1947 -8.30586 15.6959 11.0014 -8.65539 16.0744 10.8512 -8.95775 16.4956 
10.731 -9.18695 16.9685 10.6269 -9.31593 17.5027 10.5246 -9.31722 18.1073 

LINES 2 120
OFFSETS vtktypeint64
0 120 
CONNECTIVITY vtktypeint64
0 1 2 3 4 5 6 7 8 
9 10 11 12 13 14 15 16 17 
18 19 20 21 22 23 24 25 26 
27 28 29 30 31 32 33 34 35 
36 37 38 39 40 41 42 43 44 
45 46 47 48 49 50 51 52 53 
54 55 56 57 58 59 60 61 62 
63 64 65 66 67 68 69 70 71 
72 73 74 75 76 77 78 79 80 
81 82 83 84 85 86 87 88 89 
90 91 92 93 94 95 96 97 98 
99 100 101 102 103 104 105 106 107 
108 109 110 111 112 113 114 115 116 
117 118 119 
CELL_DATA 1
FIELD FieldData 2
Length 1 1 double
67.986737691 
Tortuosity 1 1 double
0.65987787899 
POINT_DATA 120
FIELD FieldData 19
Curvature 1 120 double
0 0.21971596983 0.14091057854 0.084532791221 0.043553966216 0.024801800074 0.051128621486 0.097023930716 0.15845552907 
0.23593775112 0.3173245715 0.36983890908 0.36011577036 0.29346824581 0.20923213242 0.13854102026 0.091625912659 0.06482876954 
0.050701265029 0.05114037884 0.0786724543 0.14108354928 0.25101779296 0.43285497455 0.68759667615 0.89639435767 0.86903669342 
0.65855778897 0.44917243969 0.304988806 0.2087685397 0.14319638137 0.096997632307 0.083058183142 0.11772461311 0.19380154068 
0.30694234688 0.45058264622 0.57949010966 0.60804835747 0.51317383637 0.36991879728 0.24706328834 0.16139336003 0.1072067868 
0.078820228955 0.072780700112 0.078128013794 0.083795420956 0.08519350492 0.082210020608 0.080199933428 0.084927252346 0.094787743798 
0.10431499061 0.10494282583 0.092704273681 0.066388695775 0.028260682096 0.031072902017 0.096320763841 0.178552231 0.2687578495 
0.33997579789 0.35726105859 0.31289062678 0.2387569985 0.16776772137 0.11397126523 0.078065583215 0.058634663579 0.058760275208 
0.076993433862 0.10672967832 0.13611720267 0.15200847973 0.14264673158 0.10791868532 0.057714820161 0.0057203883704 0.038924275352 
0.067467441091 0.079238468451 0.076638295938 0.070255349179 0.072003525917 0.084692452297 0.095661419319 0.092452739091 0.068592201566 
0.025186528142 0.031765817043 0.087564610135 0.13156668003 0.15409596933 0.15406516448 0.14209274765 0.13337044534 0.14253370441 
0.18051211733 0.25447531978 0.37489608395 0.52997623737 0.64389218182 0.60800184916 0.44712152091 0.27579529069 0.14660994349 
0.054049396068 0.033630640194 0.088985391287 0.13691485814 0.17056388048 0.19171939259 0.2125833207 0.25752305423 0.32729080578 
0.3916766259 0.40008594445 0 
Torsion 1 120 double
0 0 0.1061320119 0.23704237134 0.80567568127 2.454021754 0.5841133827 0.14600103783 0.025171391136 
-0.027254595495 -0.058693428036 -0.087082722269 -0.12680889293 -0.19397534882 -0.30682495025 -0.47754112032 -0.67271716955 -0.83905228422 
-1.0876609283 -1.2411945124 -0.76141092677 -0.34755846703 -0.13227578209 -0.0058952418828 0.073522016016 0.12501808552 0.1723879287 
0.21403213741 0.2153753831 0.15515309574 0.031694885953 -0.20325592409 -0.70746006745 -1.1859570653 -0.72337002174 -0.36631281518 
-0.23026626789 -0.17642899011 -0.15185411534 -0.14974684683 -0.16648119244 -0.19948690004 -0.26437094348 -0.38467705426 -0.58540665501 
-0.78064225622 -0.67668978622 -0.40469420322 -0.17355227732 0.022509105129 0.2159688432 0.37537758573 0.36825344286 0.24328515942 
0.11721947994 0.027098853694 -0.046416873154 -0.18121089118 -1.2955855967 -1.434695567 -0.24657092165 -0.13669832623 -0.11191321302 
-0.10782542837 -0.11398257707 -0.12861325921 -0.14279509876 -0.13694927101 -0.081011934531 0.080762120048 0.39989561306 0.48982636824 
0.24233933207 0.07648569256 0.00022438819367 -0.030568120549 -0.035149738089 -0.033284079359 -0.0023366903181 6.3240190129 -0.014250878266 
-0.15842897697 -0.27822917342 -0.49008464929 -0.75480668702 -0.77358824665 -0.51147790112 -0.29510086502 -0.15578667524 -0.027889469513 
0.81479365091 0.57292351536 0.0091815819294 -0.071304299714 -0.13343721991 -0.21467041599 -0.33997929671 -0.46833355159 -0.47737589067 
-0.36635107313 -0.24218065226 -0.15697675943 -0.10521025803 -0.07219918401 -0.050042498792 -0.024714368848 0.023744921067 0.15836186485 
1.0635559889 2.2608247957 0.3511798879 0.25075226763 0.3336017726 0.49114068705 0.63838277926 0.59950723978 0.42782790016 
0.27554080056 0 0 
FrenetTangent 3 120 double
-0.45130768825 -0.86400708406 0.2231885508 -0.45130768825 -0.86400708406 0.2231885508 -0.53814529997 -0.81072722039 0.23047995629 
-0.59273189399 -0.77190278245 0.22985864417 -0.62380909345 -0.74900181964 0.22329014554 -0.63617198652 -0.74212409675 0.21103797903 
-0.63141402304 -0.75134452323 0.19182736749 -0.60836107147 -0.77678360151 0.1628006239 -0.56325645551 -0.81759306406 0.1195146306 
-0.4904297228 -0.8696394503 0.05662078658 -0.38538849505 -0.92228217591 -0.029517721384 -0.25208833263 -0.95814364445 -0.1356916694 
-0.10927618802 -0.96237509936 -0.2487828026 0.016246989803 -0.93573808737 -0.35232125563 0.10643634904 -0.89298639854 -0.43731749979 
0.15823290482 -0.84922521494 -0.5037647091 0.17760716007 -0.81275130136 -0.55487928312 0.17322533419 -0.78655624038 -0.59272444214 
0.15336904828 -0.771860855 -0.61701600916 0.12462937631 -0.77028730491 -0.62539986125 0.091093478774 -0.78443887457 -0.61347993463 
0.05360901927 -0.81731320978 -0.57369433514 0.0091775244587 -0.8699043895 -0.49313499792 -0.049122807317 -0.93498874752 -0.35125915192 
-0.12956087712 -0.9836357222 -0.12519882237 -0.23088449084 -0.95664239505 0.17756035563 -0.33117086121 -0.81322097991 0.47853683088 
-0.40819332957 -0.59898225396 0.68891107201 -0.46139100336 -0.38794048535 0.79788503046 -0.49852527869 -0.21341236139 0.84019504313 
-0.52347210203 -0.079042417797 0.84836858416 -0.53602125928 0.020408051328 0.84395777207 -0.53367020865 0.091062742549 0.84077564505 
-0.51242671337 0.1377841661 0.84760508906 -0.46670847274 0.16347788176 0.86917097492 -0.38861087835 0.16753142729 0.90604349018 
-0.26777989669 0.14519737314 0.95247658751 -0.095206015727 0.088238026984 0.9915391395 0.12388526151 -0.0088037308103 0.99225749496 
0.35322636236 -0.13551238353 0.92567139463 0.53948875428 -0.26434504338 0.79942077909 0.65682437991 -0.37254475798 0.65558533942 
0.71518570013 -0.45552105718 0.53010374531 0.73472034491 -0.51913731297 0.43667203375 0.73072058253 -0.56997824899 0.37572892616 
0.71226290326 -0.61223595411 0.34329097444 0.68431034398 -0.64809194103 0.33420979802 0.64985270014 -0.67836869341 0.34279350041 
0.6113404852 -0.70334297073 0.36272782728 0.57074492971 -0.72414619765 0.38712079463 0.52945750239 -0.74299773639 0.40942534958 
0.48791626183 -0.76268917605 0.42455028226 0.44522496384 -0.78579452482 0.42930373436 0.40007374068 -0.81310182179 0.42285509271 
0.35172460691 -0.84320708942 0.40656070303 0.30131789623 -0.87284016949 0.38387180665 0.25268856351 -0.89805741457 0.36005745375 
0.21183184941 -0.9158404522 0.34112099566 0.18581932097 -0.92450407518 0.33281135037 0.18169433118 -0.92290472519 0.33946139433 
0.20605746838 -0.90857284171 0.36336718487 0.26435707977 -0.87580359737 0.40383584934 0.35801886913 -0.8153524347 0.45499768854 
0.47864875464 -0.71900808491 0.50390747515 0.60521299299 -0.59022196252 0.53418654801 0.7137526505 -0.44968632413 0.53697240506 
0.79272946846 -0.32298743404 0.51697108941 0.84474751533 -0.22416221684 0.48595569334 0.87749866113 -0.15361492683 0.45431107622 
0.89764602993 -0.1043884722 0.42817595894 0.90944167144 -0.067210292896 0.41036401252 0.9150309432 -0.032153917499 0.40210011015 
0.91515660751 0.0095144496595 0.40298617715 0.90948577608 0.063960404239 0.41078545471 0.8966697798 0.13315311241 0.42220084634 
0.87599767808 0.21262725863 0.4329176791 0.84961953709 0.29172456215 0.43936706982 0.82318156882 0.35747576371 0.44111583865 
0.80370063957 0.40029330816 0.44026191001 0.79563146468 0.41637660362 0.44000124586 0.79859580979 0.40718649036 0.44321991681 
0.80812136061 0.37831789578 0.45145922988 0.81786136341 0.33820583445 0.46553152824 0.82205241255 0.29680847781 0.48593678448 
0.81688908435 0.26358525882 0.51304486666 0.80093034005 0.24507436453 0.54630499379 0.77460897321 0.2437329501 0.58358820042 
0.74015158006 0.25751993221 0.6211755976 0.7025123483 0.28019575192 0.65419166999 0.66931195633 0.30258764997 0.67857366527 
0.64939456434 0.31531938787 0.69199738687 0.64926920011 0.31097345268 0.69407853844 0.67010735548 0.28473538016 0.68547931801 
0.70694323877 0.23590278276 0.66676917614 0.74954377699 0.16810304932 0.64025423949 0.78646361856 0.08838163216 0.61128034794 
0.80969390978 0.0043279532131 0.58683646894 0.81522821474 -0.079759585854 0.57362127432 0.80066601401 -0.16393355447 0.57624623533 
0.76183816995 -0.25183351425 0.59681025787 0.68937244222 -0.34792720635 0.63538358099 0.56658053751 -0.45387367568 0.68773918097 
0.37305060747 -0.5608713444 0.7390917259 0.10666403528 -0.64122651208 0.75990219356 -0.18371746054 -0.66368987348 0.72509561199 
-0.42369910188 -0.63233492235 0.64856118989 -0.58212275534 -0.58233684078 0.56746533074 -0.67154440071 -0.54219449452 0.50502796753 
-0.71196458087 -0.52411556292 0.46734282095 -0.71658031699 -0.53014122488 0.45328019037 -0.69179944981 -0.55655587941 0.46006420675 
-0.64083671326 -0.59519598104 0.48484023254 -0.56841110351 -0.63345238509 0.52502085028 -0.48279690935 -0.65630733735 0.5797998131 
-0.39520055904 -0.64932502553 0.64976421058 -0.31589818528 -0.59948547226 0.7354083934 -0.25158086268 -0.49455940374 0.83193633513 
-0.20535350864 -0.32794374324 0.92210782328 -0.17723555775 -0.11185467832 0.9777914338 -0.17723555775 -0.11185467832 0.9777914338 

FrenetNormal 3 120 double
-0.87087881517 0.48099889801 0.1010452839 -0.87087881517 0.48099889801 0.1010452839 -0.82814803863 0.55945914755 0.034297060236 
-0.80130936256 0.59392185627 -0.071834073478 -0.77046512599 0.54130783881 -0.33670359855 -0.23807493614 -0.071361839639 -0.96862160446 
0.42177864073 -0.54034640697 -0.72809926431 0.56646059728 -0.56864781523 -0.59645792304 0.63577643377 -0.52122068491 -0.56931302803 
0.6936087871 -0.42884217721 -0.57879291418 0.74557768693 -0.29238369198 -0.59885364607 0.78007471192 -0.11822515956 -0.61441537698 
0.77979860718 0.072209541863 -0.62185200354 0.73237575652 0.2510280024 -0.63293814332 0.6260682093 0.40187275525 -0.66823415499 
0.43028109987 0.51850636785 -0.73892443564 0.10156546412 0.57597118448 -0.81113602506 -0.34555091845 0.51502635311 -0.78443764466 
-0.79921134 0.27032930868 -0.53682706609 -0.98516645487 -0.17100473005 0.014298199215 -0.73091110445 -0.4710748543 0.49381923721 
-0.4870083601 -0.52295971664 0.69952554776 -0.37179450604 -0.46076932812 0.80589110402 -0.3311721394 -0.31654160501 0.88889055928 
-0.31979152328 -0.078066068274 0.9442664193 -0.30207159199 0.24395020179 0.92154275666 -0.2654357449 0.56696652506 0.77980306796 
-0.22977245634 0.79776090195 0.55747839565 -0.21094026337 0.92151135289 0.32606905982 -0.1991223831 0.97149797756 0.12861553616 
-0.16881748277 0.98557007179 -0.012340628091 -0.075395089005 0.99455562963 -0.071935249486 0.17808738911 0.98399344421 0.0064640221898 
0.64120592631 0.71794633003 0.27093915786 0.87595864515 0.22099166034 0.42878798728 0.91146935054 -0.07409895619 0.4046393057 
0.92404276504 -0.24123956971 0.29656101965 0.92617710864 -0.35724263605 0.12072142487 0.89015228969 -0.44089977354 -0.1150490802 
0.79040671915 -0.48610415638 -0.37277334599 0.6314619638 -0.50101309983 -0.59181218479 0.44879461622 -0.50551732076 -0.73690951334 
0.26186412233 -0.5285668935 -0.80749255137 0.059432486297 -0.591972415 -0.80376392022 -0.18965844137 -0.6982031513 -0.690320241 
-0.48395402006 -0.78259114755 -0.39158600875 -0.69444256126 -0.71901863172 0.027599571753 -0.75951315334 -0.56248091167 0.32673382731 
-0.77315944728 -0.4330814915 0.46331942631 -0.79544611419 -0.37060819808 0.47949457028 -0.8361198461 -0.37542639586 0.39994827696 
-0.87269746507 -0.43644984067 0.21888506353 -0.86515212182 -0.50111087179 -0.0199925054 -0.8286680303 -0.51801518429 -0.21206028482 
-0.80297286918 -0.49500491651 -0.33197093848 -0.80351000068 -0.44918752922 -0.39064336984 -0.82423157441 -0.39470163203 -0.40602085342 
-0.86709064102 -0.33714817966 -0.36672186355 -0.96901182163 -0.2285226015 -0.093773717799 0.46047567753 0.38487189539 0.79989735251 
0.71357912807 0.39361321339 0.57954591382 0.75858931455 0.44739527819 0.47368736198 0.75882018073 0.53802227213 0.36704763725 
0.72265237261 0.64857646533 0.23900233677 0.65280070377 0.75200833166 0.091294634375 0.56517121407 0.8226150297 -0.062337883344 
0.48238740309 0.85088141445 -0.208094238 0.41663698848 0.84537677332 -0.33429288199 0.36557424105 0.82740067507 -0.42633742174 
0.31426121933 0.83275471092 -0.45580640349 0.22794042742 0.90595373829 -0.35677862272 0.07373370036 0.99335612773 -0.08835691787 
-0.057307672878 0.992637715 0.10670612633 -0.14285604777 0.97600796954 0.16431857173 -0.21566526724 0.96425941992 0.15392291446 
-0.28332801274 0.95324430577 0.1051215045 -0.34655866289 0.9367914066 0.048155515679 -0.39773821445 0.91749802623 -0.0012979363429 
-0.42767339809 0.90303309999 -0.040332181806 -0.56078806508 0.78094531388 0.27502938533 0.33334487872 -0.91237947578 0.23758132083 
0.2792089938 -0.92092096486 0.27193181912 0.1725671188 -0.91595999144 0.36226769604 0.0054107566838 -0.85743449915 0.51456467367 
-0.24923052424 -0.6408506415 0.72608167659 -0.49863299543 -0.23210212084 0.83516090747 -0.6241897348 0.14606285682 0.7674977634 
-0.67005551195 0.3601719337 0.64907764488 -0.69540346064 0.46568875765 0.54730979156 -0.7186209276 0.49560014897 0.48781600502 
-0.75233553726 0.39899003396 0.52421197256 0.58242352968 -0.79017772901 -0.19079305191 0.60153096291 -0.74937397012 -0.27676552092 
0.55095131917 -0.77481751067 -0.31001688512 0.46051303914 -0.82721761662 -0.32192973696 0.33692818681 -0.89086989295 -0.30468053887 
0.17218373836 -0.9577151404 -0.23050915401 -0.04609057925 -0.99626470265 -0.073022604497 -0.28548251157 -0.9500120402 0.12639960074 
-0.48647804786 -0.83078542832 0.27043424534 -0.64595830984 -0.6922363546 0.32178671713 -0.78438574961 -0.55276761125 0.28140178352 
-0.90717671388 -0.38756456059 0.16378071058 -0.98273710937 -0.18418042004 -0.017474173313 -0.97563767364 0.033131049392 -0.21687199761 
-0.90002532822 0.21315309508 -0.38015808109 -0.80658126703 0.32536730076 -0.49352079923 -0.72798846696 0.35579488311 -0.58603992451 
-0.62456612314 0.16842925056 -0.76259343387 0.52666661396 -0.83731744595 -0.14670300763 0.71086904329 -0.63680629029 0.29856816967 
0.76763358809 -0.50355883825 0.39644314959 0.81398052307 -0.34007817029 0.470937943 0.81731647927 -0.099932618929 0.56745682161 
0.72290906591 0.21657938449 0.65612182759 0.52222887126 0.53726273446 0.66228827574 0.31612570764 0.77044652794 0.55360336394 
0.17318592394 0.91514216581 0.36403496002 0.084444019704 0.98812809805 0.12834355992 0.084444019704 0.98812809805 0.12834355992 

FrenetBinormal 3 120 double
-0.19465728808 -0.1487676672 -0.96952396638 -0.19465728808 -0.1487676672 -0.96952396638 -0.15674968018 -0.17241472198 -0.9724724682 
-0.081069151432 -0.22676623006 -0.97056935331 0.13132290189 -0.38207603669 -0.91475253355 0.73389749172 -0.66645278367 -0.13128274366 
0.65070662339 -0.37882339933 0.65808337039 0.5558949527 -0.2706416425 0.78596049704 0.52775988061 -0.24468465262 0.81338731807 
0.52762253312 -0.24458457335 0.81350651443 0.5436815434 -0.25279905985 0.80031432245 0.57265601925 -0.26073658784 0.77722681077 
0.61641937589 -0.26195409942 0.74256797859 0.68070682866 -0.24774820657 0.68939033904 0.77247 -0.20266618022 0.60184426431 
0.88871847225 -0.099838273211 0.44745032828 0.97884633788 0.087706993925 0.18484406949 0.92227303243 0.34070094851 -0.18257961914 
0.58115330942 0.5754588477 -0.57541979942 -0.11796005579 0.61434098853 -0.78017342626 -0.6763659775 0.40341558437 -0.61626693142 
-0.87175049771 0.24189305878 -0.42607372351 -0.92826969051 0.17594879764 -0.32765439457 -0.94229080643 0.1599920445 -0.29409281156 
-0.93858796112 0.16237750764 -0.30444405767 -0.92490275446 0.15913399086 -0.34529880937 -0.90546657918 0.13122727343 -0.40362070895 
-0.88350598413 0.069266173269 -0.46327030257 -0.8617555032 -0.01786074779 -0.50700931588 -0.84369593045 -0.10318354325 -0.526811478 
-0.83515125331 -0.14967942336 -0.52926217919 -0.84083101165 -0.10218909436 -0.53156429417 -0.8267290912 0.15318119553 -0.54134511275 
-0.57120383708 0.68232586845 -0.45624290213 -0.12198218498 0.96147681627 -0.24633854411 0.1349266773 0.98307810756 -0.12390410077 
0.27283492316 0.95954217877 -0.069569475099 0.36487227629 0.9298342592 -0.047712392678 0.43849896595 0.89751316649 -0.046784322607 
0.500488117 0.86333026303 -0.064594904415 0.55696290027 0.82407983341 -0.10336709289 0.60594152061 0.77824330496 -0.16484001906 
0.64802515056 0.71632227772 -0.25873886196 0.67576164019 0.61649420935 -0.40408055569 0.65580264248 0.43317104612 -0.61829259976 
0.50839951131 0.11277514034 -0.85370469404 0.22241601165 -0.25097618057 -0.94209451466 -0.028831198899 -0.47268503235 -0.88075968468 
-0.16878175325 -0.56369236934 -0.80855651164 -0.20375402972 -0.58160282662 -0.78754202899 -0.14345158109 -0.55408427609 -0.82000747489 
0.018353634296 -0.4773015371 -0.87854788532 0.23083876987 -0.3625118742 -0.90293887024 0.39147196269 -0.26556674538 -0.8810357576 
0.48116979566 -0.20969486636 -0.85117782558 0.51339965351 -0.19073699724 -0.8366840465 0.50674530251 -0.19417389577 -0.83994386514 
0.45086704008 -0.21809945222 -0.8655354072 0.16274909984 -0.30507316431 -0.93831929263 -0.86887819654 0.010976901072 0.49490422025 
-0.6695858031 0.13987147514 0.72944555844 -0.59553134781 0.18112295241 0.78264735986 -0.54407207489 0.21385144825 0.81132800729 
-0.49866714154 0.24975176165 0.8300332159 -0.45559683303 0.29346465558 0.84042252567 -0.41368907732 0.34797517555 0.84129342355 
-0.37266926782 0.41434277597 0.83032384093 -0.33587982251 0.48486019806 0.80752419974 -0.31040549931 0.54019494365 0.78220064488 
-0.30898461284 0.54371190745 0.78032420873 -0.34779161547 0.41800789539 0.83923202489 -0.39658758733 0.11049764293 0.9113224218 
-0.39900402799 -0.12074701658 0.90896421472 -0.39041999529 -0.20812859028 0.8968024962 -0.38661582805 -0.22907208417 0.8933387833 
-0.39032461515 -0.21474389956 0.89528305715 -0.39754714862 -0.19318033117 0.89701595541 -0.40518689209 -0.17438018876 0.89744923659 
-0.41371577988 -0.15587330679 0.89696307935 -0.2291011097 -0.46556947998 0.85484369381 0.50112465956 -0.041986357886 -0.86435595754 
0.51863494319 -0.093702434344 -0.84984566216 0.54892930306 -0.21594931726 -0.80749149384 0.56938612095 -0.4203698457 -0.70646205708 
0.52016955857 -0.72099463702 -0.4578104015 0.33147507636 -0.94131140509 -0.063695466084 0.10182393431 -0.9587804185 0.26527720503 
-0.056579585047 -0.8966379775 0.43913447583 -0.15129582748 -0.83941903815 0.52200119825 -0.18869411102 -0.81413832143 0.54915692297 
-0.11080586259 -0.86103463138 0.49632794036 0.48911382916 0.52812372443 -0.694156318 0.43487542216 0.59779964553 -0.67343815678 
0.44349058735 0.58652169801 -0.67772294981 0.47551221557 0.53614585662 -0.69744946288 0.51764309481 0.44557773837 -0.73041502275 
0.56102453841 0.28768555518 -0.77620131966 0.57730288099 0.033091550696 -0.81585926046 0.52671972585 -0.26571208704 -0.80744251635 
0.42771685933 -0.49636221975 -0.75543552673 0.32787726034 -0.63226219914 -0.70195513653 0.25243908239 -0.69888958676 -0.66919941363 
0.19458585266 -0.73158529674 -0.65339061789 0.15116400841 -0.74492021927 -0.64980251576 0.11991257012 -0.74727376871 -0.65360759644 
0.10214440571 -0.74479413534 -0.65943022098 0.10276068014 -0.74499659293 -0.65910569649 0.13806125396 -0.76120636575 -0.63364340042 
0.32097288579 -0.83482600837 -0.447260486 0.45731272346 0.13360305533 0.87921288467 0.12680191056 0.53359469802 0.83618058679 
0.0081842148949 0.62623497234 0.77959141738 -0.1197686331 0.6950431022 0.70892211181 -0.31448516187 0.74784634158 0.58465796184 
-0.56676185524 0.7290201516 0.38381065385 -0.79213972414 0.59326715963 0.14334829868 -0.91475221044 0.40227247453 -0.037486660668 
-0.96324273796 0.23445195165 -0.13113241448 -0.98053901738 0.10531568153 -0.16568597593 -0.98053901738 0.10531568153 -0.16568597593 

plain_curvature_peaks 1 120 unsigned_char
0 0 0 0 0 0 0 0 0 
0 0 0 0 0 0 0 0 0 
0 0 0 0 0 0 0 0 0 
0 0 1 0 0 0 0 0 0 
0 0 0 0 0 0 0 0 0 
0 0 0 0 0 0 0 0 0 
0 0 0 0 0 0 0 1 0 
0 0 0 0 0 0 0 0 0 
0 0 0 0 0 0 0 0 0 
0 1 0 0 0 0 0 0 0 
0 0 0 0 0 0 0 0 0 
0 0 0 0 0 0 0 0 1 
0 0 0 0 0 0 0 0 0 
0 0 0 
weighted_curvature_peaks 1 120 unsigned_char
0 0 0 0 1 0 0 0 0 
0 0 0 0 0 0 0 0 0 
0 0 0 0 0 0 0 0 0 
0 0 0 0 0 0 0 0 0 
0 0 0 0 0 0 0 0 0 
0 0 0 1 0 0 0 0 0 
0 0 0 0 0 0 0 0 0 
0 0 0 0 0 0 0 0 0 
0 0 0 0 0 0 0 0 0 
0 0 0 0 0 0 1 0 0 
0 0 0 0 0 0 0 0 0 
0 0 0 0 0 0 0 0 0 
0 0 0 0 1 0 0 0 0 
0 0 0 
plain_torsion_tp 1 120 unsigned_char
0 0 0 0 0 0 0 0 0 
0 0 0 0 0 0 0 0 0 
0 0 0 0 0 0 0 0 0 
0 0 1 0 0 0 0 0 0 
0 0 0 0 0 0 0 0 0 
0 0 0 0 0 0 0 0 0 
0 0 0 0 0 0 0 1 0 
0 0 0 0 0 0 0 0 0 
0 0 0 0 0 0 0 0 0 
0 1 0 0 0 0 0 0 0 
0 0 0 0 0 0 0 0 0 
0 0 0 0 0 0 0 0 1 
0 0 0 0 0 0 0 0 0 
0 0 0 
plain_torsion_tn 1 120 unsigned_char
0 0 0 0 0 0 0 0 0 
0 2 0 0 0 0 0 0 0 
0 0 0 0 0 0 0 0 0 
0 0 0 0 0 0 0 0 0 
0 0 0 0 0 0 0 0 0 
0 0 0 0 0 0 0 0 0 
2 0 0 0 0 0 0 0 0 
2 0 0 0 0 0 0 0 0 
0 0 0 0 0 0 0 0 0 
0 0 0 0 0 0 0 2 0 
0 0 0 0 0 0 0 0 0 
0 0 0 0 0 0 0 0 0 
0 0 0 0 0 0 0 0 0 
0 0 0 
plain_torsion_tz 1 120 unsigned_char
0 0 0 0 0 0 0 0 0 
0 0 0 0 3 0 0 0 0 
0 0 0 0 0 0 0 0 0 
0 0 0 0 0 0 0 0 0 
0 0 0 0 0 0 0 0 0 
3 0 0 0 0 0 0 0 0 
0 0 0 0 0 3 0 0 0 
0 0 0 0 3 0 0 0 0 
0 0 0 0 0 0 0 0 0 
0 0 0 0 0 0 3 0 0 
0 0 0 3 0 0 0 0 0 
0 0 0 0 0 0 0 0 0 
0 0 0 0 0 0 0 0 0 
0 0 0 
weighted_torsion_tp 1 120 unsigned_char
0 0 0 0 1 0 0 0 0 
0 0 0 0 0 0 0 0 0 
0 0 0 0 0 0 0 0 0 
0 0 0 0 0 0 0 0 0 
0 0 0 0 0 0 0 0 0 
0 0 0 1 0 0 0 0 0 
0 0 0 0 0 0 0 0 0 
0 0 0 0 0 0 0 0 0 
0 0 0 0 0 0 0 0 0 
0 0 0 0 0 0 1 0 0 
0 0 0 0 0 0 0 0 0 
0 0 0 0 0 0 0 0 0 
0 0 0 0 1 0 0 0 0 
0 0 0 
weighted_torsion_tn 1 120 unsigned_char
0 2 0 0 0 0 0 0 0 
0 0 0 0 0 0 0 0 0 
0 0 0 0 0 0 0 0 0 
0 0 2 0 0 0 0 0 0 
0 0 0 0 0 0 0 0 0 
0 0 0 0 0 0 0 0 0 
0 0 0 0 0 0 0 0 0 
0 0 2 0 0 0 0 0 0 
0 0 0 0 0 0 0 0 0 
0 0 0 0 0 0 0 0 0 
0 0 0 0 2 0 0 0 0 
0 0 0 0 0 0 0 0 0 
0 0 0 0 0 0 0 0 0 
0 0 0 
weighted_torsion_tz 1 120 unsigned_char
0 3 0 0 0 0 0 0 0 
0 0 0 0 0 0 0 0 3 
0 0 0 0 0 0 0 0 0 
0 0 0 0 0 0 0 0 0 
0 3 0 0 0 0 0 0 0 
0 0 0 0 0 0 0 0 0 
0 0 0 0 0 0 0 0 0 
0 0 0 0 0 0 0 0 3 
0 0 0 0 0 0 0 0 0 
0 0 0 0 0 0 0 0 0 
0 0 3 0 0 0 0 0 3 
0 0 0 0 0 0 0 0 0 
0 0 0 0 0 0 0 0 0 
0 0 0 
plain_torsion_tp_raw 1 120 unsigned_char
0 0 0 0 0 0 0 0 0 
0 0 0 0 0 0 0 0 0 
0 0 0 0 0 0 0 0 0 
0 0 0 0 0 0 0 0 1 
0 0 0 0 0 0 0 0 0 
0 0 0 0 0 0 0 0 0 
0 0 0 1 0 0 0 0 0 
0 0 1 0 0 0 0 0 0 
0 0 0 0 0 0 0 0 0 
0 0 0 0 1 0 0 0 0 
0 0 0 0 0 0 0 0 1 
0 0 0 0 0 0 0 0 0 
0 0 1 0 0 0 0 0 0 
0 0 0 
plain_torsion_tn_raw 1 120 unsigned_char
0 0 0 0 0 0 0 0 0 
0 0 0 0 0 0 0 0 0 
0 0 0 0 0 2 0 0 0 
0 0 0 0 0 0 0 0 0 
0 0 0 0 0 0 0 0 0 
0 0 0 2 0 0 0 0 0 
0 0 0 0 0 0 0 2 0 
0 0 0 0 0 0 0 0 2 
0 0 0 0 0 0 0 0 0 
0 0 0 0 0 0 0 0 0 
2 0 0 0 0 0 0 0 0 
0 0 0 0 0 2 0 0 0 
0 0 0 0 0 0 0 0 0 
0 0 0 
plain_torsion_tz_raw 1 120 unsigned_char
0 0 0 0 0 0 0 0 0 
0 3 0 0 0 0 0 0 0 
0 0 0 0 0 0 0 0 0 
0 0 0 3 0 0 0 0 0 
3 0 0 0 0 0 0 0 0 
0 0 0 0 0 0 0 0 3 
0 0 0 0 0 0 0 0 0 
0 0 0 0 0 0 0 0 0 
0 0 0 0 0 0 0 0 0 
0 0 0 0 0 0 0 0 0 
0 0 0 0 0 0 0 0 0 
0 0 0 0 0 0 0 0 0 
0 0 0 0 0 0 0 0 0 
0 0 0 
weighted_torsion_tp_raw 1 120 unsigned_char
0 0 0 0 0 0 0 0 1 
0 0 0 0 0 0 0 0 0 
0 0 0 0 0 0 0 0 0 
0 0 0 0 0 0 1 0 0 
0 0 0 0 0 0 0 0 0 
0 0 0 0 0 0 0 0 0 
0 0 0 0 0 0 0 0 0 
0 0 0 0 0 0 1 0 0 
0 0 0 0 0 0 0 0 0 
0 0 0 0 0 0 0 0 0 
1 0 0 0 0 0 0 0 0 
0 0 0 0 1 0 0 0 0 
0 0 0 0 0 0 1 0 0 
0 0 0 
weighted_torsion_tn_raw 1 120 unsigned_char
0 0 2 0 0 0 0 0 0 
0 0 0 0 0 0 0 0 0 
0 0 2 0 0 0 0 0 0 
0 0 0 0 0 0 0 0 0 
0 0 0 0 0 0 0 0 0 
0 0 0 0 0 0 0 0 0 
0 0 0 0 0 2 0 0 0 
0 0 0 0 0 0 0 0 0 
0 0 0 0 2 0 0 0 0 
0 0 0 0 0 0 0 0 0 
0 0 0 0 0 2 0 0 0 
0 0 0 0 0 0 0 0 0 
2 0 0 0 0 0 0 0 0 
0 0 0 
weighted_torsion_tz_raw 1 120 unsigned_char
0 3 0 0 3 0 0 0 0 
3 0 0 0 0 0 0 0 0 
0 0 0 0 0 0 0 0 0 
0 3 0 0 0 0 0 0 0 
0 0 0 0 0 0 0 0 0 
0 0 0 0 0 0 0 0 0 
0 0 0 0 0 0 0 0 0 
0 0 0 0 0 0 0 0 0 
0 0 0 0 0 0 0 0 0 
0 0 0 0 0 0 0 0 0 
0 0 0 0 0 0 0 0 0 
0 0 0 0 0 0 0 0 0 
0 0 0 0 0 0 0 0 0 
0 0 0 
