# vtk DataFile Version 5.1
vtk output
ASCII
DATASET POLYDATA
POINTS 120 float
-3.26129 18.0113 -1.78697 -3.52042 17.5993 -2.41271 -3.78497 17.2309 -2.86213 
-4.05331 16.8981 -3.16412 -4.32385 16.5931 -3.34787 -4.59497 16.3084 -3.44321 
-4.86502 16.0377 -3.48088 -5.13219 15.7768 -3.49238 -5.39442 15.5233 -3.50898 
-5.64962 15.2764 -3.55954 -5.89596 15.035 -3.66752 -6.13191 14.796 -3.84815 
-6.35556 14.5535 -4.10714 -6.56378 14.299 -4.44064 -6.75154 14.0229 -4.83692 
-6.91246 13.7163 -5.27921 -7.04001 13.3734 -5.74899 -7.12873 12.9928 -6.22885 
-7.17514 12.578 -6.70456 -7.17762 12.137 -7.16605 -7.13596 11.6806 -7.60742 
-7.05032 11.2209 -8.02625 -6.92077 10.7691 -8.42285 -6.74728 10.3334 -8.79946 
-6.53025 9.91803 -9.16001 -6.27148 9.5229 -9.5099 -5.97477 9.14384 -9.85583 
-5.64617 8.77379 -10.2051 -5.29346 8.40447 -10.5645 -4.92555 8.02812 -10.9383 
-4.55171 7.63902 -11.3267 -4.18141 7.23468 -11.7232 -3.82418 6.81617 -12.1139 
-3.48986 6.38809 -12.4775 -3.18849 5.9581 -12.7864 -2.92996 5.5362 -13.011 
-2.72326 5.13393 -13.124 -2.57543 4.76282 -13.1057 -2.49069 4.4335 -12.9489 
-2.46985 4.15422 -12.6597 -2.5102 3.92938 -12.257 -2.6058 3.75899 -11.7686 
-2.74774 3.63769 -11.2253 -2.92452 3.55502 -10.6562 -3.12269 3.49696 -10.0838 
-3.32816 3.44773 -9.52219 -3.52818 3.39264 -8.97727 -3.71327 3.32014 -8.44821 
-3.87856 3.22359 -7.93017 -4.02377 3.10155 -7.4169 -4.15187 2.95677 -6.90279 
-4.26722 2.79341 -6.38449 -4.37382 2.6141 -5.86187 -4.47401 2.41794 -5.33784 
-4.5681 2.20038 -4.81757 -4.65454 1.95393 -4.30699 -4.73066 1.67156 -3.81112 
-4.79343 1.34885 -3.33299 -4.83994 0.985554 -2.87325 -4.86771 0.585122 -2.43077 
-4.8747 0.153893 -2.00365 -4.8594 -0.301052 -1.59033 -4.82103 -0.773451 -1.1901 
-4.75981 -1.25876 -0.803119 -4.6773 -1.75371 -0.429648 -4.57648 -2.25592 -0.069204 
-4.46121 -2.76242 0.280162 -4.33529 -3.26914 0.621745 -4.20093 -3.77026 0.959634 
-4.05741 -4.25874 1.2975 -3.90034 -4.72758 1.63744 -3.72178 -5.17039 1.9792 
-3.51155 -5.58315 2.32009 -3.25956 -5.96468 2.65577 -2.95825 -6.31695 2.98152 
-2.60452 -6.64424 3.29358 -2.20031 -6.95222 3.58986 -1.75184 -7.24604 3.87021 
-1.26792 -7.52931 4.13578 -0.757892 -7.80312 4.38842 -0.229991 -8.06561 4.63002 
0.309623 -8.31206 4.86226 0.856892 -8.5365 5.0867 1.40936 -8.73231 5.30536 
1.96529 -8.89414 5.52108 2.52293 -9.01842 5.7378 3.08017 -9.10396 5.96038 
3.63463 -9.15208 6.19389 4.18416 -9.16631 6.44272 4.72738 -9.1519 6.70971 
5.26388 -9.11523 6.99561 5.7941 -9.06426 7.29929 6.31876 -9.00708 7.61852 
6.8378 -8.9522 7.9512 7.34988 -8.90757 8.29629 7.85215 -8.88072 8.65416 
8.34064 -8.87848 9.02607 8.81147 -8.90677 9.41293 9.26208 -8.97063 9.81461 
9.69169 -9.07406 10.2287 10.1019 -9.21936 10.6512 10.4962 -9.40692 11.0765 
10.8796 -9.63509 11.499 11.257 -9.90033 11.9133 11.633 -10.1977 12.3158 
12.0101 -10.5216 12.7043 12.3884 -10.8672 13.0779 12.7653 -11.2305 13.4378 
13.1351 -11.6093 13.785 13.4897 -12.0032 14.1218 13.8191 -12.413 14.45 
14.1132 -12.8406 14.7716 14.3626 -13.2879 15.0879 14.5601 -13.7569 15.4004 
14.7015 -14.2483 15.7097 14.7854 -14.762 16.0169 14.813 -15.2973 16.3224 
14.7872 -15.8525 16.6271 14.7115 -16.426 16.9315 14.5898 -17.0159 17.2363 

LINES 2 120
OFFSETS vtktypeint64
0 120 
CONNECTIVITY vtktypeint64
0 1 2 3 4 5 6 7 8 
9 10 11 12 13 14 15 16 17 
18 19 20 21 22 23 24 25 26 
27 28 29 30 31 32 33 34 35 
36 37 38 39 40 41 42 43 44 
45 46 47 48 49 50 51 52 53 
54 55 56 57 58 59 60 61 62 
63 64 65 66 67 68 69 70 71 
72 73 74 75 76 77 78 79 80 
81 82 83 84 85 86 87 88 89 
90 91 92 93 94 95 96 97 98 
99 100 101 102 103 104 105 106 107 
108 109 110 111 112 113 114 115 116 
117 118 119 
CELL_DATA 1
FIELD FieldData 2
Length 1 1 double
69.294534906 
Tortuosity 1 1 double
0.58661710059 
POINT_DATA 120
FIELD FieldData 19
Curvature 1 120 double
0 0.18949345354 0.29650126139 0.40680627694 0.44589145994 0.36047393656 0.18132720207 0.042175396036 0.26566922373 
0.45262748107 0.51727738106 0.43847001556 0.3038363972 0.19956336459 0.14879518522 0.13554468143 0.1354037387 0.13492394643 
0.13100478317 0.1253475635 0.12228307115 0.12500166635 0.1328445271 0.13982792176 0.13680587146 0.11802484914 0.085558712594 
0.048215680605 0.016583126406 0.014373674908 0.029106006917 0.043925805847 0.06806325817 0.11544887625 0.20688352474 0.38878011038 
0.71891092538 1.0843097057 1.0528055985 0.69055296228 0.40087071186 0.23989392122 0.14875316167 0.087592851292 0.036378371134 
0.021171945847 0.064872391836 0.097544998916 0.10732915755 0.094505621132 0.072253192525 0.055284393815 0.053627544736 0.068747307812 
0.095703487229 0.12164440994 0.13736256068 0.13752474742 0.12545226508 0.10778860209 0.092399667056 0.082074154263 0.075523979836 
0.069051975339 0.060269724924 0.047716246895 0.033367518746 0.02498828459 0.035250205682 0.058042619616 0.088808544018 0.12440276191 
0.15915933204 0.18156676784 0.18240498772 0.16175865338 0.1298880241 0.097917439712 0.072815512511 0.057706954623 0.054118043667 
0.059992260745 0.07285015103 0.086474460161 0.098017579998 0.10503763139 0.10673369017 0.10312574678 0.094319148646 0.080749492368 
0.062416248983 0.0456581362 0.038238441957 0.045786952048 0.062608673884 0.082718264024 0.10186022322 0.11736142052 0.12659816253 
0.12784234506 0.12224116317 0.11197011705 0.099862276822 0.086927659481 0.075243875648 0.065047022895 0.056022711848 0.052305288711 
0.058619755202 0.076797985279 0.1032940242 0.13172004607 0.15667127651 0.16996911963 0.17023293467 0.15860840612 0.13951322899 
0.1190402951 0.099637458307 0 
Torsion 1 120 double
0 0 -0.022937005927 -0.025149232938 -0.021239425452 0.0059232222979 0.22533406463 5.764876989 0.15262389646 
0.086732200296 0.12550103299 0.22791948236 0.42411864556 0.68084213209 0.73510497943 0.487215292 0.23602976442 0.072127853476 
-0.046805301086 -0.14934234153 -0.22766482141 -0.25016242419 -0.21554454891 -0.16337833578 -0.12772360088 -0.12338729584 -0.16693332377 
-0.34678697539 -1.7164535709 -1.6749886392 -0.64027007311 -0.56730654651 -0.46856530965 -0.31004210243 -0.1930773537 -0.10981555605 
-0.05284763471 -0.018645356233 0.005338323561 0.038319149574 0.081140561545 0.12265425957 0.16330113506 0.24812905173 0.93660911754 
2.4592463491 0.27233303028 0.11305109939 0.075203628683 0.050757460044 -0.03808063501 -0.25678859887 -0.35078393943 -0.17436412507 
-0.032238138868 0.031966147372 0.069521969078 0.10676554144 0.15257452807 0.19946244415 0.21087270568 0.16072802702 0.077851967757 
0.011910432433 0.00095254356115 0.09459482065 0.46515349998 1.1445291333 0.42805928553 -0.06680137341 -0.21575113053 -0.23650307568 
-0.21376334463 -0.18326541108 -0.15847678396 -0.13827846682 -0.11030446077 -0.059739791734 0.052104265661 0.23790626716 0.34960836475 
0.31128894427 0.23732034334 0.20634578235 0.21027366575 0.22747753367 0.24122182049 0.24206262154 0.23451641531 0.25726614889 
0.3736772879 0.66132117005 0.9039508635 0.51865099325 0.18974313789 0.073898617902 0.061735612337 0.095558838831 0.14058508824 
0.18960179852 0.23673338007 0.27201228152 0.28471492632 0.26075846869 0.18510127 0.037555992226 -0.20062421236 -0.46117443117 
-0.49242817712 -0.3227941181 -0.16888399076 -0.094249325874 -0.051089047759 -0.033120766181 -0.024152412015 -0.019241415867 -0.021414884163 
-0.021644064242 0 0 
FrenetTangent 3 120 double
-0.36671940078 -0.5464768333 -0.75291430572 -0.36671940078 -0.5464768333 -0.75291430572 -0.46032175946 -0.60563961198 -0.64907976256 
-0.55785150064 -0.66026574717 -0.50284276504 -0.63873251573 -0.69549008363 -0.32911140503 -0.68783857911 -0.70590263973 -0.16905487958 
-0.7093206385 -0.70188957464 -0.064925009159 -0.7166532258 -0.69639127956 -0.038043918034 -0.71573707983 -0.69216277763 -0.092903831065 
-0.69878984214 -0.68036657754 -0.22089381314 -0.65227553835 -0.64975331521 -0.3903296702 -0.57615417227 -0.60360556999 -0.55109589515 
-0.4875809431 -0.56108009726 -0.66891998653 -0.40186514156 -0.53849146942 -0.74062902007 -0.32314783153 -0.54001578647 -0.7771476239 
-0.24949225113 -0.56168223411 -0.78883882036 -0.17825706729 -0.59629080483 -0.78272708784 -0.108051504 -0.63599962924 -0.76408726209 
-0.038492505016 -0.67385009616 -0.73786474029 0.030762869954 -0.70465796518 -0.70887996017 0.10079337172 -0.7252533456 -0.68106407989 
0.17328776434 -0.73399485323 -0.6566756476 0.2493104111 -0.73019662243 -0.63612672599 0.3276874071 -0.71415352778 -0.61855129293 
0.40386596415 -0.68793692303 -0.60302161896 0.47079684638 -0.6561650066 -0.58974385419 0.52190882491 -0.62524244051 -0.58024397374 
0.55389265586 -0.60109605731 -0.57609587368 0.56741798803 -0.58714096475 -0.57732340535 0.56606194327 -0.58414385036 -0.58167846657 
0.55475076608 -0.59150756867 -0.58512424642 0.53837718446 -0.60891609334 -0.58255574713 0.52068963151 -0.63742369703 -0.56795540151 
0.50372047335 -0.67992887739 -0.53288123106 0.48662958703 -0.74040152164 -0.46367793972 0.46300547144 -0.82022327464 -0.33594599736 
0.41415058314 -0.90345411376 -0.11067953205 0.30660775441 -0.92343836395 0.23076670669 0.13858718082 -0.79880981727 0.58540282639 
-0.022775952791 -0.58873689815 0.80800378757 -0.13811924513 -0.40152874885 0.90537160215 -0.21630369055 -0.26561175047 0.93950152287 
-0.27125356802 -0.17359392357 0.94672416867 -0.3099410285 -0.1163296298 0.94361219581 -0.33401980052 -0.088779966671 0.93837566591 
-0.34275188016 -0.088176889104 0.93527856004 -0.33544442516 -0.11113433827 0.93548179912 -0.31366819557 -0.1513376026 0.93739489711 
-0.28252391262 -0.19890505922 0.93841196509 -0.24934629834 -0.24342917222 0.93731993557 -0.22040895586 -0.27895999528 0.93466636465 
-0.19850243933 -0.30646713749 0.93095363752 -0.18282805381 -0.3319739605 0.92540109806 -0.17043058485 -0.36293639268 0.9160952956 
-0.15769507315 -0.40532417613 0.90046908673 -0.1415486975 -0.4604503217 0.87632726049 -0.12024817466 -0.5238673347 0.84326946591 
-0.093630062079 -0.58778027374 0.8035843212 -0.062715671795 -0.64482412291 0.76175363145 -0.028873049838 -0.69087769808 0.72239487352 
0.0067998607232 -0.72556357652 0.68812154328 0.043459750091 -0.7510121848 0.65885654615 0.080078205202 -0.77004027427 0.63294980611 
0.11508055609 -0.7848722848 0.60887762494 0.14646829011 -0.79669184312 0.58636946297 0.17256794575 -0.80554587606 0.56684755064 
0.19297469046 -0.81065282653 0.5528134981 0.2093933314 -0.81077959185 0.54661767827 0.22589486534 -0.80448230966 0.54934481271 
0.2482340023 -0.79059761267 0.55976360631 0.28280868061 -0.76816301706 0.57440824279 0.33472048665 -0.73658540496 0.58771092981 
0.40503155928 -0.6960270844 0.59287075637 0.4886552212 -0.64806040104 0.58415219883 0.57502196509 -0.59655201108 0.55988877266 
0.6527881764 -0.54713121949 0.52394181491 0.71511863146 -0.50470968737 0.48360466749 0.76118758113 -0.47113420322 0.44567480171 
0.79406220352 -0.44505005112 0.41399960017 0.81820794064 -0.42277002611 0.38961682574 0.83791117221 -0.3994760078 0.37191905933 
0.85615657403 -0.3709267536 0.35973499163 0.87424909498 -0.33407977058 0.35224881377 0.89168836417 -0.28771176246 0.3494478544 
0.90653953989 -0.2329143168 0.35204684865 0.91643454485 -0.17247675421 0.36110870146 0.91949658144 -0.11055507266 0.37723151065 
0.91513236617 -0.051681388818 0.39982719573 0.90431202337 0.00015231900665 0.4268720431 0.88930036202 0.042071592901 0.45538428517 
0.87296131293 0.071721624902 0.48248788032 0.85774559222 0.087936088769 0.50649752548 0.84465024939 0.090687924389 0.52758094789 
0.83293662511 0.080384691184 0.54749874883 0.82054473799 0.05782295716 0.56865001414 0.80492898929 0.023639174176 0.59290008571 
0.78414302242 -0.021297627993 0.62021458498 0.75758754884 -0.075767850288 0.64832116941 0.72642031413 -0.1380596525 0.67324071444 
0.69336041714 -0.20535261047 0.6907109651 0.66202209519 -0.27389025199 0.69764666941 0.63573340668 -0.33985052391 0.69306901318 
0.61657650689 -0.39988793686 0.67817626699 0.60492301591 -0.45168066028 0.65578405436 0.59937716992 -0.49445804355 0.62949046963 
0.59723822501 -0.52935156515 0.60257233844 0.59501450822 -0.5585512822 0.5779084704 0.58879447252 -0.58520378088 0.55754605548 
0.57452310421 -0.61285348897 0.54252539461 0.54836438266 -0.64430412341 0.5330747606 0.50702905618 -0.68094350384 0.52842925805 
0.44860559881 -0.72215394974 0.52654220115 0.37313615853 -0.76498163272 0.524950006 0.28401312369 -0.80485584055 0.52109847581 
0.18768792236 -0.83728864346 0.51353770196 0.091394867437 -0.85988082382 0.50224689848 0.0014057823174 -0.87264509741 0.48835290287 
-0.078897230797 -0.877291221 0.47342934059 -0.14861266982 -0.87605960306 0.45873069033 -0.14861266982 -0.87605960306 0.45873069033 

FrenetNormal 3 120 double
-0.65063331599 -0.42781453007 0.62741614259 -0.65063331599 -0.42781453007 0.62741614259 -0.57914376138 -0.3492680787 0.73661680191 
-0.47585120402 -0.24194280378 0.84559405824 -0.34963674126 -0.1186672981 0.92933966962 -0.23287480635 -0.0059832886582 0.97248831604 
-0.17712717696 0.088332171105 0.98021599188 -0.20502640146 0.2625023781 -0.94289802004 0.069809659899 0.061453450713 -0.99566564909 
0.18511250181 0.1262871376 -0.97456909481 0.33185253042 0.21818529693 -0.91775218564 0.49293462377 0.28122133361 -0.82336505768 
0.6623303375 0.26147871022 -0.70210213511 0.83861674105 0.10837757395 -0.53383168049 0.9459468145 -0.16039569151 -0.28188268177 
0.92349182983 -0.3831335546 -0.019274843253 0.86329856518 -0.4764795695 0.16638151098 0.831055031 -0.47959112687 0.28167336841 
0.8351937791 -0.42709400582 0.34647086681 0.86995212709 -0.3303479187 0.36613323966 0.9193068595 -0.19385443523 0.34248409601 
0.95709399588 -0.031734193807 0.28803476179 0.96432726631 0.12683310501 0.23234949307 0.94451052583 0.26343758365 0.19621545838 
0.90904549076 0.37572265206 0.18019096662 0.86624292078 0.47052911481 0.16800462586 0.81898166116 0.55748929083 0.13592177637 
0.75305038459 0.65682374158 0.038700010049 0.48239131137 0.8052344878 -0.34481305423 -0.80632879857 -0.24555351829 -0.5380867386 
-0.77095279197 -0.62989199581 -0.094169348353 -0.60388174287 -0.76093623373 0.23728229776 -0.39510803407 -0.76963675716 0.50154651174 
-0.22988547722 -0.70011783933 0.67600863783 -0.15772758444 -0.5965022789 0.78696063458 -0.16296251824 -0.45133368654 0.87734891636 
-0.23758450969 -0.22468283107 0.94502445798 -0.35387522345 0.11447516246 0.92826061179 -0.44476107158 0.47794324239 0.75746804966 
-0.47480815899 0.71761631949 0.50949389609 -0.48074220154 0.82640211034 0.29316631403 -0.49668307553 0.85839252981 0.12832843505 
-0.5350887959 0.84479432327 0.0015911879481 -0.60095993029 0.79304603708 -0.099625023285 -0.76450542659 0.60783952543 -0.21462190953 
-0.046183910415 -0.99279971928 -0.11052494657 0.41745470997 -0.90773339186 0.041852770869 0.51781891673 -0.85476272775 0.035273910004 
0.57545486664 -0.81783353254 -9.7469730194e-05 0.62065211386 -0.78315086697 -0.038284110643 0.64107720099 -0.76363047589 -0.076736683979 
0.58976764387 -0.7959903613 -0.13628452206 0.43427685326 -0.87172838715 -0.22692120607 0.29822385922 -0.90509400996 -0.30309629315 
0.25298119081 -0.89802914732 -0.35992244672 0.26473628588 -0.8706051581 -0.41468223694 0.30375999044 -0.82810827799 -0.47113325942 
0.36203479913 -0.77197637511 -0.52247801915 0.43990553781 -0.70297312019 -0.55884873633 0.53914109569 -0.61932545166 -0.57075639625 
0.6452471464 -0.52252675975 -0.55733464401 0.72988087298 -0.42644931514 -0.53424235406 0.773390216 -0.35260303069 -0.52681939652 
0.78247607329 -0.30598134565 -0.54231596956 0.77093337975 -0.27949431778 -0.57231516694 0.77548954168 -0.24371306049 -0.5824258879 
0.84833603162 -0.14525764694 -0.50914260622 0.97781208722 0.17713930564 -0.11182660007 0.82396754333 0.45861456839 0.33279147404 
0.7653985764 0.51426328513 0.38690863625 0.80404040133 0.51639451431 0.29471297666 0.85061940123 0.50455038075 0.14790384555 
0.86790903298 0.49662460906 -0.0098948551468 0.85306465028 0.49533787897 -0.16407647028 0.81222080924 0.49840699014 -0.30313005333 
0.75703975686 0.49630579947 -0.42493688937 0.69851271704 0.4900727066 -0.52144868048 0.64561571474 0.48539331786 -0.58955379387 
0.60442127558 0.50603564547 -0.61530711611 0.57481370412 0.5883794058 -0.56868170394 0.53632709734 0.72906207114 -0.4252313971 
0.4729495014 0.8429489256 -0.25642908954 0.39460819081 0.91165630703 -0.11474821831 0.30957660652 0.95084811312 -0.0070845230878 
0.21402068321 0.97246185928 0.092266350366 0.10602096568 0.97475324415 0.19650869666 -0.010625594902 0.95229662981 0.3049888942 
-0.12813545349 0.90303776827 0.41000499344 -0.23702408813 0.83185734232 0.50182959625 -0.33266629026 0.74279398573 0.58102515788 
-0.42377724352 0.60134313875 0.67734723543 -0.50372403913 0.34048287976 0.7939354514 -0.50886530035 -0.16995908187 0.84390166287 
-0.40494289183 -0.58577150192 0.7020633888 -0.3481187243 -0.73851164495 0.57742004127 -0.35373684029 -0.78312051438 0.51146114983 
-0.38262488856 -0.80343635619 0.4561668732 -0.41319590636 -0.82456679175 0.38646959637 -0.42958273741 -0.85586905155 0.2880049276 
-0.42781544928 -0.88862961851 0.16526143675 -0.39625804033 -0.9180062744 0.015621959863 -0.3358610623 -0.93020281861 -0.14805425721 
-0.24682530274 -0.91615653125 -0.31580766325 -0.14794525178 -0.87296869939 -0.46479872241 -0.06370158566 -0.81337425374 -0.57824253678 
-0.029127209458 -0.76509604976 -0.64325705617 -0.089657858486 -0.76068759636 -0.64289645291 -0.27877048457 -0.79449176094 -0.53950890515 
-0.52495972586 -0.78445510903 -0.33022336099 -0.69263753447 -0.70713406695 -0.14217825855 -0.78542433435 -0.61752196497 -0.04213357085 
-0.84363910435 -0.53663419304 -0.01722801413 -0.89239395977 -0.45069780153 -0.02246135041 -0.92935410367 -0.36477972886 -0.05689199769 
-0.95826840047 -0.27086507708 -0.091399029958 -0.97391376206 -0.18237830506 -0.13501902794 -0.98152282766 -0.09464567151 -0.16629833328 
-0.98005859849 -0.018621654011 -0.19783421726 -0.97548306581 0.053728084753 -0.21341527881 -0.97548306581 0.053728084753 -0.21341527881 

FrenetBinormal 3 120 double
-0.66497606665 0.71995680324 -0.19866814605 -0.66497606665 0.71995680324 -0.19866814605 -0.67282715568 0.71499123743 -0.18997670641 
-0.6799759811 0.7109942495 -0.17922009461 -0.68540128575 0.70866890431 -0.16737222457 -0.68749357354 0.70828360385 -0.16027140376 
-0.68226841857 0.70678741681 -0.1869795509 0.66661257763 -0.66793090005 -0.3309017741 0.69487196227 -0.71912040901 0.004335134742 
0.69096028699 -0.7219091903 0.037696190367 0.68147672016 -0.72815918972 0.073305349785 0.65196765753 -0.74603946102 0.13551123986 
0.56884386957 -0.78537762163 0.24412833405 0.36773138244 -0.83563223898 0.40803479207 0.027569967549 -0.82623009659 0.56265773289 
-0.29140428423 -0.73329512969 0.61429780718 -0.47216523094 -0.64606849166 0.59971284693 -0.54559362893 -0.60456333219 0.58037123416 
-0.5486070346 -0.60292350933 0.57923532651 -0.4921757231 -0.62795493844 0.60285624562 -0.38041502901 -0.6606270072 0.64719113333 
-0.23225510498 -0.67841321948 0.69700291954 -0.088978887226 -0.67136149433 0.73576932632 0.02282169616 -0.64852554173 0.76085070277 
0.10260886279 -0.62094708201 0.77710754894 0.16725289724 -0.5899574868 0.78992191521 0.23849573825 -0.54614794808 0.80302067323 
0.3551310238 -0.45526487058 0.81646546378 0.66733458592 -0.082842665117 0.74013623291 0.17148686533 0.773614524 -0.61001051079 
-0.31286319708 0.50334368957 -0.80545747876 -0.58777278593 0.22404740451 -0.77738401878 -0.75681698518 -0.036746326251 -0.65259310328 
-0.83271745033 -0.21801773494 -0.50896946388 -0.85925179903 -0.30982352722 -0.40705740117 -0.87124574665 -0.35147074292 -0.34263561667 
-0.87865402477 -0.365086688 -0.30769922815 -0.88360851692 -0.36627452158 -0.29168298489 -0.88486223929 -0.36533974994 -0.28904270376 
-0.87979456018 -0.37204258191 -0.29588147816 -0.86591570593 -0.39475842724 -0.30717385035 -0.84054662925 -0.43887659174 -0.31759833326 
-0.80006342395 -0.50614988005 -0.32204163797 -0.73673857035 -0.5979510016 -0.31570695059 -0.55132769347 -0.78908125618 -0.27090320332 
0.93829003782 -0.081077454472 0.33621161686 0.84451678654 0.4045605618 0.35088765878 0.79591195026 0.49646511388 0.34647735589 
0.76748415961 0.5399861947 0.34551841381 0.74338238954 0.5722035981 0.34636060003 0.73514618584 0.58227984452 0.34714588881 
0.78279684965 0.52199352328 0.33875043001 0.88203033817 0.3603927144 0.30354501141 0.93915703987 0.22154459596 0.26249199314 
0.95453275533 0.17104374529 0.24415416482 0.95387560257 0.17329789364 0.24513093417 0.94512975019 0.19949861044 0.25870844543 
0.92745038449 0.24200583894 0.28507710926 0.89585147336 0.30005106699 0.32774913407 0.84172039653 0.37299328576 0.39036237377 
0.76394363794 0.44779826013 0.46461471809 0.68219144042 0.50410483027 0.52961604839 0.6288521725 0.531703939 0.5673057962 
0.61195396913 0.53884219644 0.57893128004 0.61984575821 0.53587781578 0.57325928042 0.6073189235 0.54009238627 0.58263534002 
0.49303828077 0.56722324603 0.65967495242 -0.0061607508235 0.55790511723 0.82988187431 -0.51966238785 0.37746641056 0.76646598852 
-0.59375491522 0.33239838809 0.73277992075 -0.52300887487 0.37850004598 0.7636749518 -0.40547358738 0.45041187205 0.79543718511 
-0.28754712043 0.51856561345 0.80523683353 -0.18302124803 0.57849641508 0.79488686019 -0.098219635063 0.62905975095 0.77112692407 
-0.027539122834 0.67403856127 0.73818264314 0.026178752184 0.71070167702 0.7030062583 0.061431386238 0.73649568195 0.67364701087 
0.064343908588 0.73882229089 0.6708214993 0.011179062403 0.68925697665 0.72443070663 -0.10128233878 0.55577640794 0.82513906236 
-0.20812181498 0.38967993571 0.89712588739 -0.28279479427 0.23931879313 0.92884531521 -0.33023353237 0.11449806772 0.93692902964 
-0.36384228695 -0.0082977877389 0.93142360768 -0.38588506041 -0.14180226474 0.91158369768 -0.39295436561 -0.28444455481 0.87445878221 
-0.382248686 -0.42644087882 0.81977687142 -0.3550202051 -0.55498949433 0.75229469967 -0.31381205431 -0.66819688404 0.67456276115 
-0.24156033201 -0.79576531591 0.55534328843 -0.10263815773 -0.93612961329 0.33634321116 0.16619886371 -0.98126938751 -0.097408043003 
0.3771443131 -0.80648003631 -0.45535932859 0.45334279165 -0.67175669397 -0.58585259013 0.4764027393 -0.62142050932 -0.62199435735 
0.48858767385 -0.59500960714 -0.63815801521 0.50530213616 -0.56066820742 -0.65598850019 0.53644403151 -0.49842521902 -0.68102870872 
0.57984935397 -0.41008256058 -0.70399362228 0.63616531731 -0.28679018467 -0.7162716517 0.69501106644 -0.1386518577 -0.70550356476 
0.74760329125 0.027328523451 -0.66358305488 0.78241954685 0.18414730791 -0.59490286744 0.7979280144 0.30648583415 -0.5190157197 
0.80153484531 0.36662645174 -0.47236314064 0.79869844335 0.33071868091 -0.50269866787 0.75868839853 0.16223247717 -0.63092989887 
0.6279653565 -0.095083031985 -0.77241098391 0.46856136169 -0.29126209489 -0.83403635557 0.35500725514 -0.39367825359 -0.8479311773 
0.29500182767 -0.43648300738 -0.84997441487 0.25377633413 -0.46008107253 -0.85083663469 0.23587601734 -0.46812693294 -0.85159830854 
0.21562679903 -0.4749524582 -0.85318535266 0.20769921104 -0.47680512022 -0.85411820907 0.19133991367 -0.47909574287 -0.85665413476 
0.1823742594 -0.47959706792 -0.85832760759 0.16231778303 -0.47920023454 -0.86256598155 0.16231778303 -0.47920023454 -0.86256598155 

plain_curvature_peaks 1 120 unsigned_char
0 0 0 0 0 0 0 0 0 
0 0 0 0 0 0 0 0 0 
0 0 0 1 0 0 0 0 0 
0 0 0 0 0 0 0 0 0 
0 0 0 0 0 0 0 0 0 
0 0 0 0 0 0 0 0 0 
1 0 0 0 0 0 0 0 0 
0 0 0 0 0 0 0 0 0 
0 0 0 0 0 0 0 0 0 
0 0 0 0 0 0 0 0 0 
0 0 0 0 0 0 0 0 0 
0 1 0 0 0 0 0 0 0 
0 0 0 0 0 0 0 0 0 
1 0 0 
weighted_curvature_peaks 1 120 unsigned_char
0 0 0 0 0 0 0 0 0 
0 0 0 0 0 0 0 0 0 
0 0 0 0 0 0 0 1 0 
0 0 0 0 0 0 0 0 0 
0 0 0 0 0 0 0 0 0 
0 0 0 0 0 0 0 0 0 
0 0 0 0 0 1 0 0 0 
0 0 0 0 0 0 0 0 0 
0 0 0 0 0 0 0 0 0 
0 0 0 0 0 0 0 0 0 
0 0 0 0 0 0 0 0 0 
0 0 0 0 0 0 1 0 0 
0 0 0 0 0 0 0 0 0 
0 1 0 
plain_torsion_tp 1 120 unsigned_char
0 0 0 0 0 0 0 0 0 
0 0 0 0 0 0 0 0 0 
0 0 0 1 0 0 0 0 0 
0 0 0 0 0 0 0 0 0 
0 0 0 0 0 0 0 0 0 
0 0 0 0 0 0 0 0 0 
1 0 0 0 0 0 0 0 0 
0 0 0 0 0 0 0 0 0 
0 0 0 0 0 0 0 0 0 
0 0 0 0 0 0 0 0 0 
0 0 0 0 0 0 0 0 0 
0 1 0 0 0 0 0 0 0 
0 0 0 0 0 0 0 0 0 
1 0 0 
plain_torsion_tn 1 120 unsigned_char
0 0 0 0 0 0 0 0 2 
0 0 0 0 0 0 0 0 0 
0 0 0 0 0 0 0 0 0 
0 0 0 0 0 0 0 0 0 
0 2 0 0 0 0 0 0 0 
0 0 0 0 0 0 0 0 0 
0 0 0 0 0 0 0 0 0 
0 0 0 0 0 0 0 0 0 
0 0 0 0 0 2 0 0 0 
0 0 0 0 0 0 0 0 0 
0 0 0 0 0 0 0 0 0 
0 0 0 0 0 0 0 0 0 
0 0 2 0 0 0 0 0 0 
0 0 0 
plain_torsion_tz 1 120 unsigned_char
0 0 0 0 0 0 0 0 0 
0 3 0 0 0 0 0 0 0 
0 0 0 0 0 0 0 0 0 
0 0 0 0 0 3 0 0 0 
0 0 0 0 0 0 0 3 0 
0 0 0 0 0 0 0 0 0 
0 0 0 0 0 0 0 0 0 
0 0 0 0 0 0 0 0 0 
0 0 0 0 0 0 0 0 0 
0 0 0 3 0 0 0 0 0 
0 0 0 0 0 0 0 0 0 
0 0 0 0 0 0 0 0 0 
3 0 0 0 3 0 0 0 0 
0 0 0 
weighted_torsion_tp 1 120 unsigned_char
0 0 0 0 0 0 0 0 0 
0 0 0 0 0 0 0 0 0 
0 0 0 0 0 0 0 1 0 
0 0 0 0 0 0 0 0 0 
0 0 0 0 0 0 0 0 0 
0 0 0 0 0 0 0 0 0 
0 0 0 0 0 1 0 0 0 
0 0 0 0 0 0 0 0 0 
0 0 0 0 0 0 0 0 0 
0 0 0 0 0 0 0 0 0 
0 0 0 0 0 0 0 0 0 
0 0 0 0 0 0 1 0 0 
0 0 0 0 0 0 0 0 0 
0 1 0 
weighted_torsion_tn 1 120 unsigned_char
0 0 0 0 0 0 0 0 0 
0 0 2 0 0 0 0 0 0 
0 0 0 0 0 0 0 0 0 
0 0 0 0 0 0 0 0 0 
0 0 0 0 0 2 0 0 0 
0 0 0 0 0 0 0 0 0 
0 0 0 0 0 0 0 0 0 
0 0 0 0 0 0 0 0 0 
0 0 0 0 0 0 0 0 0 
0 2 0 0 0 0 0 0 0 
0 0 0 0 0 0 0 0 0 
0 0 0 0 0 0 0 0 0 
0 0 0 0 0 0 2 0 0 
0 0 0 
weighted_torsion_tz 1 120 unsigned_char
0 0 0 0 0 0 0 0 0 
0 0 0 3 0 0 0 0 0 
0 0 0 0 0 0 0 0 0 
0 0 0 0 0 0 0 0 3 
0 0 0 0 0 0 0 0 0 
0 0 3 0 0 0 0 0 0 
0 0 0 0 0 0 0 0 0 
0 0 0 0 0 0 0 0 0 
0 0 0 0 0 0 0 0 0 
0 0 0 0 0 0 0 0 3 
0 0 0 0 0 0 0 0 0 
0 0 0 0 0 0 0 0 0 
0 0 0 0 3 0 0 3 0 
0 0 0 
plain_torsion_tp_raw 1 120 unsigned_char
0 0 0 0 0 0 0 0 0 
0 0 0 0 0 0 0 0 0 
0 0 0 0 0 0 0 0 0 
1 0 0 0 0 0 0 0 0 
0 0 0 0 1 0 0 0 0 
0 0 0 0 0 0 0 0 0 
0 0 0 0 0 0 0 0 0 
0 0 0 0 0 0 0 0 0 
0 0 0 0 0 0 0 0 1 
0 0 0 0 0 0 0 0 0 
0 0 0 0 0 0 0 0 0 
0 0 0 0 1 0 0 0 0 
0 0 0 0 0 0 1 0 0 
0 1 0 
plain_torsion_tn_raw 1 120 unsigned_char
0 0 0 0 0 0 0 0 0 
0 0 0 0 0 0 0 0 0 
2 0 0 0 0 0 0 0 0 
0 0 0 0 0 0 2 0 0 
0 0 0 0 0 0 0 0 0 
0 0 0 0 0 0 0 0 0 
0 0 0 0 0 0 0 0 0 
0 0 0 0 0 0 2 0 0 
0 0 0 0 0 0 0 0 0 
0 0 0 0 0 0 0 0 0 
2 0 0 0 0 0 0 0 0 
0 0 0 0 0 0 0 0 0 
0 0 0 2 0 0 0 0 2 
0 0 0 
plain_torsion_tz_raw 1 120 unsigned_char
0 0 0 0 0 0 0 0 3 
0 0 0 0 0 0 0 0 0 
0 0 0 0 0 3 0 0 0 
3 0 0 0 0 0 0 0 0 
3 0 0 0 0 0 0 0 0 
0 0 0 0 0 0 0 0 0 
0 0 0 0 0 0 0 0 0 
0 0 0 0 0 0 0 0 0 
0 0 0 0 0 0 0 0 0 
0 0 0 0 0 0 0 0 0 
0 0 0 0 0 0 0 0 0 
0 0 0 0 0 0 0 0 0 
0 0 0 0 0 0 0 0 0 
0 0 0 
weighted_torsion_tp_raw 1 120 unsigned_char
0 0 0 0 0 0 0 0 0 
0 0 0 0 0 0 0 0 0 
0 0 0 0 0 0 0 0 0 
0 0 1 0 0 0 0 0 0 
0 0 0 0 0 0 0 0 1 
0 0 0 0 0 0 0 0 0 
0 0 0 0 0 0 0 0 0 
0 0 0 0 0 0 0 0 0 
0 0 0 0 0 0 0 0 0 
0 0 0 0 0 1 0 0 0 
0 0 0 0 0 0 0 0 0 
0 0 0 0 0 0 0 0 0 
1 0 0 0 0 0 0 0 1 
0 1 0 
weighted_torsion_tn_raw 1 120 unsigned_char
0 0 0 0 0 0 0 0 0 
0 0 0 0 0 0 0 0 0 
0 0 0 2 0 0 0 0 0 
0 0 0 0 0 0 0 0 0 
2 0 0 0 0 0 0 0 0 
0 0 0 0 0 0 0 0 0 
0 0 0 0 0 0 0 0 0 
0 0 0 0 0 0 0 0 0 
0 0 2 0 0 0 0 0 0 
0 0 0 0 0 0 0 0 0 
0 0 0 0 0 2 0 0 0 
0 0 0 0 0 0 0 0 0 
0 0 0 0 0 0 2 0 0 
2 0 0 
weighted_torsion_tz_raw 1 120 unsigned_char
0 0 0 0 0 0 0 0 0 
0 0 3 0 0 0 0 0 0 
0 0 0 0 0 0 0 0 3 
0 0 0 3 0 0 0 0 0 
0 0 0 0 3 0 0 0 0 
0 0 0 0 0 0 0 0 0 
0 0 0 0 0 0 0 0 0 
0 0 0 0 0 0 0 0 0 
0 0 0 0 0 0 0 0 0 
0 0 0 0 0 0 0 0 0 
0 0 0 0 0 0 0 0 0 
0 0 0 0 0 0 0 0 0 
0 0 0 0 0 0 0 0 0 
0 0 0 
