# vtk DataFile Version 5.1
vtk output
ASCII
DATASET POLYDATA
POINTS 120 float
-15.9774 33.9478 -20.7052 -16.3973 33.6587 -20.3723 -16.8142 33.3379 -20.0659 
-17.2295 32.9898 -19.7885 -17.6443 32.6175 -19.5434 -18.0591 32.2239 -19.3345 
-18.4739 31.8106 -19.1678 -18.8873 31.3792 -19.0518 -19.2957 30.931 -18.9996 
-19.6898 30.4689 -19.0315 -20.0488 30.0014 -19.1787 -20.3295 29.554 -19.4762 
-20.4752 29.173 -19.9238 -20.468 28.8895 -20.4601 -20.3399 28.6923 -21.0207 
-20.131 28.5529 -21.5749 -19.8695 28.447 -22.1144 -19.5727 28.3574 -22.6384 
-19.2517 28.2721 -23.1487 -18.914 28.182 -23.6473 -18.5651 28.0801 -24.1359 
-18.2094 27.9605 -24.6154 -17.8508 27.8179 -25.0863 -17.4932 27.6471 -25.5485 
-17.1407 27.4425 -26.0009 -16.7986 27.1984 -26.4413 -16.4734 26.9076 -26.8658 
-16.1744 26.5619 -27.2676 -15.9168 26.1507 -27.6345 -15.7263 25.6629 -27.9424 
-15.6468 25.0976 -28.1458 -15.731 24.5005 -28.1796 -15.9824 23.9747 -28.0195 
-16.3366 23.5819 -27.7223 -16.736 23.3129 -27.3514 -17.152 23.142 -26.9416 
-17.5712 23.0493 -26.5103 -17.9864 23.0206 -26.0662 -18.3932 23.046 -25.614 
-18.788 23.1184 -25.1563 -19.1677 23.232 -24.6941 -19.529 23.382 -24.2276 
-19.8684 23.5642 -23.7561 -20.1815 23.7742 -23.2781 -20.463 24.007 -22.7911 
-20.7054 24.2565 -22.2915 -20.8988 24.5136 -21.7747 -21.0292 24.7643 -21.2358 
-21.0774 24.9854 -20.6713 -21.0219 25.1396 -20.0864 -20.8516 25.1798 -19.5053 
-20.5879 25.0768 -18.9685 -20.276 24.8412 -18.5035 -19.9543 24.5042 -18.1127 
-19.6448 24.0936 -17.7875 -19.3584 23.6289 -17.5186 -19.101 23.1231 -17.2987 
-18.8758 22.5856 -17.123 -18.6849 22.0236 -16.9878 -18.5291 21.4434 -16.8896 
-18.4085 20.8502 -16.8253 -18.3224 20.2485 -16.7908 -18.2688 19.6421 -16.7811 
-18.2438 19.0338 -16.7891 -18.2418 18.4251 -16.8067 -18.2559 17.8166 -16.8241 
-18.2777 17.2081 -16.8309 -18.2971 16.5997 -16.8165 -18.3032 15.9926 -16.7712 
-18.2846 15.3899 -16.6877 -18.2307 14.7966 -16.5628 -18.1334 14.2188 -16.398 
-17.9877 13.6623 -16.1993 -17.7924 13.1312 -15.975 -17.5489 12.6279 -15.7343 
-17.2602 12.1536 -15.4847 -16.9303 11.7083 -15.2327 -16.5634 11.292 -14.9825 
-16.1631 10.9044 -14.7371 -15.7336 10.5451 -14.4982 -15.2779 10.2144 -14.2665 
-14.7992 9.91254 -14.0419 -14.3002 9.64037 -13.8237 -13.7833 9.39934 -13.6107 
-13.2509 9.19124 -13.4011 -12.7054 9.01858 -13.1929 -12.1496 8.88433 -12.9839 
-11.5865 8.79144 -12.7719 -11.0198 8.74288 -12.5549 -10.4536 8.74067 -12.3313 
-9.89205 8.78517 -12.1003 -9.33903 8.8748 -11.8621 -8.79724 9.00578 -11.6172 
-8.26783 9.17239 -11.3669 -7.75027 9.36761 -11.1124 -7.24281 9.58418 -10.8548 
-6.7428 9.8148 -10.5948 -6.24697 10.0521 -10.3328 -5.75186 10.2889 -10.069 
-5.25411 10.5176 -9.80306 -4.75083 10.7307 -9.53461 -4.23993 10.9203 -9.26304 
-3.72058 11.0788 -8.98765 -3.19333 11.1985 -8.70776 -2.66051 11.2726 -8.42279 
-2.12606 11.2954 -8.13227 -1.59547 11.2629 -7.83573 -1.07525 11.1729 -7.53279 
-0.572606 11.025 -7.22301 -0.0952548 10.82 -6.90592 0.348723 10.5595 -6.5812 
0.750814 10.2459 -6.24894 1.10189 9.88237 -5.90994 1.39257 9.47303 -5.56609 
1.61417 9.0238 -5.22066 1.76016 8.54255 -4.87815 1.82712 8.03869 -4.54366 
1.81633 7.52228 -4.22195 1.73365 7.00243 -3.91648 1.58893 6.48597 -3.62867 

LINES 2 120
OFFSETS vtktypeint64
0 120 
CONNECTIVITY vtktypeint64
0 1 2 3 4 5 6 7 8 
9 10 11 12 13 14 15 16 17 
18 19 20 21 22 23 24 25 26 
27 28 29 30 31 32 33 34 35 
36 37 38 39 40 41 42 43 44 
45 46 47 48 49 50 51 52 53 
54 55 56 57 58 59 60 61 62 
63 64 65 66 67 68 69 70 71 
72 73 74 75 76 77 78 79 80 
81 82 83 84 85 86 87 88 89 
90 91 92 93 94 95 96 97 98 
99 100 101 102 103 104 105 106 107 
108 109 110 111 112 113 114 115 116 
117 118 119 
CELL_DATA 1
FIELD FieldData 2
Length 1 1 double
72.407115541 
Tortuosity 1 1 double
0.96751452824 
POINT_DATA 120
FIELD FieldData 19
Curvature 1 120 double
0 0.11184867755 0.1077468451 0.10881333085 0.11355674954 0.12596448369 0.14537714114 0.17924660515 0.23473549074 
0.32949441572 0.47312328976 0.59705203893 0.56501408286 0.41474581633 0.27066974896 0.17380294426 0.11281527445 0.075984151564 
0.056367439036 0.051746929656 0.056700480808 0.066663196953 0.079813410527 0.095828026255 0.11511353466 0.14098877445 0.17556827755 
0.23092810835 0.3215182042 0.47372054355 0.67602906456 0.7650671711 0.61117315476 0.41604978933 0.29094250882 0.22009518528 
0.17711487979 0.14965575676 0.13202833618 0.11910127436 0.11081984995 0.10600253502 0.10478121189 0.10818995419 0.11977433837 
0.14174570329 0.18177260016 0.24726345452 0.34202692254 0.44727771861 0.48973701882 0.43699205965 0.34455306197 0.2706036035 
0.22104796765 0.1900942449 0.17121504761 0.15771377849 0.14674953485 0.1365588422 0.12559527188 0.11079496063 0.091037304471 
0.067386340654 0.043401708061 0.035261541326 0.057461142166 0.091140431154 0.12328728149 0.14932786818 0.16514327006 0.16979998122 
0.16601293665 0.1570434353 0.14691022712 0.136468157 0.12726525568 0.11940995437 0.11152236665 0.10643381204 0.10131233525 
0.098726189008 0.098056627731 0.098658543159 0.10205096038 0.10746100275 0.11374327822 0.12091156078 0.12651801521 0.12838505979 
0.12568446021 0.11710453474 0.10291950047 0.084324282396 0.064299630686 0.043373677868 0.021989395894 0.0056696586176 0.023469199495 
0.045226308295 0.06712397318 0.087709925944 0.10770119518 0.12486597977 0.13926417621 0.15123628796 0.15870619791 0.16475979237 
0.17040937153 0.17645128327 0.18414296249 0.1943746788 0.20591527265 0.21640856304 0.22296639878 0.22408265956 0.21641457808 
0.19998615783 0.17482122977 0 
Torsion 1 120 double
0 0 -0.16807694925 -0.15264406965 -0.12757061035 -0.090177801396 -0.050683927235 -0.010819040532 0.0255491716 
0.057517673948 0.076207283846 0.083181192643 0.097007788355 0.12457066961 0.16784172613 0.23635303994 0.3572070008 0.54868375884 
0.74534717872 0.70394403457 0.49152920792 0.31424304204 0.20563784128 0.14046589652 0.10064947502 0.073661030214 0.054933823673 
0.038330545696 0.023601616388 0.01170145467 0.005464793041 0.0031304280507 0.0014929428644 -0.0032327453115 -0.013473763992 -0.028196311208 
-0.046534311411 -0.069143742254 -0.096010208703 -0.12948803776 -0.16965800848 -0.21965482788 -0.27725855148 -0.33724504716 -0.3749315035 
-0.38421880744 -0.36078338071 -0.3183220551 -0.26897115308 -0.22471451039 -0.20676254222 -0.20890602545 -0.21152168903 -0.19345420031 
-0.16278154451 -0.12960349081 -0.099941812897 -0.079695533084 -0.069887101179 -0.070522660154 -0.08271410256 -0.11520023131 -0.1910406292 
-0.38861474159 -1.031711751 -1.7078023806 -0.71607498061 -0.33438459159 -0.22373473073 -0.18732682988 -0.17932899068 -0.1813739741 
-0.18083307105 -0.17089182111 -0.14923335854 -0.12104541574 -0.088383566287 -0.053565201547 -0.018685898688 0.015599015827 0.048590853199 
0.081367701686 0.11102207973 0.13184023275 0.13887528082 0.13482750224 0.12277043614 0.10448905748 0.084997400958 0.066549166586 
0.049940480833 0.036475287498 0.027692679244 0.026910930368 0.039393974274 0.090364253981 0.39451158255 6.3022382981 0.32880826355 
0.051463297581 -0.0092866384076 -0.034313666736 -0.04878457307 -0.06087436889 -0.072667837881 -0.083398431039 -0.094502214485 -0.10329078208 
-0.10789987699 -0.10605161773 -0.097147215489 -0.082442140635 -0.064816005069 -0.047537951035 -0.03392543222 -0.024087180896 -0.01652528856 
-0.010343176976 0 0 
FrenetTangent 3 120 double
-0.687650599 -0.5011890046 0.52530584935 -0.687650599 -0.5011890046 0.52530584935 -0.68389746526 -0.5496989421 0.47970337717 
-0.68206593316 -0.59198027475 0.42935465192 -0.68167297967 -0.62937862614 0.37310118434 -0.68185289035 -0.66318034301 0.30865590642 
-0.68099241831 -0.69443807222 0.23238995258 -0.67612440745 -0.72366979917 0.1384117315 -0.66113657931 -0.75007922037 0.016720845643 
-0.62257130366 -0.76843969547 -0.1480047509 -0.5323837727 -0.76131942962 -0.37008140273 -0.35739597245 -0.69437447953 -0.62458962611 
-0.11588713843 -0.55595253827 -0.82309595209 0.11228038081 -0.3988804564 -0.91010301482 0.27799043274 -0.27764902553 -0.91958269771 
0.38699456121 -0.2017955243 -0.89972983499 0.45882660475 -0.16060569088 -0.87389012973 0.50746377004 -0.14365750121 -0.84961346767 
0.54095937967 -0.14406013277 -0.82861910894 0.56384692648 -0.15764813265 -0.81069335126 0.57867771042 -0.18190970149 -0.79501004269 
0.58668297583 -0.21537181515 -0.78065233434 0.58832736701 -0.25747890497 -0.76653474985 0.58335001899 -0.30840382668 -0.75139193171 
0.5707893293 -0.36871200358 -0.73365591388 0.54867782619 -0.43978995587 -0.71101155951 0.51350841102 -0.52359794057 -0.67981932044 
0.45848531998 -0.6234856052 -0.6332905427 0.37025352526 -0.74295636241 -0.55760933509 0.2247341879 -0.87656866445 -0.42558421176 
-0.0039062588637 -0.97980291529 -0.19992745767 -0.28472114538 -0.95260431793 0.10713954844 -0.50829202879 -0.77096021274 0.38374413851 
-0.62534428105 -0.54912065353 0.55444660521 -0.6730151273 -0.36304818041 0.64439635096 -0.68781735079 -0.21710734304 0.69265553745 
-0.68650017958 -0.09992218893 0.72023125425 -0.6759201425 -0.0027367029293 0.73696979003 -0.65887498436 0.080377451994 0.74794600086 
-0.63644750091 0.15284301822 0.75602486094 -0.60888911725 0.21661706539 0.7631062114 -0.57576966999 0.27298911957 0.77069204467 
-0.53617211403 0.32226746216 0.78016866572 -0.48861679658 0.3639008864 0.79298787568 -0.43052925029 0.39638379996 0.81087881202 
-0.35826083723 0.41643398343 0.83560272256 -0.2663943772 0.41778349513 0.8686144064 -0.14718979198 0.38884528439 0.90946935624 
0.0060083254611 0.31042489082 0.95057892212 0.18760622736 0.16156838623 0.96886508866 0.3614140112 -0.052321334644 0.93093629774 
0.47808245189 -0.28123773817 0.83207121319 0.52407342142 -0.47355881904 0.70787646794 0.52064138217 -0.61656357792 0.59057760332 
0.49075026702 -0.72094707948 0.48928466562 0.4474920879 -0.79872123343 0.40223776864 0.39696254168 -0.8582267831 0.32537290803 
0.34218452815 -0.90416881035 0.25571177347 0.2851320941 -0.93908163765 0.19189936617 0.22724350525 -0.96463285139 0.13358087938 
0.16982915096 -0.9821208215 0.081220388167 0.11475458568 -0.9927289637 0.036339918648 0.06463309244 -0.99790812128 0.0013945755496 
0.022192157171 -0.99953218978 -0.021045421391 -0.0099915809909 -0.9995371495 -0.02873421434 -0.02944730978 -0.99936817355 -0.019902503344 
-0.033810512451 -0.99940892261 0.0062172870606 -0.020981392895 -0.99857484371 0.049072015034 0.010264727808 -0.9943249638 0.10588910109 
0.059576393166 -0.98340883419 0.17134094142 0.12438961292 -0.96319942382 0.23827315027 0.19991548065 -0.93306520813 0.29903698429 
0.28046836378 -0.89459444602 0.34790555338 0.36088079628 -0.85060624949 0.38240562131 0.43755308821 -0.80377084003 0.40311255466 
0.5084562722 -0.75594775428 0.41232900948 0.57275719344 -0.70817460366 0.41284128681 0.63052540072 -0.66072430166 0.40728505527 
0.68186412413 -0.61375529512 0.39795194928 0.72737962409 -0.56691800333 0.38668185884 0.76768293023 -0.51971412713 0.37491351629 
0.80324864255 -0.47163481833 0.36380244142 0.83469339593 -0.42164163209 0.35426722807 0.86214395025 -0.36899987984 0.34719864304 
0.8856124508 -0.31284473368 0.34324737377 0.90492808839 -0.25219085139 0.34278992009 0.91948911536 -0.18665752944 0.34597504741 
0.92851392808 -0.1162502896 0.35262977119 0.93117656479 -0.041728599414 0.362172513 0.92694165742 0.034760586507 0.37359184327 
0.91604260424 0.11024225151 0.38563271801 0.89971209457 0.18129874242 0.39705026494 0.88014861207 0.24451341203 0.40688034115 
0.86005573883 0.29723011913 0.41467864954 0.84185989493 0.33820538131 0.42058178439 0.82732997808 0.36723283895 0.42504723192 
0.81771608929 0.38425622855 0.42858785346 0.81367065473 0.38928125051 0.43174086398 0.81527189735 0.38222236505 0.435014709 
0.82205576074 0.36283466174 0.43883406257 0.83298089197 0.33077732685 0.44354164816 0.8463534724 0.28597973486 0.44933438663 
0.85998799518 0.22855418205 0.45627144773 0.87127309329 0.15922451227 0.46425289617 0.87739572178 0.079699030123 0.47310127033 
0.87574010739 -0.0079804956648 0.4827168694 0.86417200521 -0.10078648178 0.49299982809 0.84128871094 -0.19561360498 0.50395299621 
0.80611840788 -0.29030297367 0.51565230142 0.75796027198 -0.38302235079 0.52800578111 0.69616888409 -0.47236081378 0.54057760445 
0.61987674641 -0.55725665618 0.55246523728 0.52832995282 -0.63626947842 0.56216422137 0.42185379171 -0.70700864808 0.56760739069 
0.30275083467 -0.76635730019 0.56660252431 0.17538926827 -0.81136835927 0.55760199977 0.046259974607 -0.8401628434 0.54035766981 
-0.076939719873 -0.85297897491 0.51624330297 -0.18707100404 -0.85252677956 0.48805996514 -0.18707100404 -0.85252677956 0.48805996514 

FrenetNormal 3 120 double
0.069734007082 -0.76576740394 -0.6393257787 0.069734007082 -0.76576740394 -0.6393257787 0.041235373885 -0.68558026536 -0.72682827662 
0.01471199866 -0.59810789963 -0.80128053607 -0.0017640215727 -0.50852478074 -0.86104554793 -0.00066689525923 -0.42139168122 -0.90687849586 
0.023785529772 -0.33815520019 -0.94078972632 0.076380675461 -0.25569024585 -0.96373673303 0.16194285889 -0.164430366 -0.97300419588 
0.28708086843 -0.048324078617 -0.95668665633 0.45470612113 0.11156367692 -0.8836265554 0.63435699629 0.31034808467 -0.7080079573 
0.75799975184 0.48601757334 -0.43499803978 0.80243984863 0.57659574342 -0.15371284265 0.80977948117 0.58267850435 0.068869096415 
0.81927770171 0.52298725945 0.23509226685 0.84241239646 0.39136227533 0.37037403221 0.85976227312 0.1500447591 0.48815510238 
0.79705226535 -0.22666730214 0.55975853763 0.58556701493 -0.61590705077 0.52703868533 0.32400552908 -0.84329853903 0.42879831062 
0.11727609629 -0.93122856922 0.34505024143 -0.032432201969 -0.95470167531 0.29579192591 -0.14629795392 -0.94987413472 0.27628976976 
-0.23996937155 -0.92940579351 0.2803918182 -0.32374566743 -0.89587263148 0.30430407653 -0.4040977909 -0.8464625771 0.34670748616 
-0.48480253659 -0.77270168885 0.40975431732 -0.56788319767 -0.65607101832 0.49707091317 -0.64684781785 -0.46084726452 0.60762463687 
-0.68833149376 -0.14239220783 0.71128349752 -0.62879846567 0.26995337154 0.72920344676 -0.46842201486 0.62142589872 0.62802123244 
-0.294202305 0.8239842173 0.48424685169 -0.15216115934 0.920568607 0.35972270071 -0.037739316264 0.9636288434 0.26456605258 
0.061311862861 0.97903064951 0.19426745169 0.15381367279 0.97744707663 0.14470164632 0.24638424802 0.96249033536 0.113609668 
0.34327010461 0.93387908808 0.10017726355 0.44687996977 0.88848573215 0.10436185315 0.55885727141 0.81944171375 0.12725497225 
0.67648728897 0.71684689092 0.16880605098 0.7900594796 0.57018513788 0.22515534022 0.88208413175 0.37513676352 0.28495612498 
0.9335035147 0.14554835337 0.32769935134 0.93831072388 -0.093725267595 0.33284915453 0.90226949866 -0.32395992443 0.28453421436 
0.82942194735 -0.53255038176 0.16866927446 0.70979895477 -0.70411969033 -0.020022624651 0.52887121719 -0.81077106594 -0.25088944629 
0.30276539182 -0.83651573084 -0.4566996273 0.075115408512 -0.8022198647 -0.59228452967 -0.12396285335 -0.73898565348 -0.66221855526 
-0.2855544294 -0.66362350909 -0.69142064334 -0.4125586699 -0.58344250492 -0.69956428392 -0.51068055498 -0.50108498358 -0.69865528696 
-0.58671110788 -0.41816644885 -0.69347451066 -0.64711338829 -0.33629957585 -0.68421258245 -0.69780698536 -0.25697311414 -0.66860319307 
-0.74362659758 -0.18179741481 -0.64340437001 -0.79041408593 -0.1134042664 -0.60198425654 -0.84689656513 -0.05559134703 -0.52884384283 
-0.92495403681 -0.012538021928 -0.37987212032 -0.99992406857 0.0097799184466 0.0074973516551 -0.58171781636 0.00094212032765 0.81339012444 
0.10777209407 0.002538725959 0.99417238476 0.3948776318 0.036815288543 0.91799580088 0.54125852993 0.094565181611 0.83552177123 
0.63881167581 0.1694557066 0.75046945731 0.71297494672 0.25377424315 0.65365538234 0.76975994252 0.3383932139 0.54125748372 
0.80938695553 0.41525518881 0.41527808079 0.8297449154 0.48004374616 0.2847479186 0.83088485546 0.53279976469 0.1604829203 
0.81567895565 0.57627988163 0.050688650998 0.78815774535 0.61417772595 -0.039913523879 0.75192201108 0.65010892116 -0.10941517208 
0.70974806494 0.6867515678 -0.15693937822 0.66302719632 0.72588945782 -0.18297385599 0.6121120556 0.76786728183 -0.18894091376 
0.55641472922 0.81211818877 -0.17568920449 0.49383387145 0.85778167595 -0.14261382753 0.42342456017 0.90106434504 -0.093779997534 
0.34554978569 0.93767335899 -0.036932606859 0.26117303305 0.96507350813 0.020537057034 0.17233530752 0.98240297104 0.072006557187 
0.081282367704 0.99032705584 0.1124522084 -0.010044972527 0.99011399065 0.13990491073 -0.099073724374 0.98303603863 0.15435201292 
-0.18313217515 0.97037135528 0.15761357582 -0.25943057496 0.95365930853 0.15241292604 -0.32550224825 0.93476106192 0.142372903 
-0.38031079328 0.91528570232 0.13272446511 -0.42504770752 0.89571070714 0.13052499936 -0.46378589529 0.87348866027 0.14805473217 
-0.51334956375 0.82365084909 0.24098029834 -0.34272989402 -0.27864387038 0.89715874473 0.30416170867 -0.9218973591 0.23998107062 
0.33076053498 -0.93161020307 0.15066485337 0.30722810489 -0.94320085825 0.12642401893 0.26119509589 -0.9580726586 0.11778753212 
0.19863050005 -0.97350760736 0.11326457016 0.12155565855 -0.9864487528 0.11019564409 0.031931093519 -0.99361971236 0.10816779778 
-0.068475042734 -0.99180841034 0.10782970693 -0.17643844939 -0.97822521724 0.10929271676 -0.28849512875 -0.95084582885 0.11252897601 
-0.40150367762 -0.9084524946 0.11622762971 -0.51173280147 -0.85111452388 0.11719047378 -0.61565944706 -0.78013012781 0.11117746595 
-0.71075376084 -0.69708490395 0.094348970038 -0.79488102028 -0.60336595497 0.064138038509 -0.86558240391 -0.50036449566 0.020061742853 
-0.92024454309 -0.38973698163 -0.035426911523 -0.95688751302 -0.27368931983 -0.09726481196 -0.9744946807 -0.1568679078 -0.16047609411 
-0.97427246081 -0.045688596281 -0.2206937341 -0.9602007598 0.053789577931 -0.27408243683 -0.9602007598 0.053789577931 -0.27408243683 

FrenetBinormal 3 120 double
0.72268514717 -0.40300107286 0.56153033162 0.72268514717 -0.40300107286 0.56153033162 0.72841190336 -0.47729526795 0.49153364711 
0.73114268095 -0.5402094915 0.4166582357 0.73165486195 -0.58760964282 0.34553736505 0.73148902327 -0.61856356476 0.28688486399 
0.73190407485 -0.63514315271 0.24679870498 0.7328176977 -0.64103394601 0.22815280404 0.73257964342 -0.64058084417 0.23018090305 
0.72800380963 -0.63809499125 0.25068951974 0.7140097072 -0.63870671836 0.28678191356 0.68546285103 -0.64925199153 0.32956415362 
0.64187736162 -0.67431720548 0.36508870024 0.58607457325 -0.71304398894 0.3848179627 0.51669963342 -0.76380414976 0.38681353341 
0.4231066734 -0.82810802002 0.36771979835 0.28252345223 -0.90611333811 0.31486364896 0.05735290587 -0.97818663486 0.19965357892 
-0.26845974718 -0.96325936917 -0.0077943479885 -0.58239841563 -0.77188442858 -0.25496375113 -0.7484333802 -0.50572367412 -0.42905831869 
-0.80127985318 -0.29398696079 -0.52107798243 -0.80797219104 -0.14916207513 -0.57002773077 -0.79893658323 -0.051246540238 -0.59922794335 
-0.78524788588 0.016010290735 -0.61897449731 -0.77080567322 0.063222012672 -0.63392554078 -0.75697693968 0.096676275294 -0.64625042405 
-0.74482059039 0.11915452221 -0.65653978399 -0.73513332181 0.13261471435 -0.66482504218 -0.72875403624 0.13873418937 -0.67057466353 
-0.72538575657 0.14039482305 -0.67387298345 -0.72356503436 0.1402504569 -0.67585756665 -0.72264792912 0.13946398381 -0.67700056703 
-0.7227651997 0.13970153007 -0.67682637996 -0.7238077231 0.14404672337 -0.67479843025 -0.72490208716 0.155832775 -0.67099412089 
-0.72454010166 0.17752336036 -0.66597830116 -0.72074497225 0.21116278754 -0.660255225 -0.71075914156 0.25913668121 -0.65396454272 
-0.69072441239 0.32327830214 -0.64683145061 -0.65540242258 0.40456167732 -0.63779112077 -0.59679798703 0.50397640656 -0.62437163958 
-0.50486078476 0.61828328282 -0.60236315474 -0.37021567335 0.73652226946 -0.56610538047 -0.1912384615 0.83794527971 -0.51115120958 
0.014844545902 0.89743992238 -0.44088686211 0.22047000081 0.90369935566 -0.36704284945 0.40527141142 0.86246699193 -0.30315964592 
0.55859030898 0.7874176008 -0.26067295347 0.67896196305 0.69145579632 -0.24677831038 0.76790308512 0.58302037407 -0.26535277517 
0.82448182922 0.47026244448 -0.31477443765 0.84835412674 0.36357300999 -0.38485054508 0.84472821793 0.27156869908 -0.46117749243 
0.82317850025 0.19959746184 -0.53154304619 0.79343945903 0.14710280322 -0.59060527439 0.7626441577 0.11117836122 -0.63719169857 
0.73394810755 0.087267310306 -0.67357597342 0.70706714788 0.070910317389 -0.70358210273 0.67928329915 0.058722062471 -0.73152301322 
0.64666648503 0.048871176976 -0.76120566551 0.60172830898 0.040356870367 -0.79768061603 0.52781509199 0.032999751737 -0.8487180009 
0.3794305443 0.027896229271 -0.92479957961 -0.0072128632293 0.028806942907 -0.99955897007 -0.81285745249 0.035529791752 -0.58137801457 
-0.99360053592 0.034283527839 0.10762255679 -0.91849411379 0.038638271658 0.39354243342 -0.84079357701 0.048736975634 0.53915755403 
-0.76705299441 0.064744330474 0.63830860518 -0.69006807602 0.08857484663 0.71830393776 -0.60622061288 0.12198094183 0.78588626298 
-0.51597505089 0.16511785283 0.84053901845 -0.42577978609 0.2145390643 0.87902477988 -0.34376976592 0.26472031933 0.90096920068 
-0.27593488467 0.31055513331 0.90962379509 -0.22529217876 0.34824481572 0.90992800952 -0.19248638473 0.37523564306 0.9067233337 
-0.17697175068 0.38945695762 0.90388288933 -0.17695711176 0.38947204332 0.90387925525 -0.1896885606 0.37453579744 0.90760188762 
-0.21258943375 0.34354715195 0.91475739245 -0.24375200963 0.29398797677 0.92420561961 -0.27824351007 0.22786429025 0.93309078569 
-0.31029974637 0.15131703292 0.93851863218 -0.33599672864 0.070942923367 0.93918757443 -0.35332748055 -0.0065855293793 0.93547652151 
-0.3622914049 -0.075750859014 0.92898156348 -0.36443010813 -0.13391418712 0.92155178193 -0.36188887917 -0.18008844599 0.91466091572 
-0.35683126775 -0.21500250891 0.90909040668 -0.3510184093 -0.24013473145 0.90505325097 -0.34552381547 -0.25774977879 0.9023183166 
-0.34009973041 -0.27185720407 0.90023654335 -0.33257535032 -0.28865108552 0.8978163438 -0.31690337755 -0.31962102932 0.89298076514 
-0.26040856881 -0.41706885476 0.87077031856 0.4695490234 -0.87796224378 -0.093306018713 0.49276504378 -0.063335005588 -0.86785441677 
0.46348872125 0.021294078649 -0.88584692102 0.46016706225 0.030959667951 -0.88729238348 0.4641798376 0.017674051386 -0.88556462569 
0.47007081658 -0.0067767447992 -0.88260268702 0.47550753809 -0.039577933166 -0.87882089667 0.47870361672 -0.079799322101 -0.87434256189 
0.47790211637 -0.12748485739 -0.86911286856 0.47124963552 -0.18143183141 -0.8631374581 0.45716940572 -0.2400573417 -0.85636943381 
0.43470439305 -0.30072952721 -0.84887799013 0.40450681824 -0.35902360094 -0.8411160966 0.36920499736 -0.41021000145 -0.83391571794 
0.33253858531 -0.4511514777 -0.82817898636 0.29838167597 -0.4807397167 -0.8245348387 0.26982676008 -0.499774092 -0.82305490492 
0.24797562987 -0.51068735406 -0.82322932005 0.23152730295 -0.51650318662 -0.82439042098 0.21959082866 -0.51915205486 -0.82599092725 
0.21183354693 -0.51994174724 -0.82751865711 0.20741007768 -0.51990842601 -0.82865933184 0.20741007768 -0.51990842601 -0.82865933184 

plain_curvature_peaks 1 120 unsigned_char
0 0 0 0 0 0 0 0 0 
0 0 0 1 0 0 0 0 0 
0 0 0 0 0 0 0 0 0 
0 0 0 0 0 0 0 1 0 
0 0 0 0 0 0 0 0 0 
0 0 0 0 0 0 0 0 0 
0 0 0 0 0 0 0 0 0 
0 0 0 0 0 0 0 0 0 
0 0 0 0 0 0 0 0 0 
1 0 0 0 0 0 0 0 0 
0 0 0 0 0 0 0 0 0 
0 0 0 0 0 0 0 0 0 
0 0 0 0 0 0 0 0 0 
0 1 0 
weighted_curvature_peaks 1 120 unsigned_char
0 0 0 0 0 0 0 0 0 
0 0 0 0 0 0 1 0 0 
0 0 0 0 0 0 0 0 0 
1 0 0 0 0 0 0 0 0 
0 0 0 0 0 0 0 0 0 
0 0 0 0 0 0 0 0 0 
0 1 0 0 0 0 0 0 0 
0 0 0 0 0 0 0 0 0 
0 0 0 0 0 0 0 0 0 
0 0 0 0 0 0 0 0 0 
0 0 0 0 0 0 0 0 0 
0 1 0 0 0 0 0 0 0 
0 0 0 0 0 0 0 0 0 
0 0 0 
plain_torsion_tp 1 120 unsigned_char
0 0 0 0 0 0 0 0 0 
0 0 0 1 0 0 0 0 0 
0 0 0 0 0 0 0 0 0 
0 0 0 0 0 0 0 1 0 
0 0 0 0 0 0 0 0 0 
0 0 0 0 0 0 0 0 0 
0 0 0 0 0 0 0 0 0 
0 0 0 0 0 0 0 0 0 
0 0 0 0 0 0 0 0 0 
1 0 0 0 0 0 0 0 0 
0 0 0 0 0 0 0 0 0 
0 0 0 0 0 0 0 0 0 
0 0 0 0 0 0 0 0 0 
0 1 0 
plain_torsion_tn 1 120 unsigned_char
0 2 0 0 0 0 0 0 0 
0 0 0 0 0 0 0 0 0 
0 0 0 0 0 2 0 0 0 
0 0 0 0 0 0 0 0 0 
0 0 0 0 0 0 0 0 0 
0 0 0 0 0 0 0 0 0 
2 0 0 0 0 0 0 0 0 
0 0 0 0 0 0 0 0 0 
0 0 0 0 0 0 0 0 0 
0 0 0 0 0 0 0 0 0 
0 0 0 0 0 0 0 0 0 
0 0 0 0 0 2 0 0 0 
0 0 0 0 0 0 0 0 0 
0 0 0 
plain_torsion_tz 1 120 unsigned_char
0 3 0 0 0 0 0 0 0 
0 0 0 0 0 0 0 0 0 
0 0 0 3 0 0 0 3 0 
0 0 0 0 0 0 0 0 0 
0 0 0 0 0 0 0 0 0 
0 0 0 0 0 0 0 0 0 
0 0 0 0 0 0 0 0 3 
0 0 0 0 0 0 0 0 0 
0 0 0 0 0 0 0 0 0 
0 0 0 0 0 0 0 0 0 
0 0 0 0 0 0 3 0 0 
0 0 0 0 0 0 0 0 0 
0 0 3 0 0 0 0 0 0 
0 0 0 
weighted_torsion_tp 1 120 unsigned_char
0 0 0 0 0 0 0 0 0 
0 0 0 0 0 0 1 0 0 
0 0 0 0 0 0 0 0 0 
1 0 0 0 0 0 0 0 0 
0 0 0 0 0 0 0 0 0 
0 0 0 0 0 0 0 0 0 
0 1 0 0 0 0 0 0 0 
0 0 0 0 0 0 0 0 0 
0 0 0 0 0 0 0 0 0 
0 0 0 0 0 0 0 0 0 
0 0 0 0 0 0 0 0 0 
0 1 0 0 0 0 0 0 0 
0 0 0 0 0 0 0 0 0 
0 0 0 
weighted_torsion_tn 1 120 unsigned_char
0 0 0 2 0 0 0 0 0 
0 0 0 0 0 0 0 0 0 
0 0 0 0 0 0 2 0 0 
0 0 0 0 2 0 0 0 0 
0 0 0 0 0 0 0 0 0 
0 0 0 0 0 0 0 0 0 
0 0 0 0 0 0 0 0 0 
0 0 0 0 0 0 0 0 0 
0 0 0 0 0 2 0 0 0 
0 0 0 0 0 0 0 0 0 
0 0 0 0 0 0 0 0 0 
0 0 0 0 0 0 0 0 0 
0 0 0 0 0 0 0 0 0 
0 0 0 
weighted_torsion_tz 1 120 unsigned_char
0 0 0 0 3 0 0 0 0 
0 0 0 0 0 0 0 0 0 
0 0 0 0 3 0 0 3 0 
0 0 0 0 0 0 0 0 0 
3 0 0 0 0 0 0 0 0 
0 0 0 0 0 0 0 0 0 
0 0 0 0 0 0 0 0 0 
0 0 0 0 0 0 3 0 0 
0 0 0 0 0 0 0 0 0 
0 0 0 3 0 0 0 0 0 
0 0 0 0 0 0 0 0 0 
0 0 0 0 0 0 0 0 0 
0 0 0 0 0 0 0 0 0 
0 0 0 
plain_torsion_tp_raw 1 120 unsigned_char
0 0 0 0 0 0 0 0 0 
0 0 0 0 0 0 0 0 1 
0 0 0 0 0 0 1 0 0 
0 0 0 0 0 0 0 0 0 
0 0 0 0 0 0 0 0 0 
0 0 0 0 0 0 0 0 0 
0 0 0 0 1 0 0 0 0 
0 0 0 0 0 0 0 0 0 
0 0 0 0 0 0 0 0 0 
0 0 0 0 0 0 0 1 0 
0 0 0 0 0 0 0 0 0 
0 0 0 0 0 0 0 0 0 
0 0 0 0 0 1 0 0 0 
0 1 0 
plain_torsion_tn_raw 1 120 unsigned_char
0 0 0 0 0 0 0 0 0 
2 0 0 0 0 0 0 0 0 
0 0 0 0 2 0 0 0 0 
0 0 0 0 0 0 0 0 0 
0 0 0 0 0 0 0 0 0 
0 0 0 2 0 0 0 0 0 
0 0 0 0 0 0 0 0 0 
0 0 0 0 2 0 0 0 0 
0 0 0 0 0 0 0 0 0 
0 0 0 0 0 0 0 0 0 
0 0 0 0 0 0 0 0 0 
0 0 0 0 0 0 2 0 0 
0 0 0 0 0 0 0 0 2 
0 0 0 
plain_torsion_tz_raw 1 120 unsigned_char
0 3 0 0 0 0 0 0 0 
0 0 0 0 3 0 0 0 0 
3 0 0 0 0 3 0 0 0 
0 0 0 0 0 0 0 0 0 
0 0 0 0 0 0 0 0 0 
0 0 0 0 0 0 0 0 0 
0 0 0 0 0 0 0 0 0 
0 0 0 0 0 0 0 0 0 
0 0 0 0 0 0 0 0 0 
0 0 0 0 0 0 0 0 0 
0 0 0 0 0 0 0 0 0 
0 0 0 0 0 0 0 0 0 
0 0 0 0 0 0 0 0 0 
0 0 0 
weighted_torsion_tp_raw 1 120 unsigned_char
0 0 0 0 0 0 0 0 0 
0 0 0 0 0 0 0 0 0 
0 1 0 0 0 0 1 0 0 
0 0 0 0 0 0 1 0 0 
0 0 0 0 0 0 0 0 0 
0 0 0 0 0 0 0 0 0 
0 0 0 0 0 0 0 1 0 
0 0 0 0 0 0 0 0 0 
0 0 0 0 0 0 0 0 0 
0 0 0 0 0 0 0 0 0 
1 0 0 0 0 0 0 0 0 
0 0 0 0 1 0 0 0 0 
0 0 0 0 0 0 0 0 0 
0 0 0 
weighted_torsion_tn_raw 1 120 unsigned_char
0 0 0 0 0 0 0 0 0 
0 0 2 0 0 0 0 0 0 
0 0 0 0 0 2 0 0 0 
0 0 2 0 0 0 0 0 0 
0 0 0 0 0 2 0 0 0 
0 0 0 0 0 0 0 0 0 
0 0 0 0 0 0 0 0 0 
0 0 0 0 0 0 0 0 0 
0 0 0 0 0 0 0 2 0 
0 0 0 0 0 0 0 0 0 
0 0 0 0 0 2 0 0 0 
0 0 0 0 0 0 0 0 0 
0 0 0 0 0 0 0 0 0 
0 0 0 
weighted_torsion_tz_raw 1 120 unsigned_char
0 0 0 3 0 0 0 0 0 
0 0 0 0 0 0 0 3 0 
0 0 3 0 0 0 3 0 0 
0 0 0 0 0 0 0 0 0 
0 0 0 0 0 0 0 0 0 
0 0 0 0 0 0 0 0 0 
0 0 0 0 0 0 0 0 0 
0 0 0 0 0 0 0 0 0 
0 0 0 0 0 0 0 0 0 
0 0 0 0 0 0 0 0 0 
0 0 0 0 0 0 0 0 0 
0 0 0 0 0 0 0 0 0 
0 0 0 0 0 0 0 0 0 
0 0 0 
