# vtk DataFile Version 5.1
vtk output
ASCII
DATASET POLYDATA
POINTS 120 float
-0.647003 17.9151 -1.14184 -1.0447 17.3604 -1.55279 -1.40936 16.7599 -1.84318 
-1.75937 16.1328 -2.03202 -2.11273 15.4981 -2.13874 -2.48618 14.8744 -2.1839 
-2.89375 14.2791 -2.19014 -3.34484 13.7275 -2.18261 -3.84272 13.2318 -2.18826 
-4.38401 12.8002 -2.23394 -4.959 12.4361 -2.34345 -5.55323 12.1379 -2.53487 
-6.14941 11.8986 -2.81859 -6.7298 11.7066 -3.19653 -7.27832 11.5466 -3.66239 
-7.78201 11.4018 -4.20302 -8.23147 11.2551 -4.80063 -8.62055 11.0919 -5.43544 
-8.94533 10.9005 -6.08855 -9.20324 10.674 -6.74409 -9.3924 10.4102 -7.39072 
-9.51135 10.1117 -8.02202 -9.55885 9.78453 -8.63602 -9.53395 9.43684 -9.2338 
-9.43584 9.07644 -9.81774 -9.26405 8.70892 -10.3898 -9.01876 8.3366 -10.95 
-8.70119 7.95886 -11.4959 -8.31417 7.57342 -12.0223 -7.86289 7.17823 -12.5203 
-7.3555 6.77235 -12.9775 -6.80383 6.35738 -13.3773 -6.22387 5.93821 -13.6999 
-5.63559 5.5227 -13.9237 -5.06188 5.12224 -14.0286 -4.52681 4.751 -13.9989 
-4.05287 4.42401 -13.8267 -3.65829 4.155 -13.514 -3.35458 3.95357 -13.0727 
-3.14576 3.82286 -12.5234 -3.0286 3.75805 -11.8918 -2.99457 3.74753 -11.206 
-3.03211 3.77459 -10.4925 -3.12881 3.82039 -9.77363 -3.27318 3.86572 -9.0662 
-3.45586 3.89233 -8.38162 -3.67075 3.88372 -7.72651 -3.91546 3.82662 -7.10421 
-4.19081 3.71141 -6.51621 -4.49895 3.53362 -5.96291 -4.84065 3.29348 -5.44392 
-5.21269 2.9948 -4.95749 -5.60653 2.64347 -4.5001 -6.00894 2.24618 -4.06612 
-6.4043 1.80968 -3.64831 -6.77757 1.33988 -3.23859 -7.11683 0.842161 -2.82926 
-7.41442 0.320859 -2.41401 -7.66634 -0.220086 -1.98859 -7.87047 -0.777553 -1.55126 
-8.02435 -1.34859 -1.10288 -8.12395 -1.93052 -0.646923 -8.16321 -2.5201 -0.189046 
-8.13484 -3.11261 0.263665 -8.03153 -3.70127 0.703826 -7.84742 -4.27698 1.12462 
-7.5792 -4.82868 1.52047 -7.22672 -5.34471 1.88709 -6.79317 -5.81469 2.22163 
-6.28473 -6.23098 2.52264 -5.71014 -6.58989 2.79036 -5.07987 -6.89216 3.02691 
-4.40541 -7.14202 3.23626 -3.69824 -7.34581 3.42377 -2.96913 -7.50983 3.59507 
-2.22732 -7.63812 3.75492 -1.48018 -7.73108 3.9061 -0.733206 -7.78523 4.04893 
0.00969244 -7.7944 4.18163 0.745689 -7.75164 4.30152 1.47247 -7.65197 4.40677 
2.18771 -7.49534 4.49853 2.88876 -7.28792 4.58252 3.57255 -7.04304 4.66956 
4.23579 -6.77912 4.77452 4.8754 -6.51645 4.91381 5.48917 -6.27364 5.10202 
6.07663 -6.06346 5.34888 6.63965 -5.89035 5.65736 7.18302 -5.75012 6.02333 
7.71421 -5.63173 6.43667 8.24257 -5.52174 6.88313 8.77769 -5.40901 7.34659 
9.32787 -5.28961 7.81103 9.89845 -5.16926 8.26231 10.491 -5.06288 8.68935 
11.1025 -4.99215 9.08465 11.7261 -4.98136 9.44489 12.3514 -5.05295 9.77024 
12.966 -5.22328 10.0639 13.5563 -5.50057 10.3313 14.1087 -5.88439 10.5786 
14.6107 -6.36622 10.8121 15.0512 -6.93179 11.0368 15.4206 -7.56318 11.2565 
15.7108 -8.24069 11.4727 15.9147 -8.94536 11.6857 16.0257 -9.66041 11.8944 
16.0395 -10.3725 12.0967 15.9546 -11.0722 12.2912 15.7753 -11.7546 12.4771 
15.5136 -12.4182 12.6559 15.1901 -13.0645 12.8307 14.8346 -13.697 13.0074 
14.484 -14.3203 13.194 14.181 -14.9393 13.4005 13.9722 -15.5591 13.6381 
13.9056 -16.1846 13.9185 14.0302 -16.8208 14.254 14.3948 -17.4724 14.6569 

LINES 2 120
OFFSETS vtktypeint64
0 120 
CONNECTIVITY vtktypeint64
0 1 2 3 4 5 6 7 8 
9 10 11 12 13 14 15 16 17 
18 19 20 21 22 23 24 25 26 
27 28 29 30 31 32 33 34 35 
36 37 38 39 40 41 42 43 44 
45 46 47 48 49 50 51 52 53 
54 55 56 57 58 59 60 61 62 
63 64 65 66 67 68 69 70 71 
72 73 74 75 76 77 78 79 80 
81 82 83 84 85 86 87 88 89 
90 91 92 93 94 95 96 97 98 
99 100 101 102 103 104 105 106 107 
108 109 110 111 112 113 114 115 116 
117 118 119 
CELL_DATA 1
FIELD FieldData 2
Length 1 1 double
85.907073718 
Tortuosity 1 1 double
1.0665253462 
POINT_DATA 120
FIELD FieldData 19
Curvature 1 120 double
0 0.21273193331 0.18604833116 0.15109436703 0.12256111548 0.11174825358 0.12191875031 0.14700617944 0.17851225667 
0.20756530815 0.22533576516 0.22576020838 0.20977245891 0.18411025633 0.15738431895 0.13655137134 0.12572730845 0.12562747377 
0.13334654688 0.14417513148 0.15338903849 0.15861880977 0.15963300555 0.15800898124 0.15377443902 0.14604923865 0.13529403854 
0.12379242315 0.11465685919 0.11098195843 0.11544852356 0.13017690532 0.15976553383 0.20997503326 0.28816475019 0.39623296089 
0.50200850541 0.53670166828 0.46522229082 0.34506035738 0.2390821426 0.1647527114 0.11791783306 0.093114794301 0.090124871463 
0.10771465834 0.1365836445 0.16583588832 0.18210326274 0.17916110894 0.15895901633 0.12978242075 0.10107565732 0.081642306473 
0.077303311382 0.083180179925 0.090804905269 0.094822220663 0.095886207531 0.096962452062 0.10084781687 0.10926222852 0.12195000697 
0.13752429892 0.15396388829 0.16938460587 0.18208361513 0.18938986572 0.18883765923 0.17835795522 0.15826090799 0.13219188204 
0.10507996879 0.081940189833 0.067010195589 0.062184216677 0.06718602814 0.079380559434 0.09478118624 0.10711247984 0.10913589333 
0.098205473463 0.076449907209 0.06011533977 0.075573845955 0.11511513509 0.15330179665 0.17023551147 0.15510753741 0.11339585677 
0.062200271207 0.016950342101 0.019406210546 0.042948511919 0.065372909425 0.094432660143 0.13238785876 0.17445644058 0.21029213989 
0.22937940528 0.22756009589 0.2096609829 0.18747151866 0.16830248215 0.15679440162 0.15468133691 0.1620037613 0.17421192815 
0.18422565603 0.18138022569 0.15838493004 0.11654595908 0.062927235749 0.022157816524 0.090155512952 0.19312760926 0.31351426524 
0.39504658343 0.36104886672 0 
Torsion 1 120 double
0 0 0.2415703845 0.3937487556 0.59960258227 0.71962588612 0.63498433117 0.48722557136 0.37364111832 
0.30044025317 0.25852479304 0.24139979396 0.24461665483 0.26543679029 0.30004090606 0.33249829605 0.32687387995 0.26016037174 
0.15675226084 0.052235997521 -0.038184445719 -0.10687283851 -0.14153982339 -0.12908286006 -0.075025178036 -0.0025919874599 0.065629554066 
0.11568692588 0.14734167764 0.1577185512 0.14144780652 0.11443980258 0.078914922549 0.042490404522 0.015129557393 -0.0031838520005 
-0.011694877308 -0.010627673353 0.0020842379402 0.031956142125 0.087197578593 0.18283328687 0.33240373183 0.51461477067 0.54127622789 
0.34796918916 0.16209800052 0.05044047211 0.00040504880494 0.0015307565249 0.052362862667 0.16311211933 0.34437616828 0.53525391595 
0.52677317435 0.35928330446 0.21847658852 0.12767043191 0.059437932535 0.0010339684551 -0.041318199194 -0.049997210531 -0.031397629864 
-0.001776638922 0.02675635114 0.045785289774 0.051797995065 0.048286623599 0.040810677903 0.033449658316 0.031500289952 0.040485615895 
0.062401500988 0.099367572483 0.12939375279 0.1036006651 0.036232210605 -0.008011337367 -0.011094969775 0.014603918274 0.071306487407 
0.19189250723 0.49838592892 1.0434446835 0.73998212112 0.30102538418 0.11934659138 0.033341181901 -0.028368959056 -0.098679775247 
-0.23412898922 -1.4254504556 -0.99946878058 -0.54081354477 -0.49898654156 -0.40042736152 -0.29244226493 -0.21333101521 -0.16867952335 
-0.14539696004 -0.13456103226 -0.13059073484 -0.12541334038 -0.11533707887 -0.096830711743 -0.072020677292 -0.042159476862 -0.022240571001 
-0.01119296715 -0.012076778329 -0.028922159971 -0.084424480519 -0.41476934319 -4.2047734787 -0.31026637771 -0.080991413515 -0.031609490038 
-0.016288488272 0 0 
FrenetTangent 3 120 double
-0.49133137254 -0.74450434057 -0.4520030633 -0.49133137254 -0.74450434057 -0.4520030633 -0.47672562955 -0.8188630933 -0.31968094806 
-0.47702443818 -0.85572673481 -0.20044809979 -0.49744323311 -0.86124638397 -0.10394660135 -0.53913418576 -0.84147205491 -0.035483947743 
-0.59931355726 -0.80051386239 0.00090343375461 -0.67145461435 -0.74104448234 0.0013326900266 -0.74560427685 -0.66537033061 -0.036831854314 
-0.80912894869 -0.57676394877 -0.11248862964 -0.84907903187 -0.48094434825 -0.21853450877 -0.85648950749 -0.38672523916 -0.34186154062 
-0.83027695626 -0.30435863514 -0.46691112335 -0.77711793354 -0.24228732015 -0.58084814871 -0.70729511538 -0.20489630104 -0.67657307482 
-0.62998860058 -0.19266372245 -0.75232642729 -0.55076075838 -0.20355665083 -0.80946110279 -0.47130824944 -0.23416282822 -0.85031541435 
-0.39049053397 -0.2800317435 -0.87698310446 -0.30590425692 -0.33544146048 -0.89101156681 -0.21549310348 -0.39327296282 -0.8938115568 
-0.11859338878 -0.44579519767 -0.88724418841 -0.016293887794 -0.48648883735 -0.8735348421 0.088934242455 -0.51195332704 -0.85439715089 
0.19382434874 -0.52275120017 -0.83015860205 0.29467981997 -0.5227151197 -0.79995794099 0.38813684871 -0.51721822196 -0.76278115967 
0.47196783058 -0.51121304108 -0.71826707674 0.54552169447 -0.50799311294 -0.66659513805 0.60959138329 -0.50938206352 -0.6073946483 
0.66585057199 -0.51608789443 -0.53879151905 0.7159640699 -0.52774877648 -0.45703028295 0.76044008012 -0.54331461761 -0.35572476837 
0.79728924353 -0.55986386228 -0.22557109269 0.81950988342 -0.57036433318 -0.055570481506 0.81139859149 -0.56148685902 0.16237251267 
0.74898371379 -0.51397684861 0.41815212012 0.61784251255 -0.41624625809 0.66709046037 0.44039169866 -0.28538967705 0.8512390287 
0.26275095808 -0.15759226983 0.9519068287 0.11383663548 -0.056721926971 0.99187894595 -0.0025059563029 0.011820317138 0.99992699748 
-0.09319111193 0.050583360653 0.99436247932 -0.16632297963 0.062871192671 0.98406497732 -0.22842805581 0.050242135761 0.97226351938 
-0.28447865198 0.012878815988 0.95859586514 -0.33815355633 -0.048345540772 0.93984832873 -0.39145157072 -0.1296956009 0.91101301796 
-0.44375966997 -0.22283469732 0.86799887844 -0.491692141 -0.31622201791 0.81132143684 -0.53043068876 -0.40043488546 0.74719153296 
-0.55564245764 -0.47158049804 0.68474323154 -0.56458685203 -0.53081466221 0.63204230942 -0.55621475 -0.58132328997 0.59387573146 
-0.53079074391 -0.62585639128 0.57145862814 -0.48998790348 -0.66533865022 0.56323737 -0.43698613065 -0.6992218122 0.56580206695 
-0.37589516864 -0.72663644195 0.57506721643 -0.31038732092 -0.74757872187 0.58718460948 -0.24213382347 -0.76324026202 0.59902880896 
-0.17045221455 -0.77532048519 0.60813171912 -0.093053025287 -0.78506204541 0.61238771979 -0.0072967111424 -0.79218703068 0.61023476337 
0.08858530517 -0.7945908767 0.60064796876 0.19468226323 -0.7886782574 0.58316843424 0.30901931965 -0.77022103438 0.55791273357 
0.42764202239 -0.73563947272 0.5253159686 0.54479484715 -0.68339649357 0.4859709941 0.65366344952 -0.61499987992 0.44102068257 
0.74783319363 -0.53527921595 0.39271067656 0.82302349263 -0.4516403816 0.34446087772 0.87845309597 -0.37174079219 0.30021482577 
0.91657719548 -0.30095058971 0.26327739605 0.94155886601 -0.24112021896 0.23521892325 0.95774799898 -0.19033152769 0.21562161307 
0.96867817065 -0.14393493422 0.2023495402 0.97663779471 -0.096157213601 0.19217806383 0.9824676852 -0.041755904753 0.18169670318 
0.98547939443 0.022378223084 0.16831392779 0.98381801139 0.095788805827 0.15141540589 0.97578030007 0.17343646715 0.13331390719 
0.96159404793 0.24717886506 0.11932935788 0.94409994597 0.30835054342 0.11659860376 0.92728289915 0.35025327353 0.13217060689 
0.91343823671 0.36919636348 0.17124436604 0.90133420415 0.36349527965 0.23551610157 0.88617421112 0.33418109656 0.32096458099 
0.86258402783 0.28738178629 0.41636582934 0.8299359675 0.23504213482 0.50592636294 0.79457612878 0.1912324677 0.57626289042 
0.7658480529 0.16507736606 0.62147101548 0.75039550591 0.1571515413 0.64203580724 0.75022440073 0.16046303188 0.64141637331 
0.76397189158 0.16342524606 0.62421081201 0.78854432453 0.15371189781 0.59545822753 0.81974758685 0.12058864163 0.55988594674 
0.85170143068 0.056211899845 0.52100373828 0.87580976324 -0.042636327619 0.48076959365 0.88136458236 -0.17195992859 0.44002983525 
0.85911444727 -0.3191700608 0.40006604303 0.80643907792 -0.46659814327 0.36323847029 0.72897542796 -0.59843437216 0.33237197181 
0.63613635583 -0.70688961638 0.30925330564 0.5356459187 -0.79164133762 0.29391740736 0.43133548796 -0.85597057219 0.28506854679 
0.32303629679 -0.90380611994 0.28068140038 0.20798848235 -0.93765443976 0.2784689261 0.083748581328 -0.95758352748 0.2757171794 
-0.04844152238 -0.96156902597 0.2702562251 -0.18122249076 -0.94817077959 0.26101835486 -0.30154109467 -0.92026236095 0.24937954053 
-0.39601945107 -0.88651499964 0.23929009547 -0.45570446869 -0.8583063233 0.23588915321 -0.47525419942 -0.84519267622 0.24450518604 
-0.44832618354 -0.85221300182 0.26969729823 -0.36249467483 -0.87731442285 0.31451075368 -0.20009836096 -0.9046512616 0.37625355922 
0.041264802435 -0.89788458445 0.43829269796 0.31299837183 -0.82392231926 0.47242357166 0.31299837183 -0.82392231926 0.47242357166 

FrenetNormal 3 120 double
0.11749626566 -0.57087702047 0.81258479869 0.11749626566 -0.57087702047 0.81258479869 0.059648174955 -0.39296069876 0.91761864871 
-0.089493566229 -0.1795909809 0.97966217707 -0.35170430075 0.090688392169 0.931707948 -0.64511495464 0.38550847533 0.65970441165 
-0.78071994202 0.58474329332 0.22034439648 -0.72917207226 0.66037433681 -0.17948210024 -0.57637005668 0.67164021752 -0.46550722441 
-0.37826924505 0.65771139306 -0.6514047142 -0.15973861265 0.62806483459 -0.76158921945 0.064092912616 0.57750385884 -0.81386816597 
0.27998014085 0.49660161909 -0.82158259028 0.47651327536 0.37638084717 -0.79452662403 0.64321673166 0.21051330218 -0.73617687122 
0.76674246191 -0.00041279487151 -0.6419546921 0.83072071796 -0.22783289164 -0.50793234022 0.83890841163 -0.41659131103 -0.35026326737 
0.82651828763 -0.52618040514 -0.2000042536 0.82780761585 -0.55599111069 -0.074889491787 0.85401467575 -0.51974954547 0.022789110995 
0.89785798293 -0.42971463622 0.095897726315 0.94164251895 -0.30124405242 0.15020448522 0.96735756053 -0.15996747825 0.19654453946 
0.96740097342 -0.038748771335 0.25026763543 0.94574766604 0.039654175157 0.32247309744 0.90726438457 0.069015103475 0.41485931589 
0.85226390458 0.056088077732 0.52009649536 0.77919974555 0.01452164466 0.62660743562 0.68573887119 -0.045552443953 0.72642079774 
0.57700310628 -0.10160543155 0.81039728012 0.46068101644 -0.13474512282 0.8772780363 0.33668828599 -0.13855483134 0.93136649971 
0.20483375443 -0.10057419689 0.9736159222 0.053890064301 -0.019838789036 0.9983497801 -0.12758736689 0.10095490927 0.98667602084 
-0.33496480852 0.25078959452 0.90824179398 -0.53580811046 0.39805019011 0.74462454628 -0.68670073514 0.50370448218 0.52414110217 
-0.77799617619 0.54892271632 0.30562362695 -0.83367754849 0.53758632331 0.12642266466 -0.88683510291 0.46202213544 -0.007684179146 
-0.94930720502 0.2966273033 -0.10405802915 -0.98605843334 -0.0055006004421 -0.16630847676 -0.90088128492 -0.38952511834 -0.19152830775 
-0.71835752682 -0.66501472395 -0.20424955472 -0.57146619681 -0.78292222127 -0.24588448783 -0.48132326519 -0.81492656087 -0.322835275 
-0.42588696423 -0.79977876585 -0.42305344745 -0.3762975227 -0.76307491895 -0.52546821262 -0.3095803049 -0.72902930386 -0.61047220161 
-0.1998348039 -0.72368905476 -0.66056052196 -0.0084022513444 -0.76202906721 -0.6474883033 0.29060466043 -0.80555883481 -0.51635636434 
0.60400022566 -0.75235492349 -0.26295588319 0.79232070244 -0.60934093784 -0.030520910274 0.87899276575 -0.46542216525 0.10370113716 
0.92344684985 -0.34538524685 0.16719732882 0.95048397946 -0.25412700943 0.17888450986 0.97022537683 -0.1867642107 0.1542136432 
0.98527520216 -0.14248089378 0.094509104936 0.99428367392 -0.10561121513 0.01569225994 0.99621645763 -0.058607826293 -0.064170805252 
0.99095471133 0.0092775995221 -0.13387563724 0.97654514728 0.10010058336 -0.19062908629 0.94888212472 0.21005157329 -0.23558660816 
0.9034901107 0.32934364352 -0.27429616172 0.83855640805 0.44719771804 -0.31118700405 0.75614467177 0.55472286508 -0.34717110812 
0.66196657911 0.64617644036 -0.37981081614 0.5643842718 0.71862365884 -0.40626399139 0.47156649532 0.77584637771 -0.41915085432 
0.38885577867 0.82426547461 -0.41155511267 0.31691121069 0.87075895604 -0.37596027053 0.25127555748 0.9184863519 -0.30535784842 
0.18938557718 0.95527652448 -0.22711200968 0.1323494664 0.97371131072 -0.18539121372 0.076933061825 0.97854907737 -0.19110993478 
0.014676665995 0.9763401926 -0.21574156714 -0.058784373557 0.97087825913 -0.23224944215 -0.14163167703 0.96534242758 -0.21921328785 
-0.22995975834 0.96287234691 -0.14140492599 -0.31894771904 0.94381020296 0.08657166575 -0.35509294444 0.71110553123 0.60682610711 
-0.23056887937 0.12272805607 0.96528535476 -0.15680930602 -0.2330114235 0.95974815346 -0.17994378032 -0.39012397884 0.90300803821 
-0.2535145374 -0.46667896031 0.84731406653 -0.34604169461 -0.49443847565 0.79736173685 -0.44093015667 -0.47074049525 0.76418844736 
-0.53339164306 -0.37668771215 0.75736366604 -0.65220889395 0.01824512923 0.7578196843 0.52176761196 0.45216691235 -0.72339729228 
0.63428076414 -0.012590198731 -0.77300025818 0.60131366983 -0.3956907596 -0.69415466089 0.47709458546 -0.68461239538 -0.55107769381 
0.31281030878 -0.85219705465 -0.41941613079 0.13528796138 -0.93447456485 -0.32932424016 -0.048682103013 -0.95950376022 -0.27745736064 
-0.23652421554 -0.94083319138 -0.24267097367 -0.41529496532 -0.88420655232 -0.21379631573 -0.57444291731 -0.79885776523 -0.17844216339 
-0.70567924902 -0.69510502453 -0.13728001449 -0.80882863144 -0.58099050743 -0.090809004209 -0.88492994729 -0.46292082631 -0.051022514127 
-0.93919221201 -0.3426570039 -0.022453653923 -0.97521725403 -0.22074686061 -0.014904058942 -0.99501019248 -0.095417479849 -0.029158556348 
-0.99795332277 0.035285684113 -0.053329973475 -0.98274335139 0.16459523493 -0.084403281549 -0.95317997247 0.28469971329 -0.10195103395 
-0.91819220977 0.38503246653 -0.093129295305 -0.87920035287 0.47541857636 0.031367447511 0.11002317955 0.21862467144 0.96958658871 
0.80992010481 -0.25963204951 0.52594735734 0.88875123833 -0.2238094713 0.40003819433 0.94837801782 -0.082397234693 0.30625125475 
0.97224973006 0.13718535148 0.18950103359 0.92397898961 0.37925680935 0.049265599777 0.92397898961 0.37925680935 0.049265599777 

FrenetBinormal 3 120 double
-0.86301107172 0.34613973244 0.3679662698 -0.86301107172 0.34613973244 0.3679662698 -0.87702609389 0.41838394287 0.23617812556 
-0.87432178686 0.48526161492 0.0090872495476 -0.79300335098 0.50003028071 -0.34801638425 -0.54144346431 0.37856042615 -0.75068700449 
-0.17691702071 0.13135005533 -0.97542171944 0.13212414577 -0.12148584475 -0.98376033648 0.33447245045 -0.32585539946 -0.88427735385 
0.44969180851 -0.48451942256 -0.75034539148 0.50353587088 -0.61174103789 -0.61010206466 0.51216972002 -0.71898044648 -0.46983964867 
0.48192457566 -0.81286693446 -0.32710250724 0.41112384482 -0.89422274204 -0.17703918168 0.29326754997 -0.95587742699 -0.017102301271 
0.12337082413 -0.98126475513 0.14798351294 -0.081028857696 -0.95218530938 0.2945801433 -0.27221537595 -0.87841872103 0.39278408783 
-0.40544378536 -0.80294234157 0.43691982449 -0.47027347017 -0.76049517515 0.44776104322 -0.47352049159 -0.75841729061 0.44786332441 
-0.42401255952 -0.78524644103 0.4512220919 -0.33621998114 -0.82011013408 0.46300701103 -0.23729738854 -0.84398708333 0.48101533505 
-0.16299533263 -0.85160420116 0.49819956454 -0.13683989142 -0.85158466991 0.50604188965 -0.16192937706 -0.85306636691 0.49604097662 
-0.22559389141 -0.85762191796 0.46216019083 -0.30863220409 -0.861238712 0.40374997655 -0.39769403561 -0.85933397943 0.32153470392 
-0.47298037075 -0.85048787264 0.23013028348 -0.5245650119 -0.83864472859 0.14665117624 -0.55531241894 -0.82801677821 0.077565020312 
-0.56777900207 -0.82245807591 0.034492291529 -0.57052555766 -0.82115220872 0.0144788869 -0.5703979221 -0.82130421492 0.0102760413 
-0.5716834557 -0.82032455673 0.015673165205 -0.57548266564 -0.81749317966 0.022904208543 -0.57835737404 -0.81537385712 0.025849971501 
-0.57068720318 -0.8208827736 0.021623786299 -0.54039149288 -0.84129873885 0.013909221305 -0.4620792361 -0.88678961793 0.0093248648833 
-0.30021866556 -0.95365274946 0.020376120498 -0.0050430640358 -0.99800649122 0.062909546002 0.36909827121 -0.91964444758 0.13424066529 
0.6348498722 -0.74671919289 0.19843408662 0.74771555972 -0.620238264 0.23712009114 0.78427902061 -0.56486613591 0.25657877217 
0.78847805867 -0.55740346552 0.26000716841 0.7852636582 -0.56366683729 0.25620437868 0.78917888925 -0.55512897296 0.26273276183 
0.80704864191 -0.50387100124 0.30787416861 0.82533089648 -0.37087396122 0.425771554 0.77857182278 -0.11462197083 0.61699896319 
0.59451233257 0.2055865915 0.77736043109 0.36351032851 0.4313097518 0.82573127534 0.19082672605 0.54265188237 0.81799394569 
0.077128060384 0.59389267758 0.80083877892 0.015489215547 0.61363304807 0.78943940016 -0.0058249187523 0.61853329097 0.78573700326 
0.01337230578 0.61528638872 0.78819023166 0.052355613532 0.61034732415 0.79040181783 0.086599812679 0.60745767846 0.78961740186 
0.10080378865 0.60707434867 0.78822543183 0.091969515122 0.60660240646 0.78966773315 0.064263313577 0.60219423341 0.79575896588 
0.028773608681 0.59191834795 0.80548417042 -0.00466101218 0.57704716754 0.81669752136 -0.031134066788 0.56040850338 0.82763094386 
-0.050455551196 0.54399647875 0.8375691425 -0.064052512172 0.52877311077 0.84634288147 -0.077105114479 0.50977561889 0.85684515504 
-0.093152713953 0.4795989678 0.87252931295 -0.1141673613 0.42853223973 0.89628451572 -0.139926283 0.34663630933 0.92750412634 
-0.16061041331 0.25832053053 0.95261471679 -0.16929925189 0.20649473033 0.96368962309 -0.16981917303 0.20173781895 0.96460525651 
-0.16915956559 0.21507915624 0.96183470405 -0.16925282239 0.21959032455 0.96079840314 -0.16671314899 0.19502253555 0.96652622136 
-0.14985124799 0.10853318488 0.98273350979 -0.083352531703 -0.11892116367 0.9893988641 0.11855558086 -0.60963232185 0.7837684648 
0.33536335454 -0.92121217396 0.19722969093 0.40374186552 -0.90198495452 -0.15302172341 0.42698419581 -0.85797801594 -0.28558399936 
0.43781180234 -0.83643437095 -0.32969435668 0.43756306454 -0.83683080049 -0.32901789602 0.41740792101 -0.86129758471 -0.28971899843 
0.35912409413 -0.91151293503 -0.20043466338 0.10737850514 -0.9874059491 0.11618669591 -0.40610578383 0.87738058947 0.2555022379 
-0.11846881922 0.98647538025 -0.11327604789 0.12891748807 0.90542889022 -0.40444876812 0.31685114861 0.71886316334 -0.61874154703 
0.42042167368 0.52019265889 -0.74340111241 0.46330813302 0.35346772302 -0.81265376555 0.46992182946 0.22311951302 -0.85404400186 
0.45384872144 0.11385683243 -0.88377483544 0.42093479944 0.021562595795 -0.90683457647 0.37230385464 -0.060848772701 -0.92611406786 
0.31200534338 -0.13090483233 -0.94101891085 0.24265138521 -0.18908734187 -0.9515073738 0.17563793785 -0.23025787306 -0.95714817384 
0.11647119754 -0.25636044008 -0.95953831862 0.075445998252 -0.26846782885 -0.9603295925 0.054229991653 -0.27189941601 -0.96079644857 
0.041744274861 -0.27228648294 -0.9613102968 0.037066347828 -0.27180982574 -0.96163688807 0.022823415519 -0.26844600996 -0.96302431508 
-0.0095739384796 -0.25659531394 -0.96647151255 -0.13906896394 -0.19309954074 -0.97127359206 -0.8729423497 0.48770133597 -0.010911507631 
-0.37819711391 0.45422923551 0.80662428964 -0.28056879208 0.42453353698 0.86084402123 -0.24604833115 0.41811097881 0.8744389219 
-0.23027739462 0.41831023457 0.87862897128 -0.21976088368 0.42108940189 0.8799936759 -0.21976088368 0.42108940189 0.8799936759 

plain_curvature_peaks 1 120 unsigned_char
0 0 0 0 0 0 0 0 0 
0 0 0 0 0 0 0 0 0 
0 0 0 0 0 0 0 0 1 
0 0 0 0 0 0 0 0 0 
0 0 0 0 0 0 0 1 0 
0 0 0 0 0 0 0 0 0 
0 0 0 0 0 0 0 0 0 
0 0 0 0 0 0 0 0 0 
0 0 0 0 0 1 0 0 0 
0 0 0 0 0 0 0 0 0 
0 0 0 0 0 0 0 0 0 
0 0 0 0 0 0 0 0 0 
0 0 0 0 0 0 0 1 0 
0 0 0 
weighted_curvature_peaks 1 120 unsigned_char
0 0 0 0 0 0 0 0 0 
0 0 0 0 0 0 0 0 0 
0 0 0 0 0 0 0 0 0 
0 0 1 0 0 0 0 0 0 
0 0 0 0 0 0 0 0 0 
0 0 0 1 0 0 0 0 0 
0 0 0 0 0 0 0 0 0 
0 0 0 0 0 0 0 0 0 
0 0 0 0 0 0 0 0 0 
0 1 0 0 0 0 0 0 0 
0 0 0 0 0 0 0 0 0 
0 0 0 0 0 0 0 0 0 
0 0 0 0 0 0 0 0 0 
1 0 0 
plain_torsion_tp 1 120 unsigned_char
0 0 0 0 0 0 0 0 0 
0 0 0 0 0 0 0 0 0 
0 0 0 0 0 0 0 0 1 
0 0 0 0 0 0 0 0 0 
0 0 0 0 0 0 0 1 0 
0 0 0 0 0 0 0 0 0 
0 0 0 0 0 0 0 0 0 
0 0 0 0 0 0 0 0 0 
0 0 0 0 0 1 0 0 0 
0 0 0 0 0 0 0 0 0 
0 0 0 0 0 0 0 0 0 
0 0 0 0 0 0 0 0 0 
0 0 0 0 0 0 0 1 0 
0 0 0 
plain_torsion_tn 1 120 unsigned_char
0 0 0 0 0 0 0 0 0 
0 2 0 0 0 0 0 0 0 
0 0 0 0 0 0 0 0 0 
0 0 0 0 0 0 0 0 0 
0 2 0 0 0 0 0 0 0 
0 0 0 0 0 0 0 0 0 
2 0 0 0 0 0 0 0 0 
0 0 0 0 0 0 0 0 0 
0 0 0 0 0 0 0 0 0 
0 0 0 0 0 0 0 0 0 
0 0 0 0 0 2 0 0 0 
0 0 0 0 0 0 0 0 0 
0 0 0 0 0 0 0 0 0 
0 0 0 
plain_torsion_tz 1 120 unsigned_char
0 0 0 0 0 0 0 0 0 
0 0 3 0 0 0 0 0 0 
0 0 0 0 0 0 0 0 0 
0 0 0 0 0 0 0 0 3 
0 0 3 0 0 0 0 0 0 
0 0 0 0 0 0 0 0 0 
0 0 0 0 0 3 0 0 0 
0 0 0 0 0 0 0 0 0 
0 0 0 0 0 0 0 0 0 
0 0 0 0 0 3 0 0 0 
0 0 0 0 0 0 0 0 0 
0 0 0 3 0 0 0 0 0 
0 0 0 0 0 0 0 0 0 
0 0 0 
weighted_torsion_tp 1 120 unsigned_char
0 0 0 0 0 0 0 0 0 
0 0 0 0 0 0 0 0 0 
0 0 0 0 0 0 0 0 0 
0 0 1 0 0 0 0 0 0 
0 0 0 0 0 0 0 0 0 
0 0 0 1 0 0 0 0 0 
0 0 0 0 0 0 0 0 0 
0 0 0 0 0 0 0 0 0 
0 0 0 0 0 0 0 0 0 
0 1 0 0 0 0 0 0 0 
0 0 0 0 0 0 0 0 0 
0 0 0 0 0 0 0 0 0 
0 0 0 0 0 0 0 0 0 
1 0 0 
weighted_torsion_tn 1 120 unsigned_char
0 0 0 0 0 0 0 0 0 
0 0 0 2 0 0 0 0 0 
0 0 0 0 0 0 0 0 0 
0 0 0 0 0 0 0 0 0 
0 0 0 0 0 2 0 0 0 
0 0 0 0 0 0 0 0 0 
0 0 0 0 0 2 0 0 0 
0 0 0 0 0 0 0 0 0 
0 0 0 0 0 0 0 0 0 
0 0 0 0 0 0 0 0 0 
0 0 0 0 0 0 0 0 0 
0 2 0 0 0 0 0 0 0 
0 0 0 0 0 0 0 0 0 
0 0 0 
weighted_torsion_tz 1 120 unsigned_char
0 0 0 0 0 0 0 0 0 
0 0 0 0 3 0 0 0 0 
0 0 0 0 0 0 0 0 0 
0 0 0 0 0 0 0 0 0 
0 0 0 3 0 0 3 0 0 
0 0 0 0 0 0 0 0 0 
0 0 0 0 0 0 0 0 0 
0 0 3 0 0 0 0 0 0 
0 0 0 0 0 0 0 0 0 
0 0 0 0 0 0 0 0 0 
0 3 0 0 0 0 0 0 0 
0 0 0 0 0 0 0 0 3 
0 0 0 0 0 0 0 0 0 
0 0 0 
plain_torsion_tp_raw 1 120 unsigned_char
0 0 0 0 0 0 0 0 0 
0 0 0 0 0 0 0 0 0 
0 0 0 0 0 0 0 0 0 
0 0 0 1 0 0 0 0 0 
0 1 0 0 0 0 0 0 0 
0 0 0 0 0 0 0 0 0 
0 0 0 1 0 0 0 0 0 
0 0 0 0 0 0 0 0 0 
0 0 0 0 0 0 0 0 1 
0 0 0 0 0 0 0 0 0 
0 0 0 0 0 0 0 0 0 
0 0 0 0 0 0 0 0 0 
1 0 0 0 0 0 0 0 0 
1 0 0 
plain_torsion_tn_raw 1 120 unsigned_char
0 0 0 0 0 0 0 0 0 
0 0 0 0 0 0 0 0 0 
0 0 2 0 0 0 0 0 0 
0 0 0 0 0 0 0 0 0 
2 0 0 0 0 0 0 0 0 
0 0 0 0 2 0 0 0 0 
0 0 0 0 0 0 0 0 0 
0 2 0 0 0 0 0 0 0 
0 0 0 0 0 0 0 0 0 
0 0 0 0 0 0 0 0 0 
0 0 0 0 0 0 2 0 0 
0 0 0 0 0 0 0 0 0 
0 0 0 0 2 0 0 0 0 
0 0 0 
plain_torsion_tz_raw 1 120 unsigned_char
0 0 0 0 0 0 0 0 0 
0 3 0 0 0 0 0 0 0 
0 0 0 0 0 0 0 0 0 
3 0 0 0 0 3 0 0 0 
0 3 0 0 0 0 0 0 0 
0 0 0 0 0 0 0 0 0 
0 0 0 0 0 0 0 0 0 
0 0 0 0 0 0 0 0 0 
0 0 0 0 0 0 0 0 0 
0 0 0 0 0 0 0 0 0 
0 0 0 0 0 0 0 0 0 
0 0 0 0 0 0 0 0 0 
0 0 0 0 0 0 0 0 0 
0 0 0 
weighted_torsion_tp_raw 1 120 unsigned_char
0 0 0 0 0 0 0 0 0 
0 0 0 0 0 0 0 0 0 
0 0 0 0 0 0 0 0 0 
0 0 0 0 0 0 0 1 0 
0 0 0 0 0 1 0 0 0 
0 0 0 0 0 0 0 0 0 
0 0 0 0 0 0 0 0 1 
0 0 0 0 0 0 0 0 0 
0 0 0 0 0 0 0 0 0 
0 0 0 1 0 0 0 0 0 
0 0 0 0 0 0 0 0 0 
0 0 0 0 0 0 0 0 0 
0 0 0 0 1 0 0 0 0 
0 1 0 
weighted_torsion_tn_raw 1 120 unsigned_char
0 0 0 0 0 0 0 0 0 
0 0 0 0 0 0 0 0 0 
0 0 0 0 2 0 0 0 0 
0 0 0 0 0 0 0 0 0 
0 0 0 0 2 0 0 0 0 
0 0 0 0 0 0 0 0 0 
2 0 0 0 0 0 0 0 0 
0 0 0 0 0 0 2 0 0 
0 0 0 0 0 0 0 0 0 
0 0 0 0 0 0 0 0 0 
0 0 0 0 0 0 0 0 0 
0 0 2 0 0 0 0 0 0 
0 0 0 0 0 0 0 2 0 
0 0 0 
weighted_torsion_tz_raw 1 120 unsigned_char
0 0 0 0 0 0 0 0 0 
0 0 0 3 0 0 0 0 0 
0 0 0 0 0 0 0 0 0 
0 0 0 3 0 0 0 3 0 
0 0 0 0 0 3 0 0 0 
0 0 0 0 0 0 0 0 0 
0 0 0 0 0 0 0 0 0 
0 0 0 0 0 0 0 0 0 
0 0 0 0 0 0 0 0 0 
0 0 0 0 0 0 0 0 0 
0 0 0 0 0 0 0 0 0 
0 0 0 0 0 0 0 0 0 
0 0 0 0 0 0 0 0 0 
0 0 0 
