# vtk DataFile Version 5.1
vtk output
ASCII
DATASET POLYDATA
POINTS 120 float
-6.01598 15.7277 -4.68789 -6.33849 15.0954 -4.51716 -6.61775 14.4782 -4.35105 
-6.86754 13.8809 -4.19635 -7.10146 13.3086 -4.05938 -7.33253 12.7661 -3.94513 
-7.57224 12.2581 -3.85638 -7.82938 11.7886 -3.79377 -8.10851 11.3595 -3.75752 
-8.40849 10.9698 -3.75014 -8.72204 10.614 -3.77856 -9.0362 10.2832 -3.8539 
-9.33366 9.96583 -3.98903 -9.59487 9.65013 -4.19475 -9.80055 9.32696 -4.47668 
-9.93394 8.99174 -4.83395 -9.98308 8.64524 -5.25944 -9.94259 8.29294 -5.74088 
-9.81407 7.94293 -6.26268 -9.60507 7.60295 -6.80829 -9.32689 7.27772 -7.36253 
-8.99214 6.96762 -7.91339 -8.61243 6.66873 -8.45298 -8.1967 6.37425 -8.97734 
-7.75067 6.07638 -9.48506 -7.2776 5.76798 -9.97511 -6.78033 5.44369 -10.4442 
-6.2638 5.10043 -10.8845 -5.7371 4.73765 -11.2819 -5.21434 4.35777 -11.6158 
-4.7139 3.96659 -11.8604 -4.25649 3.57323 -11.9883 -3.86244 3.18888 -11.9755 
-3.54896 2.8262 -11.8066 -3.32797 2.49667 -11.479 -3.20503 2.20942 -11.0049 
-3.17954 1.96981 -10.4096 -3.24582 1.77951 -9.72825 -3.39474 1.63747 -9.00091 
-3.61532 1.54169 -8.26767 -3.89581 1.49145 -7.5642 -4.22423 1.48951 -6.91862 
-4.58848 1.54342 -6.34935 -4.97609 1.66568 -5.86397 -5.37398 1.8708 -5.45929 
-5.76814 2.17089 -5.12224 -6.14377 2.57053 -4.83193 -6.48574 3.06225 -4.563 
-6.7795 3.62469 -4.28962 -7.01199 4.22325 -3.98955 -7.17235 4.81399 -3.64725 
-7.25242 5.34853 -3.25566 -7.24712 5.78072 -2.81635 -7.15538 6.07299 -2.33831 
-6.98104 6.20141 -1.83582 -6.73365 6.15796 -1.3256 -6.42836 5.95003 -0.824293 
-6.0846 5.59737 -0.346637 -5.7236 5.12735 0.0953372 -5.36544 4.56969 0.492009 
-5.02651 3.95258 0.835589 -4.71788 3.29938 1.11945 -4.44467 2.62748 1.33799 
-4.20638 1.94839 1.48696 -3.9978 1.26839 1.56432 -3.8103 0.590479 1.57146 
-3.63345 -0.0848445 1.51415 -3.45667 -0.757834 1.40331 -3.27083 -1.42884 1.25499 
-3.06952 -2.09817 1.08947 -2.8496 -2.76535 0.929821 -2.61104 -3.42934 0.799812 
-2.35571 -4.08807 0.721423 -2.08589 -4.73832 0.712324 -1.80266 -5.37564 0.783615 
-1.50493 -5.99423 0.938586 -1.18914 -6.5874 1.17252 -0.849731 -7.14772 1.47365 
-0.480042 -7.66742 1.825 -0.0733587 -8.139 2.20677 0.375921 -8.555 2.59875 
0.871264 -8.90912 2.98277 1.41296 -9.19579 3.34469 1.99768 -9.4111 3.67581 
2.61856 -9.55261 3.97333 3.26607 -9.6202 4.23991 3.92946 -9.61556 4.48232 
4.59835 -9.54307 4.70954 5.26466 -9.41037 4.93087 5.92279 -9.22796 5.15445 
6.57046 -9.0089 5.38622 7.20801 -8.76736 5.62966 7.83701 -8.51646 5.88587 
8.4601 -8.26686 6.15404 9.07944 -8.02548 6.43198 9.69671 -7.79558 6.71722 
10.3133 -7.57801 7.0069 10.9309 -7.37271 7.29898 11.5512 -7.18041 7.59241 
12.1769 -7.00373 7.88751 12.8107 -6.84734 8.18573 13.4546 -6.71703 8.49053 
14.1084 -6.61935 8.80636 14.7688 -6.56051 9.13837 15.4277 -6.54567 9.4919 
16.0719 -6.57969 9.87123 16.6838 -6.66636 10.2786 17.2423 -6.80903 10.7134 
17.7252 -7.01046 11.172 18.1113 -7.27231 11.6479 18.3848 -7.59485 12.1325 
18.5368 -7.97672 12.6161 18.5678 -8.41431 13.0895 18.4872 -8.90132 13.5463 
18.3125 -9.42835 13.9826 18.0667 -9.98367 14.398 17.7765 -10.5534 14.7952 
17.4698 -11.1228 15.1783 17.1758 -11.6764 15.5523 16.9239 -12.1987 15.9226 

LINES 2 120
OFFSETS vtktypeint64
0 120 
CONNECTIVITY vtktypeint64
0 1 2 3 4 5 6 7 8 
9 10 11 12 13 14 15 16 17 
18 19 20 21 22 23 24 25 26 
27 28 29 30 31 32 33 34 35 
36 37 38 39 40 41 42 43 44 
45 46 47 48 49 50 51 52 53 
54 55 56 57 58 59 60 61 62 
63 64 65 66 67 68 69 70 71 
72 73 74 75 76 77 78 79 80 
81 82 83 84 85 86 87 88 89 
90 91 92 93 94 95 96 97 98 
99 100 101 102 103 104 105 106 107 
108 109 110 111 112 113 114 115 116 
117 118 119 
CELL_DATA 1
FIELD FieldData 2
Length 1 1 double
80.535414351 
Tortuosity 1 1 double
0.93574866474 
POINT_DATA 120
FIELD FieldData 19
Curvature 1 120 double
0 0.064066721803 0.041931603722 0.028270306076 0.049042429116 0.087625095738 0.130021012 0.16785532345 0.19287278294 
0.20746485045 0.23572579427 0.30115923997 0.38262751002 0.43081383089 0.41849006454 0.36067548191 0.28951136721 0.22681307895 
0.17837102229 0.14189061499 0.11333944333 0.090464521164 0.073255024879 0.062864565009 0.059291295025 0.061175551922 0.068365110381 
0.083176791944 0.11105513088 0.16221757312 0.25557800823 0.41688026168 0.63015961815 0.73774205526 0.60810690543 0.40158676859 
0.25707182281 0.17939678242 0.14449860947 0.13683526638 0.15019067482 0.18368605348 0.23702706265 0.29624690341 0.32546020555 
0.29673415921 0.23103451218 0.17362520203 0.15116669871 0.16882173909 0.22413426957 0.32405102829 0.47094461295 0.60864967689 
0.61356989651 0.47765509187 0.32560142346 0.22172240312 0.16340589731 0.13463495928 0.12483497131 0.12666934347 0.1347418703 
0.14308011991 0.14414809973 0.13283895892 0.1083735739 0.07565980567 0.043628317876 0.037731387601 0.067809299778 0.10629526326 
0.14217502355 0.16765248435 0.17685138213 0.16942581189 0.15221436348 0.1355344912 0.12784952346 0.13341285404 0.14796877123 
0.16527313087 0.17713920864 0.17964478796 0.17138667399 0.15697164282 0.1391744062 0.1192294694 0.098000086575 0.074945737717 
0.052055301495 0.034335878569 0.025519424016 0.025135516277 0.026112539857 0.025054438059 0.024302020421 0.026233788629 0.032521067799 
0.042498447564 0.053857701606 0.065688623639 0.076731971164 0.087731230515 0.10222554422 0.12189953538 0.15012784729 0.19035431399 
0.2420643578 0.29706202052 0.33420330737 0.3285877938 0.27919933921 0.20881811517 0.14194217723 0.085420365265 0.038085984598 
0.0081126837093 0.063106279432 0 
Torsion 1 120 double
0 0 -0.71698233174 -1.9825332855 -0.85702703276 -0.35642803564 -0.16147090968 0.027218923208 0.29856767505 
0.66247257465 0.872156504 0.70230690875 0.45708594058 0.29721616456 0.19711061157 0.12454368001 0.070902139334 0.04021700535 
0.038366298213 0.065982934458 0.12203672527 0.20457473146 0.29431939538 0.33715622583 0.29615309077 0.2189578049 0.15506186534 
0.10391490544 0.057169704978 0.01907181469 -0.001434190724 -0.011249266527 -0.0085318591762 -0.0012025201305 0.011009969826 0.034957454876 
0.066885880309 0.092172001982 0.084915218072 0.023849086446 -0.079221136716 -0.18705088114 -0.25669125206 -0.28652835435 -0.3128618529 
-0.37382468727 -0.4973750248 -0.66082389168 -0.6924237247 -0.50545112075 -0.30190050878 -0.16584127842 -0.087212503735 -0.049499885394 
-0.03799451371 -0.043181443457 -0.059830346137 -0.077979825541 -0.080865781068 -0.054895722788 -0.0022091664467 0.057263626129 0.10421116318 
0.13590185203 0.15953301123 0.18933157504 0.25331211255 0.43377629226 1.1407711096 1.5005178494 0.48307242638 0.18609659731 
0.067446347308 -0.0074580011964 -0.073900741779 -0.14992010193 -0.24463594258 -0.34191740442 -0.38424793126 -0.32562914662 -0.2154161666 
-0.11040432297 -0.025587983264 0.045748345697 0.11072423706 0.16724846891 0.20385217733 0.22696275886 0.24935802875 0.30093817608 
0.44443160394 0.7356073203 0.92817648858 0.61331904773 0.37927744972 0.30830273658 0.24632184446 0.13405991334 0.012731779771 
-0.086478701652 -0.13819821464 -0.15633794208 -0.17677764505 -0.17943088519 -0.15630431951 -0.11676077512 -0.072711862053 -0.033955407997 
-0.0034830648985 0.018410726733 0.033619602256 0.040109095177 0.041721304941 0.04256680563 0.037505194146 0.034535228978 0.080982423952 
1.8480708713 0 0 
FrenetTangent 3 120 double
-0.42165981987 -0.87549804668 0.23602153834 -0.42165981987 -0.87549804668 0.23602153834 -0.38814665007 -0.89103481902 0.23537019635 
-0.3724078926 -0.90049233081 0.2245571724 -0.37687250869 -0.90360930622 0.20361074113 -0.40274455702 -0.89868706467 0.17366168716 
-0.44886600356 -0.88307511582 0.13673935306 -0.51021322109 -0.85488903247 0.094059615043 -0.57687999628 -0.81567177529 0.043462913922 
-0.63529108746 -0.77196540856 -0.021786284155 -0.67062446539 -0.73346726725 -0.11085393222 -0.66792275999 -0.70784628 -0.22985393314 
-0.61355586157 -0.69528671274 -0.37433353018 -0.50231022888 -0.68733787123 -0.52464376937 -0.34659685146 -0.67301123303 -0.65339613006 
-0.17319366881 -0.64683515889 -0.7427033259 -0.0075547455023 -0.6103309805 -0.79211048476 0.13671228435 -0.56810284126 -0.81152258937 
0.25665332675 -0.52468787667 -0.81168448423 0.35441723043 -0.48392857545 -0.80012596548 0.43334983326 -0.44917657442 -0.78131192683 
0.49653753735 -0.42323410814 -0.75784125231 0.54672104479 -0.40783835657 -0.73127558013 0.58652604287 -0.40316939261 -0.70245401408 
0.61855488016 -0.40802074363 -0.67149753015 0.64520273736 -0.42068647778 -0.63775882206 0.66842254644 -0.44012817502 -0.59958192849 
0.68959893813 -0.46671497696 -0.5537422097 0.70952942936 -0.50210679554 -0.49442568172 0.72787438825 -0.54850071242 -0.41151651656 
0.74081801068 -0.6067784061 -0.28811220201 0.73470517975 -0.67107633651 -0.099321948396 0.67717168925 -0.71497710713 0.17391446048 
0.53148257354 -0.68833600829 0.49367986967 0.32192270923 -0.57731952028 0.75037853166 0.12354963893 -0.43855014576 0.89017372258 
-0.030266901398 -0.31898036784 0.94727791044 -0.14706782783 -0.22711873322 0.9626983614 -0.24225555732 -0.15592305784 0.95760129751 
-0.32780099077 -0.095523212867 0.93990522195 -0.4111409516 -0.035233118978 0.91089063297 -0.49497206299 0.037134621978 0.86811501353 
-0.57519575937 0.13477357323 0.80683698623 -0.63787819183 0.26585499089 0.72279494755 -0.66170576446 0.42207543968 0.6196755639 
-0.63367019877 0.57599902486 0.51641766289 -0.56341666085 0.69983822044 0.4390764529 -0.47259705348 0.78365827615 0.40315224328 
-0.37649903722 0.83062121676 0.41026438943 -0.27909175076 0.8448956592 0.45635416042 -0.17616376532 0.82450355313 0.53773619802 
-0.058553116785 0.75707200848 0.65070231788 0.082730692904 0.61764830155 0.78209092057 0.24196695466 0.38257364609 0.8916778556 
0.38328476653 0.077218774473 0.92039668003 0.4684729819 -0.21308189046 0.857396742 0.49869820926 -0.43072478353 0.75218100012 
0.49596479178 -0.57894740011 0.64717759018 0.47662663746 -0.68109813035 0.55581686308 0.44866581931 -0.75610844722 0.4764441191 
0.41569016199 -0.81545815794 0.4027774595 0.37980254614 -0.86498492553 0.32794985067 0.34315097088 -0.90634445042 0.24655049864 
0.30851434459 -0.93829741191 0.15625897093 0.27952100369 -0.958285961 0.059632419447 0.25981708208 -0.96499465214 -0.035782750123 
0.25186664064 -0.96032331041 -0.11975948738 0.2560909067 -0.94916840009 -0.18302129868 0.27073427723 -0.93730136405 -0.21947460918 
0.29281875369 -0.92906576301 -0.2260397874 0.31896513551 -0.92609624127 -0.20151177197 0.34605021991 -0.92678366101 -0.14601811871 
0.371628072 -0.92631498739 -0.061912197886 0.39427696387 -0.91792148721 0.044337558285 0.41433967043 -0.89570245148 0.16136838576 
0.43425799005 -0.85769760359 0.27527226316 0.45804191319 -0.8063975617 0.37405959183 0.48990692826 -0.74617477071 0.45079309357 
0.53285913372 -0.68035404012 0.50316947811 0.58799416587 -0.60971312199 0.53151930329 0.65378651557 -0.53301623736 0.53708182129 
0.72563185588 -0.448368208 0.52194287024 0.79627876789 -0.35485344567 0.48991749908 0.85765299214 -0.25384164754 0.44720885843 
0.90351910311 -0.14895158523 0.40182913729 0.93126566677 -0.04472047511 0.36158586394 0.94171742415 0.054522119812 0.3319572736 
0.93803623201 0.14415486336 0.31513077095 0.924718768 0.22000454562 0.31063354618 0.90679921815 0.27879547548 0.31620920417 
0.88905429291 0.31862209322 0.32872849886 0.87477508617 0.34011337395 0.34509627856 0.86542387069 0.34593752231 0.36244827866 
0.86086266815 0.3401971563 0.37839313078 0.85981883372 0.32768699218 0.39157733379 0.86110686318 0.31227621015 0.40122130895 
0.86400100722 0.29603045013 0.40726923788 0.86812294966 0.27884171557 0.41062128773 0.87343465366 0.25866151055 0.41256045465 
0.87981628716 0.23266895594 0.41447371183 0.88628550792 0.19886071559 0.41827313354 0.8910262818 0.15653126363 0.42611046532 
0.89186658374 0.10622277835 0.43964840289 0.88625202703 0.049499081258 0.46055095867 0.8715426864 -0.012826925202 0.4901518293 
0.8447095162 -0.081160811076 0.52903568498 0.80164168286 -0.15708295723 0.57679767409 0.73616892321 -0.24325171736 0.63157257581 
0.64007710371 -0.34124119899 0.68837180754 0.50603317528 -0.44833030115 0.73683808709 0.33483793482 -0.55436817987 0.76194453772 
0.14376124935 -0.64363241052 0.75171139629 -0.037785317765 -0.70446271564 0.70873447217 -0.1856482361 -0.7374213308 0.64941859637 
-0.29198217813 -0.75161794702 0.59145318442 -0.36031314075 -0.75621748108 0.54617722574 -0.39683491529 -0.75726535972 0.5187207582 
-0.40539131219 -0.75793863332 0.51106448921 -0.38505995177 -0.75897922041 0.52505178461 -0.38505995177 -0.75897922041 0.52505178461 

FrenetNormal 3 120 double
0.90662599612 -0.41144276546 0.093510180812 0.90662599612 -0.41144276546 0.093510180812 0.87772488096 -0.43527074269 -0.20034573593 
0.32160620295 -0.35218604341 -0.87893938417 -0.50701002106 0.017278628873 -0.86176695663 -0.71975412233 0.19373328385 -0.6666493967 
-0.77322300843 0.30712055016 -0.55480009634 -0.75922485496 0.39631898608 -0.51624498146 -0.68175167045 0.45149240648 -0.57564682466 
-0.50227231918 0.4344464332 -0.74764885746 -0.17671843188 0.30310612666 -0.93642793199 0.1915911262 0.13489761384 -0.97216021012 
0.48031148833 0.047669522969 -0.87580162752 0.69005157935 0.046986065657 -0.72223343005 0.83458443756 0.096711966575 -0.5423242684 
0.9176870693 0.16779315554 -0.36013316954 0.9500641008 0.24274264674 -0.19609745493 0.94830689815 0.31189968578 -0.058588505108 
0.92868182168 0.3665135348 0.056726562572 0.90414053172 0.39566175939 0.16118830928 0.88272020976 0.38633238789 0.26749264917 
0.8643588522 0.32113786804 0.38698093537 0.83374977081 0.18465565364 0.52034950682 0.76436387141 -0.011269229065 0.6446866499 
0.65339563937 -0.20756750448 0.72800403126 0.53279023849 -0.35053529414 0.77023345119 0.42277192659 -0.4384120283 0.7931322661 
0.32396998234 -0.48504301813 0.81226641018 0.23462697676 -0.49327003591 0.83763646855 0.14659749226 -0.46178244153 0.87479491995 
0.042282078305 -0.38595056992 0.92154998965 -0.10353321046 -0.2556140623 0.96121918701 -0.2999945824 -0.052441679346 0.95249835737 
-0.51400646558 0.20117431713 0.8338622473 -0.66687138415 0.4243253624 0.61256064501 -0.73921919678 0.55778770101 0.37739615753 
-0.77034017417 0.61133224364 0.18124266592 -0.79167603229 0.61050470474 0.023088208769 -0.80722646562 0.57994227178 -0.10978339858 
-0.80162702842 0.55459050899 -0.22321172603 -0.755783552 0.57185877253 -0.31901217345 -0.65469525852 0.64094497849 -0.40070394684 
-0.48719445254 0.73587620025 -0.47024226025 -0.26053450829 0.80869922207 -0.52737779458 0.0075745027678 0.83021562705 -0.55739092163 
0.29354198286 0.79665163661 -0.52837418009 0.57672205868 0.71370198835 -0.39751872769 0.82156909044 0.55729448377 -0.12019603984 
0.92104883282 0.28800626769 0.2621477395 0.83769509846 -0.018110602491 0.54583782216 0.71240780181 -0.27019086903 0.64766659495 
0.6244161285 -0.48079690161 0.61558008242 0.55962445115 -0.67815485944 0.47636798832 0.47653553143 -0.84737257739 0.23425115235 
0.34843986101 -0.93495767411 -0.066661914727 0.19509308518 -0.92157087922 -0.33562747606 0.048563387634 -0.85254428355 -0.52039392961 
-0.082715858732 -0.77341196976 -0.62848389936 -0.20056865114 -0.6998271407 -0.68557580858 -0.29753852224 -0.62907796317 -0.71814465398 
-0.36059275546 -0.55432671962 -0.75012982385 -0.38100418206 -0.46931725937 -0.7966034919 -0.36297124055 -0.37005358992 -0.8551679479 
-0.31570561009 -0.25596415742 -0.91368064326 -0.24467408567 -0.1311509213 -0.96069455481 -0.15143218509 -0.0041190743008 -0.9884590667 
-0.020761999032 0.11835851085 -0.99275384779 0.18948594358 0.23495355254 -0.95335822508 0.61628045299 0.34390163363 -0.70847023202 
0.92151969349 0.21114674578 0.32591180748 0.55920010425 0.012227300136 0.82894254116 0.35212339454 -0.015962653106 0.93581745481 
0.23952790456 0.031238308639 0.97038680484 0.17709905415 0.12323424836 0.97644725667 0.15375437929 0.24364435133 0.95759961409 
0.17365710609 0.3795708041 0.90871844604 0.24763608642 0.51989261217 0.81755002325 0.37720524708 0.6476228621 0.66204292162 
0.5273507253 0.73202283883 0.43132792162 0.63096650229 0.75690058426 0.17024329219 0.65702721154 0.75196444277 -0.053523080118 
0.61930436153 0.75614780121 -0.21142991866 0.54078409789 0.78050891832 -0.31362140854 0.43398936965 0.82379995483 -0.36470105765 
0.30878469906 0.87646033261 -0.36941750769 0.17045498463 0.93060547629 -0.32391132385 0.027095895927 0.97127928019 -0.23639452677 
-0.11113391715 0.98647889026 -0.12045186392 -0.23757435522 0.97117560196 0.019400409631 -0.34689201574 0.91969730105 0.18390977095 
-0.4374672119 0.80291179538 0.40491367889 -0.48056813969 0.51814015959 0.70752034468 -0.36312742866 -0.06537570419 0.9294431063 
-0.13309267837 -0.56721078864 0.81274735325 0.017377971801 -0.7852337293 0.61895556906 0.12591846052 -0.89555043188 0.42677156097 
0.20357188998 -0.94522001234 0.25518153122 0.2511723252 -0.96033497725 0.12111645024 0.25336002209 -0.96493716153 0.068592809428 
0.22315308429 -0.97211961017 0.072015029694 0.15476282039 -0.97837544588 0.13722228803 0.068959694304 -0.9744484797 0.21376323576 
-0.03193298815 -0.95481786139 0.2954710406 -0.14775074339 -0.91212642445 0.38235468305 -0.26381209076 -0.85489741172 0.44671422208 
-0.37726942612 -0.79141242532 0.48097209187 -0.48466132882 -0.73561835095 0.47325367204 -0.59155464442 -0.68463773157 0.42583362852 
-0.69838918784 -0.63185872517 0.33616527741 -0.79943526289 -0.56449034616 0.20555755772 -0.87919125297 -0.4747032722 0.040982240732 
-0.92035274954 -0.36613006513 -0.13747578629 -0.92034530694 -0.25175558174 -0.29930526734 -0.88995534853 -0.15398700969 -0.42926387977 
-0.84901653758 -0.081036920709 -0.52211486897 -0.81181810696 -0.034199616196 -0.58290800944 -0.78064337465 -0.018824017249 -0.62469318708 
0.87565013267 -0.16144234448 0.455162844 0.81796054183 -0.017194118372 0.57501731653 0.81796054183 -0.017194118372 0.57501731653 

FrenetBinormal 3 120 double
0.015241373799 0.2534127483 0.96723817104 0.015241373799 0.2534127483 0.96723817104 0.28096478673 0.12882675131 0.9510323111 
0.87056407677 -0.25510498422 0.42076078153 0.77518252737 -0.42800896099 -0.46465081358 0.56546514055 -0.39348313119 -0.72485874506 
0.44793469399 -0.35476091596 -0.82066997169 0.40405456145 -0.33480741245 -0.85126018815 0.44991569181 -0.36171005224 -0.81654253311 
0.58662402916 -0.46403200823 -0.66373680308 0.72043974228 -0.6084015482 -0.33288756945 0.71914673541 -0.69336590461 0.045515879406 
0.62677753543 -0.71714991715 0.30470628058 0.52106933494 -0.72481650119 0.45069700219 0.42818154927 -0.73328212561 0.52816463828 
0.35756733062 -0.7439420234 0.56453154907 0.31196334752 -0.7540372018 0.57801969525 0.28639793685 -0.76156270113 0.58137636176 
0.26772960979 -0.76835568644 0.58133501112 0.23857561835 -0.78055423003 0.57776878447 0.18169467054 -0.80559772285 0.56391431586 
0.079587993028 -0.84719735565 0.52528315407 -0.077184317461 -0.89418687336 0.4409902682 -0.26783404025 -0.91505597935 0.30155842144 
-0.4364218128 -0.88906400436 0.1382070818 -0.54758377394 -0.83674840602 -0.0020286824941 -0.61194378623 -0.78363389603 -0.10697064784 
-0.64768569157 -0.73953390784 -0.18328350741 -0.66446833683 -0.71033332848 -0.23218180765 -0.66985673856 -0.69706810655 -0.25571078319 
-0.67037370243 -0.69488281276 -0.26026328135 -0.67043953731 -0.69592959538 -0.25727966317 -0.67189415373 -0.69717831761 -0.25000127926 
-0.67329312143 -0.69693789811 -0.24688851495 -0.67204786011 -0.69760315246 -0.24839789733 -0.66203509411 -0.70466066319 -0.25527021744 
-0.63691438258 -0.72424057662 -0.26422652486 -0.59297564361 -0.75874968633 -0.26959005838 -0.53823570873 -0.79959674926 -0.26635945715 
-0.49994061423 -0.82662245502 -0.2583693076 -0.50966100542 -0.81959512664 -0.26174317173 -0.57129394827 -0.76668804242 -0.29293799733 
-0.65710836535 -0.66356785777 -0.35761193258 -0.72472973057 -0.52471582027 -0.44658719818 -0.74972535518 -0.36413505162 -0.55255547775 
-0.71574798881 -0.18322470697 -0.67389429681 -0.59156853645 0.029256401654 -0.80572373035 -0.31886714268 0.27441312756 -0.9072051481 
0.099586758787 0.47657190857 -0.87347678472 0.46944085536 0.53462447676 -0.70271043266 0.67929481944 0.49718284882 -0.53978492303 
0.77889410769 0.44235315459 -0.4445758154 0.82460663721 0.39826694842 -0.40175531318 0.84520168015 0.36823514283 -0.38734609776 
0.85538438787 0.34625338769 -0.38526113288 0.86166800645 0.32450458014 -0.39016025441 0.86541417452 0.29604797828 -0.40424485289 
0.86439401434 0.25817403615 -0.4314732379 0.85592012749 0.21528425386 -0.47016319017 0.84271573521 0.18044648044 -0.50721716979 
0.83496979223 0.16658295403 -0.52447646801 0.84296253725 0.17760176988 -0.5078107641 0.86631362087 0.20396097124 -0.45596121819 
0.89730087871 0.23255175107 -0.37519437114 0.92844095143 0.2539437985 -0.27112717847 0.95371032142 0.2622372105 -0.14720145464 
0.96753921612 0.25252802299 0.0098723288782 0.94789900553 0.2094664088 0.24002353821 0.7395277915 0.056549264643 0.67074646944 
-0.25506593656 -0.30373320488 0.91798012411 -0.76521662667 -0.37708917386 0.52177319711 -0.86963116337 -0.37525623166 0.3208183291 
-0.89694980854 -0.3754526764 0.2334873203 -0.90176582369 -0.3771385201 0.21115145245 -0.89704081755 -0.37196041251 0.23866969469 
-0.88389094779 -0.3468152613 0.31377693821 -0.85374116362 -0.28184152337 0.43782574301 -0.78594363871 -0.15429789387 0.59873596578 
-0.66178724386 0.035509766564 0.74885025228 -0.50610684038 0.23526881311 0.82976168368 -0.37533776169 0.38787003947 0.84183038501 
-0.29986749994 0.47666178027 0.8263613191 -0.27109533981 0.51466966155 0.81340178031 -0.27583432004 0.50687084389 0.81669907279 
-0.29716197594 0.45785446445 0.83789262405 -0.32200831684 0.36328160786 0.87426375727 -0.33531195247 0.23161152457 0.91319329619 
-0.3282335752 0.077966495576 0.94137343583 -0.2974115429 -0.091738487337 0.95033174423 -0.23954353961 -0.27645968474 0.930692718 
-0.13492554527 -0.50379818435 0.85321889728 0.061828890723 -0.78476344709 0.61670375416 0.34522455678 -0.93597716209 0.069041707987 
0.4911230045 -0.75002521031 -0.4430128422 0.51030341884 -0.52538483565 -0.68085328463 0.49258452217 -0.31697475062 -0.81048596286 
0.4605005376 -0.13756853151 -0.87693452093 0.42810630378 -0.0020072664185 -0.90372615518 0.41583723377 0.044614989159 -0.90834404151 
0.41967368494 0.029131091105 -0.90720746123 0.43651628592 -0.0568849954 -0.89789622419 0.44868332453 -0.16108421372 -0.87905355376 
0.45116990267 -0.27756003481 -0.84817813341 0.43900690473 -0.40690935941 -0.80106036653 0.4132995603 -0.51863849204 -0.74846348476 
0.37964932945 -0.6058706923 -0.69913309953 0.34996286752 -0.65893139726 -0.66583436759 0.32881365418 -0.68709517427 -0.6479057048 
0.32024029044 -0.69592312473 -0.64275746658 0.32378030509 -0.6930732935 -0.64406189445 0.33897831509 -0.68361738166 -0.64634431798 
0.3637080142 -0.67207595965 -0.6450041743 0.38927726077 -0.66358978996 -0.63883628959 0.41655036918 -0.65764563537 -0.62768464073 
0.44036045073 -0.65460177146 -0.61447473035 0.45948427809 -0.65342597711 -0.60158847281 0.48282291952 -0.65283599116 -0.58368415863 
-0.2624780546 0.63203275037 0.72913638869 -0.42739839209 0.6508877824 0.62743582075 -0.42739839209 0.6508877824 0.62743582075 

plain_curvature_peaks 1 120 unsigned_char
0 0 0 0 0 0 0 0 0 
0 0 0 0 0 0 0 0 1 
0 0 0 0 0 0 0 0 0 
0 0 0 0 0 1 0 0 0 
0 0 0 0 0 0 0 0 0 
0 0 0 0 0 0 0 0 0 
0 0 0 0 0 0 0 0 0 
0 1 0 0 0 0 0 0 0 
0 0 0 0 0 0 0 0 0 
0 0 0 0 0 0 0 0 0 
0 0 0 0 0 0 0 0 0 
0 0 0 0 0 1 0 0 0 
0 0 0 0 0 0 0 0 0 
0 0 0 
weighted_curvature_peaks 1 120 unsigned_char
0 0 0 0 0 0 0 0 0 
0 0 0 0 0 0 0 0 0 
0 0 1 0 0 0 0 0 0 
0 0 0 0 0 0 0 0 1 
0 0 0 0 0 0 0 0 0 
0 0 0 0 0 0 0 0 0 
0 0 0 0 0 0 0 0 0 
0 0 0 0 0 0 1 0 0 
0 0 0 0 0 0 0 0 0 
0 0 0 0 0 0 0 0 0 
0 0 0 0 0 0 0 0 0 
0 0 0 0 0 0 0 0 0 
0 1 0 0 0 0 0 0 0 
0 0 0 
plain_torsion_tp 1 120 unsigned_char
0 0 0 0 0 0 0 0 0 
0 0 0 0 0 0 0 0 1 
0 0 0 0 0 0 0 0 0 
0 0 0 0 0 1 0 0 0 
0 0 0 0 0 0 0 0 0 
0 0 0 0 0 0 0 0 0 
0 0 0 0 0 0 0 0 0 
0 1 0 0 0 0 0 0 0 
0 0 0 0 0 0 0 0 0 
0 0 0 0 0 0 0 0 0 
0 0 0 0 0 0 0 0 0 
0 0 0 0 0 1 0 0 0 
0 0 0 0 0 0 0 0 0 
0 0 0 
plain_torsion_tn 1 120 unsigned_char
0 0 2 0 0 0 0 0 0 
0 0 0 0 0 0 0 0 0 
0 0 0 0 0 0 2 0 0 
0 0 0 0 0 0 0 0 0 
0 0 0 0 0 0 0 0 2 
0 0 0 0 0 0 0 0 0 
0 0 0 0 0 0 0 0 0 
0 0 0 0 0 0 0 0 0 
0 0 0 0 0 0 0 0 0 
0 2 0 0 0 0 0 0 0 
0 0 0 0 0 0 0 0 0 
0 0 0 0 0 0 0 0 0 
0 0 0 0 0 0 0 0 0 
0 0 0 
plain_torsion_tz 1 120 unsigned_char
0 0 0 3 0 0 0 0 0 
0 0 0 0 0 0 0 0 0 
0 0 0 0 3 0 0 0 3 
0 0 0 0 0 0 0 0 0 
0 0 0 0 0 0 0 0 0 
0 0 0 0 3 0 0 0 0 
0 0 0 0 0 0 0 0 0 
0 0 0 0 0 0 0 0 0 
0 0 3 0 0 0 0 0 0 
0 0 0 0 0 0 0 3 0 
0 0 0 0 0 0 0 0 0 
0 0 0 0 0 0 0 0 0 
0 0 0 0 0 0 0 0 0 
0 0 0 
weighted_torsion_tp 1 120 unsigned_char
0 0 0 0 0 0 0 0 0 
0 0 0 0 0 0 0 0 0 
0 0 1 0 0 0 0 0 0 
0 0 0 0 0 0 0 0 1 
0 0 0 0 0 0 0 0 0 
0 0 0 0 0 0 0 0 0 
0 0 0 0 0 0 0 0 0 
0 0 0 0 0 0 1 0 0 
0 0 0 0 0 0 0 0 0 
0 0 0 0 0 0 0 0 0 
0 0 0 0 0 0 0 0 0 
0 0 0 0 0 0 0 0 0 
0 1 0 0 0 0 0 0 0 
0 0 0 
weighted_torsion_tn 1 120 unsigned_char
0 0 0 0 0 2 0 0 0 
0 0 0 0 0 0 0 0 0 
0 0 0 0 0 0 0 0 2 
0 0 0 0 0 0 0 0 0 
0 0 0 0 0 0 0 0 0 
0 0 0 2 0 0 0 0 0 
0 0 0 0 0 0 0 0 0 
0 0 0 0 0 0 0 0 0 
0 0 0 0 0 0 0 0 0 
0 0 0 0 0 0 2 0 0 
0 0 0 0 0 0 0 0 0 
0 0 0 0 0 0 0 0 0 
0 0 0 0 0 0 0 0 0 
0 0 0 
weighted_torsion_tz 1 120 unsigned_char
0 0 0 0 0 0 3 0 0 
0 0 0 0 0 0 0 0 0 
0 0 0 0 0 0 0 3 0 
0 0 3 0 0 0 0 0 0 
0 0 0 0 0 0 0 0 0 
0 0 0 0 0 0 0 0 3 
0 0 0 0 0 0 0 0 0 
0 0 0 0 0 0 0 0 0 
0 0 0 0 0 0 0 3 0 
0 0 0 0 0 0 0 0 0 
0 0 0 0 3 0 0 0 0 
0 0 0 0 0 0 0 0 0 
0 0 0 0 0 0 0 0 0 
0 0 0 
plain_torsion_tp_raw 1 120 unsigned_char
0 0 0 0 0 0 0 0 0 
0 0 0 0 0 0 0 0 0 
0 0 1 0 0 0 0 1 0 
0 0 0 0 0 0 0 0 0 
0 0 0 0 0 0 0 0 0 
0 0 1 0 0 0 0 0 0 
0 0 0 0 0 0 0 0 0 
0 0 0 0 0 1 0 0 0 
0 0 0 0 0 0 0 0 0 
0 0 0 0 0 0 0 0 0 
0 0 0 0 1 0 0 0 0 
0 0 0 0 0 0 0 0 1 
0 0 0 0 0 0 0 0 0 
0 0 0 
plain_torsion_tn_raw 1 120 unsigned_char
0 0 0 0 0 0 0 0 0 
0 0 0 0 2 0 0 0 0 
0 0 0 0 0 2 0 0 0 
0 0 0 0 0 0 0 0 0 
0 0 0 0 2 0 0 0 0 
0 0 0 0 0 0 0 0 2 
0 0 0 0 0 0 0 0 0 
0 0 0 0 0 0 0 0 0 
0 0 0 0 0 0 0 0 0 
0 0 2 0 0 0 0 0 0 
0 0 0 0 0 0 0 0 0 
0 2 0 0 0 0 0 0 0 
0 0 0 0 0 0 0 0 0 
0 0 0 
plain_torsion_tz_raw 1 120 unsigned_char
0 0 3 0 0 0 0 0 0 
0 0 0 0 0 0 0 0 0 
3 0 0 3 0 0 3 0 0 
0 0 0 0 0 0 0 0 0 
0 0 0 0 0 0 0 0 0 
0 0 0 0 0 0 0 0 0 
0 0 0 0 0 0 0 0 0 
0 0 0 0 0 0 0 0 0 
0 0 0 0 0 0 0 0 0 
0 0 0 0 0 0 0 0 0 
0 0 0 0 0 0 0 0 0 
0 0 0 0 0 0 0 0 0 
0 0 0 0 0 0 0 0 0 
0 0 0 
weighted_torsion_tp_raw 1 120 unsigned_char
0 0 0 0 0 0 0 0 0 
0 0 0 0 0 0 0 0 0 
0 0 0 0 0 1 0 0 0 
1 0 0 0 0 0 0 0 0 
0 0 0 0 0 0 0 0 0 
0 0 0 0 0 0 1 0 0 
0 0 0 0 0 0 0 0 0 
0 0 0 0 0 0 0 0 0 
0 1 0 0 0 0 0 0 0 
0 0 0 0 0 0 0 0 0 
0 0 0 0 0 0 0 0 1 
0 0 0 0 0 0 0 0 0 
0 0 0 0 1 0 0 0 0 
0 0 0 
weighted_torsion_tn_raw 1 120 unsigned_char
0 0 0 0 0 0 0 0 0 
0 0 0 0 0 0 0 2 0 
0 0 0 0 0 0 0 2 0 
0 0 0 0 0 0 0 0 0 
0 0 0 0 0 0 0 0 2 
0 0 0 0 0 0 0 0 0 
0 0 0 0 2 0 0 0 0 
0 0 0 0 0 0 0 0 0 
0 0 0 0 0 0 0 0 0 
0 0 0 0 0 0 0 2 0 
0 0 0 0 0 0 0 0 0 
0 0 0 0 0 2 0 0 0 
0 0 0 0 0 0 0 0 0 
0 0 0 
weighted_torsion_tz_raw 1 120 unsigned_char
0 0 0 0 0 3 0 0 0 
0 0 0 0 0 0 0 0 0 
0 0 0 3 0 0 3 0 3 
0 0 0 0 0 0 0 0 0 
0 0 0 0 0 0 0 0 0 
0 0 0 0 0 0 0 0 0 
0 0 0 0 0 0 0 0 0 
0 0 0 0 0 0 0 0 0 
0 0 0 0 0 0 0 0 0 
0 0 0 0 0 0 0 0 0 
0 0 0 0 0 0 0 0 0 
0 0 0 0 0 0 0 0 0 
0 0 0 0 0 0 0 0 0 
0 0 0 
