# vtk DataFile Version 5.1
vtk output
ASCII
DATASET POLYDATA
POINTS 120 float
-2.3992 16.7965 -7.45561 -2.92567 16.3803 -7.55608 -3.39601 15.9343 -7.51514 
-3.82032 15.4697 -7.36714 -4.20874 14.9976 -7.14667 -4.57159 14.5289 -6.88875 
-4.91912 14.074 -6.62886 -5.26116 13.6419 -6.40209 -5.60582 13.2397 -6.24122 
-5.95789 12.8705 -6.17358 -6.31703 12.5331 -6.21761 -6.67692 12.2218 -6.38035 
-7.02552 11.9265 -6.65673 -7.34652 11.6351 -7.0305 -7.62198 11.3351 -7.4773 
-7.83534 11.0161 -7.96873 -7.97374 10.6715 -8.47652 -8.0297 10.299 -8.97627 
-8.0015 9.90056 -9.45028 -7.89269 9.48224 -9.88923 -7.71068 9.05275 -10.2925 
-7.46501 8.6222 -10.6669 -7.16563 8.20053 -11.0244 -6.82169 7.7959 -11.3786 
-6.441 7.41335 -11.7406 -6.03049 7.05407 -12.1158 -5.5972 6.7156 -12.5004 
-5.14945 6.39287 -12.8814 -4.69789 6.08066 -13.2367 -4.25585 5.77561 -13.5387 
-3.83919 5.47784 -13.7585 -3.46511 5.19111 -13.8716 -3.15046 4.92198 -13.8622 
-2.90925 4.67779 -13.7262 -2.75028 4.46414 -13.4714 -2.67528 4.28328 -13.1152 
-2.67865 4.13371 -12.6811 -2.74915 4.01054 -12.1931 -2.87262 3.90788 -11.6723 
-3.03474 3.8207 -11.1338 -3.22267 3.74658 -10.586 -3.42558 3.68598 -10.0311 
-3.63455 3.64065 -9.46809 -3.84253 3.61157 -8.89505 -4.04449 3.59636 -8.31249 
-4.2374 3.58742 -7.72502 -4.4201 3.57188 -7.14169 -4.5933 3.53281 -6.57493 
-4.75907 3.4521 -6.03813 -4.92011 3.31397 -5.54254 -5.0784 3.1087 -5.09413 
-5.23396 2.83473 -4.69134 -5.3838 2.49962 -4.32469 -5.52185 2.11776 -3.97856 
-5.6399 1.70705 -3.63469 -5.72941 1.28428 -3.27643 -5.78345 0.862034 -2.89242 
-5.79835 0.446298 -2.47837 -5.77439 0.0377566 -2.03711 -5.71555 -0.367248 -1.5768 
-5.62829 -0.773903 -1.10868 -5.51965 -1.18658 -0.644784 -5.39534 -1.60836 -0.19646 
-5.25817 -2.04024 0.226681 -5.1072 -2.48187 0.617357 -4.93794 -2.93138 0.971168 
-4.74373 -3.38588 1.28736 -4.51751 -3.84143 1.56948 -4.25372 -4.29252 1.82541 
-3.94948 -4.73237 2.06636 -3.6049 -5.1538 2.30488 -3.22246 -5.5494 2.55214 
-2.80616 -5.91308 2.81606 -2.36045 -6.2402 3.09962 -1.88955 -6.52779 3.40144 
-1.39708 -6.77402 3.71674 -0.886248 -6.97803 4.0394 -0.360249 -7.13982 4.36373 
0.177294 -7.25969 4.68576 0.722135 -7.33822 5.00411 1.26948 -7.37662 5.31976 
1.81439 -7.37673 5.63517 2.35221 -7.34173 5.95414 2.8791 -7.2767 6.28024 
3.39244 -7.18857 6.61645 3.89112 -7.08595 6.9648 4.37573 -6.97757 7.3258 
4.84861 -6.87101 7.69771 5.31363 -6.77059 8.07705 5.77591 -6.67702 8.45851 
6.24114 -6.58743 8.83587 6.71471 -6.49729 9.20328 7.20134 -6.40315 9.5564 
7.70383 -6.30441 9.89417 8.22287 -6.20496 10.2186 8.75696 -6.11292 10.5347 
9.30242 -6.03957 10.8494 9.85311 -5.99801 11.1698 10.4012 -6.00098 11.5012 
10.9368 -6.05934 11.8453 11.4483 -6.18094 12.1996 11.9229 -6.37028 12.5575 
12.3463 -6.62854 12.9093 12.7048 -6.95419 13.245 12.9864 -7.34272 13.5563 
13.1846 -7.78645 13.8393 13.299 -8.27421 14.0957 13.3372 -8.79124 14.3329 
13.3135 -9.32053 14.5631 13.2464 -9.84504 14.8004 13.1546 -10.3496 15.0583 
13.0536 -10.8248 15.3456 12.9526 -11.2679 15.6651 12.8534 -11.6841 16.0119 
12.7519 -12.0852 16.3749 12.6386 -12.4882 16.7377 12.5015 -12.9127 17.0814 
12.3269 -13.3795 17.3856 12.1011 -13.91 17.6295 11.81 -14.5255 17.7925 

LINES 2 120
OFFSETS vtktypeint64
0 120 
CONNECTIVITY vtktypeint64
0 1 2 3 4 5 6 7 8 
9 10 11 12 13 14 15 16 17 
18 19 20 21 22 23 24 25 26 
27 28 29 30 31 32 33 34 35 
36 37 38 39 40 41 42 43 44 
45 46 47 48 49 50 51 52 53 
54 55 56 57 58 59 60 61 62 
63 64 65 66 67 68 69 70 71 
72 73 74 75 76 77 78 79 80 
81 82 83 84 85 86 87 88 89 
90 91 92 93 94 95 96 97 98 
99 100 101 102 103 104 105 106 107 
108 109 110 111 112 113 114 115 116 
117 118 119 
CELL_DATA 1
FIELD FieldData 2
Length 1 1 double
70.420118959 
Tortuosity 1 1 double
0.65047554615 
POINT_DATA 120
FIELD FieldData 19
Curvature 1 120 double
0 0.34999475903 0.28336291897 0.19393443681 0.10805328068 0.026353765153 0.063906877547 0.17837715149 0.32231920447 
0.45600945768 0.49466520231 0.41826474636 0.30852121263 0.23304010454 0.20364861101 0.20658494871 0.2229866038 0.23721979161 
0.23709871305 0.21737007602 0.18264725165 0.14498640735 0.11685349223 0.1014479702 0.08866993689 0.069879447097 0.048213166776 
0.051220943855 0.098085894223 0.18403163386 0.33391138971 0.59491701899 0.95509428355 1.1308315102 0.89342300693 0.55363003048 
0.32512112967 0.19649201706 0.12356264774 0.079934409655 0.054477838996 0.045641079371 0.047189077071 0.044256245668 0.031324186617 
0.028581429785 0.068053359944 0.13263492811 0.21257694586 0.28570030309 0.31252399173 0.26835719771 0.18204927084 0.1088732319 
0.10289835506 0.13120447292 0.14248121777 0.12931378002 0.10075826645 0.071825233309 0.056314887781 0.06010763405 0.074372170426 
0.092311311623 0.11059075745 0.12685587803 0.13640981488 0.13616907725 0.13003465855 0.12563481741 0.12793731519 0.13155561166 
0.13184982853 0.12745822758 0.12104566824 0.11512285016 0.11028884563 0.1069624858 0.1038465647 0.099972388639 0.095970119499 
0.090993266398 0.083521482799 0.073726932902 0.062078721079 0.051614436797 0.042280176621 0.032777186011 0.020161263705 0.017308786701 
0.035381503172 0.053190504171 0.058981067476 0.053201349219 0.044234164967 0.052592235199 0.080126760035 0.11235638174 0.14240359888 
0.16877796911 0.19439268443 0.22393056823 0.26143471934 0.3010758978 0.32460218773 0.31311033276 0.26166308729 0.19200031223 
0.13232046547 0.11236410682 0.12830887961 0.14225595734 0.12473096569 0.073411024879 0.037085482574 0.11655514505 0.20021535308 
0.25430229577 0.25715305234 0 
Torsion 1 120 double
0 0 0.0077715715452 0.014085739618 0.030030539073 0.30163116614 0.11888711371 0.081031742855 0.099101709067 
0.13026057794 0.18546462349 0.28771793698 0.43964815066 0.55938101373 0.51826904872 0.35717048291 0.20508335882 0.092172304308 
-0.0013992186032 -0.10170095026 -0.23470419067 -0.40312392333 -0.50897183103 -0.41125624978 -0.17904898888 0.16436198787 0.96284063634 
1.2082709365 0.41578413589 0.15624555332 0.075926442892 0.051467910688 0.047764830733 0.053494875427 0.070651935152 0.096050791101 
0.11678061721 0.1023395717 0.013478451769 -0.24330134824 -0.68417049113 -0.83574484652 -0.56564120188 -0.51585572667 -1.1981459654 
-2.1269944766 -0.56627835085 -0.2054853668 -0.084079769299 -0.013552397406 0.057920426518 0.18793401477 0.532368369 1.3880125507 
1.1194886272 0.35459474178 0.059488131624 -0.1079796595 -0.30337061719 -0.60667890265 -0.85091819895 -0.54766746936 -0.15850792916 
0.078671102951 0.20938306247 0.28273063914 0.35078352519 0.44102935958 0.52834645898 0.53482856238 0.41401681335 0.24619876898 
0.098640445355 -0.013612083755 -0.090594847785 -0.11516397643 -0.088546833794 -0.018503088695 0.069843912692 0.14783629295 0.21525705126 
0.26584485724 0.30967872004 0.38792407723 0.50451367233 0.60532378543 0.64940008306 0.70613363165 1.4523922006 2.0250854495 
0.45144039422 0.079069998667 -0.14361915481 -0.4941690536 -1.0817003925 -0.9112207156 -0.38802502251 -0.1601379786 -0.056799520566 
-0.0067392846233 0.018023584986 0.020073431487 0.0023134765974 -0.025558913929 -0.062380279131 -0.11536679265 -0.21662028552 -0.43742355332 
-0.88296248428 -1.044213989 -0.56768431699 -0.21489849654 0.028756819161 0.69011581444 3.7819007697 0.38607703535 0.11227971893 
0.04965808323 0 0 
FrenetTangent 3 120 double
-0.75555093433 -0.65353399188 -0.045123243298 -0.75555093433 -0.65353399188 -0.045123243298 -0.69328964678 -0.70562901084 0.14641435971 
-0.6282151971 -0.72403463855 0.28481486673 -0.57989797077 -0.72619690517 0.3692646726 -0.55712664492 -0.72435618495 0.40610099586 
-0.5632190974 -0.72442070038 0.39749075107 -0.59817130717 -0.72675404492 0.3376679515 -0.65460591218 -0.72484440544 0.21468974739 
-0.70924551688 -0.70456827194 0.023544573926 -0.72614302368 -0.65506670653 -0.20881551465 -0.68725532685 -0.58841587625 -0.42596581118 
-0.607402736 -0.53221385608 -0.58975446391 -0.50793921827 -0.50369218255 -0.69877888905 -0.39880348138 -0.50499551618 -0.76546411534 
-0.28141086653 -0.53084364164 -0.79938285716 -0.15525640455 -0.57285441701 -0.80481877821 -0.022346132722 -0.62057911573 -0.78382537052 
0.1111539185 -0.66260311311 -0.74067666421 0.2364602956 -0.68933112809 -0.68476939509 0.34606012718 -0.69590836643 -0.62924870593 
0.43651803558 -0.68252120136 -0.58618837784 0.50808646505 -0.65260513993 -0.56209845701 0.5628084809 -0.61139297021 -0.55627803283 
0.60333727591 -0.56568621579 -0.56212386248 0.63314454066 -0.52355746937 -0.57010136546 0.6567599434 -0.49287928672 -0.5707331999 
0.67903935837 -0.47941561696 -0.55593724107 0.70392427303 -0.48623753281 -0.51774866443 0.73282787434 -0.51445846588 -0.44530415838 
0.76167682636 -0.56302766062 -0.32069965008 0.77288451299 -0.62378014902 -0.11639525447 0.72146854873 -0.66624566284 0.18867922497 
0.55360623183 -0.63338727373 0.5406853998 0.30625084338 -0.51639195443 0.79971855695 0.083337542779 -0.38441458088 0.91939125728 
-0.076588872757 -0.28278911357 0.95611948093 -0.18441805024 -0.2147013919 0.95911067926 -0.25649511619 -0.17049546385 0.95138927479 
-0.30368844554 -0.13993465296 0.94243918687 -0.33189952173 -0.11440246636 0.93635184795 -0.34436817556 -0.088569256074 0.93464755204 
-0.34388459732 -0.061369254021 0.9370043748 -0.33411418281 -0.036094545035 0.94184122689 -0.31970486736 -0.019557178172 0.9473153195 
-0.3054190195 -0.019906022076 0.95200996466 -0.29531603714 -0.045308204672 0.95432468521 -0.29205235994 -0.10320398641 0.95081773029 
-0.29581817632 -0.19808880608 0.93447976515 -0.30295602152 -0.32578668076 0.89558957546 -0.3058926232 -0.46708692832 0.82961406959 
-0.29714895128 -0.59263090615 0.748659542 -0.2738739627 -0.68206296597 0.67807312511 -0.23677622593 -0.73277373242 0.63794958728 
-0.18708894541 -0.75129055741 0.6328982737 -0.12660626903 -0.74526160614 0.65464188 -0.059469335572 -0.7228660997 0.6884242878 
0.0076281215477 -0.69390291936 0.72002815936 0.068021328759 -0.6683825779 0.74070090347 0.11765211673 -0.65360415025 0.74763600382 
0.15593161046 -0.65216824448 0.74186381079 0.18516421858 -0.6632870979 0.7250961577 0.20958240012 -0.68423018907 0.69850144304 
0.23461464503 -0.71124467953 0.66263638157 0.26585457005 -0.73981347161 0.61805936188 0.307381799 -0.76450621911 0.56660980452 
0.36013100521 -0.77952038821 0.51249743751 0.42148220057 -0.77984733691 0.46280761198 0.48648141292 -0.76304649271 0.42555362159 
0.54979086168 -0.72983196458 0.40629461219 0.60752782024 -0.68273607454 0.40593275325 0.65749613913 -0.62501097981 0.42078510208 
0.69918103135 -0.56031290434 0.44406681324 0.733710098 -0.49204804559 0.46857039271 0.76306977502 -0.42283218289 0.48881229891 
0.78916432291 -0.35414400505 0.50179846066 0.8127501475 -0.28674401649 0.50716374747 0.83347926723 -0.22073508559 0.50654548965 
0.85013953312 -0.15583207005 0.50297031738 0.86116778066 -0.09219828754 0.49988951713 0.8654703468 -0.030513571068 0.50002999988 
0.86247360994 0.027796868394 0.50533811083 0.85252260077 0.080097284107 0.51651683443 0.83710549328 0.12324763998 0.53297693417 
0.81838278658 0.15425058471 0.55358501763 0.7989853433 0.17145390217 0.57639047583 0.7817533784 0.17549319335 0.59838432002 
0.76916468483 0.16973973105 0.61609586212 0.76318330184 0.15965538784 0.62614806949 0.76509448454 0.15109264068 0.62594044738 
0.7747486856 0.14832111715 0.6146261631 0.79058695782 0.15172407102 0.59325548325 0.80953326756 0.1578624293 0.56545144984 
0.82822795046 0.16068844148 0.53685909405 0.84425941116 0.15351602868 0.51347723961 0.85593851554 0.13113555141 0.50017269495 
0.86172092384 0.090329629693 0.49927708481 0.85968702909 0.030186933251 0.50992838818 0.84764055715 -0.047966157103 0.5283982718 
0.82355058794 -0.14153259223 0.54930224325 0.78542935556 -0.24768096146 0.56723440371 0.73067257947 -0.36420412572 0.57747115635 
0.65500219537 -0.48913898104 0.57594720355 0.55330510123 -0.61732183629 0.55925594802 0.42477701251 -0.73673149522 0.52610948822 
0.27885594596 -0.83104503659 0.48125202188 0.13505789708 -0.88933106463 0.43686339045 0.012676958536 -0.91298566643 0.40779463901 
-0.078511973291 -0.91125233031 0.40429575877 -0.13780146033 -0.89248214836 0.42951876838 -0.16949876666 -0.86118017844 0.47920649866 
-0.18057767896 -0.82060147196 0.54222221098 -0.18103285449 -0.77721852928 0.60262630488 -0.18227113629 -0.7423737954 0.64471573642 
-0.19448782709 -0.72814538797 0.65725092552 -0.2242963387 -0.741139638 0.63277420099 -0.27221166275 -0.77832249572 0.56578697697 
-0.3318573136 -0.82667879001 0.45439289338 -0.39120185188 -0.86726878894 0.3079057629 -0.39120185188 -0.86726878894 0.3079057629 

FrenetNormal 3 120 double
0.22303860609 -0.32139733224 0.92030295828 0.22303860609 -0.32139733224 0.92030295828 0.37195929756 -0.17635602433 0.91134232517 
0.46961232197 -0.060995910239 0.88076317247 0.51965998942 0.019359825422 0.85415378742 0.50823280139 0.089328581063 0.8565744709 
-0.54324243001 -0.037850685525 -0.83872223521 -0.47576593456 -0.01700466723 -0.87940753738 -0.36236989144 0.051622678822 -0.93060365398 
-0.18599790725 0.15480885097 -0.97027779432 0.043621470346 0.25920624925 -0.96483640462 0.29474935794 0.31006887237 -0.90386952066 
0.54544536314 0.26032481425 -0.79669338325 0.77121592463 0.095428783776 -0.62938012745 0.91097850665 -0.1223769936 -0.39388073304 
0.94835055711 -0.28096635207 -0.14727229822 0.9378985152 -0.34132130472 0.062017272804 0.91800162607 -0.3232447852 0.22975165587 
0.89986920844 -0.24918923789 0.35796666244 0.88887467391 -0.13116029559 0.43897470421 0.88983943394 0.030875241686 0.45522796626 
0.89272514781 0.24763726221 0.37645397704 0.84671869437 0.49805376733 0.18710931952 0.71970123868 0.69345058341 -0.034006108318 
0.58940831683 0.79111528981 -0.16350667959 0.55117673769 0.82207279422 -0.1428304058 0.67784541246 0.71749470866 0.16039619652 
0.67540724036 0.11128042424 0.72900049853 0.43284849945 -0.28427652907 0.85547006467 0.28236297933 -0.36550665008 0.88694759521 
0.14438295467 -0.3350188907 0.93108318923 -0.037644191614 -0.22818053466 0.97289082555 -0.28643745734 -0.03907364331 0.95730185074 
-0.55445831295 0.20409570399 0.80679670476 -0.73592532495 0.40445336011 0.54298378943 -0.81269473258 0.50770277485 0.28594608592 
-0.84029710575 0.53447337992 0.090768828533 -0.8507278532 0.52355633264 -0.046377649185 -0.84812136387 0.51179943907 -0.1369360665 
-0.80311976494 0.56978572158 -0.17419206255 -0.61770412251 0.77656147676 -0.12407211549 -0.19329980799 0.98089904203 0.021731396158 
0.21579203632 0.9659905378 0.14246430412 0.49107785963 0.84625223359 0.20663904017 0.80159740743 0.52749024878 0.28141718825 
0.74849059559 -0.6230471083 0.22709938167 0.17510033775 -0.98452245997 0.0074429518952 -0.006265608555 -0.99393302893 -0.10980836101 
-0.057138217881 -0.97284171671 -0.22430831078 -0.046441119206 -0.93359032863 -0.3553200258 0.0087633139933 -0.87272734993 -0.4881292626 
0.11203302292 -0.80029915868 -0.58904147425 0.31476672969 -0.729767785 -0.60692741399 0.7396973741 -0.56167934273 -0.37062664597 
0.97722902649 -0.076684917526 0.19784552868 0.87709998791 0.22414365689 0.42480022631 0.83484679524 0.34206858825 0.43130025436 
0.84939402538 0.3844801652 0.36153117738 0.90898838762 0.34753572967 0.23012828547 0.9831302407 0.18283497217 0.0051286224369 
0.93267268256 -0.15011651989 -0.32800411226 0.67761504257 -0.44821353666 -0.5830458641 0.50185691208 -0.53782110854 -0.67741279513 
0.47323532626 -0.51186468255 -0.71696783243 0.53596085653 -0.41947937938 -0.732654769 0.63091867968 -0.28201337758 -0.72277940929 
0.72831175576 -0.10837348036 -0.67662188493 0.81431515337 0.10089801068 -0.57158588369 0.86071402058 0.33492545992 -0.38340097949 
0.82502809912 0.55051700335 -0.12751339023 0.70847221224 0.69684285575 0.11170120356 0.57119627494 0.77767511577 0.26259518238 
0.46430721514 0.82817416581 0.31392094713 0.39459118169 0.86997741984 0.29569762986 0.35916289532 0.90619280224 0.22319637047 
0.3400045269 0.93231074915 0.12326227609 0.31853541714 0.94757378556 0.025280604129 0.28046961017 0.95887001715 -0.043647313637 
0.21565262415 0.97446193728 -0.062592958779 0.12424926611 0.99176265145 -0.031128171522 0.013154924476 0.99918334411 0.038204617596 
-0.11755996695 0.98218294676 0.14661621077 -0.25080127894 0.92968531045 0.26978499222 -0.38480568783 0.82515615156 0.41357213174 
-0.51296643485 0.63034062461 0.58269729164 -0.598429568 0.32105273012 0.73403487426 -0.59402824806 -0.082360443475 0.80021696924 
-0.48668649327 -0.46920513402 0.73687366589 -0.17734551282 -0.88003639166 0.44055024508 0.57285032047 -0.60363970827 -0.55449221179 
0.61679385193 0.03646088946 -0.78627981518 0.56677304663 0.18546313907 -0.80272768587 0.54091218757 0.17380693847 -0.82292475566 
0.54623383822 -0.017509949229 -0.83744969739 0.51528654594 -0.49589859171 -0.69897379229 0.27442708223 -0.93504081951 -0.22447370091 
0.042671920071 -0.99344101644 0.1060851266 -0.094466234289 -0.97163914333 0.21677985543 -0.19780367413 -0.95267579849 0.2308300879 
-0.28835156054 -0.93837615147 0.19053497286 -0.37828487158 -0.91745506003 0.12319402892 -0.46824912108 -0.88287684438 0.035654428243 
-0.56525830667 -0.82300333193 -0.056112051859 -0.66709963542 -0.73046140464 -0.14630178657 -0.76664356653 -0.60181868989 -0.22376752756 
-0.85325147742 -0.44436786447 -0.2729452643 -0.92409552787 -0.27213717266 -0.2683073138 -0.98334718229 -0.085325689027 -0.1604613532 
-0.9781201357 0.14878654639 0.14540826578 -0.6813103165 0.40017415753 0.61292487001 -0.2625946295 0.50812843133 0.82027407483 
-0.03537979535 0.55634753601 0.83019617516 0.026942952889 0.60860139271 0.79301855091 -0.11101039856 0.66704476082 0.73670073875 
-0.97362352983 0.061810223811 -0.21962859193 -0.6028523758 -0.40464216855 -0.68762906311 -0.48278784211 -0.39815143434 -0.77999444539 
-0.40322938119 -0.3111541137 -0.86057491462 -0.32359406113 -0.18357925573 -0.92821632202 -0.32359406113 -0.18357925573 -0.92821632202 

FrenetBinormal 3 120 double
-0.61595175608 0.68527153471 0.38859536525 -0.61595175608 0.68527153471 0.38859536525 -0.61724852906 0.6862843811 0.38473107702 
-0.62033050318 0.68706138089 0.37833414557 -0.62743273655 0.6872141239 0.36614875258 -0.6567414416 0.68361430787 0.31837424042 
0.62263304647 -0.68831822181 -0.37221783269 0.64485491607 -0.68668726469 -0.33559311335 0.6634599924 -0.68697575425 -0.29645429927 
0.67998204041 -0.69254441723 -0.24084570762 0.68615849225 -0.70971806399 -0.15964583667 0.66392991476 -0.7467422922 -0.039661282499 
0.57753897888 -0.80559257847 0.13217157558 0.38369746956 -0.85859625696 0.33998341046 0.10523280696 -0.85440236427 0.50884443229 
-0.14642112219 -0.799539203 0.58249284789 -0.3102286641 -0.7452097583 0.5902716257 -0.39594654296 -0.7144189037 0.57691590821 
-0.4217584784 -0.70630152075 0.56855777867 -0.39241348433 -0.71247426108 0.58171477944 -0.29736874447 -0.71746656019 0.62993139692 
-0.11177573564 -0.6876340568 0.7174019716 0.15784675047 -0.57100698436 0.80562735006 0.40654242197 -0.38121506311 0.83030014741 
0.53719825721 -0.23267080498 0.81072950419 0.5434447483 -0.2237943191 0.80906359965 0.33044208805 -0.49221067824 0.80531774765 
-0.28762929173 -0.87050406857 0.39936456671 -0.56314544689 -0.82629287586 0.010358037392 -0.61905933034 -0.77571732972 -0.12258943627 
-0.63166603089 -0.7554880517 -0.17388452824 -0.63342911554 -0.74755064664 -0.19983890086 -0.63042582135 -0.74470797441 -0.21902811836 
-0.6213663326 -0.74643519818 -0.23819818561 -0.60384131775 -0.75482238235 -0.25616173422 -0.57669933727 -0.77101447614 -0.27010100329 
-0.53668884714 -0.79647255032 -0.27856158736 -0.49219112399 -0.82449504478 -0.27920569227 -0.463573519 -0.84201700159 -0.27587490192 
-0.51261288631 -0.80979165493 -0.28542162567 -0.7129406178 -0.61956787239 -0.32840725783 -0.91871962202 -0.1731835911 -0.35491083371 
-0.913880288 0.25118936193 -0.31894627081 -0.80449378408 0.53155840785 -0.26501964155 -0.50520331965 0.84933594898 -0.1529642167 
0.58862641025 0.78193097593 0.20518990724 0.93921685991 0.16930059776 0.29867875329 0.95638180723 -0.038027242678 0.28963385094 
0.95353386443 -0.11974898385 0.27646582112 0.95187229788 -0.14923852362 0.26770691362 0.95202568631 -0.14204497201 0.27105408783 
0.94823578425 -0.091158464702 0.3042022876 0.9087986347 0.047213244141 0.41455512437 0.62990857558 0.38413405605 0.67502312064 
-0.1001057256 0.65550127519 0.74852984037 -0.46332112389 0.62796875678 0.62529095361 -0.54726065691 0.60037794999 0.58313985506 
-0.52770408509 0.6088298129 0.59232985533 -0.41123376564 0.65763488819 0.63119184392 -0.14004609686 0.73442017111 0.66408892705 
0.32527987958 0.74306231996 0.58485159536 0.7117247124 0.59929529559 0.36646020581 0.8391751053 0.49252157676 0.23066781107 
0.84911971731 0.48179409772 0.21649515717 0.80129102569 0.52603524359 0.28499055187 0.7123608982 0.57965394487 0.39565547503 
0.58298168539 0.61693042811 0.52870521217 0.39905336183 0.6177845276 0.67756821934 0.15002403027 0.55279741883 0.81969982559 
-0.13060874428 0.40531016827 0.90480109605 -0.35913378025 0.21973048699 0.90705095831 -0.49135897521 0.06769556429 0.86832232958 
-0.54365862024 -0.013304146187 0.83920099162 -0.55314310212 -0.032062592016 0.83246903772 -0.53733279546 0.005248836346 0.84335396877 
-0.51148469491 0.073339557562 0.85615694599 -0.48782413406 0.14100280112 0.86147885888 -0.47607678883 0.178449747 0.86110776267 
-0.48037143953 0.16167961757 0.86203421124 -0.49290178883 0.088917484022 0.86552961105 -0.50078740676 -0.026487106757 0.86516495907 
-0.49225900329 -0.18586014418 0.85037467065 -0.4585890684 -0.35954088588 0.81266624006 -0.38881740667 -0.5512960591 0.73816914016 
-0.25906572785 -0.76083996614 0.59498528938 -0.059198592359 -0.93141220945 0.3591195104 0.18971582927 -0.98102950844 0.039862359261 
0.41415207942 -0.86662273563 -0.27828598456 0.62136930796 -0.44726514115 -0.64331491249 0.29406281653 0.78280911884 -0.54839487908 
-0.13903171717 0.98826689196 -0.063235526983 -0.23182013661 0.9708672568 0.060631624924 -0.22818828641 0.97204454711 0.055312786854 
-0.12516811121 0.98684985 -0.10227569351 0.14732895926 0.85470311552 -0.4977717972 0.43824540403 0.32939661961 -0.83632459777 
0.50558496482 -0.070110661446 -0.85992344921 0.50201030128 -0.23453384447 -0.83245392257 0.49232021325 -0.30018006388 -0.81701452672 
0.4884852164 -0.31530734797 -0.81361137509 0.48989925838 -0.31133640031 -0.81429009725 0.49685042237 -0.29645207447 -0.81563216301 
0.50145305941 -0.28880542386 -0.81555886137 0.49883017288 -0.2921299142 -0.81598319337 0.4814791081 -0.30828715259 -0.82044920623 
0.44068274039 -0.33451658881 -0.83300502647 0.35750079694 -0.36746648383 -0.85858113388 0.18129427404 -0.39896954731 -0.89886355278 
-0.19265739071 -0.38403353255 -0.90299577833 -0.71890681605 -0.20817362586 -0.66320187826 -0.94990222058 0.013198391036 -0.31226843231 
-0.9829241944 0.13073118754 -0.12949665889 -0.98310792026 0.15979894408 -0.089236285152 -0.97696157769 0.062709129901 -0.20399421741 
0.11929671948 -0.6826300537 -0.72096081898 0.7656762798 -0.53570211164 -0.35603803468 0.8323561198 -0.48547865862 -0.26738317421 
0.85280524714 -0.46881264453 -0.23008240866 0.86153815626 -0.46275642038 -0.2088264847 0.86153815626 -0.46275642038 -0.2088264847 

plain_curvature_peaks 1 120 unsigned_char
0 0 0 0 1 0 0 0 0 
0 0 0 0 0 0 0 0 0 
0 0 0 0 0 0 0 0 0 
0 0 0 0 0 0 0 0 0 
0 0 0 0 1 0 0 0 0 
0 0 0 0 0 0 0 0 0 
0 0 0 0 0 0 0 0 0 
0 0 0 1 0 0 0 0 0 
0 0 0 0 0 0 0 0 0 
0 0 0 0 0 0 0 0 0 
0 0 0 0 0 0 0 0 0 
0 0 0 1 0 0 0 0 0 
0 0 0 0 0 0 0 0 0 
0 0 0 
weighted_curvature_peaks 1 120 unsigned_char
0 0 1 0 0 0 0 0 0 
0 0 0 0 0 0 0 0 0 
0 0 0 0 0 0 0 0 0 
0 0 0 0 0 0 0 0 0 
0 0 0 0 0 0 0 0 1 
0 0 0 0 0 0 0 0 0 
0 0 0 0 0 0 0 0 0 
0 0 0 0 0 0 0 0 0 
0 0 1 0 0 0 0 0 0 
0 0 0 0 0 0 0 0 0 
0 0 0 0 0 0 0 0 0 
0 0 0 0 0 0 0 0 1 
0 0 0 0 0 0 0 0 0 
0 0 0 
plain_torsion_tp 1 120 unsigned_char
0 0 0 0 1 0 0 0 0 
0 0 0 0 0 0 0 0 0 
0 0 0 0 0 0 0 0 0 
0 0 0 0 0 0 0 0 0 
0 0 0 0 1 0 0 0 0 
0 0 0 0 0 0 0 0 0 
0 0 0 0 0 0 0 0 0 
0 0 0 1 0 0 0 0 0 
0 0 0 0 0 0 0 0 0 
0 0 0 0 0 0 0 0 0 
0 0 0 0 0 0 0 0 0 
0 0 0 1 0 0 0 0 0 
0 0 0 0 0 0 0 0 0 
0 0 0 
plain_torsion_tn 1 120 unsigned_char
0 2 0 0 0 0 0 0 0 
0 0 0 0 0 0 0 0 0 
2 0 0 0 0 0 0 0 0 
0 0 0 0 0 0 0 0 0 
0 0 0 0 0 0 0 0 0 
0 0 0 0 0 0 0 0 0 
0 0 0 0 0 0 2 0 0 
0 0 0 0 0 0 0 0 0 
0 0 0 0 0 0 0 0 0 
0 0 0 0 2 0 0 0 0 
0 0 0 0 0 0 0 0 0 
0 0 0 0 0 0 0 0 0 
0 0 0 0 0 0 0 0 0 
0 0 0 
plain_torsion_tz 1 120 unsigned_char
0 3 0 0 0 0 0 0 3 
0 0 0 0 0 0 0 0 0 
0 0 0 0 0 0 0 0 0 
3 0 0 0 0 0 0 0 0 
0 0 0 0 0 0 0 0 0 
0 0 0 0 0 0 0 0 0 
0 0 0 0 0 0 0 3 0 
0 0 0 0 0 0 0 0 0 
0 0 0 0 0 0 3 0 0 
0 0 0 0 0 0 0 0 0 
0 3 0 0 0 0 0 0 0 
0 0 0 0 0 0 0 0 0 
0 0 0 0 0 0 0 0 0 
0 0 0 
weighted_torsion_tp 1 120 unsigned_char
0 0 1 0 0 0 0 0 0 
0 0 0 0 0 0 0 0 0 
0 0 0 0 0 0 0 0 0 
0 0 0 0 0 0 0 0 0 
0 0 0 0 0 0 0 0 1 
0 0 0 0 0 0 0 0 0 
0 0 0 0 0 0 0 0 0 
0 0 0 0 0 0 0 0 0 
0 0 1 0 0 0 0 0 0 
0 0 0 0 0 0 0 0 0 
0 0 0 0 0 0 0 0 0 
0 0 0 0 0 0 0 0 1 
0 0 0 0 0 0 0 0 0 
0 0 0 
weighted_torsion_tn 1 120 unsigned_char
0 2 0 0 0 0 0 0 0 
0 0 0 0 0 0 0 0 0 
0 0 0 2 0 0 0 0 0 
0 0 0 0 0 0 0 0 0 
0 0 0 0 0 0 0 0 0 
0 0 0 0 0 0 0 0 0 
0 0 0 0 0 0 0 0 0 
0 0 0 0 2 0 0 0 0 
0 0 0 0 0 0 0 0 0 
0 0 0 0 0 0 0 0 0 
2 0 0 0 0 0 0 0 0 
0 0 0 0 0 0 0 0 0 
0 0 0 0 0 0 0 0 0 
0 0 0 
weighted_torsion_tz 1 120 unsigned_char
0 3 0 0 0 0 0 0 0 
3 0 0 0 0 0 0 0 0 
0 0 0 0 0 0 0 0 0 
0 0 0 0 3 0 0 0 0 
0 0 0 0 0 0 0 0 0 
0 0 0 0 0 0 0 0 0 
0 0 0 0 0 0 0 0 0 
0 0 0 0 0 0 0 3 0 
0 0 0 0 0 0 0 0 0 
0 0 3 0 0 0 0 0 0 
0 0 0 0 0 0 3 0 0 
0 0 0 0 0 0 0 0 0 
0 0 0 0 0 0 0 0 0 
0 0 0 
plain_torsion_tp_raw 1 120 unsigned_char
0 0 0 0 0 1 0 0 0 
0 0 0 0 0 0 0 0 0 
0 0 0 0 0 1 0 0 0 
0 0 0 0 0 0 0 0 0 
0 0 0 0 0 0 0 0 0 
0 0 0 0 0 0 0 0 0 
0 0 0 0 0 0 1 0 0 
0 0 0 0 0 0 0 0 1 
0 0 0 0 0 0 0 0 0 
0 0 0 0 0 0 0 0 0 
0 0 0 0 0 1 0 0 0 
0 0 0 0 0 1 0 0 0 
0 0 0 0 0 0 0 0 0 
0 0 0 
plain_torsion_tn_raw 1 120 unsigned_char
0 0 0 0 2 0 0 0 0 
0 2 0 0 0 0 0 0 0 
0 0 0 0 0 0 0 0 0 
0 0 0 0 0 0 0 0 0 
0 0 0 0 0 0 0 0 0 
0 0 0 0 0 0 0 0 0 
0 0 2 0 0 0 0 2 0 
0 0 0 0 0 0 0 0 0 
0 0 0 0 0 0 0 0 0 
0 0 0 0 0 2 0 0 0 
0 0 0 0 0 0 0 0 0 
2 0 0 0 0 0 0 0 0 
0 0 0 0 0 0 0 0 0 
0 0 0 
plain_torsion_tz_raw 1 120 unsigned_char
0 3 0 0 0 3 0 0 0 
0 0 0 0 0 0 0 3 0 
0 0 0 0 0 0 0 0 0 
0 0 0 0 0 0 0 0 0 
0 0 0 0 0 0 0 0 0 
0 0 0 0 0 0 0 0 0 
0 0 0 0 0 0 0 0 0 
0 0 0 0 0 0 0 0 0 
0 0 0 0 0 0 0 0 0 
0 0 0 0 0 0 0 0 0 
0 0 0 0 0 0 0 0 0 
0 0 0 0 0 0 0 0 0 
0 0 0 0 0 0 0 0 0 
0 0 0 
weighted_torsion_tp_raw 1 120 unsigned_char
0 0 0 0 1 0 0 0 0 
0 0 0 0 0 0 0 0 0 
0 0 0 0 0 0 0 1 0 
0 0 0 0 0 0 0 0 0 
0 0 0 0 0 0 0 0 0 
0 0 0 0 0 0 0 0 0 
0 0 0 0 0 0 0 0 0 
0 0 0 0 0 0 1 0 0 
0 0 0 0 0 1 0 0 0 
0 0 0 0 0 0 0 0 0 
0 0 0 0 0 0 0 0 0 
0 1 0 0 0 0 0 0 0 
0 1 0 0 0 0 0 0 0 
0 0 0 
weighted_torsion_tn_raw 1 120 unsigned_char
0 0 2 0 0 0 0 0 0 
0 0 0 2 0 0 0 0 0 
0 0 0 0 0 0 0 0 0 
0 0 0 0 0 0 0 0 0 
0 0 0 0 0 0 0 0 0 
0 0 0 0 0 0 0 0 0 
0 0 0 0 0 0 0 0 2 
0 0 0 0 0 0 0 2 0 
0 0 0 0 0 0 0 0 0 
0 0 0 0 0 0 0 0 0 
0 0 2 0 0 0 0 0 0 
0 0 0 0 0 2 0 0 0 
0 0 0 0 0 0 0 0 0 
0 0 0 
weighted_torsion_tz_raw 1 120 unsigned_char
0 3 0 3 0 3 0 0 0 
0 0 0 0 0 0 0 0 0 
0 3 0 0 0 0 0 0 0 
0 0 0 0 0 0 0 0 0 
0 0 0 0 0 0 0 0 0 
0 0 0 0 0 0 0 0 0 
0 0 0 0 0 0 0 0 0 
0 0 0 0 0 0 0 0 0 
0 0 0 0 0 0 0 0 0 
0 0 0 0 0 0 0 0 0 
0 0 0 0 0 0 0 0 0 
0 0 0 0 0 0 0 0 0 
0 0 0 0 0 0 0 0 0 
0 0 0 
