# vtk DataFile Version 5.1
vtk output
ASCII
DATASET POLYDATA
POINTS 120 float
-2.15398 18.7351 -8.45465 -2.47567 18.0486 -8.30594 -2.86636 17.4807 -8.12534 
-3.30871 17.0122 -7.93133 -3.78542 16.6236 -7.7423 -4.27943 16.2955 -7.57624 
-4.77432 16.009 -7.4503 -5.25491 15.7456 -7.37983 -5.70833 15.4885 -7.37724 
-6.12491 15.2233 -7.45057 -6.49893 14.9385 -7.60232 -6.82859 14.6264 -7.82882 
-7.11536 14.2821 -8.12027 -7.36264 13.9031 -8.4615 -7.57397 13.4888 -8.83377 
-7.75135 13.0393 -9.21722 -7.89399 12.5554 -9.59371 -7.99794 12.0391 -9.94923 
-8.05659 11.4941 -10.2758 -8.06176 10.9261 -10.5722 -8.00538 10.3441 -10.8435 
-7.88117 9.75937 -11.0996 -7.68611 9.1861 -11.3526 -7.42146 8.63988 -11.614 
-7.09315 8.13676 -11.8914 -6.71178 7.69164 -12.1867 -6.29218 7.31651 -12.4938 
-5.85246 7.01912 -12.7986 -5.41275 6.80155 -13.08 -4.99358 6.6601 -13.3122 
-4.61414 6.58549 -13.4685 -4.29072 6.56413 -13.5252 -4.03519 6.58043 -13.4651 
-3.8541 6.6187 -13.2805 -3.74829 6.66622 -12.9742 -3.71295 6.71518 -12.5585 
-3.73841 6.76369 -12.0538 -3.81142 6.81586 -11.4845 -3.91707 6.88079 -10.8766 
-4.04084 6.96986 -10.254 -4.17055 7.09362 -9.63669 -4.29777 7.25937 -9.03939 
-4.41828 7.46808 -8.47072 -4.53166 7.71292 -7.9334 -4.64011 7.97955 -7.42506 
-4.74714 8.24706 -6.93941 -4.85622 8.49043 -6.46784 -4.96985 8.68423 -6.00128 
-5.08911 8.80543 -5.53183 -5.2136 8.83602 -5.05411 -5.34158 8.76482 -4.56625 
-5.47025 8.58788 -4.07049 -5.59618 8.30809 -3.57338 -5.71585 7.9341 -3.08544 
-5.82609 7.47852 -2.62054 -5.9244 6.95643 -2.19485 -6.00911 6.38383 -1.82546 
-6.07947 5.7761 -1.52874 -6.13548 5.14724 -1.31873 -6.17782 4.5092 -1.20543 
-6.20767 3.87154 -1.19352 -6.22642 3.24165 -1.28138 -6.2354 2.62455 -1.46065 
-6.23564 2.02297 -1.71632 -6.2275 1.43818 -2.02735 -6.21052 0.869533 -2.36796 
-6.18316 0.315208 -2.70938 -6.14278 -0.227317 -3.02212 -6.08567 -0.760601 -3.27856 
-6.0072 -1.28656 -3.45553 -5.90209 -1.80601 -3.5368 -5.76489 -2.31768 -3.51462 
-5.59048 -2.81846 -3.3897 -5.37459 -3.30281 -3.17047 -5.11441 -3.76309 -2.87145 
-4.80893 -4.1903 -2.51069 -4.45918 -4.57465 -2.10726 -4.0682 -4.90679 -1.67919 
-3.64053 -5.17873 -1.24202 -3.18165 -5.38501 -0.808147 -2.69715 -5.5235 -0.386751 
-2.19211 -5.59579 0.0158674 -1.67054 -5.60726 0.395824 -1.13518 -5.56664 0.751288 
-0.587589 -5.48527 1.08202 -0.0284312 -5.37529 1.38913 0.542057 -5.24834 1.67501 
1.12359 -5.11432 1.9429 1.71543 -4.98023 2.19663 2.31606 -4.84962 2.4407 
2.92308 -4.72296 2.6797 3.53311 -4.59806 2.91785 4.1419 -4.47111 3.1594 
4.74447 -4.33813 3.40854 5.33536 -4.19635 3.66929 5.90896 -4.04536 3.94594 
6.45997 -3.88767 4.24271 6.98385 -3.72931 4.56389 7.47727 -3.57889 4.91317 
7.93854 -3.44664 5.2932 8.36767 -3.34339 5.70506 8.76614 -3.27883 6.14759 
9.13659 -3.26025 6.61752 9.48193 -3.29225 7.10938 9.80444 -3.37667 7.61587 
10.1054 -3.5137 8.12831 10.3844 -3.70284 8.6373 10.6394 -3.94347 9.13359 
10.8671 -4.23585 9.60904 11.0638 -4.58058 10.057 11.2256 -4.97776 10.4735 
11.3494 -5.42597 10.8573 11.4336 -5.92153 11.2098 11.4772 -6.45808 11.535 
11.4798 -7.02672 11.8385 11.4411 -7.61678 12.1267 11.3606 -8.21646 12.4057 
11.2371 -8.81411 12.6799 11.0693 -9.39967 12.9516 10.8559 -9.9649 13.2203 

LINES 2 120
OFFSETS vtktypeint64
0 120 
CONNECTIVITY vtktypeint64
0 1 2 3 4 5 6 7 8 
9 10 11 12 13 14 15 16 17 
18 19 20 21 22 23 24 25 26 
27 28 29 30 31 32 33 34 35 
36 37 38 39 40 41 42 43 44 
45 46 47 48 49 50 51 52 53 
54 55 56 57 58 59 60 61 62 
63 64 65 66 67 68 69 70 71 
72 73 74 75 76 77 78 79 80 
81 82 83 84 85 86 87 88 89 
90 91 92 93 94 95 96 97 98 
99 100 101 102 103 104 105 106 107 
108 109 110 111 112 113 114 115 116 
117 118 119 
CELL_DATA 1
FIELD FieldData 2
Length 1 1 double
71.903056597 
Tortuosity 1 1 double
0.88001902576 
POINT_DATA 120
FIELD FieldData 19
Curvature 1 120 double
0 0.23310484971 0.22131317359 0.19003637039 0.15457242583 0.13652044431 0.16172528452 0.23121361329 0.31663412413 
0.37284250945 0.36259923551 0.29556822633 0.21457452546 0.15316715812 0.12394984925 0.12308036132 0.13604162341 0.15061598507 
0.16062459769 0.16471527692 0.16585276096 0.16821208301 0.17347553263 0.18024325249 0.18583125656 0.18886155144 0.19148420647 
0.19963017122 0.23212784228 0.33961410618 0.6627409977 1.4851166056 2.3149133807 1.5489127427 0.66976320015 0.29447333784 
0.14227495775 0.077727070662 0.066741043915 0.08634199873 0.11195986488 0.12762273368 0.12268530914 0.092214998615 0.035587212676 
0.052679346481 0.15683510481 0.27383510291 0.37168589276 0.4060839562 0.36888392565 0.29818147008 0.23328175575 0.18997962592 
0.16818214954 0.1644249679 0.17564744393 0.19803581219 0.22523467263 0.24647160391 0.2493472684 0.22764125887 0.18558021571 
0.13370878416 0.079379725481 0.031210632853 0.057381509421 0.13271248265 0.22682579515 0.32369772062 0.38536336493 0.38070715307 
0.32299532482 0.25436846092 0.20209113032 0.17235570865 0.16012477662 0.15939560421 0.16377261947 0.16811713544 0.16794782284 
0.15972135542 0.1426930526 0.11866278874 0.092971561248 0.069552485567 0.051630739762 0.039851296022 0.029941140586 0.019308863712 
0.0065337695342 0.0092884408061 0.025666363571 0.041347210878 0.056180829085 0.070181609814 0.085164295065 0.10270642978 0.12293978002 
0.14388343783 0.16058138909 0.16889267169 0.1683398542 0.16163245256 0.15465350057 0.15243281884 0.15713547235 0.16935796112 
0.18532867136 0.19755125022 0.1985603081 0.18524400164 0.16104571252 0.13395097223 0.11109615378 0.098568730514 0.097023149134 
0.10302811112 0.11279063002 0 
Torsion 1 120 double
0 0 0.16524163133 0.30277400808 0.58487755836 0.94438894003 0.84121347772 0.49527722379 0.28939749036 
0.1996654258 0.17917000475 0.21701433679 0.32827256337 0.50042114163 0.5528508612 0.34391806429 0.094092630807 -0.083691240775 
-0.20932989465 -0.30386699613 -0.35885695621 -0.35684078476 -0.30196547713 -0.21678179944 -0.12232675678 -0.017571374783 0.11976539963 
0.32897295488 0.62761636673 0.86520616502 0.7812089071 0.46486646029 0.27525875838 0.2571700981 0.1971956345 -0.012900650674 
-0.38014231178 -1.0066118087 -0.97667534908 -0.40209606551 -0.14007850736 -0.033755659275 0.030600391504 0.1361616543 1.3230282262 
0.86229228018 0.1512833525 0.074885766268 0.051393034054 0.041640668692 0.03534737444 0.026047329326 0.0096021415794 -0.013564347995 
-0.036588350076 -0.051068131685 -0.053520188483 -0.047185957664 -0.037531703511 -0.027466481028 -0.016805979624 -0.0029909984405 0.021498843799 
0.082905904945 0.32706321108 2.5959508841 0.8693252001 0.15390927101 0.020273881668 -0.034822493665 -0.071922458744 -0.11141634921 
-0.16251988149 -0.21709618746 -0.250801687 -0.23750173982 -0.18457879679 -0.12355158512 -0.079140089357 -0.057502897101 -0.05724761082 
-0.075450570789 -0.11441813273 -0.17865365068 -0.26789342236 -0.38840268103 -0.49763781228 -0.48760013153 -0.4072233474 -0.3525020881 
-0.98401250882 -0.40114052236 0.0036083857013 0.11412828723 0.1951371046 0.27719709453 0.32847629258 0.33373827394 0.31300812533 
0.2750975772 0.23586633111 0.20627088304 0.18408553055 0.16827699228 0.15037140015 0.11447816227 0.070246219807 0.028646135873 
-0.0080936424022 -0.035688477836 -0.059552334313 -0.092900402114 -0.14887583473 -0.22782803916 -0.31396168495 -0.3502126467 -0.27382595228 
-0.14560625187 0 0 
FrenetTangent 3 120 double
-0.48146120724 -0.84773838929 0.22256398913 -0.48146120724 -0.84773838929 0.22256398913 -0.60302105905 -0.75022128026 0.2711708557 
-0.69952432288 -0.65242962189 0.29154984167 -0.77177138372 -0.5697946793 0.2823171173 -0.82382869055 -0.51198762835 0.2432590328 
-0.85801885908 -0.48369185945 0.17275943553 -0.8715003176 -0.48563379665 0.06816899567 -0.8552691032 -0.51349690863 -0.069539096435 
-0.79936490703 -0.55607704257 -0.22758310162 -0.70563028826 -0.5985090578 -0.37930568678 -0.59337794809 -0.63192501898 -0.49857134003 
-0.48577449773 -0.65790650538 -0.57548428956 -0.39490827474 -0.6830608794 -0.61439017698 -0.32077474621 -0.71286127629 -0.62364442029 
-0.25694431065 -0.74944387786 -0.61017497094 -0.19513272644 -0.79144041352 -0.57926271321 -0.12782966633 -0.83434393336 -0.53621803147 
-0.049974875611 -0.87152601563 -0.48779597772 0.039896247988 -0.89599713714 -0.44226397053 0.13965695748 -0.90230513925 -0.40784969033 
0.24472482385 -0.88758280791 -0.39026467902 0.34959573758 -0.85133287244 -0.3911715232 0.44913021311 -0.79480171753 -0.40813267633 
0.53942291008 -0.72075425122 -0.43535759259 0.61846921715 -0.63336152758 -0.46513331725 0.68688007779 -0.53756319386 -0.48910282287 
0.74804579587 -0.43802432522 -0.49856010449 0.80785971056 -0.33769752704 -0.48303526608 0.87372559453 -0.23638435519 -0.4251188329 
0.94892885819 -0.12955840293 -0.28766063742 0.99994460774 -0.0087471557846 0.0058539481515 0.86721974961 0.10838092227 0.48598712079 
0.49889379655 0.1491885466 0.85372580922 0.19022640301 0.13003412086 0.97309045983 0.010674376407 0.10530128077 0.99438307405 
-0.090905698977 0.092941467886 0.99151300417 -0.14933074641 0.097875412552 0.98393126376 -0.18190207533 0.12210864651 0.97570544399 
-0.19751908003 0.16584789606 0.96616804356 -0.20154790765 0.22710886242 0.95278539322 -0.19827856748 0.29970636634 0.93319971263 
-0.19202410497 0.37235518716 0.90800790619 -0.18719363466 0.43161903631 0.8824191468 -0.18756630058 0.46495700585 0.86523630622 
-0.19533936339 0.46177740189 0.86521914231 -0.21036415704 0.41293352915 0.88613363661 -0.22951724965 0.3104438358 0.92246759126 
-0.2462781997 0.1533653736 0.95698804096 -0.25276370962 -0.040656402742 0.96667345263 -0.24527399366 -0.23713343439 0.94000446931 
-0.22688483373 -0.4070116663 0.88479646005 -0.20339300802 -0.54143203098 0.81577119348 -0.17904049141 -0.64602955428 0.74201773391 
-0.15576834564 -0.73023811227 0.66519810724 -0.13405718852 -0.80180157227 0.58235977618 -0.11367353396 -0.86524363076 0.48829477482 
-0.094134816807 -0.9212146845 0.37749455801 -0.07501265506 -0.96621724159 0.24657117356 -0.056234042808 -0.99364314628 0.097524511219 
-0.038242603949 -0.99747979561 -0.059762535027 -0.021740568811 -0.97758487405 -0.20941624028 -0.0071234569092 -0.94179020754 -0.33612566303 
0.0060098097401 -0.90232228556 -0.43102015634 0.018960138169 -0.87050420383 -0.49179563263 0.033733852637 -0.85422470536 -0.51880842316 
0.052960535205 -0.8576493161 -0.51150056921 0.079838132181 -0.88108980541 -0.46616158943 0.11764645077 -0.91909511837 -0.37606312769 
0.16806319905 -0.95701081729 -0.23640020455 0.22840394205 -0.97197160065 -0.055703202669 0.29136394367 -0.94667221355 0.13754552853 
0.3503248117 -0.88422531504 0.30889823333 0.40415197458 -0.80193497638 0.43995621953 0.4553886618 -0.71448263426 0.53116450563 
0.50673788061 -0.62763757325 0.59100575039 0.55939419326 -0.54108554354 0.62793675727 0.6129592703 -0.45230173996 0.64784571387 
0.66573596821 -0.35910417758 0.65409464933 0.71510755117 -0.26134987962 0.64831892667 0.75835870885 -0.16153982556 0.63150372403 
0.79361756333 -0.064748900284 0.60496176994 0.82063459911 0.022634866304 0.57100483147 0.84090383026 0.094729712339 0.53282926895 
0.85685026075 0.14814197331 0.49382343646 0.87053984797 0.18258507334 0.45697162285 0.88306203719 0.2000459325 0.42447975612 
0.89448614077 0.20438389142 0.39764528024 0.90404588755 0.20067712175 0.37739863012 0.91082824129 0.1940382633 0.3643364753 
0.91423349811 0.18896840037 0.3584244057 0.91378505408 0.18881701292 0.35964567364 0.90904319529 0.19505342868 0.36823175999 
0.89964814261 0.20711532057 0.38436501335 0.88520471959 0.22255588427 0.40851130069 0.8653803139 0.23753122451 0.44124350385 
0.84007885106 0.24700933271 0.48296367727 0.80938120284 0.24567255763 0.53342952947 0.77353823551 0.22903372285 0.59091636634 
0.73305668929 0.19388281571 0.65194888148 0.68892937248 0.13969683601 0.71123913963 0.64283868739 0.069505297117 0.76284168454 
0.59699417518 -0.011195445347 0.80216744935 0.55341547953 -0.096474739615 0.82729917903 0.5131676068 -0.18228438349 0.8387081798 
0.4757371558 -0.26756181139 0.83790502784 0.43887179154 -0.35321335673 0.82621539275 0.39934722001 -0.44090315806 0.80381975784 
0.35386943328 -0.53114323707 0.76984627421 0.30012366678 -0.62123127506 0.72387670741 0.238266547 -0.70530198262 0.66766620844 
0.17120303792 -0.77680156253 0.60602710521 0.10293544437 -0.83147370747 0.54594483977 0.036310082689 -0.86864463454 0.49410330577 
-0.027700498886 -0.89024149812 0.45464574933 -0.090034994935 -0.89900490119 0.42858358266 -0.15286968663 -0.8971258198 0.41448295787 
-0.21816029723 -0.88614027915 0.40885387413 -0.28717859902 -0.86704405037 0.4071401073 -0.28717859902 -0.86704405037 0.4071401073 

FrenetNormal 3 120 double
-0.76952795629 0.53041457553 0.35565025313 -0.76952795629 0.53041457553 0.35565025313 -0.71657036048 0.65879993164 0.22914966408 
-0.67140631036 0.73975270208 0.044491641651 -0.63250674 0.73365510185 -0.2483654875 -0.52556109443 0.52915493831 -0.66616858773 
-0.26930009977 0.13724795802 -0.95322633948 -0.0023954335694 -0.13479101082 -0.99087115474 0.21976198473 -0.23790739864 -0.94609975148 
0.41996387794 -0.2462052868 -0.87350632395 0.59742275812 -0.21467705269 -0.77265762866 0.74141834993 -0.18794810624 -0.64418501981 
0.85126860721 -0.2066443189 -0.48232756902 0.91866230785 -0.30112252435 -0.25570449636 0.89586946229 -0.44208047619 0.044528183332 
0.79564145784 -0.52243063881 0.30662827364 0.73355983578 -0.50980518049 0.44943146894 0.74922746596 -0.43549068988 0.4990050734 
0.81856295254 -0.31557593691 0.47996512453 0.90489176782 -0.15531736832 0.39629206858 0.96710859973 0.035860821003 0.25182326709 
0.96929570004 0.23391663177 0.075821205952 0.90679696904 0.41244674174 -0.087217785876 0.80521442064 0.55802279464 -0.20059984413 
0.69626164105 0.67256062359 -0.25076270617 0.60147516929 0.76246729057 -0.23847694132 0.53565083554 0.82929491147 -0.15921096758 
0.50666707978 0.86213739382 0.0027539884327 0.50201697096 0.82365008273 0.26377926772 0.46300523856 0.67205448205 0.57790044318 
0.31434563338 0.46586544132 0.82713736064 -0.002944535481 0.30148821505 0.95346535642 -0.49755729108 0.15109004237 0.85417125987 
-0.86284400204 -0.0068746017239 0.50542355307 -0.97155286013 -0.11748683129 0.20562559289 -0.98747274898 -0.15545167246 0.027061920827 
-0.99424147956 -0.065202829906 -0.085043937472 -0.93706376048 0.30361652517 -0.17241958833 -0.54214437486 0.81536722128 -0.20311516752 
-0.1572211622 0.96746746447 -0.19821254085 0.010437434219 0.97319023142 -0.22976473496 0.074145759734 0.95396134702 -0.29062029301 
0.087815327426 0.9280339781 -0.36199641403 0.053439889075 0.90144262318 -0.42958744788 -0.19064877704 0.8468857508 -0.49642478676 
-0.40526789497 -0.84137532177 0.3575548926 -0.21824101132 -0.90337801835 0.36915987993 -0.14044182542 -0.94841340032 0.28423250301 
-0.070193924214 -0.98763022213 0.14021183021 0.0025049103683 -0.99914088177 -0.041366940966 0.072651412015 -0.97139226536 -0.22609475698 
0.13194317002 -0.91295818198 -0.38613256511 0.17488221719 -0.83987831522 -0.51382937414 0.19809675416 -0.76242952625 -0.61600234861 
0.20098266902 -0.68276139175 -0.70245487306 0.18769685766 -0.59757104645 -0.77953751293 0.16644974318 -0.5011194228 -0.8492195282 
0.14535542713 -0.38783273574 -0.91019644522 0.12875886051 -0.25458292052 -0.95844076104 0.11697428708 -0.10356322681 -0.98772044335 
0.10946247852 0.055264680052 -0.99245341499 0.10693099905 0.20599048914 -0.97269403197 0.11368088639 0.33319232734 -0.93598051746 
0.14389085988 0.42732262986 -0.89257536962 0.2537596181 0.47996725724 -0.83978419144 0.79779472267 0.33568623147 -0.50083763286 
0.60927887387 -0.37807785287 0.69701964895 0.39199916236 -0.4022234377 0.82737715878 0.3372544571 -0.31920689142 0.88564461927 
0.31839899651 -0.17425839797 0.93180260235 0.30853698295 0.017999472448 0.95104203332 0.30272957271 0.22764128582 0.92549135641 
0.31214397426 0.42116322758 0.85157951776 0.34788816482 0.57960584265 0.73690629794 0.40725970779 0.69771347578 0.58935170834 
0.4687334652 0.77594337487 0.42213838679 0.50542495188 0.82308610262 0.25898819606 0.50615202612 0.85438804224 0.11760612115 
0.47537573913 0.8797824857 -0.00082734506225 0.42337457551 0.89994171268 -0.10420596233 0.3614171648 0.91045463991 -0.20112180802 
0.30115782571 0.90577222453 -0.29812856503 0.25366301153 0.88094897228 -0.39947964257 0.23206928012 0.82632497447 -0.51315775916 
0.24340598614 0.72812414563 -0.64077199881 0.29013605449 0.55961070027 -0.77630981833 0.36063461617 0.28945616968 -0.88665540062 
0.41334666187 -0.039046972701 -0.90973615463 0.42471402685 -0.32226453218 -0.84602811224 0.40927790824 -0.53933428592 -0.73594165656 
0.3712305013 -0.74512656486 -0.55405263039 -0.40557591902 0.47309833476 0.78210366292 -0.41160885861 0.55805057116 0.72052599366 
-0.43328255634 0.5320722515 0.72743752004 -0.46510886539 0.44094461868 0.76762073096 -0.49731700562 0.29887255596 0.81446362179 
-0.51715837374 0.095925788751 0.85049718372 -0.51917081166 -0.12527079854 0.84544006018 -0.50727235855 -0.3351501855 0.79394527986 
-0.48923395747 -0.51559249348 0.70343053355 -0.47330139809 -0.6564703438 0.58739464952 -0.46035398379 -0.76090944739 0.45726471817 
-0.44652941191 -0.8353372204 0.32066058772 -0.43041669541 -0.88349008152 0.18489657696 -0.40972271526 -0.91068288245 0.05276347427 
-0.3922783039 -0.91716788418 -0.070148446306 -0.39169469426 -0.90273961827 -0.1778663771 -0.40843095219 -0.87051380801 -0.27457215328 
-0.44369778856 -0.81992370867 -0.3617421518 -0.49294055086 -0.75068634881 -0.43986318216 -0.54854016638 -0.66504272088 -0.50677595175 
-0.60826689767 -0.56722006799 -0.55522317644 -0.67847217853 -0.46005239182 -0.57273667575 -0.76755213861 -0.34086342187 -0.54284053105 
-0.86833458904 -0.20388592345 -0.45213446196 -0.95281182996 -0.047510075717 -0.29982062871 -0.98519505938 0.10541302877 -0.13519906929 
-0.97420540158 0.2225175831 -0.037546780735 -0.95093333517 0.30914781847 -0.012386218338 -0.95093333517 0.30914781847 -0.012386218338 

FrenetBinormal 3 120 double
-0.41954955656 -3.7411472425e-05 -0.90773243205 -0.41954955656 -3.7411472425e-05 -0.90773243205 -0.35056029556 -0.056130924705 -0.93485656572 
-0.24470244811 -0.16462541798 -0.95552037322 -0.065606060148 -0.37024885546 -0.9266129882 0.21234835682 -0.67665627883 -0.70501379822 
0.43735694086 -0.86441030947 -0.24801960236 0.4903890887 -0.86370782036 0.11630710524 0.4692754321 -0.82445193583 0.31632194727 
0.42970465048 -0.79382698334 0.43034013742 0.38101436242 -0.77181647481 0.50904556264 0.31337109169 -0.75189512549 0.58004506648 
0.19840588633 -0.72419414223 0.66043769474 -0.010344982882 -0.66539691941 0.74641806045 -0.3074434399 -0.54442047476 0.78043890083 
-0.54857478231 -0.40669411302 0.7305241999 -0.65100935968 -0.3372250729 0.6800485746 -0.64985981616 -0.3379616249 0.68078202051 
-0.57223876531 -0.37530551837 0.72916977677 -0.42376783493 -0.41601159278 0.80458385315 -0.21259560334 -0.42960381422 0.87763527291 
0.023991800337 -0.39683720652 0.91757540564 0.23558878838 -0.32422218542 0.91617569127 0.38718443728 -0.23853886577 0.89061070117 
0.47354266048 -0.16785564316 0.86462814653 0.50569106 -0.13227549353 0.85251378032 0.49119643842 -0.15262949394 0.85757232725 
0.42862099522 -0.25466410171 0.86685075864 0.30877443048 -0.45558854402 0.83492360707 0.14909639343 -0.70175865494 0.69663839665 
0.026848554353 -0.87531937646 0.48279927953 -0.010105006387 -0.95342977898 0.30144575863 0.019148054249 -0.98256062143 0.1849539868 
0.081272430222 -0.98878486913 0.12529674646 0.14106365789 -0.98452423631 0.10398592472 0.15742816685 -0.9822150568 0.10232279553 
0.056745345377 -0.99353433485 0.098333571371 -0.31561342964 -0.94775387589 0.046376219819 -0.82036035484 -0.56592028848 -0.082116473878 
-0.96760928023 -0.1910528214 -0.16501848458 -0.9794230449 -0.036363966718 -0.1985148887 -0.9773372069 0.011569026297 -0.21137204555 
-0.97745343182 0.010224974181 -0.21090338671 -0.9808683507 -0.03325965445 -0.19180999449 -0.96357248129 -0.2580688044 -0.070203742748 
0.8930848036 -0.28080099539 0.35149727533 0.95295214067 -0.11573269406 0.28015738633 0.96311885341 -0.064316770059 0.26127653416 
0.96665395119 -0.032643628901 0.25399711049 0.96752479685 -0.0080346311 0.25264839635 0.96672769711 0.012837488004 0.25548533918 
0.96494262633 0.029135226928 0.26083877481 0.96335221721 0.038154573017 0.26551221094 0.96369195204 0.036701941407 0.26448211484 
0.96713090595 0.024273057557 0.25311781729 0.97303574437 0.0048044926842 0.23060433001 0.97947578361 -0.015257245014 0.20098359585 
0.98489107828 -0.030810292911 0.17041211748 0.98883479784 -0.040146962863 0.14350597183 0.99154160205 -0.044135653522 0.12205447757 
0.99325498692 -0.044495758094 0.10707314543 0.9940287265 -0.043540009325 0.10005577683 0.99349177774 -0.044878480195 0.1046900644 
0.98957531428 -0.056655652773 0.13240405727 0.96708146988 -0.10887544762 0.22999905983 0.60198472379 -0.39700743917 0.69281995177 
-0.79118546218 -0.34856102445 0.50252440405 -0.91649469685 -0.24879119955 0.3132736977 -0.93403358815 -0.23102191206 0.27241536733 
-0.93293989096 -0.23187131414 0.27542486005 -0.92338321915 -0.23440824756 0.30400033564 -0.90744799197 -0.22801571236 0.35291213749 
-0.88308474432 -0.20190871201 0.42354953237 -0.84595212998 -0.14476657358 0.51323253302 -0.79168219452 -0.052062184438 0.60871079491 
-0.72353690919 0.063110661887 0.68739463585 -0.65698078706 0.17249841233 0.73390772116 -0.60670508438 0.25582065849 0.75263851302 
-0.5751639134 0.31149152075 0.75641225877 -0.55621502952 0.34900022091 0.7542040087 -0.54246631388 0.38075876015 0.74883447094 
-0.52865407139 0.41878903662 0.73833638378 -0.51206828775 0.47266962148 0.71719557835 -0.48890141897 0.55516963008 0.67287597992 
-0.45448999612 0.66924523479 0.58783472094 -0.39746879498 0.80839257489 0.43418890114 -0.30024009074 0.93605381828 0.18346426679 
-0.17040857104 0.97811173127 -0.11940837518 -0.048156293501 0.92513472754 -0.37657231349 0.05369831181 0.81943131525 -0.57065647363 
0.1623731069 0.63959154622 -0.75137049992 -0.02247329188 -0.86053826253 0.50888982096 -0.064950878464 -0.806556706 0.58757779349 
-0.053846502892 -0.82097646932 0.56841726835 -0.0092923491428 -0.86950372146 0.49383897235 0.061584967605 -0.92425868277 0.3767667436 
0.16375207015 -0.96425340684 0.20832817121 0.27452456503 -0.96122433462 0.026154191541 0.37988597298 -0.91390256973 -0.14306900634 
0.47252304192 -0.83460998942 -0.28310446908 0.54896457654 -0.74130390645 -0.38614299421 0.61223576472 -0.6451246597 -0.45714498996 
0.66649038935 -0.54962386249 -0.50369055052 0.71307277001 -0.45840800655 -0.53046142574 0.75417922534 -0.37071429856 -0.54201900789 
0.78726862689 -0.29531974082 -0.54128953417 0.80868214836 -0.24556365008 -0.53453875134 0.82079592785 -0.21865524297 -0.52771576587 
0.82335210974 -0.21356959914 -0.52581301782 0.81666112798 -0.2248148318 -0.53152882655 0.80145663541 -0.24549397694 -0.5453438996 
0.77504896684 -0.27357033266 -0.56961247536 0.72737871653 -0.31145348057 -0.61148747508 0.63995725827 -0.35953946447 -0.67910682597 
0.49520472921 -0.40730898007 -0.76737974362 0.28990225315 -0.43535385647 -0.85230493561 0.077598671914 -0.42901440165 -0.89995838198 
-0.05770546115 -0.40649886948 -0.91182714857 -0.11512707907 -0.39072015695 -0.91328172796 -0.11512707907 -0.39072015695 -0.91328172796 

plain_curvature_peaks 1 120 unsigned_char
0 0 0 0 0 0 0 0 0 
0 0 0 0 0 0 0 0 0 
0 0 0 0 0 0 0 1 0 
0 0 0 0 0 0 0 0 0 
0 0 0 0 0 0 0 0 0 
0 0 0 0 0 0 0 0 0 
0 0 0 0 0 0 0 0 0 
1 0 0 0 0 0 0 0 0 
0 0 0 0 0 0 0 0 0 
0 0 0 0 0 0 0 0 0 
1 0 0 0 0 0 0 0 0 
0 0 0 0 0 0 0 0 0 
0 0 0 0 0 0 0 0 0 
1 0 0 
weighted_curvature_peaks 1 120 unsigned_char
0 0 0 0 0 0 0 0 0 
0 0 0 0 0 0 0 0 0 
0 0 0 0 0 0 0 0 0 
0 1 0 0 0 0 0 0 0 
0 0 0 0 0 0 0 0 0 
0 0 0 0 0 0 0 0 0 
0 0 0 0 0 0 0 0 0 
0 0 0 0 0 1 0 0 0 
0 0 0 0 0 0 0 0 0 
0 0 0 0 0 0 0 0 0 
0 0 0 0 0 1 0 0 0 
0 0 0 0 0 0 0 0 0 
0 0 0 0 0 0 0 0 0 
0 1 0 
plain_torsion_tp 1 120 unsigned_char
0 0 0 0 0 0 0 0 0 
0 0 0 0 0 0 0 0 0 
0 0 0 0 0 0 0 1 0 
0 0 0 0 0 0 0 0 0 
0 0 0 0 0 0 0 0 0 
0 0 0 0 0 0 0 0 0 
0 0 0 0 0 0 0 0 0 
1 0 0 0 0 0 0 0 0 
0 0 0 0 0 0 0 0 0 
0 0 0 0 0 0 0 0 0 
1 0 0 0 0 0 0 0 0 
0 0 0 0 0 0 0 0 0 
0 0 0 0 0 0 0 0 0 
1 0 0 
plain_torsion_tn 1 120 unsigned_char
0 0 0 0 0 0 0 0 0 
0 2 0 0 0 0 0 0 0 
0 0 0 0 0 0 0 0 0 
0 0 0 0 0 0 0 0 0 
0 0 0 0 0 0 0 0 0 
0 0 0 2 0 0 0 0 0 
0 0 0 0 0 0 0 0 0 
0 0 0 0 0 0 0 0 0 
0 0 2 0 0 0 0 0 0 
0 0 0 0 0 0 0 0 0 
0 0 0 0 0 0 0 0 0 
0 0 0 0 2 0 0 0 0 
0 0 0 0 0 0 0 0 0 
0 0 0 
plain_torsion_tz 1 120 unsigned_char
0 0 0 0 0 0 0 0 0 
0 0 3 0 0 0 0 0 0 
0 0 0 0 0 0 0 0 0 
0 0 0 0 0 0 0 0 0 
3 0 0 0 0 0 0 0 0 
0 0 0 0 0 0 0 0 3 
0 0 0 0 0 0 0 0 0 
0 0 0 0 0 0 0 0 0 
0 0 0 0 0 0 0 3 0 
0 0 0 0 0 0 0 0 0 
0 0 0 0 0 0 0 3 0 
0 0 0 0 0 0 0 0 0 
3 0 0 0 0 0 0 0 0 
0 0 0 
weighted_torsion_tp 1 120 unsigned_char
0 0 0 0 0 0 0 0 0 
0 0 0 0 0 0 0 0 0 
0 0 0 0 0 0 0 0 0 
0 1 0 0 0 0 0 0 0 
0 0 0 0 0 0 0 0 0 
0 0 0 0 0 0 0 0 0 
0 0 0 0 0 0 0 0 0 
0 0 0 0 0 1 0 0 0 
0 0 0 0 0 0 0 0 0 
0 0 0 0 0 0 0 0 0 
0 0 0 0 0 1 0 0 0 
0 0 0 0 0 0 0 0 0 
0 0 0 0 0 0 0 0 0 
0 1 0 
weighted_torsion_tn 1 120 unsigned_char
0 0 0 0 0 0 0 0 0 
0 0 2 0 0 0 0 0 0 
0 0 0 0 0 0 0 0 0 
0 0 0 0 0 0 0 0 0 
0 0 0 0 0 0 0 0 0 
0 0 0 0 0 0 0 2 0 
0 0 0 0 0 0 0 0 0 
0 0 0 0 0 0 0 0 0 
0 0 0 0 0 0 0 0 2 
0 0 0 0 0 0 0 0 0 
0 0 0 0 0 0 0 0 0 
0 0 0 0 0 0 0 0 0 
2 0 0 0 0 0 0 0 0 
0 0 0 
weighted_torsion_tz 1 120 unsigned_char
0 0 0 0 0 0 0 0 0 
0 0 0 0 3 0 0 0 0 
0 0 0 0 0 0 0 0 0 
0 0 0 0 0 0 0 0 0 
0 0 0 0 3 0 0 0 0 
0 0 0 0 0 0 0 0 0 
0 0 0 0 3 0 0 0 0 
0 0 0 0 0 0 0 0 0 
0 0 0 0 0 0 0 0 0 
0 0 0 3 0 0 0 0 0 
0 0 0 0 0 0 0 0 0 
0 0 0 3 0 0 0 0 0 
0 0 0 0 3 0 0 0 0 
0 0 0 
plain_torsion_tp_raw 1 120 unsigned_char
0 0 0 0 0 0 0 0 0 
0 0 0 0 0 0 0 0 0 
0 0 0 0 0 0 0 0 0 
0 0 1 0 0 0 0 0 0 
0 0 0 0 0 0 0 0 0 
0 0 0 0 0 1 0 0 0 
0 0 0 0 0 0 0 0 0 
0 0 0 0 0 0 0 0 0 
0 0 0 0 0 1 0 0 0 
0 0 0 0 0 0 0 0 0 
0 0 0 1 0 0 0 0 0 
0 0 0 0 0 0 0 0 0 
0 0 0 1 0 0 0 0 0 
0 1 0 
plain_torsion_tn_raw 1 120 unsigned_char
0 0 0 0 0 0 0 0 0 
0 0 0 0 0 0 0 0 0 
0 2 0 0 0 0 0 0 0 
0 0 0 0 0 0 0 0 0 
0 0 0 2 0 0 0 0 0 
0 0 0 0 0 0 0 0 0 
0 0 0 0 0 0 0 0 0 
0 0 0 0 0 0 0 0 2 
0 0 0 0 0 0 0 0 0 
0 2 0 0 0 0 0 0 0 
0 0 0 0 0 0 0 0 0 
0 0 0 0 0 2 0 0 0 
0 0 0 0 0 0 0 2 0 
0 0 0 
plain_torsion_tz_raw 1 120 unsigned_char
0 0 0 0 0 0 0 0 0 
0 3 0 0 0 0 0 0 0 
0 0 0 0 0 0 0 0 3 
0 0 0 3 0 0 0 0 0 
0 0 0 0 0 0 0 0 0 
0 3 0 0 0 0 0 0 0 
0 0 0 0 0 0 0 0 0 
0 0 0 0 0 0 0 0 0 
0 0 0 0 0 0 0 0 0 
0 0 0 0 0 0 0 0 0 
0 0 0 0 0 0 0 0 0 
0 0 0 0 0 0 0 0 0 
0 0 0 0 0 0 0 0 0 
0 0 0 
weighted_torsion_tp_raw 1 120 unsigned_char
0 0 0 0 0 0 0 0 0 
0 0 0 0 0 0 0 0 0 
0 0 0 0 0 0 0 0 0 
0 0 0 0 0 0 1 0 0 
0 0 0 0 0 0 0 0 0 
0 0 0 0 0 0 0 0 0 
1 0 0 0 0 0 0 0 0 
0 0 0 0 0 0 0 0 0 
0 0 0 0 0 0 0 0 0 
0 1 0 0 0 0 0 0 0 
0 0 0 0 0 0 0 0 1 
0 0 0 0 0 0 0 0 0 
0 0 0 0 0 0 1 0 0 
0 1 0 
weighted_torsion_tn_raw 1 120 unsigned_char
0 0 0 0 0 0 0 0 0 
0 0 0 0 0 0 0 0 0 
0 0 0 0 2 0 0 0 0 
0 0 0 0 0 0 0 0 0 
0 0 0 0 0 0 2 0 0 
0 0 0 0 0 0 0 0 0 
0 0 0 0 0 0 0 0 0 
0 0 0 0 0 0 0 0 0 
0 0 0 0 2 0 0 0 0 
0 0 0 0 0 0 2 0 0 
0 0 0 0 0 0 0 0 0 
0 0 0 0 0 0 0 0 0 
2 0 0 0 0 0 0 0 2 
0 0 0 
weighted_torsion_tz_raw 1 120 unsigned_char
0 0 0 0 0 0 0 0 0 
0 0 3 0 0 0 0 0 0 
0 0 0 0 0 0 0 0 0 
0 0 3 0 0 0 3 0 0 
0 0 0 0 0 0 0 0 0 
0 0 0 0 0 0 3 0 0 
0 0 0 0 0 0 0 0 0 
0 0 0 0 0 0 0 0 0 
0 0 0 0 0 0 0 0 0 
0 0 0 0 0 0 0 0 0 
0 0 0 0 0 0 0 0 0 
0 0 0 0 0 0 0 0 0 
0 0 0 0 0 0 0 0 0 
0 0 0 
