# vtk DataFile Version 5.1
vtk output
ASCII
DATASET POLYDATA
POINTS 120 float
-3.91467 18.0835 -11.5392 -4.13278 17.7315 -11.2891 -4.38329 17.4055 -10.9214 
-4.66605 17.0989 -10.4684 -4.98095 16.8053 -9.96268 -5.3279 16.5184 -9.43612 
-5.70652 16.2328 -8.91995 -6.11552 15.9432 -8.44358 -6.55165 15.6451 -8.03325 
-7.00851 15.3338 -7.71053 -7.4757 15.0049 -7.49081 -7.93869 14.654 -7.38248 
-8.37939 14.2776 -7.38661 -8.77758 13.8738 -7.49752 -9.11295 13.4436 -7.70437 
-9.36733 12.9912 -7.99335 -9.52661 12.5245 -8.34999 -9.58224 12.0543 -8.76112 
-9.53206 11.593 -9.21603 -9.38057 11.1523 -9.70674 -9.13875 10.7415 -10.2272 
-8.82321 10.3655 -10.7719 -8.45476 10.0242 -11.3336 -8.05663 9.71257 -11.9019 
-7.65248 9.42187 -12.4615 -7.26442 9.14163 -12.9927 -6.91131 8.86173 -13.4714 
-6.60762 8.57445 -13.8717 -6.36292 8.27578 -14.1687 -6.18227 7.96561 -14.3417 
-6.06711 7.64749 -14.3777 -6.01646 7.32791 -14.2734 -6.02814 7.01517 -14.0361 
-6.0996 6.71913 -13.6831 -6.2281 6.45079 -13.2388 -6.4102 6.2226 -12.7316 
-6.64103 6.04806 -12.1903 -6.91353 5.94061 -11.6406 -7.21809 5.91181 -11.1027 
-7.54265 5.96896 -10.5894 -7.87325 6.11354 -10.1053 -8.19516 6.33979 -9.64777 
-8.49412 6.63487 -9.20864 -8.75777 6.98016 -8.77619 -8.97688 7.35297 -8.33772 
-9.14605 7.72874 -7.88194 -9.26399 8.08286 -7.40087 -9.33282 8.39218 -6.89076 
-9.35731 8.63589 -6.35255 -9.34387 8.79613 -5.79168 -9.29962 8.85875 -5.21735 
-9.23173 8.8141 -4.64143 -9.14704 8.65782 -4.07707 -9.05202 8.39102 -3.53755 
-8.9526 8.01993 -3.03527 -8.85385 7.55526 -2.5811 -8.75955 7.01085 -2.18389 
-8.67172 6.40228 -1.8503 -8.59038 5.74557 -1.58468 -8.51358 5.05587 -1.38899 
-8.43747 4.34654 -1.2632 -8.35661 3.62884 -1.20512 -8.26436 2.91182 -1.21046 
-8.15341 2.20232 -1.27326 -8.0164 1.50547 -1.3856 -7.84679 0.825042 -1.53756 
-7.63962 0.163839 -1.71699 -7.39216 -0.475793 -1.90948 -7.10435 -1.09157 -2.09857 
-6.77891 -1.68111 -2.2663 -6.42104 -2.24186 -2.39432 -6.03775 -2.77081 -2.46539 
-5.63696 -3.26491 -2.4652 -5.22638 -3.72071 -2.38404 -4.81236 -4.13462 -2.21793 
-4.39885 -4.50297 -1.96922 -3.98655 -4.82166 -1.64647 -3.57266 -5.08686 -1.2636 
-3.15159 -5.295 -0.838168 -2.71604 -5.44377 -0.38964 -2.25838 -5.53295 0.0625154 
-1.77201 -5.56481 0.500692 -1.25239 -5.5444 0.910646 -0.697753 -5.47954 1.28267 
-0.109267 -5.37976 1.61191 0.509163 -5.25504 1.89864 1.15139 -5.11462 2.14749 
1.80978 -4.96579 2.36635 2.47613 -4.81306 2.5654 3.14256 -4.65802 2.7558 
3.80241 -4.50017 2.94842 4.45097 -4.33755 3.15241 5.08584 -4.16796 3.37461 
5.70711 -3.99016 3.61911 6.31697 -3.80458 3.88696 6.91897 -3.6136 4.17674 
7.51715 -3.42168 4.48504 8.11478 -3.23495 4.80757 8.71335 -3.06073 5.14047 
9.31168 -2.90731 5.48086 9.90563 -2.78375 5.82762 10.4885 -2.69944 6.18196 
11.0514 -2.66346 6.54634 11.5848 -2.684 6.92436 12.0796 -2.76704 7.31899 
12.5285 -2.91596 7.73153 12.9267 -3.13112 8.16107 13.2719 -3.40973 8.60403 
13.5639 -3.74705 9.05438 13.8039 -4.13687 9.50402 13.993 -4.5729 9.94439 
14.1324 -5.04958 10.3671 14.2226 -5.56191 10.7651 14.2644 -6.10533 11.1342 
14.2593 -6.67574 11.4728 14.21 -7.26843 11.7826 14.1202 -7.87845 12.0683 
13.9948 -8.50068 12.3368 13.8398 -9.13009 12.5959 13.6611 -9.7621 12.8533 

LINES 2 120
OFFSETS vtktypeint64
0 120 
CONNECTIVITY vtktypeint64
0 1 2 3 4 5 6 7 8 
9 10 11 12 13 14 15 16 17 
18 19 20 21 22 23 24 25 26 
27 28 29 30 31 32 33 34 35 
36 37 38 39 40 41 42 43 44 
45 46 47 48 49 50 51 52 53 
54 55 56 57 58 59 60 61 62 
63 64 65 66 67 68 69 70 71 
72 73 74 75 76 77 78 79 80 
81 82 83 84 85 86 87 88 89 
90 91 92 93 94 95 96 97 98 
99 100 101 102 103 104 105 106 107 
108 109 110 111 112 113 114 115 116 
117 118 119 
CELL_DATA 1
FIELD FieldData 2
Length 1 1 double
76.518271649 
Tortuosity 1 1 double
0.8672554688 
POINT_DATA 120
FIELD FieldData 19
Curvature 1 120 double
0 0.39549573813 0.19927482883 0.098984750391 0.057124118777 0.066603601655 0.10182189343 0.14804517122 0.20237809402 
0.25997667852 0.31114811285 0.34471857731 0.35643161083 0.35232824791 0.34088805447 0.32581035422 0.30582007332 0.27838763994 
0.24266610679 0.20056365524 0.15600531483 0.11293818692 0.073115651379 0.035768046699 0.0090106961219 0.054383218704 0.13037794744 
0.27245161545 0.56379092069 1.0715672358 1.4079176938 1.0619775316 0.60190564461 0.35309326497 0.24618940642 0.20904448858 
0.20720805011 0.22329793048 0.24288083568 0.25166998125 0.23817349484 0.20459217893 0.16551402647 0.13969204761 0.14008199474 
0.16305737198 0.19774392087 0.23636661598 0.27453202634 0.30760295756 0.32883221582 0.33148937701 0.31441768712 0.28344071055 
0.24754707334 0.2141333778 0.18680180175 0.16582228347 0.15027702536 0.13923782857 0.1305676423 0.1232158658 0.11699726113 
0.1108268814 0.10452854174 0.098092676986 0.093097498628 0.09262135226 0.10072817731 0.12022424809 0.1508503449 0.18846596421 
0.22565758874 0.25167987514 0.25687067113 0.24034951834 0.20994337583 0.17973496856 0.15931826953 0.15200543076 0.15386513952 
0.1565032289 0.15242514913 0.13998273326 0.11990158297 0.095286840305 0.069096754859 0.042681732689 0.017369074388 0.011227966593 
0.031482124959 0.047886682873 0.056844034289 0.056794340972 0.049286136109 0.037599100566 0.029357802944 0.032339180114 0.044270266053 
0.061211170626 0.08308862589 0.1102924929 0.14340517203 0.17694751069 0.20431770549 0.21828819813 0.21502439472 0.20004189055 
0.18148166742 0.16643730037 0.15785489453 0.15370438893 0.14936766363 0.14228153887 0.12797364092 0.10840204178 0.08588852615 
0.063970906753 0.046014850283 0 
Torsion 1 120 double
0 0 0.30084475164 0.68868137109 1.3962282509 0.81937610085 0.33532450974 0.19182611829 0.1567952951 
0.1615445328 0.18288372338 0.20879227264 0.22561896851 0.21697125044 0.17505348212 0.1093366574 0.039041800945 -0.021313119318 
-0.066061383083 -0.095033644028 -0.10970037998 -0.10955553114 -0.079048644174 0.15306924716 5.5407387546 0.02714155673 -0.12833703998 
-0.15039881453 -0.12722929713 -0.078834424921 -0.039394944688 -0.00077429616933 0.066741943178 0.12974493056 0.12965380895 0.064343908197 
-0.020162863264 -0.088436684709 -0.14195893781 -0.19510632532 -0.27024316703 -0.39854860969 -0.60491132811 -0.80729709448 -0.76446749934 
-0.55402324178 -0.3829800648 -0.27597527078 -0.20410526852 -0.15024764557 -0.10957876521 -0.081190479187 -0.062224729247 -0.0478068164 
-0.033037930905 -0.013903684991 0.011380413304 0.041634051148 0.075403310962 0.11144383133 0.14940938442 0.1874043911 0.22390842946 
0.26081634798 0.3017439069 0.35760703503 0.42783307997 0.48615718723 0.47580065756 0.3856805768 0.27282513851 0.17511629421 
0.096998813014 0.030187327108 -0.041729844989 -0.13043196292 -0.24390309529 -0.3705744972 -0.45741859819 -0.44875141097 -0.36867036163 
-0.28603992109 -0.22965355773 -0.19074855288 -0.16334391794 -0.14019858425 -0.10260289945 0.00055017706748 0.68994747502 1.6849008743 
0.13506204482 0.038088265406 0.041098726487 0.083396700314 0.18930419608 0.44090625144 0.78713148257 0.56713594527 0.17685667793 
-0.029228144287 -0.1031753013 -0.11565223152 -0.096500424395 -0.066692052799 -0.039056909948 -0.013963895145 0.014943187299 0.04626700383 
0.071305365388 0.0856404135 0.079995021546 0.052992663503 0.023051423458 -0.011402135878 -0.053605395976 -0.10293096319 -0.17862138739 
-0.2989850526 0 0 
FrenetTangent 3 120 double
-0.45494813189 -0.65819148788 0.59983844706 -0.45494813189 -0.65819148788 0.59983844706 -0.45761433549 -0.54281807907 0.70422840967 
-0.46718987687 -0.46919409099 0.74939343734 -0.48782810003 -0.42787102007 0.76088772825 -0.52072618705 -0.41088676354 0.74834237195 
-0.56601194708 -0.41336531997 0.71327385204 -0.62204939164 -0.43255193115 0.65265104092 -0.68365243773 -0.46654335982 0.56120997656 
-0.7403172271 -0.51290607365 0.43457768336 -0.7764897838 -0.56751667145 0.27384017833 -0.77589470887 -0.62448623022 0.089467027462 
-0.72859708929 -0.6776158141 -0.099915413981 -0.63497872986 -0.72190347225 -0.27505888349 -0.50337195419 -0.75333594195 -0.42320401027 
-0.34560067753 -0.76786242528 -0.53939546488 -0.17470026801 -0.76155002761 -0.62411647294 -0.0042829563384 -0.73235404155 -0.68091057718 
0.15251574401 -0.68214640496 -0.71513301562 0.28516756293 -0.61737189107 -0.73316533549 0.3879262857 -0.54762167185 -0.74136610482 
0.46046645108 -0.48290132682 -0.7448335089 0.50648210427 -0.43141901417 -0.74656112426 0.53147890054 -0.39902772093 -0.74719947552 
0.54109614301 -0.38996301154 -0.74507973644 0.54012630036 -0.40820804719 -0.73595500533 0.53173416321 -0.45918088029 -0.71162609483 
0.51583529848 -0.55116228066 -0.65584608349 0.48395031779 -0.692725008 -0.53471876085 0.40788823953 -0.86634244643 -0.28823245752 
0.25031182103 -0.96265676523 0.10313071612 0.054149762387 -0.87853805709 0.47459317891 -0.09758708816 -0.71453068387 0.69276450691 
-0.20055009869 -0.56603621404 0.79961407085 -0.27798984976 -0.44439284073 0.85160827059 -0.34504685349 -0.33652018321 0.87618310597 
-0.40782994826 -0.2284864624 0.88400716615 -0.46587305769 -0.11000201851 0.87798738604 -0.51339091725 0.023135073536 0.85784295443 
-0.54131068668 0.16667593248 0.82413704808 -0.54188975771 0.30795625716 0.78199644127 -0.51361753058 0.43128022769 0.74175089989 
-0.46149029602 0.52527189543 0.71492387185 -0.393227754 0.58491396199 0.70939945768 -0.31589337091 0.60902563537 0.72752948647 
-0.23498560102 0.59737865277 0.7667597489 -0.1547050747 0.54954186527 0.82101770881 -0.078493399472 0.46515370613 0.8817430555 
-0.0094339601761 0.3449568584 0.93857113009 0.049804461547 0.19239814813 0.9800522783 0.097022850273 0.015542303177 0.9951607927 
0.13065474533 -0.17204260303 0.97638654244 0.15028903223 -0.35381566517 0.92316178532 0.15719294532 -0.51569302697 0.84222982604 
0.15415490194 -0.65013426848 0.74401727074 0.14468240622 -0.7562626879 0.63807033172 0.13225122961 -0.83721025281 0.53064922958 
0.11995746245 -0.8972487356 0.4249175375 0.11043189623 -0.94022550247 0.32215027672 0.1059263363 -0.96911756955 0.22268980143 
0.10844789596 -0.98595213958 0.12703319375 0.11970608226 -0.99213913168 0.036474611102 0.14086792672 -0.988900931 -0.047235324577 
0.17234901262 -0.97748507112 -0.12173230299 0.21358910978 -0.95941729729 -0.18411448028 0.26303687084 -0.93663565213 -0.23135526735 
0.31852727728 -0.91139621385 -0.26057113234 0.37772817431 -0.88589916822 -0.26926583534 0.43846098179 -0.86178031854 -0.25512085376 
0.49867972453 -0.83948264498 -0.21584119422 0.55608600532 -0.81759137661 -0.14937434711 0.60738699693 -0.79250651587 -0.054904082424 
0.64811414167 -0.75876569001 0.06498220547 0.67384391989 -0.71070752063 0.20206234619 0.68281011763 -0.64545951189 0.34227527194 
0.67868689776 -0.56463829256 0.46964634926 0.6698174029 -0.47337931571 0.57206351941 0.66540211472 -0.37722312487 0.64416049226 
0.67199101321 -0.27998486224 0.68559212006 0.69208384054 -0.18436374031 0.69787532477 0.72434882523 -0.092875469156 0.6831492711 
0.76451384246 -0.0087076025529 0.64454849495 0.80682474206 0.064045216055 0.587309157 0.84603622036 0.12185454081 0.5190127019 
0.87872383184 0.16345085324 0.44847323881 0.90361029702 0.19004747102 0.38388851231 0.92105338451 0.20484023211 0.33121162751 
0.93196293091 0.21214552031 0.29400573741 0.93711502825 0.21640154181 0.27383534565 0.93697410323 0.22104688241 0.27058788895 
0.93174677296 0.22821024243 0.2824323571 0.9216393369 0.23856398572 0.30605254025 0.90739628964 0.25094705661 0.33713135176 
0.89076211395 0.26291596468 0.37069940904 0.87427634629 0.27165967207 0.40229577787 0.86062532077 0.27457290445 0.42887501372 
0.85170087779 0.26969271767 0.44930107145 0.8478027088 0.25581971022 0.46452862432 0.84777034692 0.2320690924 0.4768955601 
0.84937095089 0.1973207403 0.48952376166 0.84937479618 0.1500274353 0.50601800785 0.84380507839 0.088582670641 0.52928829588 
0.82794470072 0.011664728255 0.56068842209 0.79683682525 -0.080281127947 0.59883721863 0.74703081705 -0.18361186357 0.63893007594 
0.6784152355 -0.29156037054 0.6743480693 0.59560775043 -0.39563520063 0.69908811723 0.50638980068 -0.4894788525 0.70991536307 
0.41775195987 -0.57098639044 0.70672331358 0.33321931618 -0.6413186008 0.69114060768 0.25302502469 -0.70295297659 0.66470704042 
0.17582877338 -0.75755041119 0.62865063188 0.10065973381 -0.8048667221 0.5848565445 0.027854831611 -0.84373309333 0.53603971455 
-0.04086113727 -0.87273638694 0.48647874195 -0.10315748715 -0.89136550497 0.44139106176 -0.15723438194 -0.90065621399 0.40508731569 
-0.20215866402 -0.90246849547 0.38037151477 -0.23782609003 -0.89887689142 0.36804766671 -0.23782609003 -0.89887689142 0.36804766671 

FrenetNormal 3 120 double
-0.013271737022 0.67852035132 0.73446170345 -0.013271737022 0.67852035132 0.73446170345 -0.042481411572 0.80446667945 0.59247674328 
-0.23396474344 0.88297105272 0.40696758948 -0.68945335956 0.72347441861 -0.035197025753 -0.84729847569 0.1413917376 -0.5119508469 
-0.7263960102 -0.15907431644 -0.66861363897 -0.60227389791 -0.26829868145 -0.7518523588 -0.46896466369 -0.30837050493 -0.82763504995 
-0.30734715895 -0.31669545653 -0.8973526128 -0.11045236466 -0.30526640403 -0.94583967865 0.11485058041 -0.27927357854 -0.95331821157 
0.34889341278 -0.24162895743 -0.90547713027 0.56461357518 -0.19065760839 -0.80303249441 0.73843602575 -0.12071878253 -0.66342988432 
0.85833346454 -0.026367584942 -0.51241429929 0.92405220605 0.092077896879 -0.37101102598 0.94101551595 0.22742931309 -0.25053084897 
0.91664047287 0.36815033656 -0.15567778642 0.86029218648 0.50211401318 -0.088197911847 0.7835765821 0.61947149098 -0.047569021931 
0.69934342817 0.71412837092 -0.030650274336 0.62294745631 0.7817215945 -0.029117269075 0.59685275302 0.80234113157 -0.0039369783764 
0.47996306583 -0.58431204519 0.65438130267 -0.1495681988 -0.9071275482 0.39338145001 -0.1529210274 -0.87850529003 0.45259652536 
-0.15139957096 -0.81216055504 0.56344778174 -0.19333524245 -0.68057870473 0.70670652373 -0.29488583893 -0.42376960066 0.85642376634 
-0.41720922022 -0.01112873565 0.90874232751 -0.47685157952 0.39484004711 0.78531134482 -0.48468513016 0.64208150516 0.59397951591 
-0.49506413637 0.76287093245 0.41585988181 -0.51546322611 0.81710928247 0.25812803612 -0.5191698852 0.84613022422 0.12052499306 
-0.48153995727 0.87641324852 0.0043689090413 -0.39646829277 0.91301726729 -0.095981052614 -0.26876539519 0.94501063981 -0.1863331774 
-0.10224233119 0.95983438091 -0.26127469632 0.098357902071 0.94729375963 -0.30489384393 0.33641520494 0.89649533817 -0.2883069866 
0.6138207191 0.77088823163 -0.17016303697 0.86767481193 0.49130902119 0.075867426691 0.93547094102 0.071869376871 0.34601865728 
0.8204495962 -0.30108585012 0.48601416744 0.66354942533 -0.55789334173 0.49845479172 0.52225198081 -0.73420617131 0.43381351587 
0.40225820533 -0.85800818693 0.31939049361 0.30053485523 -0.93867817746 0.1690031951 0.21337416313 -0.97695482029 -0.0055448742701 
0.13690756047 -0.97226253884 -0.18963616602 0.068209063957 -0.92783160176 -0.36670975222 0.0071074635718 -0.85221947502 -0.52313616809 
-0.044204777214 -0.75680242788 -0.65214724014 -0.082057343998 -0.65180463424 -0.75393455358 -0.10160970772 -0.54398209831 -0.83292193152 
-0.098535546168 -0.43665518336 -0.89421641507 -0.070171744174 -0.33069982917 -0.94112355688 -0.014575108991 -0.22543887624 -0.97414828403 
0.069141799809 -0.11999647475 -0.99036369964 0.17992939561 -0.014450406319 -0.98357338229 0.31215162932 0.089641966499 -0.94579367631 
0.45983280145 0.18912870878 -0.86763133083 0.61120207598 0.27825789853 -0.74094842211 0.75581536455 0.34909030003 -0.55396669316 
0.87290999271 0.38919149619 -0.29420762042 0.92299655651 0.38334067188 0.033575079459 0.86670778178 0.33031522522 0.37377730401 
0.72133175844 0.26384933042 0.640362417 0.54856950592 0.22604198018 0.80496988787 0.38473704702 0.2329917201 0.89313619511 
0.23870504768 0.28343931936 0.92880678962 0.11007646842 0.36698315796 0.92369179539 0.0053348710796 0.4728802537 0.88111055198 
-0.05866335271 0.59575110301 0.80102386626 -0.065183285897 0.72996790969 0.68036607063 0.0011380030016 0.86343636884 0.50445648169 
0.1309394098 0.95611120008 0.26211875941 0.27439093215 0.96144749381 -0.018119961565 0.37378518367 0.88551789813 -0.2759396466 
0.4143503462 0.77260672579 -0.48103288647 0.41301670617 0.64967288301 -0.63823377026 0.38830738164 0.52620913527 -0.75651921544 
0.35359363827 0.4082461986 -0.84160951771 0.31945546104 0.29806211899 -0.89950385304 0.29070979869 0.20426575202 -0.93475307729 
0.26446803523 0.15689935322 -0.95154571688 0.20057300277 0.30818290543 -0.92994288392 -0.34615415859 0.69256788062 0.63287204807 
-0.35411028411 0.39899355299 0.84581915997 -0.37617568308 0.35567493232 0.85556250384 -0.40725367779 0.32688109285 0.85281486447 
-0.43831746512 0.28147277282 0.85361049544 -0.45832736882 0.18891909369 0.86847314238 -0.44028010159 -0.021991244606 0.89759111922 
-0.30433028984 -0.44343054599 0.84306134152 -0.068510667868 -0.81577794933 0.57429315317 0.044816651224 -0.92731655035 0.37158509553 
0.037859016326 -0.94787445344 0.31638697096 -0.033684211495 -0.94138493115 0.33564830596 -0.13013285009 -0.92307048986 0.36194794112 
-0.24015537966 -0.89609985129 0.37326994271 -0.35312412781 -0.86611265049 0.3537686066 -0.46413659989 -0.83213369789 0.30353043584 
-0.56732942544 -0.79109199652 0.22871549153 -0.6541069758 -0.744036542 0.13621192448 -0.71588355043 -0.69758914613 0.029666907832 
-0.75211172142 -0.6537146158 -0.083577267155 -0.76637675719 -0.61122302403 -0.19766911981 -0.76454094554 -0.56630332127 -0.30785985596 
-0.75860583461 -0.51125211816 -0.40390402248 -0.75737517121 -0.44318598075 -0.47955086956 -0.7593590469 -0.3665971279 -0.53756895716 
-0.77434534129 -0.28003699286 -0.56742274809 -0.80077600381 -0.18880380741 -0.56842845991 -0.84575489562 -0.088974119635 -0.52610100035 
-0.9086598988 0.02795742269 -0.41660001299 -0.9654415103 0.1771798799 -0.19112817778 -0.9654415103 0.1771798799 -0.19112817778 

FrenetBinormal 3 120 double
-0.89041903522 0.3261810818 -0.31742691062 -0.89041903522 0.3261810818 -0.31742691062 -0.88813537798 0.24120923426 -0.39119516317 
-0.85263950048 0.014799494719 -0.52229001252 -0.53542301951 -0.54176669869 -0.64792826329 0.10454439829 -0.90065556351 -0.42177010883 
0.38984524126 -0.89656258794 -0.2102289556 0.50032060346 -0.86076398879 -0.093619706045 0.55918824075 -0.82900236736 -0.0079741024188 
0.59788638314 -0.79789181436 0.076814877664 0.62037399268 -0.76468114282 0.17435268572 0.62031987307 -0.7293992162 0.28840949792 
0.58942316547 -0.69458783131 0.41246584901 0.52726987715 -0.66521053293 0.52866002641 0.44869690394 -0.64646108476 0.6170568485 
0.37924113086 -0.64007190714 0.668194671 0.34001078932 -0.64153192933 0.68762594977 0.33833630462 -0.64182043079 0.68818244645 
0.36947150272 -0.63177655219 0.6814317257 0.42258350056 -0.60558522594 0.67430684349 0.48530499364 -0.56246384451 0.66941279251 
0.54670779846 -0.50678099649 0.66654602594 0.59616469598 -0.45032097763 0.66467937562 0.6010798362 -0.44387564308 0.66458817623 
-0.69054356811 -0.71169395352 -0.12900115139 -0.82818653308 -0.10240020268 -0.55101838891 -0.83299095977 -0.13183844114 -0.53734968725 
-0.8432034836 -0.19135143902 -0.50238681514 -0.85347148396 -0.23863086547 -0.46329443781 -0.86410041433 -0.2643295123 -0.4283227555 
-0.87365923495 -0.2704960325 -0.40441493245 -0.87731429621 -0.26883492972 -0.39755176547 -0.86922786703 -0.27780792382 -0.40898126197 
-0.84539408491 -0.31245950907 -0.43321807025 -0.81056727417 -0.36721577256 -0.45621625401 -0.78192410066 -0.41330111292 -0.4666657164 
-0.77575382877 -0.42390300106 -0.46745293114 -0.79105953439 -0.39280914647 -0.46896245852 -0.81498155098 -0.32622026151 -0.478941972 
-0.83458327697 -0.22569247829 -0.50252727194 -0.83467431588 -0.088303321824 -0.54361871727 -0.78931732666 0.1014567585 -0.60554494795 
-0.64050826028 0.36030649482 -0.67818021079 -0.30415843606 0.64536121883 -0.70071145489 0.15844714175 0.78988769337 -0.59242884394 
0.5211949994 0.7432940576 -0.419368235 0.73196208919 0.62189931465 -0.27833925779 0.84917115753 0.4945435549 -0.18529710611 
0.91547765491 0.38056105556 -0.13066731171 0.95246958818 0.28612275645 -0.10457271079 0.97214095328 0.21287958083 -0.098103267186 
0.98192955827 0.15845156458 -0.10347678132 0.98628633286 0.11808045503 -0.11530947816 0.98754233423 0.088219432874 -0.13029761994 
0.98705734579 0.067642576155 -0.14540384455 0.98606977118 0.056722708638 -0.1563615704 0.98599446224 0.056235836491 -0.15701099047 
0.98787699302 0.065398450396 -0.14079094197 0.99140341063 0.081324212166 -0.10249707264 0.99426715599 0.099942230616 -0.038004908422 
0.99169474405 0.11618616311 0.055157140247 0.9763687144 0.12430257094 0.1767851928 0.93953051442 0.11848741076 0.32131471482 
0.8711197464 0.093558897276 0.48207584484 0.76211004094 0.045727361303 0.64583070067 0.5996288346 -0.029148200215 0.79974723703 
0.36955178019 -0.13374199295 0.91953497001 0.07347641127 -0.26121369227 0.9624804538 -0.23784362185 -0.38500199293 0.89174204621 
-0.48062358099 -0.47502886188 0.73712180389 -0.62437156554 -0.52957470114 0.5742044793 -0.69502405758 -0.56360294594 0.44642275784 
-0.7231652367 -0.58646123478 0.36482223139 -0.73062818364 -0.60018179071 0.32552154365 -0.73057640423 -0.59980520519 0.32633086494 
-0.73208107874 -0.57119543226 0.37120489263 -0.73965923641 -0.49301001439 0.45808879019 -0.74648424677 -0.33493335313 0.5749616668 
-0.72889158942 -0.086370423154 0.6791591867 -0.6676298181 0.20403119348 0.71599001255 -0.57931288252 0.45522763463 0.67613932353 
-0.49379385911 0.63482519241 0.59427653478 -0.42243465296 0.7575112906 0.49772041208 -0.36529452667 0.84157912097 0.39787497024 
-0.32064928869 0.8981196245 0.30094048209 -0.28537105588 0.9354362255 0.20862029739 -0.25913022949 0.95724395107 0.12859059959 
-0.24799547125 0.96456045491 0.090118672145 -0.28563244631 0.92638742948 0.24539852509 -0.047506087577 -0.68664984273 0.72543446646 
0.080335905907 -0.88810147502 0.45257254921 0.095251184409 -0.90364958211 0.41754597906 0.10380951537 -0.91113902667 0.39880980253 
0.12008603632 -0.92284791471 0.36596594132 0.15992777531 -0.94366869112 0.28967655769 0.25588569594 -0.96131477951 0.10196276432 
0.42660132378 -0.85477200991 -0.29559452232 0.52586771658 -0.5187124572 -0.67409237602 0.52846656154 -0.29364596336 -0.79655203317 
0.52643677936 -0.25019701429 -0.81256739498 0.52671418199 -0.30213602906 -0.79453507816 0.52063272181 -0.37429130529 -0.76736405165 
0.5067869041 -0.44369921189 -0.73911977595 0.49025954787 -0.49335972389 -0.71849965801 0.47594345781 -0.5232974225 -0.70685050228 
0.46678698704 -0.53774157675 -0.70209964062 0.46625687323 -0.5384072921 -0.70194167563 0.48070792795 -0.52323975016 -0.70366188746 
0.50971684151 -0.49662032079 -0.70253611897 0.5492099356 -0.46380692875 -0.69516298771 0.59283680678 -0.43029950153 -0.68072524524 
0.62737662544 -0.40588008844 -0.66457499476 0.64517475774 -0.39468436265 -0.6541970543 0.6500753389 -0.39207271396 -0.65090785886 
0.63144252302 -0.39988808627 -0.6643567254 0.59001383422 -0.4120930221 -0.69430758067 0.50987842245 -0.42532574603 -0.74774461154 
0.36533417972 -0.42984764417 -0.82568876699 0.10659006092 -0.40078376242 -0.9099510617 0.10659006092 -0.40078376242 -0.9099510617 

plain_curvature_peaks 1 120 unsigned_char
0 0 0 0 0 0 0 0 0 
0 0 0 0 0 0 0 0 0 
0 0 0 0 0 0 0 0 0 
0 0 0 0 0 0 1 0 0 
0 0 0 0 0 0 0 0 0 
0 0 0 0 0 0 0 0 0 
0 0 0 0 0 0 0 0 0 
0 0 1 0 0 0 0 0 0 
0 0 0 0 0 0 0 0 0 
0 0 0 0 0 0 0 0 0 
0 0 0 0 0 0 1 0 0 
0 0 0 0 0 0 0 0 0 
0 0 0 0 0 0 0 0 0 
0 1 0 
weighted_curvature_peaks 1 120 unsigned_char
0 0 0 0 0 0 1 0 0 
0 0 0 0 0 0 0 0 0 
0 0 0 0 0 0 0 0 0 
0 0 0 0 0 0 0 0 0 
0 0 0 0 1 0 0 0 0 
0 0 0 0 0 0 0 0 0 
0 0 0 0 0 0 0 0 0 
0 0 0 0 0 0 1 0 0 
0 0 0 0 0 0 0 0 0 
0 0 0 0 0 0 0 0 0 
0 0 0 0 0 0 0 0 0 
1 0 0 0 0 0 0 0 0 
0 0 0 0 0 0 0 0 0 
0 0 0 
plain_torsion_tp 1 120 unsigned_char
0 0 0 0 0 0 0 0 0 
0 0 0 0 0 0 0 0 0 
0 0 0 0 0 0 0 0 0 
0 0 0 0 0 0 1 0 0 
0 0 0 0 0 0 0 0 0 
0 0 0 0 0 0 0 0 0 
0 0 0 0 0 0 0 0 0 
0 0 1 0 0 0 0 0 0 
0 0 0 0 0 0 0 0 0 
0 0 0 0 0 0 0 0 0 
0 0 0 0 0 0 1 0 0 
0 0 0 0 0 0 0 0 0 
0 0 0 0 0 0 0 0 0 
0 1 0 
plain_torsion_tn 1 120 unsigned_char
0 0 0 0 0 0 0 0 0 
0 0 0 0 2 0 0 0 0 
0 0 0 0 0 0 0 0 0 
0 0 0 0 0 0 0 0 0 
0 0 0 0 0 0 0 0 0 
0 0 0 0 0 0 0 0 0 
2 0 0 0 0 0 0 0 0 
0 0 0 0 0 0 0 0 0 
0 0 0 2 0 0 0 0 0 
0 0 0 0 0 0 0 0 0 
0 0 0 0 0 0 0 0 0 
0 0 0 0 0 0 0 0 0 
0 2 0 0 0 0 0 0 0 
0 0 0 
plain_torsion_tz 1 120 unsigned_char
0 0 0 0 0 0 0 0 0 
0 0 0 0 0 0 3 0 0 
0 0 0 0 0 0 0 0 0 
0 0 0 0 0 0 0 0 0 
0 0 0 0 0 0 0 0 0 
0 3 0 0 0 0 0 0 0 
0 0 0 0 3 0 0 0 0 
0 0 0 0 0 0 0 0 0 
0 0 0 0 0 0 0 0 3 
0 0 0 0 0 0 0 0 0 
0 0 0 0 0 0 0 0 0 
0 0 0 0 0 3 0 0 0 
0 0 0 0 3 0 0 0 0 
0 0 0 
weighted_torsion_tp 1 120 unsigned_char
0 0 0 0 0 0 1 0 0 
0 0 0 0 0 0 0 0 0 
0 0 0 0 0 0 0 0 0 
0 0 0 0 0 0 0 0 0 
0 0 0 0 1 0 0 0 0 
0 0 0 0 0 0 0 0 0 
0 0 0 0 0 0 0 0 0 
0 0 0 0 0 0 1 0 0 
0 0 0 0 0 0 0 0 0 
0 0 0 0 0 0 0 0 0 
0 0 0 0 0 0 0 0 0 
1 0 0 0 0 0 0 0 0 
0 0 0 0 0 0 0 0 0 
0 0 0 
weighted_torsion_tn 1 120 unsigned_char
2 0 0 0 0 0 0 0 0 
0 0 0 0 0 0 0 0 0 
0 0 0 0 0 0 0 0 0 
0 0 2 0 0 0 0 0 0 
0 0 0 0 0 0 0 0 0 
0 0 0 0 2 0 0 0 0 
0 0 0 0 0 0 0 0 0 
0 0 0 0 0 0 0 0 0 
0 0 0 0 0 0 0 0 0 
0 0 2 0 0 0 0 0 0 
0 0 0 0 0 0 0 0 0 
0 0 0 0 0 0 0 0 0 
0 0 0 0 0 0 0 0 0 
0 0 0 
weighted_torsion_tz 1 120 unsigned_char
0 3 0 0 0 0 0 0 0 
0 0 0 0 0 0 0 0 0 
3 0 0 0 0 0 0 0 0 
0 0 0 0 0 0 0 3 0 
0 0 0 0 0 0 0 0 0 
0 0 0 0 0 0 0 0 0 
3 0 0 0 0 0 0 0 0 
0 0 0 0 0 0 0 0 0 
0 0 0 0 0 0 3 0 0 
0 0 0 0 0 0 0 3 0 
0 0 0 0 0 0 0 0 0 
0 0 0 0 0 0 0 0 0 
0 0 0 0 0 0 0 0 0 
0 0 0 
plain_torsion_tp_raw 1 120 unsigned_char
0 0 0 0 0 0 0 0 0 
0 0 0 0 0 0 0 0 0 
0 0 0 0 0 0 0 0 0 
0 0 0 0 0 0 0 0 0 
0 0 0 1 0 0 0 0 0 
0 0 0 0 0 0 0 0 0 
0 0 1 0 0 0 0 0 0 
0 0 0 0 0 0 0 0 0 
0 0 0 0 0 0 1 0 0 
0 0 0 0 0 0 0 0 0 
0 0 0 0 0 0 0 0 0 
1 0 0 0 0 0 0 0 0 
0 0 0 0 0 0 0 1 0 
0 1 0 
plain_torsion_tn_raw 1 120 unsigned_char
0 0 0 0 0 0 0 0 0 
0 0 0 0 0 0 0 0 0 
0 0 0 0 0 0 0 0 0 
2 0 0 0 0 0 0 0 0 
0 0 0 0 0 0 0 0 0 
0 0 0 2 0 0 0 0 0 
0 0 0 0 0 0 0 0 0 
0 0 0 0 0 0 0 0 2 
0 0 0 0 0 0 0 0 0 
0 0 0 0 2 0 0 0 0 
0 0 0 0 0 0 0 0 0 
0 0 0 0 0 0 0 0 0 
0 0 2 0 0 0 0 0 0 
2 0 0 
plain_torsion_tz_raw 1 120 unsigned_char
0 0 0 0 0 0 0 0 0 
0 0 0 0 3 0 0 0 0 
0 0 0 0 0 0 0 0 0 
0 0 0 0 0 0 0 3 0 
0 0 0 0 3 0 0 0 0 
0 0 0 0 0 0 0 0 3 
0 0 0 0 0 0 0 0 0 
0 0 0 0 0 0 0 0 0 
0 0 0 0 0 0 0 0 0 
0 0 0 0 0 0 0 0 0 
0 0 0 0 0 0 0 0 0 
0 0 0 0 0 0 0 0 0 
0 0 0 0 0 0 0 0 0 
0 0 0 
weighted_torsion_tp_raw 1 120 unsigned_char
0 0 0 0 0 0 0 0 0 
0 0 1 0 0 0 0 0 0 
0 0 0 0 0 0 0 0 0 
0 0 0 0 1 0 0 0 0 
0 0 0 0 0 0 0 0 0 
0 0 0 0 0 0 0 1 0 
0 0 0 0 0 0 0 0 0 
0 0 0 0 0 0 0 0 0 
1 0 0 0 0 0 0 0 0 
0 0 0 0 0 0 0 0 0 
0 0 1 0 0 0 0 0 0 
0 0 1 0 0 0 0 0 0 
0 0 0 0 0 0 0 0 0 
0 0 0 
weighted_torsion_tn_raw 1 120 unsigned_char
0 0 0 2 0 0 0 0 0 
0 0 0 0 0 0 0 0 0 
0 0 0 2 0 0 0 0 0 
0 0 0 0 0 0 0 0 0 
0 0 0 0 0 0 0 0 0 
2 0 0 0 0 0 0 0 0 
0 0 0 0 2 0 0 0 0 
0 0 0 0 0 0 0 0 0 
0 0 0 0 0 0 0 0 0 
0 0 0 2 0 0 0 0 0 
0 0 0 0 0 0 2 0 0 
0 0 0 0 0 0 0 0 0 
0 0 0 0 0 0 0 0 0 
0 0 0 
weighted_torsion_tz_raw 1 120 unsigned_char
3 0 0 0 0 0 0 3 0 
0 0 0 3 0 0 0 0 0 
0 0 0 0 0 0 0 0 0 
3 0 0 0 0 0 0 0 0 
0 0 0 0 0 0 0 0 0 
0 0 0 0 0 0 0 0 0 
0 0 0 0 0 0 0 0 0 
0 0 0 0 0 0 0 0 0 
0 0 0 0 0 0 0 0 0 
0 0 0 0 0 0 0 0 0 
0 0 0 0 0 0 0 0 0 
0 0 0 0 0 0 0 0 0 
0 0 0 0 0 0 0 0 0 
0 0 0 
