# vtk DataFile Version 5.1
vtk output
ASCII
DATASET POLYDATA
POINTS 120 float
-19.937 26.0568 -21.3539 -20.373 25.8091 -21.3167 -20.7924 25.5359 -21.2683 
-21.1953 25.2412 -21.2085 -21.5826 24.9284 -21.1378 -21.955 24.6004 -21.0566 
-22.3133 24.2596 -20.9649 -22.6579 23.908 -20.8627 -22.9891 23.5471 -20.7489 
-23.3068 23.1786 -20.622 -23.6103 22.8042 -20.4786 -23.8984 22.4267 -20.3131 
-24.168 22.0514 -20.1152 -24.4135 21.6897 -19.8675 -24.6242 21.368 -19.5451 
-24.7887 21.131 -19.1353 -24.9167 21.0038 -18.667 -25.0406 20.9571 -18.1821 
-25.1852 20.9461 -17.7007 -25.3548 20.9413 -17.2273 -25.5377 20.9262 -16.7591 
-25.7079 20.8922 -16.2873 -25.8199 20.8319 -15.8015 -25.8017 20.7374 -15.3106 
-25.6 20.6119 -14.871 -25.2662 20.4707 -14.5242 -24.8753 20.3172 -14.2482 
-24.4646 20.1473 -14.0133 -24.051 19.9557 -13.8009 -23.6452 19.7376 -13.5995 
-23.2556 19.4886 -13.4021 -22.8905 19.2052 -13.2043 -22.5589 18.885 -13.0038 
-22.2697 18.5277 -12.8006 -22.0298 18.1358 -12.5972 -21.8434 17.7139 -12.3975 
-21.7105 17.2683 -12.2067 -21.6274 16.805 -12.0304 -21.5871 16.3289 -11.8739 
-21.5815 15.8437 -11.7423 -21.6015 15.3518 -11.6404 -21.6379 14.855 -11.5726 
-21.6812 14.3549 -11.5435 -21.7216 13.854 -11.5566 -21.7495 13.3554 -11.6144 
-21.7563 12.8634 -11.7171 -21.7348 12.3825 -11.8618 -21.6811 11.9167 -12.0431 
-21.5937 11.4686 -12.2535 -21.4739 11.0387 -12.4851 -21.3249 10.6256 -12.73 
-21.1504 10.2267 -12.9814 -20.9544 9.83818 -13.2334 -20.7408 9.45573 -13.4803 
-20.5141 9.07413 -13.7167 -20.2792 8.68729 -13.9358 -20.0428 8.28801 -14.1295 
-19.8146 7.86856 -14.2865 -19.6081 7.42285 -14.3923 -19.4397 6.95134 -14.4318 
-19.3198 6.46472 -14.3988 -19.2445 5.97743 -14.3019 -19.1995 5.49804 -14.1574 
-19.1685 5.02847 -13.9803 -19.1372 4.56768 -13.7814 -19.0937 4.11468 -13.5675 
-19.0275 3.67017 -13.342 -18.9294 3.23723 -13.106 -18.7908 2.82168 -12.8594 
-18.6047 2.43199 -12.6023 -18.3671 2.07836 -12.3358 -18.0788 1.77011 -12.0631 
-17.7462 1.51188 -11.7887 -17.3787 1.30229 -11.5174 -16.9851 1.13654 -11.2523 
-16.5725 1.00796 -10.9953 -16.1464 0.909241 -10.7472 -15.7106 0.833432 -10.5082 
-15.2674 0.774676 -10.278 -14.8184 0.72838 -10.0563 -14.3645 0.691213 -9.84291 
-13.9065 0.661097 -9.63763 -13.4444 0.637037 -9.44053 -12.9787 0.618892 -9.2517 
-12.5094 0.607433 -9.07139 -12.0367 0.604037 -8.89975 -11.561 0.610734 -8.73692 
-11.0827 0.629861 -8.58281 -10.6027 0.663894 -8.43689 -10.1221 0.715079 -8.29798 
-9.64241 0.785054 -8.16426 -9.16523 0.874667 -8.03336 -8.6921 0.983721 -7.90252 
-8.22437 1.11108 -7.76881 -7.76309 1.25483 -7.62941 -7.30902 1.41255 -7.48168 
-6.86256 1.5813 -7.32334 -6.42389 1.75796 -7.15236 -5.99303 1.93923 -6.96694 
-5.57005 2.12179 -6.76537 -5.15514 2.3022 -6.5459 -4.74869 2.47678 -6.30679 
-4.35132 2.64157 -6.04644 -3.96415 2.79208 -5.76312 -3.5887 2.92338 -5.45556 
-3.22728 3.02978 -5.12267 -2.88265 3.10534 -4.76457 -2.55807 3.144 -4.38268 
-2.25686 3.1402 -3.9803 -1.98179 3.08954 -3.56268 -1.7341 2.98988 -3.13684 
-1.51331 2.84096 -2.71055 -1.31719 2.64418 -2.29165 -1.14202 2.40214 -1.8874 
-0.983379 2.11803 -1.50425 -0.836669 1.79523 -1.1479 -0.697427 1.43732 -0.823519 
-0.561473 1.04832 -0.535604 -0.425148 0.632697 -0.287863 -0.285448 0.195293 -0.0832495 

LINES 2 120
OFFSETS vtktypeint64
0 120 
CONNECTIVITY vtktypeint64
0 1 2 3 4 5 6 7 8 
9 10 11 12 13 14 15 16 17 
18 19 20 21 22 23 24 25 26 
27 28 29 30 31 32 33 34 35 
36 37 38 39 40 41 42 43 44 
45 46 47 48 49 50 51 52 53 
54 55 56 57 58 59 60 61 62 
63 64 65 66 67 68 69 70 71 
72 73 74 75 76 77 78 79 80 
81 82 83 84 85 86 87 88 89 
90 91 92 93 94 95 96 97 98 
99 100 101 102 103 104 105 106 107 
108 109 110 111 112 113 114 115 116 
117 118 119 
CELL_DATA 1
FIELD FieldData 2
Length 1 1 double
59.816495717 
Tortuosity 1 1 double
0.54063930994 
POINT_DATA 120
FIELD FieldData 19
Curvature 1 120 double
0 0.12852437819 0.11633540644 0.10392600503 0.093944153508 0.086057124481 0.080778023025 0.078892968487 0.080391580782 
0.088840174149 0.10787777198 0.14757071724 0.22660281045 0.36633355248 0.52632245903 0.52443956284 0.3279592802 0.16463817841 
0.10641098795 0.069548127355 0.091561242538 0.25962706807 0.54651717995 0.80180042513 0.66483121781 0.36677279926 0.1929668802 
0.12380434776 0.11798288573 0.13894027481 0.16762693288 0.19732952377 0.22387349248 0.23970946574 0.24392926618 0.23541180919 
0.21743011271 0.19376719114 0.17311166755 0.15750761654 0.15155730937 0.15611553287 0.16774241674 0.18409520389 0.1986762572 
0.20555949649 0.20279775926 0.18988500871 0.16941690404 0.14337537729 0.11875317342 0.094482065063 0.07604340958 0.066998025921 
0.078036774555 0.11239736716 0.16898936223 0.24462043506 0.32153408542 0.35377706776 0.31089786194 0.22592306071 0.14609427482 
0.09275089912 0.082713413594 0.10627380362 0.14064811298 0.17979491102 0.21876150882 0.25281753171 0.27156867252 0.26589867303 
0.23820929133 0.20408864151 0.1683708369 0.13458113136 0.1048361401 0.081310496276 0.063955421567 0.052321843201 0.045800466752 
0.043166492488 0.042789663166 0.045133529416 0.048637462812 0.05438258358 0.060893648496 0.067617742732 0.073348380998 0.077194611127 
0.079108682008 0.078562296514 0.076340978036 0.073235388239 0.07040060817 0.067593336692 0.066526225547 0.067465558349 0.071262767386 
0.078165189326 0.087676250455 0.099281252666 0.11443304821 0.13096533775 0.15131594223 0.17133164828 0.19146008902 0.20880293286 
0.2214771329 0.22531232323 0.22280604819 0.2158041665 0.20621746157 0.1979111442 0.19261423113 0.19059364975 0.19055734828 
0.19114238783 0.19211199962 0 
Torsion 1 120 double
0 0 0.088402246252 0.082107517635 0.085736412266 0.10429775959 0.13969036167 0.18948983726 0.25690216583 
0.33152930899 0.38819990616 0.39108588692 0.34455392088 0.28882717124 0.27177615711 0.36435907903 0.76487445051 1.6216603029 
1.6086066514 2.4438467253 2.1898382094 0.44981904939 0.10999260827 0.0041633813818 -0.090760985187 -0.34077665806 -0.80281512454 
-1.2121848718 -0.90243128304 -0.46969531759 -0.2364472692 -0.11544008849 -0.041385879181 0.013449511972 0.064147966301 0.12091245959 
0.19019107266 0.28020788262 0.38213769445 0.48023954549 0.52787942501 0.50027325748 0.42986360353 0.3504399641 0.28715336075 
0.24437884639 0.21868383286 0.20952706801 0.21675467966 0.25335729181 0.32670219994 0.48801285817 0.77357652419 1.1159219237 
1.0022302535 0.62358863259 0.3516668354 0.18996748635 0.086703329242 0.0084577364965 -0.077861125245 -0.22077850673 -0.52392845253 
-1.1348795705 -1.1336819837 -0.46801002504 -0.13776198164 -0.012873924036 0.029901775264 0.034825328546 0.02071350877 -0.00050396217525 
-0.019820235624 -0.036403973498 -0.060033664107 -0.094744779991 -0.13977509521 -0.19117277159 -0.23702339015 -0.24542056737 -0.18861084887 
-0.082660714982 0.03764560139 0.13862926717 0.20237827183 0.22591704063 0.23770475768 0.24827525956 0.26027751702 0.27447492318 
0.29099918768 0.31470408764 0.34231929398 0.37238565441 0.39680859212 0.42435767901 0.43787666366 0.42513057557 0.38433362827 
0.33109118572 0.2763002866 0.22931480553 0.1869374209 0.15722398704 0.13293197006 0.11954376722 0.11323351062 0.11582047513 
0.12620904292 0.14638259595 0.17405328274 0.20646340623 0.23637081574 0.25355688369 0.25613508879 0.245398132 0.22395601981 
0.19662025483 0 0 
FrenetTangent 3 120 double
-0.85100653545 -0.518206867 0.085144110878 -0.85100653545 -0.518206867 0.085144110878 -0.81804912971 -0.56498837668 0.10762785701 
-0.78608405445 -0.6043468563 0.12975645116 -0.75563791018 -0.6373147436 0.15113327329 -0.7266795719 -0.66510379155 0.17197018999 
-0.69899110628 -0.68863592135 0.19285227808 -0.67207285773 -0.70863505067 0.21483584167 -0.64534407232 -0.72541953922 0.23936900478 
-0.61791964051 -0.73885799468 0.26881997985 -0.58847970926 -0.74785251557 0.30725925006 -0.55498765216 -0.74913453156 0.36164369146 
-0.51334605592 -0.73438515126 0.44402058115 -0.45612760929 -0.68332745643 0.57009752791 -0.37723983783 -0.56179776399 0.7362563257 
-0.29407492379 -0.36615878511 0.88286334349 -0.25161751637 -0.17376366624 0.95210021203 -0.2673280253 -0.057444880574 0.9618917884 
-0.31250928104 -0.015730574877 0.94978444832 -0.35051788064 -0.019823384673 0.9363462227 -0.35118904689 -0.048764873489 0.93503381781 
-0.28143440148 -0.094037816806 0.95496155246 -0.094443474232 -0.15589528876 0.98324823372 0.22411833941 -0.22423303463 0.94841473846 
0.54196268451 -0.26989347469 0.79588564563 0.72472170786 -0.2946718262 0.62285388415 0.79836091518 -0.32208188353 0.50880557132 
0.82012371913 -0.35967478782 0.44500689021 0.81512411667 -0.40758957214 0.41163505087 0.79151608795 -0.46482937249 0.39678197665 
0.75120064634 -0.52997359104 0.39347881995 0.69376731147 -0.60107201471 0.39673587015 0.61861748733 -0.67498034639 0.40213671351 
0.52740663514 -0.74675671272 0.40521186214 0.4249119917 -0.81113979645 0.40187315154 0.31817970937 -0.8644718771 0.38916583386 
0.21518162072 -0.90553563982 0.36565294354 0.12291503169 -0.9354689965 0.3313452151 0.045694209479 -0.95690586218 0.28678077018 
-0.014385886897 -0.97249392741 0.23248356372 -0.056193205161 -0.98402458917 0.16893173654 -0.079280116329 -0.9921812686 0.096389799265 
-0.083251598106 -0.99640190105 0.01588782551 -0.068059499208 -0.99517884285 -0.070618519666 -0.034554157992 -0.98654201042 -0.15981511767 
0.014618600895 -0.96905460996 -0.24641318842 0.074879353102 -0.94285637689 -0.32467666229 0.14057944532 -0.91000965782 -0.39002543791 
0.20623912329 -0.87401525223 -0.43995768308 0.26741515382 -0.83888026135 -0.47409813607 0.32183445078 -0.80784889212 -0.49376386441 
0.36859475198 -0.78321025494 -0.50071908829 0.40734721707 -0.76672230473 -0.49619064096 0.43785222964 -0.75980669406 -0.48060296781 
0.45909510319 -0.76422081649 -0.45298811229 0.46881676345 -0.78201777489 -0.41068119272 0.46247463643 -0.81501343124 -0.34909929469 
0.43323593427 -0.86237337478 -0.26195188055 0.37432980931 -0.91587531273 -0.14508482136 0.28817955669 -0.95755415952 -0.0065249280498 
0.19480565659 -0.97223133208 0.12968034968 0.11987035648 -0.96320714772 0.24054747602 0.075700847907 -0.94436058007 0.32008198394 
0.061920955742 -0.92535831588 0.37400238298 0.074356153133 -0.90880801841 0.41053519723 0.10912834688 -0.89276950417 0.4370968043 
0.16346636266 -0.87313518151 0.45925341924 0.23564849213 -0.84476370695 0.48046234772 0.32350866474 -0.80222805498 0.50176916171 
0.42245823288 -0.74102463584 0.5219305802 0.52449530363 -0.66009824684 0.5377499242 0.61908271278 -0.56488551567 0.5455647981 
0.69771842355 -0.46623974611 0.54388371973 0.75812307687 -0.3738410028 0.53431479949 0.80254177252 -0.2929896005 0.51969587006 
0.83446551693 -0.22616342162 0.50251110215 0.85739259845 -0.17360060953 0.48450052683 0.87425109169 -0.13382963206 0.46666332431 
0.88721495222 -0.10446586868 0.44937346478 0.89773064571 -0.082991515292 0.43265701907 0.90674771899 -0.066901993311 0.41633243617 
0.91488826097 -0.053869240003 0.40009695689 0.92248704488 -0.041964924897 0.38374027297 0.92973819238 -0.02943605616 0.36704279344 
0.93664851943 -0.014770870938 0.34995910106 0.94306583058 0.0032819098486 0.33258994011 0.94868985154 0.025678893372 0.31516370353 
0.95298595061 0.052864929279 0.29836735275 0.95529277135 0.084747826527 0.2832552328 0.95497377827 0.12049311729 0.27112080611 
0.95160658174 0.15871125395 0.26316468507 0.94509353508 0.19757599621 0.26031122847 0.93568369429 0.23511113384 0.26309461984 
0.92387675793 0.26961036546 0.27159158122 0.91026752234 0.29979544092 0.28554462238 0.89551807284 0.32465670437 0.30437707785 
0.88020866517 0.34349181705 0.32748446892 0.86469578821 0.35593680965 0.35441526687 0.84910915733 0.36181165198 0.3848453812 
0.83328395881 0.36097543712 0.41872971926 0.81689901571 0.35306512109 0.45609321241 0.79953034823 0.33756409748 0.49679140728 
0.78046068914 0.31365516126 0.54083412662 0.75878214657 0.28039167242 0.58790319279 0.73333767205 0.23656241461 0.63738064196 
0.70286655545 0.18113696545 0.68787208475 0.66639035632 0.11374138547 0.73687637378 0.62333052293 0.034723133598 0.78118714991 
0.57414445288 -0.05425469506 0.81695445118 0.52086001277 -0.14978239376 0.84039876345 0.46675408403 -0.24766631949 0.84900060025 
0.41531922022 -0.34438454054 0.84196747773 0.36981300542 -0.43707991719 0.81987772687 0.33244201351 -0.52398483644 0.78416975129 
0.30407313392 -0.60436787427 0.73639595449 0.28474207056 -0.67782328183 0.67784773502 0.27403185052 -0.74374840521 0.60970882776 
0.27113023776 -0.80123402569 0.53339706623 0.27486422649 -0.84943677959 0.45045178929 0.27486422649 -0.84943677959 0.45045178929 

FrenetNormal 3 120 double
0.51278297765 -0.78497800738 0.34765377284 0.51278297765 -0.78497800738 0.34765377284 0.55819196016 -0.73480317363 0.38533885301 
0.59637011682 -0.68632974795 0.4162861526 0.62766584961 -0.63862508666 0.44518937534 0.65200287845 -0.58887103665 0.47762239132 
0.66801735261 -0.53248799853 0.51981664847 0.67300782644 -0.46355262129 0.57635009572 0.66241983928 -0.37537722649 0.64829923212 
0.62990384231 -0.26060305228 0.73164690841 0.56967818807 -0.11386305606 0.81394223781 0.49178070691 0.055164001965 0.8689698897 
0.42060347598 0.23569229977 0.87609466145 0.37750099018 0.43155416266 0.81930092585 0.35253601654 0.64803208455 0.67510945367 
0.28341826561 0.8487553861 0.44641727261 0.051437133212 0.97995938633 0.19244173788 -0.4968314701 0.86352461066 -0.086508595538 
-0.92673881663 0.22456484031 -0.30120723472 -0.7603671968 -0.57767594127 -0.29687073434 0.5503263204 -0.81868489268 0.16399996214 
0.88730194324 -0.40442267642 0.22166993553 0.96528032031 -0.25596069087 0.052134709715 0.9512835552 -0.16109518713 -0.26288388747 
0.80788684687 -0.093563044339 -0.58186321364 0.61502486852 -0.13093973341 -0.77755977089 0.40547803342 -0.33715500299 -0.84965526443 
0.086389073954 -0.69098078335 -0.7176924724 -0.25804368383 -0.89167362878 -0.37192955915 -0.46106825165 -0.88032612494 -0.11154362855 
-0.58043629909 -0.81422511821 0.011452492477 -0.67112141212 -0.73942771142 0.053317068392 -0.75010064143 -0.65967685347 0.046642005958 
-0.81834423232 -0.57469680212 0.0060252016866 -0.87145141751 -0.48668476153 -0.060912804987 -0.90365837625 -0.40067231256 -0.15120594228 
-0.90837418102 -0.32306206871 -0.26549434461 -0.87681307233 -0.25875576288 -0.40527063966 -0.79474318525 -0.20875247771 -0.56991725062 
-0.64527669867 -0.16858142573 -0.74511628962 -0.42764105689 -0.12917152751 -0.89467191917 -0.17348259426 -0.08148613366 -0.9814600346 
0.067458039853 -0.021541437582 -0.99748953845 0.2675017741 0.049988329073 -0.96225982344 0.42407599266 0.13032666104 -0.89620004121 
0.54313854917 0.2146078541 -0.8117536482 0.63330461172 0.29646306571 -0.71486706418 0.70224502736 0.36934213348 -0.60863643498 
0.75729739648 0.42730239343 -0.49387581218 0.80555162059 0.46461269454 -0.36772493884 0.85328749079 0.47346724991 -0.21847018406 
0.89915452096 0.43708868065 -0.021786066505 0.9122210458 0.31551277725 0.26135120238 0.77684254336 0.050657473817 0.62765395176 
0.41473025825 -0.26655992432 0.87002564309 0.052730671675 -0.43933454996 0.89677457004 -0.19011044646 -0.47573169408 0.85879996122 
-0.35236089552 -0.42957594003 0.83144832134 -0.4701374261 -0.32230764832 0.82163774282 -0.54826703926 -0.1705819459 0.818721597 
-0.57326094052 -0.0055751894007 0.81935389871 -0.53089690722 0.14254999554 0.83536098345 -0.38139022312 0.26917187282 0.88435739415 
0.010327576462 0.37529542936 0.92684771234 0.58667257058 0.37276259987 0.71893208237 0.84475201604 0.31505395798 0.43259107128 
0.89826687255 0.32420805545 0.29665765193 0.8940913282 0.38220747654 0.23349120263 0.86275129939 0.46785517984 0.19175955281 
0.81075349874 0.5663921682 0.14791442144 0.74164321678 0.66442380356 0.092229866496 0.66230812702 0.74885297961 0.023815117148 
0.5819186705 0.81166385183 -0.050719350861 0.50712108035 0.85310281949 -0.12265312567 0.44384039171 0.87531136503 -0.19192634246 
0.39689160437 0.87927715037 -0.26334150303 0.36803665682 0.8648652027 -0.34140474571 0.35623447777 0.82990058287 -0.42937398548 
0.35779642697 0.77071124 -0.52724368312 0.36496871202 0.69014287168 -0.62490051681 0.36771086809 0.60870992526 -0.70303694382 
0.3605357987 0.55493326194 -0.7497086185 0.34268407691 0.54668213587 -0.76400671839 0.31357588769 0.58581480439 -0.74732267302 
0.27331821898 0.6556627229 -0.70384909247 0.22362024654 0.73396147558 -0.64132249119 0.16618350516 0.80746257783 -0.56602758591 
0.10153686042 0.8720244428 -0.47881482551 0.030177589559 0.92508692235 -0.37855448643 -0.046013491567 0.962910597 -0.26586827713 
-0.12487429452 0.9821360057 -0.14076674632 -0.20391628938 0.97898459393 -0.002704030989 -0.27994757811 0.94854376567 0.14796647635 
-0.34875731762 0.88533204082 0.30749879822 -0.4054979874 0.78478140767 0.46871049101 -0.44499942137 0.64591050776 0.62030245119 
-0.46300583277 0.47001312936 0.75147405614 -0.45827976581 0.27020102461 0.84674143783 -0.43696313698 0.071786200301 0.89661026002 
-0.40838429601 -0.10860963153 0.90632566703 -0.38122013182 -0.26290659163 0.88631333916 -0.36157041564 -0.38995546601 0.84687754077 
-0.35218130157 -0.49418819782 0.79482473285 -0.35400141136 -0.58012661105 0.7335776141 -0.3664853206 -0.65208697103 0.66367996203 
-0.38781530863 -0.71308508546 0.58404532982 -0.41497171569 -0.76450613065 0.49328374327 -0.44371285249 -0.80689776531 0.38991653064 
-0.4684567285 -0.84010886519 0.27343260259 -0.48252437602 -0.86377880367 0.14510825226 -0.47953637751 -0.87748859016 0.0076574658699 
-0.45392228314 -0.88056062773 -0.13626276734 -0.4032808492 -0.87048925898 -0.28215776911 -0.33132085277 -0.84335008209 -0.42306870784 
-0.24583822394 -0.79659758812 -0.55226429384 -0.15540354736 -0.7304057569 -0.66509936682 -0.068432659496 -0.64744975015 -0.75902950677 
0.0077197608993 -0.55232628521 -0.83359227441 0.069672126667 -0.44966877087 -0.89047391386 0.069672126667 -0.44966877087 -0.89047391386 

FrenetBinormal 3 120 double
-0.11332031793 0.33951608347 0.93374907476 -0.11332031793 0.33951608347 0.93374907476 -0.13862668214 0.37530311782 0.91647706614 
-0.16252551522 0.40461877658 0.89992727625 -0.18720825284 0.4312631636 0.88259002588 -0.21640019935 0.45920349374 0.86157013937 
-0.25527289309 0.49217588243 0.83222512027 -0.30883416173 0.53193545873 0.78845807009 -0.38043525712 0.57693884421 0.72277976257 
-0.47052786031 0.62142973282 0.62644123415 -0.57372327287 0.6540273843 0.49304136414 -0.67092506456 0.66011694912 0.33779456957 
-0.74804314238 0.63649633891 0.18789323483 -0.80587877901 0.58891815389 0.061113022922 -0.85639270302 0.51423505304 -0.046409572671 
-0.91279462417 0.381499723 -0.14582158767 -0.96645892142 0.097395017569 -0.23763704208 -0.82564775614 -0.50102428332 -0.25938475343 
-0.20855003001 -0.97433217206 -0.08475673114 0.54678966832 -0.81602545321 0.1874126952 0.75750062338 0.5721687108 0.31434976055 
0.36536275013 0.90972478685 0.19725839147 0.24354534158 0.9540339531 0.17465647118 0.21173230161 0.96112844452 0.17720481255 
0.23150656848 0.958333694 0.16733570958 0.31068127921 0.94658507333 0.086335633937 0.44520491184 0.88464103695 -0.13857424801 
0.56562709732 0.6270403528 -0.53561775804 0.51863872943 0.19694892844 -0.8320005937 0.40114629481 -0.094654995752 -0.91111035662 
0.31431082012 -0.23699250977 -0.91926234486 0.26131009879 -0.30324757661 -0.91638307468 0.2337978445 -0.33049656728 -0.91439082832 
0.22837460155 -0.3347805216 -0.91420295543 0.24499433916 -0.32433034628 -0.91366711677 0.28664125937 -0.30356230275 -0.90867305274 
0.35854318758 -0.27502018977 -0.89208221474 0.4648556025 -0.24071396254 -0.85203641768 0.60522335441 -0.20187514453 -0.77003319234 
0.7638134775 -0.16073538516 -0.62510247763 0.90220033815 -0.12251662906 -0.41355075317 0.98164069427 -0.094532218151 -0.16566595029 
0.99424271899 -0.081970836604 0.069008678255 0.96115071941 -0.084381500986 0.26280992537 0.90496716107 -0.098741192487 0.41386545433 
0.83951582052 -0.12196979905 0.52946818149 0.77027160875 -0.15209044423 0.61931425425 0.69791786129 -0.18833165188 0.69097166931 
0.61964996354 -0.23132229344 0.75001594599 0.52874920527 -0.28357530075 0.80000582919 0.41027191514 -0.3510112972 0.84170542643 
0.23592171638 -0.44219360218 0.86533563542 -0.043829309059 -0.55909623038 0.82794347442 -0.45254954184 -0.64817251408 0.61243065253 
-0.78564018426 -0.58729238919 0.19456914062 -0.88172009083 -0.44207844661 -0.16473107925 -0.86601110201 -0.33080577706 -0.37495640954 
-0.82954712016 -0.26791169108 -0.48997438833 -0.79927967223 -0.23935369511 -0.55123662269 -0.78508330562 -0.2323614239 -0.57415361352 
-0.79587853988 -0.23395545344 -0.55842832626 -0.83891571182 -0.22784092994 -0.49427617696 -0.9213093288 -0.18902274386 -0.33979335333 
-0.99802762307 -0.053528757968 0.032795360434 -0.80640340861 0.18739271546 0.56088992929 -0.52391319443 0.32203045815 0.78855015612 
-0.40791589078 0.36403858529 0.83730552038 -0.38088119537 0.3745553688 0.84536252029 -0.38859019446 0.37086611938 0.84347850137 
-0.40522562326 0.3606693789 0.84006535066 -0.41817462318 0.35044445178 0.83804455177 -0.42200063936 0.34658847227 0.83773020196 
-0.41780337764 0.35188391662 0.83762643634 -0.40997269444 0.36394846339 0.83633958761 -0.39866327902 0.38469092562 0.83251455345 
-0.38228831455 0.419191841 0.82348882506 -0.35975957439 0.47103185617 0.80542041141 -0.32982120235 0.54162224118 0.77321621966 
-0.29125821089 0.6285626992 0.72116405052 -0.24673371679 0.71889861946 0.64985171227 -0.20639111319 0.79056710669 0.5765469263 
-0.18164087588 0.83014889012 0.52712371644 -0.17772246749 0.83628798114 0.51868789956 -0.19302087007 0.80991020092 0.55388483475 
-0.219058673 0.75490940859 0.61816266679 -0.24621296581 0.67918317222 0.69144008709 -0.26901785852 0.58935963539 0.76176414458 
-0.28549613642 0.48659908591 0.82565930364 -0.2941173815 0.3701783246 0.88117136466 -0.29310039477 0.24142201821 0.92509867999 
-0.28080477946 0.10109205789 0.95442604306 -0.25537493392 -0.050526137587 0.96552097468 -0.21476819541 -0.21210252086 0.95335572736 
-0.1575438655 -0.37881054412 0.91196628343 -0.083572842388 -0.54243970704 0.83592747547 0.0047849966104 -0.69093967919 0.72289657872 
0.10420318895 -0.81308119511 0.57274834401 0.20562307774 -0.8945951005 0.39676032572 0.29677745174 -0.92948322736 0.21905267449 
0.37263938435 -0.92622928141 0.056914036036 0.43283623835 -0.89790040893 -0.080172603924 0.47960197746 -0.8567293707 -0.1897280385 
0.51657472212 -0.8108011254 -0.2752309785 0.54674734092 -0.76474415669 -0.34093066745 0.57262934656 -0.72029216725 -0.39150328895 
0.59630352307 -0.67727325404 -0.43095596959 0.61945328168 -0.63450238252 -0.46226005494 0.64387728934 -0.58966965356 -0.48755690535 
0.67149567441 -0.53969762154 -0.50775982171 0.70418397712 -0.48109397507 -0.5221814948 0.74309184337 -0.41070082581 -0.52833639283 
0.78833020124 -0.32559525354 -0.52203757018 0.83702024927 -0.22629537334 -0.49818420922 0.88301121181 -0.11916597763 -0.45397210223 
0.92038203855 -0.013105538988 -0.3908006499 0.94592372352 0.084041828243 -0.31331339005 0.95928281336 0.16627426374 -0.22831853451 
0.96251171394 0.23012976937 -0.14356702193 0.95895539613 0.27614335766 -0.064415791979 0.95895539613 0.27614335766 -0.064415791979 

plain_curvature_peaks 1 120 unsigned_char
0 0 0 0 0 0 0 0 0 
0 0 0 0 0 1 0 0 0 
0 0 0 0 0 0 0 0 0 
0 0 0 0 0 0 0 0 0 
0 0 0 0 0 0 0 0 0 
0 1 0 0 0 0 0 0 0 
0 0 0 0 0 0 0 0 0 
0 0 0 0 1 0 0 0 0 
0 0 0 0 0 0 0 0 0 
0 0 0 0 0 0 0 0 0 
0 0 0 0 0 0 0 0 0 
0 0 1 0 0 0 0 0 0 
0 0 0 0 0 0 0 0 0 
0 0 0 
weighted_curvature_peaks 1 120 unsigned_char
0 0 0 0 0 0 0 0 0 
0 0 0 0 0 0 0 1 0 
0 0 0 0 0 0 0 0 0 
0 0 0 0 0 0 0 0 0 
0 0 0 0 0 0 0 0 0 
0 0 0 0 0 0 1 0 0 
0 0 0 0 0 0 0 0 0 
0 0 0 0 0 0 0 0 0 
1 0 0 0 0 0 0 0 0 
0 0 0 0 0 0 0 0 0 
0 0 0 0 0 0 0 0 0 
0 0 0 0 0 0 0 1 0 
0 0 0 0 0 0 0 0 0 
0 0 0 
plain_torsion_tp 1 120 unsigned_char
0 0 0 0 0 0 0 0 0 
0 0 0 0 0 1 0 0 0 
0 0 0 0 0 0 0 0 0 
0 0 0 0 0 0 0 0 0 
0 0 0 0 0 0 0 0 0 
0 1 0 0 0 0 0 0 0 
0 0 0 0 0 0 0 0 0 
0 0 0 0 1 0 0 0 0 
0 0 0 0 0 0 0 0 0 
0 0 0 0 0 0 0 0 0 
0 0 0 0 0 0 0 0 0 
0 0 1 0 0 0 0 0 0 
0 0 0 0 0 0 0 0 0 
0 0 0 
plain_torsion_tn 1 120 unsigned_char
0 0 2 0 0 0 0 0 0 
0 0 0 0 0 0 0 0 0 
0 0 0 0 0 0 0 0 0 
0 0 0 0 0 0 0 2 0 
0 0 0 0 0 0 0 0 0 
0 0 0 0 0 0 0 0 0 
0 0 2 0 0 0 0 0 0 
0 0 0 0 0 0 0 0 0 
0 0 0 2 0 0 0 0 0 
0 0 0 0 0 0 0 0 0 
0 0 0 0 0 0 0 0 0 
0 0 0 0 0 0 0 0 0 
0 0 0 0 0 0 0 0 0 
0 0 0 
plain_torsion_tz 1 120 unsigned_char
0 0 0 3 0 0 0 0 0 
0 0 0 0 0 0 0 0 0 
0 0 0 0 0 0 0 0 0 
3 0 0 0 0 0 0 0 0 
0 0 0 3 0 0 0 0 0 
0 0 0 0 0 0 0 0 0 
0 0 0 0 0 0 3 0 0 
0 0 0 0 0 0 0 0 3 
0 0 0 0 0 0 0 0 0 
0 0 3 0 0 0 0 0 0 
0 0 0 0 0 0 0 0 0 
0 0 0 0 0 0 0 0 0 
0 0 0 0 0 0 0 0 0 
0 0 0 
weighted_torsion_tp 1 120 unsigned_char
0 0 0 0 0 0 0 0 0 
0 0 0 0 0 0 0 1 0 
0 0 0 0 0 0 0 0 0 
0 0 0 0 0 0 0 0 0 
0 0 0 0 0 0 0 0 0 
0 0 0 0 0 0 1 0 0 
0 0 0 0 0 0 0 0 0 
0 0 0 0 0 0 0 0 0 
1 0 0 0 0 0 0 0 0 
0 0 0 0 0 0 0 0 0 
0 0 0 0 0 0 0 0 0 
0 0 0 0 0 0 0 1 0 
0 0 0 0 0 0 0 0 0 
0 0 0 
weighted_torsion_tn 1 120 unsigned_char
0 0 0 0 0 2 0 0 0 
0 0 0 0 0 0 0 0 0 
0 0 0 0 0 0 0 0 0 
0 0 0 0 0 0 0 0 0 
0 0 2 0 0 0 0 0 0 
0 0 0 0 0 0 0 0 0 
0 0 0 0 0 0 0 2 0 
0 0 0 0 0 0 0 0 0 
0 0 0 0 0 0 0 0 2 
0 0 0 0 0 0 0 0 0 
0 0 0 0 0 0 0 0 0 
0 0 0 0 0 0 0 0 0 
0 0 0 0 0 0 0 0 0 
0 0 0 
weighted_torsion_tz 1 120 unsigned_char
0 0 0 0 0 0 3 0 0 
0 0 0 0 0 0 0 0 0 
0 0 0 0 0 0 0 0 0 
0 0 0 0 3 0 0 0 0 
0 0 0 0 0 0 0 3 0 
0 0 0 0 0 0 0 0 0 
0 0 0 0 0 0 0 0 0 
0 0 3 0 0 0 0 0 0 
0 0 0 0 3 0 0 0 0 
0 0 0 0 0 0 0 3 0 
0 0 0 0 0 0 0 0 0 
0 0 0 0 0 0 0 0 0 
0 0 0 0 0 0 0 0 0 
0 0 0 
plain_torsion_tp_raw 1 120 unsigned_char
0 0 0 0 0 0 0 0 0 
0 0 0 0 0 0 0 0 0 
0 1 0 0 0 0 0 0 0 
0 0 0 0 0 0 0 0 0 
1 0 0 0 0 0 0 0 0 
0 0 0 0 0 0 0 0 0 
0 0 0 0 1 0 0 0 0 
0 0 0 0 0 1 0 0 0 
0 0 0 0 0 0 0 0 0 
0 0 0 0 0 0 0 1 0 
0 0 0 0 0 0 0 0 0 
0 0 0 0 0 0 1 0 0 
0 0 0 0 0 0 0 0 0 
0 0 0 
plain_torsion_tn_raw 1 120 unsigned_char
0 0 0 0 0 0 0 0 0 
0 0 2 0 0 0 0 0 0 
0 0 0 0 0 0 0 0 0 
0 0 0 2 0 0 0 0 0 
0 0 0 0 0 0 0 0 0 
0 0 0 0 0 0 0 2 0 
0 0 0 0 0 0 0 0 0 
0 2 0 0 0 0 0 0 0 
0 0 0 0 0 2 0 0 0 
0 0 0 0 0 0 0 0 0 
0 0 0 0 0 0 2 0 0 
0 0 0 0 0 0 0 0 0 
0 0 0 0 0 0 0 0 0 
0 0 0 
plain_torsion_tz_raw 1 120 unsigned_char
0 0 3 0 0 0 0 0 0 
0 0 0 0 0 0 3 0 0 
0 0 3 0 0 0 0 0 0 
0 0 0 0 0 0 3 0 0 
0 0 0 0 0 0 0 0 0 
0 0 0 0 0 0 0 0 0 
0 0 0 0 0 0 0 0 0 
0 0 0 0 0 0 0 0 0 
0 0 0 0 0 0 0 0 0 
0 0 0 0 0 0 0 0 0 
0 0 0 0 0 0 0 0 0 
0 0 0 0 0 0 0 0 0 
0 0 0 0 0 0 0 0 0 
0 0 0 
weighted_torsion_tp_raw 1 120 unsigned_char
0 0 0 0 0 0 0 0 0 
0 0 0 0 0 0 0 0 0 
0 0 0 0 1 0 0 0 0 
0 0 0 0 0 0 0 0 0 
0 0 0 0 1 0 0 0 0 
0 0 0 0 0 0 0 0 0 
0 0 0 0 0 0 0 0 0 
0 1 0 0 0 0 0 0 0 
0 1 0 0 0 0 0 0 0 
0 0 0 0 0 0 0 0 0 
0 0 0 0 1 0 0 0 0 
0 0 0 0 0 0 0 0 0 
0 0 1 0 0 0 0 0 0 
0 0 0 
weighted_torsion_tn_raw 1 120 unsigned_char
0 0 0 0 0 0 0 0 0 
0 0 0 2 0 0 0 0 0 
0 0 0 0 0 0 0 0 0 
0 0 0 0 0 0 2 0 0 
0 0 0 0 0 0 0 0 0 
0 0 0 0 0 0 0 0 0 
0 0 0 2 0 0 0 0 0 
0 0 0 0 0 2 0 0 0 
0 0 0 0 0 0 0 0 0 
0 2 0 0 0 0 0 0 0 
0 0 0 0 0 0 0 0 0 
0 2 0 0 0 0 0 0 0 
0 0 0 0 0 0 0 0 0 
0 0 0 
weighted_torsion_tz_raw 1 120 unsigned_char
0 0 0 0 0 3 0 0 0 
0 0 0 0 0 0 0 0 3 
0 0 0 0 0 3 0 0 0 
0 0 0 0 0 0 0 0 0 
0 3 0 0 0 0 0 0 0 
0 0 0 0 0 0 0 0 0 
0 0 0 0 0 0 0 0 0 
0 0 0 0 0 0 0 0 0 
0 0 0 0 0 0 0 0 0 
0 0 0 0 0 0 0 0 0 
0 0 0 0 0 0 0 0 0 
0 0 0 0 0 0 0 0 0 
0 0 0 0 0 0 0 0 0 
0 0 0 
