# vtk DataFile Version 5.1
vtk output
ASCII
DATASET POLYDATA
POINTS 120 float
-2.47577 18.646 -6.36169 -2.86929 18.0642 -6.18031 -3.30335 17.484 -5.94009 
-3.75957 16.9077 -5.66327 -4.21974 16.3373 -5.3723 -4.66625 15.775 -5.09012 
-5.08295 15.222 -4.8404 -5.45671 14.6788 -4.64714 -5.77905 14.1447 -4.53303 
-6.04769 13.6176 -4.51639 -6.26727 13.0945 -4.60753 -6.44842 12.5711 -4.80621 
-6.60512 12.0431 -5.10075 -6.75083 11.5061 -5.46946 -6.89457 10.9566 -5.88432 
-7.03782 10.3932 -6.31562 -7.17367 9.81707 -6.73711 -7.28824 9.23342 -7.13086 
-7.36365 8.65125 -7.49069 -7.38176 8.0824 -7.82333 -7.32801 7.53943 -8.14647 
-7.1945 7.0325 -8.48359 -6.98218 6.56607 -8.85657 -6.70141 6.13725 -9.27761 
-6.3709 5.73636 -9.7434 -6.01536 5.34949 -10.2326 -5.66233 4.96376 -10.7076 
-5.33868 4.57154 -11.1204 -5.06746 4.17369 -11.4211 -4.86549 3.78131 -11.5674 
-4.74228 3.41346 -11.5321 -4.70039 3.09388 -11.3087 -4.73693 2.84595 -10.9119 
-4.84595 2.68944 -10.3757 -5.02098 2.63776 -9.74668 -5.25648 2.69839 -9.07764 
-5.548 2.8736 -8.41951 -5.89058 3.16097 -7.8141 -6.27611 3.55348 -7.28873 
-6.69056 4.03888 -6.85336 -7.11239 4.59824 -6.50102 -7.51306 5.2065 -6.21102 
-7.85991 5.83167 -5.95428 -8.12089 6.43699 -5.6997 -8.27025 6.983 -5.42029 
-8.29398 7.43138 -5.09828 -8.19342 7.74914 -4.72809 -7.98617 7.91277 -4.31659 
-7.70354 7.91025 -3.88047 -7.385 7.74163 -3.44162 -7.07086 7.41858 -3.02181 
-6.79481 6.96166 -2.63827 -6.57809 6.39791 -2.30147 -6.42692 5.75765 -2.01561 
-6.33347 5.07032 -1.78135 -6.27987 4.36165 -1.5991 -6.24352 3.65111 -1.47125 
-6.20242 2.9501 -1.40212 -6.13915 2.26303 -1.39544 -6.04302 1.58786 -1.45092 
-5.91013 0.919062 -1.56128 -5.74211 0.249641 -1.71132 -5.54391 -0.426403 -1.87932 
-5.32133 -1.11206 -2.04006 -5.07904 -1.80615 -2.16871 -4.81916 -2.50326 -2.24424 
-4.54094 -3.19399 -2.25193 -4.24119 -3.86648 -2.18446 -3.91524 -4.50786 -2.04218 
-3.55821 -5.10631 -1.83223 -3.16609 -5.65192 -1.56692 -2.73664 -6.13811 -1.26134 
-2.27016 -6.56178 -0.930417 -1.77028 -6.9235 -0.585948 -1.24477 -7.22657 -0.234257 
-0.705989 -7.47657 0.125051 -0.170084 -7.67985 0.498423 0.345444 -7.84161 0.895767 
0.825688 -7.96492 1.32621 1.26258 -8.05015 1.79389 1.65798 -8.09535 2.29522 
2.02452 -8.09823 2.81849 2.3835 -8.05773 3.34597 2.76033 -7.97561 3.8578 
3.17867 -7.85704 4.33637 3.65514 -7.71016 4.77029 4.19601 -7.54473 5.15669 
4.79678 -7.37106 5.50135 5.44412 -7.1984 5.81759 6.11937 -7.0347 6.12287 
6.80278 -6.8859 6.43531 7.47735 -6.75651 6.77027 8.13175 -6.64972 7.1368 
8.76178 -6.56792 7.5368 9.36996 -6.51324 7.96503 9.96404 -6.4878 8.41074 
10.5544 -6.49421 8.86019 11.1508 -6.53549 9.30058 11.7591 -6.61558 9.72221 
12.3792 -6.73913 10.1209 13.0045 -6.91156 10.4978 13.6221 -7.1387 10.8585 
14.2143 -7.42608 11.2106 14.7611 -7.77777 11.5622 15.243 -8.19543 11.9191 
15.6423 -8.67686 12.284 15.9459 -9.21617 12.6564 16.145 -9.80308 13.0329 
16.2359 -10.4244 13.408 16.2198 -11.0658 13.7758 16.1032 -11.7135 14.1307 
15.8987 -12.3563 14.4688 15.626 -12.9871 14.7884 15.3126 -13.6033 15.0895 
14.9933 -14.207 15.3746 14.7095 -14.8036 15.6475 14.5065 -15.4011 15.9127 
14.4318 -16.009 16.1757 14.534 -16.6373 16.4417 14.8617 -17.2961 16.7163 

LINES 2 120
OFFSETS vtktypeint64
0 120 
CONNECTIVITY vtktypeint64
0 1 2 3 4 5 6 7 8 
9 10 11 12 13 14 15 16 17 
18 19 20 21 22 23 24 25 26 
27 28 29 30 31 32 33 34 35 
36 37 38 39 40 41 42 43 44 
45 46 47 48 49 50 51 52 53 
54 55 56 57 58 59 60 61 62 
63 64 65 66 67 68 69 70 71 
72 73 74 75 76 77 78 79 80 
81 82 83 84 85 86 87 88 89 
90 91 92 93 94 95 96 97 98 
99 100 101 102 103 104 105 106 107 
108 109 110 111 112 113 114 115 116 
117 118 119 
CELL_DATA 1
FIELD FieldData 2
Length 1 1 double
82.109029189 
Tortuosity 1 1 double
0.78118758169 
POINT_DATA 120
FIELD FieldData 19
Curvature 1 120 double
0 0.10948124491 0.061481309998 0.02520158338 0.010385496933 0.048982051637 0.10336602526 0.18108657575 0.27657913953 
0.34823372838 0.3384780456 0.25216941728 0.14933313546 0.067555569512 0.012962406218 0.033128830455 0.064065907638 0.092785038734 
0.12751476091 0.17458755167 0.22365147087 0.24186957489 0.20741170669 0.13804635383 0.062085859211 0.017312397465 0.099700767965 
0.23700481914 0.51634888258 1.0645628439 1.4865461057 1.0684301865 0.5787705816 0.34850052973 0.26130474483 0.23813097967 
0.24138182505 0.24430802591 0.22626548222 0.18386585367 0.13372928561 0.10225938588 0.13144994565 0.23524822402 0.42011446119 
0.6669765742 0.81806458525 0.73791465125 0.56437839047 0.42979334315 0.34404611723 0.28015509813 0.22293941695 0.17083973104 
0.12851888038 0.1058783137 0.11216454762 0.13564802205 0.15095064541 0.14004748616 0.10397851871 0.060445325302 0.043200734223 
0.068623991202 0.10050184216 0.12688973739 0.14589890321 0.15718228259 0.16125786611 0.16033937345 0.15633273349 0.15086055797 
0.14249780607 0.12978713955 0.11271038448 0.10081039033 0.10990699855 0.13689876745 0.16034641282 0.16142212018 0.13648236721 
0.10841998255 0.1170304028 0.15539120939 0.18134888246 0.17410775409 0.13825548315 0.089918413109 0.045466419886 0.029258073834 
0.052905528015 0.074789410828 0.084232367847 0.079646901063 0.066382083489 0.058536141885 0.066320076458 0.08092303567 0.090759703004 
0.095888307118 0.10245153277 0.11770203557 0.14240274956 0.17169885987 0.19822107595 0.2158036625 0.22044213699 0.21519797154 
0.20230652932 0.18375658845 0.15900614702 0.12551227441 0.081987626035 0.028429763368 0.054225143343 0.15430018059 0.28193021188 
0.39041116325 0.38849529134 0 
Torsion 1 120 double
0 0 -0.073293195309 -0.35131648586 -2.1812019381 -0.18858585315 -0.11560227683 -0.10046439343 -0.09371600416 
-0.092436291333 -0.099411637809 -0.11332220979 -0.11922444028 -0.028523820112 3.4014414932 0.083754446976 -0.3363599293 -0.48863212058 
-0.5445242941 -0.47895706847 -0.35990744557 -0.26267663578 -0.19589550308 -0.12622848842 0.13935806234 4.1022178213 0.0191001943 
-0.098802508955 -0.11382850635 -0.088267214843 -0.064019946868 -0.053027110561 -0.010068091071 0.063001362123 0.10513856254 0.095774143556 
0.053918646096 0.00074782123465 -0.065685499748 -0.18509235386 -0.46888538637 -1.0037254326 -0.83348325917 -0.42558790505 -0.2554284225 
-0.19073888755 -0.18100796701 -0.20776231808 -0.23437614901 -0.22145614474 -0.17175239615 -0.1086054623 -0.031440288288 0.090686910883 
0.3083964741 0.55463459984 0.48464990422 0.2688040219 0.15699231964 0.14627160389 0.26459973216 0.81013894264 1.4339907213 
0.4044363029 0.0692657747 -0.049807096641 -0.11296977626 -0.15583990648 -0.18981307585 -0.21262507165 -0.21372126241 -0.17835240043 
-0.096097825577 0.047073653742 0.28105594932 0.55140100967 0.50623978748 0.23675157018 0.016325162669 -0.18411971427 -0.50469176866 
-1.0325164244 -0.92450954678 -0.46638721609 -0.2593210528 -0.1870857449 -0.18712053402 -0.29532910883 -0.88601584643 -1.7251764838 
-0.37793852813 -0.074548723208 0.064373900007 0.22207804169 0.4927176406 0.70167981319 0.44361265549 0.12666901119 -0.087969645832 
-0.24976646246 -0.34323113204 -0.31809674045 -0.22496218438 -0.14262968593 -0.088365156043 -0.05411086457 -0.036145972971 -0.025869953709 
-0.018719947481 -0.01045800913 0.002444258392 0.031503815484 0.14240403294 1.7163213687 0.64518724259 0.10322633292 0.037898435005 
0.018868043251 0 0 
FrenetTangent 3 120 double
-0.55632363744 -0.78113948567 0.28341685616 -0.55632363744 -0.78113948567 0.28341685616 -0.57496092217 -0.74694245012 0.33391153648 
-0.58225411144 -0.72858120342 0.36076249768 -0.58120898014 -0.7260872998 0.3674144179 -0.57267229199 -0.73995063236 0.35287321754 
-0.55580057801 -0.77076160661 0.3114679169 -0.52777049592 -0.81679310382 0.23303932972 -0.48375224192 -0.86863599371 0.10702933653 
-0.42067755069 -0.90493597566 -0.06419718301 -0.34620244739 -0.9041289132 -0.25038924445 -0.27933629805 -0.86929586847 -0.40779397452 
-0.2343201981 -0.82522288361 -0.51390780995 -0.21121404012 -0.79276314574 -0.57176500769 -0.20108627545 -0.7797751777 -0.59288698929 
-0.19242415287 -0.78567086374 -0.58795768493 -0.17395404752 -0.80562793072 -0.56630700736 -0.13558858551 -0.83207056905 -0.53784226646 
-0.069452132511 -0.85481203932 -0.51426916953 0.027597385534 -0.86100777927 -0.5078424838 0.14928918127 -0.83703451296 -0.52638955581 
0.27589145953 -0.77651162629 -0.56649236252 0.38099053034 -0.6917124214 -0.61349828189 0.44959477707 -0.61025667839 -0.65226629755 
0.48472121373 -0.55658727877 -0.67472657134 0.49748765763 -0.54243493214 -0.6769567009 0.49732547637 -0.57175149198 -0.65250869878 
0.48778737155 -0.6478542719 -0.58510539438 0.46219155283 -0.77186952976 -0.43657347322 0.38977895846 -0.91124920419 -0.13303101669 
0.21930617086 -0.9131273281 0.34366158658 0.006367470204 -0.67506670112 0.73772922157 -0.14170570246 -0.3937183479 0.90824300516 
-0.23334298125 -0.17102290813 0.95723676172 -0.30153678241 0.0065728041757 0.95343188907 -0.36413666161 0.16295064211 0.91697959623 
-0.42629112876 0.31097975366 0.84945127368 -0.48314977849 0.45114645548 0.75035536065 -0.52366705025 0.57467879625 0.62890150391 
-0.53854358353 0.67279986526 0.50725846464 -0.52521517122 0.74559235945 0.41017198521 -0.4846419221 0.79967009991 0.35447135096 
-0.41501649716 0.84016338416 0.34912289383 -0.30763999996 0.86318040544 0.40034637265 -0.14731593778 0.84633572803 0.51187288454 
0.074207178975 0.73996020336 0.66854483173 0.31789954464 0.49717468458 0.80731481625 0.49375024903 0.16238385504 0.85430800957 
0.55907654708 -0.15915378616 0.81369741726 0.53869912416 -0.41864391212 0.73112278618 0.46628044658 -0.61623008994 0.63469915818 
0.3669358832 -0.76002666458 0.53639307112 0.26193621819 -0.85723608294 0.44332348878 0.16908844297 -0.91768738106 0.35952603396 
0.10042993576 -0.95341238611 0.28446203615 0.061804185563 -0.97508299885 0.21305724114 0.054260281562 -0.98894398507 0.13800585583 
0.074864242985 -0.9957098239 0.054380986591 0.11614634203 -0.99259537378 -0.035559122391 0.16676016047 -0.97857570644 -0.12075030291 
0.21553112027 -0.95851845682 -0.18651730248 0.25605805039 -0.94073617992 -0.2223729179 0.2876806765 -0.93098177722 -0.22475043683 
0.31316061153 -0.92947649966 -0.19494580777 0.3363332433 -0.93176056545 -0.13675598021 0.36093739695 -0.93091780024 -0.055823334509 
0.39002139993 -0.91992176717 0.040339185588 0.42556410314 -0.89361316997 0.14265586764 0.46822061463 -0.84997489175 0.24147906623 
0.51746064539 -0.79023214907 0.32827980602 0.57165307979 -0.71792971312 0.39722749576 0.6279415901 -0.63770803043 0.44611414161 
0.68215569387 -0.55440677304 0.47675647801 0.72907985395 -0.47268258422 0.49498862727 0.76330511516 -0.3966602649 0.5099273825 
0.78022742684 -0.32908624526 0.5319280079 0.77665524527 -0.26963902312 0.56929906657 0.75100783937 -0.21499479706 0.62431119039 
0.70522954799 -0.16035910622 0.69060570639 0.64819048847 -0.10158029079 0.75467246881 0.59630397265 -0.037625713746 0.80187647295 
0.56794634201 0.02945133619 0.82253849235 0.57516691978 0.095847455318 0.81240155078 0.61839371315 0.15607094525 0.77021495414 
0.68552619956 0.20335981505 0.6990698215 0.75713486115 0.232430181 0.61051045281 0.81696381438 0.24266753955 0.52314681615 
0.85831677717 0.23816977747 0.45449693853 0.88198636729 0.22430463062 0.41447253299 0.89100793692 0.20493551232 0.40510034824 
0.88762106912 0.18183545418 0.4231603777 0.87363561933 0.15525783672 0.46114619023 0.85196031057 0.12509310445 0.50844404257 
0.82772896121 0.091239319467 0.55366068432 0.80770498954 0.053826283415 0.58712467252 0.79773190352 0.012818130185 0.60287602842 
0.79965239462 -0.032140090613 0.59960242024 0.81051442367 -0.081666029416 0.5799974385 0.82383294801 -0.13656498022 0.55013569231 
0.83208983794 -0.19774772579 0.5181914111 0.82888393909 -0.26647647552 0.49187569925 0.8089707553 -0.34405078417 0.47665015996 
0.76774028192 -0.4307537875 0.47436909055 0.70122599127 -0.52445527278 0.48293765232 0.60725681009 -0.61958226885 0.49734995599 
0.48741224768 -0.70780725898 0.5113102629 0.34839151443 -0.78051146609 0.51906184985 0.19973604558 -0.83201286835 0.5175520254 
0.050960092385 -0.86079701494 0.50639072667 -0.089450113898 -0.8687725332 0.48706566567 -0.2141349118 -0.86054881394 0.46217094063 
-0.3158903329 -0.84303515477 0.43532174928 -0.38783121202 -0.82516905898 0.4107103299 -0.42346289709 -0.8165221939 0.3923909806 
-0.4146127547 -0.82520107224 0.38358760931 -0.34838635588 -0.85458518907 0.38511180411 -0.20644778654 -0.89619693656 0.39269627236 
0.020433933412 -0.91918308151 0.39330003437 0.29432269221 -0.88111971709 0.3701380783 0.29432269221 -0.88111971709 0.3701380783 

FrenetNormal 3 120 double
-0.32051158568 0.51639025588 0.79411172203 -0.32051158568 0.51639025588 0.79411172203 -0.25694654633 0.55230978529 0.7930525666 
-0.14054915614 0.52726242713 0.83799777305 0.60212291036 -0.68744396703 -0.40604038347 0.34179233151 -0.60676165396 -0.71764775301 
0.30068193218 -0.53568891633 -0.78906765273 0.29832974795 -0.43513734318 -0.84950270986 0.32130355937 -0.29001279707 -0.90147468088 
0.35665860208 -0.099904233829 -0.92887770219 0.38111005531 0.10834299781 -0.91815952893 0.3755153345 0.29197275755 -0.87962500101 
0.338820766 0.42615739109 -0.83880293666 0.30102296798 0.50377254562 -0.8096903081 0.70186394061 0.30752362477 -0.64250776577 
0.45490677091 -0.60230539388 0.65596344584 0.57133573454 -0.55095783205 0.60829347008 0.78646892924 -0.42054418147 0.45233750096 
0.956430777 -0.20359946325 0.20925445604 0.99730151448 0.058290334858 -0.044630998985 0.92521392184 0.30606392979 -0.22428568769 
0.79885389799 0.5129917367 -0.31412088078 0.65872544704 0.66869179503 -0.34486529063 0.53677071332 0.76825845129 -0.34879242158 
0.49174649571 0.81136300512 -0.31603078629 0.36371055815 -0.57804465401 0.73046492582 -0.082088386513 -0.779753309 0.62068210374 
-0.11111546513 -0.71087862398 0.69448177469 -0.15923535045 -0.55655033127 0.81541144947 -0.26478794286 -0.24925344461 0.93153640061 
-0.38900280091 0.24119264743 0.88910231566 -0.42146435468 0.66720494199 0.61417046748 -0.38464121042 0.86730636796 0.31596012936 
-0.35698756827 0.93073982324 0.079267001511 -0.35783031355 0.92610174144 -0.11955346585 -0.36444974341 0.88113097265 -0.30130481835 
-0.34456391986 0.81243521031 -0.47034533501 -0.28131163469 0.73159006474 -0.6209989866 -0.17184113851 0.65178667174 -0.73867770892 
-0.010092634825 0.59682347563 -0.8023090911 0.25658368388 0.59832520725 -0.75905978653 0.69112835862 0.59846837234 -0.40518785671 
0.90690079022 0.35133522316 0.23258228149 0.84722145029 0.05698261263 0.52817496725 0.78936214434 -0.21123932983 0.57644197506 
0.72017508111 -0.50348814819 0.47733377964 0.57199130917 -0.77964818372 0.25490125904 0.33041021858 -0.94376646044 -0.011573918883 
0.053176802617 -0.97249991067 -0.22675129858 -0.20584587354 -0.90690517582 -0.36762817958 -0.41798754231 -0.78579841524 -0.45585882143 
-0.56980583612 -0.63941476696 -0.51620738557 -0.65799639555 -0.49467153768 -0.56775066117 -0.67403941349 -0.37380736892 -0.63713336124 
-0.5805937582 -0.28833916535 -0.76142722152 -0.29586545793 -0.22176935959 -0.9291296906 0.09959440554 -0.13216021252 -0.98621226549 
0.35412204956 -0.024433440371 -0.93487998214 0.47187750976 0.086647873935 -0.87739601192 0.54017487876 0.19312299442 -0.81909377325 
0.6270492025 0.28227629323 -0.72603677037 0.82800614016 0.33215914848 -0.45174786324 0.87635686351 0.16122986669 0.45387617019 
0.45742203566 -0.032270590289 0.88866399179 0.30517511637 -0.029545119566 0.9518378193 0.27596744551 0.049437713116 0.9598947242 
0.29492369768 0.16630025482 0.9409379564 0.33835681869 0.30333971512 0.89078599028 0.39285512999 0.44503753428 0.8047399828 
0.45116252894 0.57793201306 0.68003452909 0.50003885693 0.68867236209 0.52506334784 0.5258005196 0.77023739527 0.36092681878 
0.51590498343 0.82697687368 0.22349787131 0.46133979207 0.87362547328 0.15473890491 0.34034648524 0.91779910146 0.20447268606 
0.10526908489 0.90736490314 0.40694883256 -0.19836068759 0.75309255578 0.62729948195 -0.41045728377 0.58861805791 0.69645789542 
-0.52544687424 0.53574250796 0.66097318214 -0.56948341299 0.5932505758 0.56898365236 -0.50507092167 0.75882958437 0.41119463272 
-0.17653351228 0.98046108046 0.086787031003 0.35419421948 0.86601517941 -0.35293648709 0.59104121223 0.55357193779 -0.58670980487 
0.62480459317 0.32856910231 -0.70828071084 0.58788585185 0.16507327585 -0.79192236917 0.53550244984 0.017450425332 -0.8443533673 
0.49566436251 -0.15577644903 -0.85442994895 0.46871335995 -0.50907373497 -0.72190838655 0.10699860232 -0.96197412906 0.25131071231 
-0.23264629259 -0.61592757408 0.75266787232 -0.33350915172 -0.49902643076 0.79984015098 -0.38691649811 -0.50385053785 0.77228897376 
-0.39863385461 -0.59880336284 0.694640614 -0.32424249756 -0.79115772448 0.51859064566 -0.087166865126 -0.98682235847 0.13632156999 
0.15288644765 -0.95475850145 -0.25507241725 0.23184249789 -0.86462368129 -0.44572967808 0.18450887515 -0.85307875273 -0.48807081108 
0.054648268328 -0.90050632893 -0.43139531561 -0.13650757453 -0.94902594922 -0.28410461067 -0.33849272491 -0.93555415379 -0.10080228425 
-0.50651878864 -0.86141028136 0.037563864618 -0.63948106183 -0.76216487667 0.10083983502 -0.75205453293 -0.65013789828 0.10832678672 
-0.84610581552 -0.52752456916 0.076307128594 -0.91825404799 -0.39539255866 0.021776774344 -0.96550635533 -0.2571629522 -0.040800659755 
-0.98710847274 -0.12044480457 -0.10540356776 -0.9861235568 0.0085842750084 -0.16579095555 -0.967121685 0.1203257679 -0.22404766455 
-0.93758969895 0.20705542498 -0.27938075705 -0.90044833762 0.24398648497 -0.36008802596 -0.74603879197 0.068603113992 -0.66235921796 
0.87237538288 -0.48038533225 -0.09050482805 0.93300054781 -0.35568830161 0.054733991989 0.97723914918 -0.20887895426 0.037057088078 
0.99936866885 0.0073428482117 -0.034761275853 0.95553588442 0.26399518884 -0.13136861823 0.95553588442 0.26399518884 -0.13136861823 

FrenetBinormal 3 120 double
-0.76666572499 0.35094473576 -0.53764436068 -0.76666572499 0.35094473576 -0.53764436068 -0.77678723619 0.37017681895 -0.50948082634 
-0.8007659361 0.43722278412 -0.40940218932 0.54739759063 -0.014765678559 0.83674240511 0.74513384576 -0.29036762381 0.6003850389 
0.77503296262 -0.34491148241 0.52949029846 0.79527206988 -0.37881990197 0.47332633219 0.81409323248 -0.40170149113 0.41939017735 
0.83416127932 -0.4136544742 0.36478066844 0.8572624984 -0.41329493481 0.30706400912 0.88371911043 -0.3988440822 0.2448753396 
0.91120498972 -0.37067110811 0.17974536524 0.92993214914 -0.34313236082 0.13223608038 0.68333836326 -0.5453254922 0.48545729869 
-0.86950145208 -0.1412427215 0.47330510081 -0.80206949062 -0.21773631883 0.55612537046 -0.60256315754 -0.36166442948 0.7114186402 
-0.28357815518 -0.47732969319 0.83170895985 0.068029945758 -0.50524037933 0.86029302309 0.34884371742 -0.45353951867 0.82012801795 
0.53452441686 -0.36588136371 0.76184937847 0.6487888726 -0.27273652002 0.71041381563 0.71396200022 -0.19330219478 0.6729728997 
0.7233468939 -0.17860760071 0.66698470451 -0.78754089443 -0.60961358446 -0.090280769002 -0.86367173588 -0.25511763665 -0.43472534331 
-0.86586190213 -0.27374518142 -0.41874424424 -0.87236636321 -0.30735835403 -0.38014177691 -0.88202024288 -0.32786827876 -0.33844155025 
-0.8947522698 -0.3286709441 -0.30231405227 -0.90682261389 -0.31483728245 -0.28026814396 -0.91212424216 -0.30457433678 -0.27434256002 
-0.90449484753 -0.32322522538 -0.27823465721 -0.88376073434 -0.37721659924 -0.27690179072 -0.85707693715 -0.44390910924 -0.26146477111 
-0.8363920006 -0.49319430436 -0.23918151993 -0.82911401854 -0.51111921592 -0.22655483085 -0.83441203467 -0.49489232736 -0.24256574516 
-0.8425372083 -0.43719798746 -0.31462512995 -0.81136541527 -0.29342627676 -0.50555631043 -0.53615650631 0.048614181283 -0.84271754587 
0.072747946894 0.41314531207 -0.90775475066 0.4330975001 0.50166978136 -0.7488350859 0.59599112372 0.4889721679 -0.63694646515 
0.68981239996 0.4460477352 -0.57026333459 0.75615198324 0.38074406448 -0.5322294013 0.80438782875 0.2879867215 -0.51963820991 
0.82740899328 0.17004116001 -0.53523860263 0.81696433825 0.047542369768 -0.5747251457 0.77965951518 -0.052738286394 -0.62397893677 
0.73530902805 -0.11622488944 -0.66769185133 0.70599586475 -0.14299079662 -0.69363064454 0.71908272648 -0.13460282905 -0.68176397008 
0.80797569019 -0.088686795689 -0.58250316422 0.95322813295 -0.0056121744066 -0.30219965263 0.9935475712 0.067256766378 0.091322237962 
0.93219789698 0.089246588574 0.35077361259 0.87398034476 0.08512678717 0.47844726678 0.82486492787 0.071365928833 0.56080723512 
0.7485690575 0.039527992701 0.66187755963 0.49883875821 -0.0684524643 0.86398735722 -0.38631396059 -0.32753299157 0.86225498739 
-0.83228331275 -0.36746706735 0.41505715478 -0.89092541652 -0.36186922303 0.2744131331 -0.89082330712 -0.36186732612 0.2747469268 
-0.87229772449 -0.35508895722 0.33616738734 -0.83929128279 -0.3308179555 0.43145060315 -0.79147602799 -0.28192955941 0.54229274442 
-0.72710855651 -0.20378355883 0.6555802073 -0.65051817648 -0.10152489696 0.75267442986 -0.57377972516 0.0079260869692 0.8189713085 
-0.51817531531 0.093500697403 0.85014820013 -0.50557705922 0.11554093219 0.85501001759 -0.54911708328 0.01747694518 0.83556267583 
-0.61657406868 -0.26151706587 0.74259359147 -0.59787930856 -0.6001219873 0.53140750159 -0.51721566431 -0.77929841469 0.35381059546 
-0.47597990187 -0.82901442823 0.29356125561 -0.50550740152 -0.79858324478 0.32669108982 -0.62395908223 -0.65020148228 0.4334894418 
-0.8039109849 -0.19449598583 0.56204843194 -0.73738013893 0.49074532533 0.4641546686 -0.51793773852 0.81804643495 0.25008104543 
-0.37372857807 0.92232701935 0.09818258149 -0.28484561999 0.95850249064 -0.011659683163 -0.21402628861 0.9699525493 -0.11569269589 
-0.13269947162 0.9586494954 -0.25175781061 0.049069686427 0.83098216891 -0.55413067126 0.44119854426 -0.18057466824 -0.87905439748 
0.39749784929 -0.76653055457 -0.50440694753 0.35430558894 -0.85256532039 -0.38418735548 0.35278782958 -0.85468494238 -0.3808600748 
0.39491241654 -0.79568204657 -0.45927580388 0.49242202697 -0.60923902223 -0.62156927301 0.59667893186 -0.16129887897 -0.78610236224 
0.58067355882 0.29564035329 -0.75856113768 0.53788049342 0.49573838805 -0.68185630848 0.53596245089 0.5035937329 -0.67759693286 
0.55194208787 0.38727792153 -0.73849559452 0.54250999771 0.16834499013 -0.82300842443 0.480613142 -0.079796511447 -0.87329463785 
0.39244563481 -0.26911614913 -0.8795242589 0.31519213304 -0.37954099597 -0.86982903587 0.2562286988 -0.4398164678 -0.86076032004 
0.21571798661 -0.46981561604 -0.85600177405 0.18823617084 -0.48421748818 -0.85445922555 0.16704188072 -0.4915504073 -0.85467842325 
0.1517232086 -0.49449120127 -0.85583790512 0.13985352282 -0.49513694649 -0.85748492487 0.13719287866 -0.49495196575 -0.85802136666 
0.14539206996 -0.49640686821 -0.85582788409 0.1969257278 -0.50947680935 -0.83764768159 0.51391175863 -0.5732234465 -0.63820810456 
0.25895454229 0.29710793147 0.91905898727 0.090204904644 0.37837810022 0.92124540078 0.048815537899 0.3914085249 0.91892132955 
0.029064034201 0.3937620414 0.91875281587 0.018036807856 0.3923449814 0.91964128286 0.018036807856 0.3923449814 0.91964128286 

plain_curvature_peaks 1 120 unsigned_char
0 0 0 0 0 0 0 0 0 
0 0 0 0 0 0 0 1 0 
0 0 0 0 0 0 0 0 0 
0 0 0 0 0 0 0 0 0 
0 1 0 0 0 0 0 0 0 
0 0 0 0 0 0 0 0 0 
0 1 0 0 0 0 0 0 0 
0 0 0 0 0 0 0 0 0 
0 0 0 0 0 0 0 0 0 
0 0 0 0 0 0 0 0 0 
0 0 0 0 0 0 0 0 0 
0 0 0 0 1 0 0 0 0 
0 0 0 0 0 0 0 0 0 
0 0 0 
weighted_curvature_peaks 1 120 unsigned_char
0 0 0 0 0 0 0 0 0 
0 0 0 0 0 1 0 0 0 
0 0 0 0 0 0 0 0 0 
0 0 0 0 0 0 0 0 0 
0 0 0 0 0 0 1 0 0 
0 0 0 0 0 0 0 0 0 
0 0 0 0 0 0 0 0 1 
0 0 0 0 0 0 0 0 0 
0 0 0 0 0 0 0 0 0 
0 0 0 0 0 0 0 0 0 
0 0 0 0 0 0 0 0 0 
0 0 0 0 0 0 0 0 0 
1 0 0 0 0 0 0 0 0 
0 0 0 
plain_torsion_tp 1 120 unsigned_char
0 0 0 0 0 0 0 0 0 
0 0 0 0 0 0 0 1 0 
0 0 0 0 0 0 0 0 0 
0 0 0 0 0 0 0 0 0 
0 1 0 0 0 0 0 0 0 
0 0 0 0 0 0 0 0 0 
0 1 0 0 0 0 0 0 0 
0 0 0 0 0 0 0 0 0 
0 0 0 0 0 0 0 0 0 
0 0 0 0 0 0 0 0 0 
0 0 0 0 0 0 0 0 0 
0 0 0 0 1 0 0 0 0 
0 0 0 0 0 0 0 0 0 
0 0 0 
plain_torsion_tn 1 120 unsigned_char
0 2 0 0 0 0 0 0 0 
0 0 0 0 0 0 0 0 0 
0 0 0 0 0 0 0 0 2 
0 0 0 0 0 0 0 0 0 
0 0 0 0 0 0 0 0 0 
0 2 0 0 0 0 0 0 0 
0 0 0 0 0 0 0 0 0 
0 0 0 0 0 0 0 0 0 
0 0 0 2 0 0 0 0 0 
0 0 0 0 0 0 0 0 0 
0 0 0 0 0 0 0 0 0 
0 0 0 0 0 0 0 0 0 
0 0 0 0 0 0 0 0 0 
0 0 0 
plain_torsion_tz 1 120 unsigned_char
0 0 0 3 0 0 0 0 0 
0 0 0 0 0 0 0 0 0 
0 0 0 0 0 3 0 0 0 
0 0 3 0 0 0 0 0 0 
0 0 0 0 0 0 0 0 0 
0 0 3 0 0 0 0 0 0 
0 0 0 0 0 0 0 0 0 
0 0 0 0 0 3 0 0 0 
0 0 0 0 0 0 0 0 0 
0 0 0 0 3 0 0 0 0 
0 0 0 0 0 0 0 0 0 
0 0 0 0 0 0 0 0 0 
0 0 0 0 0 0 0 0 0 
0 0 0 
weighted_torsion_tp 1 120 unsigned_char
0 0 0 0 0 0 0 0 0 
0 0 0 0 0 1 0 0 0 
0 0 0 0 0 0 0 0 0 
0 0 0 0 0 0 0 0 0 
0 0 0 0 0 0 1 0 0 
0 0 0 0 0 0 0 0 0 
0 0 0 0 0 0 0 0 1 
0 0 0 0 0 0 0 0 0 
0 0 0 0 0 0 0 0 0 
0 0 0 0 0 0 0 0 0 
0 0 0 0 0 0 0 0 0 
0 0 0 0 0 0 0 0 0 
1 0 0 0 0 0 0 0 0 
0 0 0 
weighted_torsion_tn 1 120 unsigned_char
0 0 0 0 2 0 0 0 0 
0 0 0 0 0 0 0 0 0 
0 0 0 0 0 0 0 2 0 
0 0 0 0 0 0 0 0 0 
0 0 0 0 0 0 0 0 0 
0 0 0 0 0 0 0 0 0 
0 2 0 0 0 0 0 0 0 
0 0 0 0 0 0 0 0 0 
0 0 0 0 0 0 0 0 2 
0 0 0 0 0 0 0 0 0 
0 0 0 0 0 0 0 0 0 
0 0 0 0 0 0 0 0 0 
0 0 0 0 0 0 0 0 0 
0 0 0 
weighted_torsion_tz 1 120 unsigned_char
0 0 0 0 0 3 0 0 0 
0 0 0 0 0 0 0 3 0 
0 0 0 0 0 0 0 0 0 
0 0 0 0 3 0 0 0 0 
0 0 0 0 0 0 0 0 0 
0 0 0 0 0 0 0 0 0 
0 0 3 0 0 0 0 0 0 
0 0 0 0 0 0 0 0 0 
0 3 0 0 0 0 0 0 0 
0 0 0 0 0 0 0 0 0 
0 3 0 0 0 0 0 0 0 
0 0 0 0 0 0 0 0 0 
0 0 0 0 0 0 0 0 0 
0 0 0 
plain_torsion_tp_raw 1 120 unsigned_char
0 0 0 0 0 0 0 0 0 
0 0 0 0 0 0 0 0 0 
0 0 0 0 1 0 0 0 0 
1 0 0 0 0 0 0 0 0 
0 0 0 0 0 0 0 0 0 
0 0 1 0 0 0 0 0 0 
0 0 0 0 0 0 1 0 0 
0 0 0 0 0 0 0 0 0 
0 0 0 0 0 0 0 0 0 
0 0 0 0 0 0 0 0 0 
0 0 0 0 1 0 0 0 0 
0 0 0 0 0 0 0 0 1 
0 0 0 0 0 0 0 0 0 
0 0 0 
plain_torsion_tn_raw 1 120 unsigned_char
0 0 0 0 0 0 0 0 0 
0 0 0 2 0 0 0 0 0 
0 0 0 0 0 2 0 0 0 
0 0 0 0 0 0 0 0 0 
0 0 0 0 0 0 0 0 0 
2 0 2 0 0 0 0 0 0 
0 0 0 0 0 0 0 0 0 
0 0 0 0 0 0 0 0 0 
0 0 0 0 0 0 2 0 0 
0 0 0 0 0 0 0 0 0 
0 0 0 0 0 0 0 0 0 
2 0 0 0 0 0 0 0 0 
0 0 0 0 0 0 0 0 0 
0 0 0 
plain_torsion_tz_raw 1 120 unsigned_char
0 3 0 0 0 0 0 0 0 
0 0 0 0 0 0 0 0 0 
3 0 0 0 3 0 0 3 0 
0 0 0 0 0 0 0 0 0 
0 0 0 0 0 0 0 0 0 
0 0 0 0 0 0 0 0 0 
0 0 0 0 0 0 0 0 0 
0 0 0 0 0 0 0 0 0 
0 0 0 0 0 0 0 0 0 
0 0 0 0 0 0 0 0 0 
0 0 0 0 0 0 0 0 0 
0 0 0 0 0 0 0 0 0 
0 0 0 0 0 0 0 0 0 
0 0 0 
weighted_torsion_tp_raw 1 120 unsigned_char
0 0 0 0 0 0 0 0 0 
0 0 0 0 0 0 1 0 0 
0 0 0 0 0 0 0 0 0 
0 1 0 0 0 0 0 0 0 
0 0 0 0 0 0 0 0 0 
0 0 0 0 0 0 0 0 0 
0 0 1 0 0 0 0 0 0 
0 0 1 0 0 0 0 0 0 
0 0 0 0 0 0 0 0 0 
0 0 0 0 0 0 0 0 0 
0 0 0 0 0 0 0 0 1 
0 0 0 0 0 0 0 0 0 
0 0 0 1 0 0 0 0 0 
0 0 0 
weighted_torsion_tn_raw 1 120 unsigned_char
0 0 0 0 0 0 0 0 0 
0 0 0 0 2 0 0 0 0 
2 0 0 0 0 0 0 0 0 
0 0 0 0 0 0 0 0 0 
0 0 0 0 0 0 0 0 0 
0 0 0 0 0 0 2 0 0 
0 0 0 2 0 0 0 0 0 
0 0 0 0 0 0 0 0 0 
0 0 0 0 0 0 0 0 0 
0 0 2 0 0 0 0 0 0 
0 0 0 0 0 0 0 0 0 
0 0 0 0 0 2 0 0 0 
0 0 0 0 0 0 0 0 0 
0 0 0 
weighted_torsion_tz_raw 1 120 unsigned_char
0 0 0 0 3 0 0 0 0 
0 0 0 0 0 0 3 0 0 
0 0 0 0 0 0 3 0 0 
0 0 0 0 0 0 0 0 0 
0 0 0 0 0 0 0 0 0 
0 0 0 0 0 0 0 0 0 
0 0 0 0 0 0 0 0 0 
0 0 0 0 0 0 0 0 0 
0 0 0 0 0 0 0 0 0 
0 0 0 0 0 0 0 0 0 
0 0 0 0 0 0 0 0 0 
0 0 0 0 0 0 0 0 0 
0 0 0 0 0 0 0 0 0 
0 0 0 
