# vtk DataFile Version 5.1
vtk output
ASCII
DATASET POLYDATA
POINTS 120 float
-4.35967 15.007 -1.77104 -4.37756 14.903 -1.18805 -4.50758 14.6875 -0.793213 
-4.71134 14.3853 -0.573189 -4.95161 14.0215 -0.514282 -5.19451 13.6208 -0.601948 
-5.41249 13.2077 -0.820284 -5.58735 12.8042 -1.1517 -5.71199 12.4283 -1.57708 
-5.79022 12.0928 -2.07631 -5.83419 11.8044 -2.62928 -5.85978 11.5642 -3.21706 
-5.88089 11.3694 -3.82291 -5.90457 11.2143 -4.43292 -5.9281 11.0929 -5.0365 
-5.93959 10.9995 -5.62636 -5.92158 10.9289 -6.1983 -5.85664 10.8755 -6.75072 
-5.73278 10.832 -7.28413 -5.54685 10.7879 -7.80061 -5.30528 10.7293 -8.30337 
-5.02212 10.64 -8.79627 -4.7155 10.5031 -9.28319 -4.40379 10.3049 -9.76716 
-4.10283 10.0375 -10.2494 -3.82448 9.70054 -10.728 -3.57662 9.30179 -11.1968 
-3.3639 8.85591 -11.6439 -3.1887 8.38224 -12.0521 -3.05199 7.90224 -12.3996 
-2.95386 7.43705 -12.6625 -2.89432 7.00547 -12.8184 -2.87421 6.62235 -12.851 
-2.896 6.29797 -12.7531 -2.96368 6.03813 -12.5294 -3.08155 5.84519 -12.1948 
-3.25202 5.71899 -11.7723 -3.4737 5.65714 -11.2883 -3.74017 5.65427 -10.7678 
-4.03987 5.70147 -10.2311 -4.35687 5.78626 -9.69169 -4.67261 5.89384 -9.1558 
-4.96819 6.00897 -8.62337 -5.22702 6.11768 -8.09065 -5.43721 6.20772 -7.5529 
-5.59307 6.26803 -7.00718 -5.69536 6.28745 -6.45414 -5.75007 6.25391 -5.89857 
-5.76648 6.155 -5.34877 -5.75496 5.98003 -4.81485 -5.72518 5.72259 -4.30662 
-5.68465 5.3827 -3.83145 -5.63772 4.96745 -3.39284 -5.5852 4.49013 -2.98986 
-5.52484 3.96788 -2.61774 -5.45269 3.41868 -2.2692 -5.36513 2.85891 -1.93614 
-5.26086 2.30071 -1.61131 -5.14233 1.7506 -1.28964 -5.01591 1.21001 -0.969002 
-4.89053 0.675521 -0.650327 -4.77539 0.140892 -0.33718 -4.67729 -0.4011 -0.0348342 
-4.59856 -0.956752 0.250842 -4.5361 -1.53002 0.514683 -4.48164 -2.12145 0.753231 
-4.42298 -2.72815 0.965422 -4.34575 -3.34346 1.15252 -4.23521 -3.95839 1.3175 
-4.07801 -4.56237 1.46392 -3.8636 -5.14476 1.59486 -3.58537 -5.69617 1.71212 
-3.24125 -6.20966 1.81618 -2.83365 -6.68135 1.90685 -2.369 -7.11048 1.98451 
-1.85691 -7.49932 2.0515 -1.30922 -7.85189 2.11326 -0.7388 -8.17329 2.17874 
-0.158253 -8.4675 2.25963 0.421451 -8.73674 2.3687 0.99213 -8.97965 2.51719 
1.5492 -9.19189 2.71216 2.09188 -9.36622 2.95434 2.62285 -9.49402 3.23732 
3.14713 -9.56674 3.54859 3.67047 -9.57789 3.87236 4.19749 -9.52484 4.19346 
4.73006 -9.40971 4.50122 5.26625 -9.24054 4.79225 5.80034 -9.0306 5.0714 
6.32361 -8.7965 5.35058 6.82621 -8.55685 5.64574 7.2994 -8.32866 5.97281 
7.73849 -8.12627 6.34362 8.14348 -7.95991 6.76296 8.52048 -7.83554 7.22725 
8.88033 -7.75613 7.72526 9.23583 -7.72284 8.24054 9.59848 -7.73679 8.75505 
9.97482 -7.7998 9.25277 10.3643 -7.91531 9.72278 10.7585 -8.08741 10.1603 
11.1429 -8.32031 10.5662 11.5004 -8.61688 10.9456 11.814 -8.97716 11.3053 
12.0703 -9.39804 11.6512 12.2612 -9.87346 11.9875 12.3833 -10.3945 12.3154 
12.439 -10.9514 12.6341 12.4348 -11.5337 12.9414 12.382 -12.1312 13.2351 
12.2965 -12.7347 13.5136 12.1985 -13.3355 13.7771 12.1127 -13.9247 14.0277 
12.0675 -14.4942 14.2691 12.0934 -15.0358 14.5064 12.2224 -15.5413 14.7454 
12.4863 -16.0028 14.9923 12.9173 -16.4125 15.2535 13.5471 -16.7626 15.5355 

LINES 2 120
OFFSETS vtktypeint64
0 120 
CONNECTIVITY vtktypeint64
0 1 2 3 4 5 6 7 8 
9 10 11 12 13 14 15 16 17 
18 19 20 21 22 23 24 25 26 
27 28 29 30 31 32 33 34 35 
36 37 38 39 40 41 42 43 44 
45 46 47 48 49 50 51 52 53 
54 55 56 57 58 59 60 61 62 
63 64 65 66 67 68 69 70 71 
72 73 74 75 76 77 78 79 80 
81 82 83 84 85 86 87 88 89 
90 91 92 93 94 95 96 97 98 
99 100 101 102 103 104 105 106 107 
108 109 110 111 112 113 114 115 116 
117 118 119 
CELL_DATA 1
FIELD FieldData 2
Length 1 1 double
71.582818039 
Tortuosity 1 1 double
0.77331063397 
POINT_DATA 120
FIELD FieldData 19
Curvature 1 120 double
0 0.79060759174 1.0794768713 0.97854526128 0.71690341412 0.52835529437 0.41402577635 0.33324983347 0.2645611733 
0.20384018904 0.15501809157 0.1210589062 0.098622539678 0.080960951259 0.075105783753 0.10399147377 0.15741973908 0.20256840603 
0.21334415421 0.18903372407 0.15720175743 0.14969808156 0.16436319563 0.17666562423 0.1735890781 0.15828329239 0.1418682306 
0.13513498714 0.15023395054 0.20698173501 0.34776319011 0.65085345947 1.1269711567 1.3109708294 0.92987307178 0.53435887351 
0.32099537013 0.2130200634 0.14869251336 0.099584702058 0.057966191189 0.047426942519 0.088194240586 0.14010843088 0.18320023077 
0.21035806945 0.22698335674 0.24421490909 0.26414211484 0.27575739706 0.26547738456 0.23087253957 0.18127131417 0.12972855182 
0.086083340558 0.056058410212 0.042914493074 0.03671444163 0.024567551849 0.003550185907 0.026726957406 0.05405009549 0.073195577864 
0.080495921625 0.077910574828 0.073338899233 0.077304673125 0.095550595225 0.12365114642 0.15459370945 0.1812199041 0.19650964411 
0.19602475474 0.17989752029 0.15199327433 0.11955127327 0.089684235828 0.076037141558 0.086844249658 0.11398534095 0.14113119217 
0.15930025474 0.16540611013 0.16528588714 0.1666591682 0.16894324251 0.16404749003 0.14217221536 0.10459595069 0.065079037374 
0.063896076513 0.11143675571 0.16065346409 0.18829647904 0.18262511718 0.15387793569 0.12608688588 0.12103653367 0.13593402424 
0.15563234989 0.17099844952 0.18560108844 0.20395305248 0.22356942999 0.23553677206 0.23188041226 0.21289953847 0.18445581591 
0.15211650884 0.11831664019 0.081602418023 0.041523601175 0.028700891844 0.095217500057 0.1943173047 0.31972627018 0.4274695586 
0.43691724438 0.33681939627 0 
Torsion 1 120 double
0 0 0.14432476798 0.19230995969 0.21845149287 0.16676791846 0.068896428547 -0.031340580218 -0.12879713156 
-0.23374806828 -0.32918473892 -0.33042668771 -0.12307123929 0.37253881667 0.96975162308 0.69478547318 0.36273844956 0.27439668414 
0.32977277533 0.52153211068 0.79616107952 0.77352278134 0.47636887493 0.2593514442 0.1368911925 0.049313079017 -0.044961273185 
-0.16084504256 -0.25322654139 -0.24732454586 -0.14905207688 -0.030124664795 0.054287605132 0.11244965295 0.19690124466 0.2732760007 
0.25243140868 0.15616797867 0.019087554632 -0.22170521956 -1.0055876044 -1.7380522006 -0.545822849 -0.26682420625 -0.2435389382 
-0.30042752533 -0.36173127778 -0.35611962003 -0.28101440614 -0.18899133776 -0.10856918442 -0.036008735534 0.048452878364 0.17674222759 
0.40341147786 0.74045717302 0.78969314717 0.53521139732 0.44925297503 9.4672788917 0.38562745655 0.25391872957 0.27539323112 
0.35920635801 0.51551339431 0.70799817177 0.72430733624 0.50625951002 0.2949908931 0.15852942659 0.076324331204 0.028714077852 
0.0081732917439 0.016077176825 0.067159186988 0.19955439557 0.47835108719 0.72965409475 0.48062045971 0.14538053624 -0.056858343209 
-0.2031664828 -0.33455671272 -0.43013570293 -0.42375590912 -0.31873980161 -0.176152671 -0.014807901239 0.27899647921 1.1673872617 
1.3579918138 0.45216288667 0.22449257461 0.18910860955 0.25638549249 0.42470718387 0.63655075555 0.56914981739 0.24787844167 
-0.031090585194 -0.23282641815 -0.35087393247 -0.36659711042 -0.30284389471 -0.21787639841 -0.14818815901 -0.088015700569 -0.036339399793 
0.0089122185309 0.067274615767 0.19433805138 0.92441711307 2.552891022 0.33326806663 0.11582748421 0.057770462361 0.033481106713 
0.023083018282 0 0 
FrenetTangent 3 120 double
-0.14232180915 -0.30744744476 0.94086161116 -0.14232180915 -0.30744744476 0.94086161116 -0.38350176525 -0.59483149805 0.70647143253 
-0.523802552 -0.78572126592 0.3290485964 -0.53398345932 -0.84489733565 -0.031782973113 -0.46838175923 -0.8269894966 -0.31097733058 
-0.37061338104 -0.77048290752 -0.51865384507 -0.26576457376 -0.69164713042 -0.67156045023 -0.17133003208 -0.60076475806 -0.7808506423 
-0.099403864245 -0.50750021798 -0.85589859243 -0.055241373873 -0.41975188706 -0.90595625939 -0.036734711733 -0.34218366351 -0.9389147466 
-0.035379148692 -0.27641249929 -0.96038765406 -0.037898149725 -0.22195125119 -0.97432098014 -0.028871480766 -0.17706442222 -0.98377570004 
0.0055590316844 -0.13978410515 -0.99016640072 0.073131453431 -0.10932049128 -0.99131267555 0.17064315921 -0.087588592671 -0.98143219361 
0.28210344831 -0.079795439378 -0.95605979536 0.38512838767 -0.09247851329 -0.91821775717 0.46225831088 -0.13030844879 -0.87711855652 
0.50590669703 -0.19407998895 -0.84047092263 0.51577435239 -0.2794658757 -0.8098614954 0.4960161537 -0.37691412289 -0.78224274956 
0.45456061449 -0.47424662047 -0.75396604084 0.40172896406 -0.56169265354 -0.72326703395 0.34675859923 -0.6358860638 -0.68949792438 
0.29512827154 -0.699594778 -0.65074299837 0.24829993456 -0.75920376488 -0.60162844505 0.20431532434 -0.82234000548 -0.53104817448 
0.15732218621 -0.89479134454 -0.41784946986 0.094823424996 -0.96987826771 -0.22437616604 -0.0023526178267 -0.9957663838 0.09189001079 
-0.13296932616 -0.86826081816 0.47795638918 -0.24993073616 -0.60987698295 0.7520536502 -0.33116432742 -0.36654315281 0.86946897896 
-0.39005200024 -0.18704619076 0.90159478683 -0.43632542929 -0.057844160297 0.89792771027 -0.47175641314 0.036941263296 0.88095472627 
-0.49444375895 0.10581826339 0.8627443795 -0.50123853606 0.15238802227 0.8517850789 -0.48872088265 0.17805391876 0.85407769019 
-0.45388182714 0.18325616475 0.87201402802 -0.39563494622 0.16764444198 0.90297748056 -0.31734497528 0.13034568144 0.93930941122 
-0.22814829506 0.070468376188 0.97107289295 -0.14020423953 -0.012613752697 0.99004225388 -0.063758057624 -0.11873378049 0.99087698503 
-0.0043750601313 -0.24501573833 0.96950922988 0.036583376269 -0.38298515025 0.92302981061 0.06098786438 -0.51817988585 0.85309441816 
0.073574064117 -0.63528881444 0.76876197834 0.08080154608 -0.72520048162 0.68378020709 0.088893984604 -0.78712115925 0.61035902562 
0.10208533969 -0.82543540319 0.55518913766 0.12178006088 -0.8456075435 0.51972829358 0.14629479111 -0.85257245381 0.50171510352 
0.17107943699 -0.85105021804 0.49643262646 0.18998973927 -0.84599142375 0.49819916691 0.19735203355 -0.84260384386 0.50106979272 
0.19014400796 -0.84519533775 0.49948983703 0.16946386729 -0.85558919445 0.4891309927 0.14059323945 -0.87272540012 0.46752958944 
0.11174546826 -0.89350546155 0.43492636216 0.091791764297 -0.9143427807 0.39440024262 0.088025468636 -0.9323256213 0.35074271586 
0.10511656775 -0.94527820892 0.30886828088 0.1451821179 -0.95121885468 0.2722220475 0.20816012713 -0.94765847583 0.24210075314 
0.29174339121 -0.93138059458 0.21775211075 0.3907077277 -0.89922072177 0.1968490921 0.49663534858 -0.84980029257 0.17661481617 
0.59925588866 -0.7853630493 0.15523292403 0.68943963686 -0.71201957466 0.13304552761 0.76177190141 -0.63794723967 0.11281351699 
0.81535956166 -0.57041750772 0.099058831443 0.85240398183 -0.51380775042 0.097000244148 0.87630155849 -0.4686960599 0.11144317844 
0.88993978111 -0.4321771134 0.14570562326 0.89502557832 -0.39846542056 0.20038593456 0.8924145194 -0.36017306924 0.27179346158 
0.88334521645 -0.31050300548 0.35112549347 0.87090556042 -0.24507270466 0.42598459392 0.85963421672 -0.16335085176 0.48409246294 
0.85315624416 -0.068303012665 0.5171645014 0.85170939104 0.033973884736 0.52291193175 0.85205255021 0.13523369776 0.50568596844 
0.8498220125 0.22606214861 0.47612860872 0.84236845871 0.29838078391 0.44875860722 0.82897680818 0.34812640017 0.43772761051 
0.80932168262 0.37375075008 0.45311013104 0.78170461889 0.37479105791 0.49846720224 0.74371187264 0.35102216125 0.56892538422 
0.69552833591 0.30384778388 0.6510889787 0.64348037788 0.23922687374 0.72712000809 0.59953700834 0.16581063842 0.78298289114 
0.57436258827 0.090492141017 0.81358391676 0.57194703758 0.015399739667 0.82014598348 0.58853826757 -0.06129627496 0.80614234121 
0.61416097036 -0.14316454536 0.7760864742 0.63555158494 -0.23324737367 0.73598223182 0.63966201763 -0.3327332493 0.69290770527 
0.61664670666 -0.4400797555 0.65274546951 0.56156802436 -0.54965486536 0.61848272652 0.47613317274 -0.65256297377 0.58945633178 
0.36901070478 -0.73958266682 0.56289304375 0.25286583613 -0.8050672707 0.5365869534 0.14005763602 -0.84908937068 0.50934379273 
0.039590632993 -0.87567709091 0.48127145587 -0.042962868898 -0.89022155593 0.45349726928 -0.10343290488 -0.89794736788 0.42777582763 
-0.13766408385 -0.90320502654 0.40653324594 -0.14037928036 -0.90891118599 0.39265011604 -0.10351153907 -0.91552956881 0.38870421907 
-0.015931039542 -0.91827038409 0.39563329446 0.13345368506 -0.90211730006 0.41033460843 0.34126013863 -0.83989694664 0.42203629798 
0.56736776437 -0.71131932292 0.41487183659 0.7505480099 -0.53757745141 0.38430218392 0.7505480099 -0.53757745141 0.38430218392 

FrenetNormal 3 120 double
-0.6182115258 -0.71473075871 -0.32706949097 -0.6182115258 -0.71473075871 -0.32706949097 -0.44363974339 -0.55226767048 -0.7058216476 
-0.16431733045 -0.2858278411 -0.94408805742 0.11733832294 -0.036826979829 -0.99240893362 0.33926345416 0.15664582773 -0.92755721836 
0.48390873733 0.31645716313 -0.81589656075 0.55181340428 0.46206467906 -0.69426090141 0.54781935123 0.60065643848 -0.58232791564 
0.46897557473 0.73473752633 -0.49012516535 0.30857100443 0.85574869469 -0.41530483594 0.09228371389 0.93437260108 -0.34413886513 
-0.070865962394 0.95926404797 -0.27347852136 -0.012101737635 0.97505186706 -0.2216470268 0.41615200127 0.89270806591 -0.17288672854 
0.82791358629 0.5559736936 -0.073840000361 0.95263271073 0.30186546173 0.036988666695 0.97681426439 0.1457285299 0.15683458948 
0.95892508555 -0.0073668737349 0.28356376615 0.88847790698 -0.23190941725 0.39601140261 0.6880879305 -0.57121050288 0.44749699586 
0.30164387275 -0.87303629677 0.38316915136 -0.065610126373 -0.9554084979 0.28790608444 -0.30238034485 -0.91946547516 0.25129537807 
-0.45009518683 -0.85274736466 0.26502123474 -0.53937526829 -0.78339960312 0.30880314407 -0.57752228205 -0.72398420295 0.37724645473 
-0.55748202904 -0.67921359017 0.47737059633 -0.47693731786 -0.63639777833 0.60624142267 -0.37122057912 -0.5670596708 0.73528131445 
-0.29818114258 -0.44641041735 0.8436858097 -0.28101275888 -0.24230366123 0.92861227921 -0.29650328639 0.088452714415 0.95092687336 
-0.3002553967 0.49486622313 0.81544718895 -0.28557186127 0.78858329417 0.54459627266 -0.29462783318 0.91556106015 0.27375606851 
-0.32733555618 0.94335832739 0.054097133139 -0.35233448143 0.9292266188 -0.11134767223 -0.34106949437 0.91370053691 -0.22095911129 
-0.2575365931 0.93015971063 -0.26168266265 0.052203570012 0.98790321833 -0.14602060979 0.78481658199 0.51731806114 0.34124032039 
0.87429093856 -0.097385466376 0.47553278089 0.8450084695 -0.3187027976 0.42940565119 0.82068241612 -0.45855027276 0.34089884016 
0.76864996913 -0.59914154786 0.22406836142 0.6618088156 -0.74492567193 0.084230842852 0.50364349256 -0.86100844391 -0.070765047348 
0.33883772239 -0.91252857314 -0.22908644894 0.20413620975 -0.90130806307 -0.38206306197 0.11139320343 -0.84581280921 -0.52172046731 
0.060260195978 -0.76661073821 -0.63927825307 0.056669508912 -0.68157115985 -0.7295541932 0.12070082733 -0.59975630652 -0.79102697999 
0.29575351094 -0.50768441841 -0.80918872463 0.62559874023 -0.34112908452 -0.7016104075 0.9297680145 -0.054698102806 -0.3640598258 
0.98158073177 0.19071174589 -0.011326826091 0.90546454119 0.3471437145 0.24418273103 0.1412892235 0.53023299695 0.83599660542 
-0.8758370275 -0.37590441004 -0.30266379989 -0.78162628302 -0.4189794931 -0.46207849772 -0.67617282287 -0.42957634316 -0.59854363166 
-0.52168116 -0.42525414549 -0.73959967486 -0.27019805114 -0.40408293113 -0.87390502798 0.12293184988 -0.33925027617 -0.93262908511 
0.5674632311 -0.19804346622 -0.7992272936 0.83914945956 -0.027380233397 -0.54321129162 0.93353404303 0.11863373481 -0.33829015278 
0.94385498426 0.24343760898 -0.22332912757 0.91647278542 0.35997553794 -0.17462887981 0.86598074494 0.47140506812 -0.16689700761 
0.79885041171 0.57397201374 -0.17998374139 0.7226128963 0.66340304776 -0.19423439015 0.64683599897 0.73924784669 -0.18739213324 
0.57882913327 0.80672783143 -0.11894133205 0.50701525454 0.85754374348 0.086915244246 0.36635477791 0.79852759288 0.47763779176 
0.15642589618 0.58933286469 0.79260186323 0.011161920184 0.46915107249 0.88304738419 -0.074353424564 0.47673865189 0.87589487157 
-0.11988729617 0.57452211627 0.80966127123 -0.12789810321 0.72389896913 0.67794716438 -0.092901149954 0.88173776521 0.46250177268 
-0.034777423519 0.98173805623 0.18703186831 0.0053550885135 0.99727965327 -0.073516094838 0.0018333067405 0.9652751369 -0.26122892081 
-0.046451536902 0.93195842316 -0.35957718534 -0.15062954 0.92990271842 -0.33554683123 -0.39188626517 0.91995353311 0.010519129616 
-0.57171803091 0.32439001108 0.75359777988 -0.47247794064 -0.16579575362 0.86560751134 -0.44706649032 -0.37157409227 0.81367330495 
-0.46097511464 -0.50637932197 0.7287536799 -0.45941608067 -0.63909949281 0.6168376635 -0.38450253247 -0.79833861176 0.46347951789 
-0.17563787616 -0.95710205619 0.23044954002 0.11712555344 -0.9911123848 -0.063070162691 0.28277634804 -0.91853282746 -0.27628786053 
0.27713570665 -0.88165134407 -0.38195118483 0.14826823524 -0.89865546542 -0.41283760111 -0.068819834317 -0.92262400918 -0.37951122261 
-0.31551246851 -0.89780720953 -0.30723622301 -0.53712014199 -0.81073780899 -0.23282215992 -0.70181592534 -0.68587906507 -0.19241703418 
-0.81615435842 -0.54760278593 -0.18445392941 -0.8886385298 -0.41258114906 -0.20024574598 -0.92590083324 -0.29458836542 -0.2364853948 
-0.93810663705 -0.19842798826 -0.28387016573 -0.92862208841 -0.13185473018 -0.34680736303 -0.89105461123 -0.10744799377 -0.44099502088 
-0.72574890178 -0.18733325615 -0.66196282578 0.7954776112 -0.33965705106 -0.50184505353 0.99444975629 -0.10266611768 0.023007618398 
0.9946045371 0.026012352548 0.10042495849 0.97941608937 0.18331894814 0.08448838462 0.92289191501 0.38458459759 0.019110219711 
0.80040249094 0.59477288464 -0.07484028452 0.62847726447 0.76039526838 -0.16375397359 0.62847726447 0.76039526838 -0.16375397359 

FrenetBinormal 3 120 double
0.77301941244 -0.62820061387 -0.088345779294 0.77301941244 -0.62820061387 -0.088345779294 0.8100062803 -0.58410265285 -0.052095266635 
0.83584131355 -0.54858412074 0.020609731709 0.83731319298 -0.5336593162 0.1188038345 0.81579337843 -0.53995412506 0.2071972648 
0.79276607882 -0.55336331024 0.25556015173 0.79048792413 -0.55508601076 0.25885973512 0.81886505514 -0.52753535274 0.22620007313 
0.87759944284 -0.45011586969 0.16496945708 0.94959587501 -0.30249384264 0.082250527818 0.9950549116 -0.099288381849 -0.0027459288515 
0.99685823025 0.058383358105 -0.053526183168 0.99920832572 0.0033909646655 -0.039638657457 0.90883659117 -0.41439172222 0.047911909903 
0.56082812946 -0.81936173695 0.11881983518 0.2951994393 -0.94706191625 0.1262181359 0.1292857498 -0.98543971607 0.11042536345 
-0.029670267107 -0.9967840373 0.074439628048 -0.24956589074 -0.96833142403 -0.0071497840244 -0.55933197113 -0.81039389779 -0.17438313137 
-0.8081270865 -0.4473707438 -0.3831318698 -0.85420848083 -0.095359459194 -0.5111109907 -0.81396197842 0.1118882655 -0.5700411509 
-0.76862797929 0.2188882707 -0.60108148732 -0.74005956476 0.26605718332 -0.61767743671 -0.7390713684 0.26738696255 -0.61828611877 
-0.77595946456 0.22189196814 -0.59046664922 -0.84313577633 0.13640935135 -0.52011013405 -0.90578724316 0.046906770631 -0.42112851363 
-0.94145511626 -0.0081356637059 -0.33704016829 -0.95500803526 -0.025001631362 -0.29552423083 -0.95502893482 -0.025008522672 -0.29545610071 
-0.94454531657 -0.035079522009 -0.32650202462 -0.92519367657 -0.078654013329 -0.37125490841 -0.8963953526 -0.16551151698 -0.41119497758 
-0.86064561276 -0.274023336 -0.42918567142 -0.82793751754 -0.36495471504 -0.42582569558 -0.81309131509 -0.40470566084 -0.41844454998 
-0.83018086731 -0.35157560759 -0.43265958871 -0.86373301271 -0.028724934682 -0.50313036171 -0.38107063847 0.83706560414 -0.39256380738 
0.17206580645 0.97822965045 -0.11601771086 0.35976892001 0.93291150056 -0.015571009153 0.47515527834 0.87905725109 0.038546216199 
0.59759984974 0.79753596382 0.082527607463 0.73644542419 0.6670282127 0.11278963007 0.86155565258 0.49453690347 0.11469572187 
0.94083465962 0.3275040323 0.087012942104 0.97825868994 0.20240096378 0.045208244958 0.99190323854 0.12684753717 0.0061374005387 
0.99546751121 0.093360046655 -0.018120039145 0.99511792111 0.0976985953 -0.013975248323 0.98870074835 0.14398837954 0.041691447254 
0.94979389564 0.24680544252 0.19229828224 0.77058149017 0.41058352387 0.48746829327 0.33783024333 0.51973871181 0.78469255007 
-0.085035835094 0.48922648779 0.86800135392 -0.37952320565 0.40470946668 0.83196898016 -0.97009769105 -0.094189868184 0.22369340302 
0.44357046508 -0.37992198616 -0.8117293434 0.60028522502 -0.30401203052 -0.73975288707 0.72320388178 -0.23197961414 -0.65050872707 
0.84579058734 -0.14424597713 -0.51364518926 0.95841915943 -0.02634889258 -0.28414512259 0.98850355445 0.12521256318 0.084749848776 
0.81666148956 0.25928342261 0.51559297728 0.52416632586 0.30729954982 0.79423966755 0.29186221403 0.2964278161 0.90936626167 
0.15499536243 0.2706812121 0.95010953002 0.086169049519 0.24863568857 0.96475654404 0.058572006445 0.23583198363 0.97002711073 
0.052253225961 0.23186420216 0.97134370443 0.050035879353 0.23005330146 0.97189088342 0.036149144624 0.2157219056 0.97578547785 
-0.012067298084 0.15431808991 0.98794752262 -0.12783967861 -0.0249062968 0.9914820689 -0.31285740408 -0.37772700043 0.87146001507 
-0.42841349768 -0.68257579598 0.59207445288 -0.44587512342 -0.78811330391 0.42434984919 -0.44504819269 -0.8018700755 0.39866839377 
-0.45313161972 -0.75730589692 0.47027599737 -0.47451615359 -0.64491057669 0.59910330333 -0.50239266494 -0.44255509558 0.74279647117 
-0.52049491242 -0.1775530552 0.83520055001 -0.52398705732 0.065414588046 0.84921051303 -0.52345304534 0.22350784566 0.8222172172 
-0.52501885851 0.28345970165 0.80249971697 -0.51742257531 0.21505776447 0.8282656799 -0.39902707511 -0.18025955294 0.89904609832 
0.13467333506 -0.86895425514 0.47621591248 0.40706570036 -0.91216414696 0.047477200813 0.49701529526 -0.85948597212 -0.11941381833 
0.5511281862 -0.80700465086 -0.21213490014 0.61226617422 -0.7309735571 -0.30134331041 0.7019353091 -0.57893202811 -0.41487893255 
0.79953671189 -0.27525774549 -0.53382976678 0.81188557749 0.13213284493 -0.56866749542 0.75740362067 0.39056396603 -0.52325858219 
0.73891955082 0.44966078376 -0.50179983755 0.75768774129 0.37150237839 -0.5365587289 0.76556928727 0.1950731209 -0.61306618231 
0.72124803042 -0.016493129309 -0.69248050897 0.62939916356 -0.20145404952 -0.75051512899 0.52985998977 -0.32207370796 -0.78454886265 
0.44466072795 -0.39134213649 -0.80568490691 0.38259695799 -0.42619653339 -0.81974147306 0.35084399038 -0.43848025674 -0.82743190587 
0.34407632772 -0.44024534742 -0.82933438056 0.3685311504 -0.43602742056 -0.82101454293 0.44195397271 -0.42678501983 -0.78900648468 
0.67404534832 -0.38616956273 -0.62971099501 0.5894989633 0.24189572888 0.77069931142 0.018842598148 0.38892836991 0.92107528442 
-0.10250861794 0.39509854368 0.91290148649 -0.15144054222 0.39061303125 0.90801278735 -0.17835927501 0.38297233102 0.90637749459 
-0.19351917849 0.37452641634 0.90679671979 -0.2041911185 0.36443040427 0.90856836153 -0.2041911185 0.36443040427 0.90856836153 

plain_curvature_peaks 1 120 unsigned_char
0 0 0 0 0 0 0 0 0 
0 0 0 0 0 0 1 0 0 
0 0 0 0 0 0 0 0 0 
0 0 0 0 0 0 0 0 0 
0 1 0 0 0 0 0 0 0 
0 0 0 0 0 0 0 0 0 
0 0 0 0 0 0 0 0 0 
0 0 0 1 0 0 0 0 0 
0 0 0 0 0 0 0 0 0 
0 0 0 0 0 0 0 0 0 
0 0 0 0 0 0 0 0 0 
0 0 0 0 1 0 0 0 0 
0 0 0 0 0 0 0 0 0 
0 0 0 
weighted_curvature_peaks 1 120 unsigned_char
0 0 0 0 0 0 0 0 0 
0 0 0 0 0 0 0 0 1 
0 0 0 0 0 0 0 0 0 
0 0 0 0 0 0 0 0 0 
0 0 0 0 0 1 0 0 0 
0 0 0 0 0 0 0 0 0 
0 0 0 0 0 0 0 0 0 
0 0 0 0 0 0 0 0 1 
0 0 0 0 0 0 0 0 0 
0 0 0 0 0 0 0 0 0 
0 0 0 0 0 0 0 0 0 
0 0 0 0 0 0 0 0 1 
0 0 0 0 0 0 0 0 0 
0 0 0 
plain_torsion_tp 1 120 unsigned_char
0 0 0 0 0 0 0 0 0 
0 0 0 0 0 0 1 0 0 
0 0 0 0 0 0 0 0 0 
0 0 0 0 0 0 0 0 0 
0 1 0 0 0 0 0 0 0 
0 0 0 0 0 0 0 0 0 
0 0 0 0 0 0 0 0 0 
0 0 0 1 0 0 0 0 0 
0 0 0 0 0 0 0 0 0 
0 0 0 0 0 0 0 0 0 
0 0 0 0 0 0 0 0 0 
0 0 0 0 1 0 0 0 0 
0 0 0 0 0 0 0 0 0 
0 0 0 
plain_torsion_tn 1 120 unsigned_char
0 2 0 0 0 0 0 0 0 
0 0 0 0 0 0 0 0 0 
0 0 0 0 0 0 0 2 0 
0 0 0 0 0 0 0 0 0 
0 0 0 0 0 0 0 0 0 
0 0 0 0 0 0 2 0 0 
0 0 0 0 0 0 0 0 0 
0 0 0 0 0 0 0 0 0 
0 0 0 0 0 0 0 0 0 
2 0 0 0 0 0 0 0 0 
0 0 0 0 0 0 0 0 0 
0 0 0 0 0 0 0 0 0 
0 0 0 0 0 0 0 0 0 
0 0 0 
plain_torsion_tz 1 120 unsigned_char
0 0 3 0 0 0 0 0 0 
0 0 0 0 0 0 0 0 0 
0 0 0 3 0 0 0 0 0 
0 0 3 0 0 0 0 0 0 
0 0 0 0 0 0 0 0 0 
0 0 0 0 0 0 0 0 0 
3 0 0 0 0 0 0 0 0 
0 0 0 0 0 0 0 0 0 
0 0 3 0 0 0 0 0 0 
0 0 0 0 0 0 0 3 0 
0 0 0 0 0 0 0 0 0 
0 0 0 0 0 0 0 0 0 
0 0 0 0 0 0 0 0 0 
0 0 0 
weighted_torsion_tp 1 120 unsigned_char
0 0 0 0 0 0 0 0 0 
0 0 0 0 0 0 0 0 1 
0 0 0 0 0 0 0 0 0 
0 0 0 0 0 0 0 0 0 
0 0 0 0 0 1 0 0 0 
0 0 0 0 0 0 0 0 0 
0 0 0 0 0 0 0 0 0 
0 0 0 0 0 0 0 0 1 
0 0 0 0 0 0 0 0 0 
0 0 0 0 0 0 0 0 0 
0 0 0 0 0 0 0 0 0 
0 0 0 0 0 0 0 0 1 
0 0 0 0 0 0 0 0 0 
0 0 0 
weighted_torsion_tn 1 120 unsigned_char
0 0 0 0 2 0 0 0 0 
0 0 0 0 0 0 0 0 0 
0 0 0 0 0 0 0 0 0 
2 0 0 0 0 0 0 0 0 
0 0 0 0 0 0 0 0 0 
0 0 0 0 0 0 0 0 0 
0 2 0 0 0 0 0 0 0 
0 0 0 0 0 0 0 0 0 
0 0 0 0 0 0 0 0 0 
0 0 0 0 0 0 2 0 0 
0 0 0 0 0 0 0 0 0 
0 0 0 0 0 0 0 0 0 
0 0 0 0 0 0 0 0 0 
0 0 0 
weighted_torsion_tz 1 120 unsigned_char
0 0 0 0 0 3 0 0 0 
0 0 0 0 0 0 0 0 0 
0 0 0 0 0 0 3 0 0 
0 0 0 0 0 3 0 0 0 
0 0 0 0 0 0 0 0 0 
0 0 0 0 0 0 0 0 0 
0 0 0 0 0 0 3 0 0 
0 0 0 0 0 0 0 0 0 
0 0 0 0 0 0 0 3 0 
0 0 0 0 0 0 0 0 0 
0 0 0 0 3 0 0 0 0 
0 0 0 0 0 0 0 0 0 
0 0 0 0 0 0 0 0 0 
0 0 0 
plain_torsion_tp_raw 1 120 unsigned_char
0 0 0 0 0 0 0 0 0 
0 0 0 0 0 0 0 0 0 
0 1 0 0 0 0 0 0 1 
0 0 0 0 0 0 0 0 0 
0 0 0 0 0 0 0 0 0 
0 0 0 0 0 0 0 0 1 
0 0 0 0 0 0 0 0 0 
0 0 0 0 0 0 1 0 0 
0 0 0 0 0 0 0 0 0 
0 0 0 0 0 0 0 0 0 
0 0 0 0 1 0 0 0 0 
0 0 0 0 0 0 1 0 0 
0 0 0 0 0 0 0 0 0 
0 0 0 
plain_torsion_tn_raw 1 120 unsigned_char
0 0 0 0 0 0 0 0 0 
0 0 2 0 0 0 0 0 0 
0 0 0 0 2 0 0 0 0 
0 0 0 0 0 0 0 0 0 
0 0 0 0 0 0 0 0 0 
0 2 0 0 0 0 0 0 0 
0 0 0 2 0 0 0 0 0 
0 0 0 0 0 0 0 0 0 
0 0 0 0 0 0 0 0 0 
0 0 2 0 0 0 0 0 0 
0 0 0 0 0 0 0 0 0 
2 0 0 0 0 0 0 0 0 
0 0 0 0 0 0 0 0 0 
0 0 0 
plain_torsion_tz_raw 1 120 unsigned_char
0 3 0 0 0 0 0 0 0 
0 0 0 0 0 0 0 3 0 
0 3 0 0 0 0 3 0 0 
0 0 0 0 0 0 0 0 0 
0 0 0 0 0 0 0 0 0 
0 0 0 0 0 0 0 0 0 
0 0 0 0 0 0 0 0 0 
0 0 0 0 0 0 0 0 0 
0 0 0 0 0 0 0 0 0 
0 0 0 0 0 0 0 0 0 
0 0 0 0 0 0 0 0 0 
0 0 0 0 0 0 0 0 0 
0 0 0 0 0 0 0 0 0 
0 0 0 
weighted_torsion_tp_raw 1 120 unsigned_char
0 0 0 0 0 0 0 0 0 
0 0 0 0 0 0 0 0 0 
0 0 0 1 0 0 0 0 0 
0 0 1 0 0 0 0 0 0 
0 0 0 0 0 0 0 0 0 
0 0 0 0 0 0 0 0 0 
0 0 0 0 1 0 0 0 0 
0 0 0 0 0 0 0 0 0 
0 0 1 0 0 0 0 0 0 
0 0 0 0 0 0 0 0 0 
0 0 0 0 0 0 0 0 0 
1 0 0 0 0 0 0 0 0 
0 0 1 0 0 0 0 0 0 
0 0 0 
weighted_torsion_tn_raw 1 120 unsigned_char
0 0 0 0 0 0 0 0 0 
0 0 0 2 0 0 0 0 0 
0 0 0 0 0 0 0 2 0 
0 0 0 0 0 0 0 0 0 
0 0 0 0 0 0 0 0 0 
0 0 0 0 0 2 0 0 0 
0 0 0 0 0 0 0 0 0 
2 0 0 0 0 0 0 0 0 
0 0 0 0 0 0 0 0 0 
0 0 0 0 0 0 0 2 0 
0 0 0 0 0 0 0 0 0 
0 0 0 0 2 0 0 0 0 
0 0 0 0 0 0 0 0 0 
0 0 0 
weighted_torsion_tz_raw 1 120 unsigned_char
0 0 0 0 3 0 0 0 0 
0 0 0 0 0 0 0 0 0 
3 0 0 0 3 0 0 0 3 
0 0 0 0 0 0 0 0 0 
0 0 0 0 0 0 0 0 0 
0 0 0 0 0 0 0 0 0 
0 0 0 0 0 0 0 0 0 
0 0 0 0 0 0 0 0 0 
0 0 0 0 0 0 0 0 0 
0 0 0 0 0 0 0 0 0 
0 0 0 0 0 0 0 0 0 
0 0 0 0 0 0 0 0 0 
0 0 0 0 0 0 0 0 0 
0 0 0 
