# vtk DataFile Version 5.1
vtk output
ASCII
DATASET POLYDATA
POINTS 120 float
2.98717 14.0598 -5.97818 2.43828 14.0542 -5.76095 1.86875 13.9297 -5.48116 
1.28821 13.7055 -5.16943 0.706332 13.4016 -4.85633 0.132785 13.0391 -4.57223 
-0.422841 12.6419 -4.34655 -0.951428 12.2366 -4.20635 -1.4451 11.8516 -4.17389 
-1.89822 11.5137 -4.26394 -2.30859 11.2428 -4.48103 -2.67852 11.0464 -4.8177 
-3.01529 10.9164 -5.25453 -3.33068 10.8287 -5.7621 -3.63901 10.7485 -6.30501 
-3.95385 10.6377 -6.84705 -4.28381 10.464 -7.35648 -4.62881 10.2068 -7.81024 
-4.97792 9.85958 -8.19637 -5.3099 9.42841 -8.51439 -5.59696 8.92822 -8.77382 
-5.81094 8.37837 -8.99169 -5.93017 7.79893 -9.18964 -5.94504 7.20807 -9.3911 
-5.8601 6.62087 -9.61857 -5.69219 6.0491 -9.89073 -5.46531 5.50169 -10.2191 
-5.20428 4.98531 -10.6044 -4.92932 4.5049 -11.0334 -4.65332 4.06376 -11.4774 
-4.38206 3.66402 -11.8938 -4.11684 3.3073 -12.2323 -3.85779 2.99616 -12.4431 
-3.6063 2.73536 -12.4878 -3.36571 2.53171 -12.3468 -3.1405 2.39212 -12.0233 
-2.9349 2.32032 -11.5418 -2.75238 2.31415 -10.9419 -2.59621 2.36497 -10.2714 
-2.47038 2.45995 -9.57805 -2.38028 2.58733 -8.90463 -2.33258 2.74108 -8.28491 
-2.33426 2.92369 -7.74166 -2.39106 3.14525 -7.28502 -2.5052 3.41713 -6.91151 
-2.67285 3.7449 -6.60415 -2.88274 4.12134 -6.33499 -3.11665 4.52514 -6.06993 
-3.35254 4.92357 -5.77556 -3.56922 5.27961 -5.42617 -3.75133 5.55975 -5.00864 
-3.8924 5.74041 -4.5241 -3.99492 5.81128 -3.98613 -4.06742 5.77516 -3.41659 
-4.11978 5.64458 -2.84097 -4.15961 5.43641 -2.2843 -4.19126 5.16612 -1.76851 
-4.2174 4.84357 -1.31063 -4.2413 4.47196 -0.921254 -4.26732 4.05016 -0.602613 
-4.29941 3.5772 -0.347018 -4.33855 3.05536 -0.137305 -4.38106 2.49275 0.0504334 
-4.41902 1.9014 0.241547 -4.44236 1.29508 0.45678 -4.442 0.685811 0.707129 
-4.41249 0.0811246 0.991342 -4.35349 -0.516776 1.29658 -4.26956 -1.11085 1.60192 
-4.16854 -1.70688 1.88365 -4.05919 -2.31184 2.12079 -3.94861 -2.9311 2.29963 
-3.84045 -3.5675 2.41629 -3.7339 -4.22023 2.47706 -3.62385 -4.8852 2.49673 
-3.50192 -5.5555 2.49571 -3.35805 -6.22228 2.49654 -3.18222 -6.8754 2.52045 
-2.96609 -7.50441 2.58473 -2.70421 -8.09928 2.70096 -2.39452 -8.65124 2.87434 
-2.03837 -9.15334 3.10419 -1.63989 -9.60087 3.3851 -1.20512 -9.99166 3.70871 
-0.740919 -10.3256 4.0654 -0.25417 -10.6049 4.44608 0.248986 -10.8328 4.84267 
0.763459 -11.0129 5.24918 1.28547 -11.1488 5.66085 1.81244 -11.2426 6.07401 
2.34302 -11.2952 6.48488 2.8769 -11.3052 6.88945 3.41464 -11.2701 7.28244 
3.95739 -11.1863 7.658 4.50646 -11.0512 8.01021 5.06263 -10.8638 8.33478 
5.62532 -10.6274 8.63048 6.19171 -10.3499 8.90046 6.75594 -10.0451 9.15374 
7.30899 -9.73075 9.40459 7.83912 -9.42686 9.67083 8.33359 -9.15164 9.9712 
8.78108 -8.91789 10.3212 9.17487 -8.72952 10.7298 9.51563 -8.58049 11.1964 
9.81304 -8.45665 11.7106 10.0853 -8.3397 12.2542 10.3565 -8.213 12.8047 
10.652 -8.06689 13.3399 10.9934 -7.90044 13.8418 11.3945 -7.7217 14.2996 
11.8595 -7.54532 14.7098 12.3824 -7.38978 15.0768 12.9486 -7.27542 15.4105 
13.5382 -7.22275 15.7246 14.1274 -7.25121 16.0346 14.691 -7.37893 16.3562 
15.2038 -7.6226 16.7055 15.6401 -7.99822 17.0979 15.9744 -8.52137 17.5489 

LINES 2 120
OFFSETS vtktypeint64
0 120 
CONNECTIVITY vtktypeint64
0 1 2 3 4 5 6 7 8 
9 10 11 12 13 14 15 16 17 
18 19 20 21 22 23 24 25 26 
27 28 29 30 31 32 33 34 35 
36 37 38 39 40 41 42 43 44 
45 46 47 48 49 50 51 52 53 
54 55 56 57 58 59 60 61 62 
63 64 65 66 67 68 69 70 71 
72 73 74 75 76 77 78 79 80 
81 82 83 84 85 86 87 88 89 
90 91 92 93 94 95 96 97 98 
99 100 101 102 103 104 105 106 107 
108 109 110 111 112 113 114 115 116 
117 118 119 
CELL_DATA 1
FIELD FieldData 2
Length 1 1 double
74.421172688 
Tortuosity 1 1 double
1.1201818863 
POINT_DATA 120
FIELD FieldData 19
Curvature 1 120 double
0 0.32704623614 0.20723236066 0.14540691961 0.12235522455 0.1295531462 0.1664848754 0.23964525075 0.35495968241 
0.48171109207 0.51722064665 0.40248369149 0.22461946875 0.06973645417 0.07599082797 0.18040054596 0.25827107644 0.29028265813 
0.27939944284 0.25515017279 0.24682442116 0.25938926697 0.27157308386 0.260342177 0.22565942786 0.18551352326 0.15143661258 
0.11939704876 0.080933504557 0.043369589649 0.11599297022 0.35049355519 0.91055628475 1.658402932 1.3121461074 0.61141715793 
0.28921114356 0.16243515023 0.111041201 0.098370485947 0.11919813309 0.1852612335 0.31033379565 0.44652856582 0.45085476004 
0.2854903354 0.084277157381 0.0929311071 0.24202052301 0.37261774639 0.44856364865 0.43495789903 0.35987403851 0.28115814012 
0.22994855169 0.21318128862 0.23000401812 0.27085383289 0.30437315367 0.2853957376 0.20653882975 0.1035461918 0.023293458105 
0.059598034264 0.093887540578 0.099436863059 0.081031582775 0.05559860941 0.063582343662 0.10372468836 0.1391325867 0.15075130458 
0.13263733068 0.093444183182 0.050972008314 0.047982862104 0.089724570369 0.13587901108 0.17459478149 0.19908791164 0.20617828223 
0.19802760075 0.18042162387 0.15986866167 0.13968325547 0.12213389962 0.108524994 0.097927133657 0.092287139795 0.090995673268 
0.095422726294 0.10453451719 0.11719595565 0.12832298611 0.13319897598 0.12499089934 0.10318787292 0.06751269093 0.029143636168 
0.052524636343 0.11933009212 0.19240114976 0.24650151479 0.24750987512 0.18965643199 0.099345671441 0.024176558757 0.088051215937 
0.15253201552 0.18897936731 0.19370497225 0.17533447463 0.15495675415 0.15412325412 0.18240884665 0.23520450032 0.29663625746 
0.33926284871 0.33165068681 0 
Torsion 1 120 double
0 0 -0.31775545612 -0.44805299893 -0.53231557891 -0.50018775046 -0.39728464737 -0.29043419928 -0.19765631986 
-0.12458886333 -0.071947463352 -0.018158942159 0.11633567655 1.4777046812 0.99498104723 0.08162904855 -0.051267586423 -0.15164842983 
-0.28790481943 -0.44761911251 -0.52522359295 -0.4747287622 -0.40720228276 -0.39215593054 -0.41775542936 -0.42090282793 -0.33321368286 
-0.14710356598 0.29399428721 2.9010087936 0.81510138533 0.18393790672 0.034944514889 -0.008779234567 -0.037136470206 -0.080276269802 
-0.086441739467 -0.038811637702 0.032483230065 0.055084335666 -0.017235592745 -0.090950653267 -0.089996935014 -0.063274875458 -0.033744854514 
0.034812903997 0.91455606689 0.61160147765 0.011128287172 -0.056721082886 -0.090262589259 -0.1225356352 -0.15289548131 -0.16437215839 
-0.14321211101 -0.10666155809 -0.091218569783 -0.091647825669 -0.084812474227 -0.064369530015 -0.011161077651 0.22847358087 4.8915604064 
0.3946149572 -0.027286473722 -0.18011467282 -0.46499437284 -1.2766954305 -1.0774714034 -0.37604543602 -0.14563774947 -0.038759190884 
0.064162594309 0.29035072657 1.2205996457 1.3907604303 0.3487136621 0.11301354197 0.035902425743 0.0003284724133 -0.020918931377 
-0.035928550334 -0.046799247701 -0.05145790861 -0.051883652796 -0.046953937399 -0.040900816195 -0.045786771784 -0.063330884797 -0.091800538164 
-0.11880156369 -0.12943620662 -0.11848489286 -0.093962327076 -0.063059504378 -0.028224575396 0.041911159728 0.28683905055 2.3180931269 
0.80943510028 0.12169073025 -0.0058779122878 -0.057346886802 -0.098901379275 -0.17375740121 -0.48074724135 -6.1251388204 -0.52632666907 
-0.27205631103 -0.25951176416 -0.3105311733 -0.43117604708 -0.59623711864 -0.63875740918 -0.48520823081 -0.30965957641 -0.1921780203 
-0.12533595677 0 0 
FrenetTangent 3 120 double
-0.90870610383 -0.10574248804 0.40382142476 -0.90870610383 -0.10574248804 0.40382142476 -0.85861336753 -0.26031605509 0.44160914457 
-0.81776783527 -0.37152437349 0.43957412061 -0.79061012153 -0.45601316873 0.40864119429 -0.7769751914 -0.52275190683 0.35077057439 
-0.77574325198 -0.57418695801 0.26178568383 -0.78420483988 -0.60619974549 0.13245617268 -0.79390747108 -0.60611780466 -0.048292175711 
-0.78477914088 -0.55335438472 -0.27914266058 -0.73277457251 -0.43886634347 -0.52003630493 -0.64398387794 -0.29742822008 -0.70485545955 
-0.55828662867 -0.18634474656 -0.80845016895 -0.5057866873 -0.13615721755 -0.85184566622 -0.49235348384 -0.15094142458 -0.85720752055 
-0.50938640632 -0.22475279096 -0.83066941199 -0.53885372157 -0.34400658614 -0.76895782423 -0.55707280558 -0.48508570889 -0.67406360555 
-0.54433090918 -0.62209410088 -0.56276353023 -0.49184645163 -0.73999225698 -0.45880118531 -0.39842679682 -0.83498545108 -0.37954628712 
-0.26684516654 -0.904377378 -0.33300933209 -0.10781201128 -0.94088394994 -0.32111362937 0.055798335028 -0.93819134289 -0.34158973921 
0.19644204427 -0.90040879477 -0.38816816658 0.29682254697 -0.841446186 -0.45151377794 0.35593043786 -0.77603730904 -0.52065306912 
0.38442351656 -0.71491776119 -0.58404721953 0.39815918611 -0.6659740373 -0.63083107419 0.41406439388 -0.63622270853 -0.65097722147 
0.44863979942 -0.63260542116 -0.63129447288 0.5184420825 -0.66042805215 -0.54318744004 0.63175445818 -0.70773165674 -0.31623125497 
0.71996652129 -0.67955675211 0.14089296962 0.62777896161 -0.46260109875 0.62601421613 0.45966795914 -0.22554925423 0.8589720026 
0.33702477237 -0.067701052248 0.93905850208 0.2574525819 0.033944919587 0.96569452235 0.20138667027 0.10411657243 0.97396260112 
0.1540771073 0.15866280638 0.9752365656 0.10356959781 0.21129956933 0.97191863364 0.037990476875 0.27763903438 0.95993400307 
-0.054150203447 0.37420166457 0.92576501862 -0.17430456261 0.50312821916 0.84645136572 -0.29660361421 0.63118556089 0.71668060093 
-0.38316553222 0.71471578847 0.58512008736 -0.42486178565 0.74695113193 0.51142591799 -0.43299367959 0.73937682578 0.51559517349 
-0.41513777549 0.69206476416 0.5905141739 -0.37156560622 0.59274660581 0.71455612905 -0.30395202348 0.43338802274 0.84840319965 
-0.22537535254 0.23272269055 0.94606876059 -0.15602658768 0.030976035448 0.98726703032 -0.1072765665 -0.14321840927 0.98385986071 
-0.077765317505 -0.28574821329 0.95514423727 -0.060750134325 -0.40667110674 0.91155253942 -0.05063042729 -0.51939175125 0.85303503361 
-0.045641390512 -0.63310191338 0.7727217033 -0.0468920579 -0.74529785679 0.66508062636 -0.054578152427 -0.84033632562 0.53931075005 
-0.064719084886 -0.90391122872 0.4227953768 -0.070514400004 -0.9365893721 0.34326093204 -0.066107579537 -0.9480282227 0.31124311541 
-0.048414932547 -0.94586979692 0.32091481982 -0.017649463677 -0.93370133087 0.35761756273 0.022518616246 -0.91496590673 0.40290234727 
0.065941441381 -0.8959809601 0.43916949512 0.1061180108 -0.88500096604 0.45333459817 0.13803701698 -0.88823634524 0.43815747961 
0.15876166021 -0.90634839768 0.39157032226 0.16768723721 -0.93342603832 0.31717001981 0.16718258314 -0.95970807835 0.22585479459 
0.16280125537 -0.97744457906 0.13452823539 0.16190968723 -0.98497217647 0.060125408604 0.17114726963 -0.9851492708 0.013766856886 
0.19497154051 -0.9808088906 -0.00013606513217 0.23537301129 -0.97173443976 0.018213295835 0.2917247852 -0.95424758675 0.065636825674 
0.3604207595 -0.92280759835 0.13609927462 0.43508592561 -0.87298273635 0.22045720531 0.50814502587 -0.80441724397 0.30773613746 
0.57337782174 -0.72154585699 0.38808433336 0.62763785805 -0.63145459963 0.45534141887 0.67075377218 -0.54077404166 0.50759512701 
0.7040921192 -0.45407420551 0.54595870134 0.72951413955 -0.37376888527 0.57280532522 0.74878468421 -0.30020141657 0.59093198102 
0.76336632398 -0.23270823593 0.60259333912 0.77469570616 -0.16963330561 0.60915605922 0.78415564315 -0.1085334475 0.6109995238 
0.7929762519 -0.04662795298 0.60746563517 0.80206498614 0.018746196837 0.59694249147 0.81162587587 0.089280336393 0.57731487002 
0.8207440963 0.16455465531 0.54708399155 0.82757206613 0.24151442519 0.50674969934 0.8302207741 0.31449300011 0.46024734559 
0.82812384107 0.37692386472 0.41489673901 0.82214756305 0.42343295047 0.38049693958 0.81360651916 0.45086180242 0.36710770505 
0.80227986591 0.45788862329 0.38299481121 0.78439637743 0.44334641136 0.4337813765 0.75192412311 0.40629099425 0.51917024286 
0.69590701245 0.34917034616 0.62752968009 0.61657367642 0.283209822 0.73459451282 0.53113763071 0.22711369367 0.81627947873 
0.46490719178 0.19650627293 0.8632766577 0.43624349542 0.19558623002 0.87831522777 0.45163198997 0.21742234714 0.86530692162 
0.50686035413 0.24874434119 0.82535982101 0.58861395139 0.27363023361 0.76069712204 0.67848994203 0.27817947177 0.67990262542 
0.7598556477 0.25532334642 0.5978539817 0.82328911237 0.20402719691 0.52968664357 0.86546902425 0.12506804432 0.48509932216 
0.88363193935 0.018149759857 0.46783029185 0.87088674747 -0.1179785889 0.47711353539 0.81443520636 -0.28101231114 0.50766856869 
0.70073340636 -0.45726458317 0.54761464022 0.53013850507 -0.61830476957 0.5802175259 0.53013850507 -0.61830476957 0.5802175259 

FrenetNormal 3 120 double
0.24905698703 -0.91367651905 0.32119438935 0.24905698703 -0.91367651905 0.32119438935 0.33919831416 -0.93441519673 0.10868644715 
0.33095677039 -0.928394495 -0.1689712336 0.22734830308 -0.83827258508 -0.4955923952 0.077415090064 -0.63230454194 -0.77084231207 
-0.036998302392 -0.37274517546 -0.92719585838 -0.072969844194 -0.12188962738 -0.98985772744 -0.023412356089 0.10983659876 -0.99367388169 
0.10423659648 0.32613499636 -0.93955877735 0.27491779655 0.5081470207 -0.81621492911 0.43076315393 0.62043325787 -0.65536682685 
0.55172775791 0.64435931941 -0.52952577712 0.75366277442 0.41070989608 -0.51313721724 -0.099256824022 -0.96868715424 0.22758137027 
-0.24629566788 -0.88683186334 0.39098297935 -0.18034573782 -0.8445454155 0.5042008092 -0.034605740642 -0.79740709612 0.60244864161 
0.17941065305 -0.74166920363 0.64632701473 0.45473125202 -0.66768732692 0.58941761248 0.73494645352 -0.53821023762 0.41253296908 
0.92349397388 -0.3387633991 0.17999511004 0.99416492406 -0.10318928504 -0.031433663915 0.96663075346 0.13643274115 -0.21682041788 
0.8465219125 0.35550953773 -0.39624944193 0.63776816018 0.5265916203 -0.56209700168 0.39151866339 0.62971703522 -0.67094678759 
0.20592921548 0.6831313032 -0.70066024634 0.19458977472 0.73336028824 -0.65139658213 0.76042917127 0.63485308381 -0.13678098353 
0.71405808614 -0.17105522147 0.67886755765 0.53024100637 -0.25006947086 0.81012945565 0.34837464067 -0.10521039998 0.93143216687 
0.020027825392 0.22327294099 0.9745501937 -0.34886084177 0.55173220167 0.75755375434 -0.53498371625 0.70169960166 0.47054233857 
-0.59253722571 0.75985201489 0.26744074413 -0.60857278763 0.78197158022 0.13475759676 -0.63390225566 0.77188736131 0.048557509417 
-0.67700106303 0.73587139903 -0.012761063635 -0.704475421 0.70539749811 -0.0782863389 -0.69095106513 0.70127888476 -0.17548376388 
-0.64876085031 0.69159628884 -0.31749635017 -0.59156792852 0.63369032617 -0.49848165108 -0.51508117016 0.52620885511 -0.67660596284 
-0.45173366948 0.40754447116 -0.79362723988 -0.5178157926 0.26287325045 -0.81410346955 0.11750354838 -0.5208164843 0.84554308335 
0.2393665343 -0.54312853835 0.80480746337 0.29045928954 -0.65680294782 0.69587591484 0.32683860011 -0.78905328683 0.52016482005 
0.33243006689 -0.8944078114 0.29920714819 0.2971700689 -0.95172884941 0.076825434312 0.23119193338 -0.96603803625 -0.11541578081 
0.15803714832 -0.949465333 -0.27118230249 0.10070421938 -0.91107665768 -0.39974740028 0.058154583436 -0.85421445809 -0.51665820811 
0.015335219049 -0.7738807014 -0.63314571077 -0.029850265647 -0.6644701707 -0.74671838995 -0.068718076051 -0.53567410077 -0.8416240751 
-0.086603178179 -0.41699746214 -0.90477235043 -0.034475126309 -0.34162372182 -0.93920429 0.74248323642 -0.2551207271 -0.61938038251 
0.65482244949 0.21255487012 0.7252778687 0.60274170357 0.27543926638 0.74888961089 0.66077654915 0.31605014279 0.68079854534 
0.7987944385 0.31116185121 0.51488420773 0.99173316971 0.12727531605 0.016319130445 0.62915238135 -0.26303019273 -0.73142490985 
0.2110842983 -0.35627137244 -0.91022751452 0.03424298383 -0.31601652399 -0.94813552545 -0.042554092589 -0.23588935853 -0.97084775312 
-0.051041764866 -0.14450806238 -0.98818629729 0.044419597969 -0.053592991429 -0.99757440353 0.45583305201 0.066787569974 -0.88755599778 
0.97747940307 0.19429825864 0.082354133245 0.80257835823 0.20490098197 0.56025312715 0.69807617733 0.25931759224 0.66741594003 
0.63320150201 0.34918297979 0.69074387762 0.5771514161 0.45833148546 0.67589088789 0.51997035402 0.57136898119 0.63495536715 
0.46204736115 0.67595204083 0.57410893962 0.40619636514 0.76458709209 0.50041092269 0.35545307181 0.83505297111 0.41992814763 
0.30838826584 0.88807737345 0.34090358792 0.26747136946 0.92668425924 0.26403664556 0.22603112748 0.95376138992 0.1981139584 
0.19106209308 0.9724567296 0.13350350425 0.16108310124 0.98450483268 0.069299847954 0.14489139898 0.98939494138 -0.010204532064 
0.13571470892 0.98553376863 -0.10151211099 0.13374160163 0.96848647475 -0.2101121896 0.12225622953 0.94040913294 -0.31730754329 
0.09886949114 0.90225692693 -0.41971092615 0.056931657621 0.86195480149 -0.50377843002 0.0046344150056 0.8217297829 -0.569858479 
-0.058878426679 0.79456232245 -0.60432114526 -0.15626637123 0.81057796405 -0.56439718764 -0.47616486853 0.87902129506 -0.02426068454 
-0.37856761694 -0.10580911263 0.9195058407 -0.30207066204 -0.33776619978 0.89144114187 -0.35940815758 -0.40755323154 0.83947968393 
-0.46934531097 -0.44023867051 0.76544424491 -0.59481363571 -0.44370747272 0.67031367092 -0.71241053713 -0.40180543102 0.57534652358 
-0.82761189137 -0.24992356349 0.50259006126 -0.46767266142 0.88318395999 0.035614246906 0.67725100403 0.54783305965 -0.49113136358 
0.75478673998 0.3344373764 -0.5643125184 0.75646981002 0.14542861631 -0.63765503533 0.71972408887 -0.066348095788 -0.69108260438 
0.64980930801 -0.32541345723 -0.68691625769 0.52255601157 -0.63682658859 -0.56691014353 0.30184413661 -0.90301320461 -0.30570781718 
0.036380759235 -0.99888871127 -0.029963024729 -0.20600710784 -0.96899453712 0.13642088755 -0.42557871045 -0.88401086086 0.19341033864 
-0.62822310326 -0.75925789427 0.16989167879 -0.79961257767 -0.59221433727 0.09950831307 -0.79961257767 -0.59221433727 0.09950831307 

FrenetBinormal 3 120 double
0.33499825982 0.39244584946 0.85659933526 0.33499825982 0.39244584946 0.85659933526 0.38435346854 0.24311271374 0.89060014577 
0.47087512542 0.0073007913799 0.88216966322 0.56854936885 -0.29891648171 0.76642061046 0.62475311586 -0.57177041735 0.53175382844 
0.62996312005 -0.72895155629 0.26791061187 0.61619653598 -0.78591652693 0.05135213474 0.60758768004 -0.78775448488 -0.10139074222 
0.61094715974 -0.76644301097 -0.19826416454 0.62246416043 -0.74106878083 -0.25170504774 0.63224035791 -0.72567143145 -0.27142789726 
0.61960674738 -0.74167156 -0.25692562287 0.41972878078 -0.90154234142 -0.10511497144 -0.86471736991 0.19713417653 0.46195452873 
-0.82453861828 0.4037516924 0.39638445712 -0.82286820427 0.41036874862 0.39304631859 -0.82974232868 0.35893422531 0.42742705799 
-0.8194606024 0.25084999908 0.51532378082 -0.74250020637 0.081271723802 0.66489724804 -0.54873472465 -0.11458200821 0.828106977 
-0.27559487894 -0.25950128631 0.92558443435 -0.0035600559668 -0.32262883349 0.946518865 0.25002306349 -0.31809292867 0.91449732446 
0.4947839679 -0.25075280833 0.83205279533 0.71073775014 -0.12111804777 0.69295185189 0.84854384661 0.034964990182 0.52796855005 
0.89989539288 0.14907789009 0.40983419154 0.89643967008 0.13660625636 0.42158587338 0.50029806436 -0.438385934 0.74667236434 
-0.53744151309 -0.75534792799 0.37497483607 -0.6708668141 -0.70802545694 0.22053949776 -0.69247484742 -0.69860337373 0.18008862237 
-0.69371975209 -0.69882173298 0.1743590866 -0.69583740086 -0.69396815566 0.18498245994 -0.70887078561 -0.67582927056 0.20188364559 
-0.7316515147 -0.64656127551 0.21597355867 -0.75057133587 -0.62238909869 0.22197855664 -0.74673378075 -0.62717592492 0.22144755563 
-0.71967340208 -0.65827000385 0.22079582509 -0.70213084223 -0.67658470398 0.22191308824 -0.72190258987 -0.65660071001 0.21847690578 
-0.75906331394 -0.61779259263 0.20531731035 -0.78718822743 -0.58762110717 0.18717940326 -0.80418759265 -0.56983245654 0.16903634904 
-0.80568037507 -0.5684090479 0.16670419156 -0.74253570152 -0.61070587086 0.27509829383 0.89370542661 0.42669907332 0.13863084531 
0.87770398747 0.47545531129 0.059816029107 0.88180065853 0.46611302174 0.071876627474 0.8948685361 0.4353960637 0.09818640851 
0.91580358216 0.38193561788 0.12421345622 0.94199026221 0.30537302178 0.13928985418 0.96697571232 0.21507905469 0.13674418457 
0.98436619972 0.12985969364 0.11899430585 0.9930599586 0.067512478645 0.096301525684 0.99702287048 0.023449271197 0.073454253944 
0.99884017467 -0.017047794052 0.045029747824 0.99845385299 -0.05486799535 0.0089110347058 0.99614208389 -0.082994684194 -0.02851019281 
0.99413848612 -0.0951714619 -0.05129389105 0.9969148334 -0.078061390979 -0.0081996451312 0.66659465311 0.19014705774 0.72076047677 
-0.75423043823 0.24525650749 0.60908594762 -0.79774114549 0.22876851897 0.55791937547 -0.75024480272 0.25089778149 0.61170502632 
-0.59797923988 0.31685394346 0.73622306891 -0.072140750465 0.44785520432 0.89119101661 0.76492683505 0.37663153441 0.52252810863 
0.96448854543 0.22716357808 0.13475368097 0.98524535449 0.16985107462 -0.021028645083 0.98500717414 0.15269778936 -0.080276098719 
0.98533775402 0.15401141118 -0.073416590341 0.98580533195 0.16418770614 0.03507484361 0.87345568908 0.15817817405 0.46049410904 
-0.080747228846 -0.01618971309 0.99660311971 -0.54814918084 -0.11725086855 0.82812119244 -0.65390083372 -0.14888226738 0.74178687648 
-0.68494724904 -0.16278016788 0.71017595213 -0.69108355518 -0.16683342433 0.7032568011 -0.68659992982 -0.16263574313 0.70861142485 
-0.67657232399 -0.14986799111 0.72096426794 -0.6641349502 -0.12911881042 0.7363783679 -0.65095506054 -0.10124214194 0.75233472461 
-0.63964909534 -0.071660272536 0.76531943669 -0.62949836117 -0.039409441523 0.77600174562 -0.62308219851 -0.014775675848 0.78201678582 
-0.6170633128 0.013220665374 0.78680244153 -0.61147264644 0.044438452512 0.79001672551 -0.60341230499 0.096530517186 0.79156518963 
-0.59394459481 0.16293871515 0.78783297304 -0.58206953365 0.24835967533 0.77428194455 -0.57124150055 0.32811535201 0.7523453089 
-0.56267570777 0.39856518064 0.72425261109 -0.55846509445 0.44576305658 0.69957989942 -0.55741545408 0.47524132477 0.68075964539 
-0.55744437814 0.47602428083 0.68018868658 -0.54740680101 0.4045588964 0.73258302843 -0.33363370628 -0.15506514101 0.92986200701 
0.46155560462 -0.88269045557 0.088453284249 0.54173391827 -0.83027582996 -0.13102063954 0.55266254563 -0.81781904566 -0.16042480856 
0.54353326403 -0.82720613051 -0.14248371326 0.51578449018 -0.85024459738 -0.10512128382 0.45865460189 -0.88711429126 -0.051615796139 
0.31451527832 -0.94811576145 0.046439666138 -0.76874826469 -0.42630050369 0.47675359054 -0.58082667223 0.80784061653 0.10016943201 
-0.41640071874 0.90899829152 -0.018235883342 -0.28510882617 0.95077705737 -0.12139169834 -0.14713474932 0.95823489379 -0.24522898253 
0.019163973481 0.91044828004 -0.41317874036 0.22165345077 0.7435218887 -0.63090803512 0.39981681463 0.41100503231 -0.81928101293 
0.46676657562 0.043496306861 -0.88331027118 0.44622566556 -0.21709592258 -0.86818892863 0.39443384218 -0.37357312386 -0.83956242488 
0.33809529092 -0.46307294346 -0.81930154601 0.28208667299 -0.51670241983 -0.80835989402 0.28208667299 -0.51670241983 -0.80835989402 

plain_curvature_peaks 1 120 unsigned_char
0 0 0 0 0 0 0 0 0 
0 0 0 0 0 0 0 0 0 
0 0 0 0 0 0 0 0 0 
1 0 0 0 0 0 0 0 0 
0 0 0 0 0 0 0 0 0 
0 0 0 0 0 0 0 0 0 
0 0 0 0 0 0 0 0 1 
0 0 0 0 0 0 0 0 0 
0 0 0 0 0 0 0 0 0 
0 0 0 0 0 0 0 0 0 
0 0 0 0 1 0 0 0 0 
0 0 0 0 0 0 0 0 0 
0 0 0 0 0 0 0 0 0 
0 1 0 
weighted_curvature_peaks 1 120 unsigned_char
0 0 0 0 1 0 0 0 0 
0 0 0 0 0 0 0 0 0 
0 0 0 0 0 0 0 0 0 
0 0 0 0 0 0 0 0 0 
0 1 0 0 0 0 0 0 0 
0 0 0 0 0 0 0 0 0 
0 0 0 0 0 0 0 0 0 
0 0 0 0 1 0 0 0 0 
0 0 0 0 0 0 0 0 0 
0 0 0 0 0 0 0 0 0 
0 0 0 0 0 0 0 0 1 
0 0 0 0 0 0 0 0 0 
0 0 0 0 0 0 0 0 0 
0 0 0 
plain_torsion_tp 1 120 unsigned_char
0 0 0 0 0 0 0 0 0 
0 0 0 0 0 0 0 0 0 
0 0 0 0 0 0 0 0 0 
1 0 0 0 0 0 0 0 0 
0 0 0 0 0 0 0 0 0 
0 0 0 0 0 0 0 0 0 
0 0 0 0 0 0 0 0 1 
0 0 0 0 0 0 0 0 0 
0 0 0 0 0 0 0 0 0 
0 0 0 0 0 0 0 0 0 
0 0 0 0 1 0 0 0 0 
0 0 0 0 0 0 0 0 0 
0 0 0 0 0 0 0 0 0 
0 1 0 
plain_torsion_tn 1 120 unsigned_char
0 0 0 0 0 0 0 0 0 
0 2 0 0 0 0 0 0 0 
0 0 0 0 0 0 0 0 0 
0 0 0 0 0 0 0 0 0 
0 0 0 0 0 0 0 0 0 
0 2 0 0 0 0 0 0 0 
0 0 0 0 0 0 0 0 0 
0 0 0 0 0 0 0 0 0 
0 0 0 0 0 2 0 0 0 
0 0 0 0 0 0 0 0 0 
0 0 0 0 0 0 0 0 0 
0 0 0 0 0 0 0 0 0 
0 2 0 0 0 0 0 0 0 
0 0 0 
plain_torsion_tz 1 120 unsigned_char
0 0 0 0 0 0 0 0 0 
0 0 3 0 0 0 0 0 0 
0 0 0 0 0 0 0 0 0 
0 0 0 0 0 0 0 0 0 
0 0 0 3 0 0 0 0 0 
0 0 0 0 0 0 0 3 0 
0 0 0 0 0 0 0 0 0 
0 0 0 0 0 0 0 0 0 
0 0 0 0 0 0 0 0 0 
3 0 0 0 0 0 0 0 0 
0 0 0 0 0 0 0 0 0 
0 0 0 0 0 3 0 0 0 
0 0 0 0 3 0 0 0 0 
0 0 0 
weighted_torsion_tp 1 120 unsigned_char
0 0 0 0 1 0 0 0 0 
0 0 0 0 0 0 0 0 0 
0 0 0 0 0 0 0 0 0 
0 0 0 0 0 0 0 0 0 
0 1 0 0 0 0 0 0 0 
0 0 0 0 0 0 0 0 0 
0 0 0 0 0 0 0 0 0 
0 0 0 0 1 0 0 0 0 
0 0 0 0 0 0 0 0 0 
0 0 0 0 0 0 0 0 0 
0 0 0 0 0 0 0 0 1 
0 0 0 0 0 0 0 0 0 
0 0 0 0 0 0 0 0 0 
0 0 0 
weighted_torsion_tn 1 120 unsigned_char
0 2 0 0 0 0 0 0 0 
0 0 0 0 0 0 0 0 0 
0 2 0 0 0 0 0 0 0 
0 0 0 0 0 0 0 0 0 
0 0 0 0 0 0 0 0 0 
0 0 0 0 0 0 2 0 0 
0 0 0 0 0 0 0 0 0 
0 0 0 0 0 0 0 0 0 
0 0 0 0 0 0 0 0 0 
0 0 2 0 0 0 0 0 0 
0 0 0 0 0 0 0 0 0 
0 0 0 0 0 0 0 0 0 
0 0 0 0 0 0 0 0 0 
0 0 0 
weighted_torsion_tz 1 120 unsigned_char
0 3 0 0 0 0 0 0 0 
0 0 3 0 0 0 0 0 0 
0 0 0 0 0 0 0 3 0 
0 0 0 0 0 0 0 0 0 
0 0 0 0 0 0 0 0 0 
0 0 0 0 0 0 0 0 0 
0 3 0 0 0 0 0 0 0 
0 0 0 0 0 0 0 0 0 
0 0 0 0 0 3 0 0 0 
0 0 0 0 0 0 3 0 0 
0 0 0 0 0 0 0 0 0 
0 0 0 0 0 0 0 0 0 
0 0 0 0 0 0 0 0 0 
0 0 0 
plain_torsion_tp_raw 1 120 unsigned_char
0 0 0 0 0 0 0 0 0 
0 0 0 0 0 0 0 0 0 
0 0 0 0 0 0 0 0 0 
0 0 0 0 0 0 1 0 0 
0 0 0 0 0 0 0 0 0 
0 0 0 0 1 0 0 0 0 
0 0 0 0 0 0 0 0 0 
0 0 0 0 0 0 0 0 0 
0 0 0 0 0 0 0 1 0 
0 0 0 0 0 0 0 0 0 
0 0 0 0 0 0 0 1 0 
0 0 0 0 0 0 0 0 0 
0 0 0 0 0 0 1 0 0 
0 1 0 
plain_torsion_tn_raw 1 120 unsigned_char
0 0 0 0 0 0 0 0 0 
0 0 0 0 0 0 0 0 0 
0 0 2 0 0 0 0 0 0 
0 0 0 0 0 0 0 0 0 
0 0 0 0 0 2 0 0 0 
0 0 0 0 0 0 0 0 0 
0 0 0 0 0 0 0 0 0 
0 0 0 0 0 0 0 0 0 
2 0 0 0 0 0 0 0 0 
0 0 0 0 2 0 0 0 0 
0 0 0 0 0 0 0 0 0 
0 0 0 0 0 0 0 0 0 
0 2 0 0 0 0 0 0 2 
0 0 0 
plain_torsion_tz_raw 1 120 unsigned_char
0 0 0 0 0 0 0 0 0 
0 3 0 0 0 0 0 0 0 
0 0 0 0 0 0 0 0 0 
0 0 3 0 0 0 0 3 0 
0 0 0 0 0 0 0 0 0 
3 0 0 0 0 0 0 0 0 
0 0 0 0 0 0 0 0 0 
0 0 0 0 0 0 0 0 0 
0 0 0 0 0 0 0 0 0 
0 0 0 0 0 0 0 0 0 
0 0 0 0 0 0 0 0 0 
0 0 0 0 0 0 0 0 0 
0 0 0 0 0 0 0 0 0 
0 0 0 
weighted_torsion_tp_raw 1 120 unsigned_char
0 0 0 0 0 0 0 1 0 
0 0 0 0 0 0 0 0 0 
0 0 0 1 0 0 0 0 0 
0 0 0 0 0 0 0 0 0 
0 0 0 0 0 0 0 0 0 
0 0 0 0 0 0 0 0 1 
0 0 0 0 0 0 0 0 0 
0 0 0 0 0 0 0 1 0 
0 0 0 0 0 0 0 0 0 
0 0 0 0 0 0 0 0 0 
0 1 0 0 0 0 0 0 0 
0 0 1 0 0 0 0 0 0 
0 0 0 0 0 0 0 0 0 
0 0 0 
weighted_torsion_tn_raw 1 120 unsigned_char
0 0 2 0 0 0 0 0 0 
0 0 0 0 2 0 0 0 0 
0 0 0 0 0 0 0 0 0 
0 0 0 0 0 0 0 0 0 
0 0 0 0 0 0 0 0 0 
0 0 2 0 0 0 0 0 0 
0 0 0 0 2 0 0 0 0 
0 0 0 0 0 0 0 0 0 
0 0 0 0 0 0 0 0 0 
0 0 0 2 0 0 0 0 0 
0 0 0 0 0 2 0 0 0 
0 0 0 0 0 0 0 0 0 
0 0 0 0 0 0 0 0 0 
0 0 0 
weighted_torsion_tz_raw 1 120 unsigned_char
0 3 0 0 3 0 0 3 0 
0 0 0 0 0 0 0 0 3 
0 0 0 0 0 0 0 0 0 
0 0 0 0 0 0 0 0 0 
0 0 0 0 0 0 0 0 0 
0 0 0 0 0 0 0 0 0 
0 0 0 0 0 0 0 0 0 
0 0 0 0 0 0 0 0 0 
0 0 0 0 0 0 0 0 0 
0 0 0 0 0 0 0 0 0 
0 0 0 0 0 0 0 0 0 
0 0 0 0 0 0 0 0 0 
0 0 0 0 0 0 0 0 0 
0 0 0 
