# vtk DataFile Version 5.1
vtk output
ASCII
DATASET POLYDATA
POINTS 120 float
-5.98738 39.4522 -21.8623 -6.72759 39.4789 -21.5526 -7.42938 39.3564 -21.1809 
-8.08358 39.1231 -20.7759 -8.69458 38.811 -20.3561 -9.27097 38.4426 -19.9328 
-9.8217 38.0326 -19.5134 -10.3552 37.5903 -19.1045 -10.8796 37.1214 -18.7141 
-11.4039 36.6276 -18.3555 -11.9379 36.1056 -18.0572 -12.4889 35.5469 -17.8881 
-13.0262 34.9665 -17.9932 -13.4536 34.4458 -18.4244 -13.7679 33.9991 -19.0141 
-14.023 33.5807 -19.6522 -14.2476 33.1619 -20.3015 -14.4523 32.7282 -20.9475 
-14.639 32.271 -21.5827 -14.8032 31.7853 -22.2027 -14.9336 31.2689 -22.8056 
-15.0138 30.7228 -23.3908 -15.0243 30.1514 -23.9567 -14.9495 29.5637 -24.5005 
-14.7804 28.9723 -25.0184 -14.5191 28.3894 -25.5069 -14.1792 27.8225 -25.9652 
-13.778 27.2728 -26.3941 -13.3323 26.7355 -26.7941 -12.8562 26.2016 -27.1622 
-12.3623 25.6567 -27.4884 -11.8657 25.0795 -27.7469 -11.3992 24.4389 -27.8713 
-11.0666 23.7344 -27.7142 -11.0058 23.1133 -27.2203 -11.1521 22.6581 -26.5763 
-11.4068 22.3236 -25.8913 -11.7276 22.0757 -25.1968 -12.0974 21.9011 -24.5042 
-12.5089 21.7991 -23.8208 -12.9586 21.7784 -23.1544 -13.4416 21.8532 -22.5161 
-13.9487 22.0423 -21.922 -14.4621 22.3582 -21.3908 -14.9575 22.7964 -20.9342 
-15.4139 23.3337 -20.5478 -15.8216 23.94 -20.2115 -16.1802 24.5888 -19.8993 
-16.4922 25.2622 -19.5886 -16.7591 25.9471 -19.2618 -16.9801 26.6331 -18.9044 
-17.1507 27.3086 -18.5025 -17.2622 27.9576 -18.041 -17.3001 28.5538 -17.5034 
-17.2448 29.0521 -16.8765 -17.0798 29.388 -16.1674 -16.8137 29.5133 -15.4214 
-16.4806 29.4428 -14.6943 -16.1121 29.2291 -14.0126 -15.724 28.9214 -13.379 
-15.3211 28.5534 -12.788 -14.9019 28.1443 -12.2365 -14.4615 27.7045 -11.7268 
-13.9916 27.2356 -11.2727 -13.4826 26.7295 -10.9114 -12.9388 26.1673 -10.7414 
-12.4633 25.5622 -10.9365 -12.2066 24.9949 -11.439 -12.1224 24.4601 -12.0331 
-12.1367 23.9218 -12.6306 -12.2094 23.3617 -13.2034 -12.3173 22.7713 -13.7391 
-12.4457 22.1469 -14.2298 -12.5846 21.4865 -14.6676 -12.7272 20.7883 -15.0403 
-12.8687 20.0493 -15.3236 -13.0038 19.2715 -15.4713 -13.1222 18.4805 -15.4165 
-13.2078 17.7384 -15.1255 -13.2502 17.0891 -14.6548 -13.2487 16.5185 -14.0882 
-13.204 15.9938 -13.4801 -13.1146 15.4894 -12.8597 -12.9767 14.9893 -12.2448 
-12.784 14.4856 -11.6479 -12.5305 13.9762 -11.0793 -12.2097 13.4655 -10.5472 
-11.8186 12.9639 -10.0549 -11.3575 12.4869 -9.60022 -10.8315 12.0505 -9.17622 
-10.2483 11.6702 -8.77362 -9.61888 11.3573 -8.38278 -8.955 11.1194 -7.99602 
-8.26871 10.9586 -7.60865 -7.57012 10.8724 -7.21935 -6.86674 10.854 -6.82943 
-6.16302 10.8952 -6.44176 -5.46075 10.9855 -6.05974 -4.75979 11.1151 -5.68663 
-4.05883 11.2744 -5.32515 -3.35615 11.4545 -4.97698 -2.65027 11.6478 -4.64266 
-1.9405 11.8489 -4.32135 -1.2271 12.0543 -4.01101 -0.510894 12.2628 -3.7093 
0.20718 12.4742 -3.41413 0.926569 12.6886 -3.12435 1.64724 12.9051 -2.83942 
2.36971 13.1219 -2.55923 3.09504 13.335 -2.28369 3.82484 13.538 -2.01235 
4.56098 13.7211 -1.7441 5.30501 13.8709 -1.47708 6.05694 13.9692 -1.2087 
6.81307 13.9921 -0.935716 7.5618 13.9101 -0.654945 8.2783 13.6919 -0.364524 
8.92306 13.3184 -0.065494 9.45642 12.8009 0.23861 9.85874 12.177 0.545651 

LINES 2 120
OFFSETS vtktypeint64
0 120 
CONNECTIVITY vtktypeint64
0 1 2 3 4 5 6 7 8 
9 10 11 12 13 14 15 16 17 
18 19 20 21 22 23 24 25 26 
27 28 29 30 31 32 33 34 35 
36 37 38 39 40 41 42 43 44 
45 46 47 48 49 50 51 52 53 
54 55 56 57 58 59 60 61 62 
63 64 65 66 67 68 69 70 71 
72 73 74 75 76 77 78 79 80 
81 82 83 84 85 86 87 88 89 
90 91 92 93 94 95 96 97 98 
99 100 101 102 103 104 105 106 107 
108 109 110 111 112 113 114 115 116 
117 118 119 
CELL_DATA 1
FIELD FieldData 2
Length 1 1 double
95.638980929 
Tortuosity 1 1 double
1.4717333247 
POINT_DATA 120
FIELD FieldData 19
Curvature 1 120 double
0 0.2600836613 0.19500111705 0.14114186174 0.10250195499 0.075859910488 0.058798635709 0.052051060326 0.062339624276 
0.10429330797 0.21109144868 0.44314273662 0.57485269102 0.32936398715 0.1264020493 0.050236215806 0.038767646755 0.048697447844 
0.060764559362 0.075438631899 0.094343385797 0.118668256 0.1389697903 0.1519449856 0.15088944976 0.1327881855 0.10845931187 
0.084533909718 0.068167655947 0.072526693375 0.11614174317 0.23687904074 0.51955276173 0.75477628639 0.49539117749 0.26250733778 
0.1700424479 0.13662872167 0.13067062831 0.14164448552 0.16323165937 0.19447974513 0.22098838182 0.22558196935 0.19864955833 
0.15225049911 0.10740368087 0.081567698857 0.076142142954 0.085415552912 0.10522189041 0.13649784888 0.18408483758 0.25384080879 
0.33596460381 0.37600727709 0.32832236262 0.24133365202 0.16682182249 0.11677605754 0.091628933404 0.086755823943 0.10732464729 
0.16695991242 0.31956585663 0.62241248705 0.63279776791 0.3125174276 0.15318049231 0.10375345063 0.091929683234 0.092859181526 
0.1003727231 0.11670067648 0.15260677492 0.22039050631 0.32140853713 0.38766749658 0.32668252049 0.2050294848 0.11692026384 
0.078297712916 0.075911512009 0.08933719218 0.10420486457 0.11855085968 0.12608272828 0.12881848949 0.1280073785 0.12844648069 
0.1279510031 0.12823723579 0.12422938811 0.11728425801 0.10528417875 0.092082188239 0.076636661875 0.062233807314 0.04938709557 
0.038166859149 0.030041149596 0.02412655703 0.019082525234 0.014791942217 0.01143707964 0.0097083003457 0.0084613249105 0.0078319841096 
0.010126612349 0.018324931669 0.032559440989 0.052973209679 0.080445458032 0.11734488224 0.16390706717 0.21883629135 0.26864056515 
0.28611588061 0.26469296667 0 
Torsion 1 120 double
0 0 -0.043512849861 -0.067531998772 -0.11012099898 -0.19073565781 -0.33949340928 -0.51748692755 -0.46706031737 
-0.21382712435 -0.038916384606 0.017855642534 0.034783934388 0.099742127356 0.36799506247 1.0670535547 0.83053502184 0.17461575172 
-0.10656979673 -0.22079379688 -0.21983935104 -0.16466184358 -0.12030703709 -0.083736474704 -0.049923659179 -0.009796334267 0.061075216954 
0.2127884224 0.50517511399 0.64460037846 0.37651308542 0.14536533168 0.042292324999 0.018771367148 0.020329465259 0.024607026146 
0.013692252876 -0.0070343413464 -0.029831858891 -0.04726073836 -0.059161957156 -0.067495395497 -0.079762699354 -0.10131676125 -0.14595773605 
-0.23912156586 -0.40694353878 -0.54947644714 -0.49123308373 -0.33076426944 -0.20921073413 -0.13769421615 -0.097483092899 -0.070798466005 
-0.048317965726 -0.030461835923 -0.013819984832 0.013369187746 0.062944530633 0.14252335555 0.22155137749 0.2117571973 0.070891214159 
-0.09838191465 -0.19996428426 -0.17262187179 -0.21398326185 -0.47955428929 -0.75194264424 -0.66826150961 -0.4541466491 -0.28610745895 
-0.1720624687 -0.087601941159 -0.026925820624 -0.0035397884428 -0.010421942977 -0.031334388372 -0.079896412741 -0.2087723395 -0.47948797973 
-0.71146112603 -0.47881887259 -0.19312544803 -0.038633707928 0.065316017947 0.15168975267 0.21552271984 0.25411854341 0.25343818436 
0.22591329692 0.17430425699 0.12044081946 0.065494662658 0.015685926505 -0.032637746449 -0.084263994924 -0.14344084475 -0.21243233949 
-0.28672498852 -0.31476036948 -0.2595842896 -0.13941449736 0.015489700587 0.11867341157 0.02179608264 -0.27488619996 -0.73790988688 
-0.8056154842 -0.41621980151 -0.21284046488 -0.12979659288 -0.093716068923 -0.075600883107 -0.067714624045 -0.066480890845 -0.070304323155 
-0.082025899785 0 0 
FrenetTangent 3 120 double
-0.90251555138 -0.059946338732 0.42646467145 -0.90251555138 -0.059946338732 0.42646467145 -0.84608144592 -0.2220190301 0.48461710364 
-0.78790198086 -0.33967405333 0.51364579824 -0.73868999289 -0.42333379603 0.52452415726 -0.70082688378 -0.48401707033 0.52399346809 
-0.67395687004 -0.52979783541 0.51487512168 -0.65757008676 -0.56636659406 0.49682035197 -0.65194689079 -0.59845594383 0.46563476555 
-0.65843045019 -0.63200636824 0.40870196079 -0.67766568158 -0.67494497463 0.2919220876 -0.69022347724 -0.72245574599 0.040610916599 
-0.61872467293 -0.7062708005 -0.34403682285 -0.46645403909 -0.60839901477 -0.64208353681 -0.35449559469 -0.53858849745 -0.76436594885 
-0.29818207854 -0.52036113332 -0.80019481313 -0.26682861682 -0.52984495596 -0.8050259697 -0.24329831759 -0.55377869764 -0.79632599022 
-0.2181374464 -0.58613630438 -0.78029500009 -0.18317398178 -0.62306715173 -0.76041739646 -0.13098775012 -0.66085809217 -0.73899173969 
-0.056462491485 -0.69546662258 -0.71633662753 0.040010076017 -0.72174435932 -0.69100236874 0.15192501963 -0.73450694073 -0.66137609756 
0.26814436199 -0.73152303572 -0.62687530605 0.37434590948 -0.71581551153 -0.58946865354 0.46107404479 -0.69473661175 -0.55204326416 
0.52665596017 -0.67597379581 -0.51545409785 0.57312443771 -0.66595782183 -0.47752335906 0.60311725303 -0.6707445791 -0.43168424653 
0.61640945027 -0.69829915738 -0.36389239677 0.60224407031 -0.76155016468 -0.2394648752 0.51063478758 -0.85954294372 0.020929443486 
0.25743172256 -0.86733745359 0.42597494037 -0.054482527231 -0.68616309484 0.72540461917 -0.25110934219 -0.49451344545 0.83210609332 
-0.3587858425 -0.36302450505 0.85993367649 -0.42998988113 -0.26304286672 0.86366495378 -0.48640389568 -0.17219609714 0.85659777866 
-0.53629327353 -0.076437958556 0.84056336065 -0.58119036927 0.033712953181 0.81306899551 -0.61776094226 0.16470721455 0.76892324174 
-0.63749228736 0.31543909782 0.70292372213 -0.63023634723 0.47111246448 0.61713466314 -0.59390380069 0.60876102181 0.52601168604 
-0.53831304305 0.71239392019 0.45023768185 -0.47682740362 0.78090881522 0.40350594726 -0.41702026925 0.82222598226 0.38734807233 
-0.35993320076 0.84457297209 0.39641466395 -0.30339613572 0.85257184647 0.42552559434 -0.24362488996 0.8470475674 0.47239531279 
-0.17567997326 0.82471941263 0.53756342643 -0.093210473177 0.7765889885 0.62307411327 0.010911458014 0.68480587373 0.72864384674 
0.13852324503 0.52448943486 0.8400727012 0.27176890659 0.29076644279 0.91738570796 0.37655326293 0.034426624132 0.92575506897 
0.43871641113 -0.1776962889 0.88088134247 0.47161622708 -0.32492413473 0.81975755015 0.49224858757 -0.4205365586 0.76212881517 
0.51127130555 -0.48335837151 0.71060983445 0.53459050286 -0.52789152239 0.65995722198 0.56638427043 -0.56535836138 0.59964888178 
0.61018359175 -0.60776420033 0.50823091323 0.66165403577 -0.67137845142 0.33386361276 0.65766145837 -0.75314054262 -0.016147112106 
0.47290994764 -0.75720828311 -0.4505461102 0.21418342702 -0.69243442432 -0.68895575157 0.043510392691 -0.66856319677 -0.74238136941 
-0.054125825792 -0.68335820399 -0.72807414459 -0.11228751374 -0.71559675209 -0.68942933115 -0.14695416938 -0.75555398213 -0.63839067364 
-0.16627274719 -0.79921406448 -0.57759003859 -0.17521114956 -0.84548887299 -0.50442999387 -0.17701956959 -0.89532952677 -0.40871641816 
-0.17278133184 -0.94745095705 -0.26922721883 -0.15926415344 -0.98551090022 -0.05833690925 -0.12874428553 -0.96737507898 0.21819799613 
-0.080412647923 -0.87431008557 0.47866029742 -0.025481514243 -0.76158775414 0.64756064209 0.028756992392 -0.68169182864 0.73107406339 
0.083338796816 -0.63991932488 0.76390961677 0.14136100608 -0.62453266514 0.76809896246 0.20563362615 -0.62428518376 0.75364635018 
0.27758369511 -0.63027474054 0.725052442 0.35739765328 -0.63483378152 0.68502042837 0.44311623451 -0.6301050275 0.63766421965 
0.53047093172 -0.60918173327 0.58948978486 0.61444284491 -0.56859059362 0.54695952975 0.69049810519 -0.5083727969 0.51455754402 
0.75486096274 -0.43155104911 0.49391154972 0.80507523668 -0.3428506467 0.48405299023 0.84038609733 -0.24815935247 0.4818382957 
0.86183114354 -0.15374171723 0.48333276777 0.87221235702 -0.065035180866 0.48478451864 0.87515998761 0.014157831514 0.48362645905 
0.87423122613 0.081728525451 0.47858145742 0.87232293128 0.13669707838 0.46943222336 0.87136918545 0.17956548548 0.45658731813 
0.87234725403 0.21093770571 0.44103917366 0.87535867491 0.23206292893 0.42413911312 0.87973109822 0.24509760158 0.40743141819 
0.88437726135 0.25260037672 0.39251739997 0.88836621522 0.2572057389 0.3803296932 0.89126433124 0.26092313723 0.37090026735 
0.89323655011 0.26458383127 0.36348846169 0.8948493029 0.26778271641 0.3571234267 0.89676349008 0.269259198 0.35116196711 
0.89966270413 0.26712650432 0.34532658383 0.90424154615 0.25856997831 0.33983642027 0.91103120736 0.23993446107 0.33534101092 
0.92004627872 0.20691434377 0.33271804782 0.93023894041 0.15431460042 0.33293019967 0.93850867488 0.075476746158 0.33690462739 
0.93783990721 -0.036872838595 0.34510390061 0.91517572602 -0.18754524215 0.35676346878 0.85235124563 -0.37050693611 0.3690825983 
0.73840699181 -0.5584359034 0.37802705755 0.58574732891 -0.71451254139 0.38258580066 0.58574732891 -0.71451254139 0.38258580066 

FrenetNormal 3 120 double
0.23518584895 -0.89816509485 0.37146612073 0.23518584895 -0.89816509485 0.37146612073 0.38357536047 -0.88488793014 0.26427881856 
0.47727613788 -0.8639148712 0.1608060432 0.52433930335 -0.8498894609 0.052499516354 0.52430994354 -0.84760048579 -0.08168536954 
0.45467391391 -0.84676539267 -0.27615213523 0.26726644351 -0.79191804843 -0.54903046613 0.0035862005567 -0.61650616545 -0.78734191247 
-0.14812500133 -0.42358943256 -0.89366155596 -0.13323380178 -0.27771289333 -0.95138020945 0.037842730636 -0.092087419604 -0.99503157482 
0.31802157733 0.17526687996 -0.93174234483 0.5522095581 0.36677208051 -0.748694093 0.72907921867 0.35262663041 -0.58659862976 
0.93935227091 -0.011172672644 -0.34277176448 0.79206106635 -0.59643357202 0.1300240798 0.57162767517 -0.74513554443 0.34353285346 
0.57246027568 -0.72439527285 0.38411029854 0.69258858796 -0.63074200437 0.34997938761 0.82336316615 -0.48770669664 0.29019868138 
0.90929387578 -0.33211497144 0.25076740861 0.95228658369 -0.18186947261 0.24509948483 0.96347117788 -0.039258565869 0.26491895818 
0.94898166867 0.088492344361 0.3026597058 0.91640672847 0.18847876802 0.35309271024 0.87341606498 0.24545190701 0.42059212876 
0.81526552241 0.22989165924 0.53149972058 0.68860841373 0.075487610032 0.72119350612 0.38024083627 -0.23398155265 0.89480139665 
0.038518019313 -0.43483626624 0.89968538043 -0.19080614267 -0.42858506551 0.8831239197 -0.4087701572 -0.22128183146 0.88540460223 
-0.61730039542 0.19153970152 0.76305488961 -0.67851877211 0.55842557495 0.4772558571 -0.64546815613 0.72616305911 0.23676585691 
-0.60236480595 0.79381109658 0.083788922351 -0.55525781413 0.83135344505 -0.023242402008 -0.49575928705 0.86168208135 -0.10828998098 
-0.41772590972 0.88940664861 -0.18563641281 -0.31841442418 0.91005860063 -0.26534053193 -0.19487550509 0.91525142574 -0.35261645621 
-0.045159170115 0.89548004252 -0.4428048586 0.12577343758 0.84631471914 -0.51762190696 0.30683565536 0.77577800149 -0.55138042494 
0.49813331196 0.69990521711 -0.51185534146 0.70858832222 0.6131295762 -0.34924878298 0.88600573551 0.46279722628 -0.02850550803 
0.91484624747 0.23613513531 0.32756150775 0.83206355485 0.019422340877 0.55434016033 0.73992180759 -0.15256828052 0.65516306247 
0.67131655694 -0.29903650079 0.67816756895 0.62142711491 -0.44356506816 0.64581605056 0.57579389847 -0.60005632956 0.55533214191 
0.51627865201 -0.76211574725 0.39068649998 0.42783899635 -0.89038456951 0.15546418101 0.32014910649 -0.94257484682 -0.095169363535 
0.22752878437 -0.92634685582 -0.3001868668 0.18017042549 -0.87451878489 -0.45028381345 0.19454647357 -0.80025259737 -0.56722786428 
0.27444389662 -0.691730485 -0.66797416397 0.37987890594 -0.54747145803 -0.74563195979 0.42600247975 -0.42202365851 -0.80026115669 
0.36844639447 -0.35021511965 -0.86116004574 0.18232431135 -0.28784121443 -0.94016236936 -0.17091113938 -0.12829955532 -0.97689743911 
-0.58497551823 0.11256920733 -0.80320098147 -0.8755208654 0.17665433364 -0.44972931932 -0.99905034926 -0.030820430725 -0.030797738554 
-0.86988588816 -0.32573559949 0.37039824623 -0.59302018719 -0.50845568448 0.62433955065 -0.34165834601 -0.56690269705 0.7495938278 
-0.16232316598 -0.55556893123 0.81547185876 -0.049942095234 -0.50406337072 0.86222149441 0.010949640758 -0.41704057117 0.9088219118 
0.044468922345 -0.28056310219 0.95880491271 0.08064822491 -0.07188135053 0.99414734082 0.13492091872 0.20089637593 0.97027676043 
0.20949662291 0.4546643276 0.86567402306 0.33427551832 0.60399195813 0.72350092769 0.57077552527 0.61161607677 0.54785132508 
0.88349591307 0.40204561079 0.2404044476 0.98995803406 0.088869788531 -0.10993294083 0.94754274452 -0.06554828906 -0.31283569026 
0.90430363246 -0.08335915163 -0.41867193859 0.87909109892 -0.019016825109 -0.47627429089 0.86481431904 0.11312259867 -0.4891824519 
0.84149121349 0.29438553746 -0.45302283933 0.78677830261 0.49312956624 -0.37121844437 0.69016033255 0.67599965504 -0.25826959124 
0.55983955933 0.81627131677 -0.14241069209 0.41632208123 0.90787500477 -0.049385224458 0.27930620743 0.96017380116 0.0073698067605 
0.16179841597 0.98649972799 0.025289508988 0.069596326988 0.99753810931 0.0086064938096 0.005042759142 0.99925058283 -0.03837764058 
-0.0302348932 0.99298109563 -0.11434332055 -0.03339392979 0.9745366931 -0.22172748871 -0.00085968417204 0.93117569542 -0.36456972611 
0.069323620102 0.83964255555 -0.53869714553 0.16435554501 0.68219395159 -0.7124595899 0.24818768637 0.49418610524 -0.83317643133 
0.29344689336 0.35307921956 -0.88838279221 0.29349467502 0.3188998096 -0.90120130225 0.25163838522 0.39585818207 -0.88316160626 
0.20917153317 0.47109024094 -0.85692546619 0.23424420719 0.39932827068 -0.88637835242 0.35466196072 0.037236115796 -0.93425283799 
0.43658419429 -0.55249380142 -0.71003157725 0.3775158804 -0.85599721517 -0.35320040723 0.30183696158 -0.94212549363 -0.14592464794 
0.23151682836 -0.97217889899 -0.035611045319 0.15418410595 -0.98767354318 0.026985803105 0.058002996318 -0.99641113753 0.061648174569 
-0.066755848196 -0.99493840582 0.075108091162 -0.22641503955 -0.97150528589 0.070097855559 -0.41669354825 -0.90760423252 0.051196132231 
-0.61197508788 -0.79038865174 0.02778976455 -0.77753335221 -0.62862772458 0.01640335608 -0.77753335221 -0.62862772458 0.01640335608 

FrenetBinormal 3 120 double
0.36076764818 0.43555240657 0.82470649637 0.36076764818 0.43555240657 0.82470649637 0.37015689878 0.40948858515 0.83384828891 
0.38912460314 0.3718502828 0.84279855862 0.42356273369 0.31380949857 0.84977538752 0.48367423136 0.21748768268 0.84779616996 
0.58228323807 0.047985658036 0.8115686091 0.70439351869 -0.22824260271 0.67211240513 0.75825615115 -0.51163525216 0.40407546075 
0.73792162608 -0.6489529591 0.18528823664 0.72319981891 -0.68361160764 0.098271012177 0.72260603319 -0.68525732556 0.090900597161 
0.71836067227 -0.68590311062 0.11616741102 0.6910030632 -0.70379604985 0.16488143272 0.58547106355 -0.76522995886 0.26766909386 
0.16942478914 -0.85387321209 0.49213390303 -0.54903711752 -0.60293558264 0.57881510586 -0.78361197645 -0.37162100919 0.49784545383 
-0.79038300035 -0.36289905121 0.4935574854 -0.697687853 -0.4625492929 0.54706472323 -0.55219136713 -0.57044610619 0.60800981406 
-0.41230648131 -0.63720155573 0.65113557947 -0.30257140702 -0.66783873407 0.68003085881 -0.2205494906 -0.67746462566 0.70171190896 
-0.16592888132 -0.6760496677 0.71793067433 -0.1416469134 -0.67237185207 0.72653440694 -0.15670067853 -0.6760875695 0.7199656212 
-0.24078128578 -0.70014945004 0.67217194231 -0.44423735934 -0.74216022548 0.50184795336 -0.70118933643 -0.70381413927 0.11392616838 
-0.78648315418 -0.56859098513 -0.2411400834 -0.7751742357 -0.48616477484 -0.4034212637 -0.7564119726 -0.46067372289 -0.46434970523 
-0.74341719784 -0.45938903377 -0.48609935776 -0.73255984746 -0.46619854625 -0.49599897717 -0.7213286059 -0.47764386717 -0.50153900992 
-0.71304232678 -0.48793150307 -0.50348136861 -0.71189708664 -0.48955071206 -0.50353017621 -0.71946784471 -0.47733897265 -0.50449333556 
-0.73341297311 -0.45068065401 -0.50891291885 -0.7488858452 -0.41310625776 -0.51818260359 -0.7618365676 -0.36767697935 -0.53330918155 
-0.76913212969 -0.3140281341 -0.55661665271 -0.76614828136 -0.24860499185 -0.59263173134 -0.74372720545 -0.16606778958 -0.64752709066 
-0.67976633574 -0.051260018832 -0.73163525015 -0.52013288376 0.11938821176 -0.84569985108 -0.20270158282 0.33130523909 -0.92149276008 
0.18304216583 0.48055872969 -0.8576472893 0.46435011092 0.52224900123 -0.71528662451 0.62702681892 0.50914962274 -0.58957953664 
0.72004904512 0.48001568894 -0.50111307206 0.77790754499 0.44739196824 -0.4412485447 0.81752206488 0.41348919776 -0.40085453318 
0.845143576 0.37959244001 -0.37635344482 0.86202984555 0.35024305007 -0.36638006395 0.86931708242 0.33221599253 -0.36595128708 
0.86934375415 0.3321227659 -0.36597254745 0.86320145513 0.36005721982 -0.35389553024 0.84843561786 0.42748658842 -0.31210930627 
0.81442138953 0.53653855483 -0.22100719321 0.75492053295 0.64931159178 -0.092138188068 0.70550035114 0.708707242 0.0018165019665 
0.70137239664 0.71272157731 0.010233008711 0.72730446338 0.68293367924 -0.06804268738 0.73366940008 0.64522751581 -0.21309778092 
0.65890805466 0.64340017839 -0.38971320988 0.43311508152 0.69951970267 -0.56840435583 -0.0022902790265 0.74301638809 -0.66926930428 
-0.49027434827 0.65338953486 -0.5768129499 -0.79731961712 0.47895104689 -0.36727009523 -0.92826399623 0.32826744 -0.17483260889 
-0.97262765914 0.22934698991 -0.037354984798 -0.98326336258 0.17626311 0.04609203682 -0.98414642069 0.15640396571 0.083627879087 
-0.98395585588 0.1536913455 0.090608189494 -0.98393637663 0.15362726645 0.090927827172 -0.98245674441 0.15435706239 0.10465487402 
-0.97449729145 0.16988885626 0.14660424781 -0.94213086686 0.23489956847 0.23918951158 -0.82060242209 0.40152462616 0.40668125043 
-0.46096596027 0.65487600696 0.59887210569 0.00039592015998 0.77592596996 0.63082385211 0.24469891519 0.77844166843 0.57805796401 
0.32431810392 0.77188406077 0.54682059599 0.31538192281 0.77241467504 0.55128015796 0.2361020887 0.76822583397 0.59505031025 
0.10243597133 0.73636592207 0.6687840463 -0.058650600006 0.65842840746 0.75035467572 -0.21654348781 0.53346186907 0.81763521948 
-0.34170834748 0.38401149648 0.8577707012 -0.42252785467 0.24128076959 0.87364397912 -0.4644773944 0.12838694383 0.87622916109 
-0.48069569648 0.05640718976 0.87507135499 -0.48415075703 0.026232531626 0.87459127526 -0.48380736524 0.036025387202 0.87443273316 
-0.48456745092 0.085492642068 0.870566134 -0.48778842649 0.17774178618 0.8546755574 -0.49062715334 0.31728230439 0.81155217684 
-0.48394679882 0.50050540778 0.71783691233 -0.45468059678 0.69336729763 0.55902356433 -0.40555649072 0.83409067798 0.37392067841 
-0.36299556523 0.90084855242 0.23813043743 -0.35308121359 0.91222152973 0.20781130214 -0.37726120255 0.88046318273 0.28715600099 
-0.39796448995 0.84146858594 0.36545161597 -0.37996628338 0.87682914472 0.29461207454 -0.26463207756 0.9623476274 -0.062104005946 
0.00112254384 0.78955305717 -0.61368127705 0.19957200772 0.44767212772 -0.87164251835 0.28092096369 0.23416022002 -0.93072681465 
0.31609302933 0.1097936369 -0.94235373088 0.33299065336 0.026229300294 -0.94256524898 0.34034852664 -0.038315868762 -0.93951837375 
0.34058767619 -0.093477068847 -0.93555441981 0.33345107644 -0.14492847075 -0.93156111876 0.31601240627 -0.19743142456 -0.92798544799 
0.28326949407 -0.25186329821 -0.92537736775 0.22878363768 -0.30708144211 -0.92377434206 0.22878363768 -0.30708144211 -0.92377434206 

plain_curvature_peaks 1 120 unsigned_char
0 0 0 0 1 0 0 0 0 
0 0 0 0 0 0 0 0 0 
0 0 0 0 0 0 0 0 0 
0 0 0 0 0 0 1 0 0 
0 0 0 0 0 0 0 0 0 
0 0 0 0 0 0 0 0 0 
0 0 0 0 0 0 0 0 0 
0 0 0 1 0 0 0 0 0 
0 0 0 0 0 0 0 0 0 
0 0 0 0 0 0 0 0 0 
0 0 0 0 0 0 0 0 0 
0 1 0 0 0 0 0 0 0 
0 0 0 0 0 0 0 0 0 
0 0 0 
weighted_curvature_peaks 1 120 unsigned_char
0 0 0 0 0 0 0 0 0 
0 0 0 0 0 1 0 0 0 
0 0 0 0 0 0 0 0 0 
0 0 0 0 0 0 0 0 0 
0 1 0 0 0 0 0 0 0 
0 0 0 0 0 0 0 0 0 
0 0 0 0 0 0 0 0 0 
0 0 0 0 0 0 0 0 1 
0 0 0 0 0 0 0 0 0 
0 0 0 0 0 0 0 0 0 
0 0 0 0 0 0 0 0 0 
0 0 0 0 0 1 0 0 0 
0 0 0 0 0 0 0 0 0 
0 0 0 
plain_torsion_tp 1 120 unsigned_char
0 0 0 0 1 0 0 0 0 
0 0 0 0 0 0 0 0 0 
0 0 0 0 0 0 0 0 0 
0 0 0 0 0 0 1 0 0 
0 0 0 0 0 0 0 0 0 
0 0 0 0 0 0 0 0 0 
0 0 0 0 0 0 0 0 0 
0 0 0 1 0 0 0 0 0 
0 0 0 0 0 0 0 0 0 
0 0 0 0 0 0 0 0 0 
0 0 0 0 0 0 0 0 0 
0 1 0 0 0 0 0 0 0 
0 0 0 0 0 0 0 0 0 
0 0 0 
plain_torsion_tn 1 120 unsigned_char
0 2 0 0 0 0 0 0 0 
0 0 0 0 0 0 2 0 0 
0 0 0 0 0 0 0 0 0 
0 0 0 0 0 0 0 0 0 
0 0 0 0 0 0 0 0 0 
0 0 0 0 0 0 2 0 0 
0 0 0 0 0 0 0 0 0 
0 0 0 0 0 0 0 0 0 
0 0 0 0 0 0 2 0 0 
0 0 0 0 0 0 0 0 0 
0 0 0 0 0 0 0 0 0 
0 0 0 0 0 0 0 0 0 
0 0 0 0 0 0 0 0 0 
0 0 0 
plain_torsion_tz 1 120 unsigned_char
0 3 0 0 0 0 0 3 0 
0 0 0 0 0 0 0 0 0 
0 0 0 3 0 0 0 0 0 
0 0 0 0 0 0 0 0 0 
0 0 0 0 0 0 0 0 0 
0 0 0 0 0 0 0 0 0 
0 0 0 3 0 0 0 0 0 
0 0 0 0 0 0 0 0 0 
3 0 0 0 0 0 0 0 0 
0 0 0 3 0 0 0 0 0 
0 0 0 0 0 0 0 0 0 
0 0 0 0 0 0 0 0 0 
0 0 0 0 0 0 0 0 0 
0 0 0 
weighted_torsion_tp 1 120 unsigned_char
0 0 0 0 0 0 0 0 0 
0 0 0 0 0 1 0 0 0 
0 0 0 0 0 0 0 0 0 
0 0 0 0 0 0 0 0 0 
0 1 0 0 0 0 0 0 0 
0 0 0 0 0 0 0 0 0 
0 0 0 0 0 0 0 0 0 
0 0 0 0 0 0 0 0 1 
0 0 0 0 0 0 0 0 0 
0 0 0 0 0 0 0 0 0 
0 0 0 0 0 0 0 0 0 
0 0 0 0 0 1 0 0 0 
0 0 0 0 0 0 0 0 0 
0 0 0 
weighted_torsion_tn 1 120 unsigned_char
0 0 0 0 2 0 0 0 0 
0 0 0 0 0 0 0 0 0 
2 0 0 0 0 0 0 0 0 
0 0 0 0 0 0 0 0 0 
0 0 0 0 0 0 0 0 0 
0 0 0 0 0 0 0 0 0 
0 0 2 0 0 0 0 0 0 
0 0 0 0 0 0 0 0 0 
0 0 0 0 0 0 0 0 0 
0 0 2 0 0 0 0 0 0 
0 0 0 0 0 0 0 0 0 
0 0 0 0 0 0 0 0 0 
0 0 0 0 0 0 0 0 0 
0 0 0 
weighted_torsion_tz 1 120 unsigned_char
0 0 0 0 0 3 0 0 0 
0 0 0 0 0 0 3 0 0 
0 0 0 0 0 0 3 0 0 
0 0 0 0 0 0 0 0 0 
0 0 0 0 0 0 0 0 0 
0 0 0 0 0 0 0 0 0 
0 0 0 0 0 0 0 0 3 
0 0 0 0 0 0 0 0 0 
0 0 0 0 0 3 0 0 0 
0 0 0 0 0 0 0 0 0 
3 0 0 0 0 0 0 0 0 
0 0 0 0 0 0 0 0 0 
0 0 0 0 0 0 0 0 0 
0 0 0 
plain_torsion_tp_raw 1 120 unsigned_char
0 0 0 0 0 1 0 0 0 
0 0 0 0 0 0 0 0 0 
1 0 0 0 0 0 0 0 0 
0 0 0 0 0 0 0 0 0 
0 0 0 0 0 0 0 0 0 
0 0 0 0 0 0 0 0 0 
1 0 0 0 0 0 0 0 0 
0 0 0 0 0 1 0 0 0 
0 0 0 0 0 0 0 0 0 
0 0 0 0 0 0 0 0 0 
1 0 0 0 0 0 0 0 0 
0 0 0 1 0 0 0 0 0 
0 0 0 0 0 0 0 0 0 
0 0 0 
plain_torsion_tn_raw 1 120 unsigned_char
0 0 0 2 0 0 0 0 0 
2 0 0 0 0 0 0 0 0 
0 0 0 0 0 0 0 0 0 
0 0 0 0 0 0 0 0 0 
0 0 0 0 0 0 0 0 0 
2 0 0 0 0 0 0 0 0 
0 0 0 0 0 0 2 0 0 
0 0 0 0 0 0 0 0 0 
0 0 0 0 0 0 0 2 0 
0 0 0 0 0 0 0 0 0 
0 0 0 0 0 2 0 0 0 
0 0 0 0 0 0 0 0 0 
0 0 0 0 0 0 0 0 0 
0 0 0 
plain_torsion_tz_raw 1 120 unsigned_char
0 3 0 0 3 3 0 0 0 
0 0 0 0 3 0 0 0 0 
0 0 0 0 0 0 0 0 0 
0 0 0 0 0 0 0 0 0 
0 0 0 0 0 0 0 0 0 
0 0 0 0 0 0 0 0 0 
0 0 0 0 0 0 0 0 0 
0 0 0 0 0 0 0 0 0 
0 0 0 0 0 0 0 0 0 
0 0 0 0 0 0 0 0 0 
0 0 0 0 0 0 0 0 0 
0 0 0 0 0 0 0 0 0 
0 0 0 0 0 0 0 0 0 
0 0 0 
weighted_torsion_tp_raw 1 120 unsigned_char
0 0 0 0 0 0 0 0 0 
0 0 0 0 0 0 1 0 0 
0 0 1 0 0 0 0 0 0 
0 0 0 0 0 0 0 0 0 
0 0 0 0 0 0 0 0 0 
0 0 0 0 0 0 0 0 0 
0 0 0 0 0 1 0 0 0 
0 0 0 0 0 0 0 0 0 
0 1 0 0 0 0 0 0 0 
0 0 0 0 0 0 0 0 0 
0 0 0 0 0 1 0 0 0 
0 0 0 0 0 0 0 0 1 
0 0 0 0 0 0 0 0 0 
0 0 0 
weighted_torsion_tn_raw 1 120 unsigned_char
0 0 0 0 0 0 0 0 0 
0 0 2 0 0 0 0 2 0 
0 0 0 0 0 0 0 0 0 
0 0 0 0 0 0 0 0 0 
0 0 0 0 0 0 0 0 0 
0 0 0 0 2 0 0 0 0 
0 0 0 0 0 0 0 0 0 
0 0 0 2 0 0 0 0 0 
0 0 0 0 0 0 0 0 0 
0 0 0 2 0 0 0 0 0 
0 0 0 0 0 0 0 0 0 
0 2 0 0 0 0 0 0 0 
0 0 0 0 0 0 0 0 0 
0 0 0 
weighted_torsion_tz_raw 1 120 unsigned_char
0 0 0 0 3 0 0 0 0 
0 0 0 0 0 3 3 0 3 
0 0 0 0 0 0 0 0 0 
0 0 0 0 0 0 0 0 0 
0 0 0 0 0 0 0 0 0 
0 0 0 0 0 0 0 0 0 
0 0 0 0 0 0 0 0 0 
0 0 0 0 0 0 0 0 0 
0 0 0 0 0 0 0 0 0 
0 0 0 0 0 0 0 0 0 
0 0 0 0 0 0 0 0 0 
0 0 0 0 0 0 0 0 0 
0 0 0 0 0 0 0 0 0 
0 0 0 
