# vtk DataFile Version 5.1
vtk output
ASCII
DATASET POLYDATA
POINTS 120 float
-7.92292 25.1366 -23.3916 -8.42258 25.1685 -23.1387 -8.91296 25.1483 -22.8668 
-9.39579 25.0867 -22.5875 -9.87333 24.9935 -22.3079 -10.347 24.8765 -22.0305 
-10.817 24.7417 -21.755 -11.2832 24.5938 -21.4796 -11.7449 24.4361 -21.2023 
-12.2018 24.2712 -20.9211 -12.6534 24.1007 -20.6347 -13.0994 23.9256 -20.3425 
-13.5401 23.7461 -20.0449 -13.9757 23.5614 -19.7429 -14.407 23.3699 -19.4391 
-14.8353 23.1681 -19.1378 -15.2629 22.9504 -18.8466 -15.6925 22.7072 -18.58 
-16.1257 22.4237 -18.3649 -16.5547 22.0833 -18.2495 -16.9462 21.6873 -18.2929 
-17.2571 21.2719 -18.5012 -17.4821 20.868 -18.8177 -17.6392 20.4806 -19.1916 
-17.7443 20.1048 -19.5947 -17.8066 19.7352 -20.0124 -17.8313 19.3673 -20.4354 
-17.8203 18.9975 -20.8573 -17.7737 18.6227 -21.2723 -17.6903 18.2402 -21.6743 
-17.5679 17.8471 -22.0555 -17.403 17.4399 -22.4043 -17.1898 17.0141 -22.7004 
-16.9199 16.566 -22.8989 -16.5947 16.1179 -22.8844 -16.3097 15.8115 -22.5285 
-16.1431 15.7073 -22.0058 -16.0435 15.7123 -21.454 -15.9743 15.7748 -20.9007 
-15.918 15.8721 -20.3509 -15.8652 15.992 -19.8052 -15.8097 16.127 -19.2632 
-15.7479 16.2713 -18.7244 -15.677 16.4199 -18.1878 -15.5955 16.5679 -17.6526 
-15.5029 16.71 -17.1176 -15.3993 16.8394 -16.5814 -15.2865 16.9474 -16.0424 
-15.1689 17.0223 -15.4988 -15.0543 17.0492 -14.9503 -14.9548 17.0107 -14.3998 
-14.8852 16.8938 -13.8559 -14.8575 16.6959 -13.3321 -14.8754 16.4275 -12.8401 
-14.9347 16.1042 -12.3857 -15.0282 15.739 -11.9702 -15.1486 15.3406 -11.5941 
-15.2902 14.9132 -11.2594 -15.4482 14.4591 -10.9701 -15.6177 13.9798 -10.7331 
-15.7928 13.4767 -10.5575 -15.9659 12.9535 -10.4538 -16.1281 12.4173 -10.4302 
-16.2703 11.8781 -10.4889 -16.3859 11.346 -10.6233 -16.472 10.8278 -10.8201 
-16.5289 10.3254 -11.0633 -16.5588 9.83661 -11.3373 -16.5643 9.35687 -11.6285 
-16.5478 8.88016 -11.9242 -16.5112 8.39988 -12.2122 -16.4556 7.90927 -12.4789 
-16.382 7.40254 -12.7082 -16.2917 6.87667 -12.881 -16.187 6.33443 -12.978 
-16.0723 5.78572 -12.9864 -15.9527 5.2438 -12.9062 -15.8322 4.7188 -12.7499 
-15.7125 4.21484 -12.5344 -15.5933 3.73175 -12.275 -15.473 3.2673 -11.9839 
-15.3489 2.81906 -11.6698 -15.2178 2.38512 -11.339 -15.0753 1.96443 -10.9959 
-14.9161 1.55699 -10.6443 -14.7339 1.1642 -10.2874 -14.5208 0.789255 -9.92837 
-14.2679 0.43775 -9.57164 -13.9665 0.117927 -9.22302 -13.6103 -0.159583 -8.8904 
-13.1988 -0.384197 -8.58271 -12.7394 -0.549415 -8.30682 -12.2457 -0.657021 -8.06343 
-11.7309 -0.714458 -7.8479 -11.2049 -0.730832 -7.65305 -10.6742 -0.714599 -7.47132 
-10.1428 -0.672301 -7.29606 -9.6131 -0.608954 -7.12163 -9.08709 -0.528425 -6.94325 
-8.56625 -0.43387 -6.75678 -8.05193 -0.328106 -6.55861 -7.54544 -0.213941 -6.34551 
-7.04802 -0.094432 -6.11473 -6.56082 0.0269321 -5.86399 -6.08481 0.146166 -5.59167 
-5.62073 0.258864 -5.29693 -5.16892 0.360483 -4.97993 -4.72936 0.446806 -4.64189 
-4.30163 0.514106 -4.28487 -3.8849 0.559603 -3.91178 -3.47808 0.581236 -3.52581 
-3.07978 0.578007 -3.13047 -2.68838 0.549796 -2.72926 -2.30215 0.497062 -2.32553 
-1.91919 0.420986 -1.92238 -1.53763 0.322983 -1.52267 -1.15558 0.204632 -1.12896 
-0.771247 0.0675607 -0.743633 -0.382962 -0.0866195 -0.368883 0.0107946 -0.256332 -0.00676842 

LINES 2 120
OFFSETS vtktypeint64
0 120 
CONNECTIVITY vtktypeint64
0 1 2 3 4 5 6 7 8 
9 10 11 12 13 14 15 16 17 
18 19 20 21 22 23 24 25 26 
27 28 29 30 31 32 33 34 35 
36 37 38 39 40 41 42 43 44 
45 46 47 48 49 50 51 52 53 
54 55 56 57 58 59 60 61 62 
63 64 65 66 67 68 69 70 71 
72 73 74 75 76 77 78 79 80 
81 82 83 84 85 86 87 88 89 
90 91 92 93 94 95 96 97 98 
99 100 101 102 103 104 105 106 107 
108 109 110 111 112 113 114 115 116 
117 118 119 
CELL_DATA 1
FIELD FieldData 2
Length 1 1 double
66.738999642 
Tortuosity 1 1 double
0.88420291225 
POINT_DATA 120
FIELD FieldData 19
Curvature 1 120 double
0 0.17914171304 0.13570893291 0.10197334531 0.076985295288 0.057763929327 0.043604345895 0.034535976814 0.030419770113 
0.029335273722 0.029226441399 0.028297510838 0.026615760057 0.026428928616 0.034635304982 0.060343834286 0.11264793193 0.20868936557 
0.37008070298 0.56509532222 0.60731598584 0.44944304257 0.28960482166 0.19393669854 0.14484778945 0.1210805624 0.11358086271 
0.11632651106 0.12657263059 0.1445944334 0.17620612011 0.23558612689 0.37074916234 0.73853101249 1.3786104463 1.0049284287 
0.42533739155 0.20744957536 0.11834372953 0.07404924131 0.049816156006 0.037260752892 0.032552924712 0.033885286006 0.040420076846 
0.053283193692 0.074327303646 0.10715894206 0.15431523868 0.21378267506 0.26954059872 0.29910731886 0.28757873337 0.25041304262 
0.21209585911 0.18557948341 0.17443125725 0.17574672581 0.188471825 0.21084237054 0.23829612979 0.2621746863 0.27082964895 
0.25755426751 0.22473161053 0.18165188063 0.13743103788 0.098936272249 0.071946217307 0.069401439172 0.09654951312 0.14160381283 
0.19726481409 0.25233717455 0.28603655942 0.28491130414 0.24920345592 0.20031037527 0.15460010715 0.11695711951 0.090206808257 
0.073596315267 0.067592378165 0.072778505103 0.088593225308 0.11351737688 0.14712880492 0.18627738641 0.22680252236 0.25720365548 
0.2644342254 0.23801237217 0.19479424619 0.15055311215 0.11273920204 0.085353442871 0.067153590817 0.057174178687 0.053954823462 
0.055497290571 0.059771552212 0.065378487358 0.071481206041 0.077501079469 0.083295286945 0.08812647025 0.091302053505 0.093323045793 
0.092884269455 0.091737900568 0.088641622931 0.084425894466 0.080011455442 0.074894831205 0.070626705676 0.067404543574 0.065541192683 
0.065103220067 0.065921197291 0 
Torsion 1 120 double
0 0 -0.26670889353 -0.23604855866 -0.1066221145 0.096496507505 0.31403641641 0.47864777818 0.47534493121 
0.32028218059 0.10880151928 -0.13077516488 -0.46836307189 -0.9176156961 -0.94965961902 -0.54932225885 -0.27824054161 -0.13605347558 
-0.055805240271 -0.0088659991204 0.026567202038 0.084725218254 0.17748513274 0.27515428573 0.33919940239 0.35643478933 0.32864898139 
0.2852825825 0.25010829468 0.23856329933 0.24660928961 0.26273186916 0.25589117891 0.1414790786 0.039940127703 -0.0084954212577 
-0.13061518273 -0.24677961508 -0.3464386498 -0.48894831555 -0.68236258252 -0.86359054509 -0.93718325711 -0.87564008094 -0.75575509594 
-0.6279191842 -0.51214199935 -0.40046366765 -0.30324276394 -0.22139206032 -0.16169697273 -0.11684599318 -0.076730638636 -0.027669228166 
0.032558123424 0.088847173815 0.12299586174 0.13964601932 0.14614753131 0.14079146022 0.12684818986 0.11326123306 0.10688832226 
0.11124796107 0.13156765216 0.18007072598 0.28955750851 0.53844809171 1.0189019667 1.1389489926 0.63079980365 0.31259128217 
0.16500164753 0.093490178613 0.056262996686 0.032314978804 0.010556143461 -0.019218537931 -0.067391013072 -0.14882927648 -0.2752556403 
-0.43293122913 -0.52276530381 -0.45237377306 -0.30275030159 -0.17819219211 -0.096993452229 -0.049628562951 -0.021168336983 -0.00029915056097 
0.022709104745 0.053162530891 0.094299196414 0.15391220281 0.24165304736 0.3528525854 0.47158867269 0.54619503544 0.53195385802 
0.45688437385 0.38132888563 0.33003778052 0.3011008549 0.28604019348 0.27382520617 0.25939151873 0.24618723407 0.23339056966 
0.22648874786 0.21894455529 0.21837652344 0.22389516383 0.23372370458 0.25023553103 0.26516404155 0.27560208156 0.27496134997 
0.26138560913 0 0 
FrenetTangent 3 120 double
-0.88346876467 0.010440341139 0.46837371952 -0.88346876467 0.010440341139 0.46837371952 -0.86784400829 -0.072940145254 0.4914534693 
-0.85602176324 -0.13796736334 0.49818846585 -0.84762321394 -0.187351844 0.49642136713 -0.84083761442 -0.22433904136 0.49260948093 
-0.83410189434 -0.25184961856 0.49076042983 -0.8266825494 -0.27225518448 0.49241555321 -0.81838911978 -0.28741704424 0.49762505092 
-0.80931992663 -0.2988451905 0.50566076423 -0.79972224535 -0.30789526499 0.51540744667 -0.78998454326 -0.3159387618 0.52545896148 
-0.78062841925 -0.32443827894 0.53419011055 -0.77229059865 -0.33513000426 0.5396805643 -0.76586438156 -0.35036709174 0.53916106136 
-0.76264691282 -0.37375170309 0.52790089107 -0.76414689814 -0.41094536963 0.49719555634 -0.77050377629 -0.47036869261 0.43020602476 
-0.77371158715 -0.55981331311 0.29661327411 -0.74263590123 -0.66652013253 0.065137018197 -0.63719809057 -0.73608761848 -0.22837165169 
-0.4824824023 -0.7375791394 -0.47242750194 -0.34192872207 -0.70812926655 -0.61776831489 -0.23401212003 -0.68127005312 -0.69362053199 
-0.14928338087 -0.66474047762 -0.73200721964 -0.077557762077 -0.65751072655 -0.74944275166 -0.012184558339 -0.65765158942 -0.75322368754 
0.051342953684 -0.66378727893 -0.74615705414 0.11588944905 -0.67520492872 -0.72846958745 0.18349960789 -0.69174592621 -0.69843787661 
0.25640317489 -0.71413554352 -0.65135845537 0.33784335632 -0.74421927755 -0.57619400684 0.4335491329 -0.78422436952 -0.44387755925 
0.54521006289 -0.8211633077 -0.16863217196 0.58745695017 -0.72646661854 0.35656778296 0.42219152595 -0.38374030102 0.82127808737 
0.23949574507 -0.089212413875 0.9667900151 0.15067130991 0.060290324472 0.98674375252 0.11186031556 0.14243708391 0.98346273286 
0.097278988931 0.1935509226 0.97625551915 0.09650291586 0.22711956532 0.96907372799 0.10450275352 0.24877509429 0.96290712271 
0.1182624179 0.26093145556 0.95808599615 0.13569907126 0.26430366586 0.95484518864 0.15512250007 0.25846159711 0.95348550738 
0.17488738045 0.24184912847 0.9544230735 0.19278196541 0.21156164797 0.95816323396 0.20530450578 0.16311534116 0.96500955715 
0.20716188547 0.090792930479 0.97408449171 0.19124251959 -0.010366020584 0.9814880765 0.1512396562 -0.13893540142 0.97868458689 
0.087100060851 -0.28176695139 0.9555213051 0.0087482861156 -0.41720442526 0.90877056237 -0.069069080204 -0.52889772612 0.845870355 
-0.13645675547 -0.61475029542 0.776827927 -0.19085677043 -0.68148736088 0.70650454361 -0.23378888772 -0.73692697251 0.6342565673 
-0.26733891479 -0.7864882507 0.55674602482 -0.29230108729 -0.83303273371 0.46969834888 -0.30772077688 -0.87724286791 0.36844656896 
-0.31115360665 -0.91699618734 0.24960253499 -0.29975146001 -0.94720243798 0.11382707807 -0.27215863211 -0.96173974003 -0.031406231997 
-0.23046468323 -0.95765144912 -0.17259702138 -0.18015190471 -0.93809659996 -0.29583789544 -0.12758591405 -0.91079495034 -0.39265047175 
-0.077394994852 -0.88389462178 -0.46123780457 -0.031563322847 -0.86325925996 -0.50377297144 0.0097644711357 -0.85229810928 -0.52296518816 
0.047288414767 -0.85276191095 -0.52015471647 0.082180695629 -0.8653487338 -0.49438638955 0.11521986737 -0.88943590234 -0.44229872008 
0.14636282085 -0.92178899676 -0.3590027439 0.17432690732 -0.95469404962 -0.24118333485 0.19624722941 -0.9760115959 -0.094278256323 
0.20958193346 -0.97568092804 0.064203892567 0.21458422241 -0.95355849449 0.21137598981 0.21444895671 -0.91859565591 0.331954313 
0.21309125666 -0.88042777271 0.42360247093 0.21352314647 -0.84473738751 0.49074088077 0.21777600724 -0.8134302028 0.53935601957 
0.22738902373 -0.78611382005 0.57473410706 0.24385373212 -0.76152974478 0.60050629068 0.26881439054 -0.73795548699 0.61899961443 
0.30425861636 -0.71318793895 0.63149794782 0.352457454 -0.68441024287 0.63824475131 0.41564414359 -0.64790640374 0.63832377199 
0.49469728371 -0.59915153079 0.62951730766 0.58736759318 -0.5335737376 0.608521468 0.68621145876 -0.44886347039 0.57239446085 
0.77863073119 -0.34854271527 0.52177788385 0.85165069008 -0.24376641399 0.46397094468 0.90027017274 -0.14732368186 0.40964539402 
0.92827167189 -0.065833132564 0.36602964611 0.94196658223 -0.00012545178219 0.33570663119 0.94660473269 0.052162205278 0.31814868283 
0.94553901041 0.094136729358 0.31159951216 0.94060787839 0.1281953126 0.31436090874 0.93273340213 0.1559987402 0.3250735203 
0.92232862777 0.17848460335 0.34271438367 0.90956743854 0.19596218944 0.36645039918 0.89454602 0.20821664559 0.39551643024 
0.87739097089 0.21464079102 0.42908555677 0.85834764887 0.21440629137 0.46612150337 0.83779310116 0.20669315964 0.50535201336 
0.81625762647 0.19100291769 0.54519847089 0.79443082653 0.16750318856 0.58379991751 0.77298588236 0.13691874398 0.6194724233 
0.75263295931 0.10053144664 0.6507204137 0.73399256419 0.059829693844 0.67651705333 0.71754276723 0.016401621365 0.69632130803 
0.70377109287 -0.028019305997 0.70987405033 0.69298876935 -0.072134611908 0.71733058161 0.68543731073 -0.11478470469 0.71902723497 
0.68125654786 -0.15511960937 0.71542115065 0.68043524879 -0.1927861631 0.70699460219 0.68288861914 -0.22759652888 0.69416349219 
0.68844249241 -0.25952165715 0.67727058412 0.69684597823 -0.28860740996 0.6565907748 0.69684597823 -0.28860740996 0.6565907748 

FrenetNormal 3 120 double
0.16672861667 -0.92729092068 0.33516132953 0.16672861667 -0.92729092068 0.33516132953 0.17846918435 -0.96891055319 0.17135078104 
0.16649065654 -0.98595698028 0.013026677426 0.16147208182 -0.98229279947 -0.095013803788 0.19819851259 -0.97447009817 -0.10547690446 
0.28410708912 -0.95874897356 -0.009141531751 0.40449335591 -0.89589345982 0.1837390369 0.51132048936 -0.7594167004 0.4022904825 
0.57123103511 -0.60086755188 0.55915408397 0.59686393712 -0.50038122504 0.62719380593 0.60962487888 -0.49621264672 0.61816706179 
0.60415706953 -0.61058239312 0.51203845221 0.5157659608 -0.82674364938 0.22467846335 0.2691868891 -0.93619528253 -0.2260017958 
0.03984223005 -0.84174952758 -0.53839607124 -0.060271070297 -0.72193556103 -0.68933043151 -0.060437275515 -0.61795390052 -0.78388794643 
0.030043930691 -0.50008026454 -0.8654577351 0.2127166069 -0.32699319042 -0.92077527039 0.43865681696 -0.10274566652 -0.8927617403 
0.62383988346 0.089238194384 -0.7764408184 0.7532488399 0.18653159947 -0.63073143856 0.85594827443 0.19397403524 -0.47929805462 
0.93888060695 0.13694344916 -0.31583175526 0.98897509048 0.044374024198 -0.14127709078 0.99812865168 -0.053141293213 0.03025223388 
0.97281525891 -0.13570008859 0.18765915374 0.92432633562 -0.19515022682 0.3279286725 0.85802970641 -0.23400665637 0.4571935123 
0.77057007646 -0.25579142845 0.58377435915 0.65426373575 -0.2543932581 0.71219592411 0.49792205523 -0.2020731482 0.84335050228 
0.26519335213 -0.021879191529 0.96394698348 -0.10020800445 0.37191965381 0.92284024996 -0.4256834832 0.71595346373 0.55335721727 
-0.51485459721 0.83256154794 0.20436734727 -0.46756555962 0.88378721657 0.01739549629 -0.34725222849 0.93288460946 -0.095614827487 
-0.14561377651 0.97312026889 -0.17841964678 0.16167928705 0.95711017424 -0.24041614445 0.54938097341 0.79263446754 -0.26440716124 
0.87763075652 0.42389585385 -0.22377792631 0.99060519023 -0.052678301484 -0.12619965785 0.88179897516 -0.47136449619 -0.015686909722 
0.65252931659 -0.75437430451 0.071588404703 0.38938373948 -0.91279883626 0.12320141213 0.14494267517 -0.98020796168 0.13484796168 
-0.06012487511 -0.99262042535 0.10530759974 -0.22548831588 -0.97366447054 0.033652907777 -0.35425218009 -0.93192852353 -0.077553980726 
-0.44909555076 -0.86727767592 -0.21480833117 -0.50786600441 -0.78472105981 -0.35536598016 -0.52868062716 -0.69963613168 -0.48063091631 
-0.51249458095 -0.62726667063 -0.58641779339 -0.46240596899 -0.57245977972 -0.6771045122 -0.38730686108 -0.52775883805 -0.75595238224 
-0.29686462721 -0.48245037137 -0.82408314646 -0.19499278241 -0.42891493881 -0.88204863249 -0.085048519768 -0.36032660913 -0.9289410552 
0.026061452795 -0.27077444408 -0.96228997766 0.13378422867 -0.15986906916 -0.978030501 0.23556804888 -0.034946277287 -0.9712293509 
0.33025126474 0.089867566033 -0.93960519513 0.41967213829 0.19870722382 -0.88565836277 0.51217923139 0.27851351483 -0.81246701902 
0.62477781197 0.31752361959 -0.71332421568 0.78349149868 0.29158413285 -0.54874380631 0.97028928787 0.13451495431 -0.20110799317 
0.92137404986 -0.16388167755 0.35243815914 0.62557573144 -0.34137406815 0.7015117603 0.40450241446 -0.36466285984 0.83868873568 
0.27133709111 -0.31158313328 0.91065478313 0.18162883072 -0.20955535039 0.9607796433 0.11220977488 -0.073162771867 0.99098747481 
0.054884660646 0.077297368068 0.99549625359 0.011329989513 0.21883299409 0.97569654711 -0.013218309861 0.33710057001 0.94137584523 
-0.011105173833 0.43134978439 0.90211642188 0.030430326255 0.50783270757 0.86091807761 0.13047170627 0.57192274388 0.80986511772 
0.30683087496 0.61797007847 0.72385619862 0.53456290951 0.62218722414 0.57194890846 0.72564396411 0.57776475762 0.37366926848 
0.82892305118 0.52486948405 0.19338717624 0.86495408432 0.49860190759 0.057013768156 0.86132607953 0.50583431211 -0.047423975043 
0.82988574657 0.54072090882 -0.13751562239 0.77223615343 0.5944936286 -0.22411748901 0.68761974561 0.65695583434 -0.30917328018 
0.57947448023 0.71840561252 -0.38484113952 0.45938173878 0.77335293274 -0.43691378956 0.34217749718 0.82120290644 -0.45666218025 
0.23418904863 0.86803950357 -0.43779322715 0.13216661051 0.91937890693 -0.37050561744 0.027612016499 0.97008115353 -0.24120558061 
-0.08616855602 0.99550614361 -0.039274648224 -0.20331706237 0.95425913918 0.21920690556 -0.30383119039 0.82550596976 0.47563273818 
-0.37319672002 0.64139100373 0.67032961183 -0.41547384426 0.44640651273 0.79252931185 -0.44042241245 0.25963047697 0.85943011004 
-0.4540439933 0.082513363825 0.8871502674 -0.45848212326 -0.087244844388 0.8844108094 -0.4543772954 -0.24924714208 0.85522928831 
-0.44275170922 -0.39937111924 0.80279115161 -0.42558790722 -0.5322372421 0.7318459205 -0.40328185341 -0.64772765143 0.64638427912 
-0.37589607096 -0.74579891676 0.5499873813 -0.34354958711 -0.82656143542 0.44583615226 -0.30538151417 -0.89110176025 0.33567809532 
-0.26001140679 -0.94005223334 0.22067140032 -0.20513533224 -0.97358370866 0.10027092153 -0.13923643267 -0.9899359106 -0.025300370152 
-0.062506470223 -0.98604856144 -0.15427629648 0.022692076551 -0.95876859053 -0.28328053142 0.11044183564 -0.90714189699 -0.40607410613 
0.19295928836 -0.83460220643 -0.51595142219 0.26363769084 -0.74830123644 -0.60872031961 0.26363769084 -0.74830123644 -0.60872031961 

FrenetBinormal 3 120 double
0.43781789621 0.3741958681 0.81749186054 0.43781789621 0.3741958681 0.81749186054 0.46367610195 0.23641504845 0.85388078638 
0.48939513907 0.094094844141 0.86697090964 0.50543214578 -0.0003777141244 0.86286627199 0.50369579687 0.0089455176834 0.86383477698 
0.47281834965 0.13180354822 0.87124659707 0.39112796825 0.35107267507 0.85074490259 0.2622796328 0.58367603843 0.7684605887 
0.13673463674 0.74138366397 0.65700373051 0.064790206485 0.80920895659 0.5839375769 0.065436445934 0.80867527972 0.58460445048 
0.1600422019 0.72244649931 0.67264964821 0.37088098485 0.45186592974 0.81133499655 0.58394363409 -0.027951636739 0.81131284854 
0.64558677423 -0.38957335286 0.65684877991 0.64222030188 -0.55671621936 0.52689670236 0.63456383954 -0.62998910296 0.44770801166 
0.63282520662 -0.66070324919 0.40373688756 0.63501461665 -0.66994504726 0.38461678369 0.63368666573 -0.66904285807 0.38835919424 
0.61484512788 -0.66933814906 0.41707542596 0.56187270285 -0.68099846128 0.46961703709 0.46107578464 -0.70586485135 0.53773965117 
0.31018974531 -0.73441581488 0.60366856201 0.1261469934 -0.75213734813 0.64682018027 -0.05992271053 -0.75144553355 0.65706839741 
-0.22581933738 -0.73550794305 0.63877515025 -0.36358006116 -0.71134709756 0.60149384529 -0.47970086181 -0.68317527645 0.55059842429 
-0.58350592899 -0.65159893387 0.48470574601 -0.67660980681 -0.61759350479 0.4009706126 -0.75107175175 -0.58665030557 0.30287397165 
-0.79524742899 -0.57027372644 0.20583829483 -0.80302720224 -0.57785986472 0.14568901539 -0.80034235646 -0.58322724486 0.13891757738 
-0.82314429587 -0.54670139391 0.15346352683 -0.87102273439 -0.46398839706 0.1613510569 -0.93107634467 -0.33081412085 0.1538143616 
-0.98454732055 -0.12479977014 0.12284783665 -0.98211353487 0.1798800084 0.055643393216 -0.82901129097 0.55663412878 -0.05383981907 
-0.46451938143 0.86731025625 -0.17887052213 0.016944590518 0.9629997761 -0.26896897979 0.44538475207 0.8432159359 -0.30103041054 
0.73730583556 0.61026912731 -0.28974419251 0.90067497869 0.3493421727 -0.25834981929 0.96790582229 0.11218617265 -0.22488348505 
0.97645734807 -0.080382429326 -0.20017420526 0.95529122162 -0.2277499603 -0.18854346311 0.92283907551 -0.33497191115 -0.19016271835 
0.88922818539 -0.41041054806 -0.20208022256 0.86139165834 -0.45842483116 -0.21874890883 0.84600606181 -0.48039200509 -0.23129475746 
0.84777877915 -0.47814077236 -0.22946142035 0.86588360247 -0.45592189852 -0.2058659987 0.89181620939 -0.42238518682 -0.16203272084 
0.91673403872 -0.38558769518 -0.10450278263 0.93623602215 -0.34941156226 -0.037063067612 0.94766801822 -0.31719029848 0.036271776699 
0.95000222829 -0.29291499251 0.10815069771 0.94459030398 -0.27793780277 0.17464173445 0.93297233256 -0.2717267564 0.23606608511 
0.91532515093 -0.27354619826 0.29555430212 0.88961822574 -0.28370796314 0.35789552117 0.84934932123 -0.30476676408 0.43095585625 
0.77695733502 -0.34337887034 0.5276630089 0.62060037717 -0.41202201831 0.66715292721 0.24175060073 -0.5054638068 0.82828919289 
-0.3857896656 -0.49592329951 0.77796299071 -0.77582300656 -0.36692685171 0.51328680871 -0.90724978857 -0.27554450507 0.31776256366 
-0.95129075874 -0.23069676311 0.20451135868 -0.96779186669 -0.21129559093 0.13686882779 -0.97411292537 -0.20505748823 0.095160050181 
-0.97624950048 -0.20511422073 0.069750048485 -0.97663977127 -0.20697419712 0.057761915617 -0.97664575013 -0.20626494285 0.060148583528 
-0.97696918654 -0.19693730107 0.082139564153 -0.97646395794 -0.16889253168 0.13413967191 -0.96723872158 -0.10599849158 0.2306806781 
-0.92420184271 0.01174921461 0.38172360406 -0.80918344837 0.18153651401 0.55880823273 -0.63338744919 0.34872565733 0.69080442611 
-0.46937540369 0.46462349106 0.75087398541 -0.35725085743 0.53195747688 0.76771939383 -0.29215976899 0.56951640949 0.76830575209 
-0.25800047505 0.59045604571 0.76472048028 -0.24217892932 0.60156162785 0.76123122249 -0.23726128911 0.60574798116 0.75945800675 
-0.24071458453 0.6020061059 0.76134429613 -0.25230838307 0.58523770969 0.77060839795 -0.26912483442 0.55129077555 0.78971533117 
-0.28890689274 0.4921111855 0.82119387993 -0.30859511504 0.39337311773 0.86604078727 -0.32121185625 0.23711107084 0.91684310735 
-0.31389641564 0.010285631996 0.94940151992 -0.27188047239 -0.27010267886 0.9236479587 -0.19415202367 -0.54240601669 0.81737427459 
-0.10017040765 -0.74616407492 0.65818315287 -0.0082800656443 -0.87310941222 0.4874539925 0.076259535201 -0.94299408478 0.32395468721 
0.15501334249 -0.9732013541 0.16985284228 0.23028993972 -0.97284031544 0.023415044653 0.30272758889 -0.94612567871 -0.11490085726 
0.37107197578 -0.89667195482 -0.2414228536 0.43330658325 -0.82985914464 -0.35153834068 0.48975154149 -0.74946790934 -0.44546748533 
0.54059760673 -0.65854187718 -0.52352346997 0.58585714718 -0.55965757496 -0.58613548083 0.6259988083 -0.45350704481 -0.63439487097 
0.66113562692 -0.33987750304 -0.66886692678 0.69114836397 -0.2166364697 -0.6894799337 0.71469497611 -0.082772969513 -0.69452122116 
0.72937127527 0.060383286307 -0.68144801823 0.73245678499 0.20879723451 -0.64800522605 0.72212584415 0.35396807592 -0.59434069897 
0.69915209195 0.485888533 -0.52449850889 0.66700888345 0.59728638228 -0.44536291599 0.66700888345 0.59728638228 -0.44536291599 

plain_curvature_peaks 1 120 unsigned_char
0 0 0 0 0 0 0 0 0 
0 0 0 0 0 0 0 0 0 
0 0 0 0 0 0 0 0 0 
0 0 0 0 0 1 0 0 0 
0 0 0 0 0 0 0 0 0 
0 0 0 0 0 0 0 0 0 
0 0 0 0 0 0 0 0 0 
0 0 1 0 0 0 0 0 0 
0 0 0 0 0 0 0 0 0 
0 0 0 0 0 0 0 0 0 
0 1 0 0 0 0 0 0 0 
0 0 0 0 0 0 0 0 0 
0 0 0 0 1 0 0 0 0 
0 0 0 
weighted_curvature_peaks 1 120 unsigned_char
0 0 0 0 0 1 0 0 0 
0 0 0 0 0 0 0 0 0 
0 0 0 0 0 0 0 0 0 
0 0 0 0 0 0 0 0 0 
0 0 0 0 1 0 0 0 0 
0 0 0 0 0 0 0 0 0 
0 0 0 0 0 0 0 0 0 
0 0 0 0 0 0 0 0 0 
0 0 0 0 0 0 0 0 0 
0 0 0 0 0 0 0 0 0 
0 0 0 0 0 0 1 0 0 
0 0 0 0 0 0 0 0 0 
0 0 0 0 0 0 0 1 0 
0 0 0 
plain_torsion_tp 1 120 unsigned_char
0 0 0 0 0 0 0 0 0 
0 0 0 0 0 0 0 0 0 
0 0 0 0 0 0 0 0 0 
0 0 0 0 0 1 0 0 0 
0 0 0 0 0 0 0 0 0 
0 0 0 0 0 0 0 0 0 
0 0 0 0 0 0 0 0 0 
0 0 1 0 0 0 0 0 0 
0 0 0 0 0 0 0 0 0 
0 0 0 0 0 0 0 0 0 
0 1 0 0 0 0 0 0 0 
0 0 0 0 0 0 0 0 0 
0 0 0 0 1 0 0 0 0 
0 0 0 
plain_torsion_tn 1 120 unsigned_char
0 0 0 0 0 0 0 0 0 
0 0 2 0 0 0 0 0 0 
0 0 0 0 0 0 0 0 0 
0 0 0 0 0 0 0 0 0 
0 0 0 0 0 0 0 0 0 
0 0 0 0 0 2 0 0 0 
0 0 0 0 0 0 0 0 0 
0 0 0 0 0 0 0 0 2 
0 0 0 0 0 0 0 0 0 
0 0 0 0 0 0 0 0 0 
0 0 0 0 0 0 0 0 0 
0 0 0 0 0 2 0 0 0 
0 0 0 0 0 0 0 0 0 
0 0 0 
plain_torsion_tz 1 120 unsigned_char
0 0 0 0 0 0 0 0 0 
0 0 0 0 3 0 0 0 0 
0 0 0 0 0 0 0 0 0 
0 0 0 0 0 0 0 0 0 
0 0 0 0 0 0 0 0 0 
3 0 0 0 0 0 0 0 0 
3 0 0 0 0 0 0 0 0 
0 0 0 0 0 0 0 0 0 
0 0 3 0 0 0 0 0 0 
0 0 0 0 0 0 0 0 0 
0 0 0 0 0 0 0 0 3 
0 0 0 0 0 0 0 0 0 
3 0 0 0 0 0 0 0 0 
0 0 0 
weighted_torsion_tp 1 120 unsigned_char
0 0 0 0 0 1 0 0 0 
0 0 0 0 0 0 0 0 0 
0 0 0 0 0 0 0 0 0 
0 0 0 0 0 0 0 0 0 
0 0 0 0 1 0 0 0 0 
0 0 0 0 0 0 0 0 0 
0 0 0 0 0 0 0 0 0 
0 0 0 0 0 0 0 0 0 
0 0 0 0 0 0 0 0 0 
0 0 0 0 0 0 0 0 0 
0 0 0 0 0 0 1 0 0 
0 0 0 0 0 0 0 0 0 
0 0 0 0 0 0 0 1 0 
0 0 0 
weighted_torsion_tn 1 120 unsigned_char
0 2 0 0 0 0 0 0 0 
0 0 0 0 0 0 0 0 0 
0 0 0 0 0 2 0 0 0 
0 0 0 0 0 0 0 0 0 
0 0 0 0 0 0 0 0 0 
0 0 0 0 0 0 0 0 0 
0 0 0 0 0 0 0 0 0 
0 0 0 0 0 0 2 0 0 
0 0 0 0 0 0 0 0 0 
0 0 0 0 0 0 0 0 0 
0 0 0 0 0 0 0 0 0 
0 0 0 0 0 0 0 0 0 
0 2 0 0 0 0 0 0 0 
0 0 0 
weighted_torsion_tz 1 120 unsigned_char
0 3 0 0 0 0 0 0 0 
0 0 0 0 0 0 0 0 3 
0 0 0 0 0 0 0 0 0 
0 0 3 0 0 0 0 0 0 
0 0 0 0 0 0 0 0 0 
0 0 0 0 0 0 0 0 0 
0 0 0 0 0 0 0 0 0 
0 0 0 0 0 0 0 0 0 
0 0 0 0 0 0 0 3 0 
0 0 0 0 0 0 0 0 0 
0 0 0 0 0 0 0 0 0 
0 0 0 0 3 0 0 0 0 
0 0 0 0 3 0 0 0 0 
0 0 0 
plain_torsion_tp_raw 1 120 unsigned_char
0 0 0 0 0 0 0 0 0 
0 0 0 0 0 0 0 0 0 
0 0 0 0 0 0 0 0 0 
0 0 0 0 0 0 0 0 0 
0 0 1 0 0 0 0 0 0 
0 0 0 0 0 0 0 1 0 
0 0 0 0 0 0 0 0 0 
0 0 0 0 0 0 0 0 0 
0 1 0 0 0 0 0 0 0 
0 0 0 0 0 0 0 0 0 
0 0 0 0 1 0 0 0 0 
0 0 0 0 0 0 0 0 0 
0 0 1 0 1 0 0 0 0 
0 0 0 
plain_torsion_tn_raw 1 120 unsigned_char
0 0 0 0 0 0 0 0 0 
0 0 0 0 0 0 0 0 0 
0 0 0 0 0 0 0 2 0 
0 0 0 0 0 0 0 0 0 
0 0 0 0 0 0 0 0 0 
0 0 2 0 0 0 0 0 0 
0 0 0 0 0 0 0 0 0 
0 0 0 0 0 0 0 2 0 
0 0 0 0 0 0 0 2 0 
0 0 0 0 0 0 0 0 0 
0 0 0 0 0 0 0 0 0 
0 0 0 0 0 0 2 0 0 
0 0 0 2 0 0 0 0 0 
0 0 0 
plain_torsion_tz_raw 1 120 unsigned_char
0 0 0 0 0 0 0 0 0 
0 0 3 0 0 0 0 0 0 
0 0 0 0 0 0 0 0 0 
0 0 0 0 0 0 3 0 0 
0 0 0 3 0 0 0 0 0 
0 0 0 0 0 3 0 0 0 
0 0 0 0 0 0 0 0 0 
0 0 0 0 0 0 0 0 0 
0 0 0 0 0 0 0 0 0 
0 0 0 0 0 0 0 0 0 
0 0 0 0 0 0 0 0 0 
0 0 0 0 0 0 0 0 0 
0 0 0 0 0 0 0 0 0 
0 0 0 
weighted_torsion_tp_raw 1 120 unsigned_char
0 0 0 0 0 0 0 0 0 
0 1 0 0 0 0 0 0 0 
0 0 0 0 0 0 0 1 0 
0 0 0 0 0 0 0 0 0 
0 0 0 0 0 0 0 0 0 
0 0 0 0 0 0 0 0 0 
0 0 0 0 0 0 0 0 0 
0 0 0 0 0 0 0 0 0 
0 0 0 1 0 0 0 0 0 
0 0 0 0 0 0 0 0 0 
0 0 0 0 0 0 0 0 0 
1 0 0 0 0 0 0 0 0 
0 0 0 0 0 1 0 1 0 
0 0 0 
weighted_torsion_tn_raw 1 120 unsigned_char
0 0 0 2 0 0 0 0 0 
0 0 0 0 0 0 0 0 0 
0 2 0 0 0 0 0 0 0 
0 0 0 0 0 0 0 0 0 
0 0 0 0 0 0 0 0 0 
0 0 0 0 0 0 0 0 0 
0 0 0 0 0 0 2 0 0 
0 0 0 0 0 0 0 0 0 
0 0 0 0 0 0 0 0 0 
0 0 0 2 0 0 0 0 0 
0 0 0 0 0 0 0 0 0 
0 0 0 0 0 0 0 0 0 
0 0 2 0 0 0 2 0 0 
0 0 0 
weighted_torsion_tz_raw 1 120 unsigned_char
0 3 0 0 0 0 3 0 0 
0 0 3 0 0 0 0 0 0 
0 0 0 0 3 0 0 0 0 
0 0 0 0 0 0 0 0 0 
0 0 0 0 0 0 0 0 0 
0 0 0 0 0 0 0 0 0 
0 0 0 0 0 0 0 0 0 
0 0 0 0 0 0 0 0 0 
0 0 0 0 0 0 0 0 0 
0 0 0 0 0 0 0 0 0 
0 0 0 0 0 0 0 0 0 
0 0 0 0 0 0 0 0 0 
0 0 0 0 0 0 0 0 0 
0 0 0 
