# vtk DataFile Version 5.1
vtk output
ASCII
DATASET POLYDATA
POINTS 120 float
-3.26114 19.7699 -3.76046 -3.29793 19.0233 -4.23026 -3.46862 18.2384 -4.52046 
-3.74489 17.4316 -4.69289 -4.0984 16.6193 -4.8084 -4.50096 15.8175 -4.9245 
-4.92497 15.041 -5.09151 -5.34434 14.3031 -5.34757 -5.73542 13.6144 -5.71458 
-6.07794 12.9829 -6.19596 -6.35511 12.4123 -6.77794 -6.55276 11.9026 -7.43374 
-6.65835 11.4487 -8.1304 -6.66085 11.0406 -8.83623 -6.55255 10.664 -9.52719 
-6.33161 10.3017 -10.1906 -6.00404 9.93589 -10.8257 -5.58338 9.55174 -11.4407 
-5.08837 9.13913 -12.0468 -4.53972 8.69249 -12.6493 -3.95759 8.21049 -13.2412 
-3.3609 7.69472 -13.798 -2.76872 7.14983 -14.2803 -2.20233 6.58492 -14.6406 
-1.68705 6.01444 -14.8339 -1.25197 5.45777 -14.8293 -0.92727 4.93745 -14.6186 
-0.73932 4.47552 -14.2186 -0.705207 4.09011 -13.6659 -0.828598 3.79164 -13.008 
-1.09807 3.58086 -12.2913 -1.48863 3.44697 -11.5525 -1.96598 3.36889 -10.815 
-2.49275 3.31941 -10.0897 -3.03503 3.27236 -9.37981 -3.56795 3.21192 -8.68731 
-4.07886 3.13993 -8.01811 -4.56821 3.07853 -7.38558 -5.04717 3.06745 -6.81027 
-5.53183 3.1531 -6.31543 -6.03616 3.3749 -5.9196 -6.56559 3.75141 -5.62878 
-7.11335 4.27249 -5.43143 -7.65971 4.89904 -5.29786 -8.17438 5.571 -5.18445 
-8.62159 6.21997 -5.04166 -8.96691 6.78328 -4.82404 -9.18423 7.21567 -4.49973 
-9.26059 7.49431 -4.05673 -9.19701 7.61769 -3.50431 -9.00573 7.5977 -2.87011 
-8.70502 7.45297 -2.19304 -8.31369 7.20205 -1.51358 -7.84784 6.86309 -0.865107 
-7.3202 6.45502 -0.267943 -6.7414 5.9987 0.271746 -6.12189 5.5171 0.758135 
-5.47355 5.0324 1.19774 -4.81026 4.56345 1.59048 -4.14744 4.12228 1.92303 
-3.50122 3.71226 2.16813 -2.88764 3.32714 2.29093 -2.32245 2.95289 2.26066 
-1.82121 2.57009 2.06242 -1.39952 2.15721 1.70421 -1.07269 1.69458 1.21768 
-0.854369 1.16736 0.651995 -0.754005 0.569061 0.0645681 -0.77391 -0.0988515 -0.487968 
-0.906978 -0.827512 -0.956728 -1.13586 -1.60348 -1.30509 -1.4337 -2.41171 -1.51118 
-1.76649 -3.23643 -1.56805 -2.09705 -4.06211 -1.48168 -2.39 -4.87272 -1.26683 
-2.61691 -5.65119 -0.942341 -2.76005 -6.37996 -0.527249 -2.8132 -7.04273 -0.0391173 
-2.77887 -7.62698 0.505843 -2.66292 -8.12679 1.09179 -2.46942 -8.5441 1.70264 
-2.19871 -8.88812 2.3228 -1.85002 -9.17076 2.93945 -1.42621 -9.40228 3.54494 
-0.937211 -9.58728 4.13742 -0.399433 -9.72352 4.71925 0.169156 -9.80521 5.29308 
0.755413 -9.82657 5.85785 1.35559 -9.7871 6.40675 1.97573 -9.69401 6.92801 
2.62738 -9.56202 7.40949 3.32134 -9.41052 7.8433 4.06213 -9.25917 8.2303 
4.84527 -9.12354 8.58074 5.65806 -9.01373 8.91269 6.48309 -8.93437 9.24681 
7.30314 -8.88726 9.60146 8.10573 -8.87352 9.9877 8.88625 -8.89455 10.4072 
9.64865 -8.95191 10.8526 10.4033 -9.04642 11.3108 11.1637 -9.1781 11.7676 
11.9414 -9.34668 12.2108 12.7412 -9.55301 12.6337 13.5568 -9.80069 13.0349 
14.3688 -10.0968 13.4181 15.145 -10.4501 13.789 15.8432 -10.8686 14.1531 
16.4175 -11.3558 14.5147 16.8252 -11.9086 14.8747 17.0347 -12.5172 15.2319 
17.0317 -13.1677 15.5832 16.8228 -13.8451 15.9257 16.4351 -14.5361 16.2569 
15.9124 -15.2312 16.5759 15.3092 -15.9245 16.883 14.6853 -16.6126 17.1796 
14.1022 -17.2944 17.4681 13.6215 -17.9692 17.7507 13.3049 -18.6369 18.0301 

LINES 2 120
OFFSETS vtktypeint64
0 120 
CONNECTIVITY vtktypeint64
0 1 2 3 4 5 6 7 8 
9 10 11 12 13 14 15 16 17 
18 19 20 21 22 23 24 25 26 
27 28 29 30 31 32 33 34 35 
36 37 38 39 40 41 42 43 44 
45 46 47 48 49 50 51 52 53 
54 55 56 57 58 59 60 61 62 
63 64 65 66 67 68 69 70 71 
72 73 74 75 76 77 78 79 80 
81 82 83 84 85 86 87 88 89 
90 91 92 93 94 95 96 97 98 
99 100 101 102 103 104 105 106 107 
108 109 110 111 112 113 114 115 116 
117 118 119 
CELL_DATA 1
FIELD FieldData 2
Length 1 1 double
98.560687705 
Tortuosity 1 1 double
1.0897901099 
POINT_DATA 120
FIELD FieldData 19
Curvature 1 120 double
0 0.30406587363 0.21563067148 0.1202762345 0.060480139331 0.074513566018 0.12081339834 0.16091738053 0.18193164111 
0.18184477295 0.1698558921 0.16012556666 0.16293420451 0.17728222919 0.18744118815 0.17373916429 0.13444935015 0.088268377849 
0.055088030441 0.044165210188 0.054491269979 0.083271825019 0.13488500521 0.22142670803 0.35521825666 0.51479598118 0.60125313688 
0.54251699737 0.41272948896 0.29462493305 0.20278607408 0.13011030183 0.071018832327 0.027173280197 0.01897923708 0.019400640281 
0.013068041273 0.092215201966 0.22189226541 0.36096516259 0.39139794952 0.28799284842 0.16374475845 0.080325520268 0.081863456026 
0.19905614065 0.44928666949 0.79340030106 0.80699525074 0.50489196263 0.29129283536 0.19684544828 0.15600751744 0.13206012393 
0.10905527775 0.084330094084 0.064734278621 0.057889152402 0.068508068049 0.10593005312 0.18552471892 0.30563517176 0.40641974276 
0.39863954445 0.30875910049 0.23131350531 0.19765276825 0.19453783803 0.20292789859 0.21017849317 0.20848507442 0.19664054441 
0.1810605595 0.17054806284 0.16995386176 0.17743424754 0.18753328384 0.19543124394 0.19805534212 0.19428002033 0.18473652636 
0.17215373404 0.15421452752 0.13039980658 0.10790785589 0.096120801373 0.09613145952 0.097267231962 0.095813130308 0.095326888321 
0.096271428256 0.090623876879 0.074386863078 0.052486609887 0.040090415974 0.048212374109 0.061534882308 0.066856044602 0.061434619932 
0.050875619998 0.045970014094 0.049678742433 0.053434521764 0.053981403182 0.058065478876 0.076177780975 0.11410737044 0.17543704535 
0.26313221236 0.36033271442 0.40704049471 0.35335260579 0.24602538546 0.14822221913 0.077565158947 0.02420930671 0.028806756333 
0.094684531923 0.20401377472 0 
Torsion 1 120 double
0 0 0.14856824213 0.41010895115 1.319434276 0.72840177059 0.24619796598 0.1324228083 0.10915107671 
0.12904936603 0.18552099235 0.25789841268 0.28753932276 0.25033235661 0.19467529402 0.15930751604 0.15658399544 0.2119280735 
0.35086826122 0.33240370597 0.092333899691 -0.010587211188 -0.013359648816 0.011163685777 0.038176641286 0.060413709635 0.077639596758 
0.093042959521 0.097842942024 0.086759726895 0.079376826685 0.099376639978 0.222622678 1.0320444314 1.0512538704 0.089923953835 
-0.8170208051 -0.0036657258665 -0.00080989403825 -0.010659445194 -0.027924964069 -0.075551274774 -0.24558881221 -1.0484556935 -1.2106192603 
-0.28956032317 -0.074213373362 -0.012629692543 0.010152980535 0.033920936324 0.058271253117 0.065867903357 0.072909572312 0.087775649509 
0.12381542918 0.1892653623 0.24296566731 0.11193570968 -0.17528002031 -0.28010081293 -0.2292657905 -0.18580590481 -0.18619074199 
-0.23912251416 -0.3466611199 -0.4314934128 -0.38930607938 -0.28253627563 -0.20510810185 -0.17317727885 -0.17342477786 -0.19496658527 
-0.22126615611 -0.22017012229 -0.17032272316 -0.094468671605 -0.03257686843 -0.01143974887 -0.041554310713 -0.11078761937 -0.17163668896 
-0.16538259361 -0.079426199387 0.070747061545 0.23045439671 0.2511512493 0.074448911031 -0.15654501981 -0.35130124057 -0.43120551833 
-0.38765670575 -0.33571535769 -0.37143175559 -0.60817523717 -0.88935199 -0.46298960688 -0.12647676676 0.058177336004 0.23601788763 
0.46535579909 0.53957256911 0.29256606884 0.022998978469 -0.22661951127 -0.3915505829 -0.32934280153 -0.2010045178 -0.11533654449 
-0.069551352462 -0.042780855018 -0.026823190063 -0.016966829194 -0.0066374053642 0.010357032239 0.058921955416 0.60795733017 0.48033503282 
0.063589377019 0 0 
FrenetTangent 3 120 double
-0.12047014963 -0.88924457776 -0.44128338284 -0.12047014963 -0.88924457776 -0.44128338284 -0.26035045993 -0.92714532611 -0.26947946543 
-0.35764409245 -0.91943140578 -0.16351328141 -0.42064469125 -0.89802729264 -0.12886048815 -0.45818362438 -0.87489320922 -0.15693832805 
-0.47266667763 -0.84874522027 -0.23710285306 -0.46178196356 -0.81284873816 -0.35501316456 -0.42347717434 -0.76211605411 -0.48974095488 
-0.36020093308 -0.69873088488 -0.61808610915 -0.27766207668 -0.63166696193 -0.72380979572 -0.17963341897 -0.57083870883 -0.80117102 
-0.06551613363 -0.52251337784 -0.8501102318 0.065895819711 -0.48871062414 -0.86995383027 0.20869877669 -0.46840787302 -0.85850968841 
0.34572055296 -0.45895086104 -0.818438395 0.45662471323 -0.45765863233 -0.76291706464 0.53183837931 -0.46277309623 -0.70921717387 
0.57553584015 -0.47384311081 -0.66650671643 0.59867320315 -0.49164973496 -0.63235348813 0.61246946184 -0.51840154802 -0.59677549659 
0.62501029644 -0.55760687258 -0.54629360695 0.63932274416 -0.61241008915 -0.46499495858 0.65042788051 -0.68273752629 -0.33288593009 
0.6393889871 -0.75833578728 -0.12691948986 0.5689166614 -0.80643879837 0.16121506404 0.40521312829 -0.77639276431 0.48271792611 
0.17158544193 -0.65472898428 0.73613069034 -0.064080275635 -0.49086133723 0.86887793497 -0.25886922766 -0.33555384116 0.90575401884 
-0.4037198645 -0.21082264658 0.89026068244 -0.50297369396 -0.12284243536 0.85552743922 -0.56445738239 -0.071705532931 0.82234188754 
-0.59649530301 -0.053861649514 0.80080726532 -0.60732793858 -0.060714815316 0.7921278219 -0.6065734569 -0.076953420351 0.79129439053 
-0.60729964887 -0.08098962434 0.79033399094 -0.62481212667 -0.046770235104 0.77937305026 -0.66825537854 0.051711830005 0.742132492 
-0.72401169878 0.22507565162 0.65203374995 -0.750340047 0.43427446418 0.49839292093 -0.72552973655 0.6045627754 0.3288015389 
-0.67547671111 0.70851483052 0.20429867273 -0.62598959715 0.7660968803 0.14571408389 -0.5815500484 0.79862787883 0.1548969088 
-0.53099806147 0.81223849251 0.24147399447 -0.44456854542 0.78676027122 0.42821382983 -0.27029257155 0.65439480521 0.70619357451 
-0.011907466503 0.37445673288 0.9271679284 0.20923441653 0.084880616277 0.97417464549 0.34888389084 -0.11680803628 0.9298580071 
0.43983121159 -0.25146416855 0.86215675909 0.50809892001 -0.34965387969 0.7871325504 0.56456565918 -0.42451090066 0.707853171 
0.61243977922 -0.47846317495 0.62927776621 0.65291007382 -0.51103185182 0.55906608011 0.6877248177 -0.52415525589 0.50229059601 
0.7195680691 -0.52317523957 0.45662836382 0.75161395511 -0.51583819854 0.41108078939 0.78627065106 -0.5112661645 0.34696595269 
0.82098444374 -0.5181728412 0.23975289317 0.83883854823 -0.54038403456 0.065840604507 0.80325444735 -0.57022676871 -0.17211544106 
0.68895836945 -0.59396825593 -0.41537702887 0.52401940388 -0.61291845654 -0.59138365719 0.35306172196 -0.64106377531 -0.68145774372 
0.19401674306 -0.68522164609 -0.70201766298 0.047171453745 -0.74235902047 -0.66833968809 -0.08807147314 -0.80405536789 -0.58799522191 
-0.20682526751 -0.85977350393 -0.46691844112 -0.2994220808 -0.90055863305 -0.31518338466 -0.35626057354 -0.92250191366 -0.14855511784 
-0.37288302937 -0.92773017496 0.016582185392 -0.35092400847 -0.92092960063 0.16953174027 -0.29591949099 -0.90453419805 0.30700087851 
-0.21524442575 -0.87670411216 0.43018570049 -0.11749915969 -0.83298536907 0.54067487679 -0.011617122024 -0.77001570724 0.63791915873 
0.095490397631 -0.6888320324 0.71860421311 0.2010404776 -0.59583278358 0.77753843659 0.30539404417 -0.5008687437 0.80985491255 
0.40788462911 -0.41266548445 0.81445523344 0.50342007229 -0.33506026246 0.79643132242 0.58414678865 -0.26655172376 0.76663075067 
0.64470400002 -0.20170486934 0.7373411002 0.68520579385 -0.13496932385 0.71573479844 0.71066408372 -0.063416361213 0.7006674855 
0.72906831792 0.011127025903 0.68435047826 0.74935206511 0.081402519026 0.65714923147 0.77779546908 0.13765657402 0.61325759344 
0.8145816735 0.17161272294 0.5540810144 0.85378406081 0.18021812018 0.48844058662 0.88748622158 0.16712855481 0.42946042038 
0.91041562426 0.1400156486 0.38928011668 0.92107055006 0.10638391374 0.37458177306 0.92010615344 0.070732057749 0.38522933742 
0.90913518409 0.034094710041 0.41510332183 0.89120548405 -0.0041011323686 0.45358126715 0.87144458606 -0.044276497134 0.48849147918 
0.85596590335 -0.085694524475 0.509881183 0.84908814726 -0.12676558435 0.51281556607 0.85111270185 -0.16614464975 0.49799912059 
0.85816296864 -0.20394277036 0.47113020034 0.8641119949 -0.24285683894 0.44082991738 0.86261361243 -0.28818568316 0.41574844279 
0.84739051276 -0.34649819708 0.4023286198 0.81042736184 -0.42425315815 0.40400092695 0.73885725145 -0.52587100927 0.42136640064 
0.61296322167 -0.64915837321 0.4504103633 0.4120367393 -0.77526057308 0.47874499403 0.14147141029 -0.86271160991 0.48550439565 
-0.14008327777 -0.87755806791 0.45855044732 -0.36427135795 -0.83554006141 0.41131397199 -0.51105188763 -0.77819953414 0.36500883991 
-0.5944459657 -0.73304971786 0.33056331467 -0.63129323789 -0.7106464525 0.31056475548 -0.62953982562 -0.71452543393 0.30517701784 
-0.58575785586 -0.74699492798 0.31446194026 -0.48047021626 -0.80897338659 0.33868928397 -0.48047021626 -0.80897338659 0.33868928397 

FrenetNormal 3 120 double
-0.6095407685 -0.28459843761 0.73990795431 -0.6095407685 -0.28459843761 0.73990795431 -0.6383435086 -0.04411211124 0.76848662101 
-0.73888312489 0.1715254487 0.65163697577 -0.90640150576 0.4220539365 0.017515280505 -0.38698768938 0.35529794962 -0.8508841844 
-0.019463813591 0.27904464179 -0.96008085485 0.17707029146 0.30770738668 -0.93485949536 0.33085650817 0.37314977194 -0.86677172237 
0.47485593569 0.43296906553 -0.76619163962 0.62453847123 0.4538081966 -0.63561766704 0.78255170529 0.41058916762 -0.46800573072 
0.91640926055 0.30560109853 -0.25846089792 0.98211665118 0.18586457906 -0.030020688167 0.97796104358 0.094494040873 0.18618021777 
0.92716293188 0.032872974089 0.37321343133 0.85170441696 -0.022928756136 0.52352063787 0.76045720051 -0.10752478475 0.64042428659 
0.61672241849 -0.28373787511 0.73426580798 0.38493004828 -0.51573373712 0.76540680055 0.22120743876 -0.61238202083 0.75898322089 
0.16648018613 -0.58850868595 0.79116488432 0.11912723468 -0.51853773229 0.84671560878 0.027571881716 -0.41674609369 0.90860469112 
-0.12609241264 -0.26625269133 0.95562032619 -0.33550956678 -0.048619765839 0.9407812971 -0.55270098402 0.21254917836 0.80581912923 
-0.70478648373 0.44051250718 0.55607979946 -0.76890396929 0.57929658297 0.27055896763 -0.76822257402 0.63994314397 0.017517113193 
-0.73853612627 0.64942945081 -0.1811236556 -0.7108548579 0.62184170731 -0.32863089028 -0.7203105498 0.52934955528 -0.44826527879 
-0.80101497124 0.10294946783 -0.58972571839 -0.13071551082 -0.97584965983 -0.17501684673 0.22724072186 -0.97056306138 0.079806003584 
-0.50954509134 0.8029470859 -0.30925681421 -0.41586649199 0.86476179051 -0.28149974515 -0.34479182015 0.86243910754 -0.3705636066 
-0.20143105937 0.83507812069 -0.51192778852 0.00091546726563 0.75462091866 -0.65616036991 0.20484717801 0.64583808877 -0.73547997713 
0.39561464526 0.58202346997 -0.71044896569 0.67970230122 0.62760237267 -0.37963145751 0.65459662959 0.34633569269 0.67197830359 
0.41538335008 0.0011227712404 0.90964576174 0.43258831096 -0.23003348221 0.87175222987 0.53983328708 -0.50433606809 0.67396227831 
0.60476174129 -0.73572776823 0.30490635827 0.57993212699 -0.81289097753 -0.053730687121 0.53474952951 -0.79000978617 -0.29987910639 
0.4970409526 -0.73140875498 -0.46689562493 0.46914081492 -0.65407027186 -0.59337928447 0.45027495145 -0.56034329732 -0.69517469549 
0.44946999866 -0.44407972269 -0.77509349127 0.48405771848 -0.28619009691 -0.82691193824 0.54971655265 -0.075928810521 -0.831893339 
0.59364765182 0.12228607276 -0.79537952067 0.54712077665 0.13945441652 -0.82535526985 0.4098529196 0.011333027443 -0.91208121721 
0.22041390961 -0.099724790508 -0.97029514819 -0.0063602383987 -0.13066630256 -0.99140600399 -0.27827186824 -0.1037718583 -0.95488018556 
-0.55873088252 -0.07018125793 -0.82637424449 -0.79208368045 -0.095482392207 -0.60289846238 -0.93432467811 -0.20356688462 -0.29257122099 
-0.94516475455 -0.32221660076 0.053292109606 -0.85771951702 -0.3730218167 0.35379648725 -0.73389763251 -0.34674936157 0.58408830261 
-0.58992303744 -0.2711364788 0.76057597895 -0.41850824715 -0.17290140036 0.89160302423 -0.21418482284 -0.074128363608 0.9739763074 
0.021920647818 0.0090583265418 0.99971867639 0.2655332919 0.075747997831 0.96112138241 0.46994675676 0.14194584556 0.87120687712 
0.60189787563 0.22779270432 0.7653949511 0.66455798341 0.33861735737 0.66610882893 0.6805953692 0.4612928553 0.56920896434 
0.68189223068 0.57118763361 0.45691101207 0.69885797077 0.64344231744 0.31237720919 0.73953924932 0.66051367334 0.12962787527 
0.77088622905 0.63364657996 -0.065011026461 0.76207280337 0.6065777466 -0.22651375166 0.7036630066 0.63705800931 -0.31466723044 
0.58329211747 0.75324828777 -0.30395282969 0.40406235019 0.8880383705 -0.21936606317 0.25171166097 0.95292263367 -0.16905529857 
0.21662655768 0.94471531383 -0.24614205315 0.30041454052 0.84261187795 -0.44694107775 0.42789288779 0.5987136638 -0.67708908229 
0.50286045669 0.26718898489 -0.82203491863 0.50392897695 -0.050361807219 -0.86227563723 0.46068404618 -0.34554725916 -0.81753733938 
0.37002344428 -0.69640846779 -0.61489665528 0.1291698182 -0.99096227133 -0.036179204855 -0.154176051 -0.83874267393 0.52224560527 
-0.28403480726 -0.67818783879 0.67777981939 -0.34332564695 -0.6596131006 0.66860904695 -0.34880360255 -0.75613358689 0.55371296321 
-0.26066973773 -0.92318873613 0.28244264075 -0.047425074054 -0.98515245227 -0.16500153978 0.13048769743 -0.85188070841 -0.50722008976 
0.1651813102 -0.75921705659 -0.62952727959 0.075012619734 -0.80395265843 -0.58994341245 -0.12504703707 -0.91783075123 -0.37676245915 
-0.33959330086 -0.93616043464 -0.090994673596 -0.49754387694 -0.86251139689 0.09232648994 -0.63229790786 -0.75723754803 0.16367850061 
-0.76901750814 -0.62101090077 0.15151743561 -0.89987416704 -0.42870023637 0.080265751331 -0.98300773222 -0.18037390913 -0.03407420299 
-0.98510677586 0.076888886483 -0.15379447096 -0.92678688482 0.28184302515 -0.24825506904 -0.85447345724 0.413868122 -0.31398772025 
-0.79558596346 0.47635045388 -0.37434371885 -0.73232021937 0.41440589066 -0.54034697565 0.76302373796 -0.64263575119 0.069383474917 
0.80999713779 -0.55302092641 0.19512173565 0.87701048691 -0.4436308064 0.18451101175 0.87701048691 -0.4436308064 0.18451101175 

FrenetBinormal 3 120 double
-0.78354769771 0.35811703428 -0.50774520695 -0.78354769771 0.35811703428 -0.50774520695 -0.724386087 0.37209631269 -0.580352592 
-0.57108881173 0.35387131914 -0.74069741366 0.038656876352 0.12416705025 -0.99150803806 0.80019266094 -0.32912799858 -0.50136460378 
0.88102631733 -0.44918330218 -0.1484149225 0.86913953426 -0.49456353793 0.0018376417527 0.84332737049 -0.52909202203 0.094130645458 
0.80297392744 -0.56948480121 0.17584064674 0.72996949877 -0.62853398468 0.26849499245 0.59610792927 -0.71102721744 0.37295526907 
0.39484389752 -0.79598224764 0.4588142958 0.17636503172 -0.85241790461 0.49221854037 -0.0060842302167 -0.87844461449 0.47780544305 
-0.14438212151 -0.88785329572 0.43688708869 -0.25708647845 -0.88883229486 0.37932004192 -0.37262955397 -0.87993152124 0.29473332597 
-0.53703999408 -0.83364592278 0.12892835295 -0.70243807824 -0.70164039971 -0.11950521216 -0.75891266121 -0.59686522396 -0.26039100805 
-0.76265750961 -0.58543326025 -0.27499349233 -0.7596546128 -0.59671811008 -0.25855824555 -0.7590674302 -0.60016011496 -0.25223892012 
-0.75847374817 -0.59500952773 -0.26585942763 -0.75084430009 -0.58931535094 -0.29822852673 -0.72823343985 -0.59332716296 -0.34298532735 
-0.68835633829 -0.61423015895 -0.38585860541 -0.6361449554 -0.65074619981 -0.41454671528 -0.5855090091 -0.69128604222 -0.42344162301 
-0.53997653764 -0.73061289347 -0.41788771062 -0.49163282456 -0.77344852908 -0.40009316251 -0.40316321175 -0.84536818303 -0.35044551619 
-0.050679081842 -0.99322722968 -0.10455286164 0.78362378107 -0.20983601361 0.58472439417 0.76185976119 0.22822251198 0.60620474207 
-0.60954978171 -0.59052236028 -0.52889734886 -0.66080622515 -0.49999959079 -0.559763827 -0.65920660631 -0.50351233592 -0.55849975629 
-0.65972159913 -0.50198155682 -0.55926910183 -0.6610514169 -0.4918871404 -0.56661985963 -0.65699637369 -0.46625852668 -0.59241771687 
-0.62227025094 -0.39906818382 -0.67344214263 -0.38228498005 -0.13860314501 -0.91359036894 0.48301427902 0.49218400941 -0.72419065663 
0.73857818218 0.58332441289 -0.33798653544 0.78436353921 0.57279391818 -0.23807764627 0.79719630451 0.56339379597 -0.21694580597 
0.79631742949 0.5643463531 -0.21769645206 0.78733708602 0.57619748319 -0.21930976572 0.76962521489 0.60186412123 -0.21315864556 
0.74799652189 0.63388248523 -0.19670840899 0.72231737018 0.67077137974 -0.16829549269 0.69175001595 0.71120031241 -0.12520395783 
0.65030318863 0.7575395634 -0.056917244713 0.58257751474 0.81051938586 0.060512514963 0.47417959347 0.84823114978 0.23591869295 
0.36028358195 0.84340606182 0.39857490571 0.36842274393 0.8452593795 0.38704168137 0.46238409097 0.85934770118 0.21845475708 
0.52668990079 0.84944209503 0.032340000119 0.54434312467 0.83121081115 -0.11304490283 0.52663750355 0.81490664108 -0.24203327494 
0.46168838634 0.80142142596 -0.38022037286 0.31306086871 0.7843558366 -0.53551733312 0.048834581584 0.73999848613 -0.67083338033 
-0.26271865211 0.65318279059 -0.71016276438 -0.51194929834 0.55655889984 -0.65433180187 -0.67352630284 0.48296981854 -0.55955560382 
-0.78052169644 0.43275227533 -0.45112232219 -0.8574364493 0.39887247861 -0.32512071791 -0.90950715522 0.37880760949 -0.17117689561 
-0.92761938941 0.37314162081 0.016958750194 -0.89796682075 0.38229688921 0.21795567743 -0.83161391322 0.4020811628 0.38307837039 
-0.76901806513 0.42367485598 0.47865523283 -0.73794080668 0.43757703346 0.51377982213 -0.73256739342 0.44077739535 0.51871022917 
-0.72519278106 0.44638001563 0.52425214539 -0.68642571562 0.48058847066 0.54576044085 -0.59984679419 0.55933191302 0.57212903665 
-0.48924896647 0.65436932205 0.57657283942 -0.4072017598 0.72097021981 0.56070372655 -0.40451316721 0.72326155112 0.55969797768 
-0.49409215543 0.62604485675 0.60327504447 -0.6059922749 0.43951238223 0.66302505882 -0.65696103373 0.29650770542 0.69317052792 
-0.64925520584 0.32770286101 0.68635159545 -0.5901038776 0.53233340402 0.60695845048 -0.46037146399 0.78904538298 0.406774506 
-0.28911599452 0.94824001164 0.13134999822 -0.13079894375 0.98233656021 -0.13381524121 0.011765037147 0.92339868846 -0.38366189027 
0.18500281559 0.70385429184 -0.68583022249 0.36734751922 0.081708259643 -0.92648775514 0.36004779086 -0.53991453298 -0.7608271061 
0.30462673112 -0.73409727289 -0.60688034127 0.29644609179 -0.75159413132 -0.58925883653 0.34484834389 -0.65291775178 -0.67437232234 
0.44651277712 -0.37467186438 -0.81255604971 0.52611802908 0.11578053551 -0.8424931377 0.5085077478 0.49668421959 -0.70336665861 
0.48607762139 0.61805890286 -0.61784442911 0.49767817629 0.54284498597 -0.67648780777 0.49016425224 0.27301231498 -0.82777006571 
0.40817362593 -0.059520080911 -0.91096193722 0.30928559891 -0.27583210115 -0.91008739706 0.23300068174 -0.38736414065 -0.8919975924 
0.18135093342 -0.4392480707 -0.87987099699 0.14301121972 -0.46388269118 -0.87427720996 0.11696853626 -0.4724340494 -0.87356993452 
0.099706145497 -0.47326518633 -0.87525924614 0.091501081482 -0.4716326059 -0.87703491215 0.093279574536 -0.47235438249 -0.87645893133 
0.11694857251 -0.48551864664 -0.86636867161 0.25529579726 -0.56855024171 -0.7820324025 0.14654140459 0.27653696959 0.94976466621 
0.028149086653 0.36900736106 0.92900010571 0.00098850212427 0.38568609956 0.92262953316 0.00098850212427 0.38568609956 0.92262953316 

plain_curvature_peaks 1 120 unsigned_char
0 0 0 0 0 1 0 0 0 
0 0 0 0 0 0 0 0 0 
0 0 0 0 0 0 0 0 0 
0 0 0 0 0 0 0 0 0 
0 1 0 0 0 0 0 0 0 
0 0 0 0 0 0 0 0 0 
0 0 0 0 0 0 0 0 0 
0 0 0 0 0 0 0 0 0 
0 0 0 0 0 0 0 0 1 
0 0 0 0 0 0 0 0 0 
0 0 0 0 0 0 0 0 0 
0 0 0 0 0 0 0 0 0 
0 0 0 0 0 0 0 0 0 
1 0 0 
weighted_curvature_peaks 1 120 unsigned_char
0 0 0 1 0 0 0 0 0 
0 0 0 0 0 0 0 0 0 
0 0 0 0 0 0 0 0 0 
0 0 0 0 0 0 0 0 0 
0 0 0 0 0 1 0 0 0 
0 0 0 0 0 0 0 0 0 
0 0 0 0 0 0 0 0 0 
0 0 0 0 0 0 0 0 0 
0 0 0 0 0 0 0 0 0 
0 0 0 0 1 0 0 0 0 
0 0 0 0 0 0 0 0 0 
0 0 0 0 0 0 0 0 0 
0 0 0 0 0 0 0 0 0 
0 1 0 
plain_torsion_tp 1 120 unsigned_char
0 0 0 0 0 1 0 0 0 
0 0 0 0 0 0 0 0 0 
0 0 0 0 0 0 0 0 0 
0 0 0 0 0 0 0 0 0 
0 1 0 0 0 0 0 0 0 
0 0 0 0 0 0 0 0 0 
0 0 0 0 0 0 0 0 0 
0 0 0 0 0 0 0 0 0 
0 0 0 0 0 0 0 0 1 
0 0 0 0 0 0 0 0 0 
0 0 0 0 0 0 0 0 0 
0 0 0 0 0 0 0 0 0 
0 0 0 0 0 0 0 0 0 
1 0 0 
plain_torsion_tn 1 120 unsigned_char
0 0 0 0 2 0 0 0 0 
0 0 0 0 0 0 0 0 0 
2 0 0 0 0 0 0 0 0 
0 0 0 0 0 0 0 0 0 
0 0 0 0 0 0 0 0 0 
0 0 0 0 0 0 0 0 0 
0 0 2 0 0 0 0 0 0 
0 0 0 0 0 0 0 0 0 
0 0 0 0 0 0 0 0 0 
0 0 0 0 0 0 0 0 0 
0 0 0 0 0 0 0 0 2 
0 0 0 0 0 0 0 0 0 
0 0 0 0 0 0 0 0 0 
0 0 0 
plain_torsion_tz 1 120 unsigned_char
0 0 0 0 3 0 0 0 0 
0 3 0 0 0 0 0 0 0 
0 0 0 0 0 0 0 3 0 
0 0 0 0 0 0 0 0 0 
0 0 0 0 0 0 0 0 0 
0 0 0 0 0 0 0 0 0 
0 0 0 0 0 0 0 0 0 
3 0 0 0 0 0 0 0 0 
0 0 0 0 0 0 0 0 0 
0 0 0 0 0 0 0 0 0 
0 0 3 0 0 0 0 0 0 
0 0 0 0 0 3 0 0 0 
0 0 0 0 0 0 0 0 0 
0 0 0 
weighted_torsion_tp 1 120 unsigned_char
0 0 0 1 0 0 0 0 0 
0 0 0 0 0 0 0 0 0 
0 0 0 0 0 0 0 0 0 
0 0 0 0 0 0 0 0 0 
0 0 0 0 0 1 0 0 0 
0 0 0 0 0 0 0 0 0 
0 0 0 0 0 0 0 0 0 
0 0 0 0 0 0 0 0 0 
0 0 0 0 0 0 0 0 0 
0 0 0 0 1 0 0 0 0 
0 0 0 0 0 0 0 0 0 
0 0 0 0 0 0 0 0 0 
0 0 0 0 0 0 0 0 0 
0 1 0 
weighted_torsion_tn 1 120 unsigned_char
0 2 0 0 0 0 0 0 0 
0 0 0 0 0 0 0 0 0 
0 0 0 2 0 0 0 0 0 
0 0 0 0 0 0 0 0 0 
0 0 0 0 0 0 0 0 0 
0 0 0 0 0 0 0 0 0 
0 0 0 0 0 0 0 2 0 
0 0 0 0 0 0 0 0 0 
0 0 0 0 0 0 0 0 0 
0 0 0 0 0 0 0 0 0 
0 0 0 0 0 0 0 0 0 
0 0 0 0 2 0 0 0 0 
0 0 0 0 0 0 0 0 0 
0 0 0 
weighted_torsion_tz 1 120 unsigned_char
0 3 0 0 0 0 0 0 0 
0 0 3 0 0 0 0 0 0 
0 0 0 0 0 0 0 0 0 
3 0 0 0 0 0 0 0 0 
0 0 0 0 0 0 0 0 0 
0 0 0 0 0 0 0 0 0 
0 0 0 0 0 0 0 0 0 
0 0 0 0 0 3 0 0 0 
0 0 0 0 0 0 0 0 0 
0 0 0 0 0 0 0 0 0 
0 0 0 0 0 0 0 3 0 
0 0 0 0 0 0 0 0 0 
3 0 0 0 0 0 0 0 0 
0 0 0 
plain_torsion_tp_raw 1 120 unsigned_char
0 0 0 0 0 1 0 0 0 
0 0 0 0 0 0 0 0 0 
0 0 1 0 0 0 0 0 0 
0 0 0 0 0 0 0 0 0 
0 0 0 0 0 0 0 0 0 
0 0 0 0 0 0 0 0 0 
0 0 0 0 0 1 0 0 0 
0 0 0 0 0 0 0 0 0 
0 0 0 0 0 0 0 0 0 
0 0 0 1 0 0 0 0 0 
0 0 0 0 0 0 0 0 0 
0 0 0 0 0 0 0 0 1 
0 0 0 0 0 0 0 0 0 
0 1 0 
plain_torsion_tn_raw 1 120 unsigned_char
0 0 0 0 2 0 0 0 0 
0 0 0 2 0 0 0 0 0 
0 0 0 0 0 0 0 0 0 
0 0 0 0 0 0 0 0 0 
0 0 0 0 0 0 0 0 0 
0 0 0 0 2 0 0 0 0 
0 0 0 0 0 0 0 0 0 
0 0 0 0 0 2 0 0 0 
0 0 0 0 0 0 0 0 0 
0 0 0 0 0 0 0 0 0 
0 0 0 0 0 0 0 0 0 
0 2 0 0 0 0 0 0 0 
0 0 0 0 0 0 2 0 0 
0 0 0 
plain_torsion_tz_raw 1 120 unsigned_char
0 0 0 0 3 3 3 0 0 
0 0 0 0 0 0 0 0 3 
0 0 0 0 0 0 0 0 0 
0 0 0 0 0 0 0 0 0 
0 0 0 0 0 0 0 0 0 
0 0 0 0 0 0 0 0 0 
0 0 0 0 0 0 0 0 0 
0 0 0 0 0 0 0 0 0 
0 0 0 0 0 0 0 0 0 
0 0 0 0 0 0 0 0 0 
0 0 0 0 0 0 0 0 0 
0 0 0 0 0 0 0 0 0 
0 0 0 0 0 0 0 0 0 
0 0 0 
weighted_torsion_tp_raw 1 120 unsigned_char
0 0 0 0 0 1 0 0 0 
0 0 0 0 0 0 0 0 0 
0 0 0 0 0 1 0 0 0 
0 0 0 0 0 0 0 0 0 
0 0 0 0 0 0 0 0 0 
0 0 0 0 0 0 0 0 0 
0 0 0 0 0 0 0 0 0 
0 0 1 0 0 0 0 0 0 
0 0 0 0 0 0 0 0 0 
0 0 0 0 0 0 0 0 0 
1 0 0 0 0 0 0 0 0 
0 0 0 0 0 0 0 0 0 
0 0 0 0 1 0 0 0 0 
0 1 0 
weighted_torsion_tn_raw 1 120 unsigned_char
0 0 2 0 0 0 0 0 0 
0 0 0 0 0 2 0 0 0 
0 0 0 0 0 0 0 0 0 
0 0 0 0 0 0 0 0 0 
0 0 0 0 0 0 0 0 0 
0 0 0 0 0 0 0 0 2 
0 0 0 0 0 0 0 0 0 
0 0 0 0 0 0 0 0 0 
0 2 0 0 0 0 0 0 0 
0 0 0 0 0 0 0 0 0 
0 0 0 0 0 0 0 0 0 
0 0 0 0 0 2 0 0 0 
0 0 0 0 0 0 0 0 2 
0 0 0 
weighted_torsion_tz_raw 1 120 unsigned_char
0 3 0 3 0 0 3 0 0 
0 0 0 0 0 0 0 0 0 
0 0 3 0 0 0 0 0 0 
0 0 0 0 0 0 0 0 0 
0 0 0 0 0 0 0 0 0 
0 0 0 0 0 0 0 0 0 
0 0 0 0 0 0 0 0 0 
0 0 0 0 0 0 0 0 0 
0 0 0 0 0 0 0 0 0 
0 0 0 0 0 0 0 0 0 
0 0 0 0 0 0 0 0 0 
0 0 0 0 0 0 0 0 0 
0 0 0 0 0 0 0 0 0 
0 0 0 
