# vtk DataFile Version 5.1
vtk output
ASCII
DATASET POLYDATA
POINTS 120 float
-2.08466 15.6584 -8.40161 -2.68669 15.3886 -8.60777 -3.192 15.038 -8.65037 
-3.61848 14.6267 -8.56396 -3.98407 14.1747 -8.38322 -4.30657 13.7019 -8.14312 
-4.60325 13.2272 -7.87874 -4.89007 12.7672 -7.6244 -5.18048 12.3353 -7.41203 
-5.48401 11.9392 -7.26855 -5.80513 11.5805 -7.21298 -6.14232 11.2537 -7.25364 
-6.48773 10.9473 -7.3866 -6.8277 10.646 -7.59664 -7.14392 10.3339 -7.86052 
-7.41531 9.99794 -8.15214 -7.62066 9.63028 -8.44829 -7.74145 9.22923 -8.73308 
-7.76498 8.79851 -9.00035 -7.68674 8.34504 -9.25336 -7.51197 7.87639 -9.50237 
-7.25567 7.39876 -9.76089 -6.94101 6.91625 -10.0413 -6.59639 6.4314 -10.3507 
-6.252 5.94677 -10.6877 -5.93608 5.46706 -11.0406 -5.6716 5.00075 -11.3875 
-5.47366 4.56141 -11.6981 -5.34798 4.16664 -11.9386 -5.29045 3.83692 -12.0768 
-5.28823 3.59213 -12.0885 -5.32226 3.44824 -11.9625 -5.37058 3.41487 -11.7014 
-5.412 3.49316 -11.322 -5.42919 3.67434 -10.8512 -5.41092 3.94168 -10.3206 
-5.35316 4.27184 -9.76034 -5.25872 4.63765 -9.195 -5.13598 5.01025 -8.64088 
-4.99712 5.36197 -8.10589 -4.85635 5.6681 -7.59108 -4.72818 5.90893 -7.09326 
-4.6259 6.07061 -6.60774 -4.55987 6.14541 -6.1309 -4.53567 6.13081 -5.66176 
-4.55207 6.02809 -5.20294 -4.60034 5.84094 -4.76035 -4.66519 5.57449 -4.34204 
-4.72758 5.23512 -3.95643 -4.76866 4.83087 -3.61043 -4.77363 4.37168 -3.3077 
-4.73458 3.86863 -3.04771 -4.65153 3.33332 -2.82556 -4.5317 2.77696 -2.63289 
-4.38754 2.20916 -2.45934 -4.23373 1.63719 -2.29462 -4.08434 1.0655 -2.13026 
-3.95052 0.496211 -1.96109 -3.8394 -0.0713768 -1.78568 -3.75393 -0.639489 -1.60591 
-3.69351 -1.21148 -1.42592 -3.65498 -1.79026 -1.25041 -3.63355 -2.37807 -1.08293 
-3.6233 -2.9749 -0.924298 -3.61746 -3.57774 -0.771824 -3.60829 -4.18068 -0.619096 
-3.58702 -4.77447 -0.456714 -3.54386 -5.3475 -0.273941 -3.46854 -5.88725 -0.0606381 
-3.35109 -6.38115 0.190482 -3.18308 -6.81918 0.482174 -2.9588 -7.19445 0.811784 
-2.67619 -7.5042 1.17176 -2.33713 -7.74972 1.55149 -1.94751 -7.93544 1.93956 
-1.51661 -8.06821 2.32653 -1.05617 -8.15645 2.70695 -0.579097 -8.20904 3.07969 
-0.0977433 -8.23454 3.4475 0.377919 -8.24071 3.81489 0.841732 -8.23324 4.18652 
1.29205 -8.21618 4.56492 1.73134 -8.19143 4.95001 2.16492 -8.1594 5.33896 
2.59905 -8.11964 5.72814 3.03922 -8.07123 6.11372 3.48893 -8.01318 6.49277 
3.94941 -7.94455 6.86364 4.4199 -7.86445 7.22584 4.89826 -7.77222 7.57953 
5.38164 -7.66643 7.92535 5.86683 -7.54562 8.26423 6.35072 -7.40833 8.59768 
6.83053 -7.2531 8.9279 7.30443 -7.07925 9.25691 7.77193 -6.88739 9.58648 
8.23422 -6.68043 9.91765 8.69414 -6.46332 10.2503 9.15556 -6.24355 10.5832 
9.62252 -6.03097 10.9148 10.0977 -5.8367 11.244 10.5817 -5.67262 11.5703 
11.0715 -5.55006 11.8946 11.5614 -5.47931 12.2191 12.0424 -5.46877 12.5466 
12.5047 -5.52496 12.8795 12.939 -5.65218 13.2189 13.3381 -5.8521 13.5639 
13.6979 -6.12377 13.9119 14.0171 -6.46244 14.2591 14.2964 -6.85948 14.6029 
14.5361 -7.30252 14.9422 14.7348 -7.77547 15.2791 14.8884 -8.26012 15.6185 
14.989 -8.73652 15.9679 15.0265 -9.1841 16.3362 14.9884 -9.5825 16.7332 
14.8614 -9.9114 17.1692 14.6317 -10.1507 17.6541 14.2857 -10.2806 18.1982 

LINES 2 120
OFFSETS vtktypeint64
0 120 
CONNECTIVITY vtktypeint64
0 1 2 3 4 5 6 7 8 
9 10 11 12 13 14 15 16 17 
18 19 20 21 22 23 24 25 26 
27 28 29 30 31 32 33 34 35 
36 37 38 39 40 41 42 43 44 
45 46 47 48 49 50 51 52 53 
54 55 56 57 58 59 60 61 62 
63 64 65 66 67 68 69 70 71 
72 73 74 75 76 77 78 79 80 
81 82 83 84 85 86 87 88 89 
90 91 92 93 94 95 96 97 98 
99 100 101 102 103 104 105 106 107 
108 109 110 111 112 113 114 115 116 
117 118 119 
CELL_DATA 1
FIELD FieldData 2
Length 1 1 double
67.978894654 
Tortuosity 1 1 double
0.67435141669 
POINT_DATA 120
FIELD FieldData 19
Curvature 1 120 double
0 0.46103605831 0.44657804984 0.32959393653 0.20010306496 0.092382711998 0.0043397492213 0.10374953688 0.22698098871 
0.36343610064 0.45067568135 0.42112421712 0.31281728191 0.22327064997 0.2149369154 0.27395406196 0.35268004199 0.40568826333 
0.393228516 0.31515956745 0.21285869063 0.12474703645 0.068021420807 0.05325133706 0.068750779752 0.092747271778 0.12860145256 
0.20699120344 0.4333516995 1.282196356 4.0685340101 3.4189817473 1.0439028985 0.40247785517 0.21634827869 0.14062600808 
0.09845037194 0.067556818354 0.050063050004 0.074444299291 0.14170628502 0.23921337454 0.34833874103 0.43025016433 0.44604345587 
0.40342749807 0.34516815299 0.30339467981 0.28120465744 0.2635820113 0.2359242429 0.19299369354 0.1403190042 0.085583087451 
0.035111449156 0.01112981735 0.042420083136 0.06306033888 0.071236042577 0.069882890611 0.063315952436 0.054457324416 0.041705501231 
0.022665079962 0.0086308293536 0.044160686478 0.091707754963 0.14907458253 0.21307231509 0.2713602176 0.30729234402 0.30855678408 
0.27976285689 0.23657770324 0.1911558263 0.14796838272 0.1088459463 0.075556998717 0.053424336679 0.048448433878 0.048241184177 
0.042317361121 0.029073214047 0.022563756447 0.031469281957 0.041957750537 0.047312875071 0.04789594905 0.045827008284 0.045088055301 
0.045636092847 0.047699331886 0.051351174986 0.053904257361 0.052572851812 0.0436734249 0.027765893474 0.0056075155244 0.024499557449 
0.054252650978 0.084839134898 0.11427506647 0.14425856895 0.1750034656 0.20736997839 0.23679493289 0.25507811252 0.25532880757 
0.23567012839 0.20158552096 0.16522427271 0.13527767015 0.12472366076 0.1451402948 0.20057529364 0.28639225845 0.38153697538 
0.43863774925 0.40712017696 0 
Torsion 1 120 double
0 0 0.0077537523785 0.011566093435 0.012467373391 -0.027600685546 -30.337636399 0.033600731098 0.096479987196 
0.13200099545 0.1863566089 0.30967133765 0.59967500701 1.0559027032 0.92370203005 0.38779023622 0.078496922019 -0.07285980923 
-0.16266105686 -0.24591137762 -0.36880302867 -0.62581360803 -1.2293887757 -1.3787930128 -0.78970203164 -0.62184534968 -0.69175002108 
-0.85446084465 -1.0216336057 -0.83643893286 -0.3710310537 -0.39490116006 -0.69629911125 -0.55072410713 -0.34658535023 -0.27293587698 
-0.33102170087 -0.66784028782 -1.5107280697 -0.98572124203 -0.42089984299 -0.22021064281 -0.11850109093 -0.030003479882 0.078965920427 
0.22408088863 0.37598022601 0.44527576602 0.39473490634 0.29376624649 0.20402160163 0.14192521859 0.095060894574 0.032095955128 
-0.30098689991 -3.2219598911 -0.017609231451 0.14791541525 0.24763564927 0.33944093978 0.39731809566 0.38956927428 0.36288872389 
0.64222650173 4.3655746678 0.23894843981 0.052596378633 -0.010354769246 -0.048897234161 -0.077639442003 -0.10205721075 -0.1233075611 
-0.13588729469 -0.12785721778 -0.085568892377 0.00012205356156 0.15718036855 0.44551935407 0.81445836399 0.68450777714 0.27929238247 
-0.11104195009 -0.78622189031 -1.4798816006 -0.59741396271 -0.16282449949 0.015095738103 0.11771038495 0.22202447894 0.3030803867 
0.32926386829 0.33364306209 0.27175606239 0.18686974393 0.11845514454 0.04138142755 -0.11797432077 -4.7283405726 -0.40877536122 
-0.18246893748 -0.17787499492 -0.19580368309 -0.20286530128 -0.18425313808 -0.13788615944 -0.083570776802 -0.031000523718 0.0036814086203 
0.0064479594138 -0.036097747052 -0.15548530981 -0.37326585616 -0.58124285404 -0.52201355765 -0.31788310305 -0.17739592327 -0.10277884411 
-0.066084704572 0 0 
FrenetTangent 3 120 double
-0.85611062628 -0.4796738759 -0.19232152338 -0.85611062628 -0.4796738759 -0.19232152338 -0.77361317125 -0.63261319235 0.036375955327 
-0.65914666819 -0.71840071358 0.22231977991 -0.56075566872 -0.75361305935 0.34295836012 -0.49964465273 -0.76461464054 0.40708681196 
-0.4791113328 -0.76749101709 0.42592237493 -0.49743827228 -0.768628337 0.40220100053 -0.55028270115 -0.76713246535 0.32969187041 
-0.62483089791 -0.75494553261 0.19910698583 -0.69258145249 -0.72116911927 0.015685441638 -0.72071110169 -0.66855710649 -0.18332185701 
-0.70070113588 -0.6213269567 -0.35067182813 -0.64610048218 -0.60399724784 -0.46662778693 -0.56705069477 -0.62537485205 -0.53605951533 
-0.46134894631 -0.68089971972 -0.56879936833 -0.32061428983 -0.75568309091 -0.57109503874 -0.14307612471 -0.82461458547 -0.54730248306 
0.053255491495 -0.86064282874 -0.50641660119 0.23427444036 -0.85383600515 -0.46484358972 0.37254756962 -0.81780806349 -0.43863228296 
0.46034627511 -0.77412248156 -0.43452927466 0.50294255785 -0.7379632538 -0.44995446385 0.5089864665 -0.71617712786 -0.47751764203 
0.48653020057 -0.71054658549 -0.50834231948 0.44236317528 -0.72103018449 -0.53332006732 0.38187834176 -0.74790994579 -0.54295455158 
0.30797325586 -0.79377338185 -0.52447716055 0.21869300244 -0.86479421482 -0.45200037244 0.10011303476 -0.96273366788 -0.25123945748 
-0.07828021421 -0.95642931397 0.28127419976 -0.18988558045 -0.4087351552 0.89268081599 -0.13842236307 0.06928914483 0.98794648833 
-0.065784403815 0.29126169104 0.95437887631 0.00098431079413 0.4087690627 0.91263732364 0.061011293842 0.47950242803 0.87541706834 
0.11425705177 0.52247225943 0.84496630953 0.15986054458 0.54353343305 0.82402427965 0.1961202038 0.54301369485 0.81650045491 
0.22017720542 0.51797083578 0.82657619824 0.22755129203 0.4627809575 0.85676962766 0.21195628201 0.3702177094 0.90444092243 
0.16743556224 0.23526063661 0.95740156954 0.094765950581 0.063221202261 0.99349005742 0.0083404562544 -0.12542749335 0.9920677299 
-0.06814289504 -0.30541761316 0.94977714619 -0.11546948438 -0.46302520459 0.87879147589 -0.12539991174 -0.59708411769 0.79231648887 
-0.098700800727 -0.70936140121 0.69790010346 -0.042607706173 -0.79875884658 0.60014072382 0.030556407533 -0.86282012293 0.50458670357 
0.10605915495 -0.90187866809 0.41876762494 0.17116177416 -0.92099556949 0.34995829473 0.21791769475 -0.9279685321 0.30230164033 
0.24310738759 -0.92990755339 0.27599047129 0.24688849271 -0.93125715874 0.26796674507 0.23176042297 -0.93369920353 0.27293388149 
0.20193595974 -0.93729219171 0.28408663382 0.16299881033 -0.9416501208 0.29449352765 0.12113405442 -0.94662506513 0.29870977038 
0.081874652934 -0.95223999002 0.29416924144 0.049251381225 -0.95822972969 0.28172697169 0.025779116579 -0.96381478617 0.26532337836 
0.012978912829 -0.96789973603 0.25100129247 0.012065030773 -0.96935728526 0.24535869364 0.024590142074 -0.96674629249 0.2545524128 
0.052875046252 -0.95758363901 0.2832627822 0.099809455185 -0.93739755561 0.3336523571 0.16770906098 -0.89923990401 0.40403126847 
0.2558761257 -0.83534050588 0.4865528209 0.35789884636 -0.74202076838 0.56684530082 0.46238993148 -0.62488916055 0.62905412191 
0.5578349668 -0.49824925474 0.66375283801 0.63751280272 -0.37728371128 0.67173985111 0.69964958736 -0.27157549192 0.66086095897 
0.74479617819 -0.18467625248 0.64122798966 0.77429875983 -0.11631050326 0.62203962684 0.78967084598 -0.064342941045 0.61014747476 
0.79273431503 -0.026230817032 0.60900266831 0.78596611575 0.0010946429224 0.61826860397 0.77292151853 0.020738654052 0.63416262458 
0.75836355163 0.035641873147 0.65085665122 0.747309168 0.048609682912 0.66269608883 0.74308397264 0.061475356387 0.66636850928 
0.7463021551 0.075262046138 0.66133858024 0.75536323667 0.090371153808 0.64904501789 0.76736899157 0.10680718739 0.63224762198 
0.7795491002 0.12453714315 0.61383523877 0.79002051004 0.14348002263 0.59605459215 0.79772837819 0.16425067759 0.58021646783 
0.80206386277 0.18764892239 0.56699333502 0.80263216624 0.21376358136 0.55685432296 0.79900240239 0.24252342128 0.55025226134 
0.79134780666 0.27306083052 0.5469976524 0.78079186678 0.30332355244 0.54622237532 0.76945766075 0.33005022375 0.5468105322 
0.76038591201 0.34965398758 0.54731650238 0.75664740361 0.35878394968 0.54658831314 0.760454882 0.35414716721 0.54432357692 
0.77190231842 0.33331941359 0.54135476293 0.78894268997 0.29475373697 0.53915643971 0.80764617981 0.23773880609 0.53961829873 
0.82267355387 0.1623252291 0.54484744998 0.82816713346 0.069343322536 0.55617506477 0.81856001308 -0.039605940748 0.57305398912 
0.78957483671 -0.16151321996 0.59201778437 0.73951893977 -0.29031873397 0.60731109855 0.6711735241 -0.41706599344 0.61284749952 
0.59173615847 -0.53183316961 0.60580673359 0.51002489688 -0.62697590282 0.58887674589 0.43220824743 -0.69966913471 0.56891047871 
0.35935065918 -0.75077215663 0.55426372114 0.28777727254 -0.78228241861 0.55246579888 0.21019404619 -0.79465772309 0.56950642322 
0.11728290983 -0.78431109371 0.60918045549 -0.00060021484723 -0.74154705277 0.67090059492 -0.14771191502 -0.65046055958 0.74503842223 
-0.31306136255 -0.49871812876 0.80825293771 -0.46590916291 -0.2988093473 0.8328515029 -0.46590916291 -0.2988093473 0.8328515029 

FrenetNormal 3 120 double
0.16699605195 -0.6089525886 0.77542830969 0.16699605195 -0.6089525886 0.77542830969 0.40130294357 -0.44470354562 0.80074634186 
0.56730512274 -0.28095735316 0.77409809677 0.6607115792 -0.157641343 0.7339001404 0.70661374754 -0.087932102775 0.70211463244 
0.068025467691 -0.51624817782 -0.85373318703 -0.62493558371 -0.0040561628374 -0.78066578236 -0.55773461392 0.043855965551 -0.82885991261 
-0.43302661306 0.12288675084 -0.89296517225 -0.24896549605 0.2185746153 -0.94352600352 -0.016696975031 0.28110789804 -0.95953090658 
0.26068143861 0.23456692995 -0.93649535126 0.59534578366 -0.016239384544 -0.80330547133 0.81987347161 -0.36601831077 -0.44027046998 
0.86333972645 -0.49227346367 -0.11095653965 0.89739631649 -0.43528257505 0.072172924342 0.94396431793 -0.27988129078 0.17492235294 
0.97189131837 -0.071793261902 0.22421639729 0.96545632971 0.1482382887 0.21428832257 0.9264374505 0.35528019885 0.12445734455 
0.8321226689 0.54680835718 -0.09258771201 0.51175980362 0.67378056373 -0.53303063264 -0.2785364737 0.38787211041 -0.87861974641 
-0.75705710912 -0.052465127193 -0.65123877645 -0.89416211712 -0.30870074295 -0.3243115163 -0.88563660297 -0.46409006765 0.01637731919 
-0.76173153309 -0.53601321224 0.3639435503 -0.56968815177 -0.48922847481 0.66038693897 -0.39481070604 -0.27021592448 0.87812747398 
-0.24459413998 0.29194200493 0.92463158741 0.0033764050273 0.90894578233 0.41690066524 0.2268406645 0.97324861065 -0.036475399777 
0.40544010913 0.88174057214 -0.2411470119 0.54662166311 0.76400424165 -0.34278605012 0.65969192878 0.63881457265 -0.39588192794 
0.76908542002 0.4918672157 -0.40813509875 0.91322003957 0.23551222797 -0.33251037549 0.93393930359 -0.35718712363 0.013218771812 
0.35651162375 -0.83147875424 0.4260780954 -0.035687987234 -0.87529707379 0.48226693871 -0.22904696811 -0.88087249746 0.41424766699 
-0.3461034425 -0.89527605128 0.28052308122 -0.41220380116 -0.90591686758 0.096967290057 -0.41628077128 -0.90248412154 -0.11060167192 
-0.34139635098 -0.88738017885 -0.30984665517 -0.17616538749 -0.86113844145 -0.47687140919 0.059394187755 -0.80170630183 -0.59475989783 
0.29661588308 -0.69041660193 -0.65980598185 0.47809288993 -0.54374676914 -0.68975839223 0.59301606707 -0.39072595821 -0.70403492085 
0.65845414289 -0.25187862757 -0.70922161465 0.69281467943 -0.14003636564 -0.70738789661 0.7048178446 -0.064620065093 -0.70643899462 
0.66143757896 -0.049194977154 -0.7483850502 -0.96694816006 -0.25492490116 0.0049548484526 -0.91694029816 -0.11599720325 0.38179200942 
-0.94049311588 -0.10463502404 0.32330204255 -0.97479749058 -0.1076218161 0.19541595909 -0.99193706567 -0.1267298139 0.00064189448716 
-0.95900722672 -0.15561855325 -0.23682906279 -0.86044353069 -0.18393470224 -0.47518938941 -0.72010520272 -0.20199766122 -0.6638112999 
-0.51319270914 -0.22188735265 -0.82909543842 0.99770390179 0.028024119336 0.061656898071 0.72403544984 0.19279782522 0.66227008536 
0.66322573552 0.24573728666 0.70692631136 0.64641694706 0.31601154974 0.69446514022 0.64375264109 0.41028645092 0.64594702978 
0.64126020204 0.52330127385 0.56119616007 0.62876937339 0.64031081948 0.44119284847 0.60376016929 0.74146300779 0.2927563254 
0.56899373455 0.81180960876 0.13119180296 0.52844436143 0.84860271386 -0.024899616455 0.48151271495 0.86256861129 -0.15530903438 
0.42279046453 0.87404844726 -0.23934814589 0.34045509326 0.90515112925 -0.25454226112 0.19253147416 0.97023847323 -0.14686366642 
-0.077783446202 0.98655347596 0.14374273746 -0.38111254834 0.78827557893 0.48308885018 -0.52789745021 0.57551632268 0.6245840571 
-0.56345500507 0.5378668558 0.62707073181 -0.47270117775 0.73980665153 0.47878984419 -0.029855859216 0.99782554063 -0.058760685273 
0.36792540972 0.78134578199 -0.50411274716 0.45590459542 0.63898514176 -0.61955547651 0.45261500823 0.60820696775 -0.65209197105 
0.4076713431 0.64313854253 -0.64821052994 0.33827392717 0.70882631753 -0.61897980724 0.22528341381 0.81134261141 -0.53941686141 
0.092578833517 0.89881991572 -0.42842959595 -0.049601324959 0.9542627867 -0.29482578328 -0.18921345756 0.96997954098 -0.15276765876 
-0.29145936445 0.95499638038 -0.055075878017 -0.36680818354 0.93026436694 0.0077436481527 -0.41591461845 0.90865855667 0.036805672643 
-0.42123351125 0.90693352566 0.0058231460036 -0.10178924031 0.89043581671 -0.44357976383 0.52929772687 -0.82364965916 -0.20358083236 
0.44794821026 -0.8894063863 -0.091097096184 0.36824459045 -0.92921693632 -0.030851367229 0.26200335727 -0.9645096686 0.032792376602 
0.13372579335 -0.98673312013 0.092060642162 -0.011517818912 -0.99000191379 0.14058289565 -0.1579053037 -0.97470100862 0.15818931338 
-0.29646778176 -0.94508367846 0.13756342204 -0.42120474883 -0.90333519165 0.081068434617 -0.52486354305 -0.85117480005 -0.0044408269867 
-0.60905168965 -0.78727072379 -0.096233293566 -0.67975058776 -0.71329856037 -0.17071702379 -0.7561039529 -0.62497508492 -0.19419823797 
-0.85864770193 -0.49862843145 -0.11871735897 -0.95277057525 -0.29229649197 0.082407473741 -0.94814982481 -0.023651287522 0.31694246531 
-0.87729524838 0.20564251861 0.43366369656 -0.81206375385 0.39187797999 0.43241659135 -0.74882189805 0.56565974135 0.34539082502 
-0.6622952156 0.7246008206 0.19057465251 -0.53789178509 0.84301246945 0.0015504497823 -0.53789178509 0.84301246945 0.0015504497823 

FrenetBinormal 3 120 double
-0.4890673923 0.63173548073 0.6014344255 -0.4890673923 0.63173548073 0.6014344255 -0.49038618328 0.63406569484 0.59789805642 
-0.49365024818 0.63636733137 0.59274450823 -0.49901231359 0.63813522372 0.58631915126 -0.50105112791 0.63846095948 0.58422202153 
0.87511420199 -0.38005967634 0.29954928792 0.6016732348 -0.63968275504 -0.47832550781 0.62138639288 -0.63998783964 -0.45198950857 
0.64967245701 -0.64417085409 -0.4036949459 0.67701337759 -0.65737374374 -0.33092695206 0.69303442838 -0.68848365632 -0.21376046421 
0.66412582071 -0.74761699302 -0.0023929093323 0.47761654578 -0.79682093785 0.37007948903 0.079126481752 -0.68915665171 0.72027918843 
-0.20445455844 -0.54225677372 0.81495762153 -0.30312757761 -0.48935891325 0.81770503589 -0.29742324896 -0.49160680274 0.81845107519 
-0.2293275341 -0.50412265261 0.83262790803 -0.11405946704 -0.49898846287 0.85906981783 0.054055144784 -0.45273165517 0.89000679196 
0.30927846821 -0.3189592514 0.89588605584 0.69652759235 0.03781518173 0.71653285 0.81446314204 0.58021164026 -0.0020597968072 
0.4360652445 0.70169149936 -0.56345021277 0.069202091421 0.62033807263 -0.78127571714 -0.26422857448 0.47460628113 -0.83960236918 
-0.5700153903 0.28742591144 -0.76971994924 -0.79223025719 0.11307725432 -0.59965386194 -0.91329178616 0.01128002127 -0.40714969539 
-0.96646050863 0.0035823377395 -0.25679028819 -0.98180042077 0.082177476804 -0.17121564204 -0.96404489643 0.21905742687 -0.15043696819 
-0.91175146291 0.37107976335 -0.17609394966 -0.83737911877 0.49920473967 -0.22269000726 -0.74905552606 0.60165884293 -0.277348978 
-0.62885049323 0.69648358218 -0.34562649916 -0.37479829991 0.80567077497 -0.45871651022 0.29882142305 0.75996939801 -0.57719344349 
0.90797657478 0.20087133825 -0.3677352922 0.97311190367 -0.14031684854 -0.18265925915 0.95005895655 -0.29496184645 -0.10190921561 
0.92313473534 -0.3783295189 -0.068476532793 0.90614978945 -0.4187095755 -0.059790053218 0.90919786419 -0.41205625136 -0.059740183006 
0.93744603972 -0.34536430005 -0.043799804268 0.97756460371 -0.20987673661 0.017866197231 0.99032681101 -0.027523844391 0.13599722568 
0.94988271373 0.14188487675 0.27855252989 0.8772751974 0.25753399011 0.40504872789 0.80461062021 0.32074080041 0.49972701428 
0.74511045984 0.35095872267 0.56713171099 0.70050800641 0.36353401118 0.61411037744 0.67508790853 0.36701314775 0.63996692503 
0.70950625596 0.36448840361 0.60311613839 0.063697157911 -0.26033324617 -0.96341542079 -0.32481932818 -0.33874835226 -0.88302998697 
-0.27330306829 -0.33246783167 -0.90264642788 -0.1523195332 -0.3189241206 -0.93546040275 0.0372478002 -0.2963790484 -0.95434378557 
0.27129629615 -0.26272013109 -0.92594624704 0.50715996682 -0.21900641644 -0.83356160997 0.69338584797 -0.17394827627 -0.69925536324 
0.85817526829 -0.11805127586 -0.49959894432 -0.066643524643 0.24405143361 0.9674696576 -0.68932430125 0.16801965522 0.70469951268 
-0.74654929725 0.15048840566 0.64808748371 -0.75642792334 0.14636435077 0.63749060669 -0.74662990025 0.15176502636 0.6476968186 
-0.72340359522 0.16841026103 0.6695709241 -0.69033143551 0.19851255312 0.69572643719 -0.64936061572 0.2444302459 0.72012821472 
-0.6042071498 0.30448783107 0.73635649034 -0.56064604096 0.37085096094 0.74036854439 -0.52785979222 0.42687485637 0.73426282539 
-0.51626241009 0.44937066393 0.72906730165 -0.53343393218 0.40886831628 0.74045590006 -0.58253891413 0.23344654847 0.77855707725 
-0.60458418874 -0.16132012681 0.78003447066 -0.48683723194 -0.61532139035 0.61997507706 -0.352017909 -0.8175272904 0.45577683266 
-0.32772424509 -0.84227602501 0.42798121088 -0.46699315195 -0.67106126179 0.5758421476 -0.6685318521 0.023769119049 0.74330356632 
-0.55467466697 0.61954369772 0.55542922181 -0.47072006603 0.76389203633 0.44146526055 -0.45418551838 0.78655992086 0.41837663151 
-0.47550738837 0.75555497159 0.45058784772 -0.51131041835 0.69063647072 0.51145177818 -0.55935392918 0.56102128464 0.61022807219 
-0.5900192536 0.39611947822 0.70353865519 -0.59440837333 0.20901594487 0.77652496451 -0.57078317114 0.017946593463 0.82090467859 
-0.53741984311 -0.11584341285 0.8353204271 -0.50578238132 -0.2064050148 0.83760441296 -0.48471634847 -0.25574690064 0.83644700032 
-0.49434359894 -0.23497589025 0.83690545296 -0.64585111068 0.27999666744 0.71026629447 0.37623435352 0.4429232698 -0.81379769495 
0.45111995272 0.31281695692 -0.83584468636 0.49189973933 0.22288140298 -0.84164037846 0.52826308693 0.11489716822 -0.84127091458 
0.55256278915 -0.0028756981559 -0.8334663127 0.5603628636 -0.12283205738 -0.81908836323 0.55229106461 -0.21997571062 -0.80410525846 
0.53728803412 -0.28413081579 -0.79409775715 0.5250698023 -0.31575396154 -0.79031711261 0.52349246578 -0.31868074445 -0.79018872517 
0.52811396317 -0.31202289524 -0.78977044434 0.52708039519 -0.31321938168 -0.78998726315 0.49142938787 -0.34622138171 -0.79914198462 
0.3655013375 -0.43325610922 -0.82383124249 0.097017897075 -0.55008815504 -0.82945195722 -0.23839121767 -0.60659683459 -0.75842594075 
-0.4654006513 -0.58529245923 -0.66395404279 -0.5835684188 -0.54455451272 -0.60241869432 -0.64610135053 -0.50688274526 -0.57063379448 
-0.68070377601 -0.47564049326 -0.55714315082 -0.70256749103 -0.44726161285 -0.55349432718 -0.70256749103 -0.44726161285 -0.55349432718 

plain_curvature_peaks 1 120 unsigned_char
0 0 0 0 0 0 0 0 0 
0 0 0 1 0 0 0 0 0 
0 0 0 0 0 0 0 0 0 
0 0 0 0 0 0 0 0 0 
0 0 0 0 0 0 0 0 0 
0 0 0 0 0 0 0 0 0 
0 0 0 0 1 0 0 0 0 
0 0 0 0 0 0 0 0 0 
0 0 0 0 0 0 0 0 0 
0 0 0 0 0 0 0 0 1 
0 0 0 0 0 0 0 0 0 
0 0 0 0 0 0 0 1 0 
0 0 0 0 0 0 0 0 0 
0 0 0 
weighted_curvature_peaks 1 120 unsigned_char
0 0 0 0 0 0 0 0 0 
0 0 0 0 0 1 0 0 0 
0 0 0 0 0 0 0 0 0 
0 0 0 0 0 0 0 0 0 
0 0 0 0 0 0 0 0 1 
0 0 0 0 0 0 0 0 0 
0 0 0 0 0 0 0 0 0 
0 0 0 0 0 1 0 0 0 
0 0 0 0 0 0 0 0 0 
0 0 0 0 0 0 0 0 0 
0 0 0 0 0 0 0 0 0 
0 0 0 0 0 0 0 0 0 
0 0 0 1 0 0 0 0 0 
0 0 0 
plain_torsion_tp 1 120 unsigned_char
0 0 0 0 0 0 0 0 0 
0 0 0 1 0 0 0 0 0 
0 0 0 0 0 0 0 0 0 
0 0 0 0 0 0 0 0 0 
0 0 0 0 0 0 0 0 0 
0 0 0 0 0 0 0 0 0 
0 0 0 0 1 0 0 0 0 
0 0 0 0 0 0 0 0 0 
0 0 0 0 0 0 0 0 0 
0 0 0 0 0 0 0 0 1 
0 0 0 0 0 0 0 0 0 
0 0 0 0 0 0 0 1 0 
0 0 0 0 0 0 0 0 0 
0 0 0 
plain_torsion_tn 1 120 unsigned_char
0 2 0 0 0 0 0 0 0 
0 0 0 0 0 0 0 0 0 
0 0 0 0 0 0 0 0 0 
0 0 0 0 0 0 0 0 0 
0 0 2 0 0 0 0 0 0 
0 0 0 0 0 0 0 0 0 
0 0 0 0 0 0 0 0 0 
0 0 0 0 0 0 0 0 0 
0 0 2 0 0 0 0 0 0 
0 0 0 0 0 0 0 0 0 
2 0 0 0 0 0 0 0 0 
0 0 0 0 0 0 0 0 0 
0 0 0 0 0 0 0 0 0 
0 0 0 
plain_torsion_tz 1 120 unsigned_char
0 3 0 0 0 0 0 0 0 
0 0 0 0 0 0 0 0 0 
0 0 0 0 0 0 0 0 0 
3 0 0 0 0 0 0 0 0 
0 0 0 0 0 0 0 3 0 
0 0 0 0 0 0 0 0 0 
0 0 0 0 0 0 0 0 0 
0 0 0 0 0 0 0 0 0 
0 0 0 0 0 0 0 0 3 
0 0 0 0 0 0 0 0 0 
3 0 3 0 0 0 0 0 0 
0 0 0 0 0 0 0 0 0 
0 0 0 0 0 0 0 0 0 
0 0 0 
weighted_torsion_tp 1 120 unsigned_char
0 0 0 0 0 0 0 0 0 
0 0 0 0 0 1 0 0 0 
0 0 0 0 0 0 0 0 0 
0 0 0 0 0 0 0 0 0 
0 0 0 0 0 0 0 0 1 
0 0 0 0 0 0 0 0 0 
0 0 0 0 0 0 0 0 0 
0 0 0 0 0 1 0 0 0 
0 0 0 0 0 0 0 0 0 
0 0 0 0 0 0 0 0 0 
0 0 0 0 0 0 0 0 0 
0 0 0 0 0 0 0 0 0 
0 0 0 1 0 0 0 0 0 
0 0 0 
weighted_torsion_tn 1 120 unsigned_char
0 0 0 2 0 0 0 0 0 
0 0 0 0 0 0 0 0 0 
0 0 0 0 0 0 0 0 0 
0 0 0 0 0 0 0 0 0 
0 0 0 0 0 2 0 0 0 
0 0 0 0 2 0 0 0 0 
0 0 0 0 0 0 0 0 0 
0 0 0 0 0 0 0 0 0 
0 0 0 0 0 0 0 0 0 
0 0 0 0 0 0 0 0 0 
2 0 0 0 0 0 0 0 0 
0 0 0 0 0 0 0 0 0 
0 0 0 0 0 0 0 0 0 
0 0 0 
weighted_torsion_tz 1 120 unsigned_char
0 0 0 0 3 0 0 0 0 
0 0 0 0 0 0 0 0 0 
0 0 0 0 0 0 0 0 0 
0 0 0 3 0 0 0 0 0 
0 0 0 0 0 0 0 3 0 
0 0 0 0 0 0 0 0 0 
3 0 0 0 0 0 0 0 0 
0 0 0 0 0 0 0 0 0 
0 0 0 0 0 0 0 0 0 
0 3 0 0 0 0 0 0 0 
0 0 0 0 0 0 0 3 0 
0 0 0 0 0 0 0 0 0 
0 0 0 0 0 0 0 0 0 
0 0 0 
plain_torsion_tp_raw 1 120 unsigned_char
0 0 0 0 0 0 0 0 0 
0 0 0 0 0 0 0 0 0 
0 1 0 0 0 0 0 0 0 
0 0 0 0 0 0 0 0 0 
0 0 0 0 1 0 0 0 0 
0 0 0 0 0 0 0 0 0 
0 0 0 0 0 0 0 0 0 
0 0 0 0 0 0 0 0 0 
0 0 0 0 0 0 1 0 0 
0 0 0 0 0 0 0 0 1 
0 0 0 0 0 0 1 0 0 
0 0 0 0 0 0 0 0 0 
1 0 0 0 0 0 0 0 0 
0 0 0 
plain_torsion_tn_raw 1 120 unsigned_char
0 0 0 0 0 0 0 0 0 
2 0 0 0 0 0 0 0 0 
0 0 0 0 0 0 0 0 0 
0 0 0 0 2 0 0 0 0 
0 0 0 0 0 0 0 0 0 
0 0 0 0 0 0 0 0 0 
0 0 0 0 0 0 0 0 0 
0 0 0 0 0 0 0 2 0 
0 0 0 0 0 0 0 0 0 
0 0 0 2 0 0 0 0 0 
0 2 0 0 0 0 0 0 0 
0 0 0 2 0 0 0 0 0 
0 0 0 0 0 0 0 0 0 
0 0 0 
plain_torsion_tz_raw 1 120 unsigned_char
0 3 0 0 0 0 0 0 0 
0 0 0 0 3 0 0 0 0 
0 0 3 0 0 0 0 0 0 
0 0 0 0 0 0 0 0 0 
0 3 0 0 0 0 0 0 0 
0 0 0 0 0 0 0 0 0 
0 0 0 0 0 0 0 0 0 
0 0 0 0 0 0 0 0 0 
0 0 0 0 0 0 0 0 0 
0 0 0 0 0 0 0 0 0 
0 0 0 0 0 0 0 0 0 
0 0 0 0 0 0 0 0 0 
0 0 0 0 0 0 0 0 0 
0 0 0 
weighted_torsion_tp_raw 1 120 unsigned_char
0 0 0 0 0 0 0 0 0 
0 0 0 0 0 0 0 0 0 
0 0 0 1 0 0 0 0 0 
0 0 0 0 0 0 0 0 0 
0 0 0 0 0 0 1 0 0 
0 0 0 0 0 0 0 1 0 
0 0 0 0 0 0 0 0 0 
0 0 0 0 0 0 0 0 0 
0 0 1 0 0 0 0 0 0 
0 0 0 0 0 0 0 0 0 
0 0 0 0 0 0 0 0 0 
0 0 1 0 0 0 0 0 0 
0 0 0 0 0 1 0 0 0 
0 0 0 
weighted_torsion_tn_raw 1 120 unsigned_char
0 0 0 0 0 0 0 0 0 
0 2 0 0 0 0 0 0 0 
0 0 0 0 0 0 0 0 0 
0 0 0 0 0 0 0 2 0 
0 0 0 0 0 0 0 0 0 
0 0 2 0 0 0 0 0 0 
0 0 0 0 2 0 0 0 0 
0 0 0 0 0 0 0 0 0 
0 0 0 0 0 0 0 0 0 
0 0 0 0 0 0 0 0 0 
0 2 0 0 0 0 0 0 0 
0 0 0 0 0 0 0 0 2 
0 0 0 0 0 0 0 0 0 
0 0 0 
weighted_torsion_tz_raw 1 120 unsigned_char
0 0 0 3 0 0 0 0 0 
0 0 0 0 0 0 0 3 0 
0 0 0 0 3 0 0 0 0 
0 0 0 0 0 0 0 0 0 
0 0 0 0 3 0 0 0 0 
0 0 0 0 0 0 0 0 0 
0 0 0 0 0 0 0 0 0 
0 0 0 0 0 0 0 0 0 
0 0 0 0 0 0 0 0 0 
0 0 0 0 0 0 0 0 0 
0 0 0 0 0 0 0 0 0 
0 0 0 0 0 0 0 0 0 
0 0 0 0 0 0 0 0 0 
0 0 0 
