# vtk DataFile Version 5.1
vtk output
ASCII
DATASET POLYDATA
POINTS 120 float
-2.36366 14.7635 -8.12632 -2.07898 13.9092 -8.21387 -1.96365 13.1614 -8.23329 
-1.99798 12.5128 -8.18672 -2.16181 11.9557 -8.07689 -2.43382 11.4813 -7.90831 
-2.79069 11.0791 -7.68927 -3.2069 10.7367 -7.43402 -3.65538 10.4392 -7.16441 
-4.10901 10.1709 -6.90956 -4.54224 9.91571 -6.70244 -4.93262 9.65851 -6.57418 
-5.26179 9.38592 -6.54718 -5.5162 9.08653 -6.62989 -5.68723 8.751 -6.81516 
-5.77153 8.37246 -7.08248 -5.77141 7.94744 -7.40343 -5.69526 7.47708 -7.74912 
-5.55715 6.96803 -8.09721 -5.37526 6.43286 -8.43648 -5.16908 5.88903 -8.76808 
-4.95578 5.3571 -9.10372 -4.74713 4.85791 -9.46131 -4.54763 4.40957 -9.85939 
-4.35452 4.02457 -10.3115 -4.16001 3.70745 -10.8218 -3.95489 3.45373 -11.3822 
-3.73269 3.25028 -11.9714 -3.49279 3.07731 -12.5564 -3.24169 2.91149 -13.0952 
-2.9921 2.73141 -13.5422 -2.76033 2.52287 -13.854 -2.563 2.28254 -13.9967 
-2.41443 2.0199 -13.9526 -2.3251 1.75476 -13.7236 -2.30122 1.51327 -13.332 
-2.34474 1.32316 -12.8165 -2.45349 1.20914 -12.2264 -2.62108 1.18986 -11.6124 
-2.83708 1.27603 -11.0185 -3.08765 1.47014 -10.4759 -3.35713 1.76575 -9.99938 
-3.63024 2.14852 -9.58704 -3.89427 2.5971 -9.22325 -4.14015 3.08559 -8.88367 
-4.36201 3.58634 -8.54138 -4.55575 4.07298 -8.17292 -4.7173 4.52261 -7.763 
-4.84179 4.91687 -7.30721 -4.92405 5.24126 -6.81208 -4.96042 5.48334 -6.29261 
-4.95107 5.63116 -5.76839 -4.9019 5.67309 -5.25899 -4.82505 5.59967 -4.78009 
-4.7376 5.40696 -4.3408 -4.65869 5.09927 -3.94283 -4.60563 4.69008 -3.58104 
-4.59017 4.20066 -3.24521 -4.61588 3.65639 -2.92256 -4.67748 3.08263 -2.60045 
-4.76209 2.50121 -2.26896 -4.85233 1.92722 -1.92248 -4.93005 1.36802 -1.56037 
-4.9799 0.824234 -1.18625 -4.99185 0.291766 -0.806274 -4.96219 -0.235917 -0.427008 
-4.89279 -0.764426 -0.0534789 -4.7889 -1.2973 0.311931 -4.65668 -1.83442 0.669808 
-4.50098 -2.37272 1.02306 -4.32418 -2.90697 1.37571 -4.1261 -3.43117 1.73165 
-3.90463 -3.94042 2.09337 -3.65687 -4.43122 2.46141 -3.38001 -4.90229 2.83468 
-3.07214 -5.35387 3.2107 -2.73272 -5.7869 3.5868 -2.36275 -6.20191 3.96113 
-1.96468 -6.59757 4.33327 -1.54206 -6.97047 4.70463 -1.09891 -7.31467 5.07761 
-0.639065 -7.62168 5.45524 -0.16573 -7.8821 5.83963 0.318823 -8.08689 6.23192 
0.813175 -8.22883 6.6312 1.31653 -8.30409 7.03494 1.82842 -8.31335 7.43944 
2.34852 -8.26132 7.83987 2.87644 -8.15643 8.23126 3.41159 -8.00924 8.60919 
3.95301 -7.83076 8.97032 4.49933 -7.63134 9.31287 5.0486 -7.41928 9.63736 
5.5984 -7.20079 9.94679 6.14603 -6.97973 10.2465 6.68896 -6.75874 10.5438 
7.22527 -6.53925 10.8468 7.75413 -6.32256 11.1634 8.2761 -6.11039 11.4998 
8.7928 -5.90539 11.8596 9.30583 -5.71192 12.2438 9.8162 -5.53662 12.6514 
10.3227 -5.38851 13.0794 10.8217 -5.27931 13.5238 11.3068 -5.22265 13.9802 
11.7698 -5.2325 14.4426 12.201 -5.32176 14.9046 12.5909 -5.49965 15.3597 
12.9304 -5.77 15.8023 13.2118 -6.13038 16.2284 13.429 -6.57141 16.6368 
13.5781 -7.07789 17.0286 13.6567 -7.62999 17.4076 13.6637 -8.20497 17.7785 
13.5981 -8.77825 18.1475 13.459 -9.32483 18.5208 13.2448 -9.81977 18.9042 
12.9534 -10.2379 19.3037 12.5827 -10.5549 19.7252 12.1304 -10.746 20.1743 

LINES 2 120
OFFSETS vtktypeint64
0 120 
CONNECTIVITY vtktypeint64
0 1 2 3 4 5 6 7 8 
9 10 11 12 13 14 15 16 17 
18 19 20 21 22 23 24 25 26 
27 28 29 30 31 32 33 34 35 
36 37 38 39 40 41 42 43 44 
45 46 47 48 49 50 51 52 53 
54 55 56 57 58 59 60 61 62 
63 64 65 66 67 68 69 70 71 
72 73 74 75 76 77 78 79 80 
81 82 83 84 85 86 87 88 89 
90 91 92 93 94 95 96 97 98 
99 100 101 102 103 104 105 106 107 
108 109 110 111 112 113 114 115 116 
117 118 119 
CELL_DATA 1
FIELD FieldData 2
Length 1 1 double
73.877148173 
Tortuosity 1 1 double
0.81229507715 
POINT_DATA 120
FIELD FieldData 19
Curvature 1 120 double
0 0.22144989523 0.32675336403 0.42155650706 0.44199964935 0.3716052923 0.26218414605 0.15902324272 0.081348688562 
0.10581822165 0.25719526056 0.51200900649 0.79203646487 0.82843807358 0.59626855215 0.36707044152 0.2329575647 0.15857766221 
0.10560556472 0.056395034451 0.030186349552 0.084776240473 0.1553140186 0.21171670457 0.22714506237 0.19538051648 0.13761071637 
0.080615006068 0.071443556554 0.1662358312 0.39925929947 0.98680806602 1.9986559425 1.8194302798 0.9014927327 0.47635230089 
0.32874853554 0.28774139766 0.29249558742 0.31250101696 0.3160750162 0.28037528691 0.2066222774 0.12083715908 0.065023836774 
0.098160075643 0.15740923214 0.20638796051 0.24294256895 0.2770707039 0.3241818553 0.39639321804 0.48449138318 0.53611512763 
0.49261374507 0.37379002824 0.24845099581 0.15345452375 0.089319466201 0.04953521686 0.038449086268 0.05339595413 0.074101007485 
0.09067884696 0.098128255085 0.09495824862 0.083446923717 0.0679752827 0.054308231741 0.048697848376 0.053932633632 0.064409832632 
0.074664871508 0.081243611606 0.083635608404 0.082555113435 0.079119694786 0.075445984162 0.073645634916 0.077695368674 0.090543216961 
0.10945777439 0.13101008745 0.14964258946 0.1598181651 0.15725765 0.14389869689 0.12282213584 0.099879187539 0.079291204236 
0.062414130116 0.048681260652 0.035010264893 0.019875290001 0.0039349702645 0.019175012061 0.036824958548 0.049541386429 0.056024616051 
0.059223903152 0.063818397528 0.074263425101 0.093240945032 0.12162822834 0.15798923494 0.20193043547 0.24493489804 0.27534855785 
0.28169768983 0.26094675168 0.22536685206 0.18844936338 0.16307964782 0.15520283419 0.16872414935 0.20318742251 0.25649090153 
0.31551751467 0.35711797678 0 
Torsion 1 120 double
0 0 -0.053154209641 -0.056422678773 -0.055118493874 -0.039364006415 0.029763350784 0.31222380343 1.8160076089 
1.4846233638 0.41143279709 0.22779372867 0.20694559416 0.25962120206 0.38846789605 0.52424456926 0.52768961123 0.38294055831 
0.15456395804 -0.47291755029 -2.7557271877 -0.25041298993 0.033347662182 0.1041355441 0.14869166481 0.21835545048 0.40357576113 
1.1719554829 1.9357675454 0.6200628495 0.22900065225 0.062217776791 0.0031245727324 -0.019168247381 -0.042618707001 -0.040395567362 
-0.02885169286 -0.034668496517 -0.055631382584 -0.07993052175 -0.10737979779 -0.15235012628 -0.2644483889 -0.68550355357 -2.0916500683 
-0.77338981915 -0.21259371469 -0.058053899439 -0.0099982181575 -0.028001229433 -0.098470711798 -0.18113229965 -0.23390156822 -0.26032889575 
-0.28915763241 -0.33687173436 -0.40607726176 -0.507683108 -0.72166174302 -1.2898403208 -1.5829249368 -0.84497466007 -0.51383106663 
-0.38099551197 -0.30121091328 -0.23149170124 -0.13614881097 0.032883870101 0.28629293823 0.45246806121 0.29681377304 0.091667790777 
-0.029528043425 -0.094290039108 -0.11585926596 -0.088850369834 -0.012422067573 0.10468089212 0.21911974161 0.26315539025 0.19913842419 
0.10867462528 0.035822314098 -0.014214312794 -0.045253853054 -0.075310651429 -0.11008124113 -0.15122292069 -0.20075409305 -0.25081283064 
-0.27054308564 -0.22881148073 -0.13176696571 0.13330756049 7.1284674253 0.33228991256 0.13916395595 0.15002365884 0.21100669091 
0.29003053295 0.31368452376 0.25265117626 0.15572587313 0.087179338624 0.044074546132 0.014916116678 -0.0071546585839 -0.033183591101 
-0.065536236239 -0.10888492528 -0.17114896538 -0.25479737408 -0.34099149657 -0.38231371905 -0.33424890577 -0.25003437949 -0.17413155744 
-0.11969882774 0 0 
FrenetTangent 3 120 double
0.241729039 -0.96818808878 -0.064644384462 0.241729039 -0.96818808878 -0.064644384462 0.057898818221 -0.99813383768 0.019405383799 
-0.16086439624 -0.9787768663 0.12695862321 -0.37769593344 -0.89394390828 0.24126763298 -0.5485959092 -0.76465887785 0.33814098973 
-0.65879857523 -0.63452318203 0.40418407779 -0.72242889059 -0.5346085578 0.43850905118 -0.76000544782 -0.47661750443 0.44184553155 
-0.78572263909 -0.46381575088 0.40928582148 -0.80246969552 -0.49926256633 0.32677098652 -0.7933847287 -0.58415287276 0.17119022608 
-0.71251656161 -0.69835071777 -0.068017824327 -0.5253022133 -0.78394972546 -0.33087824446 -0.28911178258 -0.80856465178 -0.51248178609 
-0.084223964985 -0.80402182701 -0.58860447282 0.068161549342 -0.80023647422 -0.59579827838 0.1757378935 -0.80331271832 -0.56903854823 
0.24797405506 -0.80919002817 -0.53265407754 0.29211040325 -0.81219654498 -0.50498344986 0.31455666919 -0.80667009193 -0.50033735085 
0.32156612504 -0.78580430835 -0.52830560872 0.319155053 -0.74092507522 -0.59090615588 0.313188522 -0.66477007676 -0.67822834999 
0.30940941768 -0.56044711848 -0.76822186876 0.31283815732 -0.44686390076 -0.83811988493 0.3264813047 -0.34929346406 -0.87829609679 
0.35093099065 -0.28586236714 -0.89170070475 0.38589403427 -0.26626654074 -0.88328247101 0.43215817211 -0.29856233653 -0.85094056519 
0.49169182096 -0.39696377477 -0.77502188015 0.55762598944 -0.58330758093 -0.59059759729 0.55939373502 -0.81340811751 -0.15951765918 
0.37166137034 -0.82454305979 0.42661055818 0.13991505481 -0.62613434516 0.76705903244 -0.019547212913 -0.42956622884 0.90282377101 
-0.13164919686 -0.26293200009 0.95579038094 -0.22238289982 -0.10727460211 0.96903973376 -0.30224926153 0.052704250372 0.95177079483 
-0.37027631314 0.22243327359 0.9018973837 -0.41786035051 0.39348217973 0.81888002888 -0.43655968307 0.54580904128 0.7151979681 
-0.42705078291 0.66095717037 0.61706016543 -0.39904460006 0.73333187319 0.55044324951 -0.36278021615 0.76726662376 0.52885956815 
-0.32326680147 0.76802704508 0.55284087502 -0.28011738011 0.73817845063 0.61369929802 -0.23023967803 0.67927231907 0.6968348493 
-0.1709101819 0.59405909849 0.78605565784 -0.1015578742 0.48496612916 0.86861605543 -0.024237934057 0.34985604528 0.93648986654 
0.055595165121 0.18028164473 0.98204261933 0.12642331534 -0.031596141902 0.99147306023 0.169386075 -0.27436530858 0.94658968674 
0.16812269017 -0.5057130636 0.84616136662 0.12533799874 -0.68087236319 0.72159767953 0.060121415944 -0.7884794312 0.61211567691 
-0.0083598595537 -0.84337942014 0.53725344711 -0.067492111504 -0.86429743175 0.49843230669 -0.10950014679 -0.86511218863 0.48947994742 
-0.12942450087 -0.85522703553 0.50183265764 -0.12469046416 -0.84126300488 0.52605023028 -0.095753402487 -0.82791202018 0.55262371715 
-0.046975477692 -0.81807387009 0.57319145805 0.013574570484 -0.81293736597 0.58219289763 0.076153765922 -0.81196161445 0.57872181624 
0.13280858671 -0.81342241062 0.56630898032 0.17983366478 -0.81496849115 0.5508958263 0.2179531214 -0.81407558588 0.53830974109 
0.25068488368 -0.8086424148 0.53221662327 0.28234123121 -0.79716735731 0.53367371455 0.31633389388 -0.77919763624 0.54109510371 
0.35441741543 -0.75535687079 0.55120258833 0.39658288727 -0.72711413489 0.56038116346 0.44142744525 -0.69653612241 0.5656670759 
0.48691372657 -0.66544282323 0.56577457692 0.53088641954 -0.63464456074 0.56159228189 0.57178255699 -0.60351573849 0.55572786588 
0.60883560642 -0.57016641518 0.55156999861 0.64213609097 -0.53186576065 0.55206888458 0.6725135499 -0.48499104425 0.55902523395 
0.70073050206 -0.42609151004 0.57220869318 0.72675782711 -0.35296171606 0.58927165868 0.74967381956 -0.2655337869 0.60620208864 
0.76804850046 -0.16720071889 0.61817911687 0.78069768572 -0.064993937916 0.62151984002 0.78809028801 0.03265829859 0.61469271468 
0.7922397248 0.11861998945 0.59856955866 0.79557084086 0.18865292312 0.57574048995 0.79992597692 0.24198857159 0.54914475565 
0.80603198525 0.28002916002 0.52143658127 0.81331890242 0.30546582897 0.49517975555 0.82030050892 0.32133962696 0.47312569071 
0.82521564879 0.33051495023 0.45801637598 0.82648678195 0.33501699801 0.45241928595 0.8231081416 0.33594868715 0.45785529028 
0.81484176337 0.33367056494 0.47402199817 0.80251807974 0.32751188436 0.4986990047 0.7879649843 0.31647489011 0.52816174365 
0.77339399935 0.29928005416 0.55883197024 0.76064161098 0.27409138447 0.5884711145 0.7503371578 0.23862987019 0.61648190134 
0.74160016721 0.18976286738 0.64344327346 0.73197749991 0.12337042567 0.67006617412 0.71766681831 0.035441161128 0.69548419249 
0.69322512223 -0.076829016373 0.71661442363 0.65184284812 -0.21207672783 0.72809639669 0.58798213407 -0.36135249578 0.72367215216 
0.50063002488 -0.50861792648 0.70048367793 0.39575428581 -0.63609128276 0.66239446349 0.28329038428 -0.73269442566 0.61879353323 
0.17133933468 -0.79647242599 0.57989180631 0.063104259755 -0.83089911807 0.55283316471 -0.042860570035 -0.83979933772 0.54120240567 
-0.15059660956 -0.82401447087 0.54618752547 -0.26466423282 -0.78017666302 0.56681321292 -0.38752933964 -0.6998402254 0.6000372237 
-0.51501421783 -0.57183118174 0.63856828533 -0.63243205684 -0.39041765501 0.66903194851 -0.63243205684 -0.39041765501 0.66903194851 

FrenetNormal 3 120 double
-0.88728872715 -0.24751517539 0.38917213753 -0.88728872715 -0.24751517539 0.38917213753 -0.90266861063 -0.044038629177 0.42807707078 
-0.87278776921 0.20113182283 0.44473306574 -0.78394593706 0.4473906348 0.43043046785 -0.65763656762 0.64438192542 0.39023849006 
-0.54181105636 0.77290251566 0.33024609081 -0.49636982921 0.84248634189 0.20936512695 -0.61713297471 0.74243380266 -0.26065099308 
-0.36596434552 -0.18488838593 -0.91207805727 -0.068480495954 -0.4669593825 -0.88162313761 0.15309451838 -0.46367467353 -0.87267855799 
0.41795091228 -0.34455696208 -0.84059356101 0.68550538427 -0.15951081406 -0.71037924262 0.87766388528 -0.01011311181 -0.47916993796 
0.98137642232 0.035414671734 -0.18880179753 0.99272177705 -0.0050287268653 0.12032533098 0.92343146199 -0.065802631482 0.37807981789 
0.8419967082 -0.09189965608 0.53159758896 0.85621392071 -0.013163788497 0.51645371201 0.65552615301 0.56582390354 -0.50012875632 
0.010226297949 0.56078891808 -0.82789565296 -0.060349082681 0.60635969192 -0.79289716372 -0.048784017963 0.70195269515 -0.71055086613 
-0.0087405425341 0.80615439188 -0.59164068434 0.066457214302 0.89054691548 -0.45001069987 0.21595503124 0.93220099481 -0.290456072 
0.56947980403 0.82107482849 -0.039100880046 0.89916867836 -0.10560349695 0.42466879952 0.55302609054 -0.65760243659 0.51158692182 
0.34316713824 -0.72967360009 0.59144970417 0.15017949297 -0.62885111528 0.76288426036 -0.14170686141 -0.28345630064 0.94845753255 
-0.43857710806 0.24907281023 0.86348876975 -0.5470586808 0.59682617361 0.58696279119 -0.55034812438 0.75850381483 0.34898267131 
-0.52275438192 0.83763333288 0.15842429056 -0.47766924328 0.8784526201 -0.012372883959 -0.40849802977 0.89497852486 -0.17928413124 
-0.30691373406 0.88708906954 -0.34478535721 -0.17573504269 0.84931278352 -0.49778006239 -0.02051147126 0.7887063541 -0.61442783673 
0.16160803334 0.72721979089 -0.66710885116 0.43837645178 0.67983786647 -0.58791713859 0.91747056945 0.39347915271 0.058497098923 
0.64968334411 -0.24464498767 0.7197641158 0.4604326567 -0.45764606307 0.76063253257 0.4243145653 -0.57434178402 0.70006332914 
0.44098724415 -0.66730433384 0.60019594845 0.4606733086 -0.75095001086 0.47313231124 0.44730344187 -0.83396920073 0.32313310436 
0.37892089769 -0.91379155883 0.14630085544 0.25446409906 -0.96501492316 -0.063199844756 0.088019937796 -0.95241904068 -0.29180552001 
-0.10124329711 -0.86269849681 -0.49548067408 -0.2979912103 -0.71958564747 -0.62721426525 -0.50050758592 -0.55437899298 -0.66494818489 
-0.70921296366 -0.37375978229 -0.59776299428 -0.91126478822 -0.15001580276 -0.38352541595 -0.97403405096 0.1915623929 0.12067111173 
-0.30679712158 0.51579361381 0.79989528949 0.48719234165 0.40995866425 0.77108852659 0.82207213867 0.24727047416 0.51288859555 
0.95665839445 0.12825368629 0.26144924607 0.99849973059 0.041910220247 0.035239487062 0.98886315308 -0.012929783765 -0.14826491551 
0.95763952111 -0.041988300625 -0.28489213785 0.94012898013 -0.022432420897 -0.34007982477 0.95812281948 0.073509608202 -0.2767616308 
0.96488785691 0.25324367171 -0.069707003367 0.89879458608 0.41428082521 0.14331674673 0.83786156822 0.49697669987 0.22583656099 
0.81601132109 0.5376937097 0.21215795625 0.81729557953 0.55763692133 0.14515164366 0.824958093 0.56302132703 0.049508889108 
0.82433883585 0.56424105074 -0.045798694012 0.8081147698 0.5786640473 -0.10999290516 0.77223838392 0.62461156195 -0.1162251052 
0.70596055425 0.70656308377 -0.048870282366 0.60300796496 0.79511281141 0.06462980218 0.47843890047 0.86119555678 0.17157631391 
0.37221138466 0.90259296579 0.21629753405 0.2844901286 0.93551107887 0.20948600917 0.21357668489 0.96403984615 0.15815237812 
0.15033038458 0.98541383767 0.07975176493 0.094985300568 0.99536225018 -0.015224440847 0.056826365294 0.99046740418 -0.12547942245 
0.041491886548 0.96818190327 -0.24678376272 0.055395026111 0.92365503544 -0.37920016692 0.099820176792 0.84868626717 -0.51939152113 
0.16884939351 0.73559239562 -0.65604398466 0.23242742572 0.60964513944 -0.75783263042 0.27535674999 0.50316154333 -0.81915024357 
0.26045380205 0.49687175951 -0.82781777681 -0.33980165223 0.93761669475 -0.073551144566 -0.47076313036 -0.047263827384 0.88099273874 
-0.44415985601 -0.16608581748 0.88041894774 -0.43219357876 -0.25711291733 0.86435042559 -0.40935729662 -0.37149205177 0.83331882205 
-0.35661061841 -0.52343242761 0.77385228601 -0.26850452242 -0.69248825379 0.66960088097 -0.18385416863 -0.82044639317 0.54135511507 
-0.13495893245 -0.89734428256 0.42018962993 -0.13758372301 -0.93644450391 0.32271103214 -0.17438505457 -0.95773804745 0.22875245398 
-0.24453302763 -0.96039479208 0.1335868322 -0.33744668642 -0.94092702819 0.028036787423 -0.44597384122 -0.89122069668 -0.082661978855 
-0.56099493073 -0.80689543004 -0.18494445834 -0.67302290954 -0.69163628424 -0.26206757441 -0.77918172256 -0.55201610874 -0.2969074922 
-0.88090502183 -0.38743123142 -0.27185176738 -0.96442164417 -0.1932645836 -0.1803876187 -0.99903167492 0.030639413673 -0.031574338141 
-0.96094902146 0.25175970467 0.1148652657 -0.87244722534 0.44412586831 0.2039314887 -0.75773628894 0.61253167411 0.22503480761 
-0.61982850286 0.76301262691 0.18336945825 -0.45227050209 0.88730166389 0.09026156547 -0.45227050209 0.88730166389 0.09026156547 

FrenetBinormal 3 120 double
-0.3927922942 -0.036715973204 -0.91889398242 -0.3927922942 -0.036715973204 -0.91889398242 -0.42642362298 -0.042301787338 -0.90353386907 
-0.46082985574 -0.039266217428 -0.88661942694 -0.49272157415 -0.026568943286 -0.86978131828 -0.51629126793 -0.0082906405998 -0.85637292808 
-0.52194369091 -0.0014257480527 -0.85297875165 -0.48136627498 -0.066411246451 -0.87400003184 -0.20381023232 -0.47077362197 -0.85839011298 
0.49870836391 -0.866424396 -0.024469037181 0.5927502083 -0.72985329002 0.34053100534 0.58915425883 -0.66616155576 0.45730300777 
0.56359310176 -0.62736494553 0.53737886148 0.50412295409 -0.59998260654 0.62119314146 0.38225708843 -0.58832043043 0.71257181356 
0.17264600038 -0.59354418768 0.78606529998 -0.099284825435 -0.59966348666 0.79406940893 -0.34116056014 -0.5919110493 0.73024022207 
-0.47911419452 -0.5803153897 0.65854660965 -0.42610941587 -0.58323536158 0.6915687086 0.68654174279 -0.17066538305 0.70677702455 
0.94683190169 0.2608205865 0.18836658834 0.9457790653 0.28871778077 0.14880861099 0.94843717202 0.25562307958 0.18741337174 
0.95088875015 0.18977387554 0.24453314908 0.94747861506 0.085081405319 0.30829438606 0.92020290272 -0.094843983675 0.37977787797 
0.74333047335 -0.49408383202 0.45093344778 -0.20635280994 -0.95809708836 0.19866677406 -0.71232117578 -0.69167880306 -0.11907550522 
-0.80029711259 -0.55677302274 -0.22254961856 -0.81639413018 -0.51409973822 -0.26306288862 -0.81669934165 -0.50795645482 -0.27382919011 
-0.81824076291 -0.50802704431 -0.26905496867 -0.82531847016 -0.50175123349 -0.25902726207 -0.83470644448 -0.49004573044 -0.2512376039 
-0.8422566979 -0.47878717921 -0.24772261073 -0.8499281969 -0.46563199415 -0.24659461903 -0.8612634577 -0.44298499076 -0.24897701579 
-0.87675504662 -0.40447054466 -0.26020024352 -0.89135286068 -0.35190846819 -0.28574552976 -0.89944145038 -0.28290418424 -0.33312204952 
-0.88966874306 -0.18516747739 -0.41737576947 -0.80535054088 0.00669619919 -0.59276105407 -0.16321234319 0.50643467934 -0.84669099829 
0.68804805607 0.59184735197 -0.41988877635 0.84233961204 0.49563359045 -0.21168684894 0.8757550116 0.45685953167 -0.15598887136 
0.88109021117 0.44922011703 -0.14792337963 0.88174038182 0.4481985439 -0.14714606455 0.89405377548 0.42672721945 -0.13627812272 
0.9237576148 0.36398285067 -0.11911487526 0.95878317029 0.26028423292 -0.11396030215 0.9816113529 0.13274655704 -0.13717690566 
0.98055318869 -0.0023666227876 -0.19623925004 0.94630419245 -0.13641598509 -0.29308540454 0.86364203915 -0.26639091335 -0.42796998668 
0.70494473892 -0.38602432414 -0.59501103876 0.40625275463 -0.48008875053 -0.77747893281 -0.19815999957 -0.4635566316 -0.86362483977 
-0.94293415717 -0.050434766288 -0.32913752382 -0.86434710064 0.3524350298 0.35873895716 -0.56127416183 0.50340738916 0.65692641582 
-0.28739871401 0.5606301232 0.77659245692 -0.053047328356 0.58084109053 0.81228665414 0.12786816811 0.58356761164 0.80193427052 
0.25551600125 0.58015598291 0.77338904091 0.28951226871 0.57907093254 0.76214139197 0.18573394859 0.57608790821 0.79600604417 
-0.078412452291 0.53100384907 0.84373360701 -0.33533821911 0.43919881865 0.8334582632 -0.44488297346 0.38192303343 0.8100703281 
-0.45663313446 0.37459507778 0.80694777292 -0.41803103857 0.40043238981 0.81541642857 -0.35296735737 0.44479704977 0.82314617726 
-0.28875682952 0.48868996886 0.82328707493 -0.25516686379 0.51222475719 0.8200705273 -0.27697037013 0.49560987689 0.82320001458 
-0.36185480543 0.41914062992 0.83269576205 -0.47333142181 0.29140080608 0.83128992256 -0.56464302326 0.15207202232 0.811204263 
-0.60863408433 0.061416310372 0.79107053302 -0.62521070645 0.015396373129 0.78030412291 -0.62639776814 0.010907935085 0.77942725961 
-0.62249680835 0.031677880914 0.78198096873 -0.61764789013 0.070920934549 0.7832504739 -0.61293104192 0.13381986692 0.77872188942 
-0.60879770187 0.22034768048 0.76211039745 -0.60332282259 0.33357375513 0.7243825796 -0.59173842511 0.47029049654 0.65473084937 
-0.56727622994 0.61683668587 0.54562824515 -0.53337590379 0.73145295904 0.4248372794 -0.50128408642 0.80222771422 0.32426063474 
-0.50118155392 0.80242029029 0.32394247597 -0.44883675919 -0.092943772085 0.8887671342 0.31760834737 -0.94069368565 0.11924901448 
0.37249821875 -0.92794367034 0.012869409691 0.4113069926 -0.90919135134 -0.064789231303 0.45993237245 -0.87283291609 -0.16317142327 
0.52410932887 -0.79777812887 -0.29809305339 0.591041167 -0.66733344838 -0.45314060466 0.63497385324 -0.51954162585 -0.57173831839 
0.65712653161 -0.3984511171 -0.63986047599 0.66729278341 -0.3284074134 -0.6684825443 0.67419892513 -0.28545009469 -0.68115640847 
0.67796941547 -0.26784164273 -0.68455702911 0.67913962863 -0.26396929582 -0.684901143 0.67482171198 -0.27413508275 -0.68517560774 
0.65928314546 -0.3003790436 -0.68928815765 0.62483494501 -0.34209228333 -0.70182202956 0.5591264628 -0.39804157357 -0.72728296027 
0.44119063328 -0.46425070334 -0.76799876924 0.25672698467 -0.52178104251 -0.81353291207 0.0099339838716 -0.54203163994 -0.8402993617 
-0.23215865124 -0.50756004857 -0.8297500574 -0.4108389987 -0.4405412439 -0.79820719714 -0.52503021564 -0.36746238872 -0.76766833043 
-0.59209203885 -0.30136494616 -0.74739961651 -0.62887286984 -0.24549910776 -0.73773240519 -0.62887286984 -0.24549910776 -0.73773240519 

plain_curvature_peaks 1 120 unsigned_char
0 0 0 0 0 0 0 0 0 
0 0 0 0 0 0 0 0 0 
0 0 0 0 0 0 0 0 0 
0 1 0 0 0 0 0 0 0 
0 0 0 0 0 0 0 0 0 
0 0 0 0 0 0 0 0 0 
0 0 0 0 0 0 0 1 0 
0 0 0 0 0 0 0 0 0 
0 0 0 0 0 0 0 0 0 
0 0 0 0 0 0 0 0 0 
0 0 1 0 0 0 0 0 0 
0 0 0 0 0 0 0 0 0 
0 0 0 0 0 0 0 0 0 
1 0 0 
weighted_curvature_peaks 1 120 unsigned_char
0 0 0 0 0 0 0 0 0 
0 0 0 0 0 0 0 0 0 
0 0 0 0 0 0 0 0 0 
0 0 0 0 1 0 0 0 0 
0 0 0 0 0 0 0 0 0 
0 0 0 0 0 0 0 0 0 
0 0 0 0 0 0 0 1 0 
0 0 0 0 0 0 0 0 0 
0 0 0 0 0 0 0 0 0 
0 0 0 0 0 0 0 0 0 
0 0 0 0 0 0 0 1 0 
0 0 0 0 0 0 0 0 0 
0 0 0 0 0 0 0 0 0 
0 1 0 
plain_torsion_tp 1 120 unsigned_char
0 0 0 0 0 0 0 0 0 
0 0 0 0 0 0 0 0 0 
0 0 0 0 0 0 0 0 0 
0 1 0 0 0 0 0 0 0 
0 0 0 0 0 0 0 0 0 
0 0 0 0 0 0 0 0 0 
0 0 0 0 0 0 0 1 0 
0 0 0 0 0 0 0 0 0 
0 0 0 0 0 0 0 0 0 
0 0 0 0 0 0 0 0 0 
0 0 1 0 0 0 0 0 0 
0 0 0 0 0 0 0 0 0 
0 0 0 0 0 0 0 0 0 
1 0 0 
plain_torsion_tn 1 120 unsigned_char
0 0 0 0 0 0 0 0 2 
0 0 0 0 0 0 0 0 0 
0 0 0 0 0 0 0 0 0 
0 0 0 0 0 0 0 0 0 
0 0 0 0 0 0 0 0 0 
0 0 0 0 0 0 0 2 0 
0 0 0 0 0 0 0 0 0 
0 0 0 0 2 0 0 0 0 
0 0 0 0 0 0 0 0 0 
0 0 0 0 0 0 0 0 0 
0 0 0 0 0 0 0 0 0 
0 0 0 0 0 0 0 0 2 
0 0 0 0 0 0 0 0 0 
0 0 0 
plain_torsion_tz 1 120 unsigned_char
0 0 0 0 0 0 0 0 0 
0 3 0 0 0 0 0 0 0 
0 0 0 0 0 0 0 0 0 
0 0 0 0 0 0 0 0 0 
0 0 0 0 0 0 3 0 0 
0 0 0 0 0 0 0 0 0 
0 0 0 0 3 0 0 0 0 
0 0 0 0 0 0 0 0 0 
3 0 0 0 0 0 0 0 0 
0 0 0 0 0 0 0 0 0 
0 0 0 0 0 0 0 0 0 
0 0 3 0 0 0 0 0 0 
0 0 0 3 0 0 0 0 0 
0 0 0 
weighted_torsion_tp 1 120 unsigned_char
0 0 0 0 0 0 0 0 0 
0 0 0 0 0 0 0 0 0 
0 0 0 0 0 0 0 0 0 
0 0 0 0 1 0 0 0 0 
0 0 0 0 0 0 0 0 0 
0 0 0 0 0 0 0 0 0 
0 0 0 0 0 0 0 1 0 
0 0 0 0 0 0 0 0 0 
0 0 0 0 0 0 0 0 0 
0 0 0 0 0 0 0 0 0 
0 0 0 0 0 0 0 1 0 
0 0 0 0 0 0 0 0 0 
0 0 0 0 0 0 0 0 0 
0 1 0 
weighted_torsion_tn 1 120 unsigned_char
0 0 0 0 0 0 0 0 0 
0 2 0 0 0 0 0 0 0 
0 0 0 0 0 0 0 0 0 
0 0 0 0 0 0 0 0 0 
0 0 0 0 0 0 0 0 0 
0 0 0 0 0 0 0 0 0 
0 0 2 0 0 0 0 0 0 
0 0 0 0 0 0 0 0 2 
0 0 0 0 0 0 0 0 0 
0 0 0 0 0 0 0 0 0 
0 0 0 0 0 0 0 0 0 
0 0 0 0 0 0 0 0 0 
0 0 0 0 2 0 0 0 0 
0 0 0 
weighted_torsion_tz 1 120 unsigned_char
0 0 0 0 0 0 0 0 0 
0 0 0 3 0 0 0 0 0 
0 0 0 0 0 0 0 0 0 
0 0 0 0 0 0 0 0 0 
0 0 0 0 0 0 0 0 0 
0 3 0 0 0 0 0 0 0 
0 0 0 0 0 0 3 0 0 
0 0 0 0 0 0 0 0 0 
0 0 0 0 0 3 0 0 0 
0 0 0 0 0 0 0 0 0 
0 0 0 0 0 0 0 0 0 
0 0 0 0 0 0 3 0 0 
0 0 0 0 0 0 3 0 0 
0 0 0 
plain_torsion_tp_raw 1 120 unsigned_char
0 0 0 0 0 0 0 0 0 
0 0 0 0 0 0 0 0 0 
0 0 0 0 0 0 0 0 0 
0 0 0 0 0 0 0 1 0 
0 0 0 0 0 0 0 0 0 
0 0 0 0 0 0 0 0 0 
1 0 0 0 0 0 0 0 0 
0 0 0 0 0 0 0 1 0 
0 0 0 0 0 0 0 0 0 
0 0 0 0 0 0 0 0 0 
0 0 0 0 0 1 0 0 0 
0 0 0 0 0 0 0 0 0 
0 0 0 0 0 1 0 0 0 
0 1 0 
plain_torsion_tn_raw 1 120 unsigned_char
0 0 0 0 0 0 0 0 0 
0 0 0 0 0 0 0 0 0 
0 0 2 0 0 0 0 0 0 
0 0 0 0 0 0 0 0 0 
0 0 0 0 0 0 0 0 0 
2 0 0 0 0 0 0 0 0 
0 0 0 0 0 0 0 0 0 
2 0 0 0 0 0 0 0 0 
0 0 0 0 0 0 2 0 0 
0 0 0 0 0 0 0 0 0 
0 0 0 0 0 0 0 0 0 
0 0 0 0 0 0 0 0 0 
2 0 0 0 0 0 0 0 2 
0 0 0 
plain_torsion_tz_raw 1 120 unsigned_char
0 0 0 0 0 0 0 0 3 
0 0 0 0 0 0 0 0 0 
0 0 0 0 0 0 0 0 0 
0 0 3 0 0 0 0 0 3 
0 0 0 0 0 0 0 0 0 
0 0 0 0 0 0 3 0 0 
0 0 0 0 0 0 0 0 0 
0 0 0 0 0 0 0 0 0 
0 0 0 0 0 0 0 0 0 
0 0 0 0 0 0 0 0 0 
0 0 0 0 0 0 0 0 0 
0 0 0 0 0 0 0 0 0 
0 0 0 0 0 0 0 0 0 
0 0 0 
weighted_torsion_tp_raw 1 120 unsigned_char
0 0 0 0 0 0 0 0 0 
0 0 0 0 0 0 0 0 0 
0 0 0 0 0 0 0 0 0 
0 0 0 0 0 0 0 0 0 
0 0 1 0 0 0 0 0 0 
0 0 0 0 0 0 0 0 0 
0 0 0 0 1 0 0 0 0 
0 0 0 0 0 0 0 0 0 
0 0 0 1 0 0 0 0 0 
0 0 0 0 0 0 0 0 0 
0 0 0 0 0 0 0 0 0 
0 1 0 0 0 0 0 0 0 
0 0 0 0 0 0 0 0 1 
0 1 0 
weighted_torsion_tn_raw 1 120 unsigned_char
0 0 0 0 0 0 0 0 0 
0 0 0 0 0 0 0 0 0 
0 0 0 0 0 2 0 0 0 
0 0 0 0 0 0 0 0 0 
0 0 0 0 0 0 0 0 0 
0 0 0 0 2 0 0 0 0 
0 0 0 0 0 0 0 0 0 
0 0 0 2 0 0 0 0 0 
0 0 0 0 0 0 0 0 0 
0 2 0 0 0 0 0 0 0 
0 0 0 0 0 0 0 0 0 
0 0 0 0 0 0 0 0 0 
0 0 0 0 2 0 0 0 0 
2 0 0 
weighted_torsion_tz_raw 1 120 unsigned_char
0 0 0 0 0 0 0 0 0 
0 3 0 0 0 0 0 0 0 
0 0 0 0 0 0 0 0 0 
0 0 0 0 0 3 0 0 0 
0 0 0 3 0 0 0 0 0 
0 0 0 0 0 0 0 0 0 
0 3 0 0 0 0 0 0 0 
0 0 0 0 0 0 0 0 0 
0 0 0 0 0 0 0 0 0 
0 0 0 0 0 0 0 0 0 
0 0 0 0 0 0 0 0 0 
0 0 0 0 0 0 0 0 0 
0 0 0 0 0 0 0 0 0 
0 0 0 
