# vtk DataFile Version 5.1
vtk output
ASCII
DATASET POLYDATA
POINTS 120 float
-5.8065 17.3905 -6.8121 -6.25221 17.3509 -7.47939 -6.60704 17.0751 -7.93103 
-6.89472 16.6155 -8.19787 -7.13852 16.024 -8.31091 -7.36036 15.3508 -8.30165 
-7.57925 14.642 -8.20256 -7.80948 13.9378 -8.04766 -8.05917 13.2695 -7.87294 
-8.32939 12.6585 -7.71575 -8.61427 12.1149 -7.61278 -8.9021 11.6388 -7.59645 
-9.17734 11.2216 -7.69036 -9.42283 10.8496 -7.90576 -9.6219 10.507 -8.2406 
-9.7599 10.1796 -8.68096 -9.82554 9.85569 -9.20475 -9.81187 9.52697 -9.78651 
-9.71712 9.18652 -10.4015 -9.5447 8.82751 -11.0283 -9.30263 8.44241 -11.6493 
-9.00231 8.02354 -12.2501 -8.65734 7.56502 -12.8173 -8.28253 7.0653 -13.3364 
-7.89347 6.52945 -13.7898 -7.50627 5.97131 -14.1562 -7.13716 5.41312 -14.412 
-6.80151 4.88515 -14.535 -6.5123 4.42262 -14.5092 -6.2782 4.06135 -14.3297 
-6.1023 3.83207 -14.0061 -5.98186 3.75477 -13.5617 -5.90905 3.83385 -13.0314 
-5.87252 4.05521 -12.4543 -5.85937 4.38704 -11.8681 -5.85731 4.78416 -11.302 
-5.85684 5.19582 -10.7737 -5.8526 5.57514 -10.2885 -5.8437 5.88888 -9.84072 
-5.83263 6.12341 -9.41694 -5.82332 6.2861 -8.99947 -5.819 6.40051 -8.56957 
-5.82101 6.49713 -8.1103 -5.82886 6.60175 -7.60923 -5.84124 6.72686 -7.06082 
-5.85706 6.86698 -6.46813 -5.87593 6.99995 -5.84369 -5.89763 7.09241 -5.20831 
-5.92109 7.10772 -4.58837 -5.94344 7.01361 -4.01177 -5.95976 6.78857 -3.50312 
-5.96382 6.42559 -3.07929 -5.94953 5.93352 -2.7466 -5.91263 5.33435 -2.49973 
-5.85195 4.65844 -2.32307 -5.76998 3.93824 -2.19334 -5.6723 3.20373 -2.08341 
-5.56575 2.47843 -1.96667 -5.45602 1.77717 -1.82133 -5.34535 1.10694 -1.63385 
-5.23154 0.467398 -1.40054 -5.10882 -0.146691 -1.12705 -4.97003 -0.743139 -0.826016 
-4.80927 -1.33058 -0.513433 -4.62358 -1.91671 -0.204876 -4.41344 -2.50675 0.087791 
-4.18179 -3.10311 0.358552 -3.93265 -3.70545 0.608039 -3.66968 -4.31072 0.842999 
-3.39473 -4.91359 1.07438 -3.10693 -5.50671 1.31425 -2.80195 -6.08109 1.57262 
-2.4724 -6.6259 1.85504 -2.10921 -7.12892 2.16193 -1.70384 -7.57815 2.48951 
-1.25034 -7.9629 2.83156 -0.746646 -8.27537 3.18129 -0.194928 -8.51272 3.53277 
0.399032 -8.67802 3.88156 1.02706 -8.78019 4.225 1.67988 -8.83245 4.56207 
2.34835 -8.85072 4.89308 3.02422 -8.85026 5.21983 3.70039 -8.8433 5.54479 
4.37097 -8.8372 5.87157 5.03098 -8.83321 6.20425 5.67659 -8.82759 6.54673 
6.3047 -8.81236 6.90187 6.91407 -8.77786 7.2708 7.50507 -8.7158 7.65196 
8.08037 -8.62109 8.04205 8.64365 -8.49429 8.4362 9.19974 -8.34181 8.83048 
9.75253 -8.17447 9.22285 10.3048 -8.00547 9.61393 10.8574 -7.84734 10.0075 
11.4095 -7.70985 10.4085 11.9593 -7.59947 10.8226 12.5046 -7.5202 11.2546 
13.0438 -7.47495 11.7069 13.5755 -7.46629 12.1792 14.0978 -7.49775 12.6689 
14.6079 -7.57334 13.1709 15.1003 -7.69774 13.6785 15.5672 -7.87658 14.1844 
15.9976 -8.1156 14.681 16.3786 -8.41967 15.1622 16.6965 -8.79209 15.6234 
16.9399 -9.23328 16.0623 17.1027 -9.74036 16.4788 17.1867 -10.3063 16.8747 
17.2022 -10.919 17.2548 17.1687 -11.561 17.6261 17.1127 -12.2091 17.9988 
17.0662 -12.8351 18.3849 17.0646 -13.4065 18.7982 17.145 -13.8879 19.2528 
17.345 -14.2419 19.7633 17.7024 -14.4302 20.3446 18.2552 -14.4146 21.011 

LINES 2 120
OFFSETS vtktypeint64
0 120 
CONNECTIVITY vtktypeint64
0 1 2 3 4 5 6 7 8 
9 10 11 12 13 14 15 16 17 
18 19 20 21 22 23 24 25 26 
27 28 29 30 31 32 33 34 35 
36 37 38 39 40 41 42 43 44 
45 46 47 48 49 50 51 52 53 
54 55 56 57 58 59 60 61 62 
63 64 65 66 67 68 69 70 71 
72 73 74 75 76 77 78 79 80 
81 82 83 84 85 86 87 88 89 
90 91 92 93 94 95 96 97 98 
99 100 101 102 103 104 105 106 107 
108 109 110 111 112 113 114 115 116 
117 118 119 
CELL_DATA 1
FIELD FieldData 2
Length 1 1 double
79.897067905 
Tortuosity 1 1 double
0.64303563727 
POINT_DATA 120
FIELD FieldData 19
Curvature 1 120 double
0 0.58175243916 0.72719426317 0.52864182771 0.29899774236 0.1668351518 0.099851229185 0.071103887791 0.08154136288 
0.14060766596 0.25520202826 0.4146059373 0.53478135481 0.5118492925 0.3903223383 0.27756468054 0.20672963657 0.16575958203 
0.13988898934 0.1218129652 0.1098872386 0.10473958688 0.10671085823 0.11639773078 0.13670089288 0.17677837367 0.25539166641 
0.41299374224 0.70490118533 1.0468712468 1.0328719603 0.68692642207 0.40100854887 0.23906361316 0.14394099106 0.073930638234 
0.0099176806612 0.091554608152 0.20585620361 0.28806658203 0.25161580872 0.11942618521 0.02271660485 0.036527614273 0.015065224747 
0.036283078998 0.10220439257 0.19026717296 0.31146785711 0.4526013708 0.53430582895 0.47563399305 0.33456912705 0.20530674931 
0.11279276049 0.047358665596 0.023021824215 0.061379469666 0.094985297865 0.1097621024 0.10169154024 0.078169283563 0.056360014338 
0.053214181017 0.061493722055 0.064906343672 0.057758277219 0.04114852714 0.02573235133 0.037045064472 0.063958357831 0.092906504671 
0.12217772895 0.1501093153 0.17374537179 0.18778217867 0.18629711434 0.16819403457 0.13780331621 0.10236566482 0.06676168219 
0.035837274009 0.011960524787 0.0074208771916 0.018507870096 0.028516749057 0.041353802282 0.056314986788 0.068707920047 0.07484932811 
0.070213475897 0.054635557849 0.031437533862 0.0041947433704 0.022892899987 0.045291750111 0.062266038735 0.073809420759 0.080603633834 
0.0837175897 0.08717758049 0.091837582445 0.10115054731 0.11720198025 0.14096817096 0.1716003602 0.20580195279 0.23207415901 
0.23643856333 0.21068963699 0.16094032616 0.10046709882 0.039791017841 0.044338957976 0.13253320803 0.26300416346 0.42831114762 
0.51870026272 0.41456085763 0 
Torsion 1 120 double
0 0 0.073414875614 0.12979795295 0.23870483688 0.40499773331 0.68828166652 1.143178134 1.1550794208 
0.74101275428 0.48341378218 0.35390768742 0.30560351201 0.32031756837 0.36992489108 0.40036399555 0.37783906204 0.33388059211 
0.31071597887 0.31259341468 0.31263318086 0.27625482159 0.20052755857 0.10682530016 0.021392717335 -0.048763629209 -0.10345156028 
-0.14012290235 -0.14929276507 -0.13895215917 -0.14481516114 -0.16674736496 -0.17020219428 -0.15781738538 -0.15977767266 -0.27442908602 
-12.826427472 -0.31306164584 -0.15041106906 -0.133593693 -0.18876595528 -0.55712278861 -6.5375298878 -0.51896292747 1.4621196135 
0.40305690628 0.065823087359 0.044921656097 0.047920042334 0.051827568575 0.056751396604 0.068215730357 0.088520166965 0.12194080613 
0.20983711717 0.75556109299 2.5202715724 0.25541301266 0.013443549348 -0.10167053214 -0.24478708045 -0.51666166838 -0.9541110941 
-0.86614114621 -0.44360547847 -0.20151792087 -0.014699722495 0.35721245898 1.4485220671 0.62006862479 0.037694737707 -0.12021089115 
-0.15571998534 -0.13950271919 -0.1041497358 -0.069479555012 -0.044724855747 -0.030698289186 -0.0245783482 -0.027232193199 -0.031951346206 
0.0049026119969 0.56386903664 0.97449706899 -0.31801287464 -0.4779861964 -0.42309532737 -0.3176546366 -0.25284144921 -0.21393671161 
-0.19386405933 -0.18631794528 -0.20647882091 -2.8492620281 -0.22720030699 -0.1634733065 -0.12906012083 -0.074126457575 -0.010304673586 
0.048476345689 0.08864900934 0.089735795527 0.061256691405 0.016786589555 -0.031359631374 -0.061487358146 -0.071038720296 -0.064831233321 
-0.053771537414 -0.051139781915 -0.069188812831 -0.17073958831 -1.2393779561 -1.1976477215 -0.16290427064 -0.050943403101 -0.020393272858 
-0.011062108891 0 0 
FrenetTangent 3 120 double
-0.56714507367 -0.22347469448 -0.79272033299 -0.56714507367 -0.22347469448 -0.79272033299 -0.52996548548 -0.60657069554 -0.59262853079 
-0.42947480153 -0.84930669244 -0.30696829972 -0.34449068058 -0.93564452836 -0.076782078256 -0.30298107918 -0.95008098929 0.074488787392 
-0.2985674671 -0.93933358881 0.16884867938 -0.32190974877 -0.92059327606 0.22109304312 -0.36606824761 -0.90076447243 0.23370366559 
-0.42462318406 -0.88322751561 0.19900830946 -0.48716560225 -0.86739385816 0.10147694719 -0.53179591557 -0.84369709244 -0.073268822812 
-0.52344347644 -0.79330649706 -0.31092077558 -0.44213141702 -0.71066597308 -0.54724188874 -0.31249137322 -0.62117925091 -0.71866924235 
-0.17239816436 -0.55142077734 -0.81621933281 -0.040446190489 -0.50791511168 -0.86045705587 0.078827623709 -0.48651611432 -0.87010819801 
0.18424485507 -0.48236052151 -0.85637734712 0.2743504005 -0.49253402058 -0.82591894052 0.34771180241 -0.51540292159 -0.78323453121 
0.40406927232 -0.54940413416 -0.7313570404 0.44499168411 -0.59241152946 -0.67158840136 0.47357606299 -0.6420254285 -0.60293371254 
0.49377676868 -0.69589008639 -0.52146091932 0.50929775657 -0.75172384704 -0.41895948843 0.52241632182 -0.80513191733 -0.28079135028 
0.53172232491 -0.84286984906 -0.0827150938 0.52471984724 -0.8260261697 0.20579078912 0.46724516702 -0.673013326 0.57335418105 
0.33736669406 -0.3490131783 0.8742845733 0.19449033872 0.0017968952668 0.9809027879 0.094859851263 0.26065536472 0.96076031842 
0.038539227378 0.42913708044 0.90241680733 0.011153276234 0.53455405272 0.84506068962 0.0018567758183 0.59433295042 0.80421694612 
0.0036641155978 0.6152554141 0.78831931962 0.011307421825 0.59628496383 0.80269320672 0.019390512453 0.53237071199 0.84628921359 
0.0219033874 0.42687008701 0.90404765938 0.015292417864 0.31077647866 0.95035999614 0.0025186001595 0.23091498848 0.97297067003 
-0.010056737175 0.20508357395 0.9786927964 -0.018819713902 0.21379228719 0.97669784289 -0.024062432749 0.22633986479 0.9737511309 
-0.027805376601 0.21884916998 0.97536244639 -0.031681110983 0.17604531449 0.98387212302 -0.035818492886 0.085477160954 0.99569608341 
-0.038178736562 -0.065664009557 0.9971111382 -0.034165592646 -0.28196524605 0.95881609931 -0.01847950903 -0.533304878 0.84572123944 
0.008959782669 -0.748909697 0.66261149102 0.041394731264 -0.88241308575 0.46865085332 0.072439174632 -0.94652500336 0.31439304063 
0.099303600364 -0.97192754855 0.21329705887 0.12095979893 -0.97945370224 0.16136657711 0.13694914763 -0.97884780556 0.15199310678 
0.14747921758 -0.97278543455 0.17871311844 0.15429698931 -0.96015840628 0.23299844193 0.1610432883 -0.93964576598 0.30187893893 
0.17230166899 -0.91323993007 0.36919502297 0.19154998449 -0.88668757648 0.42082507669 0.21918358768 -0.86624408137 0.44897633165 
0.25246555274 -0.85520658014 0.45263986785 0.2870488235 -0.8529411903 0.43599804909 0.31882279465 -0.85617148298 0.40659859486 
0.3453000545 -0.86090605155 0.37364239959 0.3662369261 -0.86362080414 0.34645291256 0.38360079158 -0.86154404828 0.33255418443 
0.40102754261 -0.85228992973 0.33582552872 0.42312338577 -0.83335656684 0.35564509403 0.45466920475 -0.80194948239 0.38749573153 
0.49927629826 -0.75519889911 0.42473262268 0.55756618978 -0.69083123687 0.460295716 0.62613300711 -0.60798471298 0.48817214812 
0.69793809047 -0.50838171948 0.50441099232 0.76409166063 -0.39805598516 0.50765674116 0.81728445263 -0.2872294999 0.49954513098 
0.85473080332 -0.18708464342 0.4841844587 0.87813476738 -0.10587562369 0.46655083606 0.89139780078 -0.047582130995 0.45071709705 
0.89818070694 -0.011902995857 0.4394652846 0.90080107277 0.0049395180093 0.43420390194 0.90010500562 0.0087303097467 0.43558553757 
0.89597191276 0.0067993260646 0.44405866809 0.88824111394 0.0065393114283 0.45933099276 0.87697547753 0.014354375905 0.48032068839 
0.86259201934 0.034663396708 0.50471126112 0.84607554055 0.06805752398 0.52870062711 0.82892198296 0.11142332982 0.54815434664 
0.81317709587 0.15820293622 0.56010252787 0.80106314921 0.19986158566 0.56422794823 0.79393869472 0.22898552042 0.56322906571 
0.79172816044 0.24098177797 0.56133261321 0.79257567257 0.23465953716 0.56281320601 0.79335114372 0.21228287246 0.57055231559 
0.79108508565 0.17795934506 0.5852476901 0.78397225129 0.13577751125 0.60576561196 0.77197779378 0.088630426978 0.62944017454 
0.75636085524 0.038075745025 0.653045553 0.73850412118 -0.015977140178 0.67405963682 0.71917834995 -0.074577519028 0.69081162021 
0.69773133918 -0.13919333854 0.7027063347 0.67173282996 -0.21233985097 0.70970894939 0.63694177102 -0.29659700923 0.71157248011 
0.58722856762 -0.39301992948 0.7076001303 0.51603916943 -0.49951620391 0.69583556796 0.41983159795 -0.60858932023 0.6733204799 
0.30315181715 -0.70759049918 0.63829042075 0.18040136084 -0.7841960175 0.59371032932 0.070324648474 -0.83317383447 0.54852147211 
-0.012326443671 -0.85784588446 0.5137591822 -0.060014786439 -0.86469848414 0.49869304882 -0.068969998603 -0.85713119179 0.51045985088 
-0.03336438117 -0.83123306121 0.55492199094 0.057692118318 -0.77033540891 0.6350236037 0.21450269314 -0.63921446457 0.73850759164 
0.41582803379 -0.4045795545 0.81449519974 0.5857192425 -0.11109297916 0.80286444618 0.5857192425 -0.11109297916 0.80286444618 

FrenetNormal 3 120 double
-0.018795696982 -0.95872308491 0.28371952388 -0.018795696982 -0.95872308491 0.28371952388 0.18470139796 -0.76462477287 0.61744177888 
0.31471343784 -0.45936060129 0.8306282502 0.31164787496 -0.19112685228 0.93077716365 0.16941808918 0.023220276592 0.9852706886 
-0.15587148119 0.22253577523 0.96238345273 -0.6754568275 0.38694647993 0.62771848456 -0.92871639357 0.33770416154 -0.15310702004 
-0.69925982525 0.18031280014 -0.69175356226 -0.39852055949 0.11741002371 -0.90961324199 -0.11318908928 0.15655158371 -0.98116248996 
0.17096023847 0.25970064423 -0.95043578018 0.44076368403 0.35922645614 -0.82260788231 0.66950818238 0.39267850565 -0.63052548317 
0.84466571099 0.34355127724 -0.41050256586 0.95417009476 0.23592610588 -0.18411491747 0.99395851266 0.10522495344 0.03121192537 
0.97299494647 -0.033751853337 0.22834545441 0.89520556086 -0.18285662065 0.40641168793 0.75806387959 -0.33705189535 0.55833249439 
0.57623299206 -0.46806342545 0.66997923 0.39317510461 -0.54454810506 0.74086483139 0.24861645475 -0.55928098473 0.79081896699 
0.15813570435 -0.5178073859 0.84075478596 0.10463237472 -0.42912812053 0.89716281818 0.067784509749 -0.28904515135 0.9549126456 
0.018125576672 -0.086318138911 0.99610272681 -0.072576538794 0.19745522059 0.97762164557 -0.21179437009 0.54441246208 0.81163921538 
-0.33587589661 0.82297979894 0.45813931573 -0.36946130468 0.92648677094 0.071558420942 -0.3298149258 0.91883403181 -0.21671671996 
-0.25706405133 0.87695076494 -0.40604855545 -0.1688660545 0.83398198003 -0.52531734468 -0.045068244372 0.8034509067 -0.5936627779 
0.96895496713 0.19269872466 -0.15489826725 0.17677049582 -0.79129337295 0.5853263959 0.06200391876 -0.84545940157 0.53042804824 
-0.015279599645 -0.90401605392 0.42722535983 -0.098941251235 -0.94533601693 0.31072567305 -0.25673961282 -0.94021074338 0.22380466761 
-0.99044067986 -0.13669754314 0.018467305735 -0.33892490994 0.91766793491 -0.2074017036 -0.45210460684 0.86627503209 -0.21252998201 
-0.15753930872 -0.96450528284 0.21192197993 -0.064626913142 -0.98266716294 0.17374869491 -0.033744334186 -0.99587072215 0.084278257402 
-0.0023918307484 -0.99782977273 -0.06580291634 0.034948184653 -0.95912652051 -0.28081122136 0.075687498276 -0.84418472944 -0.53068215081 
0.11635071863 -0.65735643113 -0.74454350627 0.15926113435 -0.45722843231 -0.87497317203 0.21490786241 -0.29300351147 -0.93164561553 
0.30600197554 -0.17414087295 -0.9359688816 0.54323228784 -0.070742991117 -0.83659674316 0.764675542 0.20200453377 0.61193584942 
0.17573998242 0.20358698269 0.9631551272 0.082806204231 0.24755974115 0.96532756466 0.10247706185 0.32013817001 0.94181208524 
0.21085343205 0.40030670117 0.8917933478 0.44633071567 0.46056006614 0.76725049217 0.81666680465 0.41467274392 0.40137494395 
0.96091455551 0.16667631639 -0.22104800964 0.80308344367 -0.033828250568 -0.59490556558 0.65583838173 -0.11042638899 -0.74678111229 
0.58467202072 -0.1140946849 -0.80320671751 0.64145966517 -0.035402482761 -0.76633945623 0.90557857785 0.28032574684 -0.31834716111 
0.71176144088 0.52067895151 0.47147542962 0.57104603735 0.55001563493 0.60941711869 0.57574359095 0.59658102067 0.55911573333 
0.60902136156 0.65455912738 0.44793451522 0.62386665604 0.71450582072 0.31665727156 0.6042441912 0.77405383454 0.18902279926 
0.5513380533 0.83093899927 0.074610525314 0.47446814859 0.87994070894 -0.024172809694 0.38775176311 0.91541030152 -0.10803957644 
0.3051918366 0.93565415278 -0.17722654782 0.23735534205 0.94313553467 -0.23271829504 0.19343064169 0.93929389883 -0.28339294006 
0.16490236361 0.9357676887 -0.31168260019 0.10858476789 0.96560492067 -0.23625512769 -0.42555783187 -0.19657169416 0.88332332743 
-0.43365016786 -0.20234209891 0.87806902173 -0.45723346712 0.10907882542 0.88263206739 -0.43539410427 0.44669423468 0.78159851245 
-0.39251365347 0.67526459971 0.62446036881 -0.35537182716 0.81127517446 0.46426657834 -0.32335881503 0.89507762681 0.30704253568 
-0.29203346892 0.94334490115 0.1575336488 -0.2529800469 0.96733045033 0.016519556368 -0.20017430211 0.97316631901 -0.11347935639 
0.023310683709 0.90631392594 -0.42196170403 0.098954120351 -0.96024940261 0.26101564482 -0.0055682014028 -0.93466060845 0.35549759794 
-0.1044453603 -0.90340109386 0.41588175042 -0.19077781492 -0.87587555179 0.44322211486 -0.25146891307 -0.86686428573 0.43047612697 
-0.287596305 -0.87729318529 0.3842460571 -0.30136223166 -0.90212450377 0.30879149118 -0.30385654585 -0.92787080722 0.21616420761 
-0.31788893079 -0.93922947205 0.12959408366 -0.35005124164 -0.93531484987 0.051480674411 -0.41212739385 -0.91106168657 -0.01084502219 
-0.50056142935 -0.86332437933 -0.064103599727 -0.60153847038 -0.78966289395 -0.12076416095 -0.70050716082 -0.68898879233 -0.18596817386 
-0.7808719396 -0.56837314293 -0.25921223803 -0.83640207463 -0.43993471333 -0.32693885906 -0.87264327056 -0.31778510383 -0.37081848677 
-0.90839564639 -0.20514095014 -0.36432751776 -0.99417084448 0.0069499216257 -0.10759196333 0.35066042024 0.4581986715 0.8167565409 
0.63929889908 0.40903531926 0.65114286085 0.68546013194 0.49301778759 0.53579648061 0.67097921691 0.64589002195 0.36416063765 
0.57671922699 0.80979735195 0.10781086212 0.40996345797 0.89511215792 -0.175226105 0.40996345797 0.89511215792 -0.175226105 

FrenetBinormal 3 120 double
-0.82340341703 0.17580986144 0.53953471198 -0.82340341703 0.17580986144 0.53953471198 -0.82766054502 0.21776351399 0.51725919439 
-0.84646727456 0.26012685398 0.46457203202 -0.88555167722 0.29671508705 0.3574330484 -0.93781660079 0.31113812454 0.15392560131 
-0.94157397423 0.26101769611 -0.21285726057 -0.66342459092 0.052729894176 -0.74638285781 0.058990663694 -0.27309204399 -0.96017750292 
0.57509203467 -0.43289311588 -0.69417051354 0.77707852862 -0.48357293262 -0.40287241056 0.83927429024 -0.51348497334 -0.17875079831 
0.83473320518 -0.55065449885 -0.00031474013418 0.78118319549 -0.6049051396 0.15441045033 0.67387531146 -0.67818871227 0.29317594574 
0.50677283826 -0.76020237189 0.40653861339 0.29651903134 -0.82846913756 0.47509509803 0.076371989972 -0.86731181226 0.49187146641 
-0.1390491551 -0.87532230617 0.46311574448 -0.35119632906 -0.85086643773 0.39075240703 -0.55175688208 -0.78788060533 0.27351141626 
-0.71041084031 -0.69215007558 0.12745474035 -0.80460905923 -0.59373052897 -0.0093979132803 -0.84493524662 -0.52441217499 -0.10524400096 
-0.85508923612 -0.49760677123 -0.14563618885 -0.85420598296 -0.50075973676 -0.13989933782 -0.84999202757 -0.51789525599 -0.096426432505 
-0.84672476795 -0.53114931652 -0.03061977943 -0.84817552896 -0.52791306371 0.043658552836 -0.8583851692 -0.50066768836 0.11183365833 
-0.87941520104 -0.44821206132 0.16042085985 -0.90866487358 -0.37632304531 0.18085660917 -0.93926765266 -0.29631537731 0.17312848937 
-0.96562560108 -0.21633012288 0.1441127214 -0.98557590274 -0.13684305502 0.0995696652 -0.99898218489 -0.035142347166 0.028277370863 
-0.24721012508 0.76441348558 -0.59544871914 0.9841871438 0.13527394368 -0.11435307666 0.99788752978 0.042187975973 -0.049402961431 
0.99964332412 -0.023171168859 -0.013278609815 0.99497576391 -0.098781553975 0.016292140259 0.9664773292 -0.25036378758 0.056917009809 
0.13757224182 -0.9691514378 0.20449784567 -0.9406251771 -0.33493046917 0.055189283689 -0.89164029956 -0.4453513606 0.081484610882 
0.98712118164 -0.1477653551 0.061295779577 0.99740647146 -0.058080066551 0.042509252697 0.9987884438 -0.030580381223 0.038554958262 
0.99926806374 -0.0048971932879 0.03793882283 0.99880495427 0.023914800288 0.042623299481 0.99696033539 0.054203779254 0.055964631365 
0.99316777665 0.083766271157 0.081246410677 0.98636827165 0.11085714583 0.12160726092 0.97394413426 0.13505317576 0.18219073265 
0.94683767665 0.15821440116 0.28011893429 0.8308233317 0.1888541087 0.52351381752 -0.62969536002 0.032421318322 0.77616532497 
-0.97332694351 -0.11063832428 0.20098214409 -0.98454841 -0.12965342036 0.11770479582 -0.98161270931 -0.12073684847 0.14784824088 
-0.96221253632 -0.075811444533 0.26153328626 -0.8741267046 0.040860337777 0.4839761741 -0.53386691701 0.27868926591 0.79832224571 
0.11359736654 0.49075524535 0.86386047917 0.52216851248 0.5209097574 0.67527258883 0.68427190697 0.50475380568 0.52630366994 
0.7341161356 0.49580558013 0.4639507799 0.6740919907 0.50289737608 0.5410122154 0.18104660182 0.42327216839 0.88772901239 
-0.57669104496 0.049953029264 0.81543370885 -0.70347212001 -0.054768912954 0.70860944288 -0.67955517196 -0.031114521887 0.73296429299 
-0.61629226764 0.035028153546 0.7867381199 -0.54764070291 0.11060576076 0.82937086168 -0.49279449552 0.1766217711 0.85203188624 
-0.45706539233 0.226027447 0.86023416599 -0.43708570113 0.2593371964 0.86122024386 -0.42625660546 0.28199857138 0.85952435221 
-0.41987283399 0.2992501338 0.85682913156 -0.41538147759 0.31509635915 0.85333024822 -0.40987137936 0.33979834083 0.84648835783 
-0.40752745694 0.35241616234 0.84245131632 -0.42043641075 0.25996680238 0.86928159199 0.093335473326 -0.98045058557 -0.17321991419 
0.095822040526 -0.97929129689 -0.1783443085 -0.044331479205 -0.99401159312 0.099878289437 -0.20333712345 -0.89457152458 0.39798970041 
-0.31916773022 -0.73676059158 0.59608371114 -0.39732485971 -0.58068990411 0.71058580842 -0.45642898999 -0.43176484751 0.77797923722 
-0.503447578 -0.2916714392 0.81330701937 -0.54249325051 -0.15597162065 0.82545377018 -0.57410068611 -0.022648333071 0.81847141381 
-0.61042864611 0.34716401071 0.71193680736 0.60169085526 -0.15118196453 -0.7842908442 0.60873882568 -0.28521137612 -0.74033202891 
0.60272344734 -0.39012425601 -0.69608010379 0.59075488532 -0.46304047902 -0.66075879128 0.58379249025 -0.49060264731 -0.64691218167 
0.58754286823 -0.47844216442 -0.65259978034 0.60315211044 -0.43117990524 -0.67103757047 0.62486294538 -0.3653682509 -0.68996546343 
0.64196386658 -0.31380441894 -0.69957785889 0.65286992071 -0.28301575805 -0.70261151949 0.65150302499 -0.28635086412 -0.70252899659 
0.63608243555 -0.31655386759 -0.70369935633 0.60979918356 -0.35625282587 -0.70797519716 0.57708850881 -0.3935905021 -0.71558044248 
0.54620324945 -0.41984241789 -0.72484091663 0.51757793477 -0.43760033608 -0.73526799692 0.48326821348 -0.45258589167 -0.74941166558 
0.41792990848 -0.47118746703 -0.77673480836 0.089568729992 -0.50224319818 -0.86007512026 -0.93395953283 0.23532976331 0.26896002218 
-0.76823416723 0.37648599649 0.5177591706 -0.72582093315 0.40437212923 0.55647745157 -0.70977143159 0.41740980801 0.56744477006 
-0.70319412649 0.42490426317 0.57006524856 -0.69918733691 0.43177838613 0.56982847698 -0.69918733691 0.43177838613 0.56982847698 

plain_curvature_peaks 1 120 unsigned_char
0 0 0 0 0 0 0 0 0 
0 0 0 0 0 0 1 0 0 
0 0 0 0 0 0 0 0 0 
0 0 0 0 0 0 0 0 0 
0 0 0 0 0 0 0 1 0 
0 0 0 0 0 0 0 0 0 
0 0 0 0 0 0 0 0 0 
0 0 0 0 0 0 0 0 0 
0 0 0 0 0 0 0 0 0 
0 1 0 0 0 0 0 0 0 
0 0 0 0 0 0 0 0 0 
0 0 0 0 0 0 0 0 0 
0 0 0 0 0 0 0 0 0 
1 0 0 
weighted_curvature_peaks 1 120 unsigned_char
0 0 0 0 0 0 0 0 0 
0 0 0 0 0 0 0 0 0 
1 0 0 0 0 0 0 0 0 
0 0 0 0 0 0 0 0 0 
0 0 0 0 0 0 0 0 0 
0 0 1 0 0 0 0 0 0 
0 0 0 0 0 0 0 0 0 
0 0 0 0 0 0 0 0 0 
0 0 0 0 0 0 0 0 0 
0 0 0 0 0 0 1 0 0 
0 0 0 0 0 0 0 0 0 
0 0 0 0 0 0 0 0 0 
0 0 0 0 0 0 0 0 0 
1 0 0 
plain_torsion_tp 1 120 unsigned_char
0 0 0 0 0 0 0 0 0 
0 0 0 0 0 0 1 0 0 
0 0 0 0 0 0 0 0 0 
0 0 0 0 0 0 0 0 0 
0 0 0 0 0 0 0 1 0 
0 0 0 0 0 0 0 0 0 
0 0 0 0 0 0 0 0 0 
0 0 0 0 0 0 0 0 0 
0 0 0 0 0 0 0 0 0 
0 1 0 0 0 0 0 0 0 
0 0 0 0 0 0 0 0 0 
0 0 0 0 0 0 0 0 0 
0 0 0 0 0 0 0 0 0 
1 0 0 
plain_torsion_tn 1 120 unsigned_char
0 0 0 0 0 0 0 2 0 
0 0 0 0 0 0 0 0 0 
0 0 0 0 0 0 0 0 0 
0 0 2 0 0 0 0 0 0 
0 0 0 0 0 0 0 0 0 
0 0 0 0 0 0 0 0 0 
0 0 0 0 2 0 0 0 0 
0 0 0 0 0 0 0 0 0 
0 0 0 0 0 0 0 0 0 
0 0 0 0 0 0 0 0 0 
0 0 0 0 0 0 0 0 2 
0 0 0 0 0 0 0 0 0 
0 0 0 0 0 0 0 0 0 
0 0 0 
plain_torsion_tz 1 120 unsigned_char
0 0 0 0 0 0 0 0 3 
0 0 0 0 0 0 0 0 0 
0 0 3 0 0 0 0 0 0 
0 0 0 0 0 0 0 3 0 
0 0 0 0 0 0 0 0 0 
0 0 0 0 0 0 0 0 0 
0 0 0 0 0 0 0 0 0 
0 0 0 3 0 0 0 0 0 
0 0 0 0 0 0 0 0 0 
0 0 0 0 0 0 0 0 0 
0 3 0 0 0 0 0 0 0 
0 0 0 0 0 0 3 0 0 
0 0 0 0 0 0 0 0 0 
0 0 0 
weighted_torsion_tp 1 120 unsigned_char
0 0 0 0 0 0 0 0 0 
0 0 0 0 0 0 0 0 0 
1 0 0 0 0 0 0 0 0 
0 0 0 0 0 0 0 0 0 
0 0 0 0 0 0 0 0 0 
0 0 1 0 0 0 0 0 0 
0 0 0 0 0 0 0 0 0 
0 0 0 0 0 0 0 0 0 
0 0 0 0 0 0 0 0 0 
0 0 0 0 0 0 1 0 0 
0 0 0 0 0 0 0 0 0 
0 0 0 0 0 0 0 0 0 
0 0 0 0 0 0 0 0 0 
1 0 0 
weighted_torsion_tn 1 120 unsigned_char
0 0 0 0 0 0 0 0 0 
2 0 0 0 0 0 0 0 0 
0 0 0 0 0 0 0 0 0 
0 0 0 0 0 2 0 0 0 
0 0 0 0 0 0 0 0 0 
0 0 0 0 0 0 0 0 0 
0 0 0 0 0 0 0 0 0 
0 2 0 0 0 0 0 0 0 
0 0 0 0 0 0 0 0 0 
0 0 0 0 0 0 0 0 0 
0 0 0 0 0 0 0 0 0 
0 0 0 0 2 0 0 0 0 
0 0 0 0 0 0 0 0 0 
0 0 0 
weighted_torsion_tz 1 120 unsigned_char
0 0 0 0 0 0 0 0 0 
0 3 0 0 0 0 0 0 0 
0 0 0 0 0 0 3 0 0 
0 0 0 0 0 0 0 0 0 
0 3 0 0 0 0 0 0 0 
0 0 0 0 0 0 0 0 0 
0 0 0 0 0 0 0 0 0 
0 0 0 0 0 0 0 0 3 
0 0 0 0 0 0 0 0 0 
0 0 0 0 0 0 0 0 0 
0 0 0 0 0 0 3 0 0 
0 0 0 0 0 0 0 0 0 
0 3 0 0 0 0 0 0 0 
0 0 0 
plain_torsion_tp_raw 1 120 unsigned_char
0 0 0 0 0 0 0 0 0 
0 0 0 0 0 0 0 0 1 
0 0 0 0 0 0 0 0 0 
0 0 0 0 1 0 0 0 0 
0 0 0 0 0 0 0 0 0 
0 0 0 0 0 0 0 0 0 
0 0 0 0 0 0 0 0 0 
1 0 0 0 0 0 0 0 0 
0 0 0 0 0 0 0 0 0 
0 0 0 0 1 0 0 0 0 
0 0 0 0 0 0 0 0 0 
0 0 0 0 0 0 0 0 0 
0 1 0 0 0 0 0 0 0 
0 1 0 
plain_torsion_tn_raw 1 120 unsigned_char
0 0 0 0 0 0 0 0 0 
0 0 0 2 0 0 0 0 0 
0 0 0 0 0 2 0 0 0 
0 0 0 0 0 0 0 0 0 
0 0 0 0 0 0 0 0 0 
0 0 0 0 0 0 0 0 2 
0 0 0 0 0 0 0 0 0 
0 0 0 0 0 0 0 0 0 
2 0 0 0 0 0 0 0 0 
0 0 0 0 0 0 0 0 0 
0 0 0 0 0 0 0 0 0 
0 2 0 0 0 0 0 0 0 
0 0 0 0 0 0 2 0 0 
0 0 0 
plain_torsion_tz_raw 1 120 unsigned_char
0 0 0 0 0 0 0 3 0 
0 0 0 0 0 0 0 3 3 
0 0 0 0 0 0 0 0 0 
0 3 0 0 0 0 0 0 0 
0 0 0 0 0 0 0 0 0 
0 0 0 0 0 0 0 0 0 
0 0 0 0 0 0 0 0 0 
0 0 0 0 0 0 0 0 0 
0 0 0 0 0 0 0 0 0 
0 0 0 0 0 0 0 0 0 
0 0 0 0 0 0 0 0 0 
0 0 0 0 0 0 0 0 0 
0 0 0 0 0 0 0 0 0 
0 0 0 
weighted_torsion_tp_raw 1 120 unsigned_char
0 0 0 0 0 0 0 0 0 
0 0 0 0 0 0 0 0 0 
0 0 1 0 0 0 0 0 0 
0 0 0 0 0 0 1 0 0 
0 0 0 0 0 0 0 0 0 
0 0 0 0 0 0 0 0 0 
0 0 0 0 0 0 0 0 0 
0 0 0 0 0 1 0 0 0 
0 0 0 0 0 0 0 0 0 
0 0 0 0 0 0 0 0 0 
1 0 0 0 0 0 0 0 0 
0 0 0 0 0 0 0 0 0 
0 0 0 0 0 1 0 0 0 
0 1 0 
weighted_torsion_tn_raw 1 120 unsigned_char
0 0 0 0 0 0 0 0 0 
0 0 0 0 0 2 0 0 0 
0 0 0 0 0 0 0 0 2 
0 0 0 0 0 0 0 0 0 
0 0 0 0 0 0 0 0 0 
0 0 0 0 0 0 0 0 0 
0 0 0 0 2 0 0 0 0 
0 0 0 0 0 0 0 0 0 
0 0 0 0 0 2 0 0 0 
0 0 0 0 0 0 0 0 0 
0 0 0 0 0 0 0 0 0 
0 0 0 0 0 0 2 0 0 
0 0 0 0 0 0 0 0 2 
0 0 0 
weighted_torsion_tz_raw 1 120 unsigned_char
0 0 0 0 0 0 0 0 0 
3 0 0 0 0 0 0 0 0 
3 0 3 0 0 0 0 0 0 
0 0 0 0 3 0 0 0 0 
0 0 0 0 0 0 0 0 0 
0 0 0 0 0 0 0 0 0 
0 0 0 0 0 0 0 0 0 
0 0 0 0 0 0 0 0 0 
0 0 0 0 0 0 0 0 0 
0 0 0 0 0 0 0 0 0 
0 0 0 0 0 0 0 0 0 
0 0 0 0 0 0 0 0 0 
0 0 0 0 0 0 0 0 0 
0 0 0 
