# vtk DataFile Version 5.1
vtk output
ASCII
DATASET POLYDATA
POINTS 120 float
-17.9978 37.5334 -24.4762 -18.5204 37.2415 -24.407 -19.0104 36.9058 -24.3048 
-19.468 36.5364 -24.1729 -19.8955 36.1423 -24.014 -20.2961 35.7308 -23.8306 
-20.6735 35.3083 -23.6246 -21.0317 34.8796 -23.398 -21.3746 34.4488 -23.1524 
-21.7059 34.0191 -22.8896 -22.0289 33.5926 -22.6116 -22.3466 33.1711 -22.3203 
-22.662 32.7556 -22.0179 -22.9775 32.347 -21.7066 -23.296 31.9455 -21.389 
-23.6201 31.551 -21.0683 -23.9527 31.1623 -20.7492 -24.2969 30.7761 -20.4397 
-24.6564 30.3842 -20.1558 -25.034 29.9652 -19.9468 -25.3336 29.5031 -20.0796 
-25.2546 29.2655 -20.6183 -25.0384 29.1446 -21.1674 -24.7756 29.0526 -21.7021 
-24.4873 28.9663 -22.2245 -24.1822 28.8756 -22.7365 -23.8651 28.774 -23.2391 
-23.5394 28.6567 -23.7327 -23.208 28.5189 -24.2171 -22.8736 28.3561 -24.6915 
-22.5395 28.1626 -25.1545 -22.2096 27.9326 -25.6035 -21.8893 27.6584 -26.0341 
-21.5867 27.3308 -26.4394 -21.3143 26.9394 -26.8073 -21.0904 26.4756 -27.1189 
-20.9401 25.9397 -27.3467 -20.89 25.3515 -27.4582 -20.9558 24.7553 -27.4295 
-21.1305 24.2059 -27.2609 -21.3871 23.7426 -26.9762 -21.6939 23.3805 -26.6063 
-22.0251 23.1177 -26.1776 -22.3617 22.9459 -25.7086 -22.6902 22.8548 -25.2119 
-23.0007 22.8339 -24.6959 -23.2853 22.8726 -24.1661 -23.5376 22.9615 -23.626 
-23.7519 23.0906 -23.0777 -23.9227 23.2498 -22.5221 -24.0445 23.428 -21.9593 
-24.1099 23.6123 -21.3893 -24.11 23.7859 -20.8123 -24.0354 23.9261 -20.2313 
-23.8786 24.0022 -19.6551 -23.6417 23.9786 -19.1028 -23.3452 23.83 -18.6011 
-23.0244 23.5589 -18.1704 -22.7111 23.1902 -17.812 -22.4237 22.7518 -17.5153 
-22.1693 22.2653 -17.2667 -21.9498 21.7456 -17.0547 -21.7643 21.2024 -16.8705 
-21.6105 20.6428 -16.7075 -21.485 20.0718 -16.5604 -21.3838 19.493 -16.4255 
-21.3022 18.9091 -16.2995 -21.2349 18.322 -16.1799 -21.1758 17.7333 -16.0644 
-21.1178 17.1439 -15.951 -21.0527 16.5553 -15.8379 -20.9714 15.969 -15.7235 
-20.8633 15.3876 -15.6063 -20.7182 14.8153 -15.4852 -20.5265 14.2578 -15.3596 
-20.2813 13.7229 -15.2295 -19.9804 13.2182 -15.0957 -19.6257 12.7506 -14.9592 
-19.2228 12.3242 -14.8213 -18.7787 11.9411 -14.6827 -18.3004 11.6014 -14.5441 
-17.7943 11.3048 -14.4059 -17.2655 11.0503 -14.268 -16.7188 10.8371 -14.1305 
-16.1579 10.6645 -13.9929 -15.5863 10.5317 -13.855 -15.0071 10.4385 -13.7162 
-14.4234 10.384 -13.5759 -13.8379 10.3674 -13.4333 -13.2533 10.3873 -13.2876 
-12.6719 10.4419 -13.1381 -12.0956 10.5285 -12.9839 -11.5259 10.6439 -12.824 
-10.9636 10.7839 -12.6575 -10.4088 10.9435 -12.4837 -9.86095 11.1173 -12.3017 
-9.31891 11.2994 -12.1106 -8.78124 11.4841 -11.9098 -8.24652 11.6657 -11.6987 
-7.71347 11.8391 -11.4767 -7.1811 11.9993 -11.2434 -6.64884 12.1415 -10.9987 
-6.11659 12.2614 -10.7422 -5.58479 12.3543 -10.4739 -5.05444 12.416 -10.194 
-4.52724 12.4421 -9.9029 -4.00562 12.428 -9.60115 -3.49282 12.3696 -9.28981 
-2.99316 12.2623 -8.97032 -2.51191 12.1021 -8.64479 -2.05545 11.8861 -8.31597 
-1.63107 11.6122 -7.98733 -1.24632 11.281 -7.66282 -0.907976 10.8957 -7.34637 
-0.620913 10.4626 -7.04117 -0.387458 9.99002 -6.74916 -0.207257 9.48682 -6.47075 
-0.0776947 8.96167 -6.20486 0.0049606 8.42199 -5.94944 0.0457575 7.87397 -5.7017 

LINES 2 120
OFFSETS vtktypeint64
0 120 
CONNECTIVITY vtktypeint64
0 1 2 3 4 5 6 7 8 
9 10 11 12 13 14 15 16 17 
18 19 20 21 22 23 24 25 26 
27 28 29 30 31 32 33 34 35 
36 37 38 39 40 41 42 43 44 
45 46 47 48 49 50 51 52 53 
54 55 56 57 58 59 60 61 62 
63 64 65 66 67 68 69 70 71 
72 73 74 75 76 77 78 79 80 
81 82 83 84 85 86 87 88 89 
90 91 92 93 94 95 96 97 98 
99 100 101 102 103 104 105 106 107 
108 109 110 111 112 113 114 115 116 
117 118 119 
CELL_DATA 1
FIELD FieldData 2
Length 1 1 double
71.66501579 
Tortuosity 1 1 double
0.81576827023 
POINT_DATA 120
FIELD FieldData 19
Curvature 1 120 double
0 0.17591381595 0.15287122476 0.13073788085 0.11099210988 0.094098544267 0.079617646353 0.067266910885 0.057137970887 
0.048646140731 0.041493872649 0.035588569751 0.030755715475 0.027398217679 0.026119467414 0.028781522603 0.041779689707 0.08367562154 
0.22621025392 1.1335102088 2.4194274551 0.51521242392 0.15638697355 0.079533230816 0.055792696459 0.051311647887 0.055361917699 
0.063760095377 0.074685758854 0.089937499159 0.10862011451 0.13440646909 0.17044072841 0.22096028064 0.28843479222 0.37124038821 
0.45727861464 0.51654042493 0.5203443466 0.46919508936 0.39655953974 0.32862142969 0.27653149365 0.23783041285 0.20706181393 
0.18354257095 0.16735062096 0.15409808175 0.14725564256 0.14650834269 0.15781725789 0.18360808014 0.22698470008 0.28980934926 
0.36378786457 0.41366713632 0.40295480166 0.33929032789 0.26809753043 0.20915517725 0.16703559146 0.13727536068 0.11426761696 
0.094941899312 0.077819095431 0.060987666779 0.043820816361 0.025641067377 0.0067538307654 0.019530794461 0.045558608114 0.074914522932 
0.10563712267 0.13568898124 0.16032610579 0.17565421955 0.18021963099 0.1754422666 0.16489450689 0.15255224867 0.14113938091 
0.13214680698 0.12382796323 0.11868041089 0.1137810535 0.11085117057 0.10733437816 0.10493470439 0.10068099494 0.096661036512 
0.090114902592 0.082917102138 0.072886109654 0.061557199485 0.048659544606 0.03750140879 0.030100544187 0.030684117911 0.037931069954 
0.047737606743 0.058592860921 0.069713763633 0.080925895546 0.091727587325 0.10315809078 0.11550450148 0.12751127833 0.14150249884 
0.15511797555 0.16909638399 0.18259271464 0.19312917284 0.19810399523 0.19617812295 0.18764326643 0.17366550928 0.15615913042 
0.1384401344 0.1195113623 0 
Torsion 1 120 double
0 0 0.085696338128 0.11305947793 0.14437112963 0.17765741246 0.21129299258 0.24202686312 0.26674922166 
0.29222085324 0.32964658403 0.38837555688 0.48790973097 0.63988570568 0.85673250752 1.1097215426 1.1151692122 0.87033179466 
0.86018990575 0.20222422824 0.1131518131 0.48056320432 0.82055736071 0.80591906578 0.79907603876 0.62307252521 0.42496507854 
0.28708414967 0.20633879521 0.15254455352 0.11902573683 0.093829618962 0.073891633181 0.055814990409 0.037647062569 0.018776683971 
0.0012949694094 -0.013386633806 -0.028769574999 -0.048518287707 -0.070982979608 -0.093228322872 -0.11500683007 -0.13875268286 -0.16618070844 
-0.198321226 -0.2344372407 -0.28407436373 -0.33805061469 -0.39481237866 -0.42128640034 -0.41124310524 -0.37402804531 -0.32435780067 
-0.27160705534 -0.23374981799 -0.21832281059 -0.22050911029 -0.2200441426 -0.21340512429 -0.1978731622 -0.17376451467 -0.14334848156 
-0.11215957561 -0.081731725949 -0.048990784295 0.0042448183087 0.18597790816 3.9558641925 0.51010343987 0.086479643692 0.026458769289 
0.01071745337 0.0063945368397 0.0062041695476 0.0077937331451 0.010478762034 0.014069916672 0.018259400443 0.022387179311 0.026430487366 
0.030567217631 0.035822364469 0.040990397151 0.047046187969 0.051888619612 0.05747948149 0.061911381468 0.068736788041 0.076150502324 
0.089357744908 0.10804675181 0.14478976792 0.20979838188 0.34250439337 0.57766434076 0.87047128924 0.79666537185 0.48915944953 
0.28402484876 0.1716801493 0.1097952219 0.072822591465 0.049784663721 0.034376892457 0.02379988402 0.016397230804 0.010034023116 
0.0047427043464 -0.00023014902085 -0.0062654382102 -0.014592865474 -0.025100726322 -0.037104140349 -0.0509929221 -0.067631307161 -0.087572369889 
-0.10809512408 0 0 
FrenetTangent 3 120 double
-0.84130288937 -0.5214796821 0.14236709414 -0.84130288937 -0.5214796821 0.14236709414 -0.78699244962 -0.58552557588 0.19442912395 
-0.73480258933 -0.63384226752 0.24147284447 -0.68723997479 -0.66857205581 0.2840996713 -0.64555866039 -0.69201670182 0.32305866401 
-0.61029368426 -0.70622093931 0.35887825766 -0.58158974295 -0.71294504101 0.39174320593 -0.55920439862 -0.71378579045 0.42166371187 
-0.54265130655 -0.71017135524 0.44853785313 -0.53142273716 -0.70330844436 0.47217275071 -0.52506132997 -0.69415177258 0.49240625137 
-0.52323848748 -0.68346725353 0.50901276858 -0.52582665814 -0.67189761585 0.52159363435 -0.5328940082 -0.66015792151 0.52935384639 
-0.5446469789 -0.64951923249 0.53055106729 -0.5613632776 -0.64270087826 0.521350987 -0.58381516303 -0.64557389747 0.49233545304 
-0.61343062057 -0.67485733954 0.4102078071 -0.60799513622 -0.79098577563 0.068435495839 -0.22181814948 -0.70353230703 -0.67515850104 
0.2496322869 -0.3031067208 -0.91967931212 0.39788146071 -0.17689007187 -0.90022233126 0.45719859232 -0.14792501059 -0.87697641839 
0.49221837585 -0.1468043865 -0.85800322994 0.51607462893 -0.1594593242 -0.84156978398 0.5331313952 -0.1815253682 -0.82632890313 
0.54505925586 -0.21161308327 -0.81125231007 0.55231929133 -0.24941063083 -0.79544813637 0.55465727821 -0.2956198176 -0.77779446332 
0.55111556046 -0.35144452063 -0.75680802581 0.53982118093 -0.41863386104 -0.73030047447 0.51743006605 -0.49995210431 -0.69448831534 
0.47826123832 -0.59805539583 -0.64311424448 0.41365210828 -0.7128267221 -0.56636560415 0.31287665791 -0.83589004633 -0.45099448709 
0.1682850446 -0.94369870706 -0.28480325499 -0.013226737763 -0.99747818813 -0.069730320568 -0.20260784319 -0.96506092801 0.16615494906 
-0.36229001478 -0.85073251384 0.38078883267 -0.47164357534 -0.69086334439 0.54796001425 -0.53251354314 -0.5215922458 0.66661147267 
-0.55628817603 -0.36214539507 0.747926586 -0.55348897094 -0.21875264076 0.80361510763 -0.53130010995 -0.093092773108 0.84205340019 
-0.49454064882 0.014766003283 0.8690290627 -0.44601043446 0.10601602953 0.88872678245 -0.38748073996 0.18102509886 0.90392952698 
-0.31985790629 0.23939134524 0.91672389715 -0.24299997847 0.28018076176 0.92868172761 -0.15542911504 0.3010538108 0.94085513933 
-0.054426300993 0.29742520033 0.95319254507 0.061989431377 0.26108488054 0.96332341171 0.1928795934 0.18030574278 0.96451402352 
0.32907932941 0.043857475375 0.94328326435 0.44684810845 -0.14423933118 0.88290530824 0.51683887155 -0.35140795428 0.78063437698 
0.52944471228 -0.53429127811 0.6589545711 0.500324991 -0.67225307513 0.54566537947 0.45051220371 -0.76904923339 0.45343360145 
0.39365813158 -0.83585963714 0.38258586284 0.33627682432 -0.88246794489 0.32888937907 0.28161011851 -0.9152277403 0.28819077802 
0.23175277185 -0.93812282519 0.2573251204 0.18804900669 -0.95389287116 0.23393580623 0.15158727048 -0.96446317085 0.21640723533 
0.12348007231 -0.97121889993 0.20368240023 0.10485236848 -0.97518318225 0.19499677404 0.097129338657 -0.97700203869 0.1898233599 
0.10205719674 -0.97688853236 0.18781140524 0.12147394001 -0.97449591539 0.18868437343 0.15713713793 -0.96870247938 0.19215469373 
0.21004451503 -0.95747850378 0.19777820026 0.27965555757 -0.93799228095 0.20484933488 0.36288664098 -0.90730848731 0.21237842322 
0.4537299752 -0.86374710293 0.2192488353 0.54478202192 -0.80794583256 0.22457978591 0.6294469918 -0.74283841385 0.2280078407 
0.70361601027 -0.67242889959 0.22970390743 0.76601243349 -0.60021433137 0.23014714459 0.81733724112 -0.52832663302 0.22984952278 
0.85913791175 -0.45753101897 0.22923223003 0.89275270564 -0.38822827937 0.22862941559 0.91939432149 -0.32027810312 0.22833313002 
0.93996502805 -0.25340039846 0.22859130364 0.9550459848 -0.18749313672 0.22963773777 0.96504132574 -0.12260778078 0.23165183293 
0.97025174769 -0.05899523421 0.23480014577 0.97096927637 0.0027476552034 0.23918845025 0.96757229528 0.061787478953 0.2449207236 
0.9605978422 0.11713048435 0.25205601598 0.95077982178 0.16756732218 0.26065096016 0.93905896247 0.21185480448 0.27071351429 
0.92658229244 0.2485691246 0.28223863243 0.91454257267 0.2765691935 0.29516328358 0.90394689494 0.29516015067 0.30945192936 
0.8954598238 0.30418685379 0.32499547989 0.88938819818 0.30379679615 0.34160816675 0.88558971931 0.29444015434 0.35921559622 
0.8836843496 0.27663651291 0.37759000251 0.88308707672 0.25086997185 0.39651162928 0.8830631336 0.21742635967 0.41584285518 
0.88277704486 0.17648396342 0.4353827049 0.88129757787 0.12827811156 0.45481788151 0.87759968106 0.072878442981 0.47382225818 
0.87050246481 0.01002469934 0.49206195156 0.85869498735 -0.060155852451 0.50894419352 0.84065873484 -0.13765235707 0.5237792666 
0.81466450892 -0.22215358023 0.53569536558 0.77899622144 -0.31251054181 0.54360100095 0.73196841591 -0.40710046495 0.54634371009 
0.67253572925 -0.50295919884 0.54288832846 0.60109052949 -0.59564989962 0.53281457605 0.51986388028 -0.68023583463 0.51674051057 
0.4325909301 -0.75268020075 0.49632409029 0.34367633288 -0.81073118298 0.47392143564 0.25726894672 -0.85408018116 0.45206164757 
0.17619703265 -0.88409159561 0.43282404768 0.10246859224 -0.90281798368 0.41763605681 0.10246859224 -0.90281798368 0.41763605681 

FrenetNormal 3 120 double
0.51247814678 -0.68564504798 0.51696906798 0.51247814678 -0.68564504798 0.51696906798 0.58469150939 -0.60723771136 0.53795743395 
0.63671326152 -0.52186678679 0.56767180611 0.6682339665 -0.42845230075 0.60818746452 0.67846255666 -0.32544993124 0.6586128616 
0.66515945005 -0.2107943008 0.7163299999 0.62629522393 -0.085104119863 0.77492682317 0.560724901 0.048988136551 0.82655172123 
0.46883610015 0.18698730367 0.86326615795 0.34688194728 0.32784697931 0.87874300726 0.18755030832 0.46997814245 0.86252271128 
-0.021220416323 0.60756667011 0.79398516063 -0.29011688182 0.71811119656 0.63257292406 -0.59349465786 0.73749895927 0.32227220819 
-0.81564458944 0.55743666493 -0.15488146532 -0.76365380791 0.15952363536 -0.62560776165 -0.50369933892 -0.18758875521 -0.84326593367 
-0.23175730566 -0.34271977899 -0.91040194659 0.158379952 -0.20529974418 -0.96579905045 0.64524404853 0.41322267453 -0.64257850811 
0.74955790853 0.66177659572 -0.01465193224 0.8188836043 0.51090750247 0.26153999032 0.88220432733 0.20030633057 0.42613718304 
0.82941100496 -0.22006276639 0.5134683668 0.6414295535 -0.57919786172 0.5030884265 0.42707863073 -0.78538733032 0.44807430694 
0.24859629444 -0.88331462878 0.39743571679 0.10864372935 -0.92452116258 0.36531788899 -0.0062888757947 -0.93622313418 0.35134981581 
-0.10588274945 -0.92909975737 0.35434797055 -0.197299801 -0.90632397117 0.37369726759 -0.28602674553 -0.86594552023 0.41027680514 
-0.37563992185 -0.80123350881 0.46574618997 -0.46652767519 -0.70016106362 0.54048719991 -0.55245460144 -0.5464084432 0.6294694008 
-0.61723060025 -0.32615167026 0.71599683945 -0.6368591645 -0.045358390393 0.76964473689 -0.59363358496 0.25598425267 0.76293592732 
-0.49143014716 0.52149212508 0.69752589481 -0.35378695195 0.71746726406 0.60006292806 -0.20397166393 0.84343323092 0.49700698716 
-0.053847547547 0.91386114434 0.40244036885 0.094761352898 0.94208367441 0.32171203956 0.2422763092 0.93573728587 0.25631605847 
0.38870137204 0.89805339536 0.20594014288 0.53504681822 0.82758404594 0.16979266539 0.67913015391 0.71912671072 0.14710203251 
0.81401037433 0.56456172454 0.13659125033 0.92428770981 0.35739233045 0.13402593644 0.98592978235 0.1065870197 0.1287698393 
0.98149722792 -0.1595698538 0.10583313918 0.91197865549 -0.40697757557 0.051615742767 0.78819209452 -0.61393570123 -0.042850634695 
0.61702459511 -0.7661667273 -0.17963628532 0.40458842011 -0.8476387241 -0.34324452468 0.16801037047 -0.85249855992 -0.49499365727 
-0.064027483196 -0.79970449336 -0.59697001994 -0.26866736701 -0.71964769711 -0.64025388554 -0.43884217782 -0.63306078718 -0.63769238878 
-0.57609410553 -0.54864445655 -0.60589177406 -0.68402568596 -0.46890993097 -0.55877753855 -0.76446403322 -0.39552089887 -0.50907559407 
-0.82147957187 -0.33041808577 -0.46475283926 -0.86042766284 -0.27485505297 -0.4290908259 -0.88497257061 -0.22994654006 -0.4049050975 
-0.89560274729 -0.19746556612 -0.39862647836 -0.87869800638 -0.18266941539 -0.44104614075 -0.45609225213 -0.21321342063 -0.8640138279 
0.99447716391 0.09554454698 -0.043432821798 0.98699848038 0.1387435768 0.08114320442 0.97841411387 0.17914695745 0.10301548147 
0.9670464091 0.23323270899 0.10209674879 0.94858132886 0.30288959185 0.091931266082 0.91942513424 0.38570077886 0.076761524934 
0.87750837705 0.47592367334 0.058955113202 0.823182579 0.56632696847 0.040548815232 0.75913491519 0.65050476077 0.023616450814 
0.68919597449 0.72450869871 0.0098007263881 0.61678125076 0.78713460456 -5.49059545e-05 0.54406535482 0.83902047907 -0.0061257962729 
0.47176199078 0.88168657946 -0.0083306456863 0.40022101754 0.9163942696 -0.0066842919134 0.32917968284 0.94426681892 -0.00095450690161 
0.25827022805 0.96603198134 0.0088713210577 0.18739547978 0.98202827795 0.022436476237 0.11663321286 0.99239454757 0.039366935499 
0.046233331635 0.9971573399 0.059495533722 -0.023259857257 0.99627996752 0.082977137531 -0.091220748334 0.98965799872 0.11070601 
-0.15705498698 0.97695339022 0.14455381144 -0.22011216641 0.95728792517 0.18748456611 -0.28018549899 0.92796766848 0.24570733079 
-0.33731002466 0.88115513645 0.33134207817 -0.39016420045 0.79565306431 0.46336605178 -0.42760031752 0.61341082874 0.66399180992 
-0.40040008291 0.23139429382 0.8866433637 -0.26380475657 -0.26921863029 0.92624423319 -0.1205639029 -0.60115635707 0.78998441736 
-0.038962193271 -0.76040187731 0.64828306508 -0.0046954155522 -0.84029651932 0.54210673551 8.6219810163e-05 -0.88625339546 0.46320072495 
-0.014579609803 -0.91601779254 0.40087259664 -0.043365242933 -0.93643750863 0.34814400489 -0.08328131096 -0.95017156528 0.30039677057 
-0.13267532785 -0.95799967857 0.25423192804 -0.19024885973 -0.95954065247 0.2075743424 -0.2552564916 -0.95370278385 0.15904440757 
-0.32703420571 -0.93881959858 0.10801106244 -0.40405944771 -0.91313277852 0.05407856789 -0.48474721563 -0.87465129703 -0.0022903130811 
-0.56688212539 -0.82168412944 -0.058990230888 -0.64740205476 -0.75382104765 -0.11235838914 -0.72261866896 -0.67278937887 -0.15867170809 
-0.78954604743 -0.58204724529 -0.19452003298 -0.84696289613 -0.48558176788 -0.21648140634 -0.89499772805 -0.3870051588 -0.22182442122 
-0.93442459777 -0.28848503348 -0.20887090882 -0.96528771713 -0.19164835321 -0.17745571803 -0.96528771713 -0.19164835321 -0.17745571803 

FrenetBinormal 3 120 double
-0.17197557213 0.50788759517 0.84408210102 -0.17197557213 0.50788759517 0.84408210102 -0.19692314006 0.53704949669 0.82024332671 
-0.23379772736 0.57087567539 0.78704484366 -0.28489398566 0.60781578802 0.74121210511 -0.35063168027 0.64435644379 0.67960444241 
-0.43023775399 0.67588293929 0.59839596206 -0.51914127497 0.69603639078 0.4960097573 -0.61063739319 0.6986487013 0.37284308525 
-0.69693778108 0.67874324634 0.23148506398 -0.77282778747 0.6307722174 0.069739663603 -0.83014184428 0.54522826617 -0.11657896957 
-0.85192204993 0.40464213166 -0.33240572517 -0.79958646841 0.18130058792 -0.57253085188 -0.60314846192 -0.1424317512 -0.78480897621 
-0.19515012705 -0.51709682963 -0.8333830432 0.31891085311 -0.74932489005 -0.58035168382 0.63674707019 -0.74030048077 -0.21565798568 
0.75497776459 -0.6535370872 0.053831687991 0.7779831008 -0.57636231469 0.25009753511 0.73106554179 -0.57817758018 0.36228974507 
0.61306334346 -0.68569530636 0.39239684471 0.41366651525 -0.84123922067 0.34813300299 0.11262758105 -0.9685017115 0.22207985683 
-0.26419397292 -0.96437588675 0.013442236282 -0.56765755987 -0.7994389038 -0.19662739844 -0.73032510475 -0.59178989689 -0.34118903749 
-0.80069363054 -0.41830033418 -0.4288525859 -0.82652280095 -0.2881925696 -0.48353397226 -0.83205513866 -0.18998727976 -0.52114209171 
-0.8276838058 -0.11515376581 -0.54925324563 -0.81833115616 -0.057641562014 -0.5718492539 -0.8065077976 -0.013647321742 -0.59106592105 
-0.79382670466 0.018831034982 -0.60785241226 -0.78182086285 0.040651558871 -0.62217649359 -0.77259440218 0.052207697237 -0.63274974995 
-0.76857434896 0.055297723976 -0.63736616779 -0.77086669276 0.054588282802 -0.63465318196 -0.77881270449 0.055941644658 -0.62475699573 
-0.79198633552 0.065575554665 -0.60700699418 -0.80770485356 0.089154721586 -0.58280726244 -0.82147725878 0.12869310042 -0.55552965647 
-0.82924297213 0.18359880635 -0.52787079051 -0.82744803163 0.25421572052 -0.5007036273 -0.81180193593 0.34019033999 -0.47460314938 
-0.7773935876 0.43963856089 -0.44986347455 -0.71749536212 0.55123973767 -0.42583465916 -0.62341070748 0.67088500319 -0.40158735325 
-0.48484846114 0.78991255402 -0.37544656973 -0.29435223791 0.89093740682 -0.34581396322 -0.06151629443 0.94763168491 -0.3133846443 
0.18357823768 0.94131594694 -0.28323721274 0.40552711663 0.87533075927 -0.26333214682 0.58442337785 0.76848734139 -0.26053122948 
0.71483385761 0.64114356257 -0.27919077382 0.79789408964 0.51059143036 -0.32040819739 0.83943439069 0.38698663413 -0.38156421313 
0.84592480637 0.27387141772 -0.45760864123 0.82309947715 0.17373253875 -0.54067019124 0.7774678754 0.0883024142 -0.62269285074 
0.71634409121 0.018108763277 -0.69751216167 0.64732276213 -0.037064846963 -0.76131428382 0.57990558117 -0.076950646126 -0.81104137687 
0.52102012028 -0.10367957102 -0.84722404405 0.47360511832 -0.12059473542 -0.87244203343 0.44027814924 -0.13013600881 -0.88838041993 
0.42737383026 -0.13319609085 -0.89420937738 0.46572072577 -0.12509854413 -0.87604483895 0.8846161592 -0.0026558720316 -0.46631233871 
0.024484669911 0.19120678567 0.98124434574 -0.10525246613 0.17637440511 0.97867971656 -0.13421528105 0.17181930647 0.97594281813 
-0.1438837877 0.16981583628 0.97491540012 -0.1482775494 0.16860716482 0.97446672202 -0.15156090632 0.16741032834 0.97416788781 
-0.1552680193 0.16564298759 0.97388615497 -0.15994683562 0.16277990181 0.97361168509 -0.16586339273 0.15822340889 0.97337284112 
-0.17301277072 0.15141506033 0.97321121072 -0.18112382631 0.14199250234 0.97315583995 -0.1896120354 0.13006000359 0.97320690066 
-0.19829945199 0.11530022673 0.97333611104 -0.20691965516 0.097469717039 0.97349058063 -0.21530169068 0.076040195548 0.9735825957 
-0.22307450626 0.050699596575 0.97348205713 -0.22971743748 0.021605207502 0.97301753012 -0.23471670853 -0.010972422084 0.97200188924 
-0.23764264171 -0.046870052566 0.97022119798 -0.23807066889 -0.086131740395 0.9674211492 -0.2355475079 -0.12945791989 0.96320196143 
-0.22931532139 -0.17844473366 0.95685524527 -0.21810173015 -0.23562898986 0.94705364919 -0.19915911016 -0.30658367221 0.93077500008 
-0.16633461036 -0.40221762244 0.90030760388 -0.10669479581 -0.53893012763 0.83556599864 0.0061627582138 -0.73253507809 0.68070138811 
0.19450315568 -0.92408172732 0.32900073505 0.37335731324 -0.9139085489 -0.15929683266 0.448547873 -0.74291051269 -0.49687903534 
0.46645891327 -0.58758933338 -0.66117687311 0.46918564344 -0.4805892392 -0.74087705806 0.4692541898 -0.40899962977 -0.78263644702 
0.46956588894 -0.36022883618 -0.80606641261 0.47056777934 -0.32654175618 -0.81971729671 0.47210488563 -0.30308864887 -0.82780085038 
0.47394379007 -0.28659400074 -0.83261105121 0.475865832 -0.2750690998 -0.83539733077 0.4776369071 -0.26740012842 -0.83687523341 
0.47892626385 -0.26318348753 -0.8374748269 0.47947976986 -0.26177412026 -0.83759982107 0.47879262218 -0.26316215541 -0.83755794123 
0.47575240282 -0.26808065154 -0.83773051483 0.46857310514 -0.27740768771 -0.8387396616 0.45559170893 -0.29091865009 -0.84131001051 
0.435295447 -0.30772312174 -0.84606403668 0.40563583521 -0.3269943358 -0.85354219202 0.36440603156 -0.34752561231 -0.86396423129 
0.30952427494 -0.36763900232 -0.87694714048 0.24024947607 -0.38495531826 -0.89111704741 0.24024947607 -0.38495531826 -0.89111704741 

plain_curvature_peaks 1 120 unsigned_char
0 0 0 0 0 0 0 0 0 
0 0 0 0 0 0 1 0 0 
0 0 0 0 0 0 0 0 0 
0 0 0 0 0 0 0 0 0 
0 0 0 0 0 0 0 0 0 
0 0 0 0 0 0 0 0 0 
0 0 0 0 1 0 0 0 0 
0 0 0 0 0 0 0 0 0 
0 0 0 0 0 0 0 0 0 
0 0 0 0 0 0 0 0 1 
0 0 0 0 0 0 0 0 0 
0 0 0 0 0 0 0 0 0 
0 0 0 0 0 0 0 0 1 
0 0 0 
weighted_curvature_peaks 1 120 unsigned_char
0 0 0 0 0 0 0 0 0 
0 0 0 0 0 0 0 0 1 
0 0 0 0 0 0 0 0 0 
0 0 0 0 0 0 1 0 0 
0 0 0 0 0 0 0 0 0 
0 0 0 0 0 0 0 0 0 
0 0 0 0 0 0 0 0 0 
0 0 0 0 0 0 0 0 0 
0 0 0 0 1 0 0 0 0 
0 0 0 0 0 0 0 0 0 
0 0 0 0 0 0 0 0 0 
0 0 0 0 0 0 0 0 0 
0 0 0 0 0 0 0 0 0 
0 1 0 
plain_torsion_tp 1 120 unsigned_char
0 0 0 0 0 0 0 0 0 
0 0 0 0 0 0 1 0 0 
0 0 0 0 0 0 0 0 0 
0 0 0 0 0 0 0 0 0 
0 0 0 0 0 0 0 0 0 
0 0 0 0 0 0 0 0 0 
0 0 0 0 1 0 0 0 0 
0 0 0 0 0 0 0 0 0 
0 0 0 0 0 0 0 0 0 
0 0 0 0 0 0 0 0 1 
0 0 0 0 0 0 0 0 0 
0 0 0 0 0 0 0 0 0 
0 0 0 0 0 0 0 0 1 
0 0 0 
plain_torsion_tn 1 120 unsigned_char
0 0 0 0 2 0 0 0 0 
0 0 0 0 0 0 0 0 0 
0 0 0 0 0 0 0 0 0 
0 0 2 0 0 0 0 0 0 
0 0 0 0 0 0 0 0 0 
0 0 0 0 0 0 0 0 0 
0 0 0 0 0 0 0 0 0 
0 0 2 0 0 0 0 0 0 
0 0 0 0 0 0 0 0 0 
0 0 0 0 0 0 0 0 0 
0 0 0 0 0 0 0 0 0 
0 0 0 0 0 0 2 0 0 
0 0 0 0 0 0 0 0 0 
0 0 0 
plain_torsion_tz 1 120 unsigned_char
0 0 0 0 0 3 0 0 0 
0 0 0 0 0 0 0 0 0 
0 0 0 3 0 0 0 0 0 
0 0 0 0 0 0 0 0 0 
0 0 0 0 0 3 0 0 0 
0 0 0 0 0 0 0 0 0 
0 0 0 0 0 0 0 0 0 
0 0 0 0 0 0 0 0 0 
0 0 3 0 0 0 0 0 0 
0 0 0 0 0 0 0 0 0 
0 0 0 0 3 0 0 0 0 
0 0 0 0 0 0 0 0 0 
0 0 0 3 0 0 0 0 0 
0 0 0 
weighted_torsion_tp 1 120 unsigned_char
0 0 0 0 0 0 0 0 0 
0 0 0 0 0 0 0 0 1 
0 0 0 0 0 0 0 0 0 
0 0 0 0 0 0 1 0 0 
0 0 0 0 0 0 0 0 0 
0 0 0 0 0 0 0 0 0 
0 0 0 0 0 0 0 0 0 
0 0 0 0 0 0 0 0 0 
0 0 0 0 1 0 0 0 0 
0 0 0 0 0 0 0 0 0 
0 0 0 0 0 0 0 0 0 
0 0 0 0 0 0 0 0 0 
0 0 0 0 0 0 0 0 0 
0 1 0 
weighted_torsion_tn 1 120 unsigned_char
0 0 0 0 0 0 2 0 0 
0 0 0 0 0 0 0 0 0 
0 0 0 0 0 0 0 0 0 
2 0 0 0 0 0 0 0 0 
0 0 0 0 2 0 0 0 0 
0 0 0 0 0 0 0 0 0 
0 0 0 0 0 0 0 0 0 
0 0 0 0 0 0 0 0 0 
0 0 0 0 0 0 0 0 0 
0 0 0 0 0 0 0 0 0 
0 0 0 0 0 0 0 0 0 
0 0 0 0 0 0 0 0 0 
0 2 0 0 0 0 0 0 0 
0 0 0 
weighted_torsion_tz 1 120 unsigned_char
0 0 0 0 0 0 0 3 0 
0 0 0 0 0 0 0 0 0 
0 0 0 0 0 3 0 0 0 
0 3 0 0 0 0 0 0 0 
0 0 0 0 0 0 0 0 0 
0 0 0 3 0 0 0 0 0 
0 0 0 0 0 0 0 0 0 
0 0 0 0 0 0 0 0 0 
0 0 0 0 0 0 0 0 0 
0 0 0 0 0 0 0 0 0 
0 0 0 0 0 0 0 0 3 
0 0 0 0 0 0 0 0 0 
0 0 0 0 0 0 3 0 0 
0 0 0 
plain_torsion_tp_raw 1 120 unsigned_char
0 0 0 0 0 0 0 0 0 
0 0 0 0 0 0 0 0 0 
0 1 0 0 0 0 0 0 0 
0 0 0 0 0 1 0 0 0 
0 0 0 0 0 0 0 0 0 
0 0 0 0 0 0 0 0 0 
0 0 0 0 0 0 0 0 0 
0 0 0 0 0 0 0 1 0 
0 0 0 0 0 0 0 0 0 
0 0 0 0 0 0 0 0 0 
1 0 0 0 0 0 0 0 0 
0 0 0 0 0 0 0 0 0 
0 0 0 0 0 0 1 0 0 
1 0 0 
plain_torsion_tn_raw 1 120 unsigned_char
0 0 0 0 0 0 0 0 0 
0 2 0 0 0 0 0 0 0 
0 0 0 0 0 0 2 0 0 
0 0 0 0 0 0 0 0 0 
0 0 0 0 0 0 0 0 0 
0 0 0 0 0 0 0 0 0 
0 0 0 0 0 0 0 0 2 
0 0 0 0 0 0 0 0 0 
0 0 0 0 0 0 0 0 0 
0 2 0 0 0 0 0 0 0 
0 0 0 0 0 0 0 0 0 
0 0 0 0 0 0 0 0 2 
0 0 0 0 0 0 0 2 0 
0 0 0 
plain_torsion_tz_raw 1 120 unsigned_char
0 0 0 0 3 0 0 0 0 
0 0 0 0 0 0 0 3 0 
0 3 0 0 0 0 0 0 0 
0 3 0 0 0 0 0 0 0 
0 0 0 0 0 0 0 0 0 
0 0 0 0 0 0 0 0 0 
0 0 0 0 0 0 0 0 0 
0 0 0 0 0 0 0 0 0 
0 0 0 0 0 0 0 0 0 
0 0 0 0 0 0 0 0 0 
0 0 0 0 0 0 0 0 0 
0 0 0 0 0 0 0 0 0 
0 0 0 0 0 0 0 0 0 
0 0 0 
weighted_torsion_tp_raw 1 120 unsigned_char
0 0 0 0 0 0 0 0 0 
0 0 0 0 0 0 0 0 0 
0 0 0 1 0 0 0 0 0 
0 1 0 0 0 0 0 0 0 
0 0 0 0 0 0 0 0 0 
1 0 0 0 0 0 0 0 0 
0 0 0 0 0 0 0 0 0 
0 0 0 0 0 0 0 0 0 
0 0 0 0 0 0 0 0 0 
0 0 1 0 0 0 0 0 0 
0 0 0 0 0 0 0 0 0 
0 0 0 0 0 0 0 0 0 
0 0 0 0 0 0 0 0 1 
0 1 0 
weighted_torsion_tn_raw 1 120 unsigned_char
0 0 0 0 0 0 0 0 0 
0 0 0 2 0 0 0 0 0 
0 0 0 0 0 0 2 0 0 
0 0 0 0 0 0 0 0 0 
0 0 2 0 0 0 0 0 0 
0 0 0 0 0 0 0 0 0 
0 2 0 0 0 0 0 0 0 
0 0 0 0 0 0 0 0 0 
0 0 0 0 0 0 0 0 0 
0 0 0 0 0 0 0 0 0 
0 0 0 0 0 0 0 0 0 
0 0 0 0 0 0 0 0 0 
0 0 0 2 0 0 0 0 0 
2 0 0 
weighted_torsion_tz_raw 1 120 unsigned_char
0 0 0 0 0 0 3 0 0 
0 0 0 0 0 0 0 0 0 
3 0 0 3 0 0 0 0 0 
3 0 0 0 0 0 0 0 0 
0 0 0 0 0 0 0 0 0 
0 0 0 0 0 0 0 0 0 
0 0 0 0 0 0 0 0 0 
0 0 0 0 0 0 0 0 0 
0 0 0 0 0 0 0 0 0 
0 0 0 0 0 0 0 0 0 
0 0 0 0 0 0 0 0 0 
0 0 0 0 0 0 0 0 0 
0 0 0 0 0 0 0 0 0 
0 0 0 
