# vtk DataFile Version 5.1
vtk output
ASCII
DATASET POLYDATA
POINTS 120 float
-0.954282 17.3819 -8.63893 -1.26495 16.7133 -8.23839 -1.59557 16.0841 -7.93815 
-1.95002 15.492 -7.73313 -2.332 14.9343 -7.61792 -2.74452 14.408 -7.58613 
-3.18924 13.9091 -7.62972 -3.66551 13.4325 -7.73875 -4.16937 12.9722 -7.90207 
-4.69293 12.5217 -8.10894 -5.22402 12.0746 -8.35113 -5.74652 11.6265 -8.62446 
-6.24138 11.1749 -8.92911 -6.68809 10.7204 -9.26879 -7.06673 10.2662 -9.64892 
-7.35996 9.81757 -10.0744 -7.55458 9.38052 -10.5477 -7.64242 8.95971 -11.0668 
-7.62077 8.55655 -11.6248 -7.49222 8.16766 -12.2084 -7.26477 7.78423 -12.7991 
-6.95218 7.39319 -13.3737 -6.57437 6.97951 -13.9059 -6.15733 6.53 -14.3684 
-5.73202 6.03717 -14.7356 -5.33218 5.50275 -14.9858 -4.99106 4.94001 -15.1043 
-4.73752 4.37355 -15.0847 -4.59216 3.83673 -14.9301 -4.56449 3.36646 -14.6516 
-4.65142 2.99658 -14.2669 -4.83814 2.75121 -13.797 -5.10052 2.64011 -13.2634 
-5.40924 2.65667 -12.6857 -5.73446 2.78044 -12.0799 -6.04992 2.98261 -11.4585 
-6.33588 3.2331 -10.8301 -6.58042 3.50704 -10.2007 -6.77918 3.78873 -9.57355 
-6.93398 4.07266 -8.95039 -7.05096 4.36122 -8.33111 -7.13857 4.65997 -7.71447 
-7.20598 4.97298 -7.09906 -7.26191 5.29899 -6.48471 -7.31358 5.62921 -5.87428 
-7.36577 5.94682 -5.27496 -7.42017 6.22837 -4.69845 -7.47502 6.44597 -4.15958 
-7.52485 6.57092 -3.67325 -7.56102 6.57829 -3.2507 -7.5731 6.45138 -2.89578 
-7.55124 6.18611 -2.60315 -7.48837 5.7913 -2.35928 -7.38152 5.28719 -2.1455 
-7.23203 4.70145 -1.94274 -7.04471 4.06337 -1.73605 -6.82703 3.39853 -1.51749 
-6.58833 2.72579 -1.28653 -6.33942 2.05619 -1.04823 -6.09174 1.3933 -0.810532 
-5.85613 0.735795 -0.581596 -5.64119 0.0798686 -0.367599 -5.45166 -0.578013 -0.171365 
-5.28739 -1.23923 0.0084171 -5.14304 -1.90215 0.177451 -5.00881 -2.56179 0.345285 
-4.87171 -3.21106 0.524 -4.7173 -3.84171 0.725861 -4.53139 -4.44623 0.960368 
-4.30151 -5.01871 1.23147 -4.01797 -5.5554 1.53606 -3.67449 -6.05368 1.86443 
-3.2683 -6.5116 2.2026 -2.80013 -6.9264 2.5358 -2.27406 -7.29429 2.85184 
-1.69722 -7.61094 3.14323 -1.07949 -7.87178 3.40922 -0.432766 -8.07309 3.65477 
0.230093 -8.21248 3.88939 0.89665 -8.28894 4.12523 1.55635 -8.30364 4.37449 
2.2016 -8.25962 4.64654 2.82832 -8.16281 4.94742 3.43564 -8.02144 5.27847 
4.0249 -7.84563 5.63799 4.59843 -7.64652 6.02217 5.15881 -7.43497 6.42672 
5.70791 -7.22097 6.84786 6.24783 -7.01264 7.28217 6.78143 -6.81627 7.72636 
7.31234 -6.63636 8.17724 7.84599 -6.4757 8.63079 8.3886 -6.3358 9.08269 
8.9465 -6.21732 9.52877 9.52446 -6.12064 9.96558 10.1245 -6.04719 10.3907 
10.744 -5.99982 10.8036 11.3751 -5.98376 11.2051 12.0046 -6.00669 11.5974 
12.6141 -6.07899 11.9838 13.1824 -6.21224 12.368 13.688 -6.41648 12.7537 
14.1119 -6.69771 13.1442 14.4411 -7.05526 13.542 14.6704 -7.481 13.9486 
14.8031 -7.96001 14.3643 14.8505 -8.47269 14.7886 14.8299 -8.99834 15.2206 
14.7614 -9.51727 15.6593 14.6652 -10.0136 16.1049 14.5581 -10.4769 16.5577 
14.4518 -10.9029 17.0177 14.3539 -11.2943 17.484 14.2699 -11.659 17.9541 
14.2067 -12.0093 18.4241 14.1757 -12.3592 18.8893 14.1928 -12.7238 19.345 
14.2777 -13.1181 19.786 14.4519 -13.5572 20.2078 14.7376 -14.0559 20.6054 

LINES 2 120
OFFSETS vtktypeint64
0 120 
CONNECTIVITY vtktypeint64
0 1 2 3 4 5 6 7 8 
9 10 11 12 13 14 15 16 17 
18 19 20 21 22 23 24 25 26 
27 28 29 30 31 32 33 34 35 
36 37 38 39 40 41 42 43 44 
45 46 47 48 49 50 51 52 53 
54 55 56 57 58 59 60 61 62 
63 64 65 66 67 68 69 70 71 
72 73 74 75 76 77 78 79 80 
81 82 83 84 85 86 87 88 89 
90 91 92 93 94 95 96 97 98 
99 100 101 102 103 104 105 106 107 
108 109 110 111 112 113 114 115 116 
117 118 119 
CELL_DATA 1
FIELD FieldData 2
Length 1 1 double
80.871167473 
Tortuosity 1 1 double
0.76905501943 
POINT_DATA 120
FIELD FieldData 19
Curvature 1 120 double
0 0.13368314143 0.16494556061 0.19122664356 0.20309582509 0.19358680704 0.16442602001 0.1255710566 0.088553598717 
0.063062487123 0.058520444038 0.076492506465 0.1093029355 0.15173569222 0.19853169601 0.23952529214 0.26069650109 0.25294930406 
0.22157331887 0.18181183434 0.14967261505 0.13677469556 0.14787088942 0.18029762764 0.23028828835 0.29708317258 0.38209498983 
0.4839692621 0.58748561361 0.64604726547 0.60710784477 0.48293195023 0.34069214585 0.22691176219 0.15005576628 0.10591358763 
0.088415792344 0.085605025828 0.083775929127 0.076600115977 0.065003354156 0.051325358182 0.03491022872 0.014281975092 0.012914143373 
0.051104566597 0.11558027813 0.24302197383 0.50841082507 0.93422097067 1.0776004825 0.68504029307 0.31548862374 0.13317515289 
0.060883431189 0.041322588896 0.03435295038 0.022406765375 0.003486715283 0.01990048973 0.042130089853 0.056860225645 0.058538540397 
0.044742410985 0.019010326927 0.02901984016 0.071943044419 0.11370370303 0.14459562001 0.15883431206 0.15972362324 0.15506243661 
0.15190375066 0.15062794747 0.14821621923 0.14232688326 0.13361471422 0.1257571323 0.12341629563 0.12646503563 0.13061598407 
0.12804741891 0.11534560306 0.095103533255 0.072127137077 0.051825912657 0.038511971365 0.032452457773 0.03184606722 0.034366889878 
0.037956805864 0.043769049543 0.05107702791 0.057256485777 0.061356809506 0.061751430003 0.063235321575 0.071385749927 0.094621462652 
0.13586082713 0.19262345783 0.25659224764 0.30335758221 0.30845493142 0.2694167915 0.20924661242 0.15107364064 0.10481306536 
0.076605638255 0.070345823101 0.076243253142 0.078090451801 0.069850587566 0.064217725223 0.092625983508 0.1505516325 0.21358252742 
0.25324985293 0.25169859727 0 
Torsion 1 120 double
0 0 -0.04910256424 -0.048256406989 -0.045274297569 -0.037427127959 -0.015653712855 0.043748930759 0.19930930502 
0.50268673853 0.5799849097 0.27268280491 0.075628584399 0.0020610200053 -0.015282036244 -0.0047502988359 0.025824836984 0.07823704073 
0.1616387591 0.28567630536 0.43405677187 0.51138656891 0.43803390858 0.30950342548 0.20692051169 0.13413157681 0.075482178256 
0.021639686466 -0.027718001198 -0.06836846356 -0.10313579102 -0.14016369969 -0.18910163729 -0.26710639352 -0.39461868962 -0.53103452791 
-0.4888772307 -0.25728175567 -0.019916782152 0.16699024857 0.28869581583 0.3214604645 0.27244258905 0.021074396008 -0.14157201928 
0.16927812677 0.18427879375 0.18480848802 0.16703037851 0.13453225013 0.13348578981 0.19640798192 0.34359902427 0.64460852033 
1.0865408409 0.82476066187 0.36318426158 0.20351946222 3.001441335 0.085062594935 0.002586763784 -0.024917426677 -0.067910167499 
-0.21992030263 -1.7997349711 -0.98919850983 -0.21564679135 -0.14067714569 -0.15100086898 -0.18843260269 -0.22807588851 -0.23598647821 
-0.18642733502 -0.10179895043 -0.00013758439023 0.10505714771 0.20712149426 0.30309312883 0.34278231446 0.29861820847 0.22571359958 
0.16756909086 0.13541032117 0.14750287318 0.2095904169 0.35679010297 0.554342936 0.64017024872 0.58061528167 0.52197180274 
0.49336969823 0.39504489582 0.25994994233 0.12249216633 -0.023657406496 -0.18353482105 -0.34795195092 -0.42227818822 -0.33284993245 
-0.21310215512 -0.1405599375 -0.10309401233 -0.090343460666 -0.095181394695 -0.11686340991 -0.16226028942 -0.25485224338 -0.45178435036 
-0.72365787223 -0.6888880153 -0.4514191819 -0.39335038085 -0.66675706248 -1.1870566753 -0.70416598531 -0.25694255497 -0.10046589399 
-0.047578859269 0 0 
FrenetTangent 3 120 double
-0.39874189937 -0.80693250171 0.43573482231 -0.39874189937 -0.80693250171 0.43573482231 -0.460197664 -0.82037921528 0.3394054407 
-0.52509281722 -0.81984195744 0.22833461876 -0.58763863327 -0.80178421535 0.10873319964 -0.64143010104 -0.76713066598 -0.0088298806192 
-0.68211919137 -0.72245078164 -0.11304104069 -0.708741384 -0.67742194253 -0.19693948913 -0.72247973049 -0.64051535623 -0.26031349842 
-0.72438949428 -0.61654133394 -0.30844228654 -0.71404751984 -0.60668774184 -0.34937962635 -0.68927027223 -0.60956578994 -0.39158145966 
-0.64625536143 -0.62190941909 -0.44224730895 -0.57998340281 -0.63856555075 -0.50581942417 -0.48545017872 -0.65230944426 -0.58209149875 
-0.36060956326 -0.65468027912 -0.66434514751 -0.2104947421 -0.63930662403 -0.7395802891 -0.048753682178 -0.60686936011 -0.79330489614 
0.10748037372 -0.56675669696 -0.81684442565 0.24552746631 -0.53265330862 -0.809936242 0.36007159753 -0.51638025239 -0.77698126077 
0.450445132 -0.52503964105 -0.72210287244 0.51671110626 -0.56113947467 -0.64663136534 0.55713750357 -0.62327195125 -0.54875301995 
0.56708062094 -0.70596962596 -0.42429524694 0.53915155659 -0.79832983729 -0.26830033527 0.46456176333 -0.88216158166 -0.077287203948 
0.33632464974 -0.93021900788 0.14689563422 0.15590706196 -0.90740032475 0.39027892421 -0.055276778336 -0.78373356522 0.61863250523 
-0.25152176393 -0.56550179803 0.78545815846 -0.38857884535 -0.30843450491 0.8682595448 -0.45576292104 -0.075448290628 0.88689780428 
-0.46962666017 0.10395554833 0.87672347067 -0.45048306118 0.22918093387 0.86286795696 -0.41222173593 0.31026633668 0.85662596316 
-0.36276267058 0.35861365238 0.86011597657 -0.30705834392 0.38486755893 0.87039768814 -0.24950150016 0.39914344636 0.88228879096 
-0.19486657923 0.41046499132 0.89081171254 -0.14787102541 0.42448765163 0.89327733289 -0.11198212355 0.44193648882 0.89002929382 
-0.088644157651 0.45927868052 0.88385819391 -0.077206079028 0.47086391595 0.87882102502 -0.075465267583 0.47073393603 0.87904183908 
-0.080510420512 0.45254359824 0.88810042443 -0.089052212007 0.40685529683 0.90914161217 -0.096391936042 0.31543485975 0.94403889958 
-0.093225578488 0.1434345039 0.98525912054 -0.061222086629 -0.15169383834 0.98652969318 0.012914963663 -0.51799106505 0.85528852456 
0.099125226121 -0.77218439583 0.62761887191 0.16592604517 -0.87880337431 0.4474071712 0.21458591679 -0.91234002036 0.34869552846 
0.25252604137 -0.91759582558 0.30699918454 0.28338641073 -0.91167702752 0.29755191096 0.30773014605 -0.90190388051 0.30310319618 
0.32436555244 -0.89294068653 0.31216008509 0.33115741253 -0.88858173183 0.31742286305 0.32622286209 -0.89127238071 0.31497966226 
0.30912552116 -0.90115812386 0.30390039152 0.28194176877 -0.91582450073 0.28596210043 0.24976274223 -0.9312121007 0.26544791599 
0.21986943669 -0.94334645395 0.2485053292 0.2000007054 -0.94948027699 0.24184069437 0.19648711581 -0.94784758082 0.25095373449 
0.21328382304 -0.93646897566 0.27845263234 0.25143935194 -0.91259674577 0.32240569459 0.3087244244 -0.87392848379 0.37541741434 
0.38002022142 -0.82098282347 0.42611246741 0.4591391146 -0.75786927955 0.46349264133 0.54094618805 -0.68996567414 0.48096215042 
0.62187431603 -0.62069970417 0.47749786629 0.69909025089 -0.55034148083 0.45650528539 0.76955721386 -0.47764631775 0.42383450748 
0.83004954131 -0.40126991332 0.38729861299 0.87798752231 -0.32089472053 0.35519640905 0.91206626984 -0.23728485322 0.33441144994 
0.93185995457 -0.15130222994 0.3297645528 0.93719649296 -0.064416059093 0.34280213669 0.92843684095 0.020864248589 0.3709039168 
0.90716702596 0.10043976526 0.40860719593 0.87723301991 0.16931211018 0.44921669396 0.8441502106 0.22376098114 0.48717701635 
0.81297606951 0.26212429369 0.51996227272 0.786890601 0.28498071181 0.54734739969 0.76674375912 0.29409904912 0.57062225435 
0.7521904604 0.2917013866 0.59086361569 0.74292840624 0.28006451811 0.60796484182 0.73882841034 0.26116408411 0.62122934674 
0.74040885116 0.23687165384 0.62903620939 0.74832370886 0.20897543682 0.62955610836 0.76228925575 0.17897344622 0.62199967534 
0.78085455457 0.14791895042 0.60694822572 0.80160782881 0.11577233737 0.58653359212 0.82141737822 0.08137853602 0.56449182868 
0.8372345161 0.042463615303 0.54519281582 0.84620698736 -0.0046132221301 0.53283435768 0.8448713402 -0.06493227831 0.53101432913 
0.82802206523 -0.14450763987 0.54175363544 0.78743149724 -0.24748140775 0.56453927229 0.7124415817 -0.37211874665 0.5949408635 
0.59603371132 -0.50552535251 0.62384928704 0.44540842463 -0.62463674155 0.64143610467 0.28389976228 -0.70957102175 0.64491076133 
0.13728258124 -0.75580428349 0.64024477971 0.019874139859 -0.77134304706 0.63610920628 -0.06540160069 -0.76649312819 0.63891385575 
-0.12137589815 -0.74850439181 0.65192719439 -0.15282037967 -0.72145911941 0.67538335083 -0.16514074924 -0.68823320789 0.70644432512 
-0.16306810722 -0.65279795139 0.73977268608 -0.14947243824 -0.62117810491 0.76928262179 -0.12367786088 -0.60072973748 0.78982755664 
-0.080340170615 -0.5974013104 0.79790797171 -0.011991601322 -0.61298215529 0.79000574605 0.086475841759 -0.64358352402 0.76047496763 
0.21116204012 -0.6790544 0.70306167201 0.34645972716 -0.7064224102 0.6171977283 0.34645972716 -0.7064224102 0.6171977283 

FrenetNormal 3 120 double
-0.54368203696 -0.17463134447 -0.82092249099 -0.54368203696 -0.17463134447 -0.82092249099 -0.52189123667 -0.059293927795 -0.85094874535 
-0.48440783466 0.067323533737 -0.87224801033 -0.43211160218 0.19736583293 -0.87995811903 -0.37049600577 0.31982459536 -0.87203494076 
-0.30478242477 0.42141076006 -0.85411980709 -0.2327321627 0.48804951878 -0.84121543475 -0.12745410663 0.49343805492 -0.86039196687 
0.081683432589 0.36750062804 -0.926429223 0.39084965384 0.068583698894 -0.91789586792 0.58597311332 -0.15118090454 -0.79610291079 
0.67644649927 -0.1985999098 -0.70920956667 0.7410463995 -0.15568630643 -0.65315542391 0.803058059 -0.069513052254 -0.59183248427 
0.8624069794 0.03726573699 -0.50484202156 0.91177540746 0.14451317567 -0.38442365745 0.94553956047 0.22787945341 -0.23243470976 
0.96418158787 0.2598120287 -0.053400143831 0.9655732939 0.20844472077 0.15562458829 0.91741779104 0.044770596221 0.39539877389 
0.75230348782 -0.21232438632 0.6236648276 0.47604576709 -0.43945108811 0.76175006977 0.19237527635 -0.54596646075 0.81542159451 
-0.047569844753 -0.54234410817 0.83880866603 -0.24823312101 -0.4550465478 0.85516837931 -0.41745693223 -0.29513603654 0.85943262078 
-0.54917410222 -0.06701025992 0.83301706496 -0.62470682558 0.21547703335 0.75054049203 -0.61951353512 0.51281800143 0.59432371416 
-0.52534901316 0.76135891977 0.3799223732 -0.36530780848 0.91665774796 0.16213814532 -0.17422467917 0.98468905648 -0.0057639590048 
0.037764982954 0.99449997263 -0.097691404438 0.28978466615 0.95169626612 -0.10148430572 0.5874071841 0.80922435253 -0.010428199315 
0.83287210649 0.538783772 0.12663372876 0.93606691475 0.28717820176 0.20324224842 0.96469622874 0.18178359912 0.19056733549 
0.96871629693 0.22284032109 0.10922878448 0.93284123763 0.35990474134 -0.01660730387 0.83518287846 0.52718042746 -0.15668553359 
0.70018440778 0.65984961241 -0.27265414742 0.59465811101 0.72925284779 -0.33848488149 -0.2782539913 -0.85647864414 0.43476320964 
-0.2300962736 -0.87536555254 0.42519507793 -0.13370694885 -0.90938954942 0.39386939363 -0.036895303979 -0.94893593382 0.31330389409 
0.056972670157 -0.98717875352 0.1491047399 0.14635831495 -0.97906454952 -0.14146325147 0.21834345837 -0.83325731764 -0.50794524979 
0.27144698913 -0.5858204569 -0.76363009656 0.35487395143 -0.37008961619 -0.85854420654 0.53944904311 -0.1869092858 -0.82101135727 
0.85052084569 0.059222135255 -0.52259643105 0.94938287267 0.31054123272 0.047289574548 0.82970567279 0.41029260444 0.3784818031 
0.73548577147 0.44559682051 0.51039607514 0.4774594101 0.44796073982 0.75588602798 -0.76162088064 -0.44518501273 -0.47089695116 
-0.75347158965 -0.42705018705 -0.499908693 -0.76785959353 -0.3940919156 -0.50505762709 -0.79569114825 -0.35359826165 -0.49177623565 
-0.84961698027 -0.31035429904 -0.42641669281 -0.97908030865 -0.2031018663 0.012303703098 0.2996530414 0.30174622552 0.90507307449 
0.56157040144 0.35073327928 0.74941634024 0.63099469608 0.40714709525 0.66036121657 0.67387709324 0.47951681538 0.56209722199 
0.71265342441 0.5535468518 0.43094196771 0.74675869873 0.61186079639 0.26072554862 0.76405728936 0.64217352908 0.061883900317 
0.74761070139 0.65206874008 -0.12603411192 0.69754888146 0.66523563243 -0.26624633578 0.62507745874 0.69920267567 -0.34697808131 
0.53568504854 0.7668270141 -0.35357864644 0.42993569164 0.85487914126 -0.29040825556 0.30009514232 0.94203507865 -0.15004271442 
0.1430291665 0.98848685749 0.049359802527 -0.022429723161 0.96963505792 0.24352569059 -0.17013843049 0.91143631035 0.37461549172 
-0.29833544731 0.83833640157 0.45627627451 -0.40276665917 0.76876104178 0.49677507879 -0.48980715937 0.69133087677 0.53117846855 
-0.5618295428 0.58776946671 0.58212938324 -0.6159441715 0.41680563289 0.66849520716 -0.61827057092 0.09909948259 0.77969275595 
-0.50491997535 -0.32100421239 0.80125658445 -0.28949750331 -0.68448809978 0.66907939502 -0.062474876374 -0.89133593222 0.44901797932 
0.17183465458 -0.97145387404 0.16355495129 0.35208836996 -0.92948305527 -0.10997740542 0.45401031565 -0.83277853605 -0.31678785199 
0.48670537212 -0.75313445391 -0.44261312123 0.46914670458 -0.72992600403 -0.49710099399 0.40306157277 -0.78308634392 -0.47362131131 
0.2793775661 -0.89026451115 -0.35969052775 0.087741314499 -0.98510660835 -0.14787302635 -0.11297551264 -0.99187627558 0.058463556813 
-0.28076812767 -0.94321272014 0.17753597678 -0.42789979239 -0.87869746223 0.21164247576 -0.57434104861 -0.79633596909 0.18968759637 
-0.71630178099 -0.68583643842 0.12860846894 -0.83791284252 -0.5432416012 0.05282642382 -0.92449073134 -0.38100816766 -0.012233717326 
-0.97631178549 -0.21237719057 -0.041366972733 -0.99920281153 -0.037356395358 -0.014079814142 -0.9785460915 0.17462715141 0.10932934102 
-0.81853409949 0.44699928987 0.36082345105 -0.43526343701 0.66269186356 0.60941384492 -0.082706390662 0.72341946551 0.68543703567 
0.17194123437 0.71953161486 0.67283762316 0.44386834817 0.65306832778 0.61358181911 0.85754323433 0.33580265545 0.38968728212 
0.993496665 -0.1127892362 0.015587328999 0.93982953513 -0.27668234163 -0.20041788025 0.89842217253 -0.27949927714 -0.33870009446 
0.85803347905 -0.21574286905 -0.46608321499 0.80170650592 -0.11864125592 -0.58582500012 0.80170650592 -0.11864125592 -0.58582500012 

FrenetBinormal 3 120 double
0.73852199722 -0.56423738906 -0.36908187224 0.73852199722 -0.56423738906 -0.36908187224 0.71822534565 -0.56873734998 -0.40086179614 
0.69973322275 -0.56861824331 -0.43248897136 0.68407631149 -0.56408226351 -0.46244005022 0.67178875786 -0.55607802466 -0.48936397017 
0.66469623312 -0.54815858966 -0.50764266789 0.6659740168 -0.55037003824 -0.50355876514 0.67954285349 -0.58843773196 -0.43813530544 
0.68453464296 -0.69629022106 -0.2158523816 0.58083791845 -0.79197617398 0.18815167379 0.42607746042 -0.77818627708 0.46139366694 
0.35323383395 -0.75748712879 0.54903470589 0.33833339512 -0.7536549684 0.563502176 0.34559496214 -0.7547584544 0.55758747982 
0.35526742712 -0.75498675285 0.55116246085 0.35264368688 -0.75525027808 0.55248479397 0.3218353897 -0.76143321078 0.56270902557 
0.2424908965 -0.78184688795 0.57438106595 0.085932981952 -0.8202629159 0.56549471387 -0.16939020436 -0.85518830012 0.48985705059 
-0.48076880647 -0.82416729509 0.29934866698 -0.71161089109 -0.70143084558 0.040058813776 -0.80783015243 -0.55986846538 -0.18427627711 
-0.82228746751 -0.45548848015 -0.34113569913 -0.80479557445 -0.39446433326 -0.44351096168 -0.78096867913 -0.36699545471 -0.50537338517 
-0.76504479309 -0.36083545064 -0.53338939071 -0.76513683097 -0.36082447083 -0.53326478521 -0.78303732835 -0.35039891005 -0.51388047857 
-0.81286236021 -0.31708092296 -0.48858415002 -0.84590583756 -0.25417853821 -0.46886734233 -0.87288368124 -0.1571464842 -0.46192971493 
-0.8820570311 -0.012769041068 -0.4709695802 -0.84444648075 0.20432894214 -0.49513616768 -0.69643810959 0.49888951442 -0.5158325425 
-0.41800394623 0.76230459486 -0.49412994807 -0.17173789487 0.87715770675 -0.44844225152 -0.084321928833 0.89868750538 -0.43040745811 
-0.15367417598 0.88422886302 -0.4410482575 -0.32854434286 0.8308301937 -0.44919906946 -0.53845107813 0.72579124874 -0.42813257259 
-0.70843772374 0.59469452883 -0.38007158399 -0.80026305198 0.49646496015 -0.3363057998 0.9575383594 -0.21178737829 0.1956179866 
0.96983182927 -0.17011596372 0.17460464433 0.98701173011 -0.086483610295 0.13538253132 0.99465940463 -0.0046306332475 0.10310783688 
0.9940136349 0.070033218526 0.083858463688 0.98733535324 0.1357261481 0.082142029234 0.97578652271 0.1933067488 0.10233847257 
0.95733521905 0.24606025909 0.15153754404 0.92007229397 0.30122799553 0.2504569196 0.81421595059 0.36428094396 0.45205285052 
0.46135115636 0.39307841403 0.79538950895 -0.13551495598 0.2690894652 0.95353372065 -0.46571520669 0.13501618077 0.87457416906 
-0.59485096315 0.064034396127 0.80128142856 -0.81385949637 -0.098760728248 0.57260722901 0.55992167168 -0.086277736593 -0.8240411845 
0.58027749892 -0.074445775838 -0.81100915575 0.57523950112 -0.077181901494 -0.81433560062 0.55180990313 -0.088387175894 -0.82927289715 
0.47938337232 -0.11737834933 -0.86972059045 0.037436172949 -0.23924221099 -0.97023795918 -0.93359566628 -0.10263614821 0.34331465594 
-0.79946775736 -0.0034676255723 0.60069899327 -0.73391003932 0.03739548693 0.67821650801 -0.67125173592 0.079452054612 0.73695893918 
-0.58966916825 0.1399038471 0.79543521771 -0.48118886034 0.22640786416 0.84687470132 -0.35155892849 0.33400677696 0.87455462536 
-0.23313209608 0.43535989188 0.86954654293 -0.15715717954 0.50456496889 0.84894982955 -0.13061341879 0.53194888239 0.83664240949 
-0.15511056615 0.5009578696 0.85145870432 -0.21045952514 0.40768643855 0.88853731272 -0.27942445308 0.23720415052 0.93040645204 
-0.3334361747 0.001169525788 0.94277194995 -0.34807993494 -0.23592038019 0.90729374136 -0.33023922668 -0.41091183397 0.84976085922 
-0.29672200439 -0.53582080153 0.79047588247 -0.26123025676 -0.61671700965 0.74257584324 -0.21794349858 -0.68701720659 0.69318683577 
-0.15302769433 -0.7653874239 0.62511168291 -0.03762923936 -0.86316803595 0.50351264339 0.17275852797 -0.95062350163 0.25781669681 
0.42339736629 -0.90103640142 -0.09417044938 0.60353009766 -0.6730823924 -0.42744767431 0.67099140822 -0.37055846651 -0.64222811601 
0.64982119434 -0.01300731383 -0.75997580565 0.56217915872 0.30395808391 -0.76913202815 0.46129136546 0.52387824486 -0.71607392126 
0.3916427522 0.64102143368 -0.66008141635 0.37057557714 0.67365035036 -0.63942860984 0.40350323335 0.61656574008 -0.67604129226 
0.47009205546 0.45345996689 -0.75722355868 0.52558081802 0.1718827751 -0.8331993251 0.52290434312 -0.10938579965 -0.8453435957 
0.48533361514 -0.29911086003 -0.82157408396 0.44368164805 -0.40822018898 -0.79781130131 0.40318649847 -0.47684029059 -0.78106592854 
0.36284373154 -0.52351933843 -0.77089034809 0.31545745133 -0.56099688397 -0.76535553345 0.25439695878 -0.59274087195 -0.76415996106 
0.16723872278 -0.61939955924 -0.76705631842 0.034623113743 -0.63532228316 -0.7714705675 -0.19537189523 -0.61805634244 -0.76146974998 
-0.56148893072 -0.48982936854 -0.6669313086 -0.88723822729 -0.20083882343 -0.41529759817 -0.98279610596 0.05476612529 -0.1763873171 
-0.97151685746 0.23691578647 -0.0050897729671 -0.88353770701 0.43317377717 0.17810558405 -0.49932292956 0.72550696695 0.47362036793 
0.080683539919 0.79397119754 0.60257771603 0.34143322392 0.74006740174 0.57941659839 0.43053400411 0.71251694835 0.5540397726 
0.46817640014 0.70166953496 0.53709470492 0.48706502217 0.69777620392 0.52523902503 0.48706502217 0.69777620392 0.52523902503 

plain_curvature_peaks 1 120 unsigned_char
0 0 0 0 0 1 0 0 0 
0 0 0 0 0 0 0 0 0 
0 0 0 0 0 0 0 0 0 
0 0 0 0 0 0 0 0 0 
0 0 0 0 0 0 0 0 0 
0 0 0 0 0 0 0 0 0 
0 0 0 0 0 1 0 0 0 
0 0 0 0 0 0 0 0 0 
0 0 0 0 0 0 0 0 0 
0 0 0 0 0 0 0 0 0 
0 0 0 0 0 0 0 0 0 
0 0 0 1 0 0 0 0 0 
0 0 0 0 0 0 0 0 0 
1 0 0 
weighted_curvature_peaks 1 120 unsigned_char
0 0 0 0 0 0 0 0 0 
0 1 0 0 0 0 0 0 0 
0 0 0 0 0 0 0 0 0 
0 0 0 0 0 0 0 0 0 
0 0 0 1 0 0 0 0 0 
0 0 0 0 0 0 0 0 0 
0 0 0 0 0 0 0 0 0 
0 0 0 0 0 0 0 0 0 
0 0 0 1 0 0 0 0 0 
0 0 0 0 0 0 0 0 0 
0 0 0 0 0 0 1 0 0 
0 0 0 0 0 0 0 0 0 
0 0 0 0 0 0 0 0 0 
0 0 0 
plain_torsion_tp 1 120 unsigned_char
0 0 0 0 0 1 0 0 0 
0 0 0 0 0 0 0 0 0 
0 0 0 0 0 0 0 0 0 
0 0 0 0 0 0 0 0 0 
0 0 0 0 0 0 0 0 0 
0 0 0 0 0 0 0 0 0 
0 0 0 0 0 1 0 0 0 
0 0 0 0 0 0 0 0 0 
0 0 0 0 0 0 0 0 0 
0 0 0 0 0 0 0 0 0 
0 0 0 0 0 0 0 0 0 
0 0 0 1 0 0 0 0 0 
0 0 0 0 0 0 0 0 0 
1 0 0 
plain_torsion_tn 1 120 unsigned_char
0 0 0 2 0 0 0 0 0 
0 0 0 0 0 0 0 0 0 
0 0 0 0 0 0 0 0 0 
0 0 0 0 2 0 0 0 0 
0 0 0 0 0 0 0 0 0 
0 0 0 0 0 0 0 0 0 
0 0 0 0 0 0 0 0 0 
0 0 0 0 0 0 0 0 0 
0 0 0 0 0 0 0 0 0 
0 0 0 0 0 0 2 0 0 
0 0 0 0 0 0 0 0 0 
0 0 0 0 0 0 0 0 0 
0 0 0 0 0 2 0 0 0 
0 0 0 
plain_torsion_tz 1 120 unsigned_char
0 0 0 3 0 0 0 0 0 
0 0 0 0 0 0 0 3 0 
0 0 0 0 0 0 0 0 0 
0 0 0 0 0 0 0 0 0 
0 0 3 0 0 0 0 0 0 
0 0 0 0 0 0 0 0 0 
0 0 0 0 0 0 0 0 0 
0 0 0 0 0 0 0 0 0 
0 0 0 0 0 0 0 0 0 
0 0 0 0 0 0 0 0 0 
0 0 0 0 0 3 0 0 0 
0 0 0 0 0 0 0 0 0 
3 0 0 0 0 0 3 0 0 
0 0 0 
weighted_torsion_tp 1 120 unsigned_char
0 0 0 0 0 0 0 0 0 
0 1 0 0 0 0 0 0 0 
0 0 0 0 0 0 0 0 0 
0 0 0 0 0 0 0 0 0 
0 0 0 1 0 0 0 0 0 
0 0 0 0 0 0 0 0 0 
0 0 0 0 0 0 0 0 0 
0 0 0 0 0 0 0 0 0 
0 0 0 1 0 0 0 0 0 
0 0 0 0 0 0 0 0 0 
0 0 0 0 0 0 1 0 0 
0 0 0 0 0 0 0 0 0 
0 0 0 0 0 0 0 0 0 
0 0 0 
weighted_torsion_tn 1 120 unsigned_char
0 0 0 0 0 0 2 0 0 
0 0 0 0 0 0 0 0 0 
0 0 0 0 0 0 0 0 0 
0 0 0 0 0 0 0 2 0 
0 0 0 0 0 0 0 0 0 
0 0 0 0 0 0 0 0 0 
0 0 0 0 0 0 0 2 0 
0 0 0 0 0 0 0 0 0 
0 0 0 0 0 0 0 0 0 
0 0 0 0 0 0 0 2 0 
0 0 0 0 0 0 0 0 0 
0 0 0 0 0 0 0 0 0 
0 0 0 0 0 0 0 0 0 
0 0 0 
weighted_torsion_tz 1 120 unsigned_char
0 0 0 0 0 0 0 3 0 
0 0 0 0 0 0 0 0 0 
0 3 0 0 0 0 0 0 0 
0 0 0 0 0 0 0 0 0 
0 0 3 0 0 0 0 0 0 
0 0 0 0 0 0 0 0 0 
0 0 0 0 0 0 0 0 0 
0 0 0 0 0 3 0 0 0 
0 0 0 0 0 0 0 0 0 
0 3 0 0 0 0 0 0 3 
0 0 0 0 0 0 0 0 0 
0 0 0 0 0 0 0 0 0 
0 0 0 0 0 0 0 0 0 
0 0 0 
plain_torsion_tp_raw 1 120 unsigned_char
0 0 0 0 0 0 0 0 1 
0 0 0 0 0 0 0 0 0 
0 0 0 0 0 0 0 0 0 
0 0 0 0 0 0 0 1 0 
0 0 0 0 0 0 0 0 0 
0 0 0 0 0 0 0 0 0 
0 0 0 0 0 0 0 0 0 
0 0 0 0 0 0 0 0 0 
0 0 0 0 0 0 0 0 0 
0 0 0 0 0 0 0 0 0 
0 0 1 0 0 0 0 0 0 
0 0 0 0 1 0 0 0 0 
0 0 0 0 0 0 0 1 0 
0 1 0 
plain_torsion_tn_raw 1 120 unsigned_char
0 0 0 0 2 0 0 0 0 
0 0 0 0 0 0 0 0 0 
0 0 2 0 0 0 0 0 0 
0 0 0 0 0 0 0 0 0 
0 0 0 0 0 0 0 0 0 
0 0 0 0 0 0 0 0 0 
0 0 0 0 0 0 0 0 0 
0 0 0 0 0 0 0 0 0 
0 0 0 0 0 0 0 2 0 
0 0 0 0 0 0 0 0 0 
0 0 0 0 0 0 0 0 0 
2 0 0 0 0 0 0 0 0 
0 0 0 0 0 2 0 0 2 
0 0 0 
plain_torsion_tz_raw 1 120 unsigned_char
0 0 0 3 0 3 0 0 0 
3 0 0 0 0 0 0 0 0 
0 0 0 0 0 0 0 0 0 
0 0 3 0 0 0 0 0 0 
0 0 0 0 0 0 0 0 0 
0 0 0 0 0 0 0 0 0 
0 0 0 0 0 0 0 0 0 
0 0 0 0 0 0 0 0 0 
0 0 0 0 0 0 0 0 0 
0 0 0 0 0 0 0 0 0 
0 0 0 0 0 0 0 0 0 
0 0 0 0 0 0 0 0 0 
0 0 0 0 0 0 0 0 0 
0 0 0 
weighted_torsion_tp_raw 1 120 unsigned_char
0 0 0 0 0 0 0 0 0 
0 0 0 1 0 0 0 0 0 
0 0 0 0 0 0 0 0 0 
0 0 0 0 0 0 0 0 0 
1 0 0 0 0 0 0 0 0 
0 0 0 0 0 0 0 0 0 
0 0 0 0 0 0 0 0 0 
0 0 1 0 0 0 0 0 0 
0 0 0 0 0 1 0 0 0 
0 0 0 0 0 0 0 0 0 
1 0 0 0 0 0 0 0 1 
0 0 0 0 0 0 0 0 0 
0 0 0 0 0 0 0 0 0 
0 0 0 
weighted_torsion_tn_raw 1 120 unsigned_char
0 0 0 0 0 0 0 0 0 
2 0 0 0 0 0 0 0 0 
0 0 0 0 0 2 0 0 0 
0 0 0 0 0 0 0 0 0 
0 0 0 0 0 0 0 0 0 
0 0 0 0 0 0 0 0 2 
0 0 0 0 0 0 0 0 0 
0 0 0 0 0 0 0 0 0 
2 0 0 0 0 0 0 0 0 
0 0 0 0 0 0 0 2 0 
0 0 2 0 0 0 0 0 0 
0 0 0 0 0 0 0 0 0 
0 0 0 0 0 0 0 0 0 
0 0 0 
weighted_torsion_tz_raw 1 120 unsigned_char
0 0 0 0 0 0 3 0 0 
0 3 0 0 3 0 0 0 0 
0 0 0 0 0 0 0 0 0 
0 0 0 0 0 3 0 0 0 
0 0 0 0 0 0 0 0 0 
0 0 0 0 0 0 0 0 0 
0 0 0 0 0 0 0 0 0 
0 0 0 0 0 0 0 0 0 
0 0 0 0 0 0 0 0 0 
0 0 0 0 0 0 0 0 0 
0 0 0 0 0 0 0 0 0 
0 0 0 0 0 0 0 0 0 
0 0 0 0 0 0 0 0 0 
0 0 0 
