# vtk DataFile Version 5.1
vtk output
ASCII
DATASET POLYDATA
POINTS 120 float
-3.57278 15.8438 -5.57656 -3.95594 15.6769 -5.21645 -4.33155 15.4242 -4.97518 
-4.70454 15.1018 -4.82807 -5.07964 14.7257 -4.75053 -5.46087 14.3127 -4.71852 
-5.8506 13.8798 -4.70951 -6.2483 13.4447 -4.70429 -6.64927 13.025 -4.68927 
-7.04406 12.6375 -4.65868 -7.41925 12.2965 -4.61556 -7.75968 12.012 -4.57125 
-8.05169 11.7879 -4.54315 -8.28649 11.6203 -4.55141 -8.4625 11.4975 -4.61496 
-8.58576 11.4009 -4.74807 -8.66773 11.3086 -4.95783 -8.72145 11.1992 -5.24304 
-8.75749 11.0561 -5.59488 -8.78088 10.8693 -5.99853 -8.79033 10.6362 -6.43526 
-8.77985 10.3593 -6.88517 -8.74143 10.0441 -7.32993 -8.66791 9.69721 -7.75496 
-8.55494 9.32419 -8.15103 -8.40167 8.92976 -8.51494 -8.21025 8.51737 -8.84882 
-7.98465 8.08957 -9.15846 -7.72945 7.64823 -9.45092 -7.44906 7.19511 -9.73194 
-7.14764 6.73254 -10.0038 -6.82963 6.26419 -10.264 -6.50068 5.79581 -10.5047 
-6.16843 5.33589 -10.7135 -5.84277 4.89563 -10.8747 -5.53507 4.48814 -10.9717 
-5.25689 4.12715 -10.9891 -5.01821 3.82472 -10.9152 -4.82609 3.58871 -10.7438 
-4.68402 3.4202 -10.4754 -4.5925 3.31284 -10.1168 -4.55033 3.25365 -9.68049 
-4.55582 3.22462 -9.18336 -4.60704 3.20633 -8.64503 -4.70088 3.17989 -8.0858 
-4.83101 3.12925 -7.52483 -4.98622 3.04181 -6.97854 -5.15001 2.9092 -6.45947 
-5.3019 2.72715 -5.97564 -5.42041 2.49519 -5.53021 -5.48697 2.2172 -5.12175 
-5.48958 1.90001 -4.74476 -5.42522 1.55318 -4.39078 -5.30022 1.18675 -4.05013 
-5.12913 0.809437 -3.71418 -4.93191 0.426326 -3.37738 -4.73026 0.0386458 -3.03852 
-4.54382 -0.356515 -2.70058 -4.3869 -0.764087 -2.36905 -4.26628 -1.18878 -2.04957 
-4.18026 -1.63265 -1.74547 -4.11946 -2.09406 -1.45639 -4.06886 -2.5672 -1.17819 
-4.01076 -3.04395 -0.904114 -3.92792 -3.5147 -0.626838 -3.80637 -3.97124 -0.340613 
-3.637 -4.40741 -0.042895 -3.41596 -4.82019 0.26502 -3.14394 -5.20849 0.578422 
-2.8249 -5.57259 0.890598 -2.46458 -5.91272 1.1947 -2.06948 -6.22803 1.48576 
-1.64613 -6.51622 1.76193 -1.20086 -6.77358 2.02501 -0.73944 -6.99588 2.2798 
-0.266761 -7.17939 2.53261 0.213437 -7.32186 2.7894 0.698743 -7.42374 3.0542 
1.18804 -7.48836 3.32826 1.68122 -7.52208 3.61013 2.17864 -7.53307 3.89634 
2.68064 -7.5302 4.18264 3.18701 -7.52095 4.46513 3.69675 -7.51032 4.74099 
4.20799 -7.49932 5.00959 4.71825 -7.48503 5.27184 5.22484 -7.46184 5.53 
5.72543 -7.42324 5.78724 6.21853 -7.36465 6.04703 6.7037 -7.28486 6.31217 
7.18182 -7.18754 6.58517 7.65394 -7.08051 6.86774 8.12146 -6.97382 7.16169 
8.58518 -6.87768 7.46888 9.04491 -6.79971 7.79057 9.50017 -6.74453 8.12783 
9.95037 -6.7126 8.47954 10.3955 -6.70198 8.84288 10.8369 -6.70953 9.21199 
11.2767 -6.7334 9.57834 11.7177 -6.77378 9.9329 12.1615 -6.8339 10.2669 
12.6077 -6.91915 10.5754 13.0523 -7.03587 10.8578 13.4876 -7.18918 11.1194 
13.9024 -7.38164 11.3702 14.2839 -7.61339 11.6227 14.6186 -7.88233 11.8897 
14.8953 -8.18581 12.1799 15.1062 -8.52144 12.4965 15.2478 -8.88742 12.8366 
15.3205 -9.28273 13.1914 15.3281 -9.70638 13.5488 15.2768 -10.1569 13.8946 
15.1743 -10.6319 14.2146 15.0291 -11.1279 14.4949 14.8498 -11.641 14.7223 
14.6451 -12.1665 14.8841 14.4236 -12.6997 14.968 14.194 -13.2358 14.9616 

LINES 2 120
OFFSETS vtktypeint64
0 120 
CONNECTIVITY vtktypeint64
0 1 2 3 4 5 6 7 8 
9 10 11 12 13 14 15 16 17 
18 19 20 21 22 23 24 25 26 
27 28 29 30 31 32 33 34 35 
36 37 38 39 40 41 42 43 44 
45 46 47 48 49 50 51 52 53 
54 55 56 57 58 59 60 61 62 
63 64 65 66 67 68 69 70 71 
72 73 74 75 76 77 78 79 80 
81 82 83 84 85 86 87 88 89 
90 91 92 93 94 95 96 97 98 
99 100 101 102 103 104 105 106 107 
108 109 110 111 112 113 114 115 116 
117 118 119 
CELL_DATA 1
FIELD FieldData 2
Length 1 1 double
63.224012235 
Tortuosity 1 1 double
0.58901457992 
POINT_DATA 120
FIELD FieldData 19
Curvature 1 120 double
0 0.50908307169 0.44991121958 0.30962442256 0.17518760592 0.075504621547 0.017058273903 0.047655614447 0.076709558643 
0.09101285149 0.092143664243 0.11658227917 0.33661566442 1.0265918444 2.0271792011 1.612854185 0.63901126499 0.23733912908 
0.15249562506 0.14058084243 0.1421367332 0.15281652675 0.16841253593 0.18060220127 0.18029596312 0.16365156268 0.13440116742 
0.10155283792 0.074167147461 0.05694310739 0.051376398576 0.0574612522 0.077014170583 0.11438611848 0.18216321086 0.30867601607 
0.542999468 0.89195056434 1.0955136331 0.87127461797 0.51419725692 0.27976880652 0.16821510551 0.13085091492 0.12935632703 
0.14099389697 0.16019772735 0.19277053455 0.24383928797 0.29974400972 0.33252445626 0.31230535701 0.24586482609 0.16085202666 
0.079297455693 0.0092533961076 0.055546472791 0.10708319335 0.14000242504 0.14312613669 0.11424840507 0.061858917828 0.029940425765 
0.084003035058 0.13845472746 0.17398756458 0.18497980744 0.17707583572 0.16019059564 0.14394319734 0.13181003941 0.12350922518 
0.1185907264 0.11837827748 0.12379317608 0.1310779678 0.13189853331 0.12156442041 0.098983827631 0.070501346934 0.042366677804 
0.025034767487 0.022482348135 0.021255572176 0.018660978935 0.028413336169 0.049279800194 0.067003229264 0.074104086766 0.065516681352 
0.04732329169 0.038487208153 0.054269981039 0.073498644698 0.08635493002 0.0850635835 0.075000704942 0.058764131139 0.049857196365 
0.060169605012 0.086193588838 0.11279155225 0.13438542233 0.14754338183 0.16147765738 0.19059719709 0.23635130464 0.28183880112 
0.30639867778 0.29918969388 0.26855036867 0.23194930248 0.20255340564 0.1851423328 0.18070030639 0.18891389633 0.20711499508 
0.23503638723 0.2679526058 0 
Torsion 1 120 double
0 0 -0.02444629422 -0.046105167277 -0.10850636236 -0.42165509768 -5.7672016146 -0.41901797121 0.037804793775 
0.35797005163 1.3164069411 3.0924157679 1.6118588625 0.71552141694 0.43332274106 0.58358405815 1.3551842562 2.4148311437 
1.2799512196 0.19654089655 -0.13710298899 -0.17660968544 -0.13079170298 -0.08571915914 -0.061676709783 -0.057508779022 -0.068529475953 
-0.084481079878 -0.073839290249 0.024778106543 0.19043641155 0.25981580883 0.21051673535 0.13934728936 0.081836231276 0.043407983916 
0.02810708276 0.035312263149 0.060072466486 0.12429092714 0.27892674163 0.56199407989 0.86726153968 0.87928246228 0.67818571396 
0.58906583161 0.5977013292 0.58673168582 0.49969848414 0.39301103801 0.31454632006 0.27852188619 0.26516891935 0.25231674108 
0.16566196633 -7.3239501789 0.020204549298 0.15600921975 0.1643283013 0.18077462005 0.27006150018 0.87650950691 3.7920632888 
0.44239353548 0.10686158064 0.00036063892674 -0.067062973684 -0.1209874361 -0.15460762419 -0.13320617647 -0.040058265308 0.10686982214 
0.26242616816 0.35693644676 0.33983490559 0.2460514368 0.14185751458 0.045816329432 -0.057290375291 -0.21980360632 -0.59828072917 
-1.2525357084 -0.70390989219 0.26181095529 1.4207537562 0.9035450945 0.34909157288 0.19593690597 0.19866621661 0.36484977307 
0.90726905629 1.5003836012 0.63131971405 0.20992955477 0.070640076781 0.04644524066 0.14095519215 0.48090128926 0.89547764638 
0.5543621866 0.079865616101 -0.17650510798 -0.36087997502 -0.55094558673 -0.68057355918 -0.610686597 -0.39254496069 -0.19037101276 
-0.043028976696 0.076916284188 0.18582210489 0.27438227374 0.3276996078 0.3398527734 0.3104258794 0.26325948899 0.21214864264 
0.16560316555 0 0 
FrenetTangent 3 120 double
-0.71908863428 -0.39760639462 0.56993042647 -0.71908863428 -0.39760639462 0.56993042647 -0.73333332767 -0.56344199009 0.38046728418 
-0.7139237804 -0.66659564861 0.21439001151 -0.68853464826 -0.71831439906 0.099721924632 -0.67318214226 -0.73860886513 0.035815467209 
-0.67185504621 -0.74058307455 0.012145228156 -0.68261077113 -0.73057732278 0.017300594614 -0.70147958069 -0.71155432914 0.040209881336 
-0.72463185808 -0.68563607838 0.069367415067 -0.74973782509 -0.65536471817 0.09159847053 -0.77616570216 -0.62423403235 0.08887449376 
-0.80211401717 -0.59640645011 0.030206782884 -0.80840303525 -0.57141658157 -0.14130683953 -0.71261421275 -0.52238664783 -0.4682874907 
-0.4643107301 -0.42738542987 -0.77573013365 -0.24605657052 -0.36574527695 -0.89760044368 -0.12987446512 -0.36531738446 -0.92177862414 
-0.071901413039 -0.39914139943 -0.9140658237 -0.034938993815 -0.44671876044 -0.8939919551 0.0010003955254 -0.49865847752 -0.8667979707 
0.04553152593 -0.55126864552 -0.83308448588 0.10187276205 -0.60251478841 -0.79157935174 0.1683410382 -0.64986833938 -0.74116964072 
0.23934164037 -0.68990510534 -0.68318849874 0.30747526947 -0.71972109362 -0.6224632568 0.36660727783 -0.73861206538 -0.56573078467 
0.41394616298 -0.74828569985 -0.51837928735 0.45012103594 -0.75173404952 -0.48196158746 0.47780669142 -0.75201080933 -0.45407103881 
0.50022343056 -0.75176606755 -0.42967929808 0.52017018075 -0.75314366937 -0.40273762717 0.53968900199 -0.75770346397 -0.36690767478 
0.56003524799 -0.766262335 -0.31496437095 0.58146583182 -0.77827973382 -0.23701928689 0.60208509631 -0.78974319772 -0.11747007476 
0.61319353744 -0.78707837805 0.067091820967 0.58862504541 -0.73568732445 0.33508911733 0.4881495055 -0.59087460262 0.64232177626 
0.3227577808 -0.3811783392 0.86633162741 0.16241824927 -0.20234761855 0.96575139325 0.039090736459 -0.094021494249 0.9948024291 
-0.054630429085 -0.045576650298 0.99746593183 -0.13092016024 -0.040367989017 0.99057071282 -0.19560989651 -0.067325118973 0.97836807835 
-0.24774885398 -0.11988561612 0.96137814849 -0.28139362942 -0.19410574191 0.93975559923 -0.28763516282 -0.28671080014 0.91381777734 
-0.25687761575 -0.39330721335 0.88279291255 -0.18294573946 -0.50408413341 0.84405571075 -0.070015953933 -0.60246732979 0.79506659013 
0.062410418671 -0.67108211412 0.73875147089 0.18684409959 -0.70378691492 0.68540007356 0.2824851938 -0.70957933988 0.64552248272 
0.3410126914 -0.70406541135 0.62289825882 0.36264934403 -0.70079657809 0.61430416686 0.35114139814 -0.70831188362 0.61236753182 
0.31208800631 -0.72961850059 0.60848822495 0.25404554617 -0.76181640216 0.59589984886 0.18975303112 -0.79756727112 0.5726082738 
0.13442838222 -0.82884383336 0.54309014901 0.10136641265 -0.85043470431 0.51622249475 0.098444149156 -0.8603008162 0.50019121858 
0.12751782831 -0.85726088231 0.49884164133 0.18511413371 -0.83981099647 0.51034326459 0.26311264071 -0.8073771237 0.52812301448 
0.35060592847 -0.7624018174 0.54389240825 0.4373682636 -0.71059851659 0.55114313042 0.51703871393 -0.65818153807 0.54723672322 
0.58747666009 -0.60897982868 0.53293033514 0.64909157203 -0.56317858845 0.51138049302 0.70289699338 -0.51829836314 0.48713717109 
0.74955624952 -0.47077010487 0.46533959338 0.78906770151 -0.41743685913 0.4506868437 0.82087689363 -0.35662239916 0.44607352524 
0.84423488714 -0.28881021183 0.45150428223 0.85879032197 -0.21734251491 0.46394117527 0.86552239577 -0.147859576 0.47854835513 
0.86704497633 -0.086788549844 0.490612634 0.86681380064 -0.039122992142 0.49709478624 0.86769151791 -0.0070444239534 0.49705312175 
0.87094621401 0.010468031262 0.49126684462 0.87627526899 0.017143556482 0.48150571277 0.88221972434 0.018687174593 0.47046694622 
0.88711709644 0.021960551863 0.46102168209 0.88971171152 0.03279298527 0.45534348628 0.88888978602 0.054534169082 0.45486368586 
0.8837836347 0.086441606009 0.45984164207 0.87439093145 0.12368741409 0.46919284159 0.86197529649 0.15848395145 0.48154067884 
0.84877756396 0.1825325713 0.49624440281 0.83677303659 0.19032147543 0.51340882464 0.82643367315 0.17999630086 0.53348731528 
0.81668153636 0.15398258856 0.55616600992 0.80586924956 0.11727555291 0.58036298753 0.79349135224 0.076330530312 0.60377572331 
0.78085275883 0.037109461043 0.62361194418 0.77091908195 0.0026770125749 0.63692747051 0.76744112948 -0.027365302663 0.64053513018 
0.77262176662 -0.056360801356 0.63235991794 0.78604584683 -0.089282284154 0.61168668484 0.80377273268 -0.13128603763 0.58027008412 
0.81880816075 -0.18566212044 0.54321521787 0.8229723984 -0.25257150993 0.50884581539 0.8088432383 -0.32895815805 0.48740039609 
0.77078823307 -0.41059697261 0.48712998865 0.70444529153 -0.4925094457 0.51106875969 0.60777173732 -0.56904219391 0.55389935626 
0.48415009821 -0.634523253 0.60247732223 0.34437695926 -0.6854603042 0.64152060084 0.20350943071 -0.72312750136 0.66005342843 
0.073800727193 -0.75251259065 0.65442971631 -0.038925080263 -0.77861117681 0.62629823045 -0.13371146542 -0.80446886958 0.57874958478 
-0.21202841386 -0.83124145014 0.5138887071 -0.27612140228 -0.85857131165 0.43198642805 -0.32717464844 -0.88485761872 0.33163797131 
-0.36501946034 -0.9068991774 0.21046300294 -0.38780367021 -0.9193309446 0.066625278068 -0.38780367021 -0.9193309446 0.066625278068 

FrenetNormal 3 120 double
-0.14495287505 -0.71627838049 -0.68259354352 -0.14495287505 -0.71627838049 -0.68259354352 0.032186142657 -0.58776273834 -0.80839285972 
0.16242106488 -0.45546938891 -0.8753096786 0.22623037729 -0.3433977829 -0.91153594503 0.18857849767 -0.2183030018 -0.95748731042 
-0.56136486985 0.49843471753 -0.66063024096 -0.57181213374 0.5487116738 0.60987407121 -0.50599849058 0.53697815338 0.67499628911 
-0.51284930516 0.60376246922 0.61029211936 -0.59690131224 0.72952621874 0.33391663572 -0.57964050472 0.650924367 -0.4902186795 
-0.21090438969 0.2355985507 -0.94868997113 0.092158562952 0.11423405116 -0.98917004647 0.44170952287 0.18449868221 -0.87798230829 
0.75634383642 0.26438426432 -0.59836858364 0.93445320395 0.15641467311 -0.3198932004 0.96150080695 -0.2734633103 -0.027092732569 
0.66611625714 -0.70132125963 0.2538456672 0.50605010028 -0.77928848833 0.3696251452 0.53584485185 -0.73158470853 0.4214903427 
0.61564613222 -0.64126941709 0.45798840006 0.67622494492 -0.54166503378 0.4993183504 0.705582843 -0.44561564237 0.5509805359 
0.71187295661 -0.35380786718 0.60667692125 0.70639537392 -0.26563987047 0.65608005223 0.70031202814 -0.18124089468 0.69044536448 
0.70126896632 -0.10094999763 0.70571306836 0.70793781338 -0.028549188759 0.70569752459 0.7019885477 0.016108148014 0.71200604384 
0.64911203215 -0.0028607290473 0.760687443 0.54207044112 -0.073261270827 0.83713345595 0.41929957449 -0.13599820117 0.8976036743 
0.31223197736 -0.1569262104 0.93695536543 0.21879783011 -0.13100559092 0.96693590516 0.12253085323 -0.053990039675 0.9909950886 
-0.001383534601 0.083863357331 0.99647630335 -0.1754229836 0.28838802626 0.94130713539 -0.38242747752 0.51673690748 0.76598445995 
-0.55350785463 0.66646570252 0.49945222216 -0.6767428323 0.68943305229 0.25826576493 -0.81211169602 0.57706213649 0.086451627093 
-0.9589108844 0.28091845659 -0.039682950112 -0.974848714 -0.17653353287 -0.13603637965 -0.80804602067 -0.5542410627 -0.19969595114 
-0.55489084147 -0.79587334265 -0.24224321768 -0.24544981242 -0.93218977421 -0.26603874612 0.098888164824 -0.95793073294 -0.26942502065 
0.40732704214 -0.87241056401 -0.27015641496 0.63586719107 -0.71546062749 -0.28946330653 0.78321353039 -0.52681084303 -0.330222503 
0.87034546904 -0.32567477328 -0.36937068992 0.9134114 -0.13236297277 -0.38491513062 0.93022558207 0.038288391624 -0.36498543193 
0.93093368531 0.16082531703 -0.32786840493 0.79473756614 -0.11169444164 -0.59658742249 -0.88404269991 -0.46628096168 -0.032412490164 
-0.8718203037 -0.47445300985 -0.12175261602 -0.84870622197 -0.47106680021 -0.24040344949 -0.81473882419 -0.45335906071 -0.36147781458 
-0.75227642539 -0.44209431321 -0.48850056093 -0.56437135241 -0.47647542872 -0.67413362355 0.80332031555 -0.22796431641 -0.55018973188 
0.96627718789 0.22081773792 0.13246857282 0.91831050483 0.33273875736 0.21445450816 0.88815987298 0.41647740958 0.19421278881 
0.86558188676 0.48552507634 0.12261075629 0.84450859291 0.53517449113 0.019836848245 0.82231942243 0.55942208036 -0.10410429147 
0.79255962504 0.56600764101 -0.2269021619 0.75127323448 0.58014166453 -0.31468107066 0.69903302112 0.6299550957 -0.33839239469 
0.62921662474 0.72502889254 -0.28003489807 0.52697218049 0.8370075341 -0.14737268692 0.39309010413 0.91942579592 0.011678006642 
0.25507422208 0.95738602915 0.13545896949 0.13744321027 0.97009877058 0.20004434323 0.050148590273 0.97621493475 0.21092538979 
-0.00099838535104 0.98440676268 0.1759043172 -0.0021087442823 0.99662067416 0.082114463035 0.084088416867 0.98757012248 -0.1327945456 
0.31322878169 0.75849015257 -0.57147215048 0.47074929282 0.18244945343 -0.86319598021 0.46881243399 0.057719900193 -0.88140984499 
0.37598894146 0.54493580542 -0.74945132188 0.068299165619 0.97662991842 -0.2037872087 -0.10325601157 0.99119020737 0.082946783479 
-0.19857539933 0.9591819778 0.20133987247 -0.27408117127 0.92382968046 0.26724189988 -0.36500401065 0.85321096619 0.37256290661 
-0.48647558816 0.63730247334 0.59765128595 -0.51232190489 -0.058753056988 0.85678138639 -0.31749566213 -0.63351969861 0.70558436491 
-0.23970705438 -0.78615643703 0.5696477724 -0.24056616987 -0.83078540783 0.50191983827 -0.26688861714 -0.84796892642 0.45795105183 
-0.28453696093 -0.86755417981 0.40790741959 -0.22255316088 -0.93582811551 0.27330537646 0.021754070148 -0.99740183202 -0.068675657435 
0.28337596595 -0.86070713319 -0.42294360475 0.35024069237 -0.75104512481 -0.55969873852 0.29151065908 -0.76333122339 -0.57649542847 
0.15803704098 -0.83679204294 -0.52421691174 -0.044312287333 -0.92153903967 -0.3857489074 -0.29579986698 -0.94398959132 -0.14623983782 
-0.52474459931 -0.84276686647 0.11994629747 -0.68244172788 -0.6678530116 0.29706168206 -0.78975909651 -0.50605801971 0.34667830934 
-0.87434460044 -0.37717823306 0.30538189237 -0.93780001126 -0.28318252549 0.20084520441 -0.97222146615 -0.22887355887 0.049013414597 
-0.9671553243 -0.21405904064 -0.1370740887 -0.91391388016 -0.2256914493 -0.33737929599 -0.81033218148 -0.2474422976 -0.53116293642 
-0.67096139613 -0.25850037347 -0.69497364109 -0.51892498686 -0.24514413482 -0.81891465439 -0.36584131439 -0.20497645091 -0.90782420504 
-0.22507383469 -0.13339480989 -0.96516713249 -0.090478436507 -0.033965503314 -0.99531904288 -0.090478436507 -0.033965503314 -0.99531904288 

FrenetBinormal 3 120 double
0.67963240069 -0.57345831287 0.45743345235 0.67963240069 -0.57345831287 0.45743345235 0.67910697445 -0.5805756516 0.44916102906 
0.68112571047 -0.59008294079 0.43343960308 0.6890136824 -0.60506395265 0.39894580918 0.71502723973 -0.63780933182 0.28624343256 
0.48319797162 -0.45066566549 -0.75061320143 -0.45505320441 0.40641392012 -0.79230947659 -0.5018883595 0.4531499746 -0.73672462639 
-0.46031973719 0.40666208181 -0.78913350631 -0.28566066771 0.19567468497 -0.93814146086 0.24816060945 -0.43200618201 -0.86705649794 
0.55868814366 -0.7673282669 -0.3147616383 0.58137021928 -0.81267070321 -0.039686222683 0.54504465982 -0.83250971552 0.099266773788 
0.46082485503 -0.86454765925 0.20049388486 0.25739730716 -0.91747743428 0.30328498784 -0.24217518772 -0.88980954509 0.3867688611 
-0.74237410971 -0.5906222431 0.31630056462 -0.86179612596 -0.43949038787 0.25328962919 -0.84431587333 -0.46489088725 0.26647170394 
-0.78670624761 -0.53373815226 0.31018843433 -0.72961754654 -0.58615264303 0.35225461651 -0.68834159145 -0.61570921769 0.38352055061 
-0.66026697088 -0.63154646602 0.40644383181 -0.6375457116 -0.64143355588 0.42672996029 -0.61250483025 -0.64931036876 0.45081468248 
-0.58040538509 -0.65565052381 0.48296167507 -0.54425647023 -0.65884813319 0.51933036884 -0.52812199778 -0.65895392116 0.5355995568 
-0.57308820371 -0.65942368467 0.48654939612 -0.65998683314 -0.65376402431 0.37014859259 -0.73001619705 -0.63827106308 0.24430800657 
-0.76737977125 -0.62306997877 0.15136739488 -0.78359747062 -0.61409949607 0.09411064208 -0.78897384419 -0.61105708185 0.064261309612 
-0.78993149796 -0.61112565328 0.050335518574 -0.78914341709 -0.61285928805 0.040695949598 -0.78451213166 -0.619556432 0.026278182051 
-0.76776068524 -0.64072345133 0.004121786365 -0.71808039329 -0.69551240656 -0.024960791147 -0.58219112628 -0.81127014567 -0.053798171259 
-0.27839797413 -0.95864883544 -0.059050641866 0.18036046257 -0.98346649014 -0.016240883769 0.55569631713 -0.8296289368 0.054013242442 
0.794176718 -0.59347540935 0.13065327815 0.92767020805 -0.30552444389 0.21466904594 0.95262119647 0.012869653302 0.3038868672 
0.87641232948 0.29018829013 0.3843074095 0.74980248848 0.48375125525 0.45142103553 0.61779797023 0.59958606739 0.50874572802 
0.48847078128 0.66602157484 0.56374777843 0.36161982356 0.69797136175 0.61811575079 0.23427010424 0.70358450771 0.67088475819 
0.13066299343 0.69168425885 0.7102816823 0.48670078512 0.70456263586 0.51644345084 0.3084934736 -0.52997767905 -0.78990849879 
0.37753203093 -0.49249485788 -0.7841673167 0.463851926 -0.44467048378 -0.76623074305 0.54790002331 -0.39793468072 -0.73583527663 
0.64498774396 -0.34288557584 -0.68294969948 0.81927396331 -0.22300668045 -0.52825958914 0.58735442462 0.45597672758 0.66865536997 
-0.22371320843 0.46512719366 0.85650983304 -0.34991223788 0.42895502044 0.83280190695 -0.37675426782 0.41795782973 0.82666043467 
-0.35755206647 0.42779535888 0.83014917376 -0.3090537793 0.45676910169 0.83417489128 -0.23761678347 0.50382933515 0.83047833521 
-0.16346380214 0.55567879083 0.8151691032 -0.11945148924 0.58844330788 0.79966606476 -0.13148631896 0.57837996522 0.80510121336 
-0.20555259171 0.50270131623 0.8396663139 -0.31570949215 0.35378645607 0.88043322295 -0.41429614472 0.16576088267 0.8949201273 
-0.47138582558 0.00080791573855 0.88192672639 -0.49354690441 -0.10803058143 0.86298368851 -0.49835338998 -0.15856212332 0.85235083841 
-0.49822887536 -0.15300677501 0.85343828983 -0.49862750448 -0.072226195579 0.86380205397 -0.48993935125 0.15702111095 0.85749857307 
-0.37860325227 0.6516004211 0.65732523806 -0.10264870316 0.98306576352 0.15180562679 -0.043626364841 0.99815790466 0.042160854632 
-0.26768558627 0.83819013483 0.47516494481 -0.45138486279 0.21241144642 0.86667934271 -0.4463329972 -0.12069795863 0.88668983212 
-0.42366767379 -0.269254122 0.86487451111 -0.40039981339 -0.36227081733 0.84168868612 -0.35181054625 -0.49690430096 0.79329405345 
-0.20716695933 -0.74868379032 0.62972568081 0.19322823551 -0.97996214941 0.048342886928 0.46497729882 -0.75249858681 -0.46641396681 
0.52494932732 -0.59853773393 -0.60512873408 0.54102002784 -0.54409746446 -0.64129188257 0.54693869853 -0.52452106723 -0.6524842604 
0.55615437325 -0.49595628133 -0.66687306148 0.59678627637 -0.35244655173 -0.72085197406 0.64075024246 0.066638770264 -0.7648518818 
0.5681141326 0.50597103765 -0.64902976926 0.50937548438 0.65418643691 -0.55908561212 0.51862407372 0.63252622058 -0.575273544 
0.55188539532 0.51508121098 -0.65583066147 0.56635046805 0.29491258153 -0.76959321502 0.50820768839 -0.025887868339 -0.86084537736 
0.36128742748 -0.34807202539 -0.86505332777 0.19501312592 -0.55803835065 -0.80657490658 0.083030625615 -0.64814833352 -0.75697401076 
0.033469420099 -0.67462346676 -0.73740285869 0.043996008982 -0.67078448747 -0.74034621804 0.11562582918 -0.65169280403 -0.74961800726 
0.24323657483 -0.62281901708 -0.74359427151 0.40403744601 -0.58551516211 -0.70279850396 0.57051117402 -0.54000198817 -0.6188011418 
0.71053131994 -0.49215364317 -0.50292149974 0.80899556811 -0.45028841421 -0.37784456435 0.87127313863 -0.41834393645 -0.25665437602 
0.90338395077 -0.39967450097 -0.15542757402 0.91729055696 -0.39201652885 -0.070007679654 0.91729055696 -0.39201652885 -0.070007679654 

plain_curvature_peaks 1 120 unsigned_char
0 0 0 0 0 0 0 0 0 
0 0 0 0 0 0 0 0 1 
0 0 0 0 0 0 0 0 0 
0 0 0 0 0 0 0 0 0 
0 0 0 0 0 0 0 0 0 
0 0 0 0 0 0 0 0 0 
0 1 0 0 0 0 0 0 0 
0 0 0 0 0 0 0 0 0 
0 0 0 0 0 0 0 0 0 
0 0 0 0 0 0 0 0 0 
0 0 0 0 0 0 0 1 0 
0 0 0 0 0 0 0 0 0 
0 0 0 0 0 0 0 0 1 
0 0 0 
weighted_curvature_peaks 1 120 unsigned_char
0 0 0 0 0 0 0 0 0 
0 0 0 0 0 0 0 0 0 
0 0 1 0 0 0 0 0 0 
0 0 0 0 0 0 0 0 0 
0 0 0 0 0 0 0 0 0 
0 0 0 0 0 0 0 0 0 
0 0 0 0 0 0 0 1 0 
0 0 0 0 0 0 0 0 0 
0 0 0 0 0 0 0 0 0 
0 0 0 0 0 0 0 0 0 
0 0 0 0 0 0 0 0 0 
0 0 0 1 0 0 0 0 0 
0 0 0 0 0 0 0 0 0 
0 1 0 
plain_torsion_tp 1 120 unsigned_char
0 0 0 0 0 0 0 0 0 
0 0 0 0 0 0 0 0 1 
0 0 0 0 0 0 0 0 0 
0 0 0 0 0 0 0 0 0 
0 0 0 0 0 0 0 0 0 
0 0 0 0 0 0 0 0 0 
0 1 0 0 0 0 0 0 0 
0 0 0 0 0 0 0 0 0 
0 0 0 0 0 0 0 0 0 
0 0 0 0 0 0 0 0 0 
0 0 0 0 0 0 0 1 0 
0 0 0 0 0 0 0 0 0 
0 0 0 0 0 0 0 0 1 
0 0 0 
plain_torsion_tn 1 120 unsigned_char
0 0 0 0 0 2 0 0 0 
0 0 0 0 0 0 0 0 0 
0 0 0 0 0 0 0 0 0 
0 0 0 0 0 0 0 0 0 
0 0 2 0 0 0 0 0 0 
0 0 0 0 0 0 0 0 0 
0 0 0 0 0 0 0 0 0 
0 0 0 0 0 0 0 0 0 
0 0 2 0 0 0 0 0 0 
0 0 0 0 0 0 0 0 0 
0 0 0 0 0 0 0 0 0 
0 0 0 0 0 0 0 0 0 
0 0 0 2 0 0 0 0 0 
0 0 0 
plain_torsion_tz 1 120 unsigned_char
0 0 0 0 0 0 3 0 0 
0 0 0 0 0 0 0 0 0 
0 0 0 0 0 0 0 0 0 
0 0 0 0 3 0 0 0 0 
0 0 0 0 0 0 0 0 0 
0 3 0 0 0 0 0 0 0 
0 0 0 0 0 0 0 0 0 
0 0 0 0 0 0 0 0 0 
0 0 0 0 0 0 0 0 3 
0 0 0 0 0 0 0 0 0 
0 0 0 0 0 0 0 0 0 
0 0 0 0 0 0 0 3 0 
0 0 0 0 0 3 0 0 0 
0 0 0 
weighted_torsion_tp 1 120 unsigned_char
0 0 0 0 0 0 0 0 0 
0 0 0 0 0 0 0 0 0 
0 0 1 0 0 0 0 0 0 
0 0 0 0 0 0 0 0 0 
0 0 0 0 0 0 0 0 0 
0 0 0 0 0 0 0 0 0 
0 0 0 0 0 0 0 1 0 
0 0 0 0 0 0 0 0 0 
0 0 0 0 0 0 0 0 0 
0 0 0 0 0 0 0 0 0 
0 0 0 0 0 0 0 0 0 
0 0 0 1 0 0 0 0 0 
0 0 0 0 0 0 0 0 0 
0 1 0 
weighted_torsion_tn 1 120 unsigned_char
0 0 0 0 0 0 2 0 0 
0 0 0 0 0 0 0 0 0 
0 0 0 0 0 0 0 0 0 
0 0 0 0 0 0 0 0 0 
0 0 0 0 0 0 2 0 0 
0 0 0 0 0 0 0 0 0 
0 0 0 0 0 0 0 0 0 
0 0 0 0 0 0 0 0 0 
0 0 0 0 0 0 0 2 0 
0 0 0 0 0 0 0 0 0 
0 0 0 0 0 0 0 0 0 
0 0 0 0 0 0 0 0 0 
0 0 0 0 0 2 0 0 0 
0 0 0 
weighted_torsion_tz 1 120 unsigned_char
0 0 0 0 0 0 0 3 0 
0 0 0 0 0 0 0 0 0 
0 0 0 0 0 0 0 0 0 
0 0 0 0 0 0 0 3 0 
0 0 0 0 0 0 0 0 0 
0 0 0 0 0 3 0 0 0 
0 0 0 0 0 0 0 0 0 
0 0 0 0 0 0 0 0 0 
0 0 0 0 0 0 0 0 0 
0 0 0 0 0 3 0 0 0 
0 0 0 0 0 0 0 0 0 
0 0 0 0 0 0 0 0 0 
0 0 0 3 0 0 0 3 0 
0 0 0 
plain_torsion_tp_raw 1 120 unsigned_char
0 0 0 0 0 0 0 0 0 
0 0 0 0 0 0 0 0 0 
0 0 0 0 0 0 0 1 0 
0 0 0 0 0 0 0 0 0 
0 0 0 0 0 1 0 0 0 
0 0 0 0 0 0 0 0 0 
0 0 0 0 0 0 0 0 0 
0 0 0 0 0 0 0 0 0 
0 0 0 0 0 0 1 0 0 
0 0 0 0 0 0 0 0 0 
0 0 0 0 0 0 0 0 0 
0 0 1 0 0 0 0 0 0 
0 0 0 0 0 0 1 0 1 
0 0 0 
plain_torsion_tn_raw 1 120 unsigned_char
0 0 0 0 0 0 0 0 0 
0 0 0 2 0 0 0 0 0 
0 0 0 0 0 0 0 0 0 
0 0 0 0 0 2 0 0 0 
0 0 0 0 0 0 0 0 0 
0 0 0 0 0 0 0 0 0 
0 0 0 0 0 0 0 0 0 
0 0 0 0 0 2 0 0 0 
0 0 0 0 0 0 0 0 0 
0 0 0 0 0 2 0 0 0 
0 0 0 0 0 0 0 0 0 
0 0 0 0 0 0 0 0 0 
0 0 0 2 0 0 0 2 0 
0 0 0 
plain_torsion_tz_raw 1 120 unsigned_char
0 0 0 0 0 3 0 0 0 
0 0 0 0 0 0 0 0 0 
0 3 0 0 0 0 0 0 3 
0 0 0 0 0 0 0 0 0 
0 3 0 0 0 0 0 0 0 
0 0 0 0 0 0 0 0 0 
0 0 0 0 0 0 0 0 0 
0 0 0 0 0 0 0 0 0 
0 0 0 0 0 0 0 0 0 
0 0 0 0 0 0 0 0 0 
0 0 0 0 0 0 0 0 0 
0 0 0 0 0 0 0 0 0 
0 0 0 0 0 0 0 0 0 
0 0 0 
weighted_torsion_tp_raw 1 120 unsigned_char
0 0 0 0 0 0 0 0 0 
0 0 0 0 0 0 0 0 0 
0 0 0 0 0 0 0 0 0 
1 0 0 0 0 0 0 0 0 
0 0 0 0 0 0 0 0 0 
0 1 0 0 0 0 0 0 0 
0 0 0 0 0 0 0 0 0 
0 0 0 0 0 0 0 0 0 
0 0 0 0 0 0 0 0 0 
0 0 1 0 0 0 0 0 0 
0 0 0 0 0 0 0 0 0 
0 0 0 0 0 0 1 0 0 
0 0 0 0 0 0 0 0 1 
0 1 0 
weighted_torsion_tn_raw 1 120 unsigned_char
0 0 0 0 0 0 0 0 0 
0 0 0 0 2 0 0 0 0 
0 0 0 0 0 0 0 0 0 
0 0 0 0 0 0 0 0 0 
2 0 0 0 0 0 0 0 0 
0 0 0 0 0 0 0 0 0 
0 0 0 0 0 0 0 0 0 
0 0 0 0 0 0 0 0 0 
0 2 0 0 0 0 0 0 0 
0 0 0 0 0 0 0 0 0 
0 2 0 0 0 0 0 0 0 
0 0 0 0 0 0 0 0 0 
0 0 0 0 0 0 2 0 0 
2 0 0 
weighted_torsion_tz_raw 1 120 unsigned_char
0 0 0 0 0 0 3 0 0 
0 0 0 0 0 0 0 0 0 
0 0 0 3 0 0 0 0 0 
0 0 3 0 0 0 0 0 0 
0 0 0 0 0 3 0 0 0 
0 0 0 0 0 0 0 0 0 
0 0 0 0 0 0 0 0 0 
0 0 0 0 0 0 0 0 0 
0 0 0 0 0 0 0 0 0 
0 0 0 0 0 0 0 0 0 
0 0 0 0 0 0 0 0 0 
0 0 0 0 0 0 0 0 0 
0 0 0 0 0 0 0 0 0 
0 0 0 
