# vtk DataFile Version 5.1
vtk output
ASCII
DATASET POLYDATA
POINTS 120 float
-2.04997 16.0827 -4.16618 -2.48691 15.5373 -4.2511 -2.9296 15.0124 -4.33621 
-3.37261 14.5149 -4.43482 -3.81049 14.0519 -4.56005 -4.23779 13.6291 -4.72431 
-4.649 13.2507 -4.93844 -5.03858 12.9172 -5.21046 -5.401 12.6247 -5.54432 
-5.73082 12.3645 -5.939 -6.02283 12.1234 -6.38846 -6.27214 11.8863 -6.88249 
-6.47433 11.6386 -7.4084 -6.62543 11.3688 -7.95295 -6.72205 11.0707 -8.50411 
-6.76109 10.7436 -9.05226 -6.73971 10.3921 -9.59084 -6.65533 10.0249 -10.116 
-6.50606 9.65207 -10.6258 -6.29162 9.28298 -11.1191 -6.01454 8.92426 -11.5938 
-5.68132 8.57809 -12.0457 -5.30351 8.24175 -12.4674 -4.89782 7.90835 -12.8481 
-4.48503 7.56893 -13.1741 -4.08767 7.21569 -13.43 -3.72685 6.84545 -13.6005 
-3.41882 6.46232 -13.6733 -3.17279 6.07858 -13.6402 -2.99044 5.71285 -13.4992 
-2.86714 5.38659 -13.2545 -2.79485 5.11942 -12.9163 -2.76565 4.92359 -12.4995 
-2.77469 4.80249 -12.0218 -2.82188 4.75055 -11.5021 -2.91177 4.7563 -10.9582 
-3.05153 4.80637 -10.4058 -3.24788 4.88993 -9.85625 -3.50353 5.00004 -9.31706 
-3.81455 5.13365 -8.79155 -4.16901 5.28986 -8.2799 -4.54747 5.46773 -7.78054 
-4.92535 5.6644 -7.29162 -5.27626 5.87249 -6.81227 -5.576 6.07967 -6.34321 
-5.80612 6.2688 -5.88642 -5.95654 6.41896 -5.44422 -6.0269 6.50839 -5.0177 
-6.02576 6.51786 -4.60562 -5.96869 6.43446 -4.2041 -5.87512 6.25389 -3.8077 
-5.76469 5.98057 -3.41171 -5.65396 5.62623 -3.01479 -5.55397 5.20602 -2.62096 
-5.46937 4.73519 -2.23986 -5.39868 4.22634 -1.88505 -5.33603 3.68876 -1.57044 
-5.27348 3.12919 -1.30618 -5.20313 2.5532 -1.09499 -5.11879 1.96644 -0.93047 
-5.01682 1.37566 -0.797599 -4.89622 0.788267 -0.675229 -4.75816 0.211782 -0.540205 
-4.60513 -0.347782 -0.371853 -4.44007 -0.887111 -0.156 -4.2656 -1.40621 0.112452 
-4.08333 -1.90902 0.429155 -3.89348 -2.4019 0.781645 -3.69459 -2.89249 1.15214 
-3.48376 -3.38755 1.52132 -3.25681 -3.89092 1.87178 -3.00873 -4.40175 2.19106 
-2.73416 -4.91427 2.47309 -2.42778 -5.41746 2.71849 -2.08491 -5.89705 2.93368 
-1.70215 -6.3371 3.1292 -1.27815 -6.72316 3.31771 -0.814382 -7.04461 3.51204 
-0.315464 -7.29634 3.72359 0.211146 -7.4793 3.96128 0.756063 -7.59945 4.23071 
1.30945 -7.66622 4.5338 1.86255 -7.68992 4.86885 2.40898 -7.68027 5.23083 
2.9455 -7.64495 5.61204 3.47202 -7.58903 6.00322 3.99105 -7.51564 6.39474 
4.5068 -7.42702 6.77803 5.024 -7.3258 7.14648 5.54681 -7.21624 7.49648 
6.07785 -7.10532 7.82792 6.61761 -7.00308 8.14405 7.16433 -6.92179 8.4508 
7.71405 -6.8747 8.75546 8.26102 -6.87407 9.06567 8.79781 -6.93012 9.38772 
9.31633 -7.04908 9.72616 9.80766 -7.23323 10.0826 10.2626 -7.48091 10.4563 
10.6717 -7.78742 10.8443 11.026 -8.14619 11.2421 11.318 -8.54983 11.6439 
11.5419 -8.99117 12.0444 11.695 -9.4636 12.4378 11.7789 -9.96223 12.8191 
11.8004 -10.4835 13.1835 11.7706 -11.0254 13.5262 11.706 -11.5872 13.8429 
11.626 -12.1682 14.1296 11.5518 -12.767 14.383 11.5039 -13.3794 14.6019 
11.4995 -13.9977 14.7882 11.5507 -14.6082 14.9482 11.6636 -15.1915 15.0939 
11.8372 -15.7215 15.2427 12.0654 -16.1664 15.4175 12.338 -16.4908 15.6447 
12.6423 -16.6563 15.953 12.9646 -16.6235 16.3723 13.2909 -16.3527 16.9324 

LINES 2 120
OFFSETS vtktypeint64
0 120 
CONNECTIVITY vtktypeint64
0 1 2 3 4 5 6 7 8 
9 10 11 12 13 14 15 16 17 
18 19 20 21 22 23 24 25 26 
27 28 29 30 31 32 33 34 35 
36 37 38 39 40 41 42 43 44 
45 46 47 48 49 50 51 52 53 
54 55 56 57 58 59 60 61 62 
63 64 65 66 67 68 69 70 71 
72 73 74 75 76 77 78 79 80 
81 82 83 84 85 86 87 88 89 
90 91 92 93 94 95 96 97 98 
99 100 101 102 103 104 105 106 107 
108 109 110 111 112 113 114 115 116 
117 118 119 
CELL_DATA 1
FIELD FieldData 2
Length 1 1 double
71.758429805 
Tortuosity 1 1 double
0.7239717426 
POINT_DATA 120
FIELD FieldData 19
Curvature 1 120 double
0 0.035847534422 0.05235734934 0.083938381753 0.12530888512 0.1721683349 0.21460148468 0.23761530173 0.23138773272 
0.20241212464 0.17049890605 0.15224239811 0.14998371019 0.15471441896 0.15896619394 0.16008611851 0.15978074192 0.15979122532 
0.15929936907 0.15463352201 0.14303622953 0.12616106804 0.11408362685 0.1250625051 0.17282403189 0.25815899681 0.37779421584 
0.51772164991 0.6407565922 0.69637403811 0.66465175999 0.56360217634 0.43895534857 0.32589000433 0.24593124286 0.20350475908 
0.18875446167 0.17791185132 0.15565087984 0.12005907223 0.079541845296 0.050512625471 0.059433319603 0.10241657196 0.16817231213 
0.26756464596 0.4142193982 0.58100460428 0.6494630517 0.54373112839 0.37076648808 0.23888436132 0.16614107565 0.13219125756 
0.12211315043 0.12820643678 0.14100451902 0.14588509175 0.1314120318 0.096532023891 0.057370565654 0.064060424054 0.10924170718 
0.14560341371 0.15460207426 0.13259317338 0.089874261635 0.041264723261 0.026345679748 0.061010496424 0.089992530354 0.10805608002 
0.11835296233 0.12969758117 0.15106074618 0.18184776569 0.21119097918 0.22524279286 0.21671577134 0.19081032264 0.15791857224 
0.12715662008 0.10040997337 0.077315632683 0.057547777157 0.043143230989 0.039351124114 0.044830895024 0.050002386421 0.049658190177 
0.048524658312 0.059754201124 0.086242688089 0.11838853518 0.14906710046 0.1708391483 0.18258541669 0.18608505688 0.18567587286 
0.18580231996 0.18780987285 0.19151871972 0.19302558629 0.18743552515 0.17068876503 0.14471141045 0.11416950747 0.091188336117 
0.089295474611 0.10634975761 0.12947234273 0.1488373188 0.1692397422 0.20797919059 0.30568962711 0.51768067634 0.84006680399 
0.93012133653 0.59267946394 0 
Torsion 1 120 double
0 0 0.63443418852 0.29981526077 0.17928223819 0.14240269863 0.14683497718 0.18354262043 0.25823781479 
0.37759987738 0.50328132378 0.51346165727 0.36660823189 0.1834610942 0.029999879126 -0.085463503823 -0.15683409398 -0.17094548656 
-0.12598644457 -0.036082144501 0.10010167861 0.31384910514 0.59260349778 0.64980716011 0.3997184867 0.15905334902 -0.0053421103525 
-0.12092385758 -0.20150415627 -0.24253226419 -0.2232004374 -0.14257931475 -0.0084071181221 0.17786743427 0.37003860184 0.42824604165 
0.29429699088 0.12121744506 -0.030866594367 -0.20543417351 -0.57866799968 -1.495377782 -1.2382622184 -0.64673628431 -0.5128167747 
-0.49240971318 -0.46679218434 -0.41779803305 -0.39276287886 -0.41686164959 -0.45672261492 -0.43411269814 -0.26175307885 0.019729919625 
0.24417888637 0.297956625 0.25703414294 0.22948190777 0.27496244607 0.52907421061 1.5955175018 1.2990750233 0.4006828767 
0.1637011216 0.071844372652 0.0032391669533 -0.13698842312 -0.94064601917 -2.1077421273 -0.18030577595 0.098070153478 0.25416092124 
0.40136664027 0.49877429474 0.47311639492 0.3729222767 0.28726769785 0.24060033458 0.22510814562 0.22558083088 0.22438230758 
0.19564022249 0.12022292289 -0.029633527831 -0.29566294042 -0.69110674435 -0.83272018581 -0.60274760887 -0.51284736359 -0.67498101614 
-0.97009765833 -0.82143135788 -0.46394337571 -0.26230507031 -0.16471525001 -0.11533840978 -0.09124078575 -0.078302976355 -0.067066789334 
-0.053660458147 -0.035983004091 -0.014959658517 0.017874917304 0.0628449726 0.13005952064 0.24962316158 0.47286714986 0.78068552529 
0.80262985757 0.55681412777 0.4150541479 0.42184393872 0.52405614756 0.6347710435 0.5773627744 0.38902823746 0.21820720772 
0.13886953118 0 0 
FrenetTangent 3 120 double
-0.63020326542 -0.76681437071 -0.12181775377 -0.63020326542 -0.76681437071 -0.12181775377 -0.64881237583 -0.74895247354 -0.13458340668 
-0.66614952693 -0.72635486582 -0.1692732013 -0.6803768628 -0.69660817204 -0.22764968531 -0.68735173408 -0.65676408003 -0.31017501001 
-0.68057104733 -0.60507433793 -0.41316836172 -0.65343388794 -0.54392855506 -0.52646546049 -0.6035571193 -0.48189561903 -0.63521289038 
-0.53507636463 -0.43135490963 -0.72637884464 -0.4555832884 -0.40240032826 -0.79405153683 -0.37123163479 -0.39862328259 -0.83862181698 
-0.28482674737 -0.41722429753 -0.86301657547 -0.19679914419 -0.45117205675 -0.87046761689 -0.10665631197 -0.49158129689 -0.86427556928 
-0.013786447344 -0.52957151319 -0.84815325637 0.082109738731 -0.55791471568 -0.82582635029 0.18061878037 -0.57210329012 -0.80004667464 
0.27985845172 -0.57090092412 -0.77184932586 0.37606861417 -0.55685012147 -0.74060133652 0.46428561432 -0.53624931502 -0.70489399237 
0.53986527617 -0.51821372127 -0.66332497516 0.5997922306 -0.51270568679 -0.61431438112 0.64265274669 -0.52828050871 -0.55490283049 
0.6671469171 -0.57038869947 -0.47913643414 0.67011849447 -0.63945066088 -0.37688732491 0.64535649591 -0.72691037394 -0.23476861257 
0.58512416098 -0.80985966375 -0.041917076065 0.48644862684 -0.85105842216 0.19765448518 0.35994808001 -0.81493987044 0.45421403244 
0.228893814 -0.69447658046 0.68213627752 0.11384951879 -0.51936073867 0.84693725281 0.021231886511 -0.33388103518 0.94237607214 
-0.05546602928 -0.17066369253 0.98376695596 -0.12770507929 -0.043035414911 0.99087807816 -0.20477346807 0.049776282142 0.9775429139 
-0.28979604799 0.11521827035 0.95012788652 -0.37836544918 0.16211947054 0.91134892557 -0.46052257837 0.19806388095 0.86526854437 
-0.52568609863 0.2289414138 0.81929234999 -0.56699641336 0.25844419907 0.78212637291 -0.58197211388 0.28818622665 0.76043221752 
-0.57039402104 0.31679591614 0.75781990491 -0.53209124692 0.33960427754 0.77559515189 -0.46560947879 0.34825247698 0.81358959282 
-0.36820498797 0.32829488296 0.86985490552 -0.23795956405 0.25823648267 0.93631680797 -0.08170548045 0.11673007462 0.98979710251 
0.071073193268 -0.090274139507 0.99337766279 0.17642855253 -0.30915806255 0.93450214457 0.21801613688 -0.48508306346 0.8468549968 
0.21365308708 -0.60633648143 0.76596894824 0.18701552514 -0.68740746742 0.70178071154 0.15444157236 -0.7455021255 0.64836284718 
0.12573436378 -0.79320460098 0.59583330785 0.10671848012 -0.83756893102 0.53580728979 0.10041166684 -0.87997479079 0.46428640379 
0.10733660445 -0.91708356793 0.38397471633 0.12559209732 -0.94402353045 0.30503475056 0.15162603379 -0.95834687975 0.24203471642 
0.1815593673 -0.96108485953 0.20821164458 0.21206144731 -0.95420073276 0.21102346828 0.24030510448 -0.93783331122 0.25044388021 
0.26358557508 -0.91058479849 0.31836766382 0.28002767202 -0.87294750342 0.3994335479 0.28992655826 -0.83052876975 0.47556761185 
0.29626282879 -0.79270591741 0.53277168166 0.30345743764 -0.76771886019 0.5643769443 0.31549391243 -0.75898118232 0.56957102814 
0.33513749611 -0.76432290221 0.55090231427 0.36402934633 -0.77721741449 0.51324041698 0.40299342594 -0.78906653751 0.46364889521 
0.45263221928 -0.79136126384 0.41093968435 0.51335280835 -0.77707177756 0.36418174952 0.58455168414 -0.74083421962 0.33085342315 
0.6629747188 -0.67887185178 0.31559076522 0.7410206872 -0.59056759179 0.31955947908 0.80785754213 -0.48099948446 0.34059607687 
0.85387343827 -0.36192455726 0.37404647607 0.87570955818 -0.24772226707 0.41444715961 0.87682452088 -0.1492285839 0.45706628549 
0.86409313219 -0.070644510256 0.49834968854 0.84453898548 -0.01079422178 0.53538526948 0.82403616762 0.03421790655 0.56550289949 
0.80705742339 0.069271953096 0.5863955251 0.79664226367 0.098526766405 0.59636698436 0.79426116059 0.1243530524 0.59471466026 
0.79976944862 0.14697888004 0.5820361139 0.81156032317 0.16447714631 0.56063991135 0.8270671731 0.17303816402 0.53480621254 
0.84354336883 0.16792479434 0.51013316727 0.85837553342 0.14499498896 0.49210557486 0.86885550763 0.10173072115 0.48450074019 
0.87163435195 0.037927069189 0.48868711249 0.86291720947 -0.044125501196 0.50341516638 0.83941311424 -0.13920278856 0.52536483257 
0.79973434117 -0.24004257769 0.55027678894 0.74458000979 -0.33979982754 0.57457522243 0.67592989523 -0.43355523249 0.59594348484 
0.59564611438 -0.51905741959 0.6130131333 0.50494385545 -0.59564275811 0.62469305067 0.40481947987 -0.66309236371 0.62962664009 
0.29736476615 -0.72072777809 0.62619938179 0.18745395347 -0.76783245961 0.61261270743 0.083112010548 -0.80448577785 0.58812841025 
-0.0065218616959 -0.83267562976 0.55372263898 -0.073223642237 -0.85614920123 0.51151426515 -0.11125159856 -0.87881627069 0.46400974579 
-0.11798044052 -0.9028986206 0.41334573491 -0.093507925733 -0.92756610792 0.3617697932 -0.040349121574 -0.94906226214 0.31249443351 
0.036709387704 -0.96186598481 0.27104657924 0.1319911115 -0.96027280879 0.24587492588 0.24138894497 -0.93816355656 0.24815422298 
0.36427882477 -0.88387345668 0.29337459057 0.49971979936 -0.7677160655 0.40111365584 0.62226883619 -0.52833275001 0.57762098367 
0.64639087881 -0.13684758876 0.75063411143 0.53459178607 0.25017214181 0.80723325113 0.53459178607 0.25017214181 0.80723325113 

FrenetNormal 3 120 double
-0.7617617346 0.6409930656 -0.094058224289 -0.7617617346 0.6409930656 -0.094058224289 -0.50781202899 0.55787229764 -0.65643388299 
-0.2937225097 0.46412162309 -0.83565435814 -0.14575390641 0.43304691222 -0.88950894913 -0.013759389839 0.4387447194 -0.89850639975 
0.12642422282 0.45847413011 -0.87966947651 0.28274421348 0.46976876772 -0.83628524716 0.45569370617 0.44525667139 -0.77077217304 
0.6415601731 0.35192002491 -0.68158113264 0.81825115331 0.16199771048 -0.55156304437 0.92612116098 -0.093803073647 -0.36537730985 
0.93853447253 -0.30452979529 -0.1625258369 0.91424506189 -0.4051482497 0.0032958415601 0.90461526991 -0.40873850927 0.12084719475 
0.92045093897 -0.33808569027 0.19613295231 0.94711909788 -0.21422706459 0.23889784267 0.96329037623 -0.061365080734 0.2613541236 
0.95512875626 0.084341360716 0.28392885347 0.9257027711 0.19078299301 0.32661327155 0.883994262 0.23140989433 0.40620635835 
0.82515514524 0.1700971493 0.53868909966 0.69586102695 -0.044773957583 0.71677941091 0.42696281442 -0.3544359584 0.83191219879 
0.13509219216 -0.53989528559 0.83082078707 -0.071299307486 -0.56086722677 0.82482989925 -0.21757199427 -0.46952326674 0.85569289427 
-0.33203863051 -0.28641503748 0.89873064605 -0.41516168082 -0.026100613072 0.90937315596 -0.45236170433 0.27334627713 0.84891148021 
-0.44129177006 0.55057376033 0.70861139429 -0.41022494521 0.75184025335 0.51618962384 -0.39398641729 0.86351836957 0.31481856427 
-0.43490392482 0.89103533184 0.130056194 -0.55465351688 0.83132897164 -0.035378201317 -0.71303360186 0.67660498337 -0.18381724372 
-0.81189493359 0.49607583361 -0.30779113717 -0.83111649491 0.37396237278 -0.41157929446 -0.79676391877 0.33743552935 -0.50130282392 
-0.72125931207 0.39069904121 -0.57196089373 -0.55872408343 0.57702167753 -0.59571249967 -0.050787135581 0.92039522529 -0.38767679337 
0.66499129001 0.71966302264 0.19967903762 0.84357049037 0.29115881705 0.4512375993 0.86402755745 -0.020024725836 0.50304611153 
0.83516445975 -0.29434337973 0.4646098363 0.7684061628 -0.53957917137 0.34410214588 0.66333768464 -0.73483595362 0.14141866002 
0.51244531723 -0.85111779559 -0.11401006478 0.31216772766 -0.88281108347 -0.35099273598 0.07822208447 -0.85625113423 -0.51060287958 
-0.16219725234 -0.79520797731 -0.58423995426 -0.35006157997 -0.71412092989 -0.60620803997 -0.41474798484 -0.64453524798 -0.64230710971 
-0.33322578385 -0.59947274938 -0.72773140631 -0.16443131205 -0.54633147015 -0.82126991199 0.0057737931682 -0.46612161302 -0.88470181711 
0.14815313439 -0.36714029612 -0.91829115848 0.28633092933 -0.25989291574 -0.92220945086 0.48871556984 -0.14015485863 -0.86111190179 
0.88166532823 0.065311946486 -0.46733349832 0.76876174045 0.29620018113 0.56680758562 0.39717489218 0.33041398608 0.85620015348 
0.22752103078 0.37941390607 0.8968161843 0.13604716087 0.4479670906 0.88363830596 0.087999232555 0.51793957082 0.85087880221 
0.10170691656 0.58082623154 0.80764880479 0.33344451331 0.64041711574 0.69186752663 0.89384529521 0.036171414825 -0.4469141047 
0.60078319598 -0.27705380836 -0.74986714737 0.5752026937 -0.24580370515 -0.7802066391 0.62986454925 -0.12841861899 -0.76601521388 
0.72717223909 0.060858102283 -0.6837520209 0.80873151943 0.296086865 -0.50821835648 0.81095565888 0.52066341493 -0.26694667576 
0.72607018708 0.68579590767 -0.050060527945 0.59155490033 0.79933523318 0.1054797843 0.43231292007 0.87638600414 0.21225718101 
0.26106633372 0.91953387055 0.29377173164 0.089271156472 0.92662550885 0.36523393459 -0.073430032017 0.89790339191 0.43402480251 
-0.21502052177 0.84340041822 0.49238390487 -0.32395793456 0.78578747179 0.52686744615 -0.38533122324 0.7655845175 0.51517006411 
-0.37499433907 0.82724616118 0.41838144614 -0.22962679766 0.96198954889 0.14780947744 0.070118369795 0.95352995468 -0.29302566396 
0.31840861224 0.71807731993 -0.61885452107 0.44751324287 0.44192706049 -0.77745248772 0.52697420973 0.092381509588 -0.84484545271 
0.5285809426 -0.42771817437 -0.73325258297 0.35107787524 -0.86546129634 -0.35738084735 0.13504180377 -0.99024784008 -0.034248013874 
-0.031732776085 -0.99054393883 0.13347560137 -0.16843525663 -0.96433116426 0.20419346208 -0.29596469986 -0.92782314611 0.22704428197 
-0.41522753407 -0.88315939724 0.21820993105 -0.52887244752 -0.82548005744 0.19717152181 -0.63079694317 -0.75849487621 0.16364821797 
-0.7212448183 -0.68153996623 0.12373029744 -0.79664002696 -0.60019264772 0.071648119813 -0.85757920884 -0.51425875461 0.0097894779618 
-0.9009242494 -0.42894744704 -0.06587552285 -0.92202322477 -0.35260687236 -0.15981729111 -0.91559347851 -0.29463677456 -0.27363799659 
-0.86662270345 -0.27156934364 -0.41858712529 -0.72648459213 -0.30559749508 -0.61549192392 -0.38481955212 -0.39238758723 -0.83543156135 
0.15876181818 -0.42804922983 -0.88970137795 0.57322410133 -0.34725188901 -0.74217939559 0.79603151058 -0.21955867089 -0.56402821224 
0.92373744339 -0.07081877702 -0.37642241763 0.98532201438 0.10001257942 -0.1383402036 0.9448967946 0.28549490413 0.16019584034 
0.7751199551 0.46237481823 0.430579357 0.53259123081 0.63752976935 0.5566887587 0.2357089826 0.8301028325 0.50534202575 
-0.11886017287 0.95371491945 0.27622474856 -0.41940264947 0.90779323232 -0.0035867771601 -0.41940264947 0.90779323232 -0.0035867771601 

FrenetBinormal 3 120 double
0.1502095335 0.033520303333 -0.98808576819 0.1502095335 0.033520303333 -0.98808576819 0.56671813469 -0.35755935438 -0.74228152605 
0.68554496211 -0.50695140584 -0.52252117378 0.71822219636 -0.57202047731 -0.39616846189 0.72619437677 -0.61332211307 -0.31060861671 
0.72169243132 -0.65091206595 -0.23552816598 0.70219645673 -0.69531218303 -0.15317018083 0.65426451065 -0.75466754862 -0.049141033312 
0.54963062898 -0.83071369196 0.088436042919 0.35058368108 -0.90101649131 0.25546108303 0.066982598577 -0.91230502682 0.40399612564 
-0.19500453293 -0.85626251192 0.47831761708 -0.35415542302 -0.79517210148 0.49221465376 -0.41266892851 -0.76894776128 0.48828648953 
-0.39061490348 -0.7779794846 0.49210559714 -0.31019897686 -0.80177174734 0.5108215539 -0.19861648278 -0.81788272527 0.54001790755 
-0.096996422423 -0.81667537597 0.56888753223 -0.04058050033 -0.8084057099 0.58722519632 -0.054708437134 -0.8117180132 0.58148160243 
-0.16632639561 -0.83816555578 0.51943626292 -0.39500216619 -0.85739615782 0.32991683384 -0.63616051612 -0.7715535338 -0.0022231093981 
-0.73257429017 -0.61900711798 -0.28313441554 -0.73882177291 -0.52586196501 -0.42143989089 -0.73224136765 -0.50114789259 -0.46116522988 
-0.73985137972 -0.51195092669 -0.43649305216 -0.76877078002 -0.52442189129 -0.36602345241 -0.81596952648 -0.51103309125 -0.27025712109 
-0.86768035335 -0.46321789001 -0.18044387157 -0.90485014306 -0.40620272841 -0.12745807951 -0.91887099747 -0.37796756443 -0.11321046883 
-0.89876698636 -0.42063040959 -0.12364450151 -0.82222313817 -0.55411198685 -0.13003467647 -0.67056014599 -0.73466183936 -0.10305858721 
-0.5067986458 -0.86060067249 -0.050215686132 -0.40753522394 -0.91316450929 -0.0067542750394 -0.39126233213 -0.92027602522 0.0024134739394 
-0.45104227126 -0.89159412753 -0.040258928094 -0.60526231159 -0.77475969154 -0.18277022335 -0.8116212944 -0.26423725707 -0.5210082019 
-0.48211745973 0.61783936535 -0.62115801022 -0.072579148023 0.89436875948 -0.44140320495 0.19147896291 0.93718686644 -0.2915760349 
0.40856506459 0.89754356141 -0.16580151797 0.59407677522 0.8013540022 -0.070032480348 0.74384630845 0.66812439781 -0.017391332787 
0.85577356704 0.51715479091 -0.014231099522 0.93350108498 0.35364655132 -0.059243911734 0.97280536057 0.17756243038 -0.14873235612 
0.96335061619 0.00058661104609 -0.26824475051 0.91786822779 -0.13229614974 -0.37418664485 0.896734024 -0.16970826435 -0.40873854138 
0.93442573099 -0.10704617568 -0.33969054966 0.98059854661 -0.00045881888836 -0.1960262224 0.99492922385 0.091515077777 -0.041723255677 
0.98312232307 0.15545331259 0.096461212342 0.94986379234 0.20316310271 0.23766263842 0.85916624566 0.24885311667 0.44710791611 
0.43554844179 0.26842176223 0.85921319381 -0.60335340306 0.042028731797 0.79636565516 -0.88572318575 -0.10627924621 0.45188401171 
-0.93742030337 -0.16395247064 0.30718522459 -0.95030293745 -0.19310137758 0.24420521094 -0.95299460958 -0.20484277775 0.22325033151 
-0.94967575488 -0.1850897546 0.25270089699 -0.89259640381 -0.021763951307 0.45033097866 0.31859720565 0.65010706321 0.68982362015 
0.72577021855 0.58228145122 0.36634123633 0.73254658293 0.5792353832 0.3575777883 0.66397812331 0.60073509776 0.44525317976 
0.51608585407 0.60831212505 0.60300228005 0.28709270915 0.55542058019 0.78043946303 0.025499959074 0.42435158465 0.90513837875 
-0.18244617198 0.26232991038 0.94757396147 -0.31772809292 0.11087427355 0.94167709669 -0.40058922947 -0.024229479992 0.91593733494 
-0.45027160782 -0.15319293641 0.8796518649 -0.47451388845 -0.28284067026 0.83356926822 -0.47517027472 -0.41412598149 0.77634585172 
-0.45509255555 -0.53262096065 0.71358648961 -0.4263861614 -0.61840240455 0.66013128044 -0.41531222334 -0.64242468931 0.64405455957 
-0.45611134716 -0.55755285429 0.69361174562 -0.5591356164 -0.25469311755 0.78898591771 -0.6035168788 0.27443932641 0.74863237515 
-0.50890547718 0.68026625039 0.527496961 -0.37563511459 0.88184337699 0.28504476691 -0.19559671127 0.98057302149 -0.014780935755 
0.095061937802 0.88817702445 -0.4495606758 0.37407989674 0.47953435509 -0.79379533455 0.47629173634 0.095184429361 -0.87412018985 
0.48912839563 -0.13184931802 -0.86218859301 0.47644879465 -0.26099491523 -0.83957024739 0.45584045463 -0.34607339279 -0.82002602808 
0.43360244291 -0.40300004957 -0.80596518631 0.40730153851 -0.45068697781 -0.79434671571 0.38106953857 -0.48653405137 -0.78617467756 
0.35356982125 -0.51583201684 -0.78032410696 0.33225949239 -0.53383376658 -0.77757645243 0.31729968372 -0.54391768725 -0.77683618621 
0.31608494537 -0.54456914857 -0.77687498978 0.33872435446 -0.53488476099 -0.77405691274 0.39342213436 -0.51574393289 -0.76106978647 
0.49892139179 -0.4825985777 -0.71984446766 0.68327039715 -0.41667579272 -0.5996022416 0.91626251376 -0.27150311924 -0.29453193735 
0.98024247038 -0.03934384009 0.19384726334 0.81404569741 0.13797550879 0.56417405249 0.6039087535 0.22599737305 0.76434246567 
0.3812631067 0.26419411062 0.88591191175 0.10825375032 0.26052565449 0.95937870984 -0.22113666542 0.19581062497 0.95538305111 
-0.51622668764 0.070549557335 0.85354130945 -0.68310080002 -0.064558779146 0.72746509266 -0.74647355682 -0.17830813985 0.64107989848 
-0.75369164192 -0.26776965822 0.60020689686 -0.733698194 -0.33663830266 0.59022166455 -0.733698194 -0.33663830266 0.59022166455 

plain_curvature_peaks 1 120 unsigned_char
0 0 0 0 0 1 0 0 0 
0 0 0 0 0 0 0 0 0 
0 0 0 0 0 0 0 0 0 
0 0 0 0 0 0 0 0 0 
1 0 0 0 0 0 0 0 0 
0 0 0 0 0 0 0 0 0 
0 0 0 0 0 0 0 0 0 
0 0 0 0 0 0 0 0 0 
0 0 0 0 0 0 0 0 1 
0 0 0 0 0 0 0 0 0 
0 0 0 0 0 0 0 0 0 
0 0 0 0 0 0 0 0 0 
0 0 1 0 0 0 0 0 0 
0 0 0 
weighted_curvature_peaks 1 120 unsigned_char
0 0 1 0 0 0 0 0 0 
0 0 0 0 0 0 0 0 0 
0 0 0 0 0 0 0 0 0 
0 0 0 0 0 0 0 0 0 
0 0 0 0 1 0 0 0 0 
0 0 0 0 0 0 0 0 0 
0 0 0 0 0 0 0 0 0 
0 0 0 0 0 0 0 0 0 
0 0 0 0 0 0 0 0 0 
0 0 0 0 1 0 0 0 0 
0 0 0 0 0 0 0 0 0 
0 0 0 0 0 0 0 0 0 
0 0 0 0 0 1 0 0 0 
0 0 0 
plain_torsion_tp 1 120 unsigned_char
0 0 0 0 0 1 0 0 0 
0 0 0 0 0 0 0 0 0 
0 0 0 0 0 0 0 0 0 
0 0 0 0 0 0 0 0 0 
1 0 0 0 0 0 0 0 0 
0 0 0 0 0 0 0 0 0 
0 0 0 0 0 0 0 0 0 
0 0 0 0 0 0 0 0 0 
0 0 0 0 0 0 0 0 1 
0 0 0 0 0 0 0 0 0 
0 0 0 0 0 0 0 0 0 
0 0 0 0 0 0 0 0 0 
0 0 1 0 0 0 0 0 0 
0 0 0 
plain_torsion_tn 1 120 unsigned_char
0 0 2 0 0 0 0 0 0 
0 0 0 0 0 0 0 0 0 
2 0 0 0 0 0 0 0 0 
0 0 0 0 0 0 0 0 0 
0 0 0 0 0 0 0 0 0 
0 0 0 0 0 0 0 0 0 
2 0 0 0 0 0 0 0 0 
0 0 0 0 0 0 0 0 0 
0 0 0 0 0 0 0 0 0 
0 0 0 0 0 0 0 0 0 
0 0 0 0 0 0 2 0 0 
0 0 0 0 0 0 0 0 0 
0 0 0 0 0 0 0 0 0 
0 0 0 
plain_torsion_tz 1 120 unsigned_char
0 0 3 0 0 0 0 0 3 
0 0 0 0 0 0 0 0 0 
0 0 0 0 0 0 0 3 0 
0 0 0 0 0 0 0 0 0 
0 0 0 0 0 0 0 0 0 
0 0 0 0 0 0 0 0 0 
0 0 0 0 0 0 0 0 3 
0 0 0 0 0 0 0 0 0 
0 0 0 0 0 0 0 0 0 
0 0 0 0 0 0 0 0 0 
3 0 0 0 0 0 0 0 0 
0 0 3 0 0 0 0 0 0 
0 0 0 0 0 0 0 0 0 
0 0 0 
weighted_torsion_tp 1 120 unsigned_char
0 0 1 0 0 0 0 0 0 
0 0 0 0 0 0 0 0 0 
0 0 0 0 0 0 0 0 0 
0 0 0 0 0 0 0 0 0 
0 0 0 0 1 0 0 0 0 
0 0 0 0 0 0 0 0 0 
0 0 0 0 0 0 0 0 0 
0 0 0 0 0 0 0 0 0 
0 0 0 0 0 0 0 0 0 
0 0 0 0 1 0 0 0 0 
0 0 0 0 0 0 0 0 0 
0 0 0 0 0 0 0 0 0 
0 0 0 0 0 1 0 0 0 
0 0 0 
weighted_torsion_tn 1 120 unsigned_char
0 2 0 0 0 0 0 0 0 
0 0 0 0 0 0 0 0 0 
0 0 0 2 0 0 0 0 0 
0 0 0 0 0 0 0 0 0 
0 0 0 0 0 0 0 0 0 
0 0 0 0 0 0 0 0 0 
0 0 0 0 0 2 0 0 0 
0 0 0 0 0 0 0 0 0 
0 0 0 0 0 0 0 0 0 
0 0 0 0 0 0 0 0 0 
0 0 0 0 0 0 0 0 0 
0 0 2 0 0 0 0 0 0 
0 0 0 0 0 0 0 0 0 
0 0 0 
weighted_torsion_tz 1 120 unsigned_char
0 3 0 0 0 0 0 0 0 
3 0 0 0 0 0 0 0 0 
0 0 0 0 0 0 0 0 0 
0 3 0 0 0 0 0 0 0 
0 0 0 0 0 0 0 0 0 
0 0 0 0 0 0 0 0 0 
0 0 0 0 0 0 0 0 0 
0 0 0 3 0 0 0 0 0 
0 0 0 0 0 0 0 0 0 
0 0 0 0 0 0 0 0 0 
0 0 0 0 0 3 0 0 0 
0 0 0 0 0 0 0 3 0 
0 0 0 0 0 0 0 0 0 
0 0 0 
plain_torsion_tp_raw 1 120 unsigned_char
0 0 0 0 0 1 0 0 0 
0 0 0 0 0 0 0 0 0 
0 0 1 0 0 0 0 0 0 
0 0 0 0 0 0 0 0 0 
0 0 0 0 0 0 0 0 0 
0 0 0 0 0 0 0 0 0 
0 0 0 0 1 0 0 0 0 
0 0 0 0 0 0 0 0 0 
0 0 0 0 0 0 0 0 0 
0 0 0 1 0 0 0 0 0 
0 0 0 0 0 0 0 0 0 
0 0 0 0 0 1 0 0 0 
0 0 0 1 0 0 0 0 0 
0 0 0 
plain_torsion_tn_raw 1 120 unsigned_char
0 0 0 0 2 0 0 0 0 
0 0 0 2 0 0 0 0 0 
0 0 0 0 0 0 0 0 0 
0 0 0 0 0 0 0 0 0 
0 0 0 0 0 0 0 0 0 
0 0 0 2 0 0 0 0 0 
0 0 0 0 0 0 0 0 0 
0 0 0 0 0 2 0 0 0 
0 0 0 0 0 0 0 0 0 
0 0 0 0 0 0 0 0 0 
0 0 0 0 0 0 0 2 0 
0 0 0 0 0 0 0 0 2 
0 0 0 0 0 0 0 0 0 
0 0 0 
plain_torsion_tz_raw 1 120 unsigned_char
0 0 3 0 0 3 0 0 0 
0 0 0 0 0 0 0 0 3 
0 0 0 0 0 0 0 0 0 
0 0 0 0 0 0 0 0 0 
0 0 0 0 0 0 0 0 0 
0 0 0 0 0 0 0 0 0 
0 0 0 0 0 0 0 0 0 
0 0 0 0 0 0 0 0 0 
0 0 0 0 0 0 0 0 0 
0 0 0 0 0 0 0 0 0 
0 0 0 0 0 0 0 0 0 
0 0 0 0 0 0 0 0 0 
0 0 0 0 0 0 0 0 0 
0 0 0 
weighted_torsion_tp_raw 1 120 unsigned_char
0 0 0 0 1 0 0 0 0 
0 0 0 0 0 0 0 0 0 
0 0 0 0 0 1 0 0 0 
0 0 0 0 0 0 0 0 0 
0 0 0 0 0 0 0 0 0 
0 0 0 0 0 0 0 0 0 
0 0 0 0 0 0 0 0 0 
1 0 0 0 0 0 0 0 0 
0 0 0 0 0 0 0 0 0 
0 0 0 0 0 0 0 0 1 
0 0 0 0 0 0 0 0 0 
0 0 0 0 0 0 0 0 0 
0 1 0 0 0 0 0 1 0 
0 0 0 
weighted_torsion_tn_raw 1 120 unsigned_char
0 0 2 0 0 0 0 0 0 
0 0 0 2 0 0 0 0 0 
0 0 0 0 0 0 0 0 0 
0 0 0 0 0 0 0 0 0 
0 0 0 0 0 0 0 0 0 
0 0 0 0 0 0 0 2 0 
0 0 0 0 0 0 0 0 0 
0 0 0 0 0 0 0 0 0 
2 0 0 0 0 0 0 0 0 
0 0 0 0 0 0 0 0 0 
0 0 0 0 0 0 0 0 0 
0 0 0 2 0 0 0 0 0 
0 0 0 0 2 0 0 0 0 
0 0 0 
weighted_torsion_tz_raw 1 120 unsigned_char
0 3 0 3 3 0 0 0 0 
0 0 0 0 0 0 0 0 0 
0 0 3 0 0 0 0 0 0 
0 0 0 0 0 0 0 0 0 
0 0 0 0 0 0 0 0 0 
0 0 0 0 0 0 0 0 0 
0 0 0 0 0 0 0 0 0 
0 0 0 0 0 0 0 0 0 
0 0 0 0 0 0 0 0 0 
0 0 0 0 0 0 0 0 0 
0 0 0 0 0 0 0 0 0 
0 0 0 0 0 0 0 0 0 
0 0 0 0 0 0 0 0 0 
0 0 0 
