# vtk DataFile Version 5.1
vtk output
ASCII
DATASET POLYDATA
POINTS 120 float
-1.14972 15.4142 -11.1906 -1.26054 14.8617 -10.8654 -1.42758 14.324 -10.4967 
-1.64725 13.8021 -10.0886 -1.91578 13.2972 -9.64511 -2.22878 12.8101 -9.17181 
-2.58062 12.3414 -8.67664 -2.96383 11.8912 -8.17197 -3.36853 11.4584 -7.67614 
-3.78221 11.041 -7.21407 -4.18981 10.6357 -6.81595 -4.5742 10.238 -6.51375 
-4.91731 9.84265 -6.33611 -5.20204 9.44442 -6.30286 -5.41433 9.03868 -6.42069 
-5.54494 8.62246 -6.68148 -5.58983 8.19539 -7.06409 -5.54917 7.7602 -7.53864 
-5.42548 7.32263 -8.07233 -5.2219 6.89064 -8.63471 -4.94146 6.473 -9.20143 
-4.58793 6.07759 -9.7555 -4.16756 5.70978 -10.2862 -3.69084 5.37122 -10.7862 
-3.17368 5.05915 -11.2478 -2.63738 4.76678 -11.6594 -2.1074 4.4845 -12.0035 
-1.61092 4.2021 -12.2571 -1.17382 3.91134 -12.3949 -0.817995 3.60832 -12.3946 
-0.559726 3.296 -12.2437 -0.409344 2.9839 -11.9443 -0.372106 2.68786 -11.5156 
-0.449403 2.42781 -10.9913 -0.639464 2.22447 -10.4147 -0.937411 2.09594 -9.83145 
-1.33493 2.05471 -9.28241 -1.82012 2.10561 -8.79756 -2.37788 2.24435 -8.39256 
-2.99055 2.4574 -8.06766 -3.63879 2.72353 -7.80955 -4.30209 3.01681 -7.59483 
-4.95916 3.31078 -7.39466 -5.58804 3.58208 -7.17962 -6.16674 3.81465 -6.92417 
-6.67417 4.00085 -6.61021 -7.09159 4.14168 -6.22898 -7.40426 4.24387 -5.78158 
-7.60267 4.31554 -5.27809 -7.6826 4.36221 -4.7352 -7.6444 4.3834 -4.17313 
-7.49184 4.3729 -3.61207 -7.2315 4.32083 -3.06869 -6.87328 4.21714 -2.55335 
-6.43157 4.05548 -2.06892 -5.92652 3.83388 -1.61154 -5.3844 3.5555 -1.17336 
-4.83656 3.22716 -0.747013 -4.31684 2.85727 -0.329945 -3.8581 2.45474 0.0718312 
-3.48803 2.02689 0.443003 -3.22515 1.57864 0.76039 -3.07557 1.1119 0.998104 
-3.03154 0.625935 1.13315 -3.072 0.11728 1.15207 -3.16604 -0.418345 1.05501 
-3.27834 -0.985267 0.856865 -3.3756 -1.58565 0.585999 -3.43214 -2.21882 0.279672 
-3.43334 -2.8798 -0.0207811 -3.37595 -3.55915 -0.274547 -3.26571 -4.24362 -0.446135 
-3.11341 -4.91713 -0.508249 -2.93076 -5.56229 -0.444724 -2.72685 -6.16293 -0.250795 
-2.50621 -6.70585 0.0669762 -2.26844 -7.18286 0.492681 -2.00919 -7.5913 1.00358 
-1.72217 -7.93392 1.57332 -1.40139 -8.21656 2.17526 -1.04329 -8.44585 2.78553 
-0.648236 -8.62588 3.38579 -0.221145 -8.75686 3.96401 0.228992 -8.83445 4.51517 
0.690728 -8.85143 5.03969 1.15249 -8.80053 5.54194 1.6052 -8.67803 6.02784 
2.0443 -8.48649 6.5026 2.47084 -8.23612 6.9694 2.89138 -7.94336 7.428 
3.31654 -7.62826 7.8752 3.75832 -7.31013 8.30565 4.22715 -7.00442 8.71406 
4.72915 -6.72008 9.09729 5.26456 -6.45931 9.456 5.82786 -6.21902 9.79557 
6.40945 -5.99402 10.1246 6.99838 -5.78053 10.4539 7.58511 -5.57886 10.7937 
8.16349 -5.39487 11.152 8.73135 -5.23967 11.5337 9.28978 -5.12698 11.9397 
9.84109 -5.0708 12.3681 10.3865 -5.08237 12.8139 10.9237 -5.16888 13.2705 
11.4449 -5.33341 13.7298 11.9358 -5.57574 14.1835 12.3764 -5.89377 14.6226 
12.7434 -6.28402 15.0396 13.0135 -6.74061 15.4276 13.1672 -7.25524 15.7833 
13.1933 -7.81553 16.1067 13.0906 -8.40508 16.4018 12.8693 -9.00377 16.6775 
12.5508 -9.58844 16.9471 12.166 -10.1339 17.2279 11.7526 -10.613 17.5402 
11.3528 -10.9975 17.9069 11.0105 -11.2584 18.3514 10.771 -11.3667 18.8981 

LINES 2 120
OFFSETS vtktypeint64
0 120 
CONNECTIVITY vtktypeint64
0 1 2 3 4 5 6 7 8 
9 10 11 12 13 14 15 16 17 
18 19 20 21 22 23 24 25 26 
27 28 29 30 31 32 33 34 35 
36 37 38 39 40 41 42 43 44 
45 46 47 48 49 50 51 52 53 
54 55 56 57 58 59 60 61 62 
63 64 65 66 67 68 69 70 71 
72 73 74 75 76 77 78 79 80 
81 82 83 84 85 86 87 88 89 
90 91 92 93 94 95 96 97 98 
99 100 101 102 103 104 105 106 107 
108 109 110 111 112 113 114 115 116 
117 118 119 
CELL_DATA 1
FIELD FieldData 2
Length 1 1 double
79.644799497 
Tortuosity 1 1 double
0.89595575418 
POINT_DATA 120
FIELD FieldData 19
Curvature 1 120 double
0 0.15788544246 0.13419104459 0.11317594427 0.094414613273 0.077040450094 0.060748118799 0.047773993538 0.04989469273 
0.084206879811 0.16140031145 0.30574501285 0.53583185626 0.74081557715 0.68869268692 0.46292270045 0.28342670672 0.18900146549 
0.14880080013 0.13574439037 0.13260267988 0.1287953298 0.11918872688 0.10455962309 0.092802016631 0.10239932675 0.16054559766 
0.30014019141 0.56892242199 0.90633236691 0.95721357522 0.68642620341 0.45222835278 0.33978897082 0.30386617797 0.30374983268 
0.30775095142 0.28878703321 0.2373210684 0.16664231126 0.093044291367 0.022788382929 0.048380068568 0.1262810682 0.21668057607 
0.31421591176 0.39704442727 0.43678951713 0.42902176279 0.39652617102 0.36169462573 0.32863074096 0.2874897327 0.23120088731 
0.1688201756 0.11486034081 0.084517281122 0.086710254926 0.1141483809 0.16367536096 0.24652906947 0.37803308925 0.52957402408 
0.57390481624 0.44418074877 0.2679991644 0.14823949634 0.10442025351 0.11489408782 0.14641651189 0.18742525573 0.2356580557 
0.28276390026 0.31464645925 0.31457269216 0.28104696845 0.22925498645 0.17781108998 0.13999586771 0.11934525327 0.1132870479 
0.11431066988 0.11952720081 0.13030145595 0.14649778526 0.15948016028 0.1568279867 0.13199989732 0.091853351134 0.052445969567 
0.049417096065 0.077045438837 0.097653599084 0.0989749258 0.080625157753 0.051852903126 0.026875965792 0.03179134261 0.053966959377 
0.077649249891 0.10168570282 0.12507937871 0.14240754004 0.15215922771 0.15748998955 0.16531228578 0.18437045729 0.21963969907 
0.26892536273 0.31815954355 0.33807084744 0.31248752357 0.25430125017 0.19248040662 0.14965595784 0.15043758507 0.21869348548 
0.36949517898 0.57662671278 0 
Torsion 1 120 double
0 0 0.00617030972 0.015012233638 0.04095547924 0.10791698877 0.2777107167 0.67656382512 0.93768138659 
0.54397720432 0.28933325906 0.1859550243 0.13868894429 0.12243575578 0.14097549813 0.19379500805 0.255112047 0.27322328787 
0.21393045325 0.11923066147 0.052645247483 0.034554501517 0.074507360833 0.20617940741 0.47116315677 0.6326622206 0.40553985758 
0.17422505048 0.054521672173 0.013181518902 0.0037278166579 0.008770101017 0.029667938343 0.049854935775 0.050794147153 0.038578874812 
0.027015366946 0.022132100866 0.024546422806 0.035784044652 0.064280001908 0.49090802107 0.22561682484 0.13645137903 0.14641254861 
0.15550881883 0.14723350604 0.11733751885 0.054151347997 -0.036405827507 -0.1178941926 -0.16173937061 -0.17279908994 -0.19260601771 
-0.26815524288 -0.45094407837 -0.67377279837 -0.48476712573 -0.13150155022 0.10529972565 0.23637380111 0.28643998593 0.28941805856 
0.30844425504 0.40118883362 0.61985523179 1.0377726728 1.2169948234 0.75353513213 0.43782510804 0.27900926077 0.17443480301 
0.094250254882 0.026636473457 -0.035365887985 -0.10041387383 -0.17783330968 -0.2696712135 -0.34550968304 -0.32476962105 -0.179631288 
0.013271855409 0.18393095579 0.26754874038 0.24713776139 0.17290846968 0.089078467312 -0.021303881122 -0.27015712594 -1.0972156593 
-1.1377797014 -0.32733971055 -0.10730535547 -0.053657702489 -0.082041069258 -0.30552029483 -1.3771042964 -0.68591739768 0.058346626651 
0.22615680372 0.2346034582 0.18685316316 0.12839378431 0.063448643678 -0.0073543027259 -0.071152774438 -0.11364735554 -0.12392798422 
-0.11645245628 -0.10820228573 -0.11288180674 -0.14021851429 -0.21005939637 -0.36431406239 -0.64373187103 -0.77871179674 -0.51387005276 
-0.26754950238 0 0 
FrenetTangent 3 120 double
-0.21021547336 -0.82475167546 0.52497059783 -0.21021547336 -0.82475167546 0.52497059783 -0.28235221411 -0.77367461834 0.56719027858 
-0.3436677949 -0.72284151096 0.59949361696 -0.39542619439 -0.67457119897 0.62337133582 -0.43901146161 -0.63110810631 0.63950879175 
-0.4760281948 -0.59508716146 0.64750940381 -0.50843427882 -0.56979672891 0.64562084216 -0.53844251114 -0.55935049059 0.63024335845 
-0.56791771989 -0.56890725053 0.59482266578 -0.59654821958 -0.60487658185 0.52749838147 -0.61741060044 -0.67303129585 0.40722601251 
-0.6074175236 -0.76773333726 0.20403302399 -0.52374530062 -0.84719945796 -0.089128774895 -0.35432928702 -0.84934375288 -0.3912364321 
-0.16323200175 -0.78436214285 -0.59844075936 -0.0034740356331 -0.70919782311 -0.70500097785 0.12231864023 -0.64956726509 -0.75040023879 
0.2277657533 -0.60517246558 -0.7628165235 0.32405331806 -0.56882159629 -0.7559308425 0.41629645685 -0.53389360071 -0.73597206682 
0.50396591749 -0.49701312801 -0.70639670483 0.58320857066 -0.45921609079 -0.67006592591 0.65029937591 -0.42570668273 -0.62919356479 
0.70424010688 -0.40407244853 -0.58375622326 0.74685660614 -0.40250619 -0.52933352139 0.78046101494 -0.42935343462 -0.4544625753 
0.80253375097 -0.49271022361 -0.33641672686 0.792849402 -0.59371424072 -0.13745263222 0.6959424007 -0.69735025214 0.17136744367 
0.46887089226 -0.71643350033 0.51660732283 0.1940235097 -0.62889554956 0.75289127066 -0.036281107803 -0.50364368346 0.86314930419 
-0.21841870669 -0.3785706132 0.89943179808 -0.37499839009 -0.25501979546 0.89125816201 -0.51916340661 -0.12672404313 0.84522800127 
-0.64929838901 0.0071170363717 0.76050046011 -0.75355988382 0.13702423051 0.64294001411 -0.82220485164 0.24712590836 0.51274551911 
-0.85805648743 0.32608502336 0.39674629416 -0.87307346112 0.37239101711 0.31475015783 -0.87822526361 0.39060248144 0.2759530537 
-0.87790891795 0.38590379413 0.28346815244 -0.86844972065 0.36236051914 0.33836361636 -0.83814840479 0.32316055263 0.43940244511 
-0.76921966085 0.27199897803 0.57820210075 -0.64563968962 0.21490694685 0.73277854457 -0.46740073056 0.1590067887 0.86962831038 
-0.25554009251 0.10864718997 0.96067426802 -0.037674562768 0.061251025148 0.99741111847 0.16744027092 0.0093850863887 0.98583755042 
0.3496921711 -0.052995373615 0.93536456842 0.50044308471 -0.12601571672 0.85654933198 0.61175228977 -0.20292882113 0.7645776805 
0.68144896517 -0.27586248987 0.6778843519 0.71440193736 -0.34109280668 0.61097100514 0.71814878161 -0.39975047553 0.56961555876 
0.69810227845 -0.45658505372 0.55152814755 0.65603068701 -0.51788800236 0.54901343765 0.58991631343 -0.59103852419 0.5501565287 
0.4939056074 -0.6836428805 0.53729848587 0.35961614619 -0.79776879947 0.4839846795 0.1859450629 -0.91501266581 0.35801711549 
0.0035466642485 -0.98822413374 0.15297216304 -0.12738936707 -0.98908751547 -0.074012403678 -0.17789245375 -0.95056805962 -0.25450862249 
-0.16431494633 -0.91529082811 -0.36775439954 -0.11221814705 -0.90002965004 -0.42113384632 -0.040362676652 -0.90468094507 -0.42417359884 
0.03871059349 -0.92342147362 -0.3818301612 0.11653798831 -0.94814271145 -0.29570981722 0.18716161541 -0.96809768792 -0.1666055112 
0.24618548264 -0.96922217915 0.0010371005011 0.29074342325 -0.93700192595 0.19363794204 0.32094520909 -0.86449806408 0.38682976871 
0.34138285492 -0.75954476874 0.55366911658 0.35979694727 -0.64097625285 0.67800855453 0.38337917759 -0.5271068699 0.75840540208 
0.4161411537 -0.42809978822 0.80222011414 0.45849214061 -0.34573808542 0.81868805616 0.50775766659 -0.27595132956 0.81610845832 
0.5592078345 -0.2115465472 0.80158259474 0.60700726466 -0.14432262469 0.78148138855 0.64518816094 -0.066910298713 0.76108820048 
0.6685258297 0.02455569087 0.74328341369 0.67365466354 0.12774044539 0.72792291687 0.66163196528 0.23298497611 0.71271392819 
0.6396956864 0.32656611645 0.69580457054 0.61962932484 0.39729011345 0.67691954142 0.61270471721 0.44038422523 0.65624283895 
0.62519718815 0.45665936417 0.63292234993 0.6568190649 0.44997777036 0.60506918792 0.70111756288 0.42612606518 0.57170861424 
0.74793923997 0.39300568627 0.53491440799 0.78764573974 0.3591994075 0.50058962667 0.81480014001 0.33114063344 0.4758640696 
0.8285469422 0.31038255428 0.46601784792 0.83087373983 0.29340685141 0.47282263905 0.82518457041 0.27314677651 0.49443024102 
0.81530433042 0.24125541054 0.52637883286 0.80433652007 0.1913098408 0.56253293886 0.79343469798 0.12073964769 0.59655956745 
0.78157527053 0.031791929353 0.62300029673 0.76629951622 -0.069422020483 0.63872187571 0.74430777979 -0.17654238777 0.64407974217 
0.71149100155 -0.28601721985 0.64185255679 0.66218561456 -0.39834325845 0.63469115348 0.58797051995 -0.51563644901 0.62322525632 
0.47872705664 -0.63635028252 0.60487909798 0.32734516288 -0.75018794367 0.57451126492 0.14003958551 -0.83710192155 0.52881876614 
-0.058621693905 -0.87916571816 0.47289653944 -0.23867411919 -0.87532273359 0.42052916294 -0.38269859023 -0.83906882465 0.38665914775 
-0.48826814502 -0.78460188253 0.38209174879 -0.55903572133 -0.71758475804 0.4153927988 -0.59498262677 -0.63182606486 0.49678113652 
-0.58210201039 -0.50626627542 0.6362795831 -0.48195362672 -0.30587347832 0.82107375854 -0.48195362672 -0.30587347832 0.82107375854 

FrenetNormal 3 120 double
-0.74671676069 0.48204681012 0.4583066137 -0.74671676069 0.48204681012 0.4583066137 -0.72446376671 0.55953302668 0.4025854478 
-0.70119105643 0.62216084526 0.34820537762 -0.68427907393 0.6690852635 0.28997768733 -0.68661289636 0.69473396439 0.21426023728 
-0.73328943037 0.67503883388 0.081296888379 -0.83309932143 0.51513986691 -0.20143594056 -0.77983338393 0.04738170452 -0.6241913708 
-0.48631438439 -0.35111525969 -0.80013523479 -0.25337991395 -0.48169924365 -0.83890670392 -0.064147235031 -0.47287709653 -0.8787902957 
0.14242818006 -0.35793558476 -0.92281977151 0.37752236716 -0.13704103925 -0.9158038086 0.58622515704 0.12420816186 -0.80057004552 
0.7258176922 0.31537621868 -0.61133175803 0.82180384058 0.39966138916 -0.40609016441 0.89442841204 0.39983913234 -0.20031596041 
0.93207164172 0.36216183456 -0.0090144491414 0.92954515265 0.34000176153 0.14263453772 0.90060665964 0.35333899453 0.25309918916 
0.85747200975 0.38612024087 0.34007780299 0.80854731374 0.40759593868 0.42440168734 0.75965996998 0.37011692865 0.53472440484 
0.68986260091 0.19520638694 0.69712556858 0.51658977389 -0.15005909045 0.842981183 0.27388237984 -0.41864921106 0.86586446982 
0.067686443249 -0.48504932096 0.87186335032 -0.14780351626 -0.40615014771 0.90177390631 -0.41322298873 -0.19373263063 0.88978336095 
-0.66087555085 0.10348818307 0.74332610761 -0.78754849153 0.35774556764 0.50178230571 -0.81597425127 0.51357892191 0.26537277976 
-0.80112759411 0.59584488892 0.056244522459 -0.75948542848 0.63579841884 -0.13763086329 -0.68601343586 0.65163076474 -0.32367099385 
-0.57656555299 0.64749593209 -0.4983183531 -0.44096141059 0.61999794661 -0.6489650072 -0.30332248962 0.57203035409 -0.76208709561 
-0.19196702897 0.51288893858 -0.83671595926 -0.12731348644 0.44902299225 -0.88440354398 -0.14427249271 0.33374666531 -0.93155708963 
0.095582928961 -0.43885204522 0.89346112736 0.19712668579 -0.37384082395 0.90630243743 0.3323857476 -0.33611900248 0.88121718717 
0.50412158122 -0.29768906598 0.8107050335 0.68608308456 -0.25811476706 0.68019612473 0.84130275854 -0.22216870513 0.49279887879 
0.94084913885 -0.20072737314 0.27296779955 0.9751096985 -0.21598948236 0.05009610163 0.949263625 -0.27153425765 -0.15864336473 
0.86991194697 -0.35228227491 -0.34518169608 0.7485207342 -0.43417949074 -0.50120343204 0.60258137055 -0.50664740259 -0.6166069261 
0.43195063332 -0.59611238072 -0.67680771267 0.20583423495 -0.73207536596 -0.64938272711 -0.13827433261 -0.88419306411 -0.44618699479 
-0.47520443967 -0.87164068367 -0.12009687378 -0.63539020737 -0.7715511032 0.031435322931 -0.70315415501 -0.71096947758 -0.0098303729869 
-0.72968183028 -0.66193661458 -0.17147695131 -0.72691688959 -0.56472706489 -0.39073671162 -0.68603542159 -0.38175421162 -0.61936993973 
-0.58144972199 -0.12649378132 -0.80368871094 -0.39012498744 0.11857207438 -0.91309537144 -0.086886909511 0.27279634407 -0.95814029224 
0.39983795376 0.2790171516 -0.87308592924 0.92238376175 0.063294016764 -0.38105388529 0.95582410064 -0.15866092588 0.24744090049 
0.75893391409 -0.22139848463 0.61237408914 0.56126810409 -0.1827661799 0.80720173366 0.39667866662 -0.080675721871 0.91440552456 
0.26946408254 0.069472493518 0.96050126542 0.17436269471 0.25087895612 0.95218559119 0.11371542065 0.44065650395 0.89044407384 
0.09336821044 0.61354726245 0.78411869893 0.12553717265 0.75332261602 0.64555825025 0.22030554989 0.8496365712 0.47914837113 
0.37301861329 0.88495933005 0.27875454848 0.5321855596 0.84459469413 0.058637298685 0.6174145692 0.77722425656 -0.1213330324 
0.61038741823 0.75934930119 -0.22542368654 0.51395798801 0.8213257085 -0.24753033574 0.34523830656 0.91418896335 -0.21229472666 
0.14272557334 0.97663995634 -0.16063563238 -0.042084817912 0.98998131734 -0.1347807828 -0.18310576941 0.97192862894 -0.14773969494 
-0.26756818965 0.94324619949 -0.19670757749 -0.2490066577 0.9173836098 -0.31048832004 0.057586534517 0.80327449112 -0.59281859195 
0.66860877421 0.10495069595 -0.73617094378 0.75124293116 -0.32134598348 -0.57651610322 0.7123341587 -0.45438949496 -0.53489273057 
0.66082717749 -0.51664622196 -0.5444117218 0.61006799649 -0.5683525737 -0.55208005907 0.56048219911 -0.65975512645 -0.50058253826 
0.38608338494 -0.91948932618 -0.074020260132 -0.11975488227 -0.73550399136 0.66685279249 -0.23346964787 -0.63211762831 0.73886347014 
-0.20491384814 -0.73002161112 0.65198064553 -0.15672287205 -0.84491098804 0.511432658 -0.1273225602 -0.92551756829 0.35665977689 
-0.1303302357 -0.96833866636 0.2129184278 -0.16587585772 -0.98181813268 0.092294930306 -0.23553949196 -0.97184741625 0.005809238598 
-0.33718420767 -0.94034992978 -0.045263889144 -0.46163514683 -0.88404384226 -0.073208443312 -0.59748002165 -0.79622580961 -0.095089872382 
-0.72756126279 -0.67315436007 -0.13235488814 -0.84036459172 -0.50911760444 -0.18597477739 -0.91924039512 -0.30838595894 -0.24473495114 
-0.95558399633 -0.087638777339 -0.28138704781 -0.95457477462 0.13192532374 -0.26717542666 -0.92386702313 0.34910452926 -0.15683032621 
-0.81751433006 0.56444032127 0.11435665207 -0.50769971008 0.69233982384 0.51274415912 -0.10565118006 0.67420652434 0.73094691373 
0.20351716725 0.66689876453 0.71681713184 0.46065255023 0.70867528061 0.53439552264 0.46065255023 0.70867528061 0.53439552264 

FrenetBinormal 3 120 double
-0.63104954961 -0.29566120252 -0.71718959784 -0.63104954961 -0.29566120252 -0.71718959784 -0.62883183595 -0.29723791311 -0.71848461717 
-0.62467875674 -0.3006925883 -0.72066664847 -0.6126991707 -0.31189518702 -0.72616879479 -0.57950985076 -0.34503228382 -0.73832313793 
-0.48547272742 -0.43611219086 -0.75770864316 -0.21780749469 -0.64028322268 -0.73661203494 0.3192797449 -0.82757598005 -0.46171250985 
0.66405405124 -0.74368179667 -0.07726320162 0.76153059093 -0.63410579512 0.13409324991 0.78402122592 -0.56869686687 0.24878623538 
0.78151018262 -0.53147684806 0.3267632085 0.76365419031 -0.51329604712 0.39161134513 0.72855392499 -0.51301805228 0.45389608548 
0.66823947151 -0.53414779748 0.5178244289 0.56975993075 -0.58078328291 0.58143305685 0.43015807094 -0.64667691808 0.6298991964 
0.281718328 -0.70894646659 0.64655215658 0.17588421261 -0.7488930456 0.63892405653 0.12491959265 -0.76818564037 0.62792190383 
0.10373093319 -0.77710302417 0.6207662872 0.07822406626 -0.78929470588 0.60901138144 0.0052394371716 -0.82570411129 0.56407913354 
-0.16773629224 -0.8936553714 0.4162266371 -0.41873645098 -0.9030343495 0.095857958668 -0.56202228264 -0.80024275458 -0.2091470477 
-0.59275469122 -0.72247061655 -0.35591864837 -0.59122241697 -0.69465492 -0.40976895417 -0.58729118544 -0.69005093556 -0.42298790743 
-0.58600647836 -0.68993712436 -0.42495078744 -0.5849121739 -0.69029594855 -0.42587469077 -0.57694861338 -0.69467958879 -0.42959348975 
-0.55721436317 -0.7082747766 -0.43342703458 -0.53156193558 -0.72850893923 -0.43210720211 -0.50975967186 -0.74787590102 -0.42523724391 
-0.49596750411 -0.76203567221 -0.41631462758 -0.48754541928 -0.77254573098 -0.40678318265 -0.4816374666 -0.78211895478 -0.39536728664 
-0.47632732881 -0.79411176432 -0.37749010795 -0.47067399296 -0.81222120312 -0.34461965926 -0.45596692227 -0.85792940554 -0.23675155946 
0.46919061741 0.81147220783 0.34838630922 0.45490235486 0.85377859689 0.25323103093 0.43246614473 0.88464188992 0.17430364387 
0.39263538391 0.91509440822 0.091867727478 0.33531983577 0.94190857901 0.019205117102 0.27156256285 0.96195525239 -0.029931034877 
0.22249080663 0.97360377453 -0.050926723617 0.21849874876 0.97447260373 -0.051589159355 0.26619978573 0.96238301475 -0.054374690791 
0.34780539098 0.93439214956 -0.077089044911 0.43505566247 0.89196872645 -0.12295674686 0.51249861251 0.83793096554 -0.18766158148 
0.59080111564 0.75402249054 -0.28706118776 0.66877659919 0.58967902776 -0.45278748283 0.68201358961 0.24166543544 -0.69025740192 
0.53556880916 -0.17824872309 -0.82546559187 0.40731194689 -0.3694602985 -0.83522216551 0.39695462894 -0.38104575167 -0.83500368723 
0.47288653769 -0.30736351478 -0.82577599399 0.58503680485 -0.21130140743 -0.78299658505 0.70340588135 -0.13044364036 -0.69871641084 
0.8135746075 -0.086095207656 -0.5750512788 0.91190703656 -0.087444553387 -0.40097257605 0.98020658019 -0.14833245998 -0.131120332 
0.90173732824 -0.29050323421 0.32012132352 0.36961504776 -0.4312081823 0.82306999701 -0.29115484363 -0.39544797157 0.87111983034 
-0.65001600288 -0.31348922318 0.69224540659 -0.81938819409 -0.26004215467 0.51086305913 -0.89867489403 -0.23723046715 0.36892430157 
-0.9310111795 -0.23618200627 0.27827368463 -0.94077941757 -0.24307846498 0.23631958728 -0.94024623151 -0.24179524959 0.23973335481 
-0.93527542662 -0.21598958545 0.28037185189 -0.92454668623 -0.14715461076 0.35150952407 -0.89693136353 -0.016614589323 0.44185753874 
-0.82926693793 0.18324179512 0.52795718593 -0.71173273576 0.40880922071 0.57123684572 -0.60081727818 0.56548502962 0.56501794619 
-0.56099358062 0.6153346221 0.55375942913 -0.60612652739 0.55190131415 0.57272643752 -0.68157372944 0.39972684575 0.61292389424 
-0.72986479963 0.21347462079 0.64940431207 -0.73784704539 0.060161199482 0.67228146463 -0.72712820034 -0.03275272748 0.68571994218 
-0.7205530464 -0.060342180487 0.69076922961 -0.74434883235 0.023830195577 0.66736567005 -0.78821108882 0.40101349864 0.46680986854 
-0.40260499622 0.88342944061 -0.23971157771 -0.064982877434 0.83322071811 -0.54910878754 0.03184665392 0.78227026241 -0.62212460745 
0.062404605619 0.76067286786 -0.64612882098 0.086204572573 0.74023721713 -0.66679654622 0.1481905406 0.67458806246 -0.72316699984 
0.40552383956 0.24125100836 -0.88167361677 0.54342211643 -0.61069329309 -0.57597404902 0.51435624646 -0.72513318947 -0.45784223184 
0.54156178192 -0.63942495587 -0.54575320629 0.57313236155 -0.49952574219 -0.64961013618 0.59518933601 -0.35894173379 -0.71896487121 
0.61004436409 -0.24760755333 -0.75268610548 0.62070141877 -0.17667409942 -0.76388219729 0.62492165643 -0.15603007674 -0.76493629701 
0.61651225844 -0.18421769598 -0.76549100301 0.59025689583 -0.24451816581 -0.76929036359 0.54525983842 -0.31645459794 -0.77623978 
0.49140107258 -0.37672473433 -0.78524102059 0.43200983474 -0.42192098079 -0.79708857015 0.36794838017 -0.45183899042 -0.81268414299 
0.28882992049 -0.46838775039 -0.83497915681 0.17838627885 -0.46519439057 -0.86704816158 -0.0033930222759 -0.41724038054 -0.90878982842 
-0.30539243394 -0.25652876966 -0.917021511 -0.65553037051 0.075747497335 -0.75136026644 -0.79676439553 0.38241520146 -0.46789433818 
-0.78723440736 0.54675451186 -0.28516923331 -0.74533209354 0.63578358103 -0.20064722382 -0.74533209354 0.63578358103 -0.20064722382 

plain_curvature_peaks 1 120 unsigned_char
0 0 0 0 0 0 0 0 0 
0 0 0 0 0 0 0 0 0 
1 0 0 0 0 0 0 0 0 
0 0 0 0 0 0 0 0 0 
0 0 0 0 0 0 0 0 0 
0 0 0 0 0 0 0 0 0 
0 0 1 0 0 0 0 0 0 
0 0 0 0 0 0 0 0 0 
0 0 0 0 0 0 0 0 0 
0 0 0 0 0 0 1 0 0 
0 0 0 0 0 0 0 0 0 
0 0 0 0 0 0 0 0 0 
0 0 0 0 0 0 0 1 0 
0 0 0 
weighted_curvature_peaks 1 120 unsigned_char
0 0 0 0 0 0 0 0 0 
0 0 0 0 0 0 0 0 0 
0 0 0 1 0 0 0 0 0 
0 0 0 0 0 0 0 0 0 
0 0 0 0 0 0 0 0 0 
0 0 0 0 0 0 0 0 0 
0 0 0 0 0 0 0 0 1 
0 0 0 0 0 0 0 0 0 
0 0 0 0 0 0 0 0 0 
0 0 0 0 0 0 0 0 0 
0 0 1 0 0 0 0 0 0 
0 0 0 0 0 0 0 0 0 
0 0 0 0 0 0 0 0 0 
1 0 0 
plain_torsion_tp 1 120 unsigned_char
0 0 0 0 0 0 0 0 0 
0 0 0 0 0 0 0 0 0 
1 0 0 0 0 0 0 0 0 
0 0 0 0 0 0 0 0 0 
0 0 0 0 0 0 0 0 0 
0 0 0 0 0 0 0 0 0 
0 0 1 0 0 0 0 0 0 
0 0 0 0 0 0 0 0 0 
0 0 0 0 0 0 0 0 0 
0 0 0 0 0 0 1 0 0 
0 0 0 0 0 0 0 0 0 
0 0 0 0 0 0 0 0 0 
0 0 0 0 0 0 0 1 0 
0 0 0 
plain_torsion_tn 1 120 unsigned_char
0 0 0 0 0 0 0 2 0 
0 0 0 0 0 0 0 0 0 
0 0 0 0 0 0 0 0 0 
0 0 0 0 0 0 0 0 0 
0 0 0 0 0 0 2 0 0 
0 0 0 0 0 0 0 0 0 
0 0 0 0 0 0 0 0 0 
0 0 0 0 0 0 0 0 2 
0 0 0 0 0 0 0 0 0 
0 0 0 0 0 0 0 0 0 
0 0 0 0 0 0 0 0 0 
0 2 0 0 0 0 0 0 0 
0 0 0 0 0 0 0 0 0 
0 0 0 
plain_torsion_tz 1 120 unsigned_char
0 0 0 0 0 0 0 0 3 
0 0 0 0 0 0 0 0 0 
0 0 0 0 0 0 0 0 0 
0 0 0 3 0 0 0 0 0 
0 0 0 0 0 0 0 0 0 
0 0 0 3 0 0 0 0 0 
0 0 0 0 0 0 0 0 0 
0 0 0 0 0 0 0 0 0 
0 0 0 0 0 3 0 0 0 
0 0 0 0 0 0 0 0 0 
0 0 0 0 3 0 0 0 0 
0 0 0 0 0 0 3 0 0 
0 0 0 0 0 0 0 0 0 
0 0 0 
weighted_torsion_tp 1 120 unsigned_char
0 0 0 0 0 0 0 0 0 
0 0 0 0 0 0 0 0 0 
0 0 0 1 0 0 0 0 0 
0 0 0 0 0 0 0 0 0 
0 0 0 0 0 0 0 0 0 
0 0 0 0 0 0 0 0 0 
0 0 0 0 0 0 0 0 1 
0 0 0 0 0 0 0 0 0 
0 0 0 0 0 0 0 0 0 
0 0 0 0 0 0 0 0 0 
0 0 1 0 0 0 0 0 0 
0 0 0 0 0 0 0 0 0 
0 0 0 0 0 0 0 0 0 
1 0 0 
weighted_torsion_tn 1 120 unsigned_char
0 0 0 0 0 0 0 0 0 
2 0 0 0 0 0 0 0 0 
0 0 0 0 0 0 0 0 0 
0 0 0 0 0 0 0 0 0 
0 0 0 0 0 0 0 0 0 
0 2 0 0 0 0 0 0 0 
0 0 0 0 0 0 0 0 0 
0 0 0 0 0 0 0 0 0 
0 0 0 0 2 0 0 0 0 
0 0 0 0 0 0 0 0 0 
0 0 0 0 0 0 0 0 0 
0 0 0 0 0 0 2 0 0 
0 0 0 0 0 0 0 0 0 
0 0 0 
weighted_torsion_tz 1 120 unsigned_char
0 0 0 0 0 0 0 0 0 
0 3 0 0 0 0 0 0 0 
0 0 0 0 0 0 0 0 0 
0 0 0 0 0 0 3 0 0 
0 0 0 0 0 0 0 0 0 
0 0 0 0 0 0 3 0 0 
0 0 0 0 0 0 0 0 0 
0 0 0 0 0 0 0 0 0 
0 0 0 0 0 0 0 0 0 
0 3 0 0 0 0 0 0 0 
0 0 0 0 0 0 0 0 0 
3 0 0 0 0 0 0 0 0 
0 0 3 0 0 0 0 0 0 
0 0 0 
plain_torsion_tp_raw 1 120 unsigned_char
0 0 0 0 0 0 0 0 0 
0 0 0 0 0 0 0 0 0 
0 0 0 0 0 0 0 1 0 
0 0 0 0 0 0 0 0 0 
0 0 0 0 0 0 0 0 0 
1 0 0 0 0 0 0 0 0 
0 0 0 0 0 0 0 0 0 
0 0 0 0 0 0 0 0 0 
0 0 1 0 0 0 0 0 0 
0 0 0 0 0 0 0 0 0 
1 0 0 0 0 0 0 0 0 
0 0 0 0 0 0 0 0 0 
0 1 0 0 0 0 0 0 0 
1 0 0 
plain_torsion_tn_raw 1 120 unsigned_char
0 0 0 0 0 0 0 0 0 
0 0 0 0 2 0 0 0 0 
0 0 0 0 0 0 0 0 0 
0 0 0 0 0 0 2 0 0 
0 0 0 0 0 0 0 0 0 
0 0 0 0 0 0 0 0 0 
0 0 0 0 0 0 0 0 0 
0 0 0 2 0 0 0 0 0 
0 0 0 0 0 0 0 0 2 
0 0 0 0 0 0 0 0 0 
0 0 0 0 0 0 0 0 0 
0 0 2 0 0 0 0 0 0 
0 0 0 0 2 0 0 0 0 
0 0 0 
plain_torsion_tz_raw 1 120 unsigned_char
0 0 0 0 0 0 0 3 0 
0 0 0 0 0 0 0 0 0 
0 3 0 0 0 0 0 0 3 
0 0 0 0 0 0 0 0 0 
0 0 0 0 3 0 0 0 0 
0 0 0 0 0 0 0 0 0 
0 0 0 0 0 0 0 0 0 
0 0 0 0 0 0 0 0 0 
0 0 0 0 0 0 0 0 0 
0 0 0 0 0 0 0 0 0 
0 0 0 0 0 0 0 0 0 
0 0 0 0 0 0 0 0 0 
0 0 0 0 0 0 0 0 0 
0 0 0 
weighted_torsion_tp_raw 1 120 unsigned_char
0 0 0 0 0 0 0 0 0 
0 0 0 0 0 0 0 0 0 
0 0 0 0 0 0 0 0 0 
1 0 0 0 0 0 0 0 0 
0 0 0 0 0 0 0 0 0 
0 0 0 0 1 0 0 0 0 
0 0 0 0 0 0 0 0 0 
0 0 0 0 0 0 0 0 0 
0 0 0 0 0 0 0 1 0 
0 0 0 0 0 0 0 0 0 
0 0 0 0 0 1 0 0 0 
0 0 0 0 0 0 0 0 0 
0 0 0 0 0 1 0 0 0 
0 1 0 
weighted_torsion_tn_raw 1 120 unsigned_char
0 0 0 0 0 0 0 0 0 
0 0 0 0 0 0 0 2 0 
0 0 0 0 0 0 0 0 0 
0 0 0 0 0 0 0 0 0 
0 2 0 0 0 0 0 0 0 
0 0 0 0 0 0 0 0 0 
0 0 0 0 0 0 0 0 0 
0 0 0 0 0 0 0 0 2 
0 0 0 0 0 0 0 0 0 
0 0 0 0 2 0 0 0 0 
0 0 0 0 0 0 0 0 0 
0 0 0 0 0 0 0 2 0 
0 0 0 0 0 0 0 2 0 
0 0 0 
weighted_torsion_tz_raw 1 120 unsigned_char
0 0 0 0 0 0 0 0 0 
3 0 0 0 0 0 0 0 0 
0 0 0 0 3 0 0 0 0 
0 0 3 0 0 0 0 0 0 
0 0 0 0 0 0 0 0 3 
0 0 0 0 0 0 0 0 0 
0 0 0 0 0 0 0 0 0 
0 0 0 0 0 0 0 0 0 
0 0 0 0 0 0 0 0 0 
0 0 0 0 0 0 0 0 0 
0 0 0 0 0 0 0 0 0 
0 0 0 0 0 0 0 0 0 
0 0 0 0 0 0 0 0 0 
0 0 0 
