# vtk DataFile Version 5.1
vtk output
ASCII
DATASET POLYDATA
POINTS 120 float
-1.49625 15.2565 -6.15051 -1.84788 14.9121 -5.78826 -2.1947 14.5018 -5.45179 
-2.53456 14.043 -5.1446 -2.86531 13.5529 -4.87017 -3.18475 13.0492 -4.63177 
-3.49056 12.5495 -4.43236 -3.78012 12.0709 -4.27417 -4.05048 11.6296 -4.15859 
-4.2985 11.2389 -4.0866 -4.52153 10.908 -4.06015 -4.71846 10.6398 -4.08413 
-4.89074 10.4305 -4.16736 -5.04298 10.2687 -4.32119 -5.18271 10.1372 -4.55532 
-5.31932 10.0142 -4.87313 -5.46195 9.87646 -5.26767 -5.61725 9.70199 -5.72092 
-5.78751 9.47344 -6.20648 -5.9695 9.18095 -6.6947 -6.1542 8.82426 -7.15865 
-6.32723 8.41321 -7.57965 -6.47053 7.9663 -7.95079 -6.56499 7.50745 -8.27785 
-6.59402 7.06148 -8.57733 -6.5471 6.64924 -8.87227 -6.42206 6.2836 -9.18693 
-6.22512 5.96752 -9.54176 -5.96888 5.69391 -9.94937 -5.66861 5.44809 -10.412 
-5.33819 5.21192 -10.9209 -4.98741 4.96785 -11.4571 -4.62145 4.70317 -11.9929 
-4.24238 4.41178 -12.4946 -3.85224 4.09537 -12.9259 -3.45602 3.76205 -13.2518 
-3.06377 3.42564 -13.4428 -2.691 3.10286 -13.4799 -2.35746 2.8113 -13.3574 
-2.0845 2.5672 -13.0844 -1.89188 2.38327 -12.6831 -1.79427 2.26658 -12.1855 
-1.79843 2.21757 -11.627 -1.90128 2.22902 -11.0413 -2.08984 2.2873 -10.4548 
-2.34309 2.37364 -9.88472 -2.63535 2.46673 -9.33811 -2.94062 2.54543 -8.81369 
-3.23656 2.59123 -8.30463 -3.50722 2.5899 -7.80179 -3.74411 2.53285 -7.29698 
-3.94608 2.41789 -6.78527 -4.11776 2.24791 -6.26648 -4.26746 2.02886 -5.74551 
-4.40453 1.76668 -5.23182 -4.5368 1.4643 -4.73816 -4.66829 1.12081 -4.27859 
-4.79818 0.731909 -3.86606 -4.92078 0.292187 -3.50989 -5.02665 -0.201073 -3.21369 
-5.10434 -0.745754 -2.97432 -5.14235 -1.3332 -2.78181 -5.13111 -1.94833 -2.62039 
-5.06488 -2.57132 -2.47016 -4.94298 -3.17946 -2.30941 -4.77021 -3.75048 -2.11734 
-4.55619 -4.26534 -1.87694 -4.31377 -4.71121 -1.57743 -4.05659 -5.08331 -1.21568 
-3.79633 -5.38584 -0.796403 -3.54023 -5.63077 -0.330987 -3.28947 -5.83612 0.164642 
-3.039 -6.02232 0.672749 -2.77914 -6.20858 1.17665 -2.49817 -6.40826 1.66304 
-2.18537 -6.62668 2.1236 -1.83352 -6.86039 2.55556 -1.44032 -7.09819 2.96105 
-1.0086 -7.32429 3.34604 -0.545674 -7.52175 3.71891 -0.0617485 -7.67538 4.08889 
0.431993 -7.77404 4.46483 0.925399 -7.81215 4.85364 1.4109 -7.79001 5.25942 
1.88433 -7.71255 5.68288 2.34473 -7.5887 6.12158 2.79319 -7.42918 6.57051 
3.23133 -7.24578 7.02339 3.65962 -7.05002 7.47396 4.07626 -6.85346 7.91751 
4.47723 -6.66679 8.35169 4.85726 -6.49898 8.77623 5.21205 -6.35653 9.19232 
5.54097 -6.24224 9.60194 5.84936 -6.1551 10.0057 6.1493 -6.09065 10.4031 
6.4581 -6.04214 10.7918 6.79471 -6.0024 11.1686 7.17553 -5.96521 11.5301 
7.61052 -5.92754 11.8746 8.10165 -5.88977 12.2016 8.64328 -5.85628 12.5131 
9.22308 -5.83498 12.8128 9.82435 -5.8358 13.1059 10.4282 -5.86866 13.3992 
11.0153 -5.94191 13.7 11.5675 -6.06021 14.0157 12.0692 -6.22408 14.3534 
12.5088 -6.4294 14.7189 12.8794 -6.6688 15.1158 13.1796 -6.93235 15.5455 
13.4136 -7.20941 16.0064 13.5899 -7.4908 16.4948 13.7204 -7.77022 17.0047 
13.8192 -8.04584 17.5274 13.9009 -8.32121 18.0525 13.9807 -8.60459 18.5678 
14.0733 -8.90719 19.0599 14.1934 -9.24186 19.5148 14.3557 -9.62194 19.9188 

LINES 2 120
OFFSETS vtktypeint64
0 120 
CONNECTIVITY vtktypeint64
0 1 2 3 4 5 6 7 8 
9 10 11 12 13 14 15 16 17 
18 19 20 21 22 23 24 25 26 
27 28 29 30 31 32 33 34 35 
36 37 38 39 40 41 42 43 44 
45 46 47 48 49 50 51 52 53 
54 55 56 57 58 59 60 61 62 
63 64 65 66 67 68 69 70 71 
72 73 74 75 76 77 78 79 80 
81 82 83 84 85 86 87 88 89 
90 91 92 93 94 95 96 97 98 
99 100 101 102 103 104 105 106 107 
108 109 110 111 112 113 114 115 116 
117 118 119 
CELL_DATA 1
FIELD FieldData 2
Length 1 1 double
68.864172124 
Tortuosity 1 1 double
0.74924812373 
POINT_DATA 120
FIELD FieldData 19
Curvature 1 120 double
0 0.1738256743 0.13474213987 0.10901619016 0.093312574606 0.086169750605 0.087774007053 0.10111087061 0.13483202986 
0.212841072 0.39410454847 0.76105276577 1.1556697212 1.0008643238 0.48840013673 0.1509655632 0.07508637994 0.12893177147 
0.16424944009 0.18262039964 0.18730434848 0.18192038503 0.17939712223 0.2087854843 0.28644145269 0.36750436091 0.37297405052 
0.28563825179 0.17029786064 0.076682009974 0.011836899236 0.043022261385 0.091889412781 0.15050144921 0.23423365483 0.36056167214 
0.54267907525 0.74079135113 0.83377341582 0.75358029947 0.59501692007 0.45333812571 0.34477194905 0.25877387034 0.18418604375 
0.11656682201 0.06631760425 0.085446667146 0.14897906985 0.20162413226 0.21652517882 0.19445511844 0.15689514684 0.12939648125 
0.1284599755 0.15240141475 0.19051364832 0.22722405385 0.2429826558 0.22969593181 0.19517278205 0.15851188353 0.13707829252 
0.1419133335 0.17212088601 0.21779597337 0.26285954359 0.28648436302 0.27108522533 0.21839895758 0.14332865239 0.06368091687 
0.028899104498 0.085882663095 0.12645395906 0.13975150969 0.13116155976 0.11685598206 0.1125569782 0.12385132408 0.14251463664 
0.15690847818 0.15845246075 0.14577326046 0.12053056321 0.090779177736 0.06115246739 0.035789431308 0.01436522118 0.016442751046 
0.040409958342 0.067644719121 0.090222108062 0.095756121375 0.081596023343 0.079686131208 0.12060284918 0.15967637569 0.16566584666 
0.14357351365 0.10883086929 0.07744785958 0.062277390772 0.071189463191 0.097770205487 0.13185158614 0.16943021797 0.20394131195 
0.22829325113 0.23372456712 0.2174443785 0.18510119795 0.14313211348 0.096347691498 0.047713122002 0.03302630952 0.091331894059 
0.16531521524 0.24168255298 0 
Torsion 1 120 double
0 0 -0.11700712043 -0.16334803575 -0.22351363521 -0.28666972295 -0.32857874274 -0.31449279249 -0.21217528747 
-0.022798333135 0.15232187514 0.19809495472 0.18441034536 0.23458744273 0.49125725458 1.967889599 3.0627710223 0.38598377969 
0.031963168851 -0.10655181086 -0.24698920489 -0.47453986334 -0.80280533096 -0.90504419308 -0.65047066075 -0.42935125213 -0.3246708468 
-0.28813541762 -0.26866173574 -0.1714446235 4.3727031392 0.066890764747 -0.14436658204 -0.13191555824 -0.09660340219 -0.055596349409 
-0.017678811091 0.010893592028 0.034149637552 0.057925386689 0.079288950355 0.094004223426 0.10806547463 0.13574785872 0.2257304678 
0.54767926266 1.7826554079 1.1006176669 0.31554735455 0.10102039096 -0.0020551304421 -0.10630599091 -0.25977904347 -0.41615619262 
-0.34744851623 -0.11623196188 0.05303649585 0.14207237479 0.2031587569 0.27661297771 0.39496002676 0.57174977382 0.73255880739 
0.69154218302 0.50454964981 0.34550954931 0.24588683965 0.18526894466 0.14320416814 0.09773793422 2.7029896284e-05 -0.59255807253 
-3.001560456 -0.10386026716 0.13725889935 0.27887015812 0.45496059187 0.64895065447 0.70616253272 0.55221675358 0.36622354414 
0.23765988962 0.15311649763 0.090515026572 0.038234619245 -0.013717705209 -0.045426825911 0.045117502819 1.4258029891 1.1532318466 
0.095033396692 0.020533337381 0.11865696444 0.38416956053 1.0921772186 1.5782946426 0.66361409578 0.2340958493 0.053919425753 
-0.078708710759 -0.27369957513 -0.61632773922 -0.94218290405 -0.71803679829 -0.41348016077 -0.27478430739 -0.21852421659 -0.19152214898 
-0.17787544986 -0.17560444404 -0.17362060136 -0.16213628574 -0.11961262976 0.036591469904 0.91232725582 2.4851658613 0.32516820759 
0.094548954131 0 0 
FrenetTangent 3 120 double
-0.56181879963 -0.60702050153 0.56203714033 -0.56181879963 -0.60702050153 0.56203714033 -0.53601736283 -0.67841425805 0.50243355901 
-0.51609789483 -0.73026126141 0.44761752986 -0.50263733472 -0.76823131009 0.39645474389 -0.49592952369 -0.79590689337 0.34725512901 
-0.49624957184 -0.81541007836 0.29806503745 -0.50392631979 -0.82785715929 0.24639559256 -0.51938097696 -0.83362177072 0.18793122187 
-0.54305839386 -0.83199152544 0.11347987687 -0.57400370488 -0.81884575281 0.0033734100313 -0.60226815227 -0.77890236403 -0.17488333275 
-0.5932234321 -0.6784512985 -0.43334719932 -0.51469929248 -0.51704204811 -0.68392408848 -0.41389806802 -0.38118933438 -0.82666987404 
-0.34545370269 -0.32253805571 -0.88126666902 -0.31318003672 -0.32818583977 -0.89118590607 -0.30361730771 -0.37585555811 -0.87552791497 
-0.30386367687 -0.44946827848 -0.84002686417 -0.30321421766 -0.53679653087 -0.78734403068 -0.29203510398 -0.62674932715 -0.72242700597 
-0.26146997474 -0.70916976037 -0.65476079853 -0.20354768251 -0.77542384457 -0.59773422373 -0.11150495426 -0.81701309574 -0.56573513818 
0.017137281798 -0.82194787723 -0.56930483987 0.1714188939 -0.77545067043 -0.60769385429 0.31933422221 -0.67612309188 -0.6639903758 
0.42548693094 -0.55365314263 -0.71584151127 0.4813247915 -0.4492512917 -0.75266175803 0.50271227314 -0.3841763161 -0.77439584747 
0.50959101726 -0.35925717082 -0.78182560737 0.51703120427 -0.36699649578 -0.77329962233 0.53480092872 -0.39916149407 -0.7447536964 
0.56836313959 -0.44909838416 -0.68940117704 0.61901579863 -0.51146087882 -0.59600940469 0.68180006701 -0.57912812202 -0.44694438906 
0.73894070434 -0.63672405175 -0.22033864255 0.75140186172 -0.65356484784 0.090819776879 0.67340750044 -0.5947522062 0.43908103076 
0.50362069373 -0.46299495094 0.7293845846 0.29276766092 -0.30324592116 0.90682358153 0.087082250431 -0.15441199088 0.9841613784 
-0.09306736966 -0.032669270573 0.99512370259 -0.24085985869 0.057634340572 0.96884715578 -0.35443916255 0.11602004512 0.9278535602 
-0.43442250817 0.14289327461 0.88930230881 -0.48250162451 0.13871765281 0.86484079179 -0.50013144058 0.10356401748 0.85973428245 
-0.48820203186 0.038320251352 0.87188894615 -0.44925635581 -0.051671286713 0.89190739704 -0.39166983894 -0.15351551347 0.90720875458 
-0.32991297109 -0.25158225709 0.90987021021 -0.27807332612 -0.33660987824 0.89964938458 -0.24373168747 -0.40901347538 0.87937639352 
-0.22714273757 -0.47611341698 0.84954234205 -0.22328610193 -0.54676353659 0.80696527294 -0.22369803597 -0.62680549411 0.74637394197 
-0.21801011715 -0.7154812973 0.66374550999 -0.19676514704 -0.80350716878 0.561836014 -0.15526124134 -0.87789475788 0.45298426133 
-0.095057513527 -0.9300924335 0.35481281583 -0.021348583814 -0.95909763954 0.28226929657 0.060572272305 -0.96797105189 0.24364532119 
0.14656145047 -0.95907652889 0.24226422141 0.23282704406 -0.93170415852 0.27878114812 0.31416368631 -0.88199343718 0.35126735541 
0.3826535489 -0.80541923731 0.45263242668 0.42904800733 -0.70245142236 0.56787305503 0.44819480693 -0.58434818089 0.67650470696 
0.44456644343 -0.47135401931 0.76169945901 0.43096262259 -0.3828502604 0.81712722146 0.42180882314 -0.3295047427 0.84469162495 
0.42775288822 -0.3122006847 0.84826776379 0.453519851 -0.32363206508 0.83041076053 0.49756639685 -0.35035613877 0.79352268824 
0.55334241784 -0.37641539282 0.74305021409 0.61269147285 -0.3877458593 0.68866705141 0.6689750812 -0.37620018387 0.64105051469 
0.71763571299 -0.33975915933 0.60791668598 0.75527952936 -0.28005689768 0.59255461065 0.77880451585 -0.20097202032 0.59420011203 
0.78582999131 -0.10887900682 0.60878287314 0.77635234716 -0.012662229367 0.63017196146 0.75407928778 0.078327049189 0.65209608272 
0.72569152973 0.15644114605 0.66999848619 0.69825470278 0.21770112091 0.6819432469 0.67663567166 0.26171173652 0.68823770225 
0.66244106569 0.28989488031 0.69074799519 0.65435903825 0.30383408491 0.69245873372 0.64927546842 0.3043273867 0.69701234409 
0.6434991689 0.29207148244 0.7075330867 0.63410349412 0.26773899637 0.72541614854 0.62023411006 0.23290248051 0.74904344553 
0.60535155087 0.19132748708 0.77262105365 0.59796792541 0.14900779566 0.78754748239 0.60835592515 0.11288498336 0.78559534677 
0.64210942229 0.087798612057 0.76156870572 0.69495138034 0.074520261411 0.715184808 0.75436476224 0.069222201398 0.65279559766 
0.80786028107 0.065808019403 0.58568854424 0.84910676608 0.0585825286 0.5249626531 0.87725289643 0.042859839029 0.47811127355 
0.89362379923 0.015499046294 0.44854908875 0.89891482751 -0.02512267323 0.43740254249 0.89203306818 -0.079471995425 0.44492831693 
0.87001558235 -0.14627829112 0.47082432818 0.82869134106 -0.22188808266 0.51384466526 0.76428542535 -0.29978739025 0.57095998918 
0.67623844231 -0.37118065341 0.63633834685 0.56979806454 -0.42716063418 0.70204270401 0.45628790816 -0.46174701994 0.76065171691 
0.34905139907 -0.47513055334 0.80772153499 0.2588246674 -0.47308109521 0.84214254666 0.19192449111 -0.46465242402 0.86444381805 
0.15072247619 -0.46011161208 0.87497430797 0.13553766387 -0.46876915834 0.87286025105 0.14632097595 -0.49739401538 0.85509611475 
0.18320139098 -0.54884689124 0.81560060098 0.24505081919 -0.62014608141 0.74523079226 0.24505081919 -0.62014608141 0.74523079226 

FrenetNormal 3 120 double
0.2623774256 -0.7750689603 -0.57482709863 0.2623774256 -0.7750689603 -0.57482709863 0.26667901911 -0.70075026993 -0.66168826494 
0.23643540862 -0.62375107593 -0.74500529719 0.16761334183 -0.53649545247 -0.82709031981 0.058518833728 -0.42961931282 -0.90111197537 
-0.077149759382 -0.30054527465 -0.95064212641 -0.20847894595 -0.16025294109 -0.96480854265 -0.29462563248 -0.031749859709 -0.9550851706 
-0.30599945202 0.070233308253 -0.94943752705 -0.23199675931 0.15867405988 -0.95968747329 -0.079030339342 0.27617083811 -0.95785378511 
0.13867140823 0.44413054412 -0.88516569089 0.36647063532 0.58848418708 -0.72068414372 0.55382670895 0.6152684582 -0.56099973334 
0.80612073784 0.37878788608 -0.45463072199 0.51626039396 -0.84646271731 0.13029226313 0.03209921058 -0.92241909989 0.38485405655 
-0.022457117562 -0.87809434141 0.4779602551 0.032855721287 -0.83163940308 0.55434321933 0.16457995361 -0.77701903508 0.60758115342 
0.38781658836 -0.69838303823 0.60154752573 0.70856763945 -0.53798483466 0.45662262099 0.96474905769 -0.2255549991 0.13558834046 
0.97997493034 0.1267809921 -0.15354385678 0.86494780858 0.41376949403 -0.28400720807 0.70442610302 0.63805002623 -0.31092769161 
0.52523916968 0.79523454973 -0.30286271732 0.35046339269 0.88568439421 -0.30453007115 0.21155332918 0.92325605618 -0.32069213218 
0.52102382116 0.85196368861 -0.051884979196 0.35680940155 -0.72878278943 0.58443365474 0.38648183069 -0.66823776627 0.63568080219 
0.41668234688 -0.56538769388 0.71183746558 0.39539559837 -0.45274462624 0.79917746728 0.31383907816 -0.32032337282 0.89381092511 
0.15612809884 -0.15630761991 0.97529069754 -0.077301296297 0.049500847417 0.99577817595 -0.34671806127 0.27047752204 0.89812498911 
-0.57827251631 0.44658374831 0.68276192969 -0.72962640013 0.54211251439 0.41684450097 -0.80779573472 0.56719999109 0.16046875419 
-0.83884477196 0.54097686194 -0.06069170782 -0.8442196756 0.48004435136 -0.2384335548 -0.84966147939 0.37436785001 -0.37138131795 
-0.8773428995 0.15630193889 -0.45369498629 -0.79445775929 -0.48507510886 -0.36542989406 -0.042437740551 -0.99456100201 0.09511809213 
0.31342507325 -0.92468845144 0.21613882399 0.45137814673 -0.87466512553 0.17668810612 0.52233657397 -0.84879953498 0.081877059695 
0.54018961439 -0.84074704995 -0.036600252939 0.48532201916 -0.85748540871 -0.17082538325 0.3263394475 -0.88843534421 -0.32277732909 
0.1116920365 -0.87932395176 -0.46294089994 -0.0073788519118 -0.82689462212 -0.5623084887 0.00063328014542 -0.76587326716 -0.64299124224 
0.088107681978 -0.69175619952 -0.7167359324 0.21871545322 -0.59457063012 -0.77372431545 0.38017693352 -0.47632778339 -0.7928286965 
0.57452407447 -0.34233301878 -0.74345826521 0.79646911076 -0.18696918559 -0.57504737131 0.97195515811 0.0016299551946 -0.2351606129 
0.96107834998 0.196041202 0.19466959782 0.78540313002 0.34919203489 0.51108399127 0.5746495261 0.47118740995 0.6691489721 
0.37719240048 0.58342043466 0.71926802337 0.19691668725 0.6862945172 0.70015973459 0.035711728521 0.76787087587 0.63960846651 
-0.093505499394 0.82128604524 0.56280187765 -0.17047816939 0.85468421971 0.490359132 -0.090527732606 0.91166577706 0.40083692515 
0.89411618883 0.0084711741718 -0.44775493307 0.70090279205 -0.44600517886 -0.55660996805 0.68567902726 -0.40144924812 -0.60719253351 
0.70781633512 -0.25777030766 -0.65768571843 0.74289076338 -0.014770930996 -0.66924967932 0.74327010822 0.3331545082 -0.5801358633 
0.62667890075 0.69579959655 -0.35090807455 0.40247686614 0.91174205928 -0.082090130688 0.17289428388 0.97936661885 0.10463552213 
-0.017765187741 0.98000022444 0.19820181179 -0.17238547927 0.95741293133 0.23161115142 -0.29127122276 0.92976947153 0.22514396417 
-0.37774213712 0.90450475779 0.19794448966 -0.42669875648 0.89147561045 0.1523135161 -0.44452663674 0.89033682762 0.098470313313 
-0.44719357052 0.8927949116 0.054177082878 -0.60789185758 0.75601025235 0.24272615811 -0.43947068105 -0.59784986832 0.67040365113 
-0.29193952139 -0.7608218339 0.57958731259 -0.3038853306 -0.77637108183 0.55217900099 -0.32267930797 -0.7946148675 0.51426187546 
-0.26940645852 -0.8641380721 0.4250712322 -0.018483028282 -0.97974266809 0.19940582234 0.54308302725 -0.78102095329 -0.30832952506 
0.74402130081 -0.31076496662 -0.59148748039 0.71887247887 -0.09451821802 -0.68868618804 0.65572210641 -0.032465331087 -0.75430399803 
0.58882105773 -0.047081080181 -0.80689102973 0.52716736057 -0.15673091636 -0.83518261106 0.44962801951 -0.4221819682 -0.78714485948 
0.2663867464 -0.82264713126 -0.50228457946 -0.0081867443259 -0.99914347948 -0.040562108259 -0.21292438922 -0.94222790625 0.25859191239 
-0.36022704737 -0.8406137048 0.40448124017 -0.48982021801 -0.73172867183 0.47397183972 -0.61356686206 -0.61057796788 0.50072971843 
-0.72652094082 -0.47900255349 0.49267014959 -0.82095206952 -0.33432637943 0.46288613239 -0.88807151762 -0.18255776474 0.4219024083 
-0.92505488676 -0.036927493727 0.37803414752 -0.93699468039 0.088810089961 0.33786644822 -0.94370453274 0.15442834175 0.29252972866 
-0.98568413781 -0.0022942592367 0.16858682287 -0.11124439203 -0.88261924311 -0.45673620059 0.44339948434 -0.73972899502 -0.50615996604 
0.51907559616 -0.65055721011 -0.55437878913 0.52413933581 -0.56191224934 -0.6399473265 0.52413933581 -0.56191224934 -0.6399473265 

FrenetBinormal 3 120 double
0.7845493757 -0.17548281258 0.59471678938 0.7845493757 -0.17548281258 0.59471678938 0.80097920542 -0.22068791011 0.55653316058 
0.82325042393 -0.27866303194 0.49457623692 0.84809284715 -0.34927536941 0.3984284615 0.86638874279 -0.42656706758 0.25963644433 
0.86474520934 -0.49475139413 0.086236772521 0.83820927776 -0.53756071162 -0.091835113126 0.80214658103 -0.55142242409 -0.22911606829 
0.78195390927 -0.55032479865 -0.29272973845 0.78530073886 -0.55164678539 -0.28104905926 0.79437225419 -0.56306374017 -0.22788581852 
0.7930045398 -0.58519389551 -0.16938684871 0.77510251694 -0.62157371409 -0.11341166687 0.72247101378 -0.69002856151 -0.043545591613 
0.48044884777 -0.86746120373 0.12915093767 -0.79711571947 -0.4192790512 0.43452457582 -0.95225320747 0.088744597601 0.2921270704 
-0.9524508091 0.16409934256 0.25672721325 -0.95235583675 0.14221598954 0.26980172819 -0.94214061419 0.058538022182 0.33006720989 
-0.88387315046 -0.096640482723 0.4576339924 -0.67564801581 -0.33059065164 0.65894580944 -0.23838183837 -0.53067366976 0.81336311409 
0.19838207955 -0.55527314645 0.80766099531 0.47167875852 -0.47693926609 0.74165226705 0.6338844689 -0.3684423003 0.68002996363 
0.73694279712 -0.24712387291 0.62916222487 0.80343130103 -0.11720252027 0.58374798824 0.838167978 -0.0026101488856 0.54540592936 
0.68472707914 -0.3809096461 0.62133458668 -0.77805255913 -0.57809101179 -0.24585564324 -0.75141184525 -0.62779645538 -0.20310551304 
-0.70946399722 -0.6918434772 -0.13421415608 -0.67858806491 -0.73036297336 -0.078026696168 -0.66079777667 -0.74966896368 -0.036643461101 
-0.65543165336 -0.75508304834 -0.016091547067 -0.65530126797 -0.75525006175 -0.013326381047 -0.65292336789 -0.75704142772 -0.024069739828 
-0.64184662788 -0.76563609578 -0.042828438187 -0.61800680656 -0.78368101486 -0.062543217017 -0.58299462487 -0.80897534399 -0.075340295951 
-0.53635614405 -0.84040273298 -0.077751740412 -0.47883156516 -0.87534890388 -0.066967370331 -0.39044621973 -0.91999351194 -0.034112864065 
-0.2038296374 -0.97731838004 0.057465319538 0.36882116405 -0.86339999511 0.34425484366 0.86490900118 0.011086368022 0.50180624959 
0.81450813351 0.37879126985 0.43942425324 0.7709905936 0.4819657626 0.41627215648 0.75746897016 0.50593708753 0.41263594452 
0.77417866931 0.4794275398 0.41327547963 0.82893773169 0.38911767335 0.40180800547 0.91328934601 0.20830414331 0.35001707723 
0.96743530313 -0.01026654907 0.25291012676 0.97472502237 -0.13151014777 0.18059958971 0.97465829277 -0.14336321423 0.17172128914 
0.97196122618 -0.097774606284 0.2138492487 0.95574422699 -0.029359760261 0.29273021205 0.91178914567 0.049118599815 0.40771057994 
0.81294904943 0.13317721052 0.56690182009 0.60430223695 0.21254232863 0.76788317143 0.22723153487 0.25105653936 0.94092318688 
-0.23419681132 0.20430383955 0.95047977081 -0.57352723642 0.099961411375 0.81306471164 -0.75569775728 -0.0083666884432 0.65486708435 
-0.84338730992 -0.1045009502 0.52704591534 -0.88155636558 -0.18857845817 0.43277770209 -0.89322230575 -0.26251004072 0.36502382255 
-0.89085206345 -0.32142591741 0.3210420232 -0.88611986305 -0.35062881041 0.30306934127 -0.90215411452 -0.24554456923 0.35471935128 
0.13260357271 0.9499784059 0.28276725557 0.55050433318 0.83447089037 0.024562415752 0.53129271809 0.84622046608 0.04048420052 
0.43909931035 0.88986848497 0.12379771854 0.26967104549 0.92164796327 0.27900279395 0.0046783494933 0.86457012169 0.50249041556 
-0.30376395243 0.63279272679 0.71225053606 -0.51726705362 0.30049051798 0.80133653595 -0.60296856692 0.021243185696 0.79748205896 
-0.61818736873 -0.16656807007 0.76817931186 -0.60626749838 -0.28844435663 0.74110699196 -0.58866416786 -0.35971322352 0.72393431629 
-0.57505015565 -0.39673329954 0.71548585417 -0.57477694914 -0.39733796436 0.71536983499 -0.58699253578 -0.37256851765 0.7187714954 
-0.60099063635 -0.34478718681 0.72106313928 -0.44975742189 -0.57977008132 0.67940040791 0.62073092931 -0.74159313417 -0.2544262894 
0.70758754616 -0.57952082466 -0.404321009 0.71103197157 -0.57058196003 -0.4109376623 0.71497392465 -0.5606635773 -0.41769443395 
0.74897907846 -0.46546663149 -0.4715624614 0.80130689368 -0.13379454829 -0.58310057537 0.57876065333 0.61421759259 -0.5364446431 
0.18473709359 0.94642302341 -0.26486915074 0.016276918845 0.99273009278 -0.11925613113 -0.031021358058 0.99707286048 -0.069881229477 
-0.025525051228 0.99672096219 -0.076784082261 0.033350768478 0.98590238219 -0.16396407851 0.16811305652 0.90549733292 -0.38963133896 
0.36121268914 0.56834098654 -0.73926579538 0.43804692683 0.032880977766 -0.89835056142 0.39867306122 -0.32540862715 -0.85741997623 
0.33661455822 -0.52150863929 -0.78404041882 0.27082617169 -0.64446786545 -0.71506248338 0.19850313443 -0.73302255476 -0.65059545021 
0.12193806498 -0.79547562897 -0.59359045817 0.036984661577 -0.84009503309 -0.54117693057 -0.055949302551 -0.86802209195 -0.49336327734 
-0.14978844178 -0.87914010117 -0.45241143357 -0.23462898469 -0.87653125745 -0.42028822761 -0.26941927288 -0.8719231687 -0.40885601779 
-0.075561336956 -0.88785811975 -0.45387051408 0.98450709846 -0.035195850319 -0.17177609032 0.88430032754 0.45321099656 0.11230638144 
0.83486392653 0.52492133348 0.16571004147 0.8156151376 0.54742438907 0.1873458982 0.8156151376 0.54742438907 0.1873458982 

plain_curvature_peaks 1 120 unsigned_char
0 0 0 0 0 0 0 0 0 
0 0 0 0 0 0 0 0 0 
0 1 0 0 0 0 0 0 0 
0 0 0 0 0 0 0 0 0 
0 0 0 0 0 0 0 0 0 
0 1 0 0 0 0 0 0 0 
0 0 0 0 0 0 0 0 0 
0 0 0 0 1 0 0 0 0 
0 0 0 0 0 0 0 0 0 
0 0 0 0 0 0 0 0 0 
0 0 0 0 0 0 0 0 0 
0 0 0 1 0 0 0 0 0 
0 0 0 0 0 0 0 0 0 
0 0 0 
weighted_curvature_peaks 1 120 unsigned_char
0 0 0 0 0 0 0 0 0 
0 0 0 0 0 0 0 0 0 
0 0 0 1 0 0 0 0 0 
0 0 0 0 0 0 0 0 0 
0 0 0 0 0 0 0 0 0 
0 0 0 0 0 0 0 0 0 
0 0 1 0 0 0 0 0 0 
0 0 0 0 0 0 0 0 0 
1 0 0 0 0 0 0 0 0 
0 0 0 0 0 0 0 0 0 
0 0 0 0 0 0 0 0 0 
0 0 0 0 0 0 0 1 0 
0 0 0 0 0 0 0 0 0 
0 0 0 
plain_torsion_tp 1 120 unsigned_char
0 0 0 0 0 0 0 0 0 
0 0 0 0 0 0 0 0 0 
0 1 0 0 0 0 0 0 0 
0 0 0 0 0 0 0 0 0 
0 0 0 0 0 0 0 0 0 
0 1 0 0 0 0 0 0 0 
0 0 0 0 0 0 0 0 0 
0 0 0 0 1 0 0 0 0 
0 0 0 0 0 0 0 0 0 
0 0 0 0 0 0 0 0 0 
0 0 0 0 0 0 0 0 0 
0 0 0 1 0 0 0 0 0 
0 0 0 0 0 0 0 0 0 
0 0 0 
plain_torsion_tn 1 120 unsigned_char
0 2 0 0 0 0 0 0 0 
0 0 0 0 0 0 0 0 0 
0 0 0 0 0 0 0 0 0 
0 0 0 0 0 0 0 0 0 
0 0 0 0 0 0 2 0 0 
0 0 0 0 2 0 0 0 0 
0 0 0 0 0 0 0 0 0 
0 0 0 0 0 0 0 0 0 
0 0 0 0 0 0 0 0 0 
0 2 0 0 0 0 0 0 0 
0 0 0 0 0 0 0 0 0 
0 0 0 0 0 0 0 0 0 
0 0 0 0 0 0 0 0 0 
0 0 0 
plain_torsion_tz 1 120 unsigned_char
0 3 0 0 0 0 0 0 0 
0 0 0 0 0 0 0 0 0 
0 0 0 0 0 0 0 0 0 
0 0 0 0 0 0 0 3 0 
0 0 0 0 0 0 0 0 0 
3 0 0 0 0 0 0 0 0 
3 0 0 0 0 0 0 0 0 
0 0 0 0 0 0 0 0 0 
0 0 0 3 0 0 0 0 0 
0 0 0 0 0 0 0 3 0 
0 0 0 0 0 0 0 0 0 
0 0 0 0 0 0 0 0 0 
0 0 0 0 0 0 0 0 0 
0 0 0 
weighted_torsion_tp 1 120 unsigned_char
0 0 0 0 0 0 0 0 0 
0 0 0 0 0 0 0 0 0 
0 0 0 1 0 0 0 0 0 
0 0 0 0 0 0 0 0 0 
0 0 0 0 0 0 0 0 0 
0 0 0 0 0 0 0 0 0 
0 0 1 0 0 0 0 0 0 
0 0 0 0 0 0 0 0 0 
1 0 0 0 0 0 0 0 0 
0 0 0 0 0 0 0 0 0 
0 0 0 0 0 0 0 0 0 
0 0 0 0 0 0 0 1 0 
0 0 0 0 0 0 0 0 0 
0 0 0 
weighted_torsion_tn 1 120 unsigned_char
0 0 0 0 2 0 0 0 0 
0 0 0 0 0 0 0 0 0 
0 0 0 0 0 0 0 0 0 
0 0 0 0 0 0 0 0 0 
0 0 0 0 0 0 0 0 0 
0 2 0 0 0 0 0 0 0 
0 0 0 0 0 2 0 0 0 
0 0 0 0 0 0 0 0 0 
0 0 0 0 0 0 0 0 0 
0 0 0 0 0 0 2 0 0 
0 0 0 0 0 0 0 0 0 
0 0 0 0 0 0 0 0 0 
0 0 0 0 0 0 0 0 0 
0 0 0 
weighted_torsion_tz 1 120 unsigned_char
0 0 0 0 3 0 0 0 0 
0 0 0 0 0 0 0 0 0 
0 0 0 0 0 0 0 0 0 
0 0 0 0 0 0 0 0 0 
0 0 3 0 0 0 0 0 0 
0 0 0 0 0 0 3 0 0 
0 0 0 0 0 0 0 3 0 
0 0 0 0 0 0 0 0 0 
0 0 0 0 0 0 0 0 3 
0 0 0 0 0 0 0 0 0 
0 0 0 0 3 0 0 0 0 
0 0 0 0 0 0 0 0 0 
0 0 0 0 0 0 0 0 0 
0 0 0 
plain_torsion_tp_raw 1 120 unsigned_char
0 0 0 0 0 0 0 0 0 
0 0 0 0 0 0 0 0 0 
0 0 0 0 0 0 0 0 1 
0 0 0 0 0 0 0 0 0 
0 0 0 0 0 0 0 0 1 
0 0 0 0 0 0 0 1 0 
0 0 0 0 0 0 0 0 0 
0 0 0 0 0 0 0 1 0 
0 0 0 0 0 0 0 0 0 
0 0 0 0 0 0 0 0 0 
0 0 0 0 1 0 0 0 0 
0 0 0 0 0 0 1 0 0 
0 0 0 0 0 0 0 0 0 
0 0 0 
plain_torsion_tn_raw 1 120 unsigned_char
0 0 0 0 0 0 0 0 0 
0 0 0 0 2 0 0 0 0 
0 0 0 0 0 0 0 0 0 
0 0 0 0 0 0 0 0 0 
2 0 0 0 0 0 0 0 0 
0 0 2 0 0 0 0 0 0 
0 0 0 0 2 0 0 0 0 
0 0 0 0 0 0 0 0 0 
0 0 0 0 0 0 0 0 0 
0 0 2 0 0 0 0 0 0 
0 0 0 0 0 0 0 0 2 
0 0 0 0 0 0 0 0 0 
0 0 0 0 0 0 0 0 0 
0 0 0 
plain_torsion_tz_raw 1 120 unsigned_char
0 3 0 0 0 0 0 0 0 
0 0 0 0 0 0 0 0 0 
0 0 3 0 0 0 0 0 0 
3 0 0 0 0 0 0 0 0 
0 0 0 0 0 3 0 0 0 
0 0 0 0 0 0 0 0 0 
0 0 0 0 0 0 0 0 0 
0 0 0 0 0 0 0 0 0 
0 0 0 0 0 0 0 0 0 
0 0 0 0 0 0 0 0 0 
0 0 0 0 0 0 0 0 0 
0 0 0 0 0 0 0 0 0 
0 0 0 0 0 0 0 0 0 
0 0 0 
weighted_torsion_tp_raw 1 120 unsigned_char
0 0 0 0 0 0 0 0 0 
0 0 0 0 0 0 0 0 0 
0 0 0 0 0 0 0 0 0 
0 0 1 0 0 0 0 0 0 
0 0 0 0 0 0 0 0 0 
0 0 0 1 0 0 0 0 0 
0 0 0 0 0 0 1 0 0 
0 0 0 0 0 0 0 0 0 
0 0 0 1 0 0 0 0 0 
0 0 0 0 0 0 0 0 0 
0 0 0 0 0 0 0 0 1 
0 0 0 0 0 0 0 0 0 
1 0 0 0 0 0 0 0 0 
0 0 0 
weighted_torsion_tn_raw 1 120 unsigned_char
0 0 0 0 0 0 0 0 0 
0 0 0 0 0 2 0 0 0 
0 0 0 0 0 0 0 0 0 
0 0 0 0 0 0 0 0 0 
0 0 0 0 2 0 0 0 0 
0 0 0 0 0 0 0 0 0 
0 0 0 0 2 0 0 0 0 
0 2 0 0 0 0 0 0 0 
0 0 0 0 0 0 0 0 0 
0 0 0 0 0 0 0 0 2 
0 0 0 0 0 0 0 0 0 
0 0 0 2 0 0 0 0 0 
0 0 0 0 0 0 0 0 0 
0 0 0 
weighted_torsion_tz_raw 1 120 unsigned_char
0 0 0 0 3 0 0 0 0 
0 0 0 0 0 0 0 0 0 
0 0 0 0 3 0 0 0 0 
0 0 0 3 0 0 0 0 0 
0 0 0 0 0 0 0 0 3 
0 0 0 0 0 0 0 0 0 
0 0 0 0 0 0 0 0 0 
0 0 0 0 0 0 0 0 0 
0 0 0 0 0 0 0 0 0 
0 0 0 0 0 0 0 0 0 
0 0 0 0 0 0 0 0 0 
0 0 0 0 0 0 0 0 0 
0 0 0 0 0 0 0 0 0 
0 0 0 
