# vtk DataFile Version 5.1
vtk output
ASCII
DATASET POLYDATA
POINTS 120 float
-4.54891 18.0122 -10.7908 -4.51692 18.5305 -10.2219 -4.5277 18.7635 -9.74518 
-4.58229 18.7604 -9.35515 -4.68171 18.5701 -9.04633 -4.82681 18.2404 -8.8126 
-5.01816 17.8163 -8.64658 -5.25554 17.3376 -8.53897 -5.53741 16.8368 -8.47816 
-5.85998 16.3375 -8.45043 -6.21659 15.8542 -8.44119 -6.59712 15.3924 -8.43706 
-6.98802 14.9504 -8.42853 -7.37284 14.5216 -8.41211 -7.73331 14.0969 -8.39134 
-8.05096 13.6668 -8.37618 -8.30894 13.224 -8.3806 -8.49371 12.7636 -8.41948 
-8.5963 12.2841 -8.50525 -8.61299 11.7864 -8.64499 -8.54532 11.2737 -8.83856 
-8.39977 10.7501 -9.07791 -8.18704 10.2207 -9.34731 -7.92136 9.69179 -9.62482 
-7.61958 9.17152 -9.88431 -7.3001 8.67043 -10.0982 -6.98185 8.20177 -10.2404 
-6.68306 7.78068 -10.2895 -6.42002 7.42256 -10.2319 -6.20585 7.1404 -10.0629 
-6.0494 6.94158 -9.78763 -5.95417 6.82468 -9.41994 -5.91753 6.77815 -8.97976 
-5.93072 6.78015 -8.49046 -5.97952 6.80143 -7.97614 -6.04555 6.80982 -7.45967 
-6.10841 6.7754 -6.96141 -6.14823 6.67533 -6.49817 -6.14863 6.49648 -6.08229 
-6.09924 6.23601 -5.72063 -5.99787 5.90003 -5.41379 -5.85133 5.50081 -5.15584 
-5.67462 5.05418 -4.9352 -5.48852 4.57655 -4.73647 -5.31603 4.0824 -4.54309 
-5.17784 3.58284 -4.34055 -5.08884 3.08482 -4.11885 -5.05588 2.59117 -3.87384 
-5.07742 2.10132 -3.60723 -5.14478 1.61274 -3.32525 -5.24434 1.12177 -3.03655 
-5.35992 0.625308 -2.75 -5.47517 0.121317 -2.47267 -5.57525 -0.390544 -2.20861 
-5.64804 -0.909321 -1.95851 -5.68474 -1.43261 -1.72019 -5.68007 -1.95787 -1.48966 
-5.63214 -2.48243 -1.2624 -5.54193 -3.0042 -1.03448 -5.41252 -3.52183 -0.803373 
-5.24798 -4.03373 -0.568279 -5.05221 -4.53824 -0.329757 -4.82797 -5.03255 -0.0898949 
-4.57638 -5.51267 0.1491 -4.29669 -5.97259 0.384898 -3.98678 -6.40541 0.61552 
-3.64395 -6.80337 0.839906 -3.2659 -7.15936 1.05783 -2.85181 -7.46768 1.26964 
-2.4029 -7.72477 1.47665 -1.92259 -7.93 1.68042 -1.41618 -8.08511 1.88297 
-0.889958 -8.19378 2.08627 -0.350516 -8.26149 2.29228 0.196122 -8.29442 2.50263 
0.744876 -8.29896 2.71867 1.29188 -8.28093 2.94115 1.83447 -8.24505 3.17047 
2.37099 -8.1939 3.40644 2.90062 -8.12821 3.64831 3.4232 -8.04708 3.89465 
3.93901 -7.94872 4.14358 4.44877 -7.83192 4.3931 4.95345 -7.69709 4.64122 
5.45424 -7.54708 4.88624 5.95242 -7.38796 5.12757 6.44893 -7.22777 5.36602 
6.94403 -7.07556 5.60363 7.43737 -6.93914 5.84412 7.92723 -6.82408 6.09265 
8.41117 -6.73218 6.35459 8.88602 -6.66166 6.63536 9.34875 -6.60923 6.93891 
9.79712 -6.5717 7.26695 10.2296 -6.54905 7.61831 10.6452 -6.54524 7.98898 
11.0433 -6.5689 8.37255 11.4215 -6.6321 8.76187 11.7761 -6.74797 9.14969 
12.1007 -6.92818 9.53036 12.3877 -7.18028 9.89999 12.6287 -7.50586 10.2568 
12.8153 -7.8997 10.6 12.9405 -8.35029 10.9302 12.9992 -8.84097 11.2482 
12.99 -9.3521 11.5544 12.9164 -9.86242 11.8493 12.7874 -10.3516 12.1333 
12.6191 -10.8017 12.4078 12.4329 -11.1985 12.6747 12.2531 -11.5331 12.9378 
12.1032 -11.8034 13.2021 12.0003 -12.0147 13.4734 11.9529 -12.18 13.7582 
11.9584 -12.3194 14.0632 12.0042 -12.4588 14.3947 12.0702 -12.6275 14.7585 
12.1324 -12.857 15.1603 12.1647 -13.1793 15.6053 12.1404 -13.6265 16.0988 

LINES 2 120
OFFSETS vtktypeint64
0 120 
CONNECTIVITY vtktypeint64
0 1 2 3 4 5 6 7 8 
9 10 11 12 13 14 15 16 17 
18 19 20 21 22 23 24 25 26 
27 28 29 30 31 32 33 34 35 
36 37 38 39 40 41 42 43 44 
45 46 47 48 49 50 51 52 53 
54 55 56 57 58 59 60 61 62 
63 64 65 66 67 68 69 70 71 
72 73 74 75 76 77 78 79 80 
81 82 83 84 85 86 87 88 89 
90 91 92 93 94 95 96 97 98 
99 100 101 102 103 104 105 106 107 
108 109 110 111 112 113 114 115 116 
117 118 119 
CELL_DATA 1
FIELD FieldData 2
Length 1 1 double
64.486770814 
Tortuosity 1 1 double
0.44103501796 
POINT_DATA 120
FIELD FieldData 19
Curvature 1 120 double
0 0.45485073778 1.0774526803 1.5156227987 1.0007694209 0.51036494555 0.28663666669 0.19038188505 0.14448414289 
0.11624537744 0.090438395609 0.060183694016 0.027082494458 0.051253694747 0.12466873618 0.21983925602 0.32141264332 0.39338621789 
0.39702860446 0.33486870222 0.24781047949 0.17072729685 0.11774683413 0.09639146229 0.11381088834 0.17032470309 0.27763063194 
0.46963125455 0.76865389002 1.029526535 0.9431387703 0.61540078403 0.33314719273 0.15343698338 0.079176672099 0.16540924777 
0.30547512207 0.45707377747 0.54920767857 0.51053123244 0.37519921034 0.22820035966 0.11312143875 0.066782393838 0.11570278486 
0.17165067691 0.2001562259 0.19017484105 0.14944919386 0.095624827978 0.046638522208 0.03424453138 0.062824660523 0.091884749053 
0.11369233523 0.12744621143 0.13204168075 0.12801935847 0.11716291726 0.1038775579 0.092152866284 0.086074526067 0.087728572583 
0.098994790414 0.11806130982 0.143681922 0.17003894929 0.19104272129 0.20039929348 0.19456569075 0.17711412128 0.15360663005 
0.12761367042 0.1038739065 0.083472833859 0.067479295632 0.056299659027 0.050782608328 0.049199624206 0.050872587605 0.054685916737 
0.057504600856 0.055956515111 0.047751842731 0.030302244537 0.0078595593035 0.022124035288 0.048294126299 0.071459670078 0.086953690215 
0.096290052967 0.10201392499 0.10361824484 0.10282162937 0.10240082562 0.11336317321 0.14595037907 0.19495959548 0.24937851357 
0.2913187348 0.30623915504 0.29254627166 0.26190660718 0.23014083187 0.20465347497 0.18541565796 0.17062784555 0.15427191574 
0.14109341125 0.15241283759 0.23520356378 0.40523634533 0.57834117961 0.56321398121 0.32840838695 0.13368482435 0.20347794185 
0.2582142594 0.23934462336 0 
Torsion 1 120 double
0 0 -0.11085293363 -0.13083636484 -0.23825196525 -0.41035911023 -0.5292789669 -0.56453192442 -0.54077764806 
-0.51053815651 -0.52876628591 -0.75049458495 -3.0667924832 -1.3634362252 -0.47050018162 -0.27140255878 -0.17579380263 -0.11138519882 
-0.057147485961 0.0052488696306 0.10010850953 0.26614393475 0.556444566 0.81536063426 0.61931343946 0.32741749225 0.16297358566 
0.082166887547 0.049558794372 0.046966266989 0.069306846618 0.13714800459 0.32565718208 1.0655165748 3.3219059805 0.81144265302 
0.30371066339 0.16848761395 0.10611437935 0.056012683944 -0.02155895883 -0.21286912253 -0.96411167987 -2.3999735634 -0.58951818824 
-0.14781801973 -0.014541638493 0.063723098988 0.16276337836 0.39481154559 1.3691898936 2.1465654501 0.63470087295 0.34942029926 
0.26928583256 0.22755993014 0.19324727233 0.1527814459 0.11032834136 0.066405148201 0.011948915356 -0.021788685999 -0.010755151608 
0.0094980139223 0.038271173262 0.055804298446 0.058528853692 0.06571718715 0.072141123961 0.082045049596 0.099909169821 0.1196323545 
0.14686764459 0.17852330325 0.21005530069 0.22839363671 0.19893176132 0.076946265333 -0.079227598837 -0.19385498368 -0.21507069505 
-0.19643180472 -0.18757429145 -0.20197448685 -0.32996291851 -3.6548097076 -0.6772618303 -0.33106820716 -0.29631281447 -0.33609917018 
-0.34801127589 -0.27771058681 -0.11899997632 0.12493028239 0.39975672967 0.49756569207 0.33528949926 0.14573669643 0.022499743027 
-0.053079615538 -0.1069466317 -0.15360622127 -0.20032944898 -0.23099911702 -0.24840004254 -0.26663808935 -0.31774048436 -0.48252369169 
-0.88706457263 -1.3627645078 -1.0579080936 -0.62959810503 -0.44270080669 -0.4931636319 -1.1644962461 -4.5407711809 -1.0493206323 
-0.28854925233 0 0 
FrenetTangent 3 120 double
0.016474233902 0.58344294785 0.81198702343 0.016474233902 0.58344294785 0.81198702343 -0.072706798283 0.25566437855 0.96402772109 
-0.20776119345 -0.26092334783 0.94273765866 -0.30940744054 -0.65798618452 0.68652838013 -0.36683465785 -0.82186552106 0.4358547913 
-0.41374625951 -0.87125478862 0.26406273128 -0.4630515626 -0.87351348238 0.15019136618 -0.51578169794 -0.85338161533 0.075558313138 
-0.56834533761 -0.82220817039 0.030940293384 -0.61496631323 -0.78847457354 0.011148115468 -0.64917892114 -0.76056114904 0.010652085461 
-0.66502624499 -0.74651342573 0.021396230685 -0.65735876746 -0.75286367787 0.032798374729 -0.62115388016 -0.78299735694 0.032908907406 
-0.55050803009 -0.83476658575 0.010278916477 -0.43974898829 -0.89709058832 -0.043003530535 -0.29004734701 -0.9487054147 -0.12581960344 
-0.11810522973 -0.96757054368 -0.22328994091 0.047859220593 -0.9485732439 -0.31291899266 0.18651050078 -0.90653880208 -0.37868355313 
0.2929240535 -0.86092243358 -0.4159423785 0.3726755275 -0.82437902506 -0.42604245591 0.4338116867 -0.80204669228 -0.41052225748 
0.48318142903 -0.79435501186 -0.36815190042 0.52529403556 -0.79877855756 -0.29328994558 0.56117604143 -0.80919145373 -0.17404206885 
0.58482862866 -0.81110838766 0.0088689665523 0.57487276814 -0.77132564318 0.27308982522 0.4926083447 -0.63930142758 0.59044957738 
0.3315135929 -0.41586879122 0.8468482073 0.15798940175 -0.1957899792 0.96783554025 0.025196391275 -0.047832981647 0.99853750442 
-0.061632393554 0.023143851977 0.99783055184 -0.11067669272 0.028595186067 0.99344500856 -0.12596275744 -0.025439541856 0.99170873418 
-0.10516864271 -0.13776139274 0.98486616109 -0.04356870251 -0.30212406355 0.95227244966 0.054769097161 -0.49118226748 0.86933326527 
0.16593755464 -0.65652709887 0.73582395748 0.2583225771 -0.76609708175 0.58852757582 0.31561672145 -0.82585556819 0.46727793189 
0.33660938481 -0.85750224699 0.38908099216 0.32376216415 -0.8774050871 0.35403160058 0.27891514543 -0.89211420719 0.35544139175 
0.20512011337 -0.90067270574 0.38303317901 0.11059659567 -0.89925355783 0.42321558544 0.010298630351 -0.88709937397 0.46146358353 
-0.079009185628 -0.86952321724 0.48753145875 -0.14566421119 -0.85484193665 0.49802329356 -0.18500542685 -0.84915295876 0.49468398464 
-0.19706140199 -0.85407110339 0.48138275229 -0.18387705837 -0.8674464949 0.46230488413 -0.14842782137 -0.88491714363 0.44146441618 
-0.094708575946 -0.90140562626 0.42249045266 -0.027873446437 -0.91254081049 0.40803472913 0.045882590059 -0.91567355119 0.39929529872 
0.1201886962 -0.91034307186 0.39601788953 0.1897695333 -0.89814444855 0.39664098851 0.25171577164 -0.88162280168 0.39922475609 
0.30592050378 -0.86296758284 0.40211888334 0.3546036004 -0.84328396887 0.40389161222 0.40139642498 -0.82201040147 0.40395520777 
0.45041308172 -0.79693670693 0.40251700706 0.50517333085 -0.76491366492 0.39963357092 0.56742547525 -0.72220271084 0.39553959915 
0.63624457515 -0.6654310289 0.39037723598 0.70753199929 -0.5933532637 0.38383639018 0.77504239506 -0.50777336512 0.37613228462 
0.83247252505 -0.41419188718 0.36801436878 0.87606777249 -0.3199372561 0.3607567188 0.90546265421 -0.23129130434 0.35586755172 
0.9225654425 -0.15269047287 0.35434252328 0.93026410946 -0.086199349566 0.35662074924 0.93141279752 -0.031859060697 0.36256751214 
0.92835203233 0.011423147515 0.37152660169 0.92277410698 0.04565482624 0.38262721327 0.91576709441 0.073863502475 0.39486049664 
0.90801107036 0.099503311581 0.40695821294 0.89993355471 0.12557228515 0.41755382684 0.89180143196 0.15415234676 0.42535545128 
0.88380208278 0.18541438356 0.42955254026 0.87632653963 0.21737696689 0.42988260048 0.87012474893 0.24649800741 0.4267571366 
0.86620217779 0.26804202525 0.42171940896 0.86525697907 0.27775990821 0.41734852768 0.86719458576 0.27320842272 0.41633004718 
0.87064587226 0.25422906175 0.42112153741 0.87276983611 0.22323490692 0.43409559951 0.8704008076 0.18498939353 0.45626895402 
0.86095402923 0.14584425514 0.48732700807 0.84346723215 0.11061020762 0.52566948766 0.81914904734 0.08088307904 0.56784924563 
0.79067047062 0.054014742783 0.60985458467 0.76122023068 0.023747339607 0.64805850373 0.73327528898 -0.01789054851 0.67969646082 
0.70644303432 -0.079044373669 0.7033421829 0.67659937934 -0.16533310736 0.71755016792 0.63622545934 -0.27736540071 0.71992055074 
0.57694507007 -0.4077735579 0.7077111781 0.49450704789 -0.54100225125 0.68027887203 0.39188931645 -0.65938694663 0.64158523851 
0.2773200208 -0.75114691654 0.59905919226 0.1588634736 -0.81313755163 0.55997296264 0.04194350827 -0.84798958287 0.52835065009 
-0.069708085164 -0.85973973945 0.50595292595 -0.1728178936 -0.85231883149 0.49364621455 -0.26253269188 -0.82939308079 0.49313659693 
-0.33261186651 -0.79455807764 0.50798307797 -0.37547261412 -0.75047355357 0.54388395954 -0.37997215374 -0.69727623942 0.60780507428 
-0.33124768577 -0.63095862192 0.70154557093 -0.21844444491 -0.54721268749 0.80798533349 -0.062955430605 -0.45810426881 0.88666628032 
0.073698306638 -0.40004445478 0.91352777396 0.14548632127 -0.4008193558 0.90453168786 0.14699164441 -0.45646942704 0.87751303047 
0.093039577115 -0.54350843539 0.83423151328 0.0065414763311 -0.63397788465 0.77332350983 0.0065414763311 -0.63397788465 0.77332350983 

FrenetNormal 3 120 double
-0.21289449917 -0.79142809705 0.5729899645 -0.21289449917 -0.79142809705 0.5729899645 -0.25379990383 -0.93950854044 0.23002024099 
-0.23373988624 -0.9226054004 -0.3068630651 -0.1856906587 -0.66625043158 -0.7222391167 -0.20954282327 -0.38347899826 -0.89946409773 
-0.32383986495 -0.13023413993 -0.93710554937 -0.48915794089 0.11054853825 -0.86516098476 -0.64245236664 0.32693063549 -0.69308824559 
-0.74249664822 0.49631702123 -0.44985346705 -0.77985021513 0.60602359894 -0.15674514185 -0.74187050314 0.63619276526 0.21186533931 
-0.33025115697 0.31965676429 0.88811808132 0.72473649495 -0.61967518212 0.30126347531 0.77401652189 -0.6195236317 -0.13072449507 
0.78847755975 -0.52394836895 -0.3221509653 0.81818028062 -0.38040045351 -0.43113399701 0.85199447048 -0.19609996276 -0.48543818028 
0.87149909682 0.0067815930696 -0.49035021591 0.87126549439 0.19284790803 -0.45133814669 0.86699695023 0.33316770301 -0.37056115549 
0.88239424685 0.41093957145 -0.22914855822 0.91700740651 0.39750413864 0.032982967955 0.86123459352 0.23524999628 0.45048020398 
0.61760326335 0.011199108179 0.7864100642 0.37915839193 -0.088844458639 0.92105677132 0.20758593419 -0.065956194658 0.97599070708 
0.053705314122 0.049627927115 0.9973228204 -0.12524045321 0.24687402041 0.96092041654 -0.33217144206 0.48898491611 0.80657044633 
-0.50931494338 0.67668826233 0.5316872051 -0.61794824957 0.74488691032 0.25156202352 -0.70805806327 0.70426621104 0.051603130104 
-0.8745247291 0.48058327663 -0.065162968175 -0.78969272682 -0.60944589529 -0.070435061721 0.023050415048 -0.99947630664 -0.022711028673 
0.27632586712 -0.95540583053 -0.10413315586 0.39475351976 -0.88081954338 -0.26139355509 0.45543058668 -0.76251196786 -0.4595198359 
0.46548309377 -0.60566357662 -0.64536588178 0.42959029158 -0.45456248612 -0.7802724701 0.33990831776 -0.36136822926 -0.86825994863 
0.06793796147 -0.39000065032 -0.91830492003 -0.79368032386 -0.45554730482 -0.40317266349 -0.94438391463 -0.18766725168 0.27003707972 
-0.91813271942 -0.041498259892 0.3940941562 -0.92051306964 0.067873572579 0.38477118755 -0.93370159299 0.15664606436 0.32196792661 
-0.95195551231 0.21096183743 0.22198154369 -0.97872079979 0.19804933258 0.053684801671 -0.93978255493 0.0056745645054 -0.34172583859 
0.060338155294 -0.50064557931 -0.86354693615 0.68645680745 -0.44995482852 -0.57124224616 0.85642670834 -0.3382317779 -0.39004173835 
0.93929468698 -0.22150470951 -0.26203273589 0.98176840824 -0.10177222694 -0.16054035757 0.99698424147 0.016931473542 -0.075734717736 
0.99193634564 0.12627929112 -0.010762287301 0.9750725978 0.21971088238 0.030992857103 0.95383780025 0.29581273744 0.051848579367 
0.93377822169 0.35433717946 0.050033947913 0.91873170883 0.3945125427 0.017085106053 0.90128591197 0.432982063 -0.014499586592 
0.87798641428 0.47720225933 -0.037654482204 0.84593701939 0.53055881819 -0.053832143396 0.79990467244 0.59744705232 -0.056652755343 
0.73903885361 0.67090585067 -0.060884418292 0.66279233597 0.74560401304 -0.069144595711 0.57090376876 0.81782487906 -0.07232809965 
0.47039001912 0.8793165406 -0.074401957965 0.36511482885 0.92883420679 -0.062914052981 0.26132696393 0.96450002168 -0.038051624131 
0.16104049144 0.98692959106 0.005995198328 0.065397872446 0.99540056263 0.070005986859 -0.027751704307 0.98704510385 0.15802470023 
-0.11478490345 0.95948523046 0.25731793266 -0.19498805941 0.91177233776 0.36145658214 -0.25039196602 0.87359449693 0.41729667897 
-0.27731117822 0.87087212374 0.4058081499 -0.27424627851 0.90750647817 0.31815243328 -0.25546557371 0.947516801 0.19222188345 
-0.23622055271 0.96934452947 0.067609419961 -0.21767177352 0.97478196344 -0.049184578537 -0.19165615154 0.96701445454 -0.16778249103 
-0.14059175404 0.94059267624 -0.309062091 0.13993928906 0.66557840071 -0.733090982 0.25474786236 -0.96176931491 0.10051523029 
0.1297238041 -0.94445188601 0.30196418606 0.01228604237 -0.89906409299 0.43764461594 -0.11117023415 -0.82895035039 0.54816283678 
-0.25359425552 -0.70741895096 0.65973356849 -0.37797051275 -0.57314792722 0.72707616177 -0.47204180266 -0.46733997668 0.74750911883 
-0.51944013237 -0.46807183072 0.71490608486 -0.51166307255 -0.59198398643 0.62270045769 -0.42762023155 -0.7893382338 0.44055202898 
-0.34012734437 -0.90938908847 0.23942613764 -0.31515181461 -0.94572589823 0.079258180458 -0.36455462495 -0.93047370267 -0.036312725968 
-0.457571713 -0.87909417403 -0.13349741813 -0.57444910395 -0.79079380324 -0.21131348213 -0.69239363767 -0.67058944952 -0.26627211776 
-0.80211870485 -0.52422615617 -0.28599391692 -0.89327338392 -0.35994717693 -0.26925952426 -0.95578327846 -0.18811050072 -0.22603708575 
-0.98737032436 -0.01287033159 -0.15790565898 -0.98476697416 0.1592787533 -0.069744428805 -0.93697392362 0.34123437281 0.075093070701 
-0.78202169392 0.53343311396 0.32232155245 -0.35251516556 0.65835189086 0.66506078357 0.197338034 0.58085443904 0.78972515534 
0.53026825278 0.4905091723 0.69153187344 0.72688721576 0.46118853803 0.50886158034 0.85334879968 0.4359895221 0.2858477964 
0.96061686466 0.27456970814 0.042740083059 0.70396347945 -0.60046729559 -0.37930785193 -0.33041674713 -0.85884862744 -0.39141258073 
-0.57127105094 -0.71537208073 -0.40235826383 -0.65620343426 -0.58626210217 -0.47507241598 -0.65620343426 -0.58626210217 -0.47507241598 

FrenetBinormal 3 120 double
0.97693629876 -0.18230714139 0.11117362259 0.97693629876 -0.18230714139 0.11117362259 0.96452025914 -0.22794610764 0.13319625262 
0.94984259331 -0.28410962972 0.13069340543 0.93262319026 -0.35094806368 0.083960952768 0.90637968811 -0.42128484805 -0.031542634513 
0.85084768003 -0.47323795505 -0.22826314483 0.73912634863 -0.47408144531 -0.47847572976 0.56676643926 -0.40602484923 -0.7168818767 
0.35451700184 -0.27864518474 -0.89256627565 0.11683353782 -0.10508684225 -0.98757616417 -0.16791332562 0.1296360444 -0.97724081529 
-0.6698315212 0.58355570279 -0.45911706018 -0.2064859892 0.22180836595 0.95297669702 0.12274477996 -0.055727989294 0.99087239855 
0.27430648292 -0.16924199832 0.94663250495 0.3704076885 -0.22477537968 0.90126254387 0.43586461058 -0.24799766273 0.86517004139 
0.47596268652 -0.25250990673 0.84243591332 0.48847306302 -0.25103482892 0.83568868688 0.46209319557 -0.25920393899 0.84810565181 
0.36820631717 -0.29990203728 0.88004708739 0.14216317249 -0.40297603254 0.9041017363 -0.264730798 -0.54897954667 0.79280455469 
-0.62056580291 -0.60735055373 0.49600744867 -0.76177758567 -0.59502897253 0.25619412918 -0.80124249167 -0.58383128693 0.13096372763 
-0.80937705326 -0.58278662675 0.072584663304 -0.80860134141 -0.58660887329 0.045319978369 -0.80436257484 -0.59345382003 0.028520372999 
-0.79416435715 -0.60757398242 0.012523167263 -0.77018134863 -0.63781641157 -0.0033038375991 -0.70570455639 -0.70832274414 -0.01612356133 
-0.48104879822 -0.87664364273 -0.0093796267609 0.60343687896 -0.79231181744 0.09003286654 0.99176714107 0.019998554134 0.12648318358 
0.95529240118 0.26119245329 0.13854577074 0.91775346733 0.36452432323 0.15764070214 0.88858501378 0.42108844556 0.18193733619 
0.86936195993 0.44960404847 0.20509993229 0.86528702032 0.45438772822 0.21168411586 0.88591671203 0.43286901411 0.16666132114 
0.93919037232 0.33554342365 -0.07302092436 0.51502388739 -0.15045586134 -0.84386813496 -0.17419920617 -0.41099056433 -0.89484154609 
-0.33905463957 -0.43251193227 -0.83544920841 -0.37473201311 -0.43212986113 -0.82026806684 -0.35790400034 -0.43418511171 -0.8266728587 
-0.29586863838 -0.44656967859 -0.8444153427 -0.14452520073 -0.47960580189 -0.86550028374 0.28737039074 -0.5281165136 -0.79906896235 
0.97853263147 -0.14112602266 0.15019099463 0.70353839903 0.21231399099 0.67820092179 0.49447191536 0.32018887133 0.80806968238 
0.32978140738 0.37202629022 0.86766391116 0.18802623106 0.39612079347 0.89874048168 0.062587620152 0.40156602552 0.91368896072 
-0.04021148468 0.39411804343 0.91817972333 -0.11498240413 0.38087225904 0.91745047225 -0.16380665776 0.36774455799 0.91538588527 
-0.18566334602 0.36018344524 0.91421934333 -0.17374790295 0.36500959096 0.91464728979 -0.16298654823 0.36989922005 0.9146638465 
-0.16207378614 0.37036453508 0.91463774195 -0.170852173 0.36525939502 0.9150929512 -0.1953991941 0.34854019012 0.91670000044 
-0.22139199048 0.32724132581 0.91863959268 -0.24516278134 0.30332583172 0.92080869373 -0.27088405763 0.27079268243 0.92373868083 
-0.29278443427 0.23504787178 0.9268385906 -0.31495463127 0.18683460189 0.93053555106 -0.33443325157 0.12745211143 0.93376140397 
-0.35062653126 0.051532531287 0.93509648368 -0.36101496498 -0.041801818752 0.93162267202 -0.36290500619 -0.15724809451 0.91846229822 
-0.35353490634 -0.28152727085 0.89205126858 -0.33236667128 -0.40815051259 0.85026205072 -0.31412496264 -0.48101646326 0.81850392175 
-0.3140293084 -0.48133235407 0.8183549098 -0.33898167477 -0.40082863331 0.85113326271 -0.37339998205 -0.2800874253 0.88437745765 
-0.40384864609 -0.16122248465 0.90050740224 -0.42973339985 -0.050471556541 0.90154413482 -0.45403836938 0.064201067442 0.88866606893 
-0.4795078163 0.20841998488 0.85242792306 -0.48140144946 0.69271554472 0.53702683225 0.42787507178 0.018892926061 -0.90364040431 
0.47449710195 -0.20827438435 -0.85526269711 0.48797732155 -0.3766297028 -0.78741869461 0.47962862004 -0.52784490229 -0.70095374025 
0.44096271171 -0.69158360381 -0.57206993088 0.38170842247 -0.81195248352 -0.44162409889 0.32583949235 -0.88036996412 -0.34464090225 
0.32407122021 -0.88203807676 -0.34203314954 0.39842773572 -0.80559979125 -0.43847954996 0.52862868645 -0.61369787432 -0.58645258198 
0.6206864175 -0.40836683603 -0.66931673994 0.66550177583 -0.2797632732 -0.69198258457 0.67993903427 -0.23934728561 -0.69310589851 
0.67658149072 -0.24680793882 -0.69377469524 0.65228138603 -0.28628958224 -0.7018313676 0.60581665061 -0.33988033895 -0.7193521676 
0.52886594653 -0.40120474444 -0.74788740038 0.42050571737 -0.45743343992 -0.78353659117 0.2910653994 -0.49550792815 -0.81838427796 
0.14226955204 -0.51057020573 -0.84798433923 -0.019182863562 -0.49817957428 -0.86686165535 -0.23055683062 -0.44234174611 -0.86670486759 
-0.52707818822 -0.29004581394 -0.79878783749 -0.85717756276 0.057984766917 -0.51174641446 -0.90370286196 0.42001662655 -0.08310938997 
-0.78044253521 0.60107567686 0.17209729785 -0.65108908765 0.69847219489 0.29701783265 -0.51752530358 0.77463127713 0.36347481982 
-0.2679249875 0.87440031426 0.40452477242 0.69517562524 0.69194137826 0.19480241046 0.93231873825 -0.23241062221 -0.2770687153 
0.81547104391 -0.4391370706 -0.37704855095 0.75455567187 -0.50434986798 -0.41985348482 0.75455567187 -0.50434986798 -0.41985348482 

plain_curvature_peaks 1 120 unsigned_char
0 0 0 0 0 0 0 0 0 
0 0 0 0 0 0 0 0 0 
0 0 0 0 0 0 0 0 0 
0 0 0 0 0 0 0 1 0 
0 0 0 0 0 0 0 0 0 
0 0 0 0 0 0 0 0 0 
0 0 0 0 0 0 0 0 0 
0 0 0 0 0 1 0 0 0 
0 0 0 0 0 0 0 0 0 
0 0 0 0 0 0 1 0 0 
0 0 0 0 0 0 0 0 0 
0 0 0 0 0 0 0 0 0 
0 0 0 0 0 0 0 1 0 
0 0 0 
weighted_curvature_peaks 1 120 unsigned_char
0 0 0 0 0 0 0 1 0 
0 0 0 0 0 0 0 0 0 
0 0 0 0 0 0 0 0 0 
0 0 0 0 0 0 0 0 0 
0 0 0 0 0 0 1 0 0 
0 0 0 0 0 0 0 0 0 
0 0 0 0 0 0 1 0 0 
0 0 0 0 0 0 0 0 0 
0 0 0 0 0 0 0 0 0 
0 0 0 0 0 0 0 0 0 
0 0 0 1 0 0 0 0 0 
0 0 0 0 0 0 0 0 0 
0 0 0 0 0 0 0 0 0 
0 0 0 
plain_torsion_tp 1 120 unsigned_char
0 0 0 0 0 0 0 0 0 
0 0 0 0 0 0 0 0 0 
0 0 0 0 0 0 0 0 0 
0 0 0 0 0 0 0 1 0 
0 0 0 0 0 0 0 0 0 
0 0 0 0 0 0 0 0 0 
0 0 0 0 0 0 0 0 0 
0 0 0 0 0 1 0 0 0 
0 0 0 0 0 0 0 0 0 
0 0 0 0 0 0 1 0 0 
0 0 0 0 0 0 0 0 0 
0 0 0 0 0 0 0 0 0 
0 0 0 0 0 0 0 1 0 
0 0 0 
plain_torsion_tn 1 120 unsigned_char
0 0 0 0 0 0 0 0 0 
0 0 0 0 0 0 2 0 0 
0 0 0 0 0 0 0 0 0 
0 0 0 0 0 0 0 0 0 
0 0 0 0 0 0 0 0 0 
0 0 0 0 0 0 2 0 0 
0 0 0 0 0 0 0 0 0 
0 0 0 0 0 0 0 0 0 
0 0 0 0 0 0 0 2 0 
0 0 0 0 0 0 0 0 0 
0 0 0 0 0 0 0 0 0 
0 0 0 2 0 0 0 0 0 
0 0 0 0 0 0 0 0 0 
0 0 0 
plain_torsion_tz 1 120 unsigned_char
0 0 0 0 0 0 0 0 0 
0 0 0 0 0 0 0 3 0 
0 0 0 0 0 0 0 0 0 
0 0 0 0 0 0 0 0 0 
0 0 0 0 0 0 3 0 0 
0 0 0 0 0 0 0 0 0 
0 0 3 0 0 0 0 0 0 
0 0 0 0 0 0 0 0 0 
0 0 0 0 0 0 0 0 3 
0 0 0 0 0 0 0 0 0 
0 0 0 0 0 3 0 0 0 
0 0 0 0 0 0 0 0 0 
3 0 0 0 0 0 0 0 0 
0 0 0 
weighted_torsion_tp 1 120 unsigned_char
0 0 0 0 0 0 0 1 0 
0 0 0 0 0 0 0 0 0 
0 0 0 0 0 0 0 0 0 
0 0 0 0 0 0 0 0 0 
0 0 0 0 0 0 1 0 0 
0 0 0 0 0 0 0 0 0 
0 0 0 0 0 0 1 0 0 
0 0 0 0 0 0 0 0 0 
0 0 0 0 0 0 0 0 0 
0 0 0 0 0 0 0 0 0 
0 0 0 1 0 0 0 0 0 
0 0 0 0 0 0 0 0 0 
0 0 0 0 0 0 0 0 0 
0 0 0 
weighted_torsion_tn 1 120 unsigned_char
2 0 0 0 0 0 0 0 0 
0 0 0 0 0 0 0 0 0 
0 0 0 0 0 0 2 0 0 
0 0 0 0 0 0 0 0 0 
0 0 0 0 0 0 0 0 0 
0 0 0 0 0 0 0 0 2 
0 0 0 0 0 0 0 0 0 
0 0 0 0 0 0 0 0 0 
0 0 0 2 0 0 0 0 0 
0 0 0 0 0 0 0 0 0 
0 0 0 0 0 0 0 0 0 
0 0 0 0 0 0 0 0 0 
0 0 0 0 0 0 0 0 0 
0 0 0 
weighted_torsion_tz 1 120 unsigned_char
0 3 0 0 0 0 0 0 0 
0 0 0 0 0 3 0 0 0 
0 0 0 0 0 0 0 0 0 
0 0 0 0 3 0 0 0 0 
0 0 0 0 0 0 0 0 0 
0 0 0 0 0 0 0 0 0 
3 0 0 0 0 0 0 0 0 
0 0 0 0 0 3 0 0 0 
0 0 0 0 0 0 0 0 0 
0 3 0 0 0 0 0 0 0 
0 0 0 0 0 0 0 0 0 
0 0 0 0 0 0 0 0 0 
0 0 0 0 0 0 0 0 0 
0 0 0 
plain_torsion_tp_raw 1 120 unsigned_char
0 0 0 0 0 0 0 0 0 
0 0 0 0 0 0 0 0 0 
0 0 0 0 0 0 0 0 0 
0 0 0 0 0 0 0 0 0 
0 0 1 0 0 0 0 0 0 
0 0 0 0 0 0 0 0 1 
0 0 0 0 0 0 0 0 0 
0 0 0 0 0 0 0 0 0 
0 0 0 0 0 0 0 1 0 
0 0 0 0 0 0 0 0 0 
1 0 0 0 0 0 0 0 0 
0 0 0 0 0 0 0 0 0 
0 0 0 1 0 0 0 0 0 
1 0 0 
plain_torsion_tn_raw 1 120 unsigned_char
0 0 0 0 0 0 0 0 0 
0 0 0 0 0 0 0 0 0 
0 0 0 0 0 0 0 0 0 
0 0 0 2 0 0 0 0 0 
0 0 0 0 0 0 0 0 2 
0 0 0 0 0 0 0 0 0 
0 0 0 0 0 0 0 0 0 
0 0 0 0 0 0 0 0 0 
0 0 0 0 0 2 0 0 0 
2 0 0 0 0 0 0 0 0 
0 0 0 0 0 0 0 0 0 
0 0 0 0 2 0 0 0 0 
0 0 0 0 0 2 0 0 0 
0 0 0 
plain_torsion_tz_raw 1 120 unsigned_char
0 0 0 0 0 0 0 0 0 
0 0 0 0 0 0 3 0 0 
0 0 0 0 0 0 0 0 0 
0 0 0 0 0 0 0 3 0 
0 0 3 0 0 0 0 0 0 
0 0 0 0 0 3 0 0 0 
0 0 0 0 0 0 0 0 0 
0 0 0 0 0 0 0 0 0 
0 0 0 0 0 0 0 0 0 
0 0 0 0 0 0 0 0 0 
0 0 0 0 0 0 0 0 0 
0 0 0 0 0 0 0 0 0 
0 0 0 0 0 0 0 0 0 
0 0 0 
weighted_torsion_tp_raw 1 120 unsigned_char
0 0 0 0 0 0 0 0 0 
0 1 0 0 0 0 0 0 0 
0 0 0 0 0 0 0 0 0 
1 0 0 0 0 0 0 0 0 
0 0 0 0 0 0 0 0 0 
0 0 0 0 0 0 0 0 1 
0 0 0 0 0 0 0 0 0 
1 0 0 0 0 0 0 0 0 
0 0 0 0 0 0 0 0 0 
0 0 0 0 1 0 0 0 0 
0 0 0 0 0 1 0 0 0 
0 0 0 0 0 0 0 0 0 
0 0 0 0 0 0 0 0 0 
0 0 0 
weighted_torsion_tn_raw 1 120 unsigned_char
0 0 0 0 2 0 0 0 0 
0 0 0 0 0 0 0 2 0 
0 0 0 0 0 0 0 0 0 
0 0 0 0 0 0 0 0 0 
0 0 0 0 0 0 0 0 0 
0 0 0 0 0 0 2 0 0 
0 2 0 0 0 0 0 0 0 
0 0 0 0 0 0 0 0 0 
0 0 0 0 2 0 0 0 0 
0 0 0 0 0 0 0 0 2 
0 0 0 0 0 0 0 0 0 
0 0 0 0 0 0 0 0 0 
0 0 0 0 0 0 0 0 0 
0 0 0 
weighted_torsion_tz_raw 1 120 unsigned_char
3 0 0 0 0 0 0 3 0 
0 0 3 0 0 0 0 0 0 
0 0 0 0 3 0 0 0 0 
0 0 0 0 0 0 0 0 0 
0 0 0 0 0 0 0 0 0 
0 0 0 0 0 0 0 0 0 
0 0 0 0 0 0 0 0 0 
0 0 0 0 0 0 0 0 0 
0 0 0 0 0 0 0 0 0 
0 0 0 0 0 0 0 0 0 
0 0 0 0 0 0 0 0 0 
0 0 0 0 0 0 0 0 0 
0 0 0 0 0 0 0 0 0 
0 0 0 
