# vtk DataFile Version 5.1
vtk output
ASCII
DATASET POLYDATA
POINTS 120 float
-2.57126 18.1632 -5.65796 -2.85152 17.5717 -5.45105 -3.17974 16.9805 -5.25119 
-3.54283 16.4003 -5.07527 -3.9277 15.8419 -4.93998 -4.32149 15.3152 -4.86128 
-4.71193 14.8289 -4.85343 -5.08798 14.3889 -4.92755 -5.44067 13.9969 -5.08975 
-5.76385 13.6493 -5.33936 -6.05466 13.3364 -5.66794 -6.31352 13.0436 -6.05993 
-6.5437 12.754 -6.4948 -6.75046 12.451 -6.95062 -6.93965 12.1224 -7.40813 
-7.1164 11.7617 -7.854 -7.28341 11.369 -8.28251 -7.4394 10.9495 -8.69514 
-7.57787 10.5112 -9.09857 -7.68727 10.0623 -9.50184 -7.75216 9.6094 -9.9135 
-7.75616 9.15731 -10.3394 -7.68539 8.7093 -10.7814 -7.53179 8.26823 -11.2358 
-7.29547 7.83764 -11.6932 -6.98555 7.42221 -12.1382 -6.61913 7.02832 -12.5492 
-6.219 6.6637 -12.9005 -5.81041 6.33649 -13.1647 -5.41744 6.05436 -13.3166 
-5.0596 5.82327 -13.3377 -4.74952 5.64642 -13.2203 -4.49205 5.52322 -12.9685 
-4.28495 5.44928 -12.5981 -4.12117 5.41729 -12.1329 -3.99221 5.41876 -11.5999 
-3.89154 5.44678 -11.0249 -3.81675 5.49747 -10.4294 -3.76991 5.57004 -9.82802 
-3.7561 5.66528 -9.22938 -3.78079 5.78263 -8.63663 -3.8472 5.91829 -8.0497 
-3.95395 6.0636 -7.46736 -4.09381 6.20586 -6.8892 -4.25356 6.32956 -6.31683 
-4.4152 6.41785 -5.75436 -4.55838 6.45439 -5.20791 -4.66398 6.42429 -4.6845 
-4.71762 6.31511 -4.19063 -4.71262 6.11887 -3.73065 -4.65136 5.83332 -3.30571 
-4.54457 5.46305 -2.9132 -4.40909 5.01878 -2.54719 -4.26428 4.51603 -2.19952 
-4.12857 3.97253 -1.86125 -4.01647 3.40571 -1.52428 -3.93695 2.83017 -1.18274 
-3.89281 2.25661 -0.83405 -3.88102 1.69083 -0.479508 -3.89379 1.13385 -0.124269 
-3.92033 0.582853 0.223553 -3.94886 0.0326939 0.554281 -3.96868 -0.52276 0.858612 
-3.97166 -1.08894 1.12952 -3.95314 -1.66943 1.3636 -3.91176 -2.26587 1.56172 
-3.84852 -2.87767 1.72873 -3.76536 -3.50242 1.87236 -3.66366 -4.13664 2.00189 
-3.54313 -4.77581 2.12666 -3.40134 -5.41509 2.25498 -3.23392 -6.04846 2.39321 
-3.03528 -6.66915 2.54548 -2.79954 -7.26851 2.71359 -2.52132 -7.83626 2.89738 
-2.19636 -8.36 3.09515 -1.82186 -8.82654 3.30435 -1.3969 -9.22287 3.52214 
-0.922886 -9.53864 3.74595 -0.404034 -9.76817 3.97386 0.152517 -9.91219 4.2051 
0.7369 -9.9783 4.44016 1.33719 -9.98058 4.68133 1.94046 -9.93771 4.93202 
2.53401 -9.87047 5.19687 3.10663 -9.7983 5.48048 3.64981 -9.73579 5.78658 
4.15878 -9.68948 6.11681 4.63324 -9.65695 6.46947 5.07766 -9.62712 6.839 
5.50084 -9.58378 7.2167 5.91494 -9.51017 7.59086 6.33372 -9.39381 7.94956 
6.77044 -9.22959 8.28241 7.23567 -9.02151 8.5825 7.73554 -8.78137 8.84868 
8.27105 -8.52643 9.0854 8.83771 -8.27699 9.30264 9.42647 -8.05367 9.51414 
10.0252 -7.87559 9.7349 10.6205 -7.759 9.9788 11.1985 -7.7161 10.2557 
11.7466 -7.75461 10.5701 12.2546 -7.87815 10.9201 12.7145 -8.0866 11.2978 
13.1206 -8.37702 11.6907 13.469 -8.74388 12.084 13.7573 -9.18014 12.4627 
13.9837 -9.67757 12.8145 14.1472 -10.2267 13.1309 14.2484 -10.8173 13.409 
14.2907 -11.4377 13.6513 14.2811 -12.0742 13.8654 14.2321 -12.7106 14.064 
14.1609 -13.3271 14.2639 14.0897 -13.9009 14.4849 14.044 -14.4062 14.7497 
14.0518 -14.8151 15.0819 14.1421 -15.0987 15.5062 14.3442 -15.2277 16.0473 

LINES 2 120
OFFSETS vtktypeint64
0 120 
CONNECTIVITY vtktypeint64
0 1 2 3 4 5 6 7 8 
9 10 11 12 13 14 15 16 17 
18 19 20 21 22 23 24 25 26 
27 28 29 30 31 32 33 34 35 
36 37 38 39 40 41 42 43 44 
45 46 47 48 49 50 51 52 53 
54 55 56 57 58 59 60 61 62 
63 64 65 66 67 68 69 70 71 
72 73 74 75 76 77 78 79 80 
81 82 83 84 85 86 87 88 89 
90 91 92 93 94 95 96 97 98 
99 100 101 102 103 104 105 106 107 
108 109 110 111 112 113 114 115 116 
117 118 119 
CELL_DATA 1
FIELD FieldData 2
Length 1 1 double
72.786764184 
Tortuosity 1 1 double
0.68219199752 
POINT_DATA 120
FIELD FieldData 19
Curvature 1 120 double
0 0.092514687314 0.087759548749 0.099720832415 0.12813084159 0.17454184223 0.23837041006 0.30645402923 0.34502924764 
0.32098535411 0.24362431204 0.15415468289 0.093090496439 0.085736901045 0.10056492998 0.10313195505 0.08910572139 0.072948805793 
0.082485895588 0.12047986264 0.16333684273 0.19291713322 0.19955184511 0.18610175253 0.1646273437 0.14972349681 0.15481597222 
0.19800314364 0.31339488993 0.5628890191 0.95290837888 1.1219736018 0.80256836483 0.4389092208 0.23375397149 0.13863611244 
0.10189778543 0.097326348629 0.10908951138 0.12225046087 0.12542716456 0.1126593792 0.089805048145 0.073923507871 0.093504974301 
0.15273283559 0.24391647768 0.35429007196 0.43756098892 0.43204293996 0.33922632441 0.22449959106 0.13442184443 0.082311451213 
0.068326044371 0.074691411659 0.079765142426 0.074445706336 0.056970462416 0.033321451973 0.034171998428 0.06602522941 0.096798674384 
0.11451831872 0.11514472551 0.10054999738 0.077869687201 0.055622504983 0.043244080684 0.047467141959 0.062731619775 0.081509775923 
0.10225864809 0.12510891669 0.1523263929 0.18421837497 0.21936860022 0.24927705427 0.26166357074 0.24728418056 0.20899822213 
0.15817895566 0.1077759313 0.069624455131 0.063333493085 0.085845686309 0.10779307934 0.11163408272 0.093171434479 0.07460067609 
0.097582810169 0.14429274834 0.1752630487 0.17432358387 0.14613914356 0.10829133275 0.07817712578 0.077436507629 0.10743562473 
0.15089124692 0.19548738572 0.23250468181 0.25380971684 0.25737560994 0.24896869666 0.23613023309 0.22540117961 0.2181613916 
0.2091356962 0.19479292676 0.1703498042 0.13627224531 0.094291291658 0.057089490872 0.085344316598 0.20155413064 0.4058601399 
0.66241512806 0.71326618346 0 
Torsion 1 120 double
0 0 0.44118555874 0.35692790446 0.25603361933 0.18115334178 0.13732972085 0.12024246174 0.1299051096 
0.17769999889 0.30459950331 0.64247227356 1.319262492 1.0362787714 0.40029340901 0.063547072677 -0.29727412147 -0.84768779275 
-0.75749420926 -0.28327394271 -0.071714849978 0.01202683327 0.05685857923 0.10255416729 0.17012306673 0.26315619103 0.34410487513 
0.33043931383 0.23176026996 0.12289724106 0.053624507319 0.021918898246 0.0020408607432 -0.018517506346 -0.038672003401 -0.059252772441 
-0.041792138343 0.021212733946 0.085965180762 0.14088715361 0.21679015514 0.36487567326 0.69493021939 1.2411711427 0.9680527983 
0.44700258001 0.18479710788 0.053527297165 -0.022540296636 -0.082388883762 -0.15967827497 -0.29468478079 -0.55553670247 -0.96019622976 
-0.89565461935 -0.46087441522 -0.20110744364 -0.025272707402 0.24338513347 1.2629642569 1.3944936764 0.33935274858 0.11651027367 
0.054907049373 0.046747957656 0.082817118649 0.19602753677 0.46976903738 0.78710216123 0.53961555063 0.1929246394 0.032042951925 
-0.030599627337 -0.048402415584 -0.04454817036 -0.031253494341 -0.015054327612 0.00050736611394 0.017516192457 0.040597816261 0.083592281522 
0.17525856074 0.40177127317 0.95953164005 1.0309268453 0.38248867883 0.042023909919 -0.21932668568 -0.69669995145 -1.5378465654 
-1.0569293233 -0.52325345249 -0.36703087391 -0.34639271054 -0.41668103443 -0.63305258741 -1.0634143504 -1.0246409341 -0.52729528096 
-0.25429593731 -0.12466823533 -0.044960606046 0.015361563262 0.06686921924 0.10663235115 0.1280097229 0.11911994178 0.080143532111 
0.030402222456 -0.022538951779 -0.080957457042 -0.17935441378 -0.48335230728 -1.7973337687 -1.2093357504 -0.35815383482 -0.14665434759 
-0.070816611386 0 0 
FrenetTangent 3 120 double
-0.43748166455 -0.85034010121 0.29245769858 -0.43748166455 -0.85034010121 0.29245769858 -0.48990098331 -0.83011085835 0.26629492937 
-0.53525151879 -0.8148061376 0.2227033223 -0.57566873048 -0.8022315103 0.15820909151 -0.61077101286 -0.78893233359 0.067413224697 
-0.63654203521 -0.76927560641 -0.055038884431 -0.64435499412 -0.73562414263 -0.20895875751 -0.62395029617 -0.68275451066 -0.3801740471 
-0.57314693996 -0.61659658791 -0.53973255691 -0.50426072625 -0.55564012595 -0.66104853861 -0.43531789192 -0.51843341909 -0.73601978434 
-0.3781030046 -0.51281464074 -0.77075240003 -0.33585768841 -0.53573727017 -0.77471619996 -0.30653316222 -0.57743577063 -0.75670691239 
-0.2854448607 -0.62560381383 -0.72604483307 -0.2662667971 -0.66953659661 -0.69341382922 -0.24135708825 -0.70307492328 -0.66890388563 
-0.20243055623 -0.72456389495 -0.65880879778 -0.14194000233 -0.73442848675 -0.66367750722 -0.055784108917 -0.7327442684 -0.67821380871 
0.053326260046 -0.71885515292 -0.69311151997 0.17498600634 -0.69337375735 -0.69900839065 0.29531492428 -0.66017406955 -0.69062239567 
0.40395657506 -0.62565429142 -0.6673648126 0.49790915248 -0.59580626949 -0.63015979332 0.58043137316 -0.57433739129 -0.57726595433 
0.65779582522 -0.56272537981 -0.50064438401 0.73575490629 -0.55931965553 -0.3818720215 0.8110204057 -0.5543716972 -0.18686338027 
0.84702867885 -0.51732642103 0.12213022275 0.76635670496 -0.40514766921 0.49855066633 0.57990658058 -0.24608733164 0.77662692653 
0.40297753406 -0.115103502 0.90794288965 0.2812876615 -0.029323444516 0.95917536827 0.20287344424 0.026054596435 0.97885827556 
0.1479128123 0.066353662834 0.98677200578 0.10057737406 0.10192226968 0.98969492409 0.049997411231 0.13832275808 0.98912439737 
-0.0089961090204 0.17565520451 0.98441064559 -0.07529780785 0.2091118842 0.97498844097 -0.14251588396 0.23126047539 0.96239691154 
-0.2020085588 0.23555875447 0.95063379667 -0.24593505941 0.21830608454 0.94438254961 -0.26819274788 0.17689834647 0.94698449037 
-0.26350060278 0.10791434021 0.9586041558 -0.22649043699 0.005862679477 0.97399574483 -0.15325437045 -0.13404955983 0.97905250801 
-0.048502241371 -0.30458475532 0.95124952531 0.065621770146 -0.47713427051 0.8763770143 0.15832493139 -0.61788000631 0.77016719867 
0.2126918076 -0.71508110448 0.66589879786 0.23002708293 -0.77719959225 0.58570328232 0.21879032134 -0.81602848966 0.53500308349 
0.18731931847 -0.83928552201 0.51040306177 0.14274430234 -0.85097589449 0.50543455675 0.09185985751 -0.85361283158 0.51274447861 
0.041732156164 -0.85021439847 0.5247798622 -0.00073914660516 -0.84526108007 0.53435302954 -0.029939544689 -0.84397821396 0.53554121972 
-0.042538623919 -0.85057199433 0.52413523822 -0.037894687215 -0.86651009224 0.49771904999 -0.018078208243 -0.88965883867 0.45626782613 
0.012401191423 -0.91511040293 0.40301260637 0.047719893296 -0.93763547249 0.34432910496 0.082602997819 -0.95397401332 0.28828861694 
0.11407159591 -0.96353382018 0.24205422612 0.14203865628 -0.96735329546 0.20988716465 0.16868968581 -0.96658358391 0.19302840521 
0.19732602322 -0.96167490366 0.1903780981 0.23135518353 -0.95220834464 0.19943431862 0.27352138062 -0.93705320782 0.21706528983 
0.32559502304 -0.9145037716 0.24014731457 0.38850232631 -0.88221757102 0.26600394702 0.46251369024 -0.83694752038 0.29257466477 
0.54693578036 -0.77433445237 0.31822540445 0.63885416912 -0.68952302253 0.34120866342 0.73151466566 -0.57945180982 0.35933535037 
0.81415501396 -0.44715172789 0.37041455897 0.87606358427 -0.30430644296 0.3740456992 0.91250734168 -0.16805503972 0.37294484177 
0.92651101554 -0.053487358639 0.37244656066 0.92523186474 0.031203741566 0.37811681128 0.91515549575 0.084193485588 0.3942104458 
0.89966951178 0.1075450715 0.42311798256 0.87912394993 0.10611474641 0.46462968185 0.85234761991 0.08815724149 0.51549183855 
0.81961769319 0.065705550922 0.56913058044 0.78511314716 0.053281071565 0.61705629692 0.7561670386 0.063779032212 0.65126311486 
0.7400588373 0.10337060587 0.66455055126 0.73997887103 0.16877385958 0.6511118604 0.75355996832 0.24714915518 0.6091507771 
0.77548671445 0.3201016551 0.54420151241 0.80065092442 0.37184457336 0.46977623448 0.82631942352 0.39511177974 0.40135133216 
0.85154405806 0.38968630055 0.35073822765 0.87533624086 0.35816319905 0.32481623771 0.89559305589 0.30272208137 0.32599450869 
0.90821447755 0.22413430105 0.35342648156 0.90702928787 0.12330336498 0.40260917915 0.88536798768 0.0034536330017 0.46487804725 
0.83938749199 -0.12879531723 0.52805341071 0.77084189395 -0.26439228665 0.57956836809 0.68618519816 -0.39531272518 0.61063714523 
0.59288409657 -0.51652785683 0.61780856351 0.49624556501 -0.62589846763 0.60165725079 0.39825639392 -0.72244706185 0.56520977303 
0.29957690969 -0.80414677894 0.51342149653 0.20171851904 -0.86838656212 0.45300597987 0.10821235365 -0.91337443783 0.39247576082 
0.024449988455 -0.93967407078 0.3411961881 -0.043715579241 -0.95033929829 0.30813011255 -0.091039367495 -0.94900757155 0.3018219056 
-0.11213029391 -0.9368308833 0.33132264229 -0.098321591019 -0.90743147975 0.40853515674 -0.034662299603 -0.83680080929 0.54640912378 
0.095170642148 -0.67215833805 0.73426542712 0.26832714217 -0.37858445011 0.88581846837 0.26832714217 -0.37858445011 0.88581846837 

FrenetNormal 3 120 double
-0.88944188712 0.36134602009 -0.27986100694 -0.88944188712 0.36134602009 -0.27986100694 -0.78089347868 0.28205698392 -0.55735915958 
-0.61346473837 0.19373773003 -0.76558912397 -0.44020237222 0.14100362932 -0.88675805495 -0.28194329809 0.13713283835 -0.94958020267 
-0.13028275194 0.17759264816 -0.97544208227 0.02802052449 0.25035143404 -0.96774945605 0.19631992281 0.33393804428 -0.92192400473 
0.3682073337 0.39463314525 -0.84183611236 0.54329133649 0.39089022072 -0.74299351211 0.74612222458 0.2497338033 -0.61719903879 
0.92561744195 -0.19462199591 -0.32458377942 0.69288764378 -0.69767735018 0.18207973021 0.39774553457 -0.799948754 0.44931111794 
0.29582736066 -0.7780844721 0.55413962767 0.36875280325 -0.73541590139 0.56849346704 0.67029734168 -0.61921654543 0.40898941746 
0.95168439313 -0.30417629131 0.042114126919 0.98677537956 -0.051961962516 -0.15353926127 0.98270369531 0.079841039561 -0.16708936421 
0.98049175835 0.16919577758 -0.10004349386 0.97070965377 0.24020907609 0.004729465397 0.94853212565 0.28911139232 0.12923393304 
0.91427537814 0.3003150258 0.27186654484 0.86189559039 0.25950624624 0.43565180986 0.77245170101 0.16398174421 0.61353757601 
0.63422634044 0.055285184644 0.77116826792 0.46435994756 0.0061855759489 0.8856249645 0.25670986865 0.050218272933 0.96518297146 
-0.027507733002 0.18679449533 0.98201381922 -0.36649962222 0.36164072913 0.85725959309 -0.62227911471 0.48146881186 0.6172167258 
-0.74633493094 0.53286054341 0.39880297407 -0.79321295671 0.55544031737 0.2495981954 -0.80260424177 0.57708791481 0.15098334238 
-0.79643953216 0.59952665124 0.07906874262 -0.79980344445 0.59994531901 0.019495241556 -0.82147524671 0.56897369306 -0.038044127589 
-0.86060016701 0.49994415238 -0.097073153041 -0.9064148795 0.39318457507 -0.15433067146 -0.95805589969 0.21201341404 -0.19281910002 
-0.97771484247 -0.10514474465 -0.18170929938 -0.76691283947 -0.63965286699 -0.051854666203 -0.17685163743 -0.97533122325 0.1321079229 
0.22816869645 -0.95855374558 0.17062755577 0.41469884961 -0.9042379049 0.10187578457 0.50154662606 -0.86421383977 -0.039817345922 
0.52945920423 -0.8153985632 -0.23409001299 0.50159315187 -0.74346909261 -0.44233247488 0.41973009395 -0.66390590283 -0.61891485717 
0.27356776846 -0.61065847701 -0.74313989297 0.016862091138 -0.59856882412 -0.80089389601 -0.43858798186 -0.57202207917 -0.69313153377 
-0.88075546763 -0.37357532388 -0.29105202908 -0.98964378164 -0.13052634677 0.059733225752 -0.97606980763 0.024735756158 0.21604599742 
-0.96170564056 0.10822286577 0.25181356644 -0.97757664453 0.11313415094 0.1776079051 -0.97661447047 -0.089421218296 -0.19551987566 
-0.16840055616 -0.51100013922 -0.84292354956 0.31208917188 -0.48342508455 -0.81786339716 0.43489146198 -0.41790969022 -0.79763456991 
0.47859058156 -0.34844748364 -0.8059375946 0.50027652902 -0.27593367647 -0.82072163411 0.52671557881 -0.20378221139 -0.82525360306 
0.58889154742 -0.13064665409 -0.79758272119 0.73417262211 -0.039268135343 -0.67782636013 0.94027649403 0.099059729093 -0.3256797274 
0.96696239643 0.22289804595 0.12369391655 0.89591611861 0.28843732037 0.33784348541 0.85754860727 0.33977931214 0.3862129014 
0.84145510681 0.39609436759 0.36750857839 0.82712467625 0.46111883297 0.32130078091 0.80126027451 0.53584317684 0.26618426385 
0.7561993446 0.62004440794 0.20906334786 0.68615958856 0.71126112435 0.15261923867 0.58830847092 0.80280591942 0.096931928611 
0.46538085807 0.88400362895 0.04425201642 0.32713403606 0.94497437826 0.0025974782619 0.18738621577 0.98215740692 -0.015913333342 
0.051199769311 0.99855965139 0.016037650947 -0.092365984321 0.98515270044 0.14471586561 -0.28747440985 0.82185850932 0.49184047651 
-0.43656373402 0.2274417902 0.87044950354 -0.43313806294 -0.22882128182 0.87179827909 -0.45644377448 -0.35572475113 0.8155482709 
-0.52387391149 -0.3161701876 0.79094407978 -0.61411286915 -0.062347855937 0.78675163095 -0.56070345959 0.57626298716 0.59458607453 
-0.14983679873 0.98862419871 0.01308157015 0.092400461846 0.93332540589 -0.3469378062 0.18955308979 0.80558619229 -0.56133814492 
0.24267982762 0.64460398854 -0.72497737842 0.29489460767 0.43795594445 -0.84925364944 0.38223562913 0.12994021385 -0.91488330657 
0.49493095321 -0.37679561982 -0.7829868533 0.44438895454 -0.86066495013 -0.24854436366 0.2444938812 -0.94711940836 0.20781618889 
0.06863845178 -0.91283641055 0.40251515564 -0.084006030758 -0.88394945382 0.45997429263 -0.23021699504 -0.86549418064 0.44488196016 
-0.3665705813 -0.85146113206 0.37501993216 -0.48515845306 -0.83325590574 0.26515254283 -0.575749034 -0.80820462291 0.12376727094 
-0.6376625949 -0.76966917243 -0.031555983126 -0.67315173639 -0.71504066461 -0.18863612523 -0.69939989592 -0.63784513552 -0.32248002833 
-0.7248539269 -0.54174317752 -0.4255597658 -0.7576425755 -0.43145994678 -0.48971424537 -0.79725606567 -0.31557152442 -0.51458466625 
-0.85169799333 -0.19828964052 -0.48506880606 -0.93613772283 -0.06874820263 -0.3448475729 -0.95216211732 0.17173410846 0.25277400644 
-0.11017400699 0.34309050092 0.93281862994 0.29563465106 0.36535689394 0.88267462473 0.42876542782 0.48141306642 0.76446168471 
0.4740495973 0.67920837909 0.56031505162 0.43520995802 0.86799042286 0.23913368283 0.43520995802 0.86799042286 0.23913368283 

FrenetBinormal 3 120 double
0.13229861154 -0.38255818649 -0.91441036266 0.13229861154 -0.38255818649 -0.91441036266 0.38755954576 -0.48099877409 -0.78640814964 
0.58066068096 -0.54640337672 -0.60355324827 0.68907719759 -0.58012290112 -0.43431559419 0.73990995838 -0.59898276908 -0.30619094667 
0.7601583006 -0.61373927095 -0.21326852869 0.76421298848 -0.62942932904 -0.1407026225 0.75640235048 -0.64987049538 -0.074322428802 
0.73206963099 -0.68122927744 0.00085260599624 0.67123441782 -0.73380439204 0.10476388005 0.50378562799 -0.81783850329 0.27810110316 
0.016445943786 -0.83614796714 0.54825733737 -0.63804884314 -0.47563840509 0.6055260369 -0.86477506335 -0.16324803757 0.47488332045 
-0.91159607513 -0.056607617862 0.40717093881 -0.89057473738 -0.1043273587 0.44271033348 -0.70174655659 -0.34965200145 0.62072155448 
-0.23090839262 -0.61845286477 0.75113072649 0.078277621556 -0.67669398719 0.73209142985 0.17658306946 -0.67580414732 0.71561663902 
0.18918832365 -0.67425518757 0.71385413092 0.1646288725 -0.67936178313 0.71509782684 0.11434991088 -0.69324223813 0.71157522241 
0.030325210443 -0.71997749473 0.69333454313 -0.096033677137 -0.76004697052 0.64273333152 -0.2577164928 -0.80202652608 0.53882804382 
-0.40627773926 -0.82479312271 0.39326162197 -0.49298535169 -0.82892898464 0.26427671376 -0.52568616576 -0.83075275889 0.18304072966 
-0.53083494782 -0.83515339347 0.14398981754 -0.52761295253 -0.83968526792 0.12865932984 -0.52581086067 -0.84120675723 0.12607192547 
-0.52971056049 -0.83833813292 0.12882506357 -0.5400837498 -0.83103922257 0.13297877185 -0.56095347108 -0.81626631474 0.13798734252 
-0.58634961547 -0.79759951472 0.14152435322 -0.59177583769 -0.79352218944 0.14185870713 -0.56804812992 -0.81063910046 0.14207593353 
-0.50920175035 -0.84805724667 0.14667134624 -0.41562279336 -0.89536479148 0.15993618673 -0.24863249161 -0.94950982343 0.1913451837 
0.057150931569 -0.96615560645 0.25154942885 0.59275681625 -0.73701198308 0.32473480501 0.94699321451 -0.13204537088 0.29286152309 
0.93728676418 0.26368392443 0.22795681542 0.88132113675 0.42698880587 0.20236999179 0.85144822498 0.48493829984 0.19967665241 
0.84694774552 0.49229392638 0.2008138601 0.86261120633 0.46861134882 0.1905395247 0.89373366521 0.42125200295 0.15422997658 
0.93804204119 0.34022821529 0.06574108672 0.9730381344 0.19410346877 -0.12458183019 0.87164865482 -0.082995451674 -0.48305318294 
0.43494974327 -0.39502061962 -0.80918318748 0.015140991008 -0.50872674375 -0.86079489461 -0.197102758 -0.52032035914 -0.83091348927 
-0.27088870051 -0.51519247661 -0.81313960916 -0.210578626 -0.52223976334 -0.82639111313 0.21290326377 -0.52887108077 -0.82156410596 
0.98480034431 -0.12412147348 -0.12149955415 0.94929676154 0.12434004852 0.28874765949 0.90030139103 0.1840071781 0.39446009142 
0.8779506055 0.20287262404 0.43364205598 0.86454971303 0.21142451827 0.45590949406 0.8460185836 0.22001452731 0.48563995303 
0.80012150101 0.23352522166 0.55251385003 0.66393944081 0.2503709554 0.70462671226 0.29567533659 0.23643888299 0.92556617805 
-0.16138824134 0.15968043332 0.97388705442 -0.37922168645 0.10051457908 0.91983027343 -0.43565633303 0.080506550977 0.89650557987 
-0.43120897973 0.082414220177 0.89848022355 -0.40611662411 0.095192327732 0.90884966213 -0.37955639743 0.11131459005 0.91844760505 
-0.35919883547 0.12629761697 0.92467567749 -0.34792293633 0.1366221592 0.92751496807 -0.3446439278 0.14049290318 0.92816071194 
-0.34723517995 0.13635584425 0.92781184167 -0.35425403142 0.12008752313 0.92740663574 -0.36361622285 0.084405756095 0.92771704243 
-0.37276791936 0.0042101177208 0.92791505711 -0.36798712124 -0.16882086165 0.91437683439 -0.28257544527 -0.56343593038 0.77633180412 
-0.0026221573279 -0.96783484628 0.25157272234 0.19882781268 -0.96766754703 -0.15519993339 0.25526969184 -0.93042366812 -0.26296232092 
0.23191153889 -0.94642442543 -0.22471725585 0.080391107058 -0.99663126194 -0.016229529663 -0.3373767036 -0.81477187278 0.47151220047 
-0.65563850641 -0.10925525879 0.74712879568 -0.66625327397 0.31688968276 0.67504629758 -0.62945770334 0.53846836665 0.56020961954 
-0.58286092421 0.69427705447 0.42219961472 -0.5215316554 0.81849019786 0.2409948722 -0.41363284944 0.90939662543 -0.043653677104 
-0.17296262236 0.84033900781 -0.51372588335 0.19053850663 0.36190463726 -0.91253499167 0.37166627544 -0.10641507299 -0.92224726182 
0.41283801389 -0.34131144527 -0.84443547511 0.4126025421 -0.45103175417 -0.79140981734 0.40388570362 -0.50090707292 -0.76548575604 
0.40131614374 -0.50835588602 -0.76191839847 0.41282447838 -0.4855731812 -0.77058071332 0.44459298653 -0.43650101582 -0.78217896898 
0.49180775013 -0.37524437122 -0.78569510548 0.54827646219 -0.31139678254 -0.77616039891 0.59349105325 -0.26687792324 -0.75930530342 
0.62035510786 -0.24466770839 -0.74518269748 0.62071520593 -0.24443218498 -0.74496009294 0.59386265439 -0.25721926306 -0.76234204819 
0.52346224908 -0.27873618203 -0.80516669989 0.34890559186 -0.3035274333 -0.88664309911 -0.29171756188 -0.26437099902 -0.91924362329 
-0.98756695235 0.068094084032 -0.14168525099 -0.95022787679 0.20756312196 0.23234571778 -0.90275064824 0.26077934167 0.34210437305 
-0.87533966446 0.29475268677 0.38327708707 -0.85941424075 0.32135096073 0.39766911224 -0.85941424075 0.32135096073 0.39766911224 

plain_curvature_peaks 1 120 unsigned_char
0 0 0 0 0 0 0 0 0 
0 0 0 0 0 0 0 0 0 
0 0 0 0 0 0 0 1 0 
0 0 0 0 0 0 0 0 0 
0 0 0 0 0 0 0 0 0 
0 0 0 0 0 0 0 0 0 
0 1 0 0 0 0 0 0 0 
0 0 0 0 0 0 0 0 0 
0 0 0 0 0 0 0 0 0 
1 0 0 0 0 0 0 0 0 
0 0 0 0 0 0 0 0 0 
0 0 0 0 0 0 0 0 0 
0 0 0 0 0 1 0 0 0 
0 0 0 
weighted_curvature_peaks 1 120 unsigned_char
0 0 0 0 0 0 0 0 0 
0 0 0 0 0 0 0 0 0 
0 0 0 0 0 0 0 0 0 
0 1 0 0 0 0 0 0 0 
0 0 0 0 0 0 0 0 0 
0 0 0 0 0 0 0 0 0 
0 0 0 0 0 0 0 1 0 
0 0 0 0 0 0 0 0 0 
0 0 0 0 0 0 0 0 0 
0 0 0 0 1 0 0 0 0 
0 0 0 0 0 0 0 0 0 
0 0 0 0 0 0 0 0 0 
0 0 0 0 0 0 0 0 1 
0 0 0 
plain_torsion_tp 1 120 unsigned_char
0 0 0 0 0 0 0 0 0 
0 0 0 0 0 0 0 0 0 
0 0 0 0 0 0 0 1 0 
0 0 0 0 0 0 0 0 0 
0 0 0 0 0 0 0 0 0 
0 0 0 0 0 0 0 0 0 
0 1 0 0 0 0 0 0 0 
0 0 0 0 0 0 0 0 0 
0 0 0 0 0 0 0 0 0 
1 0 0 0 0 0 0 0 0 
0 0 0 0 0 0 0 0 0 
0 0 0 0 0 0 0 0 0 
0 0 0 0 0 1 0 0 0 
0 0 0 
plain_torsion_tn 1 120 unsigned_char
0 0 0 0 0 0 0 0 2 
0 0 0 0 0 0 0 0 0 
0 0 0 0 0 0 0 0 0 
0 0 0 0 0 0 0 0 0 
0 0 0 2 0 0 0 0 0 
0 0 0 0 0 0 0 0 0 
0 0 0 0 0 0 0 0 0 
0 0 0 0 0 0 0 0 0 
0 0 0 2 0 0 0 0 0 
0 0 0 0 0 0 0 0 0 
0 0 0 0 2 0 0 0 0 
0 0 0 0 0 0 0 0 0 
0 0 0 0 0 0 0 0 0 
0 0 0 
plain_torsion_tz 1 120 unsigned_char
0 0 0 0 0 0 0 0 0 
0 3 0 0 0 0 0 0 0 
0 0 0 0 0 0 0 0 0 
0 0 0 0 0 0 3 0 0 
0 0 0 0 0 0 0 0 0 
3 0 0 0 0 0 0 0 0 
0 0 0 0 0 0 0 0 0 
0 0 0 0 0 0 0 0 0 
0 0 0 0 0 0 3 0 0 
0 0 0 0 0 3 0 0 0 
0 0 0 0 0 0 0 0 0 
0 3 0 0 0 0 0 0 0 
0 0 0 0 0 0 0 0 0 
0 0 0 
weighted_torsion_tp 1 120 unsigned_char
0 0 0 0 0 0 0 0 0 
0 0 0 0 0 0 0 0 0 
0 0 0 0 0 0 0 0 0 
0 1 0 0 0 0 0 0 0 
0 0 0 0 0 0 0 0 0 
0 0 0 0 0 0 0 0 0 
0 0 0 0 0 0 0 1 0 
0 0 0 0 0 0 0 0 0 
0 0 0 0 0 0 0 0 0 
0 0 0 0 1 0 0 0 0 
0 0 0 0 0 0 0 0 0 
0 0 0 0 0 0 0 0 0 
0 0 0 0 0 0 0 0 1 
0 0 0 
weighted_torsion_tn 1 120 unsigned_char
0 0 0 0 0 0 0 0 0 
0 2 0 0 0 0 0 0 0 
0 0 0 0 0 0 0 0 0 
0 0 0 0 0 0 0 0 0 
0 0 0 0 0 0 0 2 0 
0 0 0 0 0 0 0 0 0 
0 0 0 0 0 0 0 0 0 
0 0 0 0 0 0 0 0 0 
0 0 0 0 0 0 0 0 2 
0 0 0 0 0 0 0 0 0 
0 0 0 0 0 0 0 0 0 
2 0 0 0 0 0 0 0 0 
0 0 0 0 0 0 0 0 0 
0 0 0 
weighted_torsion_tz 1 120 unsigned_char
0 0 0 0 0 0 0 0 0 
0 0 0 3 0 0 0 0 0 
0 0 0 0 0 0 0 0 0 
0 0 0 0 0 0 0 0 0 
0 3 0 0 0 0 0 0 0 
0 0 0 0 3 0 0 0 0 
0 0 0 0 0 0 0 0 0 
0 0 0 0 0 0 0 0 0 
0 0 0 0 0 0 0 0 0 
0 0 3 0 0 0 0 0 0 
0 0 3 0 0 0 0 0 0 
0 0 0 0 0 0 3 0 0 
0 0 0 0 0 0 0 0 0 
0 0 0 
plain_torsion_tp_raw 1 120 unsigned_char
0 0 0 0 0 0 0 0 0 
0 0 0 0 0 0 0 0 0 
0 0 0 0 0 0 0 0 0 
0 0 0 1 0 0 0 0 0 
0 0 0 0 0 0 1 0 0 
0 0 0 0 0 0 0 0 0 
0 0 0 0 0 0 0 0 0 
0 0 0 0 0 0 0 0 0 
0 0 0 0 0 1 0 0 0 
0 1 0 0 0 0 0 0 0 
0 0 0 0 0 0 0 0 0 
0 0 0 0 0 0 0 1 0 
0 0 0 0 0 0 0 0 1 
0 0 0 
plain_torsion_tn_raw 1 120 unsigned_char
0 0 0 0 0 0 0 0 0 
0 0 0 0 0 0 0 0 0 
0 2 0 0 0 0 0 0 0 
0 0 0 0 0 0 0 0 2 
0 0 0 0 0 0 0 0 0 
0 0 0 0 0 0 0 0 0 
0 0 0 0 0 0 0 0 0 
0 0 0 0 0 0 2 0 0 
0 0 0 0 0 0 0 2 0 
0 0 0 0 0 0 0 0 0 
0 0 0 0 0 2 0 0 0 
0 0 0 0 0 0 0 0 0 
0 0 2 0 0 0 0 0 0 
0 0 0 
plain_torsion_tz_raw 1 120 unsigned_char
0 0 0 0 0 0 0 0 3 
0 0 0 0 0 0 0 0 0 
0 0 0 0 0 0 0 0 3 
0 0 0 0 3 0 0 0 0 
0 0 3 0 0 0 0 0 0 
0 0 0 0 0 0 0 0 0 
0 0 0 0 0 0 0 0 0 
0 0 0 0 0 0 0 0 0 
0 0 0 0 0 0 0 0 0 
0 0 0 0 0 0 0 0 0 
0 0 0 0 0 0 0 0 0 
0 0 0 0 0 0 0 0 0 
0 0 0 0 0 0 0 0 0 
0 0 0 
weighted_torsion_tp_raw 1 120 unsigned_char
0 0 0 0 0 0 0 0 0 
0 0 0 0 0 0 0 0 0 
0 0 0 0 0 0 0 0 0 
0 0 0 0 0 0 1 0 0 
0 0 0 0 0 0 0 0 0 
1 0 0 0 0 0 0 0 0 
0 0 0 0 0 0 0 0 0 
0 0 0 0 0 0 0 0 0 
0 0 0 0 0 0 0 0 0 
0 1 0 0 0 0 1 0 0 
0 0 0 0 0 0 0 0 0 
0 0 0 0 0 0 0 0 0 
0 0 1 0 0 0 0 0 0 
0 1 0 
weighted_torsion_tn_raw 1 120 unsigned_char
0 0 0 0 0 0 0 0 0 
0 0 0 0 0 0 0 0 0 
0 0 0 0 2 0 0 0 0 
0 0 0 0 0 0 0 0 0 
0 0 2 0 0 0 0 0 0 
0 0 0 0 0 0 0 0 0 
0 0 0 0 0 0 0 0 0 
0 0 0 0 0 0 0 0 0 
0 0 0 2 0 0 0 0 0 
0 0 0 2 0 0 0 0 0 
0 0 0 0 0 0 0 0 0 
0 2 0 0 0 0 0 0 0 
0 0 0 0 0 2 0 0 0 
0 0 0 
weighted_torsion_tz_raw 1 120 unsigned_char
0 0 0 0 0 0 0 0 0 
0 3 0 0 0 0 0 0 0 
0 0 0 0 0 0 0 0 0 
0 0 3 0 0 0 0 3 0 
0 0 0 0 0 0 3 0 0 
0 0 0 0 0 0 0 0 0 
0 0 0 0 0 0 0 0 0 
0 0 0 0 0 0 0 0 0 
0 0 0 0 0 0 0 0 0 
0 0 0 0 0 0 0 0 0 
0 0 0 0 0 0 0 0 0 
0 0 0 0 0 0 0 0 0 
0 0 0 0 0 0 0 0 0 
0 0 0 
