# vtk DataFile Version 5.1
vtk output
ASCII
DATASET POLYDATA
POINTS 120 float
-2.2069 20.4821 -4.61286 -2.55566 20.2784 -4.29223 -2.89292 19.9642 -4.06743 
-3.19764 19.5676 -3.95162 -3.46863 19.1314 -3.92074 -3.71881 18.6817 -3.94297 
-3.96176 18.2302 -3.9962 -4.20842 17.7831 -4.06754 -4.46785 17.3454 -4.15021 
-4.74775 16.9225 -4.24249 -5.0531 16.5212 -4.34872 -5.38308 16.1479 -4.48012 
-5.72821 15.8061 -4.65168 -6.07161 15.4933 -4.87415 -6.39608 15.201 -5.14718 
-6.69141 14.9181 -5.46064 -6.95541 14.6357 -5.8015 -7.1904 14.3478 -6.15889 
-7.39727 14.0504 -6.52589 -7.57739 13.7417 -6.89752 -7.73351 13.4232 -7.2715 
-7.8636 13.0955 -7.64736 -7.96369 12.7594 -8.02493 -8.02767 12.4161 -8.40401 
-8.0448 12.0675 -8.78361 -8.00196 11.718 -9.16011 -7.90117 11.3727 -9.52877 
-7.74399 11.0358 -9.88478 -7.53715 10.7093 -10.2247 -7.28965 10.3927 -10.547 
-7.01 10.0846 -10.8514 -6.7004 9.78308 -11.1327 -6.36983 9.48346 -11.3909 
-6.02364 9.18285 -11.626 -5.66312 8.8794 -11.8345 -5.28798 8.57056 -12.0072 
-4.89805 8.25321 -12.1211 -4.50106 7.92955 -12.1686 -4.10728 7.60337 -12.1259 
-3.73972 7.28449 -11.9671 -3.43608 6.98921 -11.6805 -3.23591 6.73182 -11.2855 
-3.15914 6.51372 -10.8267 -3.19903 6.32265 -10.3502 -3.33105 6.14118 -9.88628 
-3.52528 5.95339 -9.44734 -3.75424 5.74785 -9.03382 -3.99491 5.51639 -8.64117 
-4.22821 5.25357 -8.2643 -4.43851 4.95686 -7.8996 -4.61482 4.62702 -7.54571 
-4.7529 4.26818 -7.20303 -4.85566 3.88646 -6.87238 -4.93091 3.48793 -6.55399 
-4.98754 3.07647 -6.24837 -5.03748 2.65643 -5.95345 -5.0879 2.23125 -5.66609 
-5.14144 1.80251 -5.38464 -5.19872 1.37131 -5.10771 -5.25866 0.938355 -4.83406 
-5.31572 0.503372 -4.56303 -5.36246 0.0661826 -4.29364 -5.3922 -0.37365 -4.02636 
-5.39801 -0.81626 -3.76238 -5.37359 -1.26126 -3.50358 -5.3147 -1.70757 -3.25233 
-5.21686 -2.15324 -3.01207 -5.08507 -2.59631 -2.78378 -4.92857 -3.03617 -2.56527 
-4.75353 -3.4727 -2.35408 -4.56529 -3.90586 -2.14714 -4.36821 -4.33557 -1.94117 
-4.16512 -4.76019 -1.7305 -3.95899 -5.17836 -1.51021 -3.74968 -5.58812 -1.27766 
-3.53585 -5.98659 -1.03023 -3.31515 -6.36999 -0.765452 -3.08121 -6.7292 -0.478815 
-2.82767 -7.05713 -0.172424 -2.55057 -7.34927 0.148742 -2.2457 -7.59915 0.479769 
-1.91123 -7.80225 0.814099 -1.54876 -7.95808 1.14497 -1.16302 -8.07105 1.46745 
-0.760261 -8.14919 1.77974 -0.346166 -8.20112 2.08264 0.0727445 -8.23934 2.38089 
0.492103 -8.27294 2.6791 0.909553 -8.3063 2.97999 1.32374 -8.34155 3.28513 
1.73425 -8.37888 3.59498 2.14157 -8.4167 3.90895 2.54723 -8.45053 4.22552 
2.95354 -8.47732 4.54191 3.36143 -8.49509 4.85687 3.77114 -8.50274 5.16985 
4.18219 -8.5002 5.48118 4.5934 -8.48854 5.79212 5.00292 -8.46931 6.10492 
5.4083 -8.44454 6.42268 5.80854 -8.41652 6.7466 6.20325 -8.38533 7.07694 
6.59263 -8.3505 7.4132 6.97732 -8.31118 7.75433 7.35819 -8.26667 8.0991 
7.7359 -8.21658 8.44659 8.11084 -8.16222 8.79642 8.4841 -8.10842 9.14814 
8.85596 -8.05988 9.50205 9.22654 -8.02211 9.85852 9.59568 -8.00205 10.218 
9.96127 -8.01962 10.5813 10.3196 -8.08328 10.9459 10.6633 -8.20589 11.3085 
10.9807 -8.40019 11.6624 11.2571 -8.67208 11.9986 11.4802 -9.01542 12.3084 
11.6454 -9.41418 12.5877 11.7567 -9.85016 12.8381 11.8223 -10.3088 13.0645 

LINES 2 120
OFFSETS vtktypeint64
0 120 
CONNECTIVITY vtktypeint64
0 1 2 3 4 5 6 7 8 
9 10 11 12 13 14 15 16 17 
18 19 20 21 22 23 24 25 26 
27 28 29 30 31 32 33 34 35 
36 37 38 39 40 41 42 43 44 
45 46 47 48 49 50 51 52 53 
54 55 56 57 58 59 60 61 62 
63 64 65 66 67 68 69 70 71 
72 73 74 75 76 77 78 79 80 
81 82 83 84 85 86 87 88 89 
90 91 92 93 94 95 96 97 98 
99 100 101 102 103 104 105 106 107 
108 109 110 111 112 113 114 115 116 
117 118 119 
CELL_DATA 1
FIELD FieldData 2
Length 1 1 double
61.309513994 
Tortuosity 1 1 double
0.6059798694 
POINT_DATA 120
FIELD FieldData 19
Curvature 1 120 double
0 0.56636755098 0.54356647092 0.38061479881 0.22195250042 0.12017407752 0.071563117659 0.073266406678 0.10193308118 
0.13616874271 0.16989368359 0.2011787368 0.22159788467 0.21824436833 0.19168294493 0.15696063445 0.1274730206 0.11737702382 
0.11076454354 0.098029715271 0.10420699002 0.11756746934 0.13895602046 0.17777522824 0.22666537373 0.22158159709 0.22097171991 
0.20129889371 0.17172022103 0.14243578923 0.1443520348 0.11794477037 0.10495176428 0.11465265848 0.14715647872 0.23094543068 
0.25383931033 0.34506318128 0.45999670266 0.56441183684 0.60416382344 0.55966309039 0.46393227225 0.35517734866 0.25459025042 
0.17560217029 0.13297629669 0.13520555134 0.16127540689 0.18394441931 0.18623974949 0.16520751099 0.12996091781 0.097897102148 
0.05739716278 0.034430398934 0.028478016494 0.023907236236 0.017202997327 0.01649919159 0.040157404782 0.065217901327 0.091568523722 
0.11591809185 0.13308658441 0.15243558605 0.13595383206 0.10078930631 0.076085510287 0.05368338061 0.035870947094 0.0345037783 
0.045051429639 0.057155640305 0.07237814007 0.090276368235 0.13249443816 0.1578106729 0.17100048707 0.19482979621 0.20995167492 
0.20828427715 0.18694447945 0.15106297056 0.11314728614 0.057407219377 0.017448539057 0.012425495151 0.021364936427 0.023794147518 
0.019693943469 0.018918437925 0.026628585533 0.034849211252 0.039411248777 0.039121348785 0.03435114236 0.02997925043 0.032044564928 
0.032545335651 0.034021027261 0.03296703011 0.030472074335 0.027861592664 0.026193928987 0.021062767926 0.0097595829773 0.022031338933 
0.04191500763 0.067826979972 0.14303699909 0.17608238835 0.23005057743 0.2924928138 0.34232442734 0.35602258926 0.32686735627 
0.27153908813 0.21323211099 0 
Torsion 1 120 double
0 0 -0.049161512611 -0.1038196895 -0.25204257754 -0.65735588678 -1.4021004357 -0.91392800599 -0.1149020632 
0.30001702824 0.52798425666 0.60450342448 0.58283825197 0.54789930873 0.53289568462 0.51889804235 0.49831479988 0.38072093708 
0.1958547038 0.020168122588 -0.063348077683 -0.085595799371 -0.088735294977 -0.067790164709 -0.031352836701 -0.0036246092225 0.025113874741 
0.05692561846 0.095350141673 0.19384225145 0.27662014401 0.37163569397 0.28488087934 0.21711821243 0.20419424332 0.1074178475 
0.095007938536 0.091346743984 0.11987876985 0.16491645815 0.22686952406 0.30302573413 0.38093816993 0.46396798709 0.60221967319 
0.88525462777 1.2062362071 0.9408426625 0.50019668636 0.23818931087 0.089542846953 -0.019458815944 -0.16124319654 -0.38309744679 
-0.8572147224 -1.0845070773 -0.59754680589 -0.23212734963 0.91854097646 2.3346925886 0.31588344648 0.044642824436 -0.0058495992848 
-0.028909568952 -0.044106318151 -0.044394428599 -0.035449446411 0.0067000704518 0.093134595707 0.27248693569 0.94479350225 1.26708513 
0.40149559733 -0.023869823312 -0.12475642966 -0.25227602555 -0.28091302631 -0.27528703881 -0.23629060963 -0.18429083697 -0.15266812582 
-0.12282034859 -0.09344594142 -0.061245427908 -0.00074858044993 0.20185916441 1.878837711 2.0317978542 0.22269952731 -0.19456679187 
-1.0682477591 -1.7629523876 -0.65476156892 -0.14683863007 0.026276929429 0.18855345902 0.47628172821 0.93055974174 0.78090071832 
0.32889431384 -0.043620027453 -0.21376396894 -0.33566460181 -0.34624234005 -0.11010789672 0.47430371869 3.5735931035 0.70290661291 
0.21338673472 0.12275393764 0.023981936412 -0.014367628967 -0.038470921508 -0.050345535796 -0.061001672547 -0.072172987273 -0.082642253686 
-0.090473050778 0 0 
FrenetTangent 3 120 double
-0.67388011382 -0.50874759624 0.5357811825 -0.67388011382 -0.50874759624 0.5357811825 -0.63150548392 -0.6992419699 0.33505446022 
-0.56278480884 -0.81407170218 0.14338940915 -0.50703838803 -0.86188235923 0.0084185450736 -0.47872339032 -0.87490484116 -0.073249126076 
-0.47494736729 -0.87167778487 -0.12084220155 -0.49092215782 -0.85829836906 -0.14939660182 -0.52333171109 -0.83505023053 -0.16974991211 
-0.56811524004 -0.8000702291 -0.1926984757 -0.61703705226 -0.75232792658 -0.23079854208 -0.6560835038 -0.69488746961 -0.29442459243 
-0.66946759574 -0.63642208062 -0.38311887653 -0.6493695477 -0.58840245475 -0.4817693865 -0.60228902676 -0.55896269453 -0.56991984907 
-0.54313232693 -0.54892106866 -0.63536834657 -0.48423774319 -0.55349600694 -0.67761049163 -0.4286625691 -0.56779320131 -0.70275122369 
-0.37540723652 -0.58793530809 -0.71652039767 -0.32620936105 -0.60853473928 -0.72337605977 -0.27775742234 -0.62715399492 -0.72768721371 
-0.22343857586 -0.64433275397 -0.73137576182 -0.15928271342 -0.65954354791 -0.73459602886 -0.078745478982 -0.67174161069 -0.73658832329 
0.024968962802 -0.67817974477 -0.73447177255 0.13959417464 -0.67527182711 -0.72423851452 0.25092497526 -0.66347541301 -0.70486667755 
0.3540601797 -0.64530418824 -0.6769223691 0.44158185186 -0.62506291735 -0.64366281349 0.51181718601 -0.60653600506 -0.60840549198 
0.5718115732 -0.59160392061 -0.56836284702 0.62112766375 -0.58322433692 -0.52349765821 0.65681904507 -0.58254776196 -0.47877640613 
0.68606313326 -0.58640776294 -0.4306312956 0.71408994813 -0.59432521121 -0.36993660173 0.74325263257 -0.60833755612 -0.27838991001 
0.76569338753 -0.62372647336 -0.15709526636 0.77258472579 -0.63489440309 -0.0046838450392 0.74786807763 -0.63364128754 0.19796983911 
0.66264081205 -0.60632688443 0.43963037136 0.49792972192 -0.54622171498 0.67357837711 0.27263903344 -0.46810527478 0.84056255518 
0.036099970667 -0.4005342134 0.91557038835 -0.16754701562 -0.36308119433 0.91656971578 -0.31718373524 -0.35898851112 0.87779366994 
-0.41093820741 -0.3819472452 0.82779592387 -0.4558371762 -0.42417193652 0.78249002362 -0.4601190318 -0.47983859742 0.74702436172 
-0.43090216805 -0.54352367293 0.72035084406 -0.37579103462 -0.60901716384 0.69848349476 -0.30560534126 -0.66942387235 0.67710933719 
-0.2339481943 -0.71935697747 0.65405946316 -0.17275700615 -0.75723208417 0.62988458271 -0.12791787033 -0.78567350303 0.60527197613 
-0.1033481377 -0.80633229513 0.58236362547 -0.097324158083 -0.81959042586 0.56462336304 -0.10081037218 -0.82802286188 0.55155725819 
-0.10745650201 -0.83384485345 0.54143869511 -0.11365258732 -0.83790221473 0.53385669233 -0.11343631396 -0.84155911314 0.52811974188 
-0.10065215751 -0.84572862584 0.52403457389 -0.074180091457 -0.85062251792 0.52051767121 -0.034495792695 -0.85621461903 0.51546732821 
0.018060540394 -0.86151350367 0.50741334224 0.080863253431 -0.86509269238 0.49505127798 0.15210046986 -0.86564373574 0.47699724301 
0.22280639528 -0.86235699261 0.45464021766 0.27970724574 -0.85664877922 0.43349362826 0.32162586761 -0.8501744762 0.41684548851 
0.35232962729 -0.84345428896 0.40552274433 0.37364078426 -0.83671044342 0.40038506242 0.38801681043 -0.82839414072 0.40398775035 
0.39681375142 -0.81724630935 0.41790826331 0.40292143746 -0.80297469359 0.4391878376 0.41047628433 -0.78403840263 0.46561035556 
0.42155676873 -0.75852545547 0.49691953488 0.44111817254 -0.7205338219 0.53501941025 0.47315058129 -0.66694287948 0.57560031527 
0.51543062318 -0.60229417713 0.60956787717 0.56583570147 -0.52700020338 0.6341141416 0.62196942822 -0.44066720602 0.64727617282 
0.67787586525 -0.34910952816 0.64699833745 0.72708994961 -0.26121098726 0.63490867478 0.76542686435 -0.18551277697 0.61620347688 
0.79241448259 -0.12618243758 0.59678914218 0.80778922 -0.08742364738 0.58295255547 0.81281506305 -0.069638526228 0.57834431694 
0.81138489166 -0.064925986471 0.58089514877 0.80638827852 -0.066526228977 0.58763271278 0.79965720901 -0.07037500636 0.59631846069 
0.79298212606 -0.072865592528 0.60487184856 0.78828205597 -0.069478871752 0.61137884051 0.78731600895 -0.058782405316 0.61374109434 
0.789511188 -0.043207694148 0.61221334451 0.79284683684 -0.024647779127 0.60892231055 0.79590462514 -0.0049541076255 0.60540175462 
0.79731815433 0.013766754829 0.60340221846 0.79581582007 0.029953510527 0.6047974601 0.79016203659 0.042661001752 0.61141147754 
0.78117145169 0.051186837516 0.62221465005 0.77084842948 0.057414472347 0.63442594298 0.76031448936 0.064025023163 0.64639204333 
0.75059131434 0.071905032834 0.65684270955 0.74233257475 0.081282223368 0.66508311408 0.73554808986 0.091732560834 0.67123330131 
0.72978580728 0.10127679027 0.67613289171 0.72545331927 0.10486728155 0.68023549953 0.72249985055 0.099233317116 0.68421247776 
0.72000303448 0.083707345789 0.68890399229 0.71742878048 0.056089994103 0.69437011564 0.71290112647 0.0024160525129 0.70126039855 
0.70294355098 -0.078880565649 0.70685799175 0.6830434653 -0.18123358336 0.70753516716 0.6449292645 -0.3091414619 0.6989261766 
0.58054081949 -0.4557717303 0.67471807947 0.48852248226 -0.60179245856 0.63181612922 0.37916332385 -0.72476197755 0.57528710202 
0.26935946078 -0.81309748543 0.51606003534 0.1719455791 -0.86935621036 0.46330820988 0.1719455791 -0.86935621036 0.46330820988 

FrenetNormal 3 120 double
0.065343288787 -0.76336093129 -0.64265880776 0.065343288787 -0.76336093129 -0.64265880776 0.23403503762 -0.58386310883 -0.77738759401 
0.34468362615 -0.38878399321 -0.8544239021 0.36100445895 -0.22122491654 -0.90594443368 0.2320262371 -0.045610256992 -0.97163960899 
-0.19232156426 0.23681257541 -0.95232989035 -0.65801260431 0.47768496466 -0.58209663038 -0.75779523737 0.54717277442 -0.3554551071 
-0.70534471973 0.59401893304 -0.38682080288 -0.54845698095 0.62145645015 -0.55945225053 -0.28628821827 0.59012883895 -0.75484237396 
0.028503199294 0.49336038228 -0.86935786695 0.32861392498 0.35420026109 -0.87553130347 0.57613112257 0.1898090218 -0.79501287087 
0.75515212473 0.011484365242 -0.65544898952 0.85988673614 -0.15803844211 -0.48540565697 0.9026289448 -0.30259768987 -0.30609741275 
0.90862480989 -0.3860386778 -0.15929561855 0.91964792847 -0.38135094387 -0.093910304347 0.93996327504 -0.33378448785 -0.071112286153 
0.96138775151 -0.26935362094 -0.056411152553 0.98027929519 -0.19382390436 -0.038533070408 0.99401658541 -0.10901430946 -0.006848960467 
0.99860465673 -0.017277896193 0.049902042704 0.98951718151 0.067798092209 0.12751143552 0.96705322069 0.13950711233 0.21294561269 
0.93305943904 0.19453512524 0.30258249828 0.89154490513 0.22512115056 0.39302436275 0.84526443107 0.22897323567 0.48280358213 
0.77958903945 0.17609278699 0.60102600605 0.67360458312 0.05587708967 0.73697667293 0.56523809159 -0.039885001113 0.8239630371 
0.47121918692 -0.092817169191 0.87711883516 0.36702593288 -0.13214863807 0.92077614112 0.24396192395 -0.14101320144 0.95947790839 
0.11773948199 -0.10419493871 0.98756307603 -0.024352085195 -0.037003470532 0.99901837777 -0.21208736127 0.054528323377 0.97572824759 
-0.43919742318 0.16087907027 0.88386851297 -0.67191328855 0.24805658386 0.69785418526 -0.85781333017 0.27736279808 0.43269639336 
-0.96413950596 0.22708544391 0.1373579783 -0.98481487327 0.10452139245 -0.13861797828 -0.9235044954 -0.093618643014 -0.37198789854 
-0.74585219049 -0.38129126831 -0.54618813486 -0.33207128645 -0.73461483611 -0.59166688541 0.20395487372 -0.87600183049 -0.43706201215 
0.5357043514 -0.79645595443 -0.280497345 0.6971088039 -0.68239710319 -0.2199397851 0.77674720244 -0.58657258264 -0.22933902589 
0.80861713681 -0.51748163617 -0.27991263329 0.79890032095 -0.48177707073 -0.36006823145 0.71590939421 -0.49550158531 -0.49188608258 
0.43820397644 -0.56252604433 -0.70110036691 -0.052626408835 -0.56228495732 -0.82526728268 -0.41135880787 -0.47008536531 -0.7808992768 
-0.58836852534 -0.38565441289 -0.71069905882 -0.57952596151 -0.38054431731 -0.72064948657 0.6550561018 -0.46300590566 -0.59709884845 
0.96614021469 -0.20885590367 -0.15150015534 0.98027271877 -0.1580838716 -0.11863762633 0.98395445188 -0.11943829555 -0.13254482329 
0.98269712332 -0.078270477088 -0.16786928319 0.97574822781 -0.032655310788 -0.21644635965 0.96181061836 0.01851718003 -0.27308871903 
0.94140691974 0.069201005029 -0.33009730742 0.92386775307 0.11731267679 -0.36428849927 0.91628711564 0.16847720475 -0.36336394042 
0.92282650095 0.24100058296 -0.30051616955 0.92569661648 0.36380303877 -0.10360078778 0.6538341875 0.55634297369 0.51281902352 
0.25567313432 0.53567838404 0.80478563435 0.2118931538 0.54866774775 0.80874284785 0.23623496574 0.58461021764 0.7761597351 
0.28512832012 0.63107399016 0.72142044607 0.37476136738 0.68958162014 0.61970243398 0.4707311268 0.74366691607 0.47473331903 
0.52443989866 0.78427719329 0.33146957142 0.54235201281 0.81716597373 0.19517701092 0.53451794509 0.84300332063 0.060298986625 
0.5057000417 0.86020543131 -0.065681685139 0.4643513956 0.86828076206 -0.17454598143 0.41914243025 0.87030381147 -0.2586327491 
0.37531343031 0.87211164828 -0.31394442496 0.31655800066 0.89857664159 -0.30389315789 0.093690022354 0.99553146854 -0.011801476984 
-0.57670817609 0.072932738907 0.81368820517 -0.57314425338 -0.3328076115 0.74882892475 -0.58303477014 -0.32849311949 0.74307652853 
-0.60924449935 -0.093702365757 0.78742682623 -0.32918619114 0.79183659144 0.51442323433 0.091833376313 0.99552112776 -0.022456962753 
0.17268096523 0.9728599056 -0.15402885546 0.17472125206 0.96642985337 -0.1883768101 0.12721951677 0.97900850474 -0.15924051685 
0.015775821063 0.9989229158 -0.043636358306 -0.21147401737 0.94963667873 0.23123347159 -0.4868805931 0.64962478858 0.58389632823 
-0.59217033566 0.37643090132 0.71248443498 -0.61070860657 0.34987465236 0.71036802117 -0.60891651139 0.41671528513 0.67495855672 
-0.57835738247 0.55223336158 0.6004507078 -0.51663966449 0.70148762197 0.49091605525 -0.4547308077 0.80128522792 0.3887954167 
-0.49447784113 0.76114312236 0.4197056253 -0.6512191815 -0.21531970225 0.72770255151 -0.2331192102 -0.89672454267 0.37621872416 
-0.11134736976 -0.96590265412 0.2337387987 -0.08229579155 -0.98294979585 0.16442962485 -0.094031744226 -0.99063409342 0.099005676804 
-0.148707755 -0.98816565809 0.037611644204 -0.23114035563 -0.97257339443 -0.025983234088 -0.33569214824 -0.93617715719 -0.10432215468 
-0.45518845397 -0.86873947389 -0.19517991159 -0.57487489941 -0.76671187803 -0.28578269038 -0.67819733775 -0.64061848215 -0.36007822954 
-0.7563806407 -0.51030693881 -0.40923728395 -0.81147582518 -0.39164581731 -0.43372864665 -0.81147582518 -0.39164581731 -0.43372864665 

FrenetBinormal 3 120 double
0.73594554609 -0.39806528599 0.54765699236 0.73594554609 -0.39806528599 0.54765699236 0.73920797138 -0.41251004554 0.53235987581 
0.75130982744 -0.43143281091 0.49939891155 0.78267991777 -0.45630947299 0.42331289985 0.8467512863 -0.48214232688 0.22483557498 
0.85874176224 -0.42906601298 -0.28011594435 0.57097709895 -0.18745928681 -0.79927727871 0.38970539949 -0.057385254475 -0.91914995195 
0.42395035132 -0.083839940947 -0.90179652024 0.56432279432 -0.21861969595 -0.7960811594 0.69827895008 -0.41094933754 -0.58611189192 
0.74229421787 -0.59292703472 -0.31214872356 0.68580761066 -0.72685949556 -0.036649623218 0.55255846555 -0.80717609068 0.20771591367 
0.36708656194 -0.83579529177 0.40828138129 0.16158158643 -0.81772001389 0.55247205342 -0.03885086695 -0.76553609884 0.64221888131 
-0.18294906836 -0.71084893806 0.67913432076 -0.2187124606 -0.69588571525 0.68403796012 -0.1982923496 -0.7037512219 0.68221284198 
-0.16065115643 -0.71574012676 0.67963760703 -0.11696803247 -0.72624692943 0.67740968171 -0.075697935686 -0.73272033464 0.67630668615 
-0.046532681628 -0.73469293455 0.67680204008 -0.037002890455 -0.73444630723 0.67765729384 -0.042950263564 -0.73507696328 0.67662185371 
-0.063572575575 -0.7387412197 0.67098430529 -0.10076284162 -0.74740672791 0.6566810739 -0.15352918183 -0.76137069284 0.62987574839 
-0.25548474381 -0.78676307202 0.56189982576 -0.40057120581 -0.81038702092 0.4275693925 -0.49909382069 -0.8118172773 0.30308095688 
-0.55431927178 -0.80468062526 0.21264815134 -0.59612709264 -0.79329331321 0.12376675098 -0.6229430984 -0.78105101935 0.043602767408 
-0.63233776628 -0.77466683237 -0.0063441437062 -0.63444449515 -0.77171227805 -0.044049318728 -0.62905666649 -0.7717029096 -0.093607316282 
-0.60664056712 -0.77877187544 -0.15969216748 -0.54826866106 -0.80006860287 -0.24349888297 -0.43568824637 -0.83901569113 -0.32592701945 
-0.26292927786 -0.88769620088 -0.37797308076 -0.045471561864 -0.92587651706 -0.37508000775 0.21571723408 -0.92863491134 -0.30183319294 
0.52424641118 -0.84186297614 -0.12818903918 0.82579726902 -0.52954623107 0.19400943184 0.86411393118 -0.048741290507 0.50093053464 
0.72618466623 0.2650281676 0.6343625942 0.61059021759 0.40426759418 0.68098994007 0.55069879144 0.45585555214 0.69923283439 
0.53982086699 0.46339863529 0.70274827383 0.5761191665 0.44101068561 0.68818331945 0.6863750853 0.37039887364 0.62585454914 
0.89291457456 0.18273663915 0.41147403715 0.99386038725 -0.11003254342 0.011591809245 0.90588144922 -0.30561068293 -0.29322501672 
0.80142097463 -0.39493472144 -0.44916699258 0.80698993137 -0.39128749163 -0.44233624039 0.74701653674 0.27821536696 0.60379011537 
0.23757573268 0.49104205822 0.83811423345 0.18320128513 0.50144872275 0.84556872434 0.17505335447 0.50262413364 0.84659630484 
0.18433713869 0.50166544172 0.84519323464 0.20341221737 0.500547964 0.84147204681 0.22756489511 0.50031793574 0.83540180853 
0.25320016131 0.50154923805 0.82724726661 0.26121300028 0.5023849171 0.82424338854 0.238693785 0.49881739293 0.83319054574 
0.15574043432 0.48010788521 0.86327361576 -0.058977441305 0.40934457716 0.91047167917 -0.6495720207 0.065158600676 0.75750283609 
-0.88157251266 -0.21250209111 0.42151247455 -0.89036824214 -0.23279893477 0.39121483786 -0.88073961019 -0.20860171772 0.4251859151 
-0.86080876611 -0.16243383993 0.48231060101 -0.81545611493 -0.072857399443 0.57421522443 -0.74467491813 0.046332639135 0.66581720679 
-0.67771237659 0.14883214797 0.7201075797 -0.62103482442 0.23347496016 0.74820130302 -0.57222774901 0.30847660357 0.75986682275 
-0.53362138181 0.37171111537 0.75965720399 -0.50568565985 0.42173135806 0.75261190202 -0.48830455507 0.45624147699 0.74391019362 
-0.48085248966 0.47275708919 0.73843186403 -0.49726010122 0.43001991241 0.75353517945 -0.5749381297 0.063777510241 0.81570740845 
-0.095195783618 -0.99522129794 0.021733175218 0.14575187506 -0.94064517996 -0.30650128275 0.14359249594 -0.94188089954 -0.30371296677 
-0.00069839907576 -0.99293024532 -0.11869726265 -0.51985368307 -0.60676807665 0.60131909113 -0.6096721521 0.074042643163 0.78918790788 
-0.58894258487 0.22732509592 0.77554492616 -0.5838376293 0.25574562653 0.77053734311 -0.5919045719 0.20375918254 0.77982765615 
-0.60335303451 0.044311226094 0.79624219368 -0.56741159709 -0.3119182034 0.76207028146 -0.37227844955 -0.75905709468 0.5340796598 
-0.19775099652 -0.92502955855 0.3243684004 -0.18118415114 -0.93503545708 0.30476383869 -0.22614720742 -0.90677955841 0.35582056297 
-0.31955502967 -0.83058291616 0.45608837127 -0.42664482365 -0.7080312962 0.56273073318 -0.50218412961 -0.59120818736 0.63109744031 
-0.47212746174 -0.64062794119 0.60555057662 0.22278029357 -0.97089663666 -0.087912807441 0.65088355317 -0.43132104441 -0.62475015556 
0.68497984903 -0.2450002919 -0.6861322492 0.69175382011 -0.17511028353 -0.70058050285 0.69493166208 -0.13652199695 -0.70599697548 
0.69552596483 -0.13155412779 -0.70635482848 0.69283891382 -0.14579225191 -0.7062002965 0.6865690245 -0.1673436192 -0.70754440688 
0.67511171541 -0.19381397364 -0.71180075537 0.65640279886 -0.22360396445 -0.72051136891 0.62951055981 -0.25362972268 -0.73443067669 
0.5960988234 -0.28010588603 -0.75246719885 0.5585174151 -0.3013856886 -0.77280331504 0.5585174151 -0.3013856886 -0.77280331504 

plain_curvature_peaks 1 120 unsigned_char
0 0 0 0 0 0 0 0 0 
0 0 0 0 0 1 0 0 0 
0 0 0 0 0 0 0 0 0 
0 0 0 0 0 0 0 0 0 
0 0 0 0 0 0 0 0 0 
0 0 0 0 0 0 1 0 0 
0 0 0 0 0 0 0 0 0 
0 0 0 0 0 0 0 0 0 
0 0 0 0 0 0 0 0 0 
0 0 0 0 1 0 0 0 0 
0 0 0 0 0 0 0 0 0 
0 0 0 0 0 0 0 0 0 
0 0 0 1 0 0 0 0 0 
0 0 0 
weighted_curvature_peaks 1 120 unsigned_char
0 0 0 0 0 0 0 0 0 
0 0 0 0 0 0 0 0 1 
0 0 0 0 0 0 0 0 0 
0 0 0 0 0 0 0 0 0 
0 0 0 0 0 0 0 0 0 
0 0 0 0 0 0 0 0 0 
0 0 1 0 0 0 0 0 0 
0 0 0 0 0 0 0 0 0 
0 0 0 0 0 0 0 0 0 
0 0 0 0 0 0 0 0 0 
1 0 0 0 0 0 0 0 0 
0 0 0 0 0 0 0 0 0 
0 0 0 0 0 0 1 0 0 
0 0 0 
plain_torsion_tp 1 120 unsigned_char
0 0 0 0 0 0 0 0 0 
0 0 0 0 0 1 0 0 0 
0 0 0 0 0 0 0 0 0 
0 0 0 0 0 0 0 0 0 
0 0 0 0 0 0 0 0 0 
0 0 0 0 0 0 1 0 0 
0 0 0 0 0 0 0 0 0 
0 0 0 0 0 0 0 0 0 
0 0 0 0 0 0 0 0 0 
0 0 0 0 1 0 0 0 0 
0 0 0 0 0 0 0 0 0 
0 0 0 0 0 0 0 0 0 
0 0 0 1 0 0 0 0 0 
0 0 0 
plain_torsion_tn 1 120 unsigned_char
0 0 0 0 0 2 0 0 0 
0 0 0 0 0 0 0 0 0 
0 0 0 0 0 0 0 0 0 
0 0 0 0 0 0 0 0 0 
2 0 0 0 0 0 0 0 0 
0 0 0 0 0 0 0 0 0 
0 0 0 0 0 0 0 0 0 
0 0 0 0 0 2 0 0 0 
0 0 0 0 0 0 0 0 0 
0 0 0 0 0 0 0 0 0 
0 0 0 0 0 0 2 0 0 
0 0 0 0 0 0 0 0 0 
0 0 0 0 0 0 0 0 0 
0 0 0 
plain_torsion_tz 1 120 unsigned_char
0 0 0 0 0 0 3 0 0 
0 0 0 0 0 0 0 0 0 
0 0 0 0 0 0 0 0 0 
0 0 3 0 0 0 0 0 0 
0 0 0 0 0 0 3 0 0 
0 0 0 0 0 0 0 0 0 
0 0 0 0 0 0 0 0 0 
0 0 0 0 0 0 0 0 0 
0 3 0 0 0 0 0 0 0 
0 0 0 0 0 0 0 0 0 
0 0 3 0 0 0 0 0 0 
0 0 3 0 0 0 0 0 0 
0 0 0 0 0 0 0 0 0 
0 0 0 
weighted_torsion_tp 1 120 unsigned_char
0 0 0 0 0 0 0 0 0 
0 0 0 0 0 0 0 0 1 
0 0 0 0 0 0 0 0 0 
0 0 0 0 0 0 0 0 0 
0 0 0 0 0 0 0 0 0 
0 0 0 0 0 0 0 0 0 
0 0 1 0 0 0 0 0 0 
0 0 0 0 0 0 0 0 0 
0 0 0 0 0 0 0 0 0 
0 0 0 0 0 0 0 0 0 
1 0 0 0 0 0 0 0 0 
0 0 0 0 0 0 0 0 0 
0 0 0 0 0 0 1 0 0 
0 0 0 
weighted_torsion_tn 1 120 unsigned_char
0 0 0 0 0 0 2 0 0 
0 0 0 0 0 0 0 0 0 
0 0 0 0 0 0 0 0 0 
0 0 0 0 0 0 0 0 0 
0 0 0 0 2 0 0 0 0 
0 0 0 0 0 0 0 0 0 
0 0 0 0 0 0 0 0 0 
0 0 0 0 0 0 0 0 0 
0 2 0 0 0 0 0 0 0 
0 0 0 0 0 0 0 0 0 
0 0 0 0 0 0 0 0 0 
0 0 2 0 0 0 0 0 0 
0 0 0 0 0 0 0 0 0 
0 0 0 
weighted_torsion_tz 1 120 unsigned_char
0 0 0 0 0 0 0 3 0 
0 0 0 0 0 0 0 0 0 
0 0 0 0 0 0 0 0 0 
0 0 0 0 0 0 3 0 0 
0 0 0 0 0 0 0 0 0 
0 3 0 0 0 0 0 0 0 
0 0 0 0 0 0 0 0 0 
0 0 0 0 0 0 0 0 0 
0 0 0 0 0 0 0 3 0 
0 0 0 0 0 0 0 0 0 
0 0 0 0 0 0 0 3 0 
0 0 0 0 0 0 3 0 0 
0 0 0 0 0 0 0 0 0 
0 0 0 
plain_torsion_tp_raw 1 120 unsigned_char
0 0 0 0 0 0 0 0 0 
0 0 0 0 0 0 0 0 0 
0 0 1 0 0 0 0 0 0 
0 0 0 0 0 0 0 0 0 
0 0 1 0 0 0 0 0 0 
0 0 0 0 0 0 0 0 0 
0 0 0 0 0 0 0 0 0 
0 0 0 0 0 0 0 0 1 
0 0 0 0 0 0 0 0 0 
0 0 0 0 0 0 1 0 0 
0 0 0 0 0 0 0 0 0 
0 0 0 0 0 0 1 0 0 
0 0 0 0 1 0 0 0 0 
0 0 0 
plain_torsion_tn_raw 1 120 unsigned_char
0 0 0 0 0 0 0 0 0 
0 0 2 0 0 0 0 0 0 
0 0 0 0 0 0 0 0 0 
0 0 0 0 0 2 0 0 0 
0 0 0 0 0 0 0 0 0 
0 0 0 0 0 0 0 0 0 
0 0 0 0 0 0 0 0 2 
0 0 0 0 0 0 0 0 0 
0 0 0 0 0 0 2 0 0 
0 0 0 0 0 0 0 0 0 
0 0 0 0 0 0 0 2 0 
0 0 0 0 0 0 0 0 0 
2 0 0 0 0 0 0 0 0 
0 0 0 
plain_torsion_tz_raw 1 120 unsigned_char
0 0 0 0 0 3 0 0 0 
0 0 0 0 0 0 3 0 0 
0 0 0 3 0 0 0 0 0 
0 0 0 0 0 0 0 0 3 
0 0 0 0 0 0 0 0 0 
0 0 0 0 0 0 0 0 0 
0 0 0 0 0 0 0 0 0 
0 0 0 0 0 0 0 0 0 
0 0 0 0 0 0 0 0 0 
0 0 0 0 0 0 0 0 0 
0 0 0 0 0 0 0 0 0 
0 0 0 0 0 0 0 0 0 
0 0 0 0 0 0 0 0 0 
0 0 0 
weighted_torsion_tp_raw 1 120 unsigned_char
0 0 0 0 0 0 0 0 0 
0 0 0 0 0 0 0 0 0 
0 0 0 0 0 1 0 0 0 
0 0 0 0 0 0 0 0 0 
0 0 0 0 0 0 0 1 0 
0 0 0 0 0 0 0 0 0 
0 0 0 0 0 0 0 0 0 
0 0 0 0 0 0 0 0 0 
0 0 0 0 0 1 0 0 0 
0 0 0 0 0 0 0 0 0 
0 0 0 1 0 0 0 0 0 
0 0 0 0 0 0 0 0 0 
0 1 0 0 0 0 0 1 0 
0 0 0 
weighted_torsion_tn_raw 1 120 unsigned_char
0 0 0 0 0 0 0 0 0 
0 0 0 0 2 0 0 0 0 
0 0 0 0 0 0 0 0 0 
0 0 0 0 0 0 0 0 2 
0 0 0 0 0 0 0 0 0 
0 0 0 0 0 0 0 0 0 
0 0 0 0 0 0 0 0 0 
0 0 0 2 0 0 0 0 0 
0 0 0 0 0 0 0 0 0 
0 2 0 0 0 0 0 0 0 
0 0 0 0 0 0 0 0 0 
0 0 0 2 0 0 0 0 0 
0 0 0 0 2 0 0 0 0 
0 0 0 
weighted_torsion_tz_raw 1 120 unsigned_char
0 0 0 0 0 0 3 0 0 
0 0 0 0 0 0 0 0 0 
3 0 0 0 0 0 0 3 0 
0 0 0 0 0 0 0 0 0 
0 0 0 3 0 0 0 0 0 
0 0 0 0 0 0 0 0 0 
0 0 0 0 0 0 0 0 0 
0 0 0 0 0 0 0 0 0 
0 0 0 0 0 0 0 0 0 
0 0 0 0 0 0 0 0 0 
0 0 0 0 0 0 0 0 0 
0 0 0 0 0 0 0 0 0 
0 0 0 0 0 0 0 0 0 
0 0 0 
