# vtk DataFile Version 5.1
vtk output
ASCII
DATASET POLYDATA
POINTS 120 float
-2.43764 18.7755 -3.85955 -2.64918 18.398 -3.46661 -2.93749 17.9871 -3.23345 
-3.28671 17.5529 -3.12778 -3.68115 17.1054 -3.11782 -4.10563 16.6545 -3.1733 
-4.54583 16.2096 -3.26748 -4.98867 15.7792 -3.37967 -5.4232 15.3704 -3.4975 
-5.84177 14.9886 -3.61804 -6.2413 14.6379 -3.74724 -6.62415 14.3211 -3.89735 
-6.99762 14.0399 -4.08305 -7.372 13.7945 -4.31745 -7.75701 13.5837 -4.60921 
-8.15796 13.4047 -4.96136 -8.57258 13.253 -5.37154 -8.98968 13.1226 -5.83292 
-9.39011 13.0063 -6.33526 -9.74938 12.8954 -6.86583 -10.0416 12.7803 -7.41045 
-10.2435 12.6502 -7.9545 -10.3379 12.4942 -8.48437 -10.3167 12.3022 -8.98888 
-10.1815 12.0668 -9.46043 -9.9425 11.7841 -9.89548 -9.61615 11.4542 -10.2941 
-9.22154 11.0819 -10.6583 -8.7772 10.6758 -10.9906 -8.29923 10.2477 -11.2912 
-7.80108 9.81138 -11.5565 -7.29499 9.38047 -11.7782 -6.79392 8.96689 -11.9434 
-6.31314 8.57917 -12.0362 -5.87036 8.22203 -12.04 -5.48407 7.89592 -11.9412 
-5.17066 7.59808 -11.7324 -4.94118 7.32275 -11.4149 -4.79927 7.06261 -10.9994 
-4.7405 6.80877 -10.5055 -4.75351 6.5515 -9.95921 -4.82275 6.28128 -9.38913 
-4.93137 5.98962 -8.82245 -5.06375 5.67101 -8.28136 -5.20686 5.32346 -7.7806 
-5.35038 4.94895 -7.32618 -5.48571 4.55213 -6.91553 -5.60471 4.13979 -6.53907 
-5.69925 3.71851 -6.18293 -5.76201 3.29345 -5.83285 -5.78836 2.86612 -5.47816 
-5.77836 2.43416 -5.1149 -5.73728 1.99145 -4.74696 -5.67449 1.53026 -4.38486 
-5.60063 1.04355 -4.04255 -5.52441 0.527503 -3.73307 -5.44993 -0.0164414 -3.46451 
-5.3757 -0.581834 -3.23721 -5.29501 -1.1576 -3.04298 -5.19773 -1.73077 -2.8665 
-5.07275 -2.28889 -2.68882 -4.9103 -2.82256 -2.49186 -4.70375 -3.32688 -2.26289 
-4.45027 -3.80178 -1.99711 -4.15071 -4.25045 -1.69839 -3.80852 -4.67691 -1.37731 
-3.42836 -5.08313 -1.04771 -3.01494 -5.46722 -0.722885 -2.57215 -5.82268 -0.412532 
-2.10287 -6.14001 -0.120967 -1.60932 -6.40902 0.153027 -1.09373 -6.62278 0.415206 
-0.559043 -6.77998 0.674145 -0.00939095 -6.88651 0.939221 0.550005 -6.95512 1.2188 
1.11323 -7.00314 1.51886 1.67435 -7.04918 1.84219 2.22797 -7.10946 2.18821 
2.76969 -7.19511 2.55353 3.29627 -7.30969 2.93285 3.80577 -7.44845 3.32012 
4.29763 -7.59895 3.70955 4.77278 -7.74295 4.09649 5.23364 -7.85981 4.4779 
5.68404 -7.93095 4.85258 6.12871 -7.94415 5.22109 6.57273 -7.89759 5.58539 
7.02071 -7.80055 5.94828 7.4761 -7.67247 6.31272 7.94064 -7.53869 6.68117 
8.41353 -7.42564 7.0553 8.89134 -7.35661 7.43675 9.36796 -7.3484 7.82643 
9.83481 -7.41013 8.2263 10.2825 -7.54424 8.63788 10.7021 -7.74764 9.06183 
11.0874 -8.01356 9.49691 11.435 -8.33393 9.93847 11.7449 -8.70034 10.3798 
12.0184 -9.10507 10.8116 12.2564 -9.54171 11.225 12.4576 -10.0054 11.6123 
12.6186 -10.4921 11.9694 12.7347 -10.9984 12.2964 12.8028 -11.5211 12.5969 
12.8238 -12.0567 12.8783 12.8052 -12.6015 13.1488 12.7603 -13.1513 13.4168 
12.7066 -13.703 13.6884 12.6623 -14.2547 13.9661 12.6424 -14.8061 14.2482 
12.6559 -15.3591 14.529 12.7051 -15.9171 14.7998 12.7851 -16.4843 15.051 
12.8863 -17.0652 15.2727 12.9959 -17.6639 15.4567 13.0993 -18.2839 15.5961 
13.1813 -18.9282 15.6848 13.2268 -19.5996 15.7182 13.2203 -20.3007 15.6911 

LINES 2 120
OFFSETS vtktypeint64
0 120 
CONNECTIVITY vtktypeint64
0 1 2 3 4 5 6 7 8 
9 10 11 12 13 14 15 16 17 
18 19 20 21 22 23 24 25 26 
27 28 29 30 31 32 33 34 35 
36 37 38 39 40 41 42 43 44 
45 46 47 48 49 50 51 52 53 
54 55 56 57 58 59 60 61 62 
63 64 65 66 67 68 69 70 71 
72 73 74 75 76 77 78 79 80 
81 82 83 84 85 86 87 88 89 
90 91 92 93 94 95 96 97 98 
99 100 101 102 103 104 105 106 107 
108 109 110 111 112 113 114 115 116 
117 118 119 
CELL_DATA 1
FIELD FieldData 2
Length 1 1 double
72.549592356 
Tortuosity 1 1 double
0.56306609544 
POINT_DATA 120
FIELD FieldData 19
Curvature 1 120 double
0 0.56271166331 0.4615957624 0.30531273546 0.18265819829 0.1035355502 0.057042985232 0.035679839905 0.035516114523 
0.060869261357 0.11597750187 0.18635548174 0.23860443301 0.24223115004 0.20355608651 0.1538898524 0.11695090257 0.10377439014 
0.11827068303 0.15972254341 0.22853738992 0.32064030309 0.40805636241 0.43582013355 0.37934572989 0.28132175006 0.19267945979 
0.13136218585 0.095910147581 0.081515440391 0.085674237134 0.10868849417 0.15573175878 0.23956481784 0.37366760856 0.53588857329 
0.61855232504 0.53451081279 0.36749266643 0.22726021529 0.14201784095 0.10582017896 0.10580150348 0.12045769021 0.13124084967 
0.12934732501 0.11262391651 0.097324452532 0.10363275106 0.11928820328 0.11694612365 0.094354037536 0.077160524435 0.092463145553 
0.11987877376 0.13330260556 0.12391559155 0.093726306381 0.064022695994 0.083422005572 0.13614660293 0.17749603712 0.18613221842 
0.16312469929 0.12829449131 0.10254115964 0.09506904633 0.10290672421 0.11923535523 0.13984290861 0.15603093794 0.15802881867 
0.13936167239 0.1043487603 0.067605703043 0.051826008278 0.063653778255 0.078430842268 0.081850459591 0.070417698405 0.044899392114 
0.022192558164 0.062470057603 0.1203410179 0.16819524551 0.18039934319 0.14856080651 0.084210709546 0.01190366484 0.059976636344 
0.11900808236 0.16241435548 0.18816085323 0.19731077067 0.19281202364 0.17842365875 0.16010305966 0.14103082447 0.12652584617 
0.12099450752 0.1254858479 0.13602342855 0.14736174968 0.15309647302 0.14278108506 0.11409112333 0.070908007946 0.023439439203 
0.028719956867 0.064654089754 0.087299583104 0.096543484515 0.096838397639 0.097658447624 0.10542122325 0.12031979139 0.13992321542 
0.15725084648 0.17088337226 0 
Torsion 1 120 double
0 0 -0.027249803752 -0.051639219931 -0.10144050044 -0.19899698127 -0.36271001889 -0.2982085615 0.33570371957 
0.29895709691 0.073210189803 -0.022256071192 -0.048723448574 -0.034469933289 0.029733181482 0.17595533832 0.40452203474 0.55733103316 
0.47002684869 0.3187962281 0.22113626312 0.166285104 0.13696669816 0.1251922411 0.12581077216 0.12937468971 0.11784171803 
0.070482820209 -0.014679225274 -0.072633188929 -0.01793284763 0.096669006436 0.17609452562 0.20250918146 0.18623504998 0.1607912437 
0.14875026922 0.16772574466 0.23684223125 0.38418470461 0.64395430632 0.81513740544 0.59581468565 0.3541231519 0.2688806063 
0.32858851806 0.57988856219 0.92011599007 0.7050725174 0.25179883409 -0.1094909487 -0.59927211051 -1.1248262496 -0.68069835489 
-0.23669890705 -0.019411343397 0.16794489138 0.55916161419 1.5765813084 1.0126985967 0.3312595696 0.10900213449 -0.0083403270767 
-0.12408388207 -0.27117265381 -0.37668721536 -0.26747890736 -0.030809648371 0.14014122675 0.20956775724 0.22717968138 0.24272429865 
0.29764891788 0.46862069922 0.94517159425 1.3094786436 0.66861218425 0.29337928753 0.11833243069 -0.039699883482 -0.5206016722 
-3.3632111363 -0.50249765514 -0.13404773341 -0.058872704111 -0.040011024604 -0.047108269122 -0.12574942175 -5.4879519643 -0.25141606306 
-0.1022954125 -0.1114611249 -0.13078679934 -0.13605003712 -0.12455301 -0.07925837789 -0.011099233215 0.070015765623 0.13191684359 
0.11951980297 0.034062531386 -0.072161487866 -0.13815418497 -0.17117829292 -0.18317842546 -0.2047317814 -0.33501562237 -1.7844169778 
-1.0863277128 -0.35969497974 -0.35098308813 -0.42362665552 -0.54375643021 -0.61371909169 -0.5545472487 -0.43339229224 -0.30443578879 
-0.21305564898 0 0 
FrenetTangent 3 120 double
-0.44470055475 -0.70140845612 0.55701669121 -0.44470055475 -0.70140845612 0.55701669121 -0.57357568747 -0.76031593748 0.3048452164 
-0.64150741513 -0.76060496778 0.099741261824 -0.67319259671 -0.73851975618 -0.037420548738 -0.68955483199 -0.71433230602 -0.11934609443 
-0.70063785397 -0.69447505178 -0.16374064873 -0.70999798957 -0.67915807279 -0.1861374948 -0.71850093694 -0.66592095855 -0.20076274699 
-0.72645483992 -0.65044908734 -0.22176417728 -0.7341834124 -0.62632137779 -0.26209969225 -0.74078309293 -0.5857114651 -0.3289110653 
-0.74298022741 -0.52324124565 -0.4173715138 -0.73702186498 -0.44273654014 -0.51066929275 -0.72223974731 -0.3581380844 -0.59169828453 
-0.70047061688 -0.28400451519 -0.65473838305 -0.67219582883 -0.2279791812 -0.70439921965 -0.63490380792 -0.19164446525 -0.74844475657 
-0.58340177131 -0.17453065445 -0.79320957123 -0.51005545946 -0.17693340864 -0.84174699119 -0.40484852751 -0.20089030853 -0.89204302234 
-0.25760276003 -0.24873840468 -0.93368625569 -0.066988059405 -0.31813987901 -0.94567416021 0.14522317754 -0.39681536119 -0.90633757388 
0.3373699609 -0.46712155392 -0.81729980016 0.47955772296 -0.51964551057 -0.70710178454 0.57091439262 -0.5560318878 -0.60405736156 
0.62619245131 -0.58102501967 -0.51989704791 0.66098490599 -0.59782306443 -0.45354882614 0.68675836704 -0.60814860292 -0.39814346921 
0.71049242095 -0.61356125592 -0.34459121435 0.73508080796 -0.61635440232 -0.28242424915 0.75917590943 -0.61957345107 -0.1994509395 
0.77583064112 -0.62570920458 -0.081085187299 0.76870751101 -0.63351096786 0.088048941634 0.70917304178 -0.63239780737 0.31168350943 
0.57218355811 -0.60409555593 0.55468417603 0.37864719644 -0.54593950895 0.747379658 0.18866434978 -0.48318545143 0.85494887721 
0.039458672241 -0.44065931948 0.896806767 -0.066471297312 -0.42627391243 0.90214861205 -0.13890683931 -0.43881132679 0.88777784917 
-0.18718222078 -0.47399331178 0.86040290365 -0.217444236 -0.52580573113 0.8223419832 -0.23280690834 -0.58645987288 0.77580007794 
-0.23392086149 -0.64704474086 0.72568184068 -0.21978910604 -0.69927997341 0.6802207492 -0.18895277844 -0.73762458078 0.64823361942 
-0.14126818687 -0.76010079596 0.6342634148 -0.08030645203 -0.76819387842 0.63516064025 -0.014602275493 -0.76731798302 0.6411005276 
0.044759213673 -0.76645358681 0.6407382555 0.08904023592 -0.77486344969 0.62582623045 0.11494247258 -0.79732365988 0.59250587287 
0.12451299387 -0.83192087278 0.54074409456 0.12385443559 -0.87118386706 0.47507762371 0.12147188531 -0.90618719195 0.4050547546 
0.12632677922 -0.93053249005 0.34373075192 0.1458428365 -0.94151236536 0.30378336512 0.18428597448 -0.93798365716 0.29364151361 
0.24163223611 -0.91783524835 0.31494812169 0.31242029819 -0.87883156636 0.3606225662 0.38669269106 -0.82311156275 0.41587993214 
0.45497660551 -0.75981623498 0.46440884736 0.51351021696 -0.70024753519 0.495944197 0.56431537654 -0.65050184483 0.50832618039 
0.61177722574 -0.60926596547 0.50450332941 0.65989792747 -0.56998747776 0.48953958015 0.71073309576 -0.52426609276 0.46904533958 
0.76340961724 -0.46489325545 0.44841946584 0.81347640768 -0.38916465663 0.43221175849 0.85406550768 -0.301654412 0.42376493994 
0.87953231567 -0.21392021637 0.4250424058 0.8887148491 -0.14034738937 0.43644991384 0.8847856123 -0.091921649184 0.45684223829 
0.87223838057 -0.072969179484 0.48360697505 0.85447075324 -0.081492848829 0.51306787801 0.83347594345 -0.11104598301 0.54128240444 
0.81084307414 -0.15197618689 0.56518735632 0.78878897011 -0.19287366966 0.58361948921 0.77035733272 -0.22253126827 0.59751938426 
0.75868152011 -0.23105208162 0.6091118835 0.75560398793 -0.21057956148 0.62025709323 0.76006511558 -0.1568077859 0.63064438344 
0.76734954629 -0.072305797352 0.63713934542 0.77120674255 0.028951830849 0.63592605838 0.769108404 0.12381672946 0.62701011188 
0.76464223236 0.19054555454 0.61564165562 0.7634423584 0.21731527187 0.6082185775 0.7676847006 0.20213880024 0.60811191889 
0.77421375862 0.14827389922 0.61531122757 0.77630450393 0.062826961515 0.62721933173 0.76616357543 -0.043461502147 0.64117429262 
0.73857743894 -0.1581678408 0.65535204343 0.69343759001 -0.2698616974 0.66807108382 0.63512604007 -0.37033234899 0.67784132695 
0.57071228689 -0.45649869338 0.68256606166 0.5067901419 -0.52929552847 0.68044837836 0.4477902342 -0.59189255513 0.67018438458 
0.39414264765 -0.64839259409 0.65133602483 0.34246014804 -0.70205445854 0.62437215204 0.28736273001 -0.75403557237 0.59063780526 
0.22396701452 -0.80256850923 0.55292184294 0.15106527136 -0.84398780819 0.51464926253 0.073535956487 -0.87391878587 0.48047728231 
0.001988067871 -0.89053727605 0.45490593263 -0.051981017212 -0.89608056713 0.44083737485 -0.080118271119 -0.89513721857 0.43853212262 
-0.079270952687 -0.89238477866 0.44425839651 -0.051847149713 -0.89056512712 0.45189116767 -0.0051114791583 -0.89093527944 0.45410153118 
0.050484855826 -0.89452803525 0.44415185858 0.10360366091 -0.90226128991 0.41855805592 0.1444394334 -0.91493532905 0.3768694651 
0.1665722199 -0.93241576217 0.32070943548 0.16660179426 -0.95305542756 0.25284223171 0.142890806 -0.97401237323 0.175733077 
0.096039943592 -0.99111434383 0.092025467628 0.028351457033 -0.9995876797 0.0045459292555 0.028351457033 -0.9995876797 0.0045459292555 

FrenetNormal 3 120 double
-0.51101542948 -0.31205842076 -0.80092619689 -0.51101542948 -0.31205842076 -0.80092619689 -0.37172111619 -0.090037563495 -0.92396788307 
-0.2560563018 0.08974748499 -0.96248665406 -0.19397314899 0.22519477999 -0.95480978657 -0.19707597781 0.34364515447 -0.91818792563 
-0.27888334955 0.47776976536 -0.83304269317 -0.40559126447 0.61046362874 -0.68031601787 -0.3858545491 0.62179143389 -0.68153626439 
-0.22399096382 0.52919123055 -0.81840374488 -0.11844577942 0.49826926579 -0.85889366985 -0.05139939645 0.53762435503 -0.84161639416 
0.012681600552 0.61246457187 -0.79039630895 0.084323317619 0.6894359268 -0.71942176846 0.16546028441 0.74118942955 -0.6505852164 
0.27308583686 0.74093037536 -0.613552202 0.4386687948 0.64379240327 -0.62697769495 0.64428833629 0.403283234 -0.64981164417 
0.79082959655 0.10040746206 -0.60374406066 0.85998729566 -0.12343173782 -0.49516306143 0.90058837724 -0.25642603734 -0.3509790053 
0.93000886904 -0.325992438 -0.1697422572 0.93639874848 -0.34728519513 0.050501258235 0.89810041448 -0.33147634743 0.2890312727 
0.81087400375 -0.29681955898 0.50436246832 0.69541149971 -0.26640262578 0.66740728723 0.57814426203 -0.2501161627 0.7766537951 
0.48102880619 -0.23687111612 0.84409914226 0.42369047653 -0.20152761504 0.88310418438 0.40917802655 -0.12927261079 0.90325075958 
0.39661720449 -0.055349349874 0.91631394324 0.33873199472 -0.026970783794 0.94049625867 0.22372083234 -0.039371239162 0.97385773843 
0.062695376152 -0.051425127979 0.99670695092 -0.13785992678 -0.029683633888 0.99000682951 -0.36739704045 0.04583409072 0.92893414772 
-0.59764046013 0.1560386192 0.78643361432 -0.77560378712 0.25346495911 0.57809538998 -0.88912134832 0.28560694532 0.3576197712 
-0.96424750185 0.21858162589 0.14982932956 -0.99738919718 0.0028150056301 -0.072158610598 -0.86987769102 -0.37439124755 -0.3211603905 
-0.56234982366 -0.66645589383 -0.48948873062 -0.29227836137 -0.76876619653 -0.56883380222 -0.102268902 -0.77853294499 -0.61921524953 
0.080562929987 -0.7567227871 -0.64875283259 0.3398093421 -0.70848063714 -0.61853439501 0.71903443474 -0.5535136791 -0.42025241071 
0.96569770591 -0.24681297172 -0.080692613011 0.99513668101 -0.025322989808 0.095193131551 0.99505106649 0.051873164673 0.084749925407 
0.99324435566 -0.034593895164 -0.11076512252 0.78462137915 -0.33247616041 -0.52328662713 0.30395147673 -0.5396228104 -0.78512465398 
0.034446572744 -0.54103232373 -0.84029605396 -0.047140646322 -0.48338907548 -0.8741354364 -0.012287096347 -0.40941812071 -0.91226412277 
0.1865457364 -0.31804041475 -0.92954342707 0.72930002478 -0.10516449386 -0.6760635348 0.9656824693 0.22842486017 0.12361007949 
0.81463825923 0.36822044674 0.44808281511 0.71489991563 0.46750498439 0.51995884471 0.65832009679 0.562185338 0.50056198008 
0.64150374802 0.64136579935 0.42085965916 0.6727216536 0.68732438656 0.2739174409 0.73454885166 0.6766753615 0.050482072717 
0.76364957723 0.62124070474 -0.1757819956 0.73944557887 0.60821827891 -0.28860138788 0.68413345914 0.67035672617 -0.28737304982 
0.59860302396 0.77001968773 -0.22078066087 0.48480960835 0.86424687154 -0.13430185659 0.34998550014 0.9359376011 -0.039127439698 
0.2006948519 0.97668102203 0.076261114837 0.02837223589 0.9670024233 0.25318240372 -0.21221972118 0.79330717037 0.57063694534 
-0.4732502324 0.12361954727 0.87221122732 -0.47884527937 -0.50654870103 0.71701855758 -0.43369418862 -0.73846631717 0.51631080675 
-0.42703840931 -0.81399237571 0.39376974143 -0.45393752647 -0.8229762477 0.34154182435 -0.53679891248 -0.73206789315 0.41943238713 
-0.53279367663 0.31796805672 0.78423670728 0.032528503814 0.95781053899 0.2855536164 0.098396032613 0.9870316487 0.12683353352 
0.067857942439 0.99719944811 0.031441379372 0.0077504753034 0.99846417592 -0.054856353632 -0.050338191647 0.98974259955 -0.13369986203 
-0.073814517331 0.97489834597 -0.21005863957 0.23287283684 0.78573957922 -0.57304760318 0.17886945832 -0.97882267404 0.099558473603 
0.078754642918 -0.9871850038 0.13879291948 -0.024698613008 -0.99122496974 0.12985776016 -0.15936638387 -0.97939526832 0.12404541141 
-0.30213952237 -0.94665714354 0.11203553723 -0.44109206497 -0.89215409686 0.097462083254 -0.55798067011 -0.82680224955 0.071102826423 
-0.63708654719 -0.7705978491 0.017311451191 -0.68014577574 -0.73048009989 -0.061648580024 -0.6774110051 -0.71379605255 -0.17779067896 
-0.65732072251 -0.69419579218 -0.29329451049 -0.64588634031 -0.65853792287 -0.38621061551 -0.68164187578 -0.59420405763 -0.42694951819 
-0.75093217787 -0.50374507137 -0.42701494975 -0.82703681182 -0.39308229911 -0.40186616929 -0.89616143221 -0.26930080919 -0.35266380817 
-0.94411438795 -0.15161455912 -0.29267908693 -0.98411632783 -0.029068714902 -0.1751287044 -0.95744776631 0.19148303629 0.21593522549 
0.86941172729 0.15613819042 0.46876872116 0.98501670136 0.02892378746 0.17001621261 0.99846379406 -0.029601362054 -0.046838139578 
0.9525778129 -0.090492301605 -0.29052823221 0.81286570504 -0.16569573721 -0.55838541191 0.5319524434 -0.2493495865 -0.8092288809 
0.17553304724 -0.29201727579 -0.94016703833 -0.15063093296 -0.27801624374 -0.94869241077 -0.39300339228 -0.21879461899 -0.89312778949 
-0.55218751215 -0.12997237188 -0.82352664436 -0.6566589785 -0.022053349412 -0.753865131 -0.6566589785 -0.022053349412 -0.753865131 

FrenetBinormal 3 120 double
0.73559815622 -0.64081644776 -0.21965799062 0.73559815622 -0.64081644776 -0.21965799062 0.72995502774 -0.64328291784 -0.23098213156 
0.72312060311 -0.64298170419 -0.25233137229 0.71357280302 -0.63551229791 -0.2948524614 0.69690400533 -0.60962067254 -0.37773991445 
0.6567576988 -0.53799670423 -0.52842111171 0.57567228611 -0.40752726308 -0.70888853063 0.57868183879 -0.41221922531 -0.70370635903 
0.64968562681 -0.54486018967 -0.53012824867 0.6685396879 -0.59954088308 -0.44000615361 0.66977497062 -0.60654936529 -0.42836824835 
0.66919321477 -0.59254176819 -0.44841353042 0.67058806181 -0.57329090247 -0.47079633867 0.67155985712 -0.56778106874 -0.476058837 
0.65936715159 -0.60857506868 -0.44144234639 0.596424728 -0.73044974806 -0.33274721545 0.42636802696 -0.89478211432 -0.13257176726 
0.18501600596 -0.9795189596 0.079446115821 -0.016287405637 -0.97645234139 0.21511751536 -0.1582347767 -0.9454569114 0.2847331806 
-0.26215324056 -0.91206257264 0.3153054742 -0.34448509944 -0.8821451188 0.32116974583 -0.4151215174 -0.8559561906 0.3082419919 
-0.47818914618 -0.83288390744 0.27863872165 -0.53518897262 -0.81178703138 0.23361202722 -0.58292878518 -0.79263512722 0.17867172832 
-0.61359131474 -0.77865396734 0.13116286673 -0.61934266295 -0.77588285457 0.12008522737 -0.60077973326 -0.78322657569 0.1600619981 
-0.58128763352 -0.78770491601 0.20402365651 -0.58729621276 -0.78700687898 0.18895325061 -0.61122903049 -0.78395066443 0.10872179188 
-0.6278185296 -0.77835945906 -0.00066811606649 -0.6245665722 -0.77316410643 -0.11015380797 -0.60174164845 -0.77328665407 -0.19983678128 
-0.56163320436 -0.78148608985 -0.27174921367 -0.50503966778 -0.79856469185 -0.32745895452 -0.41697600781 -0.82762340005 -0.37572665143 
-0.26204917164 -0.87065575113 -0.41627970724 0.028219779833 -0.90458975637 -0.42534811238 0.47330507356 -0.81686952033 -0.32970667888 
0.80543497071 -0.57547100879 -0.14180136104 0.93128479194 -0.36404239887 0.013482140776 0.96713081593 -0.22349780998 0.1212712407 
0.96891209347 -0.09329376617 0.22914106643 0.91445194509 0.095198243538 0.3933381936 0.66879468387 0.38669443346 0.63496542107 
0.21787895764 0.60110742548 0.76889441593 -0.057042614506 0.6397162741 0.76649150601 -0.098286055065 0.63916530547 0.7627631111 
0.10706195749 0.64136741552 0.75972730342 0.61354798326 0.53763020478 0.57837067279 0.94572814687 0.27033720405 0.18032212376 
0.99161986062 0.12325455821 -0.038708731548 0.99118002313 0.085870084873 -0.10093805168 0.99251882015 0.1058374961 -0.060867200339 
0.97429063071 0.18154773353 0.13340984734 0.66846940162 0.32014823927 0.6713075033 -0.1830192561 0.260784858 0.94788987215 
-0.52723653996 0.14829753702 0.83667763891 -0.62554909313 0.095363344837 0.77433465927 -0.64581995389 0.080218458063 0.75926384488 
-0.61763195329 0.10643871707 0.77923139682 -0.5326845538 0.19297299579 0.82401977466 -0.37681048331 0.3449026022 0.85968369454 
-0.20632001664 0.49280317581 0.84532661181 -0.13324774374 0.55243533595 0.82283670214 -0.16376775227 0.52513514799 0.8351126868 
-0.24265237688 0.43697132807 0.86612694361 -0.32127212422 0.3187918052 0.89171520518 -0.3848145765 0.1817289811 0.90492669269 
-0.43144464549 0.018229707756 0.90195520711 -0.45758161373 -0.21262390181 0.86337138194 -0.41487011246 -0.60184229151 0.68239918371 
-0.12342781291 -0.98964322176 0.07329303257 0.20146198222 -0.85835151836 -0.47185351609 0.34238458268 -0.66508366997 -0.6636539079 
0.40021457507 -0.56064217725 -0.72491974935 0.41443055231 -0.53433121121 -0.73670718338 0.34408793569 -0.64386057066 -0.68340841234 
-0.37487764562 -0.9195168571 0.11813340056 -0.6542205361 -0.1955894161 0.73057530101 -0.6423544511 -0.034348838993 0.76563758817 
-0.63762839762 0.019108436831 0.7701070667 -0.6365375797 0.047234319003 0.76979791422 -0.63713289772 0.071267132325 0.76745206137 
-0.64021377174 0.11517641543 0.75951347572 -0.60243340484 0.5791263992 0.5492600536 0.61535836497 0.032343132529 -0.78758364917 
0.62800538388 -0.05899677185 -0.77596947023 0.62987403161 -0.11630061162 -0.76794066961 0.62257186844 -0.19722070437 -0.75730328297 
0.60267327443 -0.28075467354 -0.74696836451 0.56972107121 -0.36226472604 -0.73768704021 0.53410905723 -0.42338161442 -0.73176193093 
0.51808128414 -0.44473351336 -0.7306188371 0.52968431713 -0.43156119753 -0.73019823129 0.58360794745 -0.37437734779 -0.72058543223 
0.64232471622 -0.31253679153 -0.69981405593 0.68231362466 -0.27101169971 -0.67897037949 0.6728945048 -0.27991408236 -0.68473432214 
0.62124040488 -0.31956954026 -0.71549679823 0.54146966276 -0.36492586337 -0.75739007028 0.43759244797 -0.404651739 -0.80297560336 
0.32961199925 -0.42890137028 -0.84107047536 0.16974400473 -0.44293862671 -0.88033649579 -0.27726311948 -0.40257124432 -0.87238842027 
-0.48768777359 0.42340320299 0.76347256872 -0.16448091409 0.45393520339 0.87572190793 0.055171774808 0.45316452554 0.88971792612 
0.30007797269 0.43775648196 0.8475390686 0.57316282766 0.3980822621 0.71625057458 0.83436433771 0.31736119385 0.45068617085 
0.97027926129 0.21290081514 0.11502781415 0.97445069869 0.11996799658 -0.18987763326 0.90836696946 0.0585560543 -0.41405390626 
0.82816983806 0.028276138448 -0.55976350303 0.75365455007 0.018388049609 -0.65701346927 0.75365455007 0.018388049609 -0.65701346927 

plain_curvature_peaks 1 120 unsigned_char
0 0 0 0 0 0 0 0 0 
0 0 0 0 0 0 0 0 0 
0 1 0 0 0 0 0 0 0 
0 0 0 0 0 0 0 0 0 
0 0 0 0 0 0 0 0 0 
0 0 0 0 0 0 1 0 0 
0 0 0 0 0 0 0 0 0 
0 0 0 0 0 0 0 0 0 
0 0 0 0 0 0 0 0 0 
0 0 0 0 0 0 1 0 0 
0 0 0 0 0 0 0 0 0 
0 0 0 0 0 0 0 0 0 
0 0 0 0 0 0 0 0 0 
1 0 0 
weighted_curvature_peaks 1 120 unsigned_char
0 0 0 0 0 0 0 0 0 
0 0 0 0 0 0 0 0 0 
0 0 0 1 0 0 0 0 0 
0 0 0 0 0 0 0 0 0 
0 0 0 0 0 0 0 0 0 
0 0 0 0 0 0 0 0 0 
0 1 0 0 0 0 0 0 0 
0 0 0 0 0 0 0 0 0 
0 0 0 0 0 0 0 0 0 
0 0 0 0 0 0 0 0 0 
0 0 1 0 0 0 0 0 0 
0 0 0 0 0 0 0 0 0 
0 0 0 0 0 0 0 0 0 
0 1 0 
plain_torsion_tp 1 120 unsigned_char
0 0 0 0 0 0 0 0 0 
0 0 0 0 0 0 0 0 0 
0 1 0 0 0 0 0 0 0 
0 0 0 0 0 0 0 0 0 
0 0 0 0 0 0 0 0 0 
0 0 0 0 0 0 1 0 0 
0 0 0 0 0 0 0 0 0 
0 0 0 0 0 0 0 0 0 
0 0 0 0 0 0 0 0 0 
0 0 0 0 0 0 1 0 0 
0 0 0 0 0 0 0 0 0 
0 0 0 0 0 0 0 0 0 
0 0 0 0 0 0 0 0 0 
1 0 0 
plain_torsion_tn 1 120 unsigned_char
0 0 0 0 0 0 0 0 2 
0 0 0 0 0 0 0 0 0 
0 0 0 0 0 0 0 0 0 
0 0 0 0 0 0 0 0 0 
0 2 0 0 0 0 0 0 0 
0 0 0 0 0 0 0 0 0 
0 0 0 0 0 0 0 0 0 
0 0 0 0 0 0 2 0 0 
0 0 0 0 0 0 0 0 0 
0 0 0 0 0 0 0 0 0 
0 0 0 0 0 0 0 0 0 
0 0 0 0 2 0 0 0 0 
0 0 0 0 0 0 0 0 0 
0 0 0 
plain_torsion_tz 1 120 unsigned_char
0 0 0 0 0 0 0 0 0 
3 0 0 0 0 0 0 0 0 
0 0 0 0 0 0 0 0 0 
0 0 0 0 0 3 0 0 0 
0 0 0 0 0 0 3 0 0 
0 0 0 0 0 0 0 0 0 
0 0 0 0 0 0 0 0 0 
0 0 0 0 0 0 0 0 0 
0 0 0 3 0 0 0 0 0 
0 0 0 0 0 0 0 0 0 
0 0 0 0 0 0 3 0 0 
0 0 0 0 0 0 0 0 0 
3 0 0 0 0 0 0 0 0 
0 0 0 
weighted_torsion_tp 1 120 unsigned_char
0 0 0 0 0 0 0 0 0 
0 0 0 0 0 0 0 0 0 
0 0 0 1 0 0 0 0 0 
0 0 0 0 0 0 0 0 0 
0 0 0 0 0 0 0 0 0 
0 0 0 0 0 0 0 0 0 
0 1 0 0 0 0 0 0 0 
0 0 0 0 0 0 0 0 0 
0 0 0 0 0 0 0 0 0 
0 0 0 0 0 0 0 0 0 
0 0 1 0 0 0 0 0 0 
0 0 0 0 0 0 0 0 0 
0 0 0 0 0 0 0 0 0 
0 1 0 
weighted_torsion_tn 1 120 unsigned_char
0 0 0 0 0 0 0 0 0 
2 0 0 0 0 0 0 0 0 
0 0 0 0 0 0 0 0 0 
0 0 0 0 0 0 0 0 0 
0 0 0 0 0 2 0 0 0 
0 0 0 0 0 0 0 0 0 
0 0 0 0 0 0 0 0 0 
0 0 0 0 0 0 0 0 0 
0 0 2 0 0 0 0 0 0 
0 0 0 0 0 0 0 0 0 
0 0 0 0 0 0 0 0 0 
0 0 0 0 0 0 0 0 2 
0 0 0 0 0 0 0 0 0 
0 0 0 
weighted_torsion_tz 1 120 unsigned_char
0 0 0 0 0 0 0 0 0 
0 3 0 0 0 0 0 0 0 
0 0 0 0 0 0 0 0 0 
0 0 0 0 0 0 0 0 3 
0 0 0 0 0 0 0 0 0 
0 0 3 0 0 0 0 0 0 
0 0 0 0 0 0 0 0 0 
0 0 0 0 0 0 0 0 0 
0 0 0 0 0 0 0 0 3 
0 0 0 0 0 0 0 0 0 
0 0 0 0 0 0 0 0 0 
0 3 0 0 0 0 0 0 0 
0 0 0 0 3 0 0 0 0 
0 0 0 
plain_torsion_tp_raw 1 120 unsigned_char
0 0 0 0 0 0 0 0 0 
0 0 0 0 0 0 0 0 0 
0 0 0 0 0 0 0 0 1 
0 0 0 0 0 0 0 0 0 
0 0 0 1 0 0 0 0 0 
0 0 0 0 0 0 0 0 0 
0 0 0 0 0 0 0 0 0 
0 0 0 0 0 0 0 0 0 
1 0 0 0 0 0 0 0 0 
0 0 0 0 0 0 0 0 0 
1 0 0 0 0 0 0 0 0 
0 0 0 0 0 0 0 0 0 
0 0 0 1 0 0 0 0 0 
0 1 0 
plain_torsion_tn_raw 1 120 unsigned_char
0 0 0 0 0 0 0 0 0 
0 0 0 0 0 2 0 0 0 
0 0 0 0 0 0 0 0 0 
0 0 0 0 0 0 2 0 0 
0 0 0 0 0 0 0 0 0 
0 0 0 0 0 0 0 0 0 
0 0 0 0 0 0 0 0 0 
2 0 0 0 0 0 0 0 0 
0 0 0 0 0 0 0 2 0 
0 0 0 0 0 0 0 0 0 
0 0 0 0 0 0 0 0 0 
0 0 0 0 0 2 0 0 0 
0 0 0 0 0 0 0 2 0 
0 0 0 
plain_torsion_tz_raw 1 120 unsigned_char
0 0 0 0 0 0 0 0 3 
0 0 0 0 0 0 0 0 0 
0 0 3 0 0 0 0 0 3 
0 0 0 0 0 0 0 0 0 
3 0 0 0 0 0 0 0 0 
0 0 0 0 0 0 0 0 0 
0 0 0 0 0 0 0 0 0 
0 0 0 0 0 0 0 0 0 
0 0 0 0 0 0 0 0 0 
0 0 0 0 0 0 0 0 0 
0 0 0 0 0 0 0 0 0 
0 0 0 0 0 0 0 0 0 
0 0 0 0 0 0 0 0 0 
0 0 0 
weighted_torsion_tp_raw 1 120 unsigned_char
0 0 0 0 0 0 0 0 0 
0 0 0 0 0 0 0 0 0 
0 0 0 0 0 0 0 0 0 
0 1 0 0 0 0 0 0 0 
0 0 0 0 0 0 0 1 0 
0 0 0 0 0 0 0 0 0 
0 0 0 0 0 0 0 0 0 
0 0 0 0 0 0 0 0 0 
0 0 0 0 0 1 0 0 0 
0 0 0 0 0 0 0 0 0 
0 0 0 0 0 1 0 0 0 
0 0 0 0 0 0 0 0 0 
0 0 0 0 0 0 1 0 0 
0 1 0 
weighted_torsion_tn_raw 1 120 unsigned_char
0 0 0 0 0 0 0 0 0 
0 0 0 0 0 0 0 0 2 
0 0 0 0 0 0 0 0 0 
0 0 0 0 0 0 0 0 0 
0 2 0 0 0 0 0 0 0 
0 0 0 0 0 0 0 0 0 
0 0 0 0 0 0 0 0 0 
0 0 0 0 0 2 0 0 0 
0 0 0 0 0 0 0 0 0 
0 0 0 2 0 0 0 0 0 
0 0 0 0 0 0 0 0 0 
0 0 0 0 0 0 0 0 0 
2 0 0 0 0 0 0 0 2 
0 0 0 
weighted_torsion_tz_raw 1 120 unsigned_char
0 0 0 0 0 0 0 0 0 
3 0 0 0 0 0 0 0 0 
0 0 0 0 0 3 0 0 0 
0 0 0 3 0 0 0 0 0 
0 0 0 0 3 0 0 0 0 
0 0 0 0 0 0 0 0 0 
0 0 0 0 0 0 0 0 0 
0 0 0 0 0 0 0 0 0 
0 0 0 0 0 0 0 0 0 
0 0 0 0 0 0 0 0 0 
0 0 0 0 0 0 0 0 0 
0 0 0 0 0 0 0 0 0 
0 0 0 0 0 0 0 0 0 
0 0 0 
