# vtk DataFile Version 2.0
Vessel Segment
ASCII
DATASET POLYDATA
POINTS 40 float
98.89 -100.44 79.36
99.07750821827746 -100.26914175896424 79.29641025641025
99.25849441157133 -100.10671198098417 79.23282051282051
99.43295857988166 -99.95331269913518 79.16923076923077
99.60090072320841 -99.80954594649269 79.10564102564102
99.7623208415516 -99.67601375613211 79.04205128205128
99.91721893491123 -99.55331816112881 78.97846153846153
100.06559500328731 -99.44206119455825 78.9148717948718
100.20744904667983 -99.34284488949577 78.85128205128206
100.34278106508876 -99.25627127901684 78.78769230769231
100.47126007968217 -99.18323400596775 78.72410256410257
100.58647555308305 -99.12933950336317 78.66051282051282
100.68847974510696 -99.09290395994539 78.59692307692308
100.7806172839506 -99.06911111111111 78.53333333333333
100.8662327978107 -99.05314469225712 78.46974358974359
100.94867091488393 -99.04018843878016 78.40615384615384
101.031276263367 -99.02542608607696 78.3425641025641
101.1173934714566 -99.00404136954432 78.27897435897435
101.21036716734942 -98.97121802457897 78.21538461538462
101.31354197924219 -98.92213978657765 78.15179487179488
101.43144012317582 -98.85452812758139 78.0935286614182
101.5712107419208 -98.78044879380975 78.07052040661509
101.72904235292795 -98.70185421197256 78.08296521069698
101.89958355108257 -98.61834302668622 78.12551166854915
102.07748293126993 -98.52951388256714 78.1928083750569
102.25738908837529 -98.43496542423169 78.2795039251055
102.43395061728394 -98.3342962962963 78.38024691358024
102.6018161128812 -98.22710514337733 78.48968593536641
102.75563417005233 -98.1129906100912 78.60246958534927
102.89005338368258 -97.9915513410543 78.71324645841409
103.00141556668184 -97.86278106508875 78.8201456531634
103.0919225992796 -97.72744904667981 78.92939653961349
103.16303078833651 -97.5855950032873 79.04199205426029
103.21607798513125 -97.43721893491123 79.15860112274314
103.25240204094247 -97.28232084155161 79.27989267070134
103.2733408070489 -97.12090072320841 79.40653562377427
103.28023213472918 -96.95295857988165 79.53919890760126
103.274413875262 -96.77849441157133 79.67855144782168
103.25722387992606 -96.59750821827744 79.8252621700748
103.23 -96.41 79.98
LINES 1 41
40 0 1 2 3 4 5 6 7 8 9 10 11 12 13 14 15 16 17 18 19 20 21 22 23 24 25 26 27 28 29 30 31 32 33 34 35 36 37 38 39 
POINT_DATA 40
SCALARS MaximumInscribedSphereRadius float
LOOKUP_TABLE default
1.2772
1.296794522789412
1.3137971067187801
1.3284901212836489
1.3411559359795628
1.3520769203020657
1.361535443746702
1.3698138758090164
1.377194585984553
1.3839599437688561
1.3901605319095753
1.3912875012915422
1.3866092933327951
1.377591342525897
1.3656990833634108
1.3523979503378996
1.3391533779419256
1.3274308006680515
1.3186956530088412
1.3144133694568567
1.318175029007835
1.3418306678192837
1.3829165756486859
1.4365801460443388
1.4979687725545408
1.5622298487275885
1.624510768111781
1.6799589242554156
1.7237217107067888
1.7509465210142003
1.7595610159308148
1.7543670498978214
1.736362444350789
1.7062944338239014
1.6649102528513442
1.6129571359673032
1.551182317705963
1.4803330326015087
1.401156515188126
1.3144
SCALARS m_attribute int
LOOKUP_TABLE default
2
2
2
2
2
2
2
2
2
2
2
2
2
2
2
2
2
2
2
2
2
2
2
2
2
2
2
2
2
2
2
2
2
2
2
2
2
2
2
2
