# vtk DataFile Version 2.0
Vessel Segment
ASCII
DATASET POLYDATA
POINTS 30 float
77.5 -99.51 83.08
77.51092752587523 -99.42717741604822 83.01586206896552
77.51017033440134 -99.33951207511582 82.95172413793102
77.49552222020466 -99.24769035220797 82.88758620689654
77.46477697791158 -99.15239862232974 82.82344827586206
77.41572840214849 -99.05432326048629 82.75931034482758
77.3461702875418 -98.95415064168273 82.69517241379309
77.25389642871785 -98.85256714092418 82.63103448275862
77.13670062030306 -98.7502591332158 82.56689655172414
76.99237665692378 -98.64791299356268 82.50275862068966
76.8188999138956 -98.54584225128815 82.43862068965517
76.6188215999016 -98.4396829171621 82.37448275862069
76.39815203575381 -98.32799445105033 82.3103448275862
76.16277443578193 -98.21077685295283 82.24620689655171
75.91857201431559 -98.0880301228696 82.18206896551723
75.6714279856844 -97.95975426080064 82.11793103448275
75.42722556421805 -97.82594926674594 82.05379310344827
75.19184796424618 -97.6866151407055 81.98965517241379
74.9711784000984 -97.54175188267935 81.92551724137931
74.7711000861044 -97.39135949266746 81.86137931034483
74.59114091247224 -97.22823526999876 81.80588462011563
74.41421413634953 -97.03055926852271 81.78521710607242
74.23970601500676 -96.79989913485589 81.79749559227521
74.0684990305934 -96.53968674402395 81.83860182869327
73.90147566525893 -96.25335397105252 81.90441756529584
73.73951840115275 -95.94433269096724 81.99082455205216
73.58350972042432 -95.61605477879372 82.09370453893148
73.43433210522308 -95.27195210955759 82.20893927590306
73.2928680376985 -94.91545655828448 82.33241051293615
73.16000000000001 -94.55 82.46
LINES 1 31
30 0 1 2 3 4 5 6 7 8 9 10 11 12 13 14 15 16 17 18 19 20 21 22 23 24 25 26 27 28 29 
POINT_DATA 30
SCALARS MaximumInscribedSphereRadius float
LOOKUP_TABLE default
1.55
1.5846495925417197
1.61613594960843
1.6444792334659069
1.6696996063799254
1.6918172306162613
1.7108522684406904
1.726824882118988
1.7397552339169298
1.749663486100291
1.7565588485929449
1.7603131292112564
1.7608840120887832
1.7582714972255251
1.7524755846214823
1.7434962742766547
1.7313335661910423
1.715987460364645
1.6974579567974635
1.6757450554894966
1.6508046398991347
1.6225030628562056
1.5908499261962359
1.5558662501537577
1.517573054963303
1.4759913608594037
1.4311421880765918
1.383046556849399
1.3317254874123579
1.2772
SCALARS m_attribute int
LOOKUP_TABLE default
2
2
2
2
2
2
2
2
2
2
2
2
2
2
2
2
2
2
2
2
2
2
2
2
2
2
2
2
2
2
