# vtk DataFile Version 3.0
Curve with Curvature, Torsion, Distance to V, and Extrema
ASCII
DATASET POLYDATA
POINTS 74 float
0.0 0.0 0.0
-0.4839745133927076 -0.5922859662501416 -0.13107596464157734
-1.0597792177498326 -1.1745074204479344 -0.2435706237530315
-1.6667072601248996 -1.7169507571760434 -0.35823471979007593
-2.265477442634316 -2.208703490080307 -0.5085025780834664
-2.826800872826628 -2.6438998197065793 -0.7280755140678394
-3.333675978127913 -3.026941245948297 -1.049860692331634
-3.7809999800158924 -3.3695159406636837 -1.4979477483929373
-4.176172117187521 -3.694831659514021 -2.0790633527281086
-4.520835576503005 -4.029885064215826 -2.7780566993147877
-4.79235829138044 -4.3786445537914 -3.546709292956524
-4.961203237351121 -4.7289773961688635 -4.320312009722844
-5.018667565008792 -5.079039141353206 -5.030077703862157
-4.9618231898319 -5.4533848332690305 -5.688305578892724
-4.790539737404361 -5.8566139747767405 -6.284958543679808
-4.529667551903627 -6.28681527681559 -6.789319725533973
-4.226443167144721 -6.73141393207898 -7.1804421284443585
-3.9373125833594913 -7.166890043267158 -7.44725165142952
-3.7058071474489442 -7.551900635336868 -7.585984814854919
-3.546393464514766 -7.849139798468362 -7.613152434064052
-3.443585541212945 -8.0578707364343 -7.567413711172584
-3.359709881422591 -8.226089377744023 -7.4662497897628395
-3.2735617117038642 -8.393386149408762 -7.263308177646197
-3.189677221256608 -8.562924569506466 -6.905389420588573
-3.116500304648041 -8.729085121004445 -6.3745636890411905
-3.062958541762836 -8.892178616427454 -5.7074078476449
-3.0296848150832028 -9.067073018129708 -4.96808241399447
-3.008205226498825 -9.279579281625036 -4.215889407759455
-2.99482584180894 -9.555737468129726 -3.482300932900581
-2.992664659002011 -9.913181816879462 -2.782240878723549
-3.0038978302134383 -10.357281843892897 -2.1231570851668637
-3.0272737511573786 -10.876118130779806 -1.5137773305392703
-3.060472389253381 -11.444403950596513 -0.9615428856214323
-3.0972606929456385 -12.036396420770217 -0.4732489896952079
-3.1254595561596212 -12.638193966176377 -0.046337980849260774
-3.1320637616477316 -13.254717558711075 0.3289631906703523
-3.1070614007783193 -13.891316746473246 0.665864970372376
-3.040540843907602 -14.547707162189958 0.989243585787872
-2.9214027009069317 -15.216943239471785 1.330578588207454
-2.739894210307526 -15.889330334164022 1.7157216372272297
-2.4900490337599517 -16.55269596091539 2.1489924256222066
-2.1647048522039936 -17.19205196797374 2.609499768539136
-1.7621381504273468 -17.78695924206351 3.060160559945775
-1.2803207833632868 -18.320720083585336 3.473208034245694
-0.7182786390643074 -18.781264125764363 3.8366818743171365
-0.08225422540576544 -19.159650965460344 4.153783622018819
0.6101550085755363 -19.45326411950412 4.437508572884576
1.3330047852521199 -19.668061900258166 4.704371385624019
2.0632990245057212 -19.81631960046451 4.9682531227264795
2.7888801190086325 -19.909825306444404 5.237775213429125
3.508773290570907 -19.95654968031912 5.5152778904745015
4.229536008090161 -19.959715515670375 5.800870716279204
4.957410988103764 -19.918090215722735 6.095511194222052
5.689490264018074 -19.831602569315383 6.402497210087941
6.413634393126106 -19.70754562314836 6.727558204808356
7.117309770230001 -19.562752079820964 7.077694714975976
7.7954772745653145 -19.421975034735908 7.460065618767147
8.449990105787181 -19.31336026175773 7.877411004973148
9.084709750240325 -19.264043609642343 8.324376219918815
9.702129790538043 -19.296054729134017 8.788777783330472
10.299684437114651 -19.42526458432378 9.255655798901435
10.865903821219979 -19.66090534686663 9.711667495965525
11.378094371987974 -20.00215009401287 10.147400387304833
11.80683749656832 -20.43418305394828 10.557912273913233
12.13104952074061 -20.928984715354442 10.94141048851099
12.35431577291287 -21.46039410695159 11.30204973426054
12.495139502918148 -22.01800943373508 11.649275975217614
12.575252554174485 -22.600655720730458 11.989835131839932
12.61958812917194 -23.211181529861037 12.326727396293364
12.650892688038573 -23.855546086084477 12.66102045693489
12.682168286093022 -24.535079525455544 12.991810005009873
12.722126849006465 -25.235232022327693 13.317605168251887
12.783223683449027 -25.914177265892484 13.633674278913503
12.868589518281873 -26.511138104392025 13.918125698259187
LINES 1 75
74 0 1 2 3 4 5 6 7 8 9 10 11 12 13 14 15 16 17 18 19 20 21 22 23 24 25 26 27 28 29 30 31 32 33 34 35 36 37 38 39 40 41 42 43 44 45 46 47 48 49 50 51 52 53 54 55 56 57 58 59 60 61 62 63 64 65 66 67 68 69 70 71 72 73
POINT_DATA 74
SCALARS Curvature float 1
LOOKUP_TABLE default
0.0
0.11219467612637105
0.07454314956893458
0.08687020790009271
0.15775112167555697
0.24219203046899107
0.27030785748323805
0.21013161433392838
0.13853521608122135
0.11678883856726481
0.13484648524536538
0.1737813821992451
0.21413332548241223
0.23793336569388485
0.2514564482359353
0.2558025008076538
0.29294019994279974
0.4368117661792183
0.7228578225605664
0.9279667090479816
0.9114830204072912
0.717230860621125
0.4110024929092192
0.19914757577849107
0.09714054757703151
0.0414690824678401
0.057137712190065595
0.1079900881283809
0.14204322645162878
0.15029851955599516
0.1393319858318535
0.12040179037173557
0.10897703188260599
0.10279738383887049
0.10710563079323751
0.10288336702840263
0.08384547828974642
0.08610485645542267
0.10397438403014105
0.10789776989403735
0.10936544450266454
0.12402366643998139
0.15329322976938825
0.17850836525198324
0.18284626855014777
0.16408007053822846
0.13383425646283692
0.10632004212690788
0.08942783782937556
0.07934993638981172
0.07334449787485715
0.071951360243889
0.07004598760197708
0.06500917868277792
0.05989422471773444
0.06493774755254678
0.08570308642007846
0.11373211711783354
0.14114168115568293
0.16610403256176387
0.18850663053051134
0.20852339269504333
0.2287460863407622
0.24344755688073638
0.23050487894932808
0.19149113045420404
0.13999845668447516
0.08320546510291567
0.04330959840909512
0.032473354503784524
0.025686665556439805
0.04065371385429731
0.08062607339671793
0.0
SCALARS Torsion float 1
LOOKUP_TABLE default
0.0
0.0
0.6266702987758747
0.7086712186901425
0.33554434752906453
0.17878619950598634
0.11452385642944062
0.1477657248476794
0.30761674197091804
0.29300055171305833
0.1768501548219843
0.2962105391697768
0.14309878481371432
0.0794367894104506
0.24515975430529804
0.3703356505970082
0.5156935122380386
0.36511531058846974
-0.017874314444056516
-0.3953124863414627
-0.7015444070577538
-0.04060249025290863
0.15218099477924446
0.0998230892838097
0.3179144422015354
0.9125333523585925
0.7004314084217381
0.15877658074033774
-0.003134840196540839
-0.013307960069162524
0.0052042114588745775
-0.004699119497097069
0.08547858631464367
0.3041496218405666
0.3398233334864602
0.3284920808415307
0.6172251840655715
0.6364567803326526
0.3303607843980305
0.0532941793646724
-0.21018946634791058
-0.26990987866098926
-0.14755621464944102
-0.0266332921986131
0.08389708457243567
0.17806197818690764
0.28257018933236994
0.355262693044307
0.3144513484501189
0.11048632140450595
-0.05139682789621686
-0.04445496870131575
0.11196515846838327
0.3347888541472145
0.5549081924263588
0.6237005269214945
0.48372101591347794
0.349459502067326
0.25504592890188116
0.163745439663599
0.05394936526660257
-0.06420959255616751
-0.16268458321943605
-0.20022035832660184
-0.17896160198954353
-0.12676139696807504
-0.0031396840255642766
0.3046384467973159
0.8091644679101794
0.7288606108307372
0.7100369467296354
0.6464055727212354
0.17142819064171616
0.0
SCALARS Distance_to_V float 1
LOOKUP_TABLE default
0.0
0.7396757959646871
1.5409395991422776
2.347609721057687
3.1305146254904446
3.871371478393994
4.570700847645179
5.246276485099629
5.932537059957979
6.655935559209972
7.39556474346959
8.101853197453783
8.734147994644118
9.312016137565239
9.834346545436397
10.293457631769408
10.685751469028132
11.005886415012004
11.235528490313678
11.364040904253699
11.410469204329091
11.400182052138257
11.313717972639486
11.116675555663909
10.799793517862206
10.40016673731024
9.980355584892928
9.598815102051466
9.293098127112943
9.085445797111998
8.983617082636975
8.981623879023836
9.062141785950024
9.203349148774583
9.381508910410759
9.580638897000041
9.78712909133599
9.981387124197706
10.138288225280222
10.235350938623082
10.259890505581557
10.20548773590529
10.071709683912333
9.85649003031899
9.556575600184132
9.172184405950027
8.71309218335975
8.19836181187872
7.647903322680112
7.074138807256988
6.481485760297564
5.867987453398207
5.230246148381497
4.571651696639216
3.9049001279388125
3.2477727339634543
2.6199213678858824
2.049311556150049
1.586276966218325
1.3108981354470468
1.2816787435283905
1.4327185217058067
1.628633183944945
1.7721772567586358
1.8207380459626383
1.7737086016112489
1.6460663189721978
1.4557294580730968
1.2233863841009682
0.9667738856209932
0.6965614639761983
0.4261627230429391
0.18427009360585736
0.0
SCALARS Local_Extrema int 1
LOOKUP_TABLE default
0
0
0
0
0
0
0
0
0
0
0
0
0
0
0
0
0
0
0
0
1
0
0
0
0
0
0
0
0
0
0
-1
0
0
0
0
0
0
0
0
1
0
0
0
0
0
0
0
0
0
0
0
0
0
0
0
0
0
0
0
-1
0
0
0
1
0
0
0
0
0
0
0
0
0
