# vtk DataFile Version 3.0
Curve with Curvature, Torsion, Distance to V, and Extrema
ASCII
DATASET POLYDATA
POINTS 74 float
0.0 0.0 0.0
-0.5037843169149467 -0.6215099955221497 -0.14369669229552273
-1.1022852126460005 -1.2291781422952308 -0.2630403135596382
-1.7324798393477563 -1.7936220625734798 -0.38167837954632966
-2.35359273165592 -2.304640210773078 -0.5370727712338137
-2.935423674337003 -2.756929936559006 -0.7660382618123946
-3.4618007487992393 -3.1562717517900722 -1.104798921318663
-3.928399097565039 -3.515185459281575 -1.5833547236875247
-4.341180551564538 -3.8556823880598152 -2.2083619543181516
-4.702297079499896 -4.206021254979682 -2.959991258679133
-4.987018001454581 -4.56919787780325 -3.784010253898482
-5.16390377311876 -4.9316177852634855 -4.610401288504341
-5.223730253298148 -5.291382593643148 -5.365292976355589
-5.1636537319731115 -5.674653340952081 -6.062516046285819
-4.984268014320488 -6.086161606996944 -6.692087455951663
-4.711339834463946 -6.52469999646144 -7.2228653904211235
-4.393589490288079 -6.978545392487776 -7.6360492149835455
-4.089496138115404 -7.424910615119064 -7.924010393756916
-3.843200820799216 -7.82431262627185 -8.085492149511158
-3.6702380732227895 -8.13989768934671 -8.13385030124156
-3.558034343061862 -8.365701902773036 -8.103112114910946
-3.467919351148718 -8.547714986764714 -8.013912316170442
-3.376857500152862 -8.72764894926921 -7.8226409632416765
-3.2898070596579863 -8.909451408827724 -7.4737023218898155
-3.216960409362254 -9.084623988252062 -6.942968065393201
-3.169410050763601 -9.24789797738033 -6.265862046661899
-3.148126366228127 -9.409964624778759 -5.511707633176818
-3.142420656759818 -9.596300693771532 -4.747981873647857
-3.1464110728363592 -9.834868178264156 -4.008045063252768
-3.1616332702066026 -10.144922089561032 -3.3042201877718806
-3.188950736482162 -10.53299604147124 -2.6407476934465572
-3.2262194908302404 -10.989175729760971 -2.0229131040280173
-3.270069581588951 -11.493501135545253 -1.4550220128066134
-3.3132068635612906 -12.027200632728603 -0.9437093676794877
-3.343154999024988 -12.581046073776424 -0.4896345611083792
-3.347525395747892 -13.160780111860284 -0.0874701237515989
-3.3173605577096708 -13.771926125282134 0.27181434301515917
-3.2445478298962986 -14.414085078354187 0.6092816473436304
-3.1203373547940347 -15.078266449439253 0.9544191948857009
-2.936869154455407 -15.751860090003388 1.3328543922171825
-2.690331486308713 -16.420198167841377 1.74837971994136
-2.3772225464622925 -17.06563413498923 2.182303762306958
-1.994067817378542 -17.669937813796132 2.606428418499043
-1.5362754527461941 -18.21764258749905 2.997869964275715
-1.0012960377232156 -18.696399779870355 3.3463042152350937
-0.394094628103955 -19.09665089973617 3.654964040763069
0.26946016534605255 -19.415197721763462 3.9360893079558794
0.9658507519793695 -19.657202427255694 4.205242476705002
1.6747170055514777 -19.833256995657003 4.474801207351631
2.385591633113459 -19.9539527270262 4.750633478114591
3.0986265882048287 -20.0267936577906 5.03364052437319
3.821225268820074 -20.05394744010345 5.324055839936478
4.559673059363556 -20.032391787363927 5.623588652528706
5.309754377879038 -19.960148728697032 5.936235501207797
6.05682951399436 -19.843652356992823 6.268113590914507
6.786022050980826 -19.700555302602776 6.626415996917279
7.490982634697746 -19.55764942849911 7.018488007020274
8.173085820270485 -19.445350082739516 7.44711637212729
8.836211699639746 -19.392459476722617 7.906655822561741
9.48302197904197 -19.42174799961 8.384235141392908
10.110879940907115 -19.549119741225216 8.864016133532392
10.707679862878809 -19.783368504649417 9.331945417859629
11.249381752858556 -20.122747079482327 9.778213778106569
11.70514461200319 -20.551048166034324 10.197727413403756
12.053542053998887 -21.039002714358393 10.588713437609199
12.299263946478716 -21.560152010797324 10.955618548598714
12.46223252449537 -22.105029680677244 11.308524197565513
12.564580116208 -22.674750860769123 11.655159458335525
12.630254990194423 -23.27548897238897 11.999550605898703
12.680614127087676 -23.916669160910537 12.343363514602421
12.727749399336913 -24.60204313775764 12.685829153337714
12.780510847592208 -25.316599414202514 13.02510364560431
12.852466950085757 -26.015887658231474 13.35615355805743
12.947556377364112 -26.635676809443588 13.656799610823583
LINES 1 75
74 0 1 2 3 4 5 6 7 8 9 10 11 12 13 14 15 16 17 18 19 20 21 22 23 24 25 26 27 28 29 30 31 32 33 34 35 36 37 38 39 40 41 42 43 44 45 46 47 48 49 50 51 52 53 54 55 56 57 58 59 60 61 62 63 64 65 66 67 68 69 70 71 72 73
POINT_DATA 74
SCALARS Curvature float 1
LOOKUP_TABLE default
0.0
0.11217143617859206
0.07296104341824532
0.08387264700490027
0.15468186840523054
0.23622997391355371
0.2613206727904294
0.19987720462588962
0.1274084033959309
0.10718144183198242
0.12493340251347998
0.16301067703880676
0.20400261166130954
0.22915488040326856
0.24505907128614268
0.2468875055938669
0.27121208062795726
0.3843814680132372
0.6425957637801336
0.8928832115850213
0.903072454788181
0.7494231892112998
0.4515740626997334
0.22542767148321036
0.11752631048772387
0.05574371153128229
0.042787939711129735
0.09539431772097393
0.1356627573683975
0.1485454788219717
0.13860773386077488
0.11951594673021558
0.11114716983271693
0.11307403020174764
0.12553283866811948
0.12451834049043539
0.09913921047158422
0.08153962772519115
0.0908362193944342
0.0958213467493978
0.10039856117396972
0.11764928381100219
0.14753457810237652
0.1737207048882391
0.1804028902615599
0.1642490815241105
0.13574146348245156
0.11014160094311201
0.09295707330919097
0.08138961767108965
0.07591001464916737
0.0758054436648422
0.07450215810704239
0.06884750273061847
0.060960142616630054
0.06145501161389024
0.07950525529552258
0.10603974939654055
0.13162913996956502
0.15469175144556072
0.1758066708670157
0.19579096135870783
0.21767985155796504
0.2358031191923423
0.22701806238403682
0.19143165865393794
0.14237515371747217
0.08791465636564616
0.04967068022463597
0.0368042662296595
0.025290454741102763
0.03432963287058792
0.07283584046260967
0.0
SCALARS Torsion float 1
LOOKUP_TABLE default
0.0
0.0
0.6149998206245864
0.7172198145537546
0.32647312153742386
0.1681599544686012
0.10207740403842008
0.127589550728663
0.29576438629327406
0.27757073136606186
0.1618052080541411
0.28180548184756465
0.13960236501370013
0.07546437754754315
0.23207465440704933
0.3516527685728175
0.5182979929278312
0.39327487029927277
0.012522395924906282
-0.34501968665715016
-0.6982993330964341
-0.083426626333029
0.14587077246339578
0.08014367851752781
0.21575964893436023
0.6721854031193136
0.9204120914905592
0.258229195527664
0.02533796715260625
0.0026489807271595674
0.01680985294722402
0.02285392182411286
0.13560114139567725
0.30124447004285726
0.26033030698734216
0.21759187069974548
0.45748306705629627
0.6974844911300334
0.46054650212668663
0.1070213502866027
-0.17011331102300653
-0.22681196922839222
-0.13365148797488466
-0.01946544175249279
0.09032938759280743
0.18316136989497903
0.2856168184587644
0.33094295760685244
0.2354385703226166
0.04487170164849724
-0.06658559454955748
-0.024024305887844412
0.1206329520975912
0.3113798106591356
0.5322396364178876
0.6491901036130092
0.5078240882579225
0.35386608245757767
0.2543709959107882
0.16381214119272525
0.05382816500712122
-0.0661333406090041
-0.16608682915798695
-0.2038579082387863
-0.18207102545018203
-0.12651342190787476
0.0029848024086939207
0.29579846105882934
0.7161287797223265
0.6206206550340307
0.6890636215060734
0.73716208747559
0.20762438053346488
0.0
SCALARS Distance_to_V float 1
LOOKUP_TABLE default
0.0
0.7742771190390411
1.608429676415838
2.4460670436596375
3.258304793520015
4.02718684122938
4.7558299211390445
5.465856079942764
6.191786406395989
6.961009644097022
7.7484616807297915
8.49943201562753
9.16910329605665
9.778394771916185
10.326295969826498
10.805092123736435
11.213339989479104
11.549183288949795
11.797405536486375
11.945814172800777
12.008231248401792
12.010709986264832
11.935674526312738
11.746793246344724
11.428844596403026
11.01612040769218
10.57361531148201
10.16521094703174
9.830051420153332
9.588941498091083
9.448064249629041
9.401021393081
9.432338020231143
9.524279504840438
9.657162878011782
9.81722817791153
9.99251480936247
10.165209539502756
10.310783206897307
10.406138649233158
10.438778675151244
10.402848269931681
10.295078419894205
10.110883946203048
9.845280955620657
9.496940991822317
9.073722283299388
8.592134423337145
8.069328569136031
7.516820255124909
6.938700352535141
6.331936285325608
5.6917998292354905
5.021012191103532
4.332777366729766
3.64568037224787
2.9789215660954915
2.35686062731117
1.820302024186351
1.4373800154554481
1.286170625053544
1.3565185893277003
1.5223961815656257
1.6634421898295066
1.7214569988221142
1.6896172349032175
1.5806466910069492
1.4106058411933782
1.1974597206656283
0.956164382135913
0.6955035009184882
0.4289461639448119
0.18676318811593307
0.0
SCALARS Local_Extrema int 1
LOOKUP_TABLE default
0
0
0
0
0
0
0
0
0
0
0
0
0
0
0
0
0
0
0
0
0
1
0
0
0
0
0
0
0
0
0
-1
0
0
0
0
0
0
0
0
1
0
0
0
0
0
0
0
0
0
0
0
0
0
0
0
0
0
0
0
-1
0
0
0
1
0
0
0
0
0
0
0
0
0
