# vtk DataFile Version 3.0
Curve with Curvature, Torsion, Distance to V, and Extrema
ASCII
DATASET POLYDATA
POINTS 74 float
0.0 0.0 0.0
-0.5619743361552506 -0.7098938431174098 -0.17833175022264347
-1.2260774517994966 -1.3917140622566055 -0.312708171301081
-1.9229552510926613 -2.0188671228916846 -0.4368394712962671
-2.607811120168264 -2.5846500930076584 -0.6013362012314419
-3.24813981683887 -3.0863984297695275 -0.8529438215039556
-3.8311527295568384 -3.535084295113645 -1.2386098799653884
-4.355596252805515 -3.946630349389242 -1.8090924590933661
-4.822212926968627 -4.3380090011205965 -2.571319239037783
-5.234667368526767 -4.740430083719032 -3.488258139433076
-5.561503288399424 -5.15283100077618 -4.48547457235221
-5.765226952323818 -5.556329782867108 -5.4762732680051025
-5.834691478922503 -5.94845841910014 -6.370656941442296
-5.767331417343124 -6.3606681848482856 -7.187187643537068
-5.566214610548554 -6.798038753706962 -7.916189034727501
-5.259717727484903 -7.261420443531968 -8.52556574461551
-4.9005149237698875 -7.742186853645273 -9.004652540660093
-4.552285412736302 -8.221224144437985 -9.358569694822043
-4.2591225034448215 -8.667916802001775 -9.596320005795462
-4.039001532709195 -9.049910800183689 -9.720727931101749
-3.8915707083979587 -9.341898665779636 -9.74440202126381
-3.7769740013708244 -9.578524740375556 -9.694295910617916
-3.667669070059615 -9.803690538536916 -9.536645111068506
-3.56995813748029 -10.023320669115893 -9.215594079150756
-3.4981111658012614 -10.22280912939188 -8.691168894210582
-3.4699699874042382 -10.380247385775519 -7.992954840764194
-3.4878527414172487 -10.493389416532517 -7.202890267056249
-3.5334018620060412 -10.588941322371813 -6.411516972995703
-3.5931411344548083 -10.703686538238612 -5.656780564797527
-3.6635561392181106 -10.863569716742466 -4.943017587744428
-3.7416876778786747 -11.079353498031956 -4.265673628990485
-3.823155033476956 -11.34679597253832 -3.6201133195423325
-3.901857003281793 -11.659652703482603 -3.001367258469988
-3.9670307819452937 -12.017214936456764 -2.4163901120753977
-4.004581973952501 -12.422462245111474 -1.8769967404277645
-4.003796915314603 -12.883065038889278 -1.3925193176738286
-3.959368755093494 -13.405000297509462 -0.9664492156419876
-3.869228673425118 -13.98901274222926 -0.5885665284865437
-3.7322159310672536 -14.62322385483255 -0.23520347399182961
-3.5462684193125185 -15.288916772861004 0.11883113602981743
-3.3135999010558734 -15.965379048423268 0.47694182597562407
-3.041129525704218 -16.626397426001155 0.828744476744507
-2.7200771649542492 -17.25876402874542 1.1724175348412231
-2.3383497821047006 -17.84996445768665 1.4993155930924775
-1.888542275873863 -18.386148286795382 1.8039897294897012
-1.371458940936578 -18.855194138279078 2.089607713065694
-0.7976449666516824 -19.251740959689172 2.3657813325416943
-0.18351671288252636 -19.578619621564897 2.6449454964237815
0.4578179465493896 -19.841476428781302 2.9345768770618896
1.1205897391899269 -20.047567545156618 3.2317318710122063
1.8086248653136048 -20.20339198461342 3.532701329137254
2.5322638508166477 -20.308008977295945 3.8378439537953093
3.298203608029025 -20.352576734185906 4.150866772643057
4.098408584680063 -20.32854955741492 4.477709278720295
4.910717350404808 -20.238960321404537 4.8257219563465865
5.713289946830416 -20.103506514062644 5.2029823543887845
6.495993875704589 -19.95505349003331 5.617836917564017
7.2588436038725535 -19.830940108342084 6.073653111606759
8.005805248978078 -19.765011977213167 6.564252946876845
8.740076658479916 -19.782137709985534 7.0748915874274125
9.458864031812137 -19.89811814160218 7.587247165671552
10.148183114139073 -20.120328763389985 8.085381755422377
10.77980251973341 -20.4444489249979 8.55859319225679
11.31828780791762 -20.850644693318404 9.001479252927066
11.740868512815638 -21.306694219245237 9.412193376759731
12.05535732734196 -21.785815424600578 9.795716377704453
12.28595079788031 -22.281339545943204 10.1637454060692
12.456274562814356 -22.800774142388327 10.526896204494271
12.587753904794303 -23.359691782167793 10.892452840953124
12.69777318734252 -23.977943979088586 11.26430681250317
12.795426991395335 -24.66755004430741 11.642611388514428
12.88942080827698 -25.413372710407295 12.024572159903903
12.996354390510982 -26.163965467916086 12.404010160273106
13.122564831403844 -26.845291193373402 12.757838123070147
LINES 1 75
74 0 1 2 3 4 5 6 7 8 9 10 11 12 13 14 15 16 17 18 19 20 21 22 23 24 25 26 27 28 29 30 31 32 33 34 35 36 37 38 39 40 41 42 43 44 45 46 47 48 49 50 51 52 53 54 55 56 57 58 59 60 61 62 63 64 65 66 67 68 69 70 71 72 73
POINT_DATA 74
SCALARS Curvature float 1
LOOKUP_TABLE default
0.0
0.11388930262963219
0.07048179792172142
0.07660178892226346
0.14747817840107885
0.22096000364908822
0.23629050264482046
0.17249545817535097
0.10014537670576332
0.08375491876128957
0.10028695320816089
0.1352508615343963
0.17707431288086597
0.20547389825414863
0.22794713553175702
0.22344755864787202
0.21450909184521483
0.2505521110345627
0.40234634861331525
0.710168553892051
0.8280117294421862
0.8064680035449304
0.5780233983102259
0.3124000826271536
0.18059252959375227
0.11245566798354899
0.05141036523743171
0.050543846453376756
0.10095137558393329
0.1264673363777761
0.12074950783797105
0.10777072697909501
0.12009987804812328
0.1540635531182508
0.1919908218580379
0.2039886826752603
0.17155079504799223
0.11117844297413092
0.07147613422895784
0.0646048118299592
0.06779227055472355
0.09085542052042912
0.1234750326618161
0.1532591030055397
0.16867485667946222
0.16294294103877385
0.14221171341842503
0.1237274769248285
0.10629010897267088
0.09261026882645138
0.08929307932619523
0.09125718575059491
0.09008440205093048
0.08213365564670665
0.06730836063961312
0.054991042819637036
0.064021850709999
0.08647236103382493
0.10747500675450901
0.12558074254129253
0.14276695359336
0.16123288939191666
0.18546051080386636
0.21102224240543963
0.2133171703307607
0.18886583156317313
0.14982682433287178
0.10505561944900106
0.07251274041084485
0.05590876958291391
0.03411709386195145
0.01836088143144419
0.05322170374259287
0.0
SCALARS Torsion float 1
LOOKUP_TABLE default
0.0
0.0
0.5683583756529804
0.7421385414458055
0.30369723926691256
0.1423493892078137
0.07401131324337938
0.0803264980611024
0.2595237566701193
0.23582118790283868
0.12394987789415249
0.24503297213928293
0.13207850635918864
0.06595030244743649
0.19932797402322278
0.3035796186887875
0.5331470524940739
0.5008943124408936
0.09430630055366218
-0.24164691993733725
-0.671955191542191
-0.19141257177129833
0.13288924934009536
0.049558268074152256
0.08966149991564032
0.15586077338477658
0.7301139897988518
0.894352367568761
0.24406565423913607
0.10798551108507892
0.09972297561407178
0.17733455144861
0.2285650684773281
0.18522950803438798
0.07432986119719576
0.025579401588223485
0.08546658136303915
0.3821503473424233
0.7185575106300505
0.3679589013222825
0.08785527143649274
0.07076849451760268
-0.04768216291985551
0.011887465515204289
0.10640076748513252
0.1848112460499166
0.269334272632331
0.22391010175700518
-0.01305481495862032
-0.13326272585594345
-0.07254719995710993
0.0416454468753366
0.1454875343717959
0.26023193402596856
0.4452618742030854
0.6888076643351496
0.5891227208820404
0.3735930689055913
0.2563700741563226
0.1670916538780897
0.054832829655209
-0.07340935598660733
-0.1807090956285694
-0.22028941741261285
-0.19640635538962847
-0.12663502053938336
0.026091138886123633
0.2736706580906708
0.4742509363151496
0.33026797059997515
0.3629816884631718
0.9739942907709893
0.2995124579333579
0.0
SCALARS Distance_to_V float 1
LOOKUP_TABLE default
0.0
0.8762005161013419
1.8041580653587455
2.728764858095255
3.623076436094278
4.470769267420139
5.284096768768132
6.098661550004283
6.94914677481695
7.864732075174633
8.805620989365064
9.699878914491258
10.488556781628963
11.196654090356372
11.823465796949554
12.3612148010091
12.816492827175939
13.200673868546806
13.511534434269713
13.732781694848361
13.85579537215876
13.904149619619517
13.865434732688122
13.702631846612944
13.385330445233791
12.93765690687249
12.430011380673683
11.943010130393127
11.521047296704795
11.180769629994163
10.923821358169839
10.741861889622243
10.623315190540888
10.56184402663455
10.550601813754044
10.58393688699285
10.655738454845306
10.754669183875524
10.859871731278394
10.94760016319194
11.00594514311916
11.02918228009246
11.003845324282485
10.917125327095349
10.758158673546019
10.520433113701118
10.206148207419153
9.824867608154731
9.38664242290301
8.901201247143176
8.371723204824905
7.791686822045965
7.152156218672664
6.453889789815447
5.7121779810159845
4.9494313368388205
4.186742754142333
3.445312959061708
2.7526238461500707
2.1481861323234006
1.6899643221105718
1.43960433244194
1.3923515478250093
1.4428454934023112
1.4837074206940082
1.4717523430869461
1.4028363422693608
1.283316537949288
1.1216343533668558
0.9238911996189358
0.6922967319725046
0.4387843937492084
0.19630676380656012
0.0
SCALARS Local_Extrema int 1
LOOKUP_TABLE default
0
0
0
0
0
0
0
0
0
0
0
0
0
0
0
0
0
0
0
0
0
1
0
0
0
0
0
0
0
0
0
0
0
0
-1
0
0
0
0
0
0
1
0
0
0
0
0
0
0
0
0
0
0
0
0
0
0
0
0
0
0
0
-1
0
1
0
0
0
0
0
0
0
0
0
