# vtk DataFile Version 3.0
Curve with Curvature, Torsion, Distance to V, and Extrema
ASCII
DATASET POLYDATA
POINTS 74 float
0.0 0.0 0.0
-0.6253251600275153 -0.8217310622245595 -0.21474737467276794
-1.3582935089195476 -1.590175427883656 -0.3558653070415023
-2.1237936945892217 -2.286913728909404 -0.47269634634508595
-2.873584016111205 -2.913081603796547 -0.63442519540186
-3.57363767892109 -3.4715979109264197 -0.9012554208005384
-4.2177285491917385 -3.982554642165681 -1.3350868305023016
-4.810419913684511 -4.469018160095967 -2.0203045806880127
-5.343510247096944 -4.937803536963495 -2.9661305120270334
-5.822283726537449 -5.420937900485804 -4.105832702975825
-6.205818723723842 -5.908890924163211 -5.334748870832012
-6.448314710684327 -6.37377576425589 -6.544040754253658
-6.5351730510207355 -6.811447001918478 -7.62177678656466
-6.464033227944972 -7.261154806963172 -8.592673014912954
-6.241726895720302 -7.728462876581708 -9.447788273774659
-5.899387376695365 -8.217061097830065 -10.154601208973606
-5.493324527748359 -8.724263457145145 -10.716873722733354
-5.091305955444161 -9.240213144854494 -11.161924975816074
-4.7324177188593675 -9.75468453200503 -11.519661605944329
-4.435313241874427 -10.249827815895204 -11.779080638303352
-4.223792420656091 -10.667206547172409 -11.90616899971743
-4.06092311524321 -11.014011783903975 -11.926033761797324
-3.9161976424967455 -11.324334838924432 -11.81475079716795
-3.800694104900407 -11.599845591656113 -11.532232274867344
-3.729706192383908 -11.82633697763652 -11.03232910723948
-3.7286103300115614 -11.964942686618269 -10.33349487032871
-3.8029233510309832 -11.996069044982049 -9.524966708182713
-3.923692307896874 -11.950558887945073 -8.72029343661281
-4.066123395117786 -11.880633944880906 -7.958752842366313
-4.219427663157168 -11.823671975561034 -7.232880930566373
-4.375249706473068 -11.797956634106868 -6.527997009517031
-4.526621498434515 -11.80563639624692 -5.827205231338166
-4.6631744676831675 -11.854291322674229 -5.115599205948685
-4.766628690995028 -11.965187149632913 -4.4070641156788835
-4.818423330939709 -12.15817268906155 -3.7370637853412916
-4.8112914583283946 -12.442929228186108 -3.140230250057841
-4.748157650625703 -12.82208225943066 -2.635517288264114
-4.637464719047531 -13.29660498956218 -2.220111309267363
-4.488282478197028 -13.857280893348827 -1.8719999627479131
-4.305321995239006 -14.48552659055255 -1.5646388767803714
-4.097210612573068 -15.158760542899257 -1.2931707829146832
-3.8831915891020983 -15.839951722416707 -1.0545979930798821
-3.6484008867078743 -16.516238220869308 -0.8180290838821851
-3.3718432557319957 -17.175498605416163 -0.5743708797131699
-3.0392943047855723 -17.79978646510759 -0.32224956596652243
-2.64487892742452 -18.37183719094647 -0.058555099767956253
-2.191648664378355 -18.882356023177625 0.22202720543547927
-1.6875552925054804 -19.33105243337817 0.526827907090198
-1.1383311825741513 -19.71671570694265 0.8550722465291525
-0.544999057340195 -20.04278836394613 1.1901270099392063
0.10116931852164644 -20.31591700297743 1.521409999354442
0.8147370599769749 -20.531654857731322 1.8488638659796344
1.6032014301574171 -20.672976580167386 2.178139349992538
2.453774311012291 -20.721499652963217 2.517242315152038
3.3349911658559646 -20.67461682222647 2.875232884534938
4.2169139981256025 -20.553998980986414 3.2620770023897157
5.085520715031313 -20.40004886064939 3.688493531271713
5.939664424375737 -20.25884720705552 4.159679803846446
6.7837172746994865 -20.17039734869787 4.669608404420843
7.621767311278871 -20.161668756126147 5.201609592790083
8.451112934526627 -20.24768127725035 5.734591237641375
9.25573367432512 -20.433713966960845 6.2508948389382875
10.002100930503492 -20.712800038081806 6.739608988401632
10.64850351287502 -21.062309987775826 7.195675727237041
11.169730165592142 -21.448858083819342 7.61731925010885
11.576701315462442 -21.847079791142683 8.009670935964152
11.898475342439902 -22.253862622483673 8.385685433601395
12.160607758415154 -22.68317989290714 8.759036503799528
12.381909329811613 -23.160148577747172 9.1409679854637
12.575375459938495 -23.716810483166956 9.539031843039847
12.746255955806912 -24.377489331332185 9.956263904206882
12.902003693900582 -25.13023191042454 10.389588648267075
13.062013001392044 -25.917512218119178 10.831280876758996
13.235137230281572 -26.654798686634443 11.257471404276089
LINES 1 75
74 0 1 2 3 4 5 6 7 8 9 10 11 12 13 14 15 16 17 18 19 20 21 22 23 24 25 26 27 28 29 30 31 32 33 34 35 36 37 38 39 40 41 42 43 44 45 46 47 48 49 50 51 52 53 54 55 56 57 58 59 60 61 62 63 64 65 66 67 68 69 70 71 72 73
POINT_DATA 74
SCALARS Curvature float 1
LOOKUP_TABLE default
0.0
0.12010901016374294
0.07169459697919503
0.07071662048756451
0.1430653285891795
0.20752259083484423
0.2093415271149964
0.1443177643664112
0.07518234175234928
0.0624512694400939
0.07727649331038737
0.1078980530498821
0.1493186866886146
0.18064137058845217
0.21083094756692394
0.20015137845805123
0.15806144817089407
0.13694174406977458
0.20194378874867897
0.42812002530608967
0.6070342391846113
0.7854037294215329
0.7238918276675592
0.4543773753255157
0.27498900854842506
0.19351404861433472
0.13379721606428432
0.0665202182038447
0.03756835376980373
0.05992515984239901
0.06531919019013945
0.08254995146716176
0.13355035814187022
0.207225237005093
0.2861789427223726
0.34073189720137187
0.32324352388792776
0.22893792888599532
0.13277709147785272
0.0921904398402207
0.06048445050714208
0.03760757902957316
0.07972251340044421
0.11745842574553153
0.14689581302399748
0.1579595797912697
0.15081691132767497
0.1427997439344979
0.12807501068052776
0.11746041214245229
0.11688667892859725
0.11818072930443431
0.11475139324253451
0.10298863537855885
0.08078285076105936
0.054479637558646814
0.04960656851435743
0.06711460815594773
0.08374275428277739
0.09684211573238655
0.10906985714357711
0.1232357024345915
0.14535309007797417
0.1739347818244696
0.18600836920543787
0.17708457270228084
0.1587789973367646
0.1357811438728868
0.11328284811894002
0.09088258418197794
0.05660532571217846
0.011616670866504024
0.03411965485228323
0.0
SCALARS Torsion float 1
LOOKUP_TABLE default
0.0
0.0
0.4974792385090954
0.7787482538133155
0.28460310544012196
0.11946534508862838
0.05108412187291665
0.03977698395670046
0.2144690499607236
0.19120470644438856
0.08767887866398417
0.20998340223291076
0.12839055940337193
0.05800441224551957
0.16900800153889925
0.25785358699192107
0.5737667225053819
0.6775101255322539
0.11286260597182263
-0.20869083188249257
-0.5884064723217577
-0.2628502019160303
0.12684916494471893
0.041657849484706466
0.050678270436180735
0.03486650967694736
0.035338447802973655
0.6266399072057586
0.9865155884125257
0.5869574959612571
0.396575493764965
0.29006874468849875
0.06880801306674189
0.0013836052897499007
-0.04886362164391641
-0.07540479759251129
-0.08849897405934125
-0.03952383874014681
0.13586725136209588
0.028879418533200016
-0.21795777666988828
0.9694459644062655
0.173391056640554
0.026532080556758042
0.06959280488676942
0.11383418732360459
0.1647000873177813
0.03683980978889473
-0.2665145641191232
-0.2548976953895908
-0.038449309603718757
0.10070186786315241
0.16291085505949468
0.21983797826633866
0.3404200329214592
0.65532108580972
0.7123705770513136
0.42082229174021296
0.2707310491509819
0.1806406096094163
0.06068245367702657
-0.08795117544069683
-0.21543031636136306
-0.2610010271106404
-0.23205082474110772
-0.12639482553092166
0.07390364104525435
0.2553437646069771
0.29936927418080034
0.168932602070993
0.11677560588204107
0.9909558812930167
0.3343743311771802
0.0
SCALARS Distance_to_V float 1
LOOKUP_TABLE default
0.0
0.9941216100141185
2.0221494088120044
3.0356936584517453
4.013029100036395
4.941537807517081
5.848197937886401
6.79242126017083
7.809338792285967
8.927423292614865
10.082420529874634
11.176464770936375
12.128934184004363
12.969844875195914
13.698994264623876
14.30867973082691
14.819696572474335
15.267281736325497
15.675649139686952
16.026594081287524
16.2660641064222
16.40184656246246
16.420750302387727
16.29539657419889
15.98938489289765
15.5127839712777
14.936792816483596
14.360688228206314
13.833688408511197
13.36636749961859
12.95539138035216
12.588610148834519
12.25698371530416
11.970703618574314
11.745697626961531
11.59219032321042
11.512024203731817
11.50058312096653
11.542899610399612
11.61723913121201
11.71395074366064
11.824967946003087
11.91916661321074
11.970839720227364
11.959395105134218
11.870029292306137
11.697824203471196
11.44532024597746
11.116380536157381
10.721126434434932
10.262287793469627
9.728541313894036
9.10510029510899
8.390014974946427
7.601443757874018
6.767303672757895
5.912942784575443
5.060959276712294
4.235197502176631
3.463475494266188
2.781502961363597
2.2324544177793073
1.851315531734525
1.6287707904974016
1.503781201545601
1.413032119731276
1.3215062748888013
1.2135990166428885
1.081007165077759
0.9164622764784011
0.7110776677954264
0.46948799420057996
0.2210064180636329
0.0
SCALARS Local_Extrema int 1
LOOKUP_TABLE default
0
0
0
0
0
0
0
0
0
0
0
0
0
0
0
0
0
0
0
0
0
0
1
0
0
0
0
0
0
0
0
0
0
0
0
0
0
-1
0
0
0
0
0
1
0
0
0
0
0
0
0
0
0
0
0
0
0
0
0
0
0
0
0
0
0
0
0
0
0
0
0
0
0
0
