# vtk DataFile Version 3.0
Curve with Curvature, Torsion, Distance to V, and Extrema
ASCII
DATASET POLYDATA
POINTS 74 float
0.0 0.0 0.0
-0.5967977108552258 -0.7672964398361515 -0.19785149193517126
-1.2991897329990658 -1.4946683483578234 -0.33723200775481804
-2.034464722499239 -2.1590057923575348 -0.45946614897760674
-2.7557690984415872 -2.757126374675213 -0.6244484054511514
-3.429578396065864 -3.2889153173425996 -0.8857335665048123
-4.046118962676346 -3.769647812434007 -1.297759421634416
-4.606816103753781 -4.2184380438379065 -1.9273907825133265
-5.108189359485374 -4.647654533059402 -2.7823597154789805
-5.554809136590279 -5.089430755710078 -3.8116337921383527
-5.910502229820253 -5.53890109096454 -4.925948783421659
-6.133591874570696 -5.972908964898707 -6.027358398647215
-6.211331042253544 -6.388240020428113 -7.014807254291577
-6.141310537168437 -6.820185006796597 -7.909990181778204
-5.928441420073387 -7.274045233407442 -8.703555337223893
-5.6026165010890185 -7.75204524183682 -9.36307083390153
-5.218594091193911 -8.248228500328201 -9.88463514723586
-4.842553284958457 -8.747431992321175 -10.283802068509566
-4.5168105009734685 -9.227986397572359 -10.578963385250677
-4.260105851403463 -9.663498663771705 -10.765781644158844
-4.083102021429694 -10.012993771508938 -10.83610070336505
-3.9467541001360726 -10.299101141843382 -10.81752399344648
-3.8216109842559214 -10.56273306445876 -10.6822267429328
-3.7156673401932623 -10.809209844886048 -10.380259427815458
-3.644412509910294 -11.022755741084577 -9.86570426544665
-3.629854029588117 -11.171729007518563 -9.162795040286733
-3.6756407192869847 -11.245170593605323 -8.358701324609912
-3.7579507024523946 -11.271890897851343 -7.556914260928292
-3.85767903016781 -11.296336969765356 -6.796858675019572
-3.9677310766194993 -11.350078660337063 -6.077173109989342
-4.082564629946111 -11.44741554511204 -5.388081735317713
-4.196550140122971 -11.587498353390334 -4.718711573530349
-4.301769740981781 -11.771367408870638 -4.058606355742903
-4.384377892433285 -12.008884618781163 -3.416887584946946
-4.4284317515535765 -12.310726172127668 -2.8154982635569783
-4.42459348267886 -12.68554449274722 -2.2753159271061443
-4.3709651457681975 -13.138633114601854 -1.8077388652892779
-4.2702827979076705 -13.671672298129064 -1.4077333083300636
-4.126604150367042 -14.273454191715809 -1.0539147778067959
-3.9415123750546788 -14.923999651687408 -0.7208465630125913
-3.7206929165092704 -15.600511623973071 -0.40456740348892595
-3.4774162325703473 -16.2710449241153 -0.10888951562328825
-3.199600821080467 -16.923667511639266 0.1811998441447365
-2.8705013935458488 -17.54672827707012 0.46608049464536644
-2.479362634475039 -18.124669776963177 0.743609345373857
-2.023845282329101 -18.64304186620543 1.0168709155367128
-1.5108212686919706 -19.094676620644645 1.2934282337269294
-0.9522977597138136 -19.48088590571517 1.5833264731877965
-0.357329171692751 -19.804010096516862 1.8902440021994824
0.270951567435312 -20.069332794445337 2.2047397673351603
0.9388994640160787 -20.283177756830508 2.5197747937723394
1.6590038983272466 -20.44271624006204 2.835570268683717
2.4383893638006287 -20.53500265038721 3.1568997558726624
3.2666079528647947 -20.546613005682527 3.4908098925685795
4.116682970174258 -20.47780651537786 3.8455004411260854
4.962461151402865 -20.349329715861327 4.229901692067121
5.791619202736397 -20.197926970018607 4.653416919971803
6.603444239665333 -20.06544406632685 5.120197112141477
7.402035339801097 -19.988948287658843 5.624028271224907
8.190997168133904 -19.99449693723097 6.149120479651269
8.967522995897792 -20.097608996112907 6.675679040710543
9.716508554435684 -20.304638361798595 7.186778225082831
10.406974083223252 -20.609799468174767 7.6714464933176325
11.00031192424816 -20.991508140095345 8.124301294324198
11.472611764191535 -21.4164986570343 8.543448473749338
11.833439197597611 -21.858402262937826 8.93398678491059
12.109617271020799 -22.31236533182125 9.308383218537
12.325822089045145 -22.78948478841965 9.67896396894368
12.502103970104798 -23.310652692315273 10.055148582173253
12.653478322941341 -23.9022174130992 10.442623158807832
12.786999338561788 -24.582288905566184 10.842728626133631
12.910854499587186 -25.33683712301068 11.252315969356912
13.043266897389904 -26.110827957771267 11.664360490948742
13.191999256208616 -26.824513715243874 12.055248551610582
LINES 1 75
74 0 1 2 3 4 5 6 7 8 9 10 11 12 13 14 15 16 17 18 19 20 21 22 23 24 25 26 27 28 29 30 31 32 33 34 35 36 37 38 39 40 41 42 43 44 45 46 47 48 49 50 51 52 53 54 55 56 57 58 59 60 61 62 63 64 65 66 67 68 69 70 71 72 73
POINT_DATA 74
SCALARS Curvature float 1
LOOKUP_TABLE default
0.0
0.11643675456550402
0.07049686632794402
0.0731422874596986
0.14450794035369188
0.21322696640978883
0.22181627753057936
0.1572441499115539
0.08629006500070016
0.0719121931540195
0.08756446557053212
0.1203176976372177
0.1620783776716058
0.19209839192535597
0.21854892428248684
0.21068975363669665
0.18371978878805442
0.1848258521036519
0.2825802640318216
0.5592511882799514
0.7299169080196568
0.8094817080731967
0.6574116175532354
0.3792235960724144
0.22568227929015572
0.15278786276279135
0.0910021920300285
0.038609770519843205
0.0673536290634113
0.0966387046966996
0.09517725109794826
0.09455850502645363
0.12778781421852894
0.18392442845658588
0.24100600993766705
0.26883068536362753
0.2390514899596441
0.16081616717529065
0.0906219433929752
0.06510475452454133
0.05106054829927462
0.06632363835640313
0.10227697219771774
0.135488302060466
0.15793575623011688
0.16075022175604475
0.14681306306818664
0.13365372567948364
0.11700171081875653
0.10402765361578825
0.102117296016722
0.10405371738236502
0.10193693973446033
0.0921380447829778
0.07345927117089159
0.05370296253242023
0.05601313143367384
0.07596929997601636
0.09456497845203854
0.1099556160128287
0.12459835041253209
0.14116434957073307
0.16499592736497584
0.19304866050182773
0.20107696548105183
0.18443352826003373
0.15466129046805277
0.11927172865150547
0.09125799961634207
0.07213478942351587
0.04449176021208106
0.01146816618278567
0.042799392718175275
0.0
SCALARS Torsion float 1
LOOKUP_TABLE default
0.0
0.0
0.5327263161308906
0.7596652628379128
0.2925214083632007
0.12948511737123164
0.06097751831785553
0.05752504611949928
0.23628310916142908
0.21199442396778412
0.10405573148499886
0.2256609617551945
0.1293803429094966
0.061377067008323724
0.18245305754207228
0.27820677172505637
0.5502048119990575
0.5886664153047676
0.12156910448121516
-0.2162523057617218
-0.6371596412036815
-0.23774526535084306
0.12861946682960837
0.04250293163936847
0.061935333336711064
0.06854364498068961
0.19699802159593993
0.9887327415773338
0.6578131754996305
0.27347981136685057
0.2229102076479138
0.29385664759637153
0.17863983546783113
0.08116078529330539
-0.0025534674891609793
-0.03744995257079552
-0.025731364944188415
0.10843013412949855
0.4635291102459187
0.3099687120871517
0.26355337123702616
0.534164475973083
0.05870523554263535
0.03266236623529739
0.10246164844087532
0.1628681552089555
0.22891078750320346
0.13166229963377715
-0.15730525694950528
-0.21097548347390466
-0.05711776061924004
0.07613150216145273
0.1563355103913135
0.23712701188755314
0.38849578828459963
0.6830634647810924
0.6497796029637742
0.3936815544851981
0.26168714635327484
0.1723748809905618
0.05697071198823317
-0.07986542572403116
-0.1953552874132836
-0.23730891093526768
-0.21135412524711153
-0.12694303378348754
0.0469631657217357
0.2629350537116785
0.36920366432507856
0.2271063908934694
0.19997862197612262
0.9993929212783133
0.3384923099246193
0.0
SCALARS Distance_to_V float 1
LOOKUP_TABLE default
0.0
0.9388603388375797
1.9215115820130715
2.8954734944326255
3.836042950755385
4.728541729634022
5.5923005323465524
6.474175987869347
7.40899830197592
8.426086829141589
9.474026890733093
10.468196658137103
11.33909450736227
12.114328327316217
12.793421112734974
13.368604904221055
13.853118819813957
14.269452427527522
14.62730706253934
14.908764490249316
15.084606311489695
15.17231723695254
15.160651393672442
15.016258711588845
14.70303626295242
14.237758430177445
13.692293283246816
13.157543912405393
12.68094227952671
12.276311881513974
11.942692577039953
11.67001588598602
11.44814793553066
11.278335323610028
11.163787358156144
11.105866792115025
11.102629598944528
11.146944564587871
11.221241864435134
11.302410748393292
11.379291260929014
11.445132783899952
11.47818425312422
11.459514355648478
11.373697426302146
11.210284246569545
10.967852042101978
10.652112536728062
10.269544519737899
9.829640647134356
9.335185388081424
8.777219053616092
8.143860443928615
7.434498279562893
6.665889093182321
5.863286495915572
5.049952725955401
4.247570936922652
3.4810196659344355
2.782015602069839
2.1940509623230846
1.7698182529667856
1.5395309801114154
1.4587074251193872
1.4328258937534144
1.3975845247229064
1.3305909389235537
1.2272578892865138
1.0878706791657349
0.9119592183449259
0.6964829534386126
0.4505470848729805
0.20646875436236983
0.0
SCALARS Local_Extrema int 1
LOOKUP_TABLE default
0
0
0
0
0
0
0
0
0
0
0
0
0
0
0
0
0
0
0
0
0
1
0
0
0
0
0
0
0
0
0
0
0
0
0
0
-1
0
0
0
0
0
1
0
0
0
0
0
0
0
0
0
0
0
0
0
0
0
0
0
0
0
0
0
0
0
0
0
0
0
0
0
0
0
