# vtk DataFile Version 2.0
Vessel Segment
ASCII
DATASET POLYDATA
POINTS 1151 float
0.066299545418238 -0.0670585948583396 -0.0843846822716056
0.0409699740305546 0.0106263062112874 -0.118211267569469
0.0159361622463806 0.0884367831443894 -0.151641909404149
-0.0088014356115151 0.16636411644413 -0.184691705459914
-0.0332423652763889 0.24439958667239 -0.217375753344106
-0.0573861725663264 0.322534474473681 -0.249709150565651
-0.0812324034130475 0.400760060599066 -0.281706994513568
-0.104780603890711 0.479067625930077 -0.313384382435485
-0.128030320244719 0.557448451502629 -0.344756411416145
-0.150981098920521 0.63589381853094 -0.375838178355919
-0.173632486592421 0.714395008431446 -0.406644779949321
-0.195984030199357 0.792943302854444 -0.437191312652794
-0.21803527716209 0.871529983916583 -0.467492872373884
-0.239785776060897 0.95014633494319 -0.497564553453096
-0.261235077494663 1.02878364141145 -0.52742144736714
-0.282382734946958 1.10743319190131 -0.557078641421445
-0.303228305652109 1.18608627904639 -0.586551217442681
-0.323771351461275 1.26473420048485 -0.615854250471276
-0.34401143970852 1.34336825981033 -0.645002807453939
-0.363948144076887 1.42197976752285 -0.674011945936177
-0.383581045464476 1.5005600419797 -0.702896712754817
-0.402909732860045 1.57910041035711 -0.731672142713786
-0.421933804466558 1.65759220989244 -0.760353256824778
-0.440652869454073 1.73602678983824 -0.788955059443377
-0.459066549960573 1.8143955136968 -0.817492534970064
-0.477174483102324 1.89268976146547 -0.84598064453448
-0.494976322984236 1.97090093188201 -0.874434322679696
-0.512471742710221 2.04902044466991 -0.902868474046488
-0.52966043639356 2.12703974278373 -0.931297970057595
-0.546542121167258 2.2049502946544 -0.959737645601994
-0.563116539194408 2.28274359643459 -0.988202295719169
-0.579383459731383 2.36041117430079 -1.01670667219211
-0.595342682564775 2.43794458823131 -1.04526547776739
-0.6109940449355 2.51533543953073 -1.0738933543517
-0.626337429836644 2.59257537983032 -1.10260486883542
-0.641372774364142 2.66965612014518 -1.13141449882498
-0.65610007806746 2.74656943993135 -1.16033661837514
-0.670519411300277 2.82330719614299 -1.18938548372138
-0.684630923571164 2.89986133228952 -1.21857521901219
-0.698434851894265 2.97622388749275 -1.24791980204141
-0.711931529139979 3.05238700554403 -1.27743304998056
-0.725121392404231 3.12834294395559 -1.30712860509363
-0.738004991861058 3.20408408286072 -1.33701991999569
-0.75058300084211 3.27960293353036 -1.3671202417536
-0.762856226399454 3.35489214673851 -1.3974425955305
-0.774825619886978 3.42994452112183 -1.42799976821279
-0.786492287541795 3.50475301153929 -1.45880429203713
-0.797857501065644 3.57931073743176 -1.4898684282174
-0.808922708206291 3.65361099118163 -1.52120415057166
-0.819689543338932 3.72764724647243 -1.55282312914916
-0.830159838047593 3.80141316664845 -1.58473671385727
-0.840335631720555 3.87490261305137 -1.61695591809694
-0.85021918251024 3.94810965276009 -1.64949140261685
-0.85981297921831 4.02102856481527 -1.68235345992313
-0.869119753545227 4.09365384584711 -1.71555199890793
-0.878142492353839 4.16598021568008 -1.74909652948628
-0.886884449932961 4.23800262293774 -1.78299614723311
-0.895349160260961 4.30971625064743 -1.81725951802015
-0.903540449269341 4.3811165218451 -1.85189486265286
-0.911462447106319 4.45219910518005 -1.88690994150742
-0.919119600400417 4.52295992051972 -1.92231203916762
-0.92651668456786 4.59339514450956 -1.95810794905249
-0.933658817259346 4.66350121496645 -1.99430395780067
-0.94055147469904 4.733274832311 -2.03090582903751
-0.947200509162933 4.80271295983327 -2.06791878689893
-0.953612166501017 4.87181282391374 -2.10534749954602
-0.959793103659461 4.94057191424421 -2.14319606267948
-0.965750406202798 5.00898798404868 -2.18146798305426
-0.971491605836094 5.0770590503043 -2.22016616199402
-0.977024697927134 5.14478339396228 -2.25929287890571
-0.982358159028593 5.21215956016876 -2.29884977479408
-0.987500964117666 5.27918635833975 -2.33883783613241
-0.99246259648928 5.34586285843871 -2.37925738799382
-0.997253039000736 5.41218837761513 -2.42010811069015
-1.00188275796993 5.47816246304592 -2.46138906567151
-1.00636268679104 5.54378487463063 -2.50309872178192
-1.0107042095502 5.60905556768682 -2.54523498151504
-1.01491914464115 5.67397467564531 -2.58779520726982
-1.01901972838095 5.73854249274549 -2.63077624760618
-1.02301859862563 5.80275945673064 -2.67417446350072
-1.02692877838589 5.8666261315432 -2.71798575460237
-1.03076365942333 5.93014319006624 -2.76220558547329
-1.0345369853428 5.99331139806571 -2.80682901144476
-1.03826283340513 6.05613160118058 -2.85185070349591
-1.041955595836 6.11860471311378 -2.89726497274747
-1.04562996111524 6.18073170386926 -2.94306579494068
-1.04930089526633 6.24251358798912 -2.98924683491624
-1.05298362314574 6.30395141279067 -3.03580147109326
-1.05669360973234 6.36504624660353 -3.08272281994819
-1.06044654141682 6.42579916700674 -3.13000376049377
-1.06425830729108 6.48621124906582 -3.17763695875793
-1.06814498057523 6.54628355355168 -3.22561489204147
-1.07212280362221 6.60601711468621 -3.27392986742096
-1.07620818200407 6.66541292668646 -3.32257402564392
-1.08041768217588 6.72447192983551 -3.37153933926925
-1.08476802927719 6.78319499653517 -3.42081761058643
-1.08927610493359 6.84158291735865 -3.47040046953463
-1.09395894505814 6.89963638710323 -3.52027937162187
-1.09883373765294 6.95735599084296 -3.57044559584423
-1.10391782061055 7.01474218998133 -3.62089024260491
-1.10922867951556 7.07179530830396 -3.67160423163346
-1.11478394526144 7.12851551800949 -3.72257830001134
-1.12060138686802 7.18490282517466 -3.77380300296513
-1.12669889211567 7.24095705378288 -3.82526872168517
-1.13309444338001 7.29667782918696 -3.87696567391182
-1.13980609328209 7.35206456155009 -3.92888392462811
-1.1468519403385 7.40711642928676 -3.98101339675248
-1.15425010461148 7.46183236250375 -4.03334388183142
-1.16201870335914 7.5162110264411 -4.0858650507322
-1.17017582668549 7.57025080491303 -4.13856646433554
-1.17873951319069 7.62394978374893 -4.1914375842283
-1.18772772552609 7.67730573428674 -4.24446778343338
-1.19715832348003 7.73031609822969 -4.29764635810728
-1.20704903079488 7.78297797596376 -4.35096254169398
-1.21741739951467 7.83528811623848 -4.40440552004645
-1.22828077423777 7.88724290590014 -4.45796444658535
-1.2396562563695 7.93883835962507 -4.51162845745781
-1.2515606683748 7.99007010965284 -4.56538668669616
-1.2640105180309 8.04093339551949 -4.61922828137661
-1.27702196267996 8.09142305379081 -4.67314241677806
-1.29061077348169 8.14153350779549 -4.72711831154077
-1.30479229999679 8.1912587575805 -4.78114524273861
-1.31958144337001 8.24059237563997 -4.83521255870186
-1.33499265134297 8.28952751730022 -4.88930968613005
-1.35103992186673 8.33805693687849 -4.94342613495533
-1.36773680704501 8.38617300406363 -4.9975515031194
-1.3850964170775 8.43386772029683 -5.05167548135039
-1.40313142420311 8.48113273515241 -5.10578785793977
-1.42185406664325 8.52795936271849 -5.15987852351922
-1.44127615254507 8.57433859797778 -5.21393747583757
-1.46140906392475 8.62026113318827 -5.26795482453765
-1.48226376053755 8.66571737415999 -5.32192079593545
-1.50385078184416 8.71069745382719 -5.37582573785761
-1.52618024414452 8.75519123895523 -5.42966012462699
-1.54926183580796 8.79918833414298 -5.48341456210657
-1.57310481243013 8.84267808572121 -5.53707979274565
-1.59771799198994 8.88564958565091 -5.59064670062597
-1.62310975000641 8.92809167542172 -5.64410631650792
-1.64928801469565 8.96999294995022 -5.69744982287663
-1.67626026212775 9.01134176147838 -5.75066855898823
-1.70403351138372 9.05212622347186 -5.8037540259159
-1.73261431951298 9.09233421460189 -5.85669789169286
-1.76200877130748 9.13195338489722 -5.90949199896955
-1.79222245591745 9.1709711674049 -5.96212837905376
-1.82326043828379 9.20937479202116 -6.01459926846513
-1.85512723037098 9.24715129940582 -6.06689712558629
-1.88782676240005 9.28428755489663 -6.11901464731409
-1.92136235408154 9.32077026242367 -6.1709447857108
-1.95573668584843 9.35658597842369 -6.22268076465528
-1.99095177008912 9.3917211257545 -6.2742160964942
-2.02700892238035 9.42616200760935 -6.32554459869323
-2.06390873311642 9.45989482167851 -6.37666041031293
-2.10165104944049 9.49290568073833 -6.42755800392676
-2.14023498332734 9.52518064955635 -6.47823218596915
-2.17965892996837 9.55670578822392 -6.52867809252563
-2.21992058655268 9.5874671957359 -6.57889118494772
-2.2610169710483 9.61745105357056 -6.62886724546778
-2.30294444098328 9.64664366926931 -6.67860237281388
-2.3456987122269 9.67503152001655 -6.72809297782466
-2.38927487777081 9.70260129621941 -6.7773357790642
-2.43366742651016 9.7293399450876 -6.82632779843689
-2.47887026202009 9.75523471421729 -6.87506635679094
-2.52487672120927 9.78027319528179 -6.92354906922752
-2.57167959266179 9.8044433679932 -6.97177383966244
-2.61927113485609 9.82773364417092 -7.01973885509338
-2.66764309437924 9.85013291181413 -7.06744257985584
-2.71678672414124 9.87163057917441 -7.11488374987909
-2.76669280158923 9.89221661882823 -7.16206136694204
-2.81735164692182 9.91188161174957 -7.20897469292925
-2.86875314130329 9.9306167913824 -7.25562324408677
-2.92088674507791 9.9484140877133 -7.30200678527816
-2.97374151604866 9.96526617107507 -7.34812532420232
-3.02730612943233 9.98116648895866 -7.3939791046229
-3.08156890207 9.99610928507707 -7.43956859708834
-3.13651781831389 10.0100896114375 -7.48489448866328
-3.19214055597867 10.0231033401443 -7.52995767262205
-3.2484245122928 10.0351471752029 -7.57475923814213
-3.3053568298498 10.0462186643222 -7.61930045999757
-3.36292442255961 10.0563162107183 -7.66358278825249
-3.42111400159989 10.0654390849178 -7.70760783795449
-3.47991210136736 10.0735874365607 -7.75137737882815
-3.5393051053455 10.0807623061117 -7.79489332501383
-3.59927926979985 10.0869656341724 -7.83815772598744
-3.65982074195823 10.0922002647048 -7.88117276047755
-3.72091557601859 10.0964699458569 -7.9239407315634
[...]
POINT_DATA 1151
SCALARS MaximumInscribedSphereRadius float
LOOKUP_TABLE default
1.86
1.86
1.86
1.86
1.86
1.86
1.86
1.86
1.86
1.86
1.86
1.86
1.86
1.86
1.86
1.86
1.86
1.86
1.86
1.86
1.86
1.86
1.86
1.86
1.86
1.8532608695652175
1.8405913043478261
1.8279217391304348
1.8152521739130436
1.8025826086956522
1.7899130434782609
1.7772434782608697
1.7645739130434783
1.751904347826087
1.7392347826086958
1.7265652173913044
1.713895652173913
1.7012260869565219
1.6885565217391305
1.6758869565217391
1.663217391304348
1.6505478260869566
1.6378782608695652
1.625208695652174
1.6125391304347827
1.5998695652173913
1.5872000000000002
1.5745304347826088
1.5618608695652174
1.55
1.55
1.55
1.55
1.55
1.55
1.55
1.55
1.55
1.55
1.55
1.55
1.55
1.55
1.55
1.55
1.55
1.55
1.55
1.55
1.55
1.55
1.55
1.55
1.55
1.55
1.55
1.55
1.55
1.55
1.55
1.55
1.55
1.55
1.55
1.55
1.55
1.55
1.55
1.55
1.55
1.55
1.55
1.55
1.55
1.55
1.55
1.55
1.55
1.5516173913043478
1.5642869565217392
1.5769565217391304
1.5896260869565217
1.602295652173913
1.6149652173913045
1.6276347826086957
1.6403043478260868
1.6529739130434784
1.6656434782608696
1.678313043478261
1.690982608695652
1.7036521739130437
1.7163217391304348
1.728991304347826
1.7416608695652176
1.7543304347826087
1.7670000000000001
1.7796695652173913
1.7923391304347824
1.805008695652174
1.8176782608695652
1.8303478260869568
1.8430173913043477
1.8556869565217393
1.862674086956522
1.866728347826087
1.8707826086956523
1.8748368695652176
1.8788911304347826
1.882945391304348
1.886999652173913
1.8910539130434783
1.8951081739130435
1.8991624347826088
1.9032166956521739
1.9072709565217392
1.9113252173913045
1.9153794782608695
1.9194337391304348
1.923488
1.9275422608695654
1.9315965217391304
1.9356507826086957
1.939705043478261
1.943759304347826
1.9478135652173914
1.9518678260869566
1.9559220869565217
1.9559975652173913
1.939273739130435
1.9225499130434782
1.905826086956522
1.8891022608695651
1.872378434782609
1.8556546086956525
1.8389307826086958
1.8222069565217394
1.8054831304347827
1.7887593043478263
1.7720354782608698
1.7553116521739132
1.7385878260869567
1.721864
1.7051401739130436
1.6884163478260872
1.6716925217391305
1.6549686956521743
1.6382448695652174
1.621521043478261
1.6047972173913043
1.5880733913043479
1.5713495652173917
1.5546257391304348
1.586660869565217
1.6373391304347829
1.6880173913043475
1.7386956521739123
1.789373913043478
1.8400521739130429
1.8907304347826088
1.9414086956521734
1.9920869565217394
2.0427652173913042
2.093443478260869
2.144121739130435
2.1947999999999994
2.2454782608695654
2.29615652173913
2.346834782608695
2.397513043478261
2.4481913043478256
2.498869565217391
2.549547826086956
2.600226086956522
2.6509043478260867
2.7015826086956514
2.7522608695652173
2.780295652173913
2.74228695652174
2.7042782608695655
2.666269565217391
2.6282608695652185
2.590252173913044
2.5522434782608694
2.5142347826086953
2.4762260869565225
2.438217391304348
2.4002086956521738
2.362200000000001
2.3241913043478264
2.2861826086956523
2.2481739130434795
2.210165217391305
2.1721565217391308
2.134147826086956
2.0961391304347834
2.0581304347826093
2.0201217391304347
1.982113043478262
1.9441043478260875
1.9060956521739132
1.8680869565217386
1.8707718260869564
1.8844549565217392
1.8981380869565219
1.911821217391304
1.925504347826087
1.9391874782608696
1.9528706086956518
1.9665537391304346
1.9802368695652173
1.9939200000000001
2.007603130434782
2.021286260869565
2.034969391304348
2.04865252173913
2.0623356521739127
2.0760187826086955
2.0897019130434784
2.1033850434782604
2.1170681739130432
2.130751304347826
2.144434434782608
2.158117565217391
2.171800695652174
2.1854838260869567
2.1907565217391305
2.178086956521739
2.1654173913043477
2.152747826086957
2.1400782608695654
2.1274086956521736
2.1147391304347827
2.1020695652173913
2.0894
2.0767304347826085
2.0640608695652176
2.0513913043478262
2.038721739130435
2.026052173913044
2.013382608695652
2.0007130434782607
1.9880434782608694
1.9753739130434784
1.962704347826087
1.9500347826086957
1.9373652173913047
1.9246956521739131
1.9120260869565218
1.8993565217391308
1.8866869565217395
1.8970921739130435
1.9115354782608698
1.9259787826086954
1.9404220869565216
1.9548653913043479
1.9693086956521735
1.9837519999999997
1.998195304347826
2.0126386086956525
2.027081913043478
2.041525217391304
2.0559685217391306
2.070411826086956
2.084855130434782
2.0992984347826087
2.113741739130435
2.1281850434782608
2.142628347826087
2.1570716521739133
2.171514956521739
2.185958260869565
2.2004015652173914
2.214844869565217
2.229288173913043
2.2231582608695653
2.1838826086956518
2.14460695652174
2.1053313043478266
2.066055652173913
2.026780000000001
1.9875043478260874
1.948228695652174
1.9089530434782604
1.8696773913043485
1.830401739130435
1.7911260869565215
1.7518504347826096
1.7125747826086961
1.6732991304347826
1.6340234782608707
1.5947478260869572
1.5554721739130435
1.51619652173913
1.4769208695652183
1.4376452173913048
1.3983695652173913
1.3590939130434792
1.3198182608695657
1.2805426086956522
1.287400347826087
1.298549565217391
1.3096987826086954
1.320848
1.331997217391304
1.3431464347826085
1.354295652173913
1.365444869565217
1.3765940869565214
1.387743304347826
1.3988925217391304
1.4100417391304345
1.4211909565217389
1.4323401739130435
1.4434893913043474
1.454638608695652
1.4657878260869563
1.476937043478261
1.488086260869565
1.4992354782608694
1.510384695652174
1.521533913043478
1.5326831304347825
1.543832347826087
1.5443391304347824
1.5316695652173915
1.5190000000000001
1.5063304347826088
1.4936608695652178
1.4809913043478262
1.4683217391304348
1.455652173913044
1.4429826086956525
1.430313043478261
1.4176434782608696
1.4049739130434786
1.3923043478260873
1.3796347826086957
1.3669652173913047
1.3542956521739133
1.3416260869565217
1.3289565217391304
1.3162869565217394
1.303617391304348
1.2909478260869565
1.2782782608695655
1.2656086956521742
1.2529391304347826
1.2402695652173916
1.2523999999999997
1.2650695652173911
1.2777391304347827
1.2904086956521736
1.303078260869565
1.3157478260869566
1.3284173913043473
1.341086956521739
1.3537565217391303
1.366426086956522
1.3790956521739128
1.3917652173913042
1.4044347826086958
1.4171043478260865
1.4297739130434781
1.4424434782608695
1.455113043478261
1.4677826086956518
1.4804521739130434
1.4931217391304348
1.5057913043478257
1.5184608695652173
1.5311304347826087
1.5437999999999996
1.55
1.55
1.55
1.55
1.55
1.55
1.55
1.55
1.55
1.55
1.55
1.55
1.55
1.55
1.55
1.55
1.55
1.55
1.55
1.55
1.55
1.55
1.55
1.55
1.55
1.55
1.55
1.55
1.55
1.55
1.55
1.55
1.55
1.55
1.55
1.55
1.55
1.55
1.55
1.55
1.55
1.55
1.55
1.55
1.55
1.55
1.55
1.55
1.55
1.55
1.55
1.55
1.55
1.55
1.55
1.55
1.55
1.55
1.55
1.55
1.55
1.55
1.55
1.55
1.55
1.55
1.55
1.55
1.55
1.55
1.55
1.55
1.55
1.5486521739130437
1.535982608695652
1.5233130434782607
1.5106434782608702
1.4979739130434788
1.4853043478260874
1.4726347826086958
1.4599652173913045
1.4472956521739129
1.4346260869565215
1.4219565217391312
1.4092869565217396
1.3966173913043483
1.3839478260869567
1.3712782608695653
1.358608695652174
1.3459391304347823
1.333269565217392
1.3206000000000004
1.307930434782609
1.2952608695652175
1.282591304347826
1.2699217391304347
1.2572521739130431
1.2445826086956528
1.24
1.24
1.24
1.24
1.24
1.24
1.24
1.24
1.24
1.24
1.24
1.24
1.24
1.24
1.24
1.24
1.24
1.24
1.24
1.24
1.24
1.24
1.24
1.24
1.2391373913043477
1.2340695652173912
1.229001739130435
1.2239339130434785
1.218866086956522
1.2137982608695652
1.2087304347826087
1.2036626086956521
1.1985947826086956
1.1935269565217395
1.188459130434783
1.1833913043478264
1.1783234782608696
1.173255652173913
1.1681878260869565
1.16312
1.1580521739130438
1.1529843478260873
1.1479165217391307
1.142848695652174
1.1377808695652174
1.1327130434782609
1.1276452173913047
1.1225773913043482
1.1175095652173916
1.1462452173913036
1.1893217391304345
1.2323982608695654
1.2754747826086965
1.3185513043478236
1.3616278260869545
1.4047043478260854
1.4477808695652166
1.4908573913043475
1.5339339130434784
1.5770104347826095
1.6200869565217366
1.6631634782608677
1.7062399999999986
1.7493165217391295
1.7923930434782607
1.8354695652173916
1.8785460869565225
1.9216226086956498
1.9646991304347807
2.007775652173912
2.050852173913043
2.0939286956521737
2.1370052173913043
2.1640695652173907
2.13873043478261
2.113391304347827
2.088052173913044
2.062713043478261
2.0373739130434783
2.0120347826086955
1.9866956521739123
1.9613565217391318
1.9360173913043488
1.9106782608695658
1.8853391304347829
1.8599999999999999
1.8346608695652171
1.8093217391304364
1.7839826086956534
1.7586434782608704
1.7333043478260874
1.7079652173913047
1.6826260869565217
1.6572869565217387
1.6319478260869582
1.606608695652175
1.5812695652173923
1.5559304347826093
1.5402956521739133
1.5276260869565217
1.5149565217391303
1.5022869565217398
1.4896173913043484
1.476947826086957
1.4642782608695655
1.451608695652174
1.4389391304347825
1.4262695652173911
1.4136000000000006
1.4009304347826093
1.3882608695652179
1.3755913043478263
1.362921739130435
1.3502521739130433
1.337582608695652
1.3249130434782614
1.31224347826087
1.2995739130434787
1.286904347826087
1.2742347826086957
1.2615652173913041
1.2488956521739139
1.2478497391304335
1.2742024347826078
1.300555130434782
1.3269078260869562
1.3532605217391305
1.3796132173913047
1.4059659130434765
1.4323186086956508
1.458671304347825
1.4850239999999995
1.5113766956521737
1.537729391304348
1.5640820869565222
1.590434782608694
1.6167874782608682
1.6431401739130425
1.6694928695652167
1.695845565217391
1.7221982608695654
1.7485509565217394
1.7749036521739114
1.8012563478260857
1.82760904347826
1.8539617391304342
1.8803144347826084
1.8734459130434782
1.8597627826086955
1.8460796521739138
1.8323965217391311
1.8187133913043483
1.8050302608695654
1.7913471304347828
1.777664
1.7639808695652173
1.7502977391304355
1.7366146086956529
1.72293147826087
1.7092483478260871
1.6955652173913045
1.6818820869565216
1.66819895652174
1.6545158260869572
1.6408326956521746
1.6271495652173917
1.6134664347826089
1.5997833043478262
1.5861001739130434
1.5724170434782618
1.558733913043479
1.55
1.55
1.55
1.55
1.55
1.55
1.55
1.55
1.55
1.55
1.55
1.55
1.55
1.55
1.55
1.55
1.55
1.55
1.55
1.55
1.55
1.55
1.55
1.55
1.55
1.538678260869565
1.5260086956521746
1.5133391304347832
1.5006695652173918
1.4880000000000002
1.4753304347826088
1.4626608695652172
1.449991304347827
1.4373217391304354
1.424652173913044
1.4119826086956526
1.399313043478261
1.3866434782608696
1.373973913043478
1.3613043478260878
1.3486347826086964
1.3359652173913048
1.3232956521739134
1.3106260869565218
1.2979565217391305
1.2852869565217389
1.2726173913043486
1.2599478260869572
1.2472782608695656
1.2507826086956515
1.2761217391304345
1.3014608695652174
1.3268000000000004
1.3521391304347812
1.377478260869564
1.402817391304347
1.4281565217391299
1.4534956521739129
1.4788347826086958
1.5041739130434788
1.5295130434782593
1.5548521739130423
1.5801913043478253
1.6055304347826083
1.6308695652173912
1.656208695652174
1.681547826086957
1.7068869565217377
1.7322260869565207
1.7575652173913037
1.7829043478260864
1.8082434782608696
1.8335826086956524
1.8589217391304331
1.8648521739130433
1.8699199999999998
1.8749878260869564
1.8800556521739131
1.8851234782608697
1.8901913043478262
1.8952591304347823
1.9003269565217389
1.9053947826086954
1.910462608695652
1.9155304347826088
1.9205982608695653
1.9256660869565219
1.930733913043478
1.9358017391304345
1.940869565217391
1.9459373913043476
1.9510052173913044
1.956073043478261
1.9611408695652175
1.9662086956521736
1.9712765217391301
1.9763443478260867
1.9814121739130433
1.984
1.984
1.984
1.984
1.984
1.984
1.984
1.984
1.984
1.984
1.984
1.984
1.984
1.984
1.984
1.984
1.984
1.984
1.984
1.984
1.984
1.984
1.984
1.984
1.9842210434782612
1.9946100869565222
2.004999130434783
2.0153881739130424
2.0257772173913033
2.0361662608695643
2.0465553043478253
2.0569443478260863
2.0673333913043472
2.077722434782608
2.0881114782608696
2.0985005217391306
2.1088895652173916
2.1192786086956525
2.1296676521739135
2.1400566956521745
2.1504457391304337
2.1608347826086947
2.1712238260869556
2.1816128695652166
2.1920019130434776
2.2023909565217386
2.2127799999999995
2.2231690434782605
2.2335580869565215
2.222640695652174
2.194514260869565
2.1663878260869556
2.1382613913043467
2.1101349565217378
2.0820085217391333
2.0538820869565244
2.0257556521739155
1.9976292173913062
1.9695027826086973
1.9413763478260881
1.913249913043479
1.8851234782608701
1.856997043478261
1.8288706086956519
1.800744173913043
1.7726177391304339
1.7444913043478247
1.7163648695652158
1.6882384347826116
1.6601120000000025
1.6319855652173936
1.6038591304347845
1.5757326956521753
1.5490511304347832
1.5379019130434786
1.5267526956521742
1.5156034782608696
1.504454260869565
1.4933050434782607
1.482155826086956
1.4710066086956517
1.459857391304349
1.4487081739130445
1.4375589565217401
1.4264097391304356
1.415260521739131
1.4041113043478266
1.392962086956522
1.3818128695652176
1.370663652173913
1.3595144347826087
1.348365217391304
1.3372159999999997
1.3260667826086951
1.3149175652173906
1.303768347826088
1.2926191304347836
1.281469913043479
1.2762619130434782
1.2747415652173912
1.2732212173913042
1.2717008695652174
1.2701805217391304
1.2686601739130434
1.2671398260869564
1.2656194782608694
1.2640991304347824
1.2625787826086956
1.2610584347826088
1.2595380869565218
1.2580177391304348
1.2564973913043478
1.254977043478261
1.253456695652174
1.251936347826087
1.250416
1.248895652173913
1.247375304347826
1.2458549565217392
1.2443346086956522
1.2428142608695651
1.2412939130434781
1.2402264347826084
1.2417467826086954
1.2432671304347824
1.2447874782608694
1.2463078260869564
1.2478281739130435
1.2493485217391302
1.2508688695652173
1.2523892173913043
1.2539095652173913
1.2554299130434783
1.2569502608695653
1.258470608695652
1.259990956521739
1.2615113043478259
1.2630316521739129
1.264552
1.2660723478260867
1.2675926956521737
1.2691130434782607
1.2706333913043477
1.2721537391304347
1.2736740869565217
1.2751944347826085
1.2767147826086955
1.2803053913043478
1.2848664347826089
1.289427478260869
1.2939885217391298
1.2985495652173908
1.3031106086956517
1.3076716521739127
1.3122326956521737
1.3167937391304345
1.3213547826086955
1.3259158260869564
1.3304768695652174
1.3350379130434782
1.3395989565217392
1.34416
1.348721043478261
1.3532820869565212
1.3578431304347822
1.362404173913043
1.366965217391304
1.3715262608695649
1.376087304347826
1.380648347826087
1.3852093913043477
1.385241739130435
1.3685179130434784
1.3517940869565215
1.3350702608695648
1.3183464347826082
1.3016226086956513
1.2848987826086975
1.2681749565217408
1.2514511304347842
1.2347273043478273
1.2180034782608706
1.201279652173914
1.184555826086957
1.1678320000000004
1.1511081739130438
1.1343843478260869
1.1176605217391302
1.1009366956521736
1.0842128695652167
1.067489043478263
1.050765217391306
1.0340413913043494
1.0173175652173927
1.0005937391304358
0.9838699130434791
0.9780904347826088
0.9760633043478262
0.9740361739130435
0.9720090434782609
0.9699819130434782
0.9679547826086956
0.965927652173913
0.9639005217391303
0.9618733913043481
0.9598462608695655
0.9578191304347828
0.9557920000000002
0.9537648695652176
0.9517377391304349
0.9497106086956523
0.9476834782608696
0.945656347826087
0.9436292173913043
0.9416020869565218
0.9395749565217392
0.9375478260869565
0.9355206956521739
0.9334935652173916
0.9314664347826089
0.9335043478260859
0.9461739130434774
0.9588434782608688
0.9715130434782603
0.9841826086956518
0.9968521739130433
1.0095217391304347
1.0221913043478261
1.0348608695652177
1.047530434782609
1.0602000000000005
1.0728695652173899
1.0855391304347812
1.0982086956521728
1.1108782608695642
1.1235478260869556
1.1362173913043472
1.1488869565217386
1.1615565217391302
1.1742260869565215
1.186895652173913
1.1995652173913045
1.2122347826086959
1.2249043478260875
1.2375739130434789
1.24
1.24
1.24
1.24
1.24
1.24
1.24
1.24
1.24
1.24
1.24
1.24
1.24
1.24
1.24
1.24
1.24
1.24
1.24
1.24
1.24
1.24
1.24
1.24
1.24
1.24
1.24
1.24
1.24
1.24
1.24
1.24
1.24
1.24
1.24
1.24
1.24
1.24
1.24
1.24
1.24
1.24
1.24
1.24
1.24
1.24
1.24
1.24
1.24
1.2307161739130437
1.2200737391304348
1.209431304347826
1.1987888695652171
1.1881464347826083
1.1775039999999994
1.1668615652173926
1.1562191304347837
1.145576695652175
1.134934260869566
1.1242918260869572
1.1136493913043484
1.1030069565217395
1.0923645217391307
1.0817220869565218
1.071079652173913
1.0604372173913041
1.0497947826086953
1.0391523478260865
1.0285099130434796
1.0178674782608708
1.007225043478262
0.9965826086956531
0.9859401739130442
0.9787805217391305
0.9767533913043479
0.9747262608695653
0.9726991304347827
0.9706720000000001
0.9686448695652174
0.9666177391304348
0.9645906086956522
0.9625634782608695
0.9605363478260872
0.9585092173913046
0.9564820869565219
0.9544549565217393
0.9524278260869566
0.9504006956521741
0.9483735652173915
0.9463464347826088
0.9443193043478262
0.9422921739130435
0.9402650434782609
0.9382379130434783
0.9362107826086956
0.934183652173913
0.9321565217391307
0.9301293913043481
0.9418608695652163
0.9545304347826078
0.9671999999999993
0.9798695652173908
0.9925391304347821
1.0052086956521737
1.0178782608695651
1.0305478260869565
1.043217391304348
1.0558869565217395
1.068556521739131
1.0812260869565202
1.0938956521739116
1.1065652173913032
1.1192347826086946
1.1319043478260862
1.1445739130434776
1.157243478260869
1.1699130434782605
1.182582608695652
1.1952521739130435
1.2079217391304349
1.2205913043478263
1.2332608695652176
1.2340695652173908
1.2214000000000016
1.20873043478261
1.1960608695652186
1.183391304347827
1.1707217391304356
1.1580521739130443
1.1453826086956527
1.1327130434782613
1.1200434782608697
1.1073739130434783
1.094704347826087
1.0820347826086953
1.069365217391304
1.0566956521739126
1.0440260869565232
1.0313565217391318
1.0186869565217402
1.0060173913043489
0.9933478260869574
0.9806782608695659
0.9680086956521745
0.9553391304347829
0.9426695652173915
0.93
FIELD FieldData 2
Curvature 1 1151 double
0.0668599148041886
0.0652920979509957
0.0637441027257097
0.0622190353460998
0.0607202219521301
0.0592512321969352
0.0578159027997232
0.056418360197669
0.0550630411344832
0.0537547096700296
0.0524984686973663
0.0512997691953777
0.0501644081677406
0.049098468280461
0.0481082669520631
0.0472002940486446
0.0463811278339114
0.0456573282901522
0.0450353087029107
0.0445211887141805
0.0441206347103273
0.0438386804512633
0.0436794977513246
0.0436462604719163
0.0437410470869243
0.0439647767968746
0.044317194394819
0.0447969048399271
0.0454014535201328
0.0461274439492134
0.0469706818147202
0.0479260939450168
0.0489870773662134
0.050146228104359
0.0513957407875666
0.0527275714000259
0.0541335726044844
0.055605600850409
0.0571355967460749
0.0587156416088417
0.0603379938367264
0.0619950542005549
0.0636792078706018
0.0653829858709203
0.0670991132291412
0.0688204980922489
0.0705402180917591
0.0722515055088148
0.0739477324184172
0.0756223966857044
0.077269109441224
0.078881614653231
0.0804538816708035
0.0819800261339814
0.083454277539109
0.0848709771412035
0.0862245786251245
0.0875096514433057
0.0887208867038622
0.0898531054875621
0.0909012694742399
0.0918604934174118
0.0927260775099652
0.0934935591994765
0.0941587406110184
0.0947177139897709
0.0951668901337015
0.0955030300509147
0.095723280202885
0.095825211848638
0.0958068651911618
0.0956682322573552
0.0954155619699652
0.0950570057907865
0.0946011742815283
0.094057135576506
0.0934344129737607
0.0927429811897424
0.0919932606269244
0.0911961087703753
0.0903628075647021
0.0895049153301171
0.0886338279484068
0.0877610926495352
0.0868984858267491
0.0860579546993984
0.085251545295299
0.0844913152870712
0.0837892307465273
0.0831570466790107
0.0826061722722942
0.0821471366247695
0.0817884855019229
0.0815381848491809
0.0814039640028617
0.0813932202164555
0.0815129241431497
0.081769530336027
0.0821688970026085
0.0827162190799081
0.0834159781568742
0.084271810815027
0.085285960629777
0.0864591953023514
0.0877909190264262
0.0892792762503654
0.0909212809562231
0.0927129633064108
0.0946495254460308