# vtk DataFile Version 2.0
Vessel Segment
ASCII
DATASET POLYDATA
POINTS 1151 float
-0.0433458557544646 0.128978681390771 -0.131493935673221
-0.0628047207622414 0.194930347978599 -0.139990341441702
-0.0828948269333395 0.261355595542446 -0.148700584995135
-0.103600115431634 0.328248285494341 -0.157629017573615
-0.124904527404801 0.395602279211308 -0.166779990383144
-0.146792003993891 0.463411438110629 -0.176157854678015
-0.169246486342909 0.531669623725107 -0.185766961843188
-0.192251915608383 0.600370697778329 -0.195611663476674
-0.215792232968945 0.669508522259924 -0.205696311471914
-0.239851379634902 0.739076959500828 -0.216025258100158
-0.264413296857813 0.809069872248547 -0.226602856092845
-0.28946192593778 0.879481123733143 -0.237433458714239
-0.31498120817128 0.950304577492186 -0.248521419580618
-0.340955084648099 1.0215340965838 -0.259871091836121
-0.367367495988804 1.09316354255868 -0.271486827075153
-0.394202382079933 1.16518677442283 -0.283372974255042
-0.421443681809186 1.23759764760028 -0.2955338786087
-0.449075332800616 1.31039001289587 -0.307973880557277
-0.477081271149816 1.38355771545795 -0.320697314622822
-0.505445431159111 1.4570945937411 -0.333708508340936
-0.534151745072748 1.53099447846893 -0.347011781173437
-0.563184142812728 1.605251191593 -0.360611443416603
-0.592526551731411 1.67985854515345 -0.374511794994779
-0.622162896406678 1.75481033989021 -0.388717123962965
-0.652077098453861 1.8301003637558 -0.403231704894763
-0.68225307633832 1.9057223904244 -0.41805979726591
-0.712674745188015 1.98167017780093 -0.433205643837817
-0.743326016606083 2.05793746653009 -0.448673469041104
-0.774190798483415 2.13451797850546 -0.464467477359134
-0.805252994811229 2.21140541537853 -0.480591851711553
-0.836496505493644 2.28859345706779 -0.49705075183782
-0.867905226159634 2.36607576023841 -0.513848312648115
-0.899463047958779 2.44384595601847 -0.530988641725753
-0.931153857315878 2.52189764577709 -0.548475814675747
-0.962961535669364 2.60022439613911 -0.566313869624888
-0.994869959209099 2.67881973397033 -0.584506801689194
-1.02686299861416 2.75767714136284 -0.603058557441351
-1.05892451879063 2.83679005062029 -0.62197302937816
-1.09103837860941 2.91615183924318 -0.641254050387982
-1.12318843064396 2.99575582491416 -0.660905388218184
-1.15535852090814 3.07559526048332 -0.680930739942584
-1.18753248860948 3.15566332895326 -0.701333726425882
-1.21969416630538 3.23595313845944 -0.722117886709757
-1.25182738108209 3.31645771723819 -0.743286672200111
-1.2839159561366 3.39717000858998 -0.764843440775973
-1.31594371237404 3.47808286584252 -0.786791450895392
-1.34789447000509 3.55918904731378 -0.809133855701333
-1.37975205014331 3.64048121127507 -0.831873697127569
-1.4115002764026 3.72195191091415 -0.855013900004571
-1.44312297649456 3.80359358929824 -0.878557266165409
-1.47460398382586 3.88539857433712 -0.902506468551636
-1.50592713910573 3.96735907374865 -0.926864045320812
-1.53707629221433 4.04946717008827 -0.951632393996223
-1.56803530473381 4.13171481594089 -0.976813765723746
-1.59878805274031 4.21409382917677 -1.00241025957092
-1.62931842960602 4.29659588820982 -1.02842381682762
-1.65961034880123 4.37921252725595 -1.05485621530678
-1.68964774669641 4.46193513159137 -1.08170906364507
-1.71941458536424 4.54475493281094 -1.10898379560358
-1.74889485538168 4.62766300408648 -1.13668166436851
-1.77807257863205 4.71065025542509 -1.1648037368519
-1.80693181111254 4.79370742899457 -1.19335088806637
-1.8354566458843 4.87682509619286 -1.22232379742666
-1.86363121638447 4.95999365914465 -1.25172294994191
-1.89143969988068 5.04320335394207 -1.28154863933473
-1.91886632093107 5.12644425395242 -1.31180097123426
-1.94589535484433 5.20970627312592 -1.34247986636937
-1.97251113113971 5.29297916930345 -1.37358506376171
-1.99869803700705 5.37625254752432 -1.40511612391888
-2.02444052076677 5.45951586333398 -1.43707243202753
-2.04972309532994 5.54275842609179 -1.4694532011465
-2.07453034167917 5.62596940223031 -1.50225747534282
-2.09884691289289 5.7091378172553 -1.53548413134284
-2.12265753954898 5.79225255454885 -1.56913187641409
-2.14594703567172 5.87530235291324 -1.6031992447622
-2.16870030469966 5.95827580406631 -1.63768459387076
-2.19090234545351 6.0411613501369 -1.67258610084116
-2.21253825810399 6.12394728116016 -1.70790175873245
-2.23359325013969 6.20662173257304 -1.74362937290116
-2.25405264233497 6.2891726827096 -1.77976655734117
-2.27390187471781 6.37158795029647 -1.81631073102351
-2.29312651261695 6.45385519197035 -1.85325911424538
-2.31171225477063 6.53596190037212 -1.89060872521595
-2.32964494666831 6.61789540370418 -1.92835637724363
-2.34691059595398 6.69964286586438 -1.96649867616022
-2.36349538790877 6.78119128660204 -2.00503201775417
-2.37938570093355 6.86252750167401 -2.04395258520379
-2.39456812203146 6.94363818300072 -2.08325634651057
-2.40902946229057 7.02450983882225 -2.12293905193241
-2.42275677236641 7.10512881385436 -2.16299623141687
-2.43573735796462 7.18548128944452 -2.20342319203445
-2.44795879519551 7.26555328380491 -2.24421501551475
-2.45940894260153 7.34533065424465 -2.28536655845944
-2.47007594473881 7.42479910447716 -2.32687245934978
-2.47994823243146 7.50394419392687 -2.36872714823089
-2.48901452289796 7.58275134711281 -2.410924856499
-2.49726381987753 7.66120586303219 -2.45345962668866
-2.5046854137565 7.73929292454396 -2.49632532225992
-2.51126888169468 7.81699760775244 -2.53951563738561
-2.51700408775174 7.89430489139088 -2.58302410673851
-2.52188118301356 7.97119966620502 -2.62684411527856
-2.52589060568099 8.04766674432348 -2.67096890802976
-2.5290230801805 8.12369086828343 -2.71539159958775
-2.53126961379181 8.19925671918172 -2.76010518294372
-2.5326214922975 8.27434892448126 -2.8051025380392
-2.5330702755949 8.34895206580426 -2.85037644031033
-2.53260779330806 8.42305068672544 -2.89591956923227
-2.53122614039966 8.49662930056521 -2.94172451686346
-2.52891767278298 8.56967239818288 -2.98778379639005
-2.52567500293378 8.64216445576989 -3.03408985067017
-2.5214909955023 8.71408994264297 -3.0806350607783
-2.5163587630585 8.78543332904396 -3.12741175451205
-2.51027166530459 8.85617909411011 -3.17441221392205
-2.50322331708894 8.92631173427767 -3.22162868036215
-2.49520759988725 8.99581577185593 -3.26905335856274
-2.48621867341696 9.0646757636079 -3.31667842066651
-2.47625098725182 9.13287630933099 -3.36449601026423
-2.46529929243634 9.20040206043767 -3.41249824643045
-2.45335865310027 9.26723772853615 -3.46067722775931
-2.44042445807312 9.33336809401101 -3.50902503640028
-2.42649243249863 9.39877801460394 -3.55753374209391
-2.41155864947182 9.46345243405473 -3.60619540623084
-2.39561954226276 9.52737639231293 -3.65500208651576
-2.37867191802962 9.59053503973612 -3.70394584316675
-2.36071297211839 9.65291365285876 -3.75301874571965
-2.34174030238524 9.71449765022139 -3.80221287985559
-2.32175192351882 9.77527260819988 -3.85152035422852
-2.30074628136258 9.83522427683468 -3.90093330729286
-2.27872226723706 9.89433859566002 -3.950443914131
-2.25567923226226 9.95260170953315 -4.00004439328088
-2.2316170016799 10.0099999844636 -4.04972701356356
-2.20653588907073 10.0665200234417 -4.09948410090829
-2.18043670784056 10.1221486822509 -4.14930804511249
-2.15332077577317 10.176873085238 -4.19919130643654
-2.12518991685206 10.2306806410674 -4.24912642213358
-2.09604646297706 10.2835590584744 -4.29910601297665
-2.065893255681 10.3354963620185 -4.34912278978601
-2.03473364784637 10.386480907837 -4.39916955995633
-2.002571505422 10.4365013993982 -4.44923923398391
-1.96941120913965 10.4855469032548 -4.49932483199396
-1.93525765623074 10.5336068647975 -4.5494194902678
-1.90011626201363 10.5806711238888 -4.5995164677225
-1.86399295811822 10.626729927392 -4.64960915115339
-1.82689418217447 10.6717739338184 -4.69969105733589
-1.78882686413818 10.7157942148696 -4.74975583389029
-1.74979841248741 10.7587822568604 -4.79979726009886
-1.70981670041892 10.8007299621414 -4.84980924772294
-1.66889005204467 10.841629650522 -4.89978584182013
-1.62702722858818 10.8814740606929 -4.94972122156138
-1.58423741458105 10.9202563516495 -4.99960970104813
-1.54053020405936 10.9579701041141 -5.04944573012945
-1.49591558677491 10.9946093219183 -5.09922389520309
-1.45040393479064 11.0301684323244 -5.14893891959896
-1.40400599005136 11.0646422836542 -5.19858566290256
-1.35673285233865 11.098026141858 -5.2481591198608
-1.30859596724059 11.1303156870419 -5.29765441927175
-1.25960711412145 11.1615070099958 -5.34706682287445
-1.2097783940914 11.1915966087209 -5.39639172423864
-1.1591222179762 11.2205813849578 -5.4456246476545
-1.1076512942869 11.2484586407137 -5.4947612470225
-1.05537861718957 11.2752260747906 -5.54379730474308
-1.00231745453037 11.3008817794752 -5.59272873065225
-0.948481337301138 11.3254242414522 -5.64155156214765
-0.893884052761446 11.3488523534381 -5.69026196733682
-0.838539639001152 11.3711654300382 -5.73885624937586
-0.782462379558338 11.3923632237655 -5.787330850854
-0.725666798037244 11.4124459410602 -5.83568235817817
-0.668167652726213 11.4314142583089 -5.88390750595746
-0.609979931215621 11.449269337864 -5.93200318138771
-0.551118845015823 11.466012844063 -5.979966428636
-0.491599824175088 11.4816469592474 -6.02779445322521
-0.431438511811921 11.4961743997226 -6.07548462639208
-0.370650756421327 11.5095984301608 -6.12303448875672
-0.309252598530312 11.5219228740528 -6.17044175224448
-0.247260255127333 11.5331521226043 -6.21770430131924
-0.184690104006124 11.5432911435715 -6.26482019419031
-0.121558668109527 11.5523454900971 -6.31178766401922
-0.0578825998733174 11.5603213095464 -6.35860512012659
0.0063213344299636 11.5672253523427 -6.40527114919901
0.0710362703471834 11.5730649808038 -6.45178451649582
0.136245260900787 11.5778481779775 -6.49814416705603
0.201931292337556 11.5815835562137 -6.54434922682344
0.268077302284609 11.5842803588641 -6.5903990016488
0.334666204016096 11.5859484445402 -6.63629297090249
0.401680913127138 11.5865982644994 -6.68203077896416
[...]
POINT_DATA 1151
SCALARS MaximumInscribedSphereRadius float
LOOKUP_TABLE default
1.86
1.86
1.86
1.86
1.86
1.86
1.86
1.86
1.86
1.86
1.86
1.86
1.86
1.86
1.86
1.86
1.86
1.86
1.86
1.86
1.86
1.86
1.86
1.86
1.86
1.86
1.86
1.86
1.86
1.86
1.86
1.86
1.86
1.86
1.86
1.86
1.86
1.86
1.86
1.86
1.86
1.86
1.86
1.86
1.86
1.86
1.86
1.86
1.86
1.86
1.86
1.86
1.86
1.86
1.86
1.86
1.86
1.8400521739130438
1.8179478260869566
1.7958434782608699
1.7737391304347827
1.7516347826086958
1.729530434782609
1.7074260869565219
1.685321739130435
1.663217391304348
1.6411130434782608
1.619008695652174
1.5969043478260871
1.5748000000000002
1.5526956521739133
1.530591304347826
1.5084869565217391
1.4863826086956524
1.4642782608695653
1.4421739130434783
1.4200695652173914
1.3979652173913044
1.3758608695652175
1.3537565217391307
1.3316521739130436
1.3095478260869566
1.2874434782608697
1.2653391304347825
1.2432347826086958
1.2588695652173914
1.280973913043478
1.303078260869565
1.3251826086956522
1.3472869565217391
1.3693913043478259
1.391495652173913
1.4136
1.4357043478260867
1.4578086956521739
1.4799130434782608
1.5020173913043475
1.5241217391304347
1.5462260869565216
1.5683304347826088
1.5904347826086955
1.6125391304347825
1.6346434782608696
1.6567478260869564
1.6788521739130433
1.7009565217391305
1.7230608695652174
1.7451652173913041
1.7672695652173913
1.789373913043478
1.8114782608695652
1.8335826086956521
1.855686956521739
1.8628466086956523
1.8663833043478262
1.86992
1.873456695652174
1.876993391304348
1.8805300869565218
1.8840667826086956
1.8876034782608697
1.8911401739130436
1.8946768695652174
1.8982135652173915
1.9017502608695653
1.9052869565217392
1.908823652173913
1.9123603478260869
1.915897043478261
1.9194337391304348
1.9229704347826087
1.9265071304347827
1.9300438260869566
1.9335805217391304
1.9371172173913043
1.9406539130434783
1.9441906086956522
1.947727304347826
1.951264
1.954800695652174
1.9583373913043478
1.9732389565217392
1.9918066086956523
2.010374260869565
2.0289419130434783
2.0475095652173914
2.066077217391304
2.084644869565217
2.1032125217391306
2.1217801739130433
2.1403478260869564
2.1589154782608695
2.177483130434782
2.1960507826086957
2.214618434782609
2.2331860869565214
2.2517537391304345
2.270321391304348
2.2888890434782607
2.307456695652174
2.326024347826087
2.3445919999999996
2.3631596521739127
2.381727304347826
2.400294956521739
2.418862608695652
2.437430260869565
2.455997913043478
2.4745655652173912
2.472182608695652
2.461130434782609
2.4500782608695655
2.4390260869565217
2.4279739130434783
2.416921739130435
2.405869565217391
2.394817391304348
2.3837652173913044
2.372713043478261
2.3616608695652173
2.350608695652174
2.3395565217391305
2.3285043478260867
2.317452173913044
2.3064
2.2953478260869566
2.2842956521739133
2.2732434782608695
2.262191304347826
2.2511391304347828
2.2400869565217394
2.2290347826086956
2.2179826086956522
2.206930434782609
2.195878260869565
2.1848260869565217
2.1737739130434783
2.163304
2.153136
2.142968
2.1328
2.122632
2.112464
2.102296
2.0921279999999998
2.08196
2.0717920000000003
2.061624
2.051456
2.041288
2.03112
2.0209520000000003
2.010784
2.000616
1.9904480000000002
1.98028
1.970112
1.9599440000000001
1.9497760000000002
1.939608
1.92944
1.9192720000000003
1.9091040000000001
1.898936
1.8887680000000002
1.897739130434782
1.9189593043478261
1.9401794782608692
1.9613996521739123
1.9826198260869565
2.0038399999999994
2.025060173913044
2.046280347826087
2.06750052173913
2.088720695652174
2.109940869565217
2.1311610434782606
2.1523812173913046
2.1736013913043477
2.194821565217391
2.216041739130435
2.2372619130434783
2.258482086956521
2.2797022608695654
2.3009224347826085
2.3221426086956516
2.343362782608696
2.364582956521739
2.385803130434782
2.407023304347826
2.4282434782608693
2.4494636521739124
2.4706838260869564
2.4676000000000005
2.4454956521739137
2.423391304347826
2.4012869565217394
2.3791826086956527
2.357078260869565
2.334973913043479
2.312869565217392
2.2907652173913045
2.2686608695652177
2.246556521739131
2.2244521739130434
2.2023478260869567
2.1802434782608704
2.158139130434783
2.136034782608696
2.1139304347826093
2.0918260869565217
2.0697217391304354
2.0476173913043487
2.025513043478261
2.0034086956521744
1.9813043478260879
1.9592
1.9370956521739136
1.914991304347827
1.8928869565217394
1.8707826086956527
1.86
1.86
1.86
1.86
1.86
1.86
1.86
1.86
1.86
1.86
1.86
1.86
1.86
1.86
1.86
1.86
1.86
1.86
1.86
1.86
1.86
1.86
1.86
1.86
1.86
1.86
1.86
1.86
1.86
1.86
1.86
1.86
1.86
1.86
1.86
1.86
1.86
1.86
1.86
1.86
1.86
1.86
1.86
1.86
1.86
1.86
1.86
1.86
1.86
1.86
1.86
1.86
1.86
1.86
1.86
1.86
1.8645826086956523
1.8756347826086956
1.886686956521739
1.8977391304347828
1.908791304347826
1.9198434782608693
1.9308956521739131
1.9419478260869565
1.9529999999999996
1.9640521739130437
1.9751043478260868
1.9861565217391302
1.997208695652174
2.008260869565217
2.0193130434782605
2.0303652173913043
2.0414173913043476
2.052469565217391
2.063521739130435
2.074573913043478
2.0856260869565215
2.0966782608695653
2.1077304347826082
2.1187826086956516
2.1298347826086954
2.1408869565217388
2.151939130434782
2.162991304347826
2.157869565217392
2.124713043478262
2.0915565217391308
2.0584000000000007
2.0252434782608706
1.9920869565217392
1.9589304347826093
1.9257739130434794
1.892617391304348
1.8594608695652182
1.8263043478260883
1.7931478260869569
1.7599913043478268
1.726834782608697
1.6936782608695655
1.6605217391304357
1.6273652173913058
1.5942086956521742
1.5610521739130445
1.5278956521739144
1.494739130434783
1.4615826086956532
1.4284260869565215
1.3952695652173919
1.3621130434782618
1.3289565217391304
1.2958000000000003
1.2626434782608706
1.24
1.24
1.24
1.24
1.24
1.24
1.24
1.24
1.24
1.24
1.24
1.24
1.24
1.24
1.24
1.24
1.24
1.24
1.24
1.24
1.24
1.24
1.24
1.24
1.24
1.24
1.24
1.24
1.24
1.24
1.24
1.24
1.24
1.24
1.24
1.24
1.24
1.24
1.24
1.24
1.24
1.24
1.24
1.24
1.24
1.24
1.24
1.24
1.24
1.24
1.24
1.24
1.24
1.24
1.24
1.24
1.2426686956521733
1.2548260869565209
1.2669834782608698
1.2791408695652173
1.291298260869565
1.3034556521739127
1.3156130434782602
1.3277704347826078
1.3399278260869567
1.3520852173913043
1.3642426086956518
1.3763999999999994
1.3885573913043472
1.4007147826086959
1.4128721739130436
1.4250295652173912
1.4371869565217388
1.4493443478260863
1.4615017391304341
1.4736591304347828
1.4858165217391304
1.4979739130434782
1.5101313043478257
1.5222886956521733
1.534446086956521
1.5466034782608697
1.5587608695652175
1.570918260869565
1.5798300869565218
1.5729777391304351
1.5661253913043482
1.5592730434782607
1.5524206956521738
1.545568347826087
1.5387160000000002
1.5318636521739133
1.5250113043478266
1.518158956521739
1.5113066086956521
1.5044542608695652
1.4976019130434786
1.4907495652173917
1.4838972173913048
1.4770448695652172
1.4701925217391305
1.4633401739130436
1.4564878260869567
1.44963547826087
1.4427831304347831
1.4359307826086956
1.4290784347826087
1.422226086956522
1.415373739130435
1.4085213913043482
1.4016690434782615
1.394816695652174
1.3883147826086957
1.3843360000000002
1.3803572173913046
1.376378434782609
1.3723996521739132
1.3684208695652174
1.3644420869565217
1.3604633043478263
1.3564845217391306
1.352505739130435
1.348526956521739
1.3445481739130434
1.340569391304348
1.3365906086956523
1.3326118260869566
1.3286330434782612
1.324654260869565
1.3206754782608694
1.316696695652174
1.3127179130434783
1.3087391304347826
1.3047603478260872
1.300781565217391
1.2968027826086956
1.292824
1.2888452173913043
1.2848664347826089
1.2808876521739132
1.277102956521739
1.2757766956521739
1.2744504347826087
1.2731241739130434
1.2717979130434782
1.270471652173913
1.2691453913043478
1.2678191304347826
1.2664928695652173
1.2651666086956521
1.263840347826087
1.2625140869565217
1.2611878260869565
1.2598615652173912
1.258535304347826
1.2572090434782608
1.2558827826086956
1.2545565217391306
1.2532302608695651
1.251904
1.2505777391304347
1.2492514782608697
1.2479252173913045
1.2465989565217392
1.2452726956521738
1.2439464347826088
1.2426201739130436
1.2412939130434784
1.24
1.24
1.24
1.24
1.24
1.24
1.24
1.24
1.24
1.24
1.24
1.24
1.24
1.24
1.24
1.24
1.24
1.24
1.24
1.24
1.24
1.24
1.24
1.24
1.24
1.24
1.24
1.24
1.24
1.2507826086956515
1.2618347826086949
1.2728869565217393
1.2839391304347825
1.2949913043478258
1.3060434782608692
1.3170956521739123
1.3281478260869557
1.3392000000000002
1.3502521739130433
1.3613043478260867
1.37235652173913
1.3834086956521732
1.3944608695652165
1.405513043478261
1.4165652173913044
1.4276173913043475
1.4386695652173909
1.449721739130434
1.4607739130434774
1.4718260869565218
1.482878260869565
1.4939304347826083
1.5049826086956517
1.516034782608695
1.5270869565217393
1.5381391304347827
1.549191304347826
1.5409857391304351
1.531259826086957
1.5215339130434788
1.5118079999999998
1.5020820869565217
1.4923561739130438
1.4826302608695656
1.4729043478260875
1.4631784347826093
1.4534525217391303
1.4437266086956522
1.434000695652174
1.424274782608696
1.414548869565218
1.4048229565217398
1.3950970434782608
1.3853711304347827
1.3756452173913045
1.3659193043478264
1.3561933913043482
1.34646747826087
1.336741565217391
1.327015652173913
1.317289739130435
1.3075638260869569
1.2978379130434787
1.2881120000000006
1.2783860869565216
1.2954441739130431
1.3162222608695646
1.337000347826086
1.3577784347826074
1.3785565217391287
1.3993346086956522
1.4201126956521737
1.440890782608695
1.4616688695652165
1.4824469565217377
1.5032250434782592
1.5240031304347825
1.544781217391304
1.5655593043478255
1.5863373913043468
1.607115478260868
1.6278935652173896
1.648671652173913
1.6694497391304344
1.6902278260869559
1.7110059130434774
1.7317839999999987
1.7525620869565222
1.7733401739130434
1.794118260869565
1.8148963478260862
1.8356744347826077
1.8564525217391292
1.8416695652173911
1.8195652173913046
1.797460869565218
1.7753565217391314
1.7532521739130447
1.7311478260869582
1.7090434782608694
1.6869391304347827
1.6648347826086962
1.6427304347826097
1.620626086956523
1.5985217391304365
1.5764173913043478
1.554313043478261
1.5322086956521745
1.510104347826088
1.4880000000000013
1.4658956521739148
1.443791304347826
1.4216869565217394
1.3995826086956529
1.3774782608695662
1.3553739130434797
1.333269565217393
1.3111652173913044
1.2890608695652177
1.266956521739131
1.2448521739130445
1.2313739130434789
1.2203217391304357
1.2092695652173913
1.198217391304348
1.1871652173913048
1.1761130434782614
1.165060869565218
1.154008695652175
1.1429565217391304
1.131904347826087
1.120852173913044
1.1098000000000006
1.0987478260869574
1.087695652173914
1.0766434782608696
1.0655913043478265
1.054539130434783
1.0434869565217397
1.0324347826086964
1.0213826086956521
1.0103304347826088
0.9992782608695655
0.9882260869565223
0.9771739130434789
0.9661217391304356
0.9550695652173913
0.9440173913043479
0.9329652173913047
0.954260869565216
0.9874173913043459
1.0205739130434759
1.053730434782609
1.086886956521739
1.1200434782608688
1.1531999999999987
1.1863565217391285
1.2195130434782584
1.2526695652173916
1.2858260869565215
1.3189826086956513
1.3521391304347812
1.385295652173911
1.418452173913041
1.451608695652174
1.484765217391304
1.5179217391304338
1.5510782608695637
1.5842347826086935
1.6173913043478234
1.6505478260869566
1.6837043478260865
1.7168608695652163
1.7500173913043462
1.783173913043476
1.8163304347826061
1.8494869565217391
1.8524521739130437
1.8414000000000006
1.8303478260869572
1.8192956521739139
1.8082434782608705
1.7971913043478263
1.786139130434783
1.7750869565217395
1.7640347826086964
1.752982608695653
1.7419304347826097
1.7308782608695654
1.719826086956522
1.7087739130434787
1.6977217391304356
1.6866695652173922
1.6756173913043477
1.6645652173913046
1.6535130434782612
1.6424608695652179
1.6314086956521747
1.6203565217391314
1.609304347826087
1.5982521739130435
1.5872000000000004
1.576147826086957
1.5650956521739139
1.5540434782608705
1.542991304347826
1.5319391304347827
1.5208869565217396
1.5098347826086962
1.4987826086956528
1.4877304347826097
1.4766782608695652
1.4656260869565219
1.4545739130434787
1.4435217391304354
1.432469565217392
1.4214173913043489
1.4103652173913044
1.399313043478261
1.3882608695652179
1.3772086956521745
1.3661565217391312
1.3551043478260878
1.3440521739130435
1.3330000000000002
1.3219478260869568
1.3108956521739137
1.2998434782608703
1.2887913043478272
1.2777391304347827
1.2666869565217393
1.2556347826086962
1.2445826086956528
1.2335304347826095
1.2224782608695661
1.2114260869565219
1.2003739130434785
1.1893217391304352
1.178269565217392
1.1672173913043487
1.1561652173913042
1.145113043478261
1.1340608695652177
1.1230086956521743
1.1119565217391312
1.1009043478260878
1.0898521739130436
1.0788000000000002
1.0677478260869568
1.0566956521739135
1.0456434782608703
1.034591304347827
1.0235391304347825
1.0124869565217394
1.001434782608696
0.9903826086956528
0.9793304347826095
0.9682782608695661
0.9572260869565218
0.9461739130434785
0.9351217391304352
0.9359304347826082
0.9469826086956514
0.9580347826086948
0.9690869565217392
0.9801391304347824
0.9911913043478258
1.0022434782608691
1.0132956521739123
1.0243478260869556
1.0354
1.0464521739130432
1.0575043478260866
1.0685565217391297
1.079608695652173
1.0906608695652165
1.1017130434782607
1.112765217391304
1.1238173913043474
1.1348695652173908
1.145921739130434
1.1569739130434773
1.1680260869565218
1.179078260869565
1.1901304347826083
1.2011826086956514
1.2122347826086948
1.2232869565217381
1.2343391304347824
1.2346086956521742
1.2235565217391309
1.2125043478260877
1.2014521739130444
1.1904
1.1793478260869568
1.1682956521739134
1.15724347826087
1.146191304347827
1.1351391304347835
1.124086956521739
1.113034782608696
1.1019826086956526
1.0909304347826092
1.079878260869566
1.0688260869565227
1.0577739130434782
1.046721739130435
1.0356695652173917
1.0246173913043484
1.0135652173913052
1.0025130434782619
0.9914608695652174
0.9804086956521741
0.9693565217391309
0.9583043478260875
0.9472521739130443
0.936200000000001
0.9348521739130423
0.9459043478260857
0.9569565217391289
0.9680086956521744
0.9790608695652178
0.990113043478261
1.0011652173913044
1.0122173913043475
1.0232695652173909
1.0343217391304342
1.0453739130434774
1.0564260869565207
1.067478260869564
1.0785304347826072
1.0895826086956506
1.1006347826086962
1.1116869565217393
1.1227391304347827
1.133791304347826
1.1448434782608692
1.1558956521739125
1.166947826086956
1.177999999999999
1.1890521739130424
1.2001043478260858
1.211156521739129
1.2222086956521745
1.2332608695652176
1.235686956521739
1.2246347826086956
1.2135826086956523
1.2025304347826091
1.1914782608695658
1.1804260869565224
1.1693739130434793
1.158321739130436
1.1472695652173925
1.1362173913043494
1.1251652173913038
1.1141130434782605
1.1030608695652173
1.092008695652174
1.0809565217391306
1.0699043478260875
1.058852173913044
1.0478000000000007
1.0367478260869576
1.0256956521739142
1.0146434782608709
1.0035913043478277
0.9925391304347821
0.9814869565217389
0.9704347826086956
0.9593826086956523
0.948330434782609
0.9372782608695658
0.9337739130434777
0.9448260869565209
0.9558782608695642
0.9669304347826075
0.9779826086956508
0.989034782608694
1.0000869565217396
1.011139130434783
1.0221913043478261
1.0332434782608695
1.0442956521739126
1.055347826086956
1.0663999999999993
1.0774521739130427
1.0885043478260858
1.0995565217391292
1.1106086956521724
1.1216608695652157
1.1327130434782613
1.1437652173913047
1.1548173913043478
1.1658695652173912
1.1769217391304343
1.1879739130434777
1.199026086956521
1.2100782608695644
1.2211304347826075
1.2321826086956509
1.2367652173913057
1.2257130434782604
1.214660869565217
1.2036086956521739
1.1925565217391305
1.1815043478260872
1.170452173913044
1.1594000000000007
1.1483478260869573
1.137295652173914
1.1262434782608708
1.1151913043478274
1.1041391304347843
1.0930869565217387
1.0820347826086953
1.0709826086956522
1.0599304347826088
1.0488782608695655
1.0378260869565223
1.026773913043479
1.0157217391304356
1.0046695652173923
0.9936173913043491
0.9825652173913058
0.9715130434782625
0.960460869565217
0.9494086956521737
0.9383565217391304
0.9326956521739129
0.9437478260869562
0.9547999999999995
0.9658521739130428
0.9769043478260862
0.9879565217391294
0.9990086956521727
1.010060869565216
1.0211130434782592
1.0321652173913047
1.043217391304348
1.0542695652173912
1.0653217391304346
1.076373913043478
1.087426086956521
1.0984782608695645
1.1095304347826078
1.120582608695651
1.1316347826086943
1.1426869565217377
1.153739130434783
1.1647913043478264
1.1758434782608698
1.186895652173913
1.1979478260869563
1.2089999999999996
1.2200521739130428
1.2311043478260861
1.24
1.24
1.24
1.24
1.24
1.24
1.24
1.24
1.24
1.24
1.24
1.24
1.24
1.24
1.24
1.24
1.24
1.24
1.24
1.24
1.24
1.24
1.24
1.24
1.24
1.24
1.24
1.24
1.24
1.24
1.24
1.24
1.24
1.24
1.24
1.24
1.24
1.24
1.24
1.24
1.24
1.24
1.24
1.24
1.24
1.24
1.24
1.24
1.24
1.24
1.24
1.24
1.24
1.24
1.24
1.24
1.2411860869565212
1.2533434782608688
1.2655008695652163
1.2776582608695641
1.2898156521739117
1.3019730434782593
1.3141304347826068
1.3262878260869568
1.3384452173913046
1.3506026086956522
1.3627599999999997
1.3749173913043473
1.387074782608695
1.3992321739130427
1.4113895652173902
1.4235469565217378
1.4357043478260856
1.4478617391304331
1.4600191304347807
1.4721765217391307
1.4843339130434785
1.496491304347826
1.5086486956521736
1.5208060869565212
1.5329634782608688
1.5451208695652165
1.5572782608695641
1.5694356521739117
1.5798678260869594
1.5566582608695685
1.5334486956521776
1.510239130434782
1.487029565217391
1.4638200000000001
1.4406104347826092
1.4174008695652183
1.3941913043478276
1.3709817391304364
1.3477721739130457
1.3245626086956548
1.3013530434782639
1.278143478260873
1.2549339130434773
1.2317243478260864
1.2085147826086955
1.1853052173913046
1.1620956521739139
1.1388860869565227
1.115676521739132
1.092466956521741
1.0692573913043502
1.0460478260869592
1.0228382608695683
0.9996286956521774
0.9764191304347819
0.953209565217391
0.93
FIELD FieldData 2
Curvature 1 1151 double
0.175079141236612
0.16871006874219
0.162601348045745
0.156742214900813
0.151122398438905
0.145732124577562
0.140562115751177
0.135603587724511
0.130848244121787
0.126288269192156
0.121916319232861
0.117725475067253
0.113709119856144
0.109861044712478
0.106175474396353
0.102647054351687
0.0992708376037204
0.0960422714744181
0.0929571840259465
0.0900117700979736
0.0872025767630368
0.0845264746359599
0.0819806007388213
0.0795623795544645
0.0772695168302946
0.0750999784720928
0.0730519674686239
0.0711238986401986
0.0693143710695202
0.0676221381662113
0.0660460754385599
0.0645850319458401
0.0632374534360687
0.0620016939032611
0.0608760991685763
0.0598589778562459
0.0589485750614472
0.0581430495404969
0.0574404552031214
0.0568387275755773
0.0563356757347955
0.0559289720359486
0.0556161200533411
0.0553944680372034
0.0552612303085331
0.0552135085223314
0.0552483167862784
0.0553626095378296
0.0555533110393696
0.0558173453820167
0.0561516659833691
0.0565532799986174
0.0570192562176067
0.05754674812715
0.0581330180349787
0.0587754562543762
0.0594715971666053
0.060219132237267
0.0610159201645131
0.0618599944098598
0.0627495684085906
0.0636831831561265
0.0646600922245157
0.0656797427403065
0.0667416196766508
0.0678452465466904
0.0689901856649308
0.0701760380017668
0.071402442657661
0.0726690759836295
0.0739756503739325
0.0753217975889969
0.0767067494872331
0.0781297302415329
0.0795900756693818
0.0810872302305985
0.0826207439906271
0.084190269629683
0.0857955595633081
0.0874364632269063
0.0891129245657917
0.0908248250015515
0.0925714965821467
0.0943521497240139
0.0961660236158505
0.0980123870476167
0.0998905392112899
0.101799810539223
0.103739563642901
0.105709194411971
0.107708133331055
0.10973615186426
0.111794242179532
0.113883637929841
0.116005496053624
0.118160891880256
0.120350813890587
0.122576158098778
0.124837722023774
0.127136198221006
0.129472167347603
0.131846180513624
0.134259030927849
0.136711493894647
0.139204230244983
0.141737776350234
0.144312533493878
0.146928756578554
0.149586542152266
0.152285815744865
0.155026318514795