# vtk DataFile Version 2.0
Vessel Segment
ASCII
DATASET POLYDATA
POINTS 1161 float
-0.258773861330363 0.160957237123023 -0.0427310402973384
-0.201242417339749 0.178934156222501 -0.101118447068045
-0.145487906250859 0.197749244926936 -0.159129841734364
-0.0914885442267822 0.217396747171702 -0.216768333455195
-0.0392225474351675 0.237870906895326 -0.274037031389252
0.0113318679832551 0.259165968020151 -0.330939044689481
0.0601964859461526 0.281276174433009 -0.387477482497477
0.107393090461067 0.304195769965891 -0.443655453937906
0.152943465656894 0.327918998376617 -0.499476068112919
0.196869395815361 0.352440103329506 -0.554942434096576
0.239192665402505 0.377753328376044 -0.610057660929259
0.279935059102918 0.403852916934183 -0.664824857610922
0.319118361925951 0.430733112231911 -0.719247133063906
0.356764359494567 0.458388157160151 -0.773327596018489
0.392894838406156 0.486812294089928 -0.827069354868003
0.427531586596115 0.515999764688171 -0.880475517522785
0.460696393701427 0.545944809733507 -0.933549191264124
0.492411051424243 0.576641668932061 -0.986293482598204
0.522697353895458 0.608084580733254 -1.03871149711006
0.551577098038297 0.640267782145601 -1.0908063393175
0.579072083931887 0.673185508552507 -1.14258111252511
0.605204115175131 0.70683199353035 -1.19403891867324
0.629994999257908 0.74120146872595 -1.24518285806049
0.653466547950959 0.776288163884788 -1.29601602874441
0.675640577703104 0.812086306938609 -1.34654152581563
0.696538910038751 0.848590124095314 -1.39676244066708
0.716183371955404 0.885793839928847 -1.44668186026321
0.73459579632117 0.923691677469086 -1.4963028664092
0.751798022272265 0.962277858291732 -1.54562853502018
0.767811895610523 1.0015466026082 -1.59466193539049
0.782659269200901 1.04149212935549 -1.64340612946282
0.796362003359352 1.08210865629156 -1.69186417109042
0.808941965990174 1.12339040023204 -1.74003910511434
0.820421032087409 1.16533157764601 -1.78793396597171
0.830821082985726 1.20792640539324 -1.83555177611919
0.84016400560166 1.2511691014668 -1.8828955444493
0.848471691674859 1.29505388573569 -1.92996826470673
0.855766037009325 1.33957498068753 -1.97677291390473
0.862068940714655 1.38472661217116 -2.02331245074143
0.867402304447291 1.43050301013929 -2.06958981401617
0.871788031651755 1.47689840939117 -2.11560792104585
0.875248026786366 1.52390705031249 -2.16136966608724
0.877804194145111 1.57152317954506 -2.2068779189147
0.879478435654383 1.61974105047796 -2.25213552379235
0.880292648265893 1.66855492366847 -2.29714529860164
0.880268721334038 1.71795906726026 -2.34191003397489
0.879428533993272 1.76794775740155 -2.38643249242888
0.87779395253548 1.81851527866333 -2.43071540749832
0.875386827787351 1.86965592445756 -2.47476148286948
0.872228992487746 1.92136399745533 -2.51857339151369
0.868342258665076 1.97363381000507 -2.56215377482089
0.863748414991002 2.02645968453842 -2.60550524173865
0.858469223518776 2.07983595365556 -2.64863036805313
0.852526414859513 2.13375695939699 -2.6915316960304
0.845941682743093 2.18821705219471 -2.7342117341997
0.838736678555399 2.24321058981116 -2.77667295714215
0.830933005875554 2.29873193627811 -2.81891780527954
0.822552215013162 2.35477546083557 -2.86094868466296
0.81361579754554 2.41133553687067 -2.90276796676165
0.804145180854959 2.46840654085659 -2.9443779882516
0.79416172266588 2.52598285129145 -2.9857810508044
0.783686705584299 2.58405884762012 -3.02697942089438
0.772741331691797 2.64262890871144 -3.06797533008709
0.761346717278488 2.70168741020703 -3.10877097654914
0.749523887630676 2.76122872142547 -3.14936852703932
0.737293771820619 2.82124720224943 -3.18977011891812
0.724677197496285 2.88173720001276 -3.22997786215733
0.711694885671123 2.94269304638763 -3.26999384134962
0.698367445513818 3.00410905427161 -3.30982011771812
0.684715369138058 3.06597951467481 -3.34945873112596
0.670759026392292 3.12829869360697 -3.38891170208587
0.656518659658672 3.19106082895388 -3.4281810337784
0.642014378890582 3.25426012707512 -3.46726871429464
0.627266157255823 3.31789075869465 -3.50617671944886
0.612293827018389 3.38194685451265 -3.54490701581577
0.597117075429418 3.44642250080678 -3.58346156377627
0.581755440618147 3.51131173503332 -3.62184232056334
0.566228307482863 3.57660854142842 -3.66005124330783
0.550554903581858 3.64230684660924 -3.69809029208429
0.534754295024377 3.7084005151752 -3.73596143295682
0.518845382361576 3.77488334530912 -3.77366664102486
0.502846896489069 3.84174906437101 -3.81120790347422
0.486777394851069 3.90899132429798 -3.84858722276221
0.470655258410078 3.97660369651212 -3.88580662014345
0.454498688918174 4.04457966663465 -3.92286813932979
0.438325706199883 4.11291262919258 -3.9597738501555
0.422154145435064 4.18159588232526 -3.9965258522423
0.406001654441785 4.25062262249114 -4.03312627866458
0.389885690959201 4.31998593917435 -4.06957729961444
0.37382351993044 4.38967880959137 -4.10588112606684
0.357832210785473 4.45969409339766 -4.14204001344475
0.341928634753449 4.5300245274042 -4.17805626527791
0.32612946294069 4.60066272055141 -4.21393223669761
0.310451166352307 4.67160114953618 -4.2496703375149
0.294910016679486 4.74283215469631 -4.28527303513475
0.279522087116227 4.81434793590486 -4.32074285746395
0.264303253176074 4.88614054846442 -4.35608239581889
0.249269193508853 4.95820189900145 -4.39129430783349
0.234435390717408 5.03052374136061 -4.42638132036698
0.219817132174333 5.10309767249907 -4.46134623241183
0.205429510838709 5.1759151283808 -4.49619191800152
0.191287426099002 5.24896737991357 -4.53092132908955
0.177405585296226 5.32224552999464 -4.5655374976765
0.163798506973926 5.39574051337093 -4.60004353602867
0.150480524808422 5.46944309760798 -4.63444263614483
0.137465791565222 5.5433438841015 -4.66873806919413
0.124768283055428 5.61743330908896 -4.70293318495393
0.112401802092149 5.69170164466115 -4.73703141124767
0.100379982446909 5.76613899977378 -4.77103625338277
0.088716292806058 5.84073532125899 -4.80495129358843
0.0774240407271799 5.91548039483701 -4.83878019045358
0.0665163765735542 5.99036384613139 -4.87252667835624
0.0560062968779021 6.0653751417805 -4.90619456667436
0.045906646257403 6.14050359079348 -4.93978773844124
0.0362301187579986 6.21573834600232 -4.97331014878242
0.0269892591767475 6.29106840551773 -5.00676582334405
0.0181964643841783 6.36648261418493 -5.04015885672125
0.0098639846466443 6.44196966503955 -5.0734934108866
0.0020039249486767 6.51751810076342 -5.10677371361842
-0.005371753684661 6.59311631514042 -5.14000405692926
-0.0122512328654195 6.66875255451232 -5.17318879549427
-0.0186228355475405 6.74441491924041 -5.20633234506863
-0.0244750254370437 6.82009136531816 -5.23943918062106
-0.0297964081928685 6.89576970636704 -5.27251383374621
-0.0345757333331247 6.97143761578348 -5.30556088979306
-0.0388018961684749 7.04708262889146 -5.33858498498244
-0.0424639397355166 7.12269214509522 -5.37159080352447
-0.0455510567301646 7.19825343003194 -5.40458307473604
-0.0480525914410328 7.2737536177244 -5.43756657015832
-0.0499580416828167 7.34917971273368 -5.4705461006742
-0.0512570607296756 7.42451859231178 -5.50352651362582
-0.0519394593398895 7.49975700855412 -5.53651268990779
-0.0519952101536685 7.57488159054565 -5.56950954043142
-0.0514144581151151 7.64987884649104 -5.60252200099196
-0.0501875332673394 7.72473516583865 -5.63555502650678
-0.048304963638848 7.79943682140416 -5.66861358522929
-0.0457574881299341 7.87396997149427 -5.70170265296296
-0.042536069399067 7.94832066203038 -5.73482720727525
-0.0386319067492816 8.02247482867224 -5.76799222171158
-0.034036449014568 8.09641829894168 -5.80120266000929
-0.0287414074462609 8.17013679434624 -5.83446347031161
-0.0227387684924782 8.24361593260405 -5.86777957936089
-0.0160208037968163 8.31684123249919 -5.90115588615237
-0.0085800731382397 8.38979812541471 -5.93459725421875
-0.0004094245902287 8.46247196949599 -5.96810850337526
0.0084980054270252 8.53484806391551 -6.00169440144405
0.0181487920944239 8.60691166313744 -6.03535965597855
0.0285492221417659 8.67864799118231 -6.06910890598782
0.0397052937955513 8.75004225589168 -6.10294671366094
0.0516227167267862 8.82107966319275 -6.13687755609135
0.0643069119987861 8.8917454313631 -6.17090581700123
0.0777630119793865 8.96202480528813 -6.20503577847372
0.0919958593276888 9.03190307053344 -6.23927161288902
0.107010003631557 9.10136556694696 -6.2736173753783
0.122809697119649 9.17039770207593 -6.30807699648145
0.139398890337858 9.23898496457668 -6.34265427481272
0.156781227825749 9.30711293762447 -6.37735286972634
0.174960043792995 9.37476731232333 -6.41217629398218
0.193938357795822 9.44193390111588 -6.44712790641134
0.213718870413439 9.50859865119311 -6.48221090458183
0.234303958924484 9.57474765790427 -6.51742831746416
0.255695673023275 9.64036717814501 -6.55278299812916
0.27789573157137 9.70544364318305 -6.58827761728236
0.300905521977177 9.76996367005578 -6.62391465892194
0.324726100610866 9.83391407240543 -6.65969641683322
0.349358193259104 9.89728187129249 -6.69562499111541
0.374802195579777 9.96005430600917 -6.73170228470825
0.401058173556727 10.0222188448929 -6.76792999991874
0.428125863954479 10.0837631961398 -6.80430963494782
0.456004674772972 10.1446753186181 -6.84084248041703
0.484693685702291 10.2049434326816 -6.87752961589527
0.514191648649532 10.2645560308897 -6.91437190649261
0.544496990141298 10.3235018862957 -6.9513700011999
0.575607818487378 10.3817700545636 -6.98852433566023
0.607521932820056 10.4393498736525 -7.02583513668601
0.640236832205548 10.4962309634079 -7.06330242684335
0.673749724755454 10.5524032251537 -7.10092602903636
0.708057536738194 10.6078568412831 -7.13870557109149
0.743156921690458 10.66258227485 -7.17664049034182
0.779044269528646 10.7165702691603 -7.21473003821145
0.815715715660312 10.7698118473638 -7.25297328479973
0.853167150023977 10.822298312097 -7.29136912342797
0.891394224266488 10.8740212464843 -7.32991627420548
0.930392354192613 10.9249725185827 -7.36861328510671
0.970156720352192 10.9751442871846 -7.40745853206795
[...]
POINT_DATA 1161
SCALARS MaximumInscribedSphereRadius float
LOOKUP_TABLE default
1.55
1.55
1.55
1.55
1.55
1.55
1.55
1.55
1.55
1.55
1.55
1.55
1.55
1.55
1.55
1.55
1.55
1.55
1.55
1.55
1.55
1.55
1.55
1.55
1.55
1.55
1.5473275862068967
1.535301724137931
1.5232758620689655
1.51125
1.4992241379310345
1.487198275862069
1.4751724137931035
1.463146551724138
1.4511206896551725
1.439094827586207
1.4270689655172415
1.415043103448276
1.4030172413793103
1.3909913793103448
1.3789655172413793
1.3669396551724138
1.3549137931034483
1.3428879310344828
1.3308620689655173
1.3188362068965516
1.306810344827586
1.2947844827586206
1.282758620689655
1.2707327586206896
1.258706896551724
1.2466810344827586
1.245344827586207
1.2573706896551724
1.269396551724138
1.2814224137931034
1.293448275862069
1.3054741379310344
1.3175
1.3295258620689654
1.341551724137931
1.3535775862068966
1.365603448275862
1.3776293103448276
1.389655172413793
1.4016810344827586
1.413706896551724
1.4257327586206896
1.4377586206896553
1.4497844827586208
1.4618103448275863
1.4738362068965518
1.4858620689655173
1.4978879310344828
1.5099137931034483
1.5219396551724138
1.5339655172413793
1.5459913793103448
1.553046551724138
1.5576163793103448
1.5621862068965517
1.5667560344827587
1.5713258620689656
1.5758956896551726
1.5804655172413793
1.5850353448275862
1.5896051724137932
1.594175
1.5987448275862068
1.6033146551724138
1.6078844827586207
1.6124543103448277
1.6170241379310344
1.6215939655172413
1.6261637931034483
1.6307336206896552
1.6353034482758622
1.6398732758620689
1.6444431034482758
1.6490129310344828
1.6535827586206897
1.6581525862068964
1.6627224137931034
1.6672922413793103
1.653048275862069
1.6364525862068966
1.6198568965517242
1.6032612068965515
1.586665517241379
1.5700698275862066
1.5534741379310342
1.536878448275862
1.5202827586206895
1.503687068965517
1.4870913793103449
1.4704956896551724
1.4539
1.4373043103448275
1.420708620689655
1.4041129310344829
1.3875172413793104
1.3709215517241375
1.3543258620689653
1.3377301724137929
1.3211344827586204
1.3045387931034482
1.2879431034482758
1.2713474137931033
1.254751724137931
1.2440086206896552
1.2800862068965517
1.3161637931034482
1.3522413793103447
1.3883189655172412
1.4243965517241377
1.4604741379310342
1.4965517241379316
1.532629310344828
1.5687068965517246
1.604784482758621
1.6408620689655176
1.676939655172414
1.7130172413793106
1.749094827586207
1.7851724137931035
1.82125
1.8573275862068965
1.893405172413793
1.9294827586206895
1.965560344827586
2.0016379310344834
2.03771551724138
2.0737931034482764
2.109870689655173
2.145948275862069
2.1659913793103445
2.153965517241379
2.1419396551724135
2.1299137931034484
2.117887931034483
2.1058620689655174
2.093836206896552
2.0818103448275864
2.069784482758621
2.057758620689655
2.0457327586206895
2.033706896551724
2.0216810344827585
2.009655172413793
1.9976293103448275
1.985603448275862
1.9735775862068965
1.961551724137931
1.9495258620689655
1.9375
1.9254741379310345
1.913448275862069
1.9014224137931035
1.8893965517241378
1.8773706896551723
1.8653448275862068
1.8539870689655171
1.8431637931034484
1.8323405172413794
1.8215172413793104
1.8106939655172414
1.7998706896551724
1.7890474137931034
1.7782241379310346
1.7674008620689656
1.7565775862068966
1.7457543103448276
1.7349310344827584
1.7241077586206894
1.7132844827586204
1.7024612068965517
1.6916379310344827
1.6808146551724137
1.6699913793103447
1.6591681034482757
1.648344827586207
1.637521551724138
1.626698275862069
1.615875
1.605051724137931
1.594228448275862
1.5834051724137932
1.581
1.581
1.581
1.581
1.581
1.581
1.581
1.581
1.581
1.581
1.581
1.581
1.581
1.581
1.581
1.581
1.581
1.581
1.581
1.581
1.581
1.581
1.581
1.581
1.581
1.581
1.567771551724138
1.554543103448276
1.5413146551724137
1.5280862068965517
1.5148577586206897
1.5016293103448277
1.4884008620689657
1.4751724137931035
1.4619439655172415
1.4487155172413788
1.4354870689655168
1.4222586206896548
1.4090301724137928
1.3958017241379306
1.3825732758620686
1.3693448275862066
1.3561163793103446
1.3428879310344826
1.3296594827586206
1.3164310344827586
1.3032025862068963
1.2899741379310343
1.2767456896551723
1.26351724137931
1.250288793103448
1.245344827586207
1.269396551724138
1.293448275862069
1.3175
1.341551724137931
1.3656034482758619
1.3896551724137929
1.413706896551724
1.437758620689655
1.461810344827586
1.485862068965517
1.509913793103448
1.533965517241379
1.5580172413793112
1.5820689655172422
1.6061206896551732
1.6301724137931042
1.6542241379310352
1.6782758620689662
1.7023275862068972
1.7263793103448282
1.7504310344827592
1.7744827586206902
1.7985344827586212
1.8225862068965522
1.8466379310344831
1.865344827586207
1.8773706896551725
1.889396551724138
1.9014224137931035
1.913448275862069
1.9254741379310345
1.9375
1.9495258620689655
1.961551724137931
1.9735775862068965
1.985603448275862
1.9976293103448275
2.009655172413793
2.0216810344827585
2.033706896551724
2.04573275862069
2.0577586206896554
2.069784482758621
2.0818103448275864
2.093836206896552
2.1058620689655174
2.117887931034483
2.1299137931034484
2.141939655172414
2.1539655172413794
2.165991379310345
2.1619827586206894
2.149956896551724
2.1379310344827585
2.125905172413793
2.1138793103448275
2.101853448275862
2.0898275862068965
2.077801724137931
2.0657758620689655
2.05375
2.0417241379310345
2.029698275862069
2.0176724137931035
2.005646551724138
1.9936206896551725
1.981594827586207
1.9695689655172415
1.957543103448276
1.94551724137931
1.9334913793103445
1.921465517241379
1.9094396551724135
1.897413793103448
1.8853879310344825
1.873362068965517
1.8613362068965515
1.8533724137931034
1.8459163793103448
1.8384603448275862
1.8310043103448275
1.823548275862069
1.8160922413793104
1.8086362068965518
1.801180172413793
1.7937241379310345
1.786268103448276
1.7788120689655174
1.7713560344827586
1.7639
1.7564439655172415
1.7489879310344827
1.7415318965517241
1.7340758620689656
1.726619827586207
1.7191637931034482
1.7117077586206897
1.7042517241379307
1.6967956896551721
1.6893396551724136
1.6818836206896548
1.6744275862068962
1.6659560344827582
1.6493603448275858
1.6327646551724133
1.616168965517241
1.5995732758620687
1.5829775862068962
1.5663818965517238
1.5497862068965516
1.5331905172413791
1.5165948275862067
1.4999991379310342
1.4834034482758618
1.4668077586206896
1.4502120689655171
1.4336163793103447
1.4170206896551725
1.400425
1.3838293103448276
1.3672336206896551
1.3506379310344827
1.3340422413793105
1.317446551724138
1.3008508620689656
1.2842551724137925
1.26765948275862
1.2510637931034476
1.24
1.24
1.24
1.24
1.24
1.24
1.24
1.24
1.24
1.24
1.24
1.24
1.24
1.24
1.24
1.24
1.24
1.24
1.24
1.24
1.24
1.24
1.24
1.24
1.24
1.24
1.233318965517241
1.221293103448276
1.20926724137931
1.197241379310345
1.185215517241379
1.173189655172414
1.161163793103448
1.149137931034483
1.137112068965517
1.1250862068965521
1.113060344827586
1.101034482758621
1.089008620689655
1.0769827586206902
1.064956896551724
1.052931034482758
1.040905172413793
1.028879310344827
1.016853448275862
1.004827586206896
0.992801724137931
0.980775862068965
0.96875
0.9567241379310341
0.944698275862069
0.9326724137931031
0.948706896551724
0.9727586206896561
0.996810344827586
1.0208620689655181
1.044913793103448
1.0689655172413801
1.09301724137931
1.117068965517242
1.141120689655172
1.165172413793104
1.189224137931034
1.213275862068966
1.237327586206896
1.261379310344828
1.285431034482758
1.30948275862069
1.33353448275862
1.357586206896552
1.3816379310344842
1.405689655172414
1.4297413793103462
1.453793103448276
1.4778448275862082
1.501896551724138
1.5259482758620702
1.55
1.55
1.55
1.55
1.55
1.55
1.55
1.55
1.55
1.55
1.55
1.55
1.55
1.55
1.55
1.55
1.55
1.55
1.55
1.55
1.55
1.55
1.55
1.55
1.55
1.55
1.552672413793104
1.564698275862069
1.576724137931035
1.58875
1.600775862068966
1.612801724137931
1.624827586206897
1.636853448275862
1.648879310344828
1.660905172413793
1.672931034482759
1.684956896551724
1.69698275862069
1.709008620689655
1.721034482758621
1.733060344827586
1.745086206896552
1.757112068965517
1.769137931034483
1.781163793103448
1.793189655172414
1.805215517241379
1.817241379310345
1.8292672413793112
1.841293103448276
1.8533189655172422
1.8439655172413791
1.8078879310344809
1.7718103448275861
1.7357327586206879
1.6996551724137932
1.6635775862068949
1.6275000000000002
1.591422413793102
1.555344827586207
1.519267241379309
1.483189655172414
1.447112068965516
1.411034482758621
1.374956896551723
1.338879310344828
1.30280172413793
1.266724137931035
1.230646551724137
1.194568965517242
1.158491379310344
1.122413793103449
1.086336206896551
1.050258620689656
1.014181034482758
0.9781034482758632
0.942025862068965
0.9460344827586222
0.9700862068965521
0.9941379310344842
1.018189655172414
1.0422413793103462
1.066293103448276
1.0903448275862082
1.114396551724138
1.1384482758620702
1.1625
1.1865517241379322
1.210603448275862
1.2346551724137942
1.258706896551724
1.2827586206896562
1.306810344827586
1.3308620689655182
1.354913793103448
1.3789655172413802
1.40301724137931
1.4270689655172422
1.451120689655172
1.4751724137931042
1.499224137931034
1.5232758620689661
1.547327586206896
1.55
1.55
1.55
1.55
1.55
1.55
1.55
1.55
1.55
1.55
1.55
1.55
1.55
1.55
1.55
1.55
1.55
1.55
1.55
1.55
1.55
1.55
1.55
1.55
1.55
1.547327586206896
1.5232758620689661
1.499224137931034
1.4751724137931042
1.451120689655172
1.42706896551724
1.40301724137931
1.378965517241378
1.354913793103448
1.330862068965516
1.306810344827586
1.282758620689654
1.258706896551724
1.234655172413792
1.210603448275862
1.18655172413793
1.1625
1.138448275862068
1.114396551724138
1.090344827586206
1.066293103448276
1.042241379310344
1.018189655172414
0.994137931034482
0.9700862068965521
0.94603448275862
0.9344896551724137
0.9479586206896556
0.9614275862068964
0.9748965517241382
0.988365517241379
1.001834482758621
1.0153034482758618
1.0287724137931038
1.0422413793103458
1.0557103448275864
1.0691793103448284
1.082648275862069
1.096117241379311
1.1095862068965519
1.1230551724137938
1.1365241379310345
1.1499931034482764
1.1634620689655173
1.1769310344827593
1.1904
1.2038689655172419
1.2173379310344825
1.2308068965517247
1.2442758620689653
1.2577448275862073
1.2712137931034482
1.273725862068965
1.2674724137931035
1.261218965517241
1.2549655172413794
1.248712068965517
1.2424586206896553
1.2362051724137928
1.2299517241379312
1.2236982758620687
1.217444827586207
1.2111913793103446
1.2049379310344823
1.1986844827586205
1.1924310344827582
1.1861775862068964
1.1799241379310341
1.1736706896551723
1.16741724137931
1.1611637931034482
1.154910344827586
1.148656896551724
1.1424034482758618
1.13615
1.1298965517241377
1.123643103448276
1.1173896551724136
1.130030172413793
1.1480689655172422
1.1661077586206896
1.1841465517241387
1.202185344827586
1.220224137931035
1.2382629310344826
1.2563017241379315
1.274340517241379
1.292379310344828
1.3104181034482756
1.3284568965517245
1.3464956896551736
1.364534482758621
1.3825732758620701
1.4006120689655175
1.4186508620689666
1.436689655172414
1.4547284482758631
1.4727672413793105
1.4908060344827596
1.508844827586207
1.526883620689656
1.5449224137931035
1.5629612068965526
1.581
1.5797974137931035
1.578594827586207
1.5773922413793102
1.5761896551724137
1.5749870689655172
1.5737844827586207
1.572581896551724
1.5713793103448277
1.570176724137931
1.5689741379310345
1.567771551724138
1.5665689655172415
1.5653663793103447
1.5641637931034482
1.5629612068965517
1.5617586206896552
1.5605560344827587
1.559353448275862
1.5581508620689655
1.556948275862069
1.5557456896551725
1.5545431034482757
1.5533405172413792
1.5521379310344827
1.5509353448275862
1.547327586206896
1.535301724137931
1.523275862068965
1.51125
1.499224137931034
1.487198275862069
1.475172413793103
1.463146551724138
1.451120689655172
1.439094827586207
1.427068965517241
1.415043103448276
1.40301724137931
1.390991379310345
1.378965517241379
1.366939655172414
1.354913793103448
1.342887931034483
1.330862068965517
1.318836206896551
1.306810344827586
1.29478448275862
1.282758620689655
1.270732758620689
1.258706896551724
1.246681034482758
1.24
1.24
1.24
1.24
1.24
1.24
1.24
1.24
1.24
1.24
1.24
1.24
1.24
1.24
1.24
1.24
1.24
1.24
1.24
1.24
1.24
1.24
1.24
1.24
1.24
1.24
1.24
1.24
1.24
1.24
1.24
1.24
1.24
1.24
1.24
1.24
1.24
1.24
1.24
1.24
1.24
1.24
1.24
1.24
1.24
1.24
1.24
1.24
1.24
1.24
1.24
1.24
1.229310344827586
1.21728448275862
1.205258620689655
1.193232758620689
1.181206896551724
1.169181034482758
1.157155172413793
1.145129310344827
1.133103448275862
1.121077586206896
1.109051724137931
1.097025862068965
1.085
1.072974137931034
1.060948275862069
1.048922413793103
1.036896551724138
1.024870689655172
1.012844827586207
1.000818965517241
0.988793103448276
0.97676724137931
0.964741379310345
0.952715517241379
0.940689655172414
0.9314965517241384
0.9449655172413803
0.9584344827586223
0.9719034482758617
0.9853724137931037
0.9988413793103457
1.0123103448275876
1.0257793103448272
1.0392482758620691
1.052717241379311
1.066186206896553
1.0796551724137926
1.0931241379310346
1.1065931034482765
1.1200620689655185
1.133531034482758
1.147
1.160468965517242
1.173937931034484
1.1874068965517233
1.2008758620689655
1.2143448275862072
1.2278137931034494
1.241282758620689
1.2547517241379307
1.2682206896551729
1.2751155172413788
1.2688620689655175
1.2626086206896552
1.256355172413793
1.2501017241379304
1.2438482758620681
1.237594827586207
1.2313413793103447
1.2250879310344822
1.21883448275862
1.2125810344827588
1.2063275862068965
1.200074137931034
1.1938206896551717
1.1875672413793106
1.1813137931034483
1.1750603448275858
1.1688068965517235
1.1625534482758624
1.1563
1.1500465517241376
1.1437931034482753
1.1375396551724142
1.131286206896552
1.1250327586206894
1.1187793103448271
1.116
1.116
1.116
1.116
1.116
1.116
1.116
1.116
1.116
1.116
1.116
1.116
1.116
1.116
1.116
1.116
1.116
1.116
1.116
1.116
1.116
1.116
1.116
1.116
1.116
1.116
1.116
1.116
1.116
1.116
1.116
1.116
1.116
1.116
1.116
1.116
1.116
1.116
1.116
1.116
1.116
1.116
1.116
1.116
1.116
1.116
1.116
1.116
1.116
1.116
1.116
1.116
1.110708620689655
1.10541724137931
1.1001258620689658
1.0948344827586207
1.0895431034482757
1.0842517241379306
1.0789603448275866
1.0736689655172416
1.0683775862068965
1.0630862068965514
1.0577948275862064
1.0525034482758622
1.047212068965517
1.041920689655172
1.036629310344827
1.031337931034483
1.026046551724138
1.0207551724137929
1.0154637931034478
1.0101724137931036
1.0048810344827586
0.9995896551724135
0.9942982758620684
0.9890068965517244
0.9837155172413793
0.9791724137931034
0.9772482758620689
0.9753241379310346
0.9734
0.9714758620689654
0.9695517241379309
0.9676275862068967
0.9657034482758621
0.9637793103448276
0.9618551724137929
0.9599310344827587
0.9580068965517242
0.9560827586206896
0.9541586206896551
0.9522344827586205
0.9503103448275863
0.9483862068965517
0.9464620689655171
0.9445379310344826
0.9426137931034484
0.9406896551724138
0.9387655172413792
0.9368413793103447
0.9349172413793104
0.9329931034482759
0.9310689655172413
0.93
0.93
0.93
0.93
0.93
0.93
0.93
0.93
0.93
0.93
0.93
0.93
0.93
0.93
0.93
0.93
0.93
0.93
0.93
0.93
0.93
0.93
0.93
0.93
0.93
0.93
0.93801724137931
0.950043103448276
0.9620689655172421
0.9740948275862081
0.986120689655172
0.998146551724138
1.010172413793104
1.0221982758620702
1.034224137931034
1.0462500000000001
1.058275862068966
1.070301724137932
1.082327586206896
1.0943534482758621
1.106379310344828
1.118405172413794
1.130431034482758
1.142456896551724
1.15448275862069
1.166508620689656
1.1785344827586222
1.190560344827586
1.202586206896552
1.214612068965518
1.2266379310344842
1.238663793103448
1.2517586206896554
1.264987068965518
1.2782155172413807
1.291443965517241
1.3046724137931036
1.3179008620689663
1.331129310344829
1.3443577586206892
1.3575862068965519
1.3708146551724145
1.3840431034482772
1.3972715517241374
1.4104999999999999
1.4237284482758625
1.4369568965517252
1.4501853448275854
1.463413793103448
1.4766422413793108
1.4898706896551734
1.5030991379310337
1.5163275862068963
1.529556034482759
1.5427844827586217
1.5560129310344843
1.5692413793103446
1.5795301724137927
1.56630172413793
1.5530732758620673
1.539844827586207
1.5266163793103444
1.513387931034482
1.5001594827586193
1.486931034482759
1.4737025862068964
1.4604741379310338
1.447245689655171
1.4340172413793109
1.4207887931034482
1.4075603448275855
1.3943318965517228
1.3811034482758626
1.367875
1.3546465517241373
1.3414181034482746
1.3281896551724144
1.3149612068965517
1.3017327586206893
1.2885043103448264
1.2752758620689661
1.2620474137931037
1.248818965517241
1.2319827586206877
1.2079310344827556
1.183879310344828
1.1598275862068959
1.1357758620689637
1.1117241379310316
1.087672413793104
1.0636206896551719
1.0395689655172398
1.0155172413793077
0.9914655172413801
0.9674137931034479
0.9433620689655159
0.9193103448275838
0.895258620689656
0.8712068965517239
0.8471551724137919
0.8231034482758598
0.799051724137932
0.775
0.7509482758620679
0.7268965517241358
0.7028448275862081
0.678793103448276
0.6547413793103439
0.6306896551724118
0.6266810344827579
0.638706896551724
0.65073275862069
0.6627586206896561
0.6747844827586221
0.686810344827586
0.698836206896552
0.7108620689655181
0.7228879310344841
0.734913793103448
0.746939655172414
0.7589655172413801
0.7709913793103461
0.78301724137931
0.795043103448276
0.807068965517242
0.8190948275862081
0.8311206896551719
0.8431465517241381
0.855172413793104
0.8671982758620702
0.8792241379310339
0.8912500000000001
0.903275862068966
0.9153017241379322
0.9273275862068959
0.9283163793103449
0.926151724137931
0.9239870689655171
0.9218224137931033
0.9196577586206898
0.9174931034482758
0.9153284482758619
0.9131637931034481
0.9109991379310346
0.9088344827586207
0.9066698275862067
0.9045051724137929
0.9023405172413794
0.9001758620689655
0.8980112068965516
0.8958465517241377
0.8936818965517243
0.8915172413793103
0.8893525862068964
0.8871879310344826
0.8850232758620691
0.8828586206896551
0.8806939655172412
0.8785293103448274
0.8763646551724139
0.8742
FIELD FieldData 2
Curvature 1 1161 double
0.282771079729132
0.288502149812345
0.294144109668768
0.299673141526518
0.305064262093056
0.310291481675802
0.31532799843611
0.320146427841236
0.32471906626056
0.32901818639333
0.333016360856764
0.336686798232089
0.340003672600245
0.342942524705513
0.34548064528715
0.347597438935227
0.349274768487098
0.350497269798575
0.351252627118495
0.351531800156847
0.351329195247653
0.350642782968341
0.349474168770077
0.347828548209496
0.345714608536909
0.343144374343998
0.340132994789809
0.336698479474205
0.332861391520806
0.328644507487587
0.324072454310869
0.319171392677542
0.313968817386665
0.308493008817568
0.302772613002961
0.296836302651778
0.290712466431919
0.284428930791709
0.278012717153339
0.271489835952172
0.264885117771992
0.258222125661097
0.251523185519368
0.244809173641898
0.238099432060536
0.231411756932127
0.224762410270568
0.218166151632965
0.211636286453413
0.205184727886787
0.198822069256014
0.192557702922551
0.186400010245834
0.180356314473932
0.174432928125486
0.168635241992253
0.162967813328262
0.157434452195174
0.152038305150317
0.14678193565251
0.141667400720495
0.136696252387353
0.131869391680662
0.127187343685059
0.122650386624583
0.118258605424721
0.114011940723396
0.109910233344894
0.105953264224154
0.102140789725117
0.0984725722376406
0.0949483498638425
0.0915676945548547
0.088330205777159
0.085235579016328
0.0822836111303651
0.0794741993842755
0.0768073336215696
0.0742830810322559
0.0719015630430579
0.0696629240038392
0.0675672567704943
0.0656144637076086
0.0638043313031338
0.0621365120500334
0.0606104644924671
0.0592253916493603
0.0579801807329141
0.0568733475131792
0.0559029888910343
0.0550667471520905
0.0543618497274839
0.0537853157785146
0.0533338324903909
0.053003721989036
0.0527909764056288
0.0526913060440126
0.0527001980219931
0.052812982180274
0.0530249007984937
0.0533311787256203
0.0537272517429382
0.0542092861720534
0.0547737011288523
0.0554170374724761
0.0561359879302049
0.056927421652895
0.0577884031745459
0.0587162060071258
0.0597083212896749
0.0607624620321085
0.0618765115108836