# vtk DataFile Version 2.0
Vessel Segment
ASCII
DATASET POLYDATA
POINTS 1161 float
0.10284317323172 0.113573807068834 0.0598235101862407
0.0514064898328666 0.172710168241017 0.0079437086302443
0.0025466029276718 0.23194682219382 -0.0433143889238482
-0.0437747362843621 0.291283808105151 -0.0939607703406957
-0.0875957766073832 0.350721165123475 -0.144005423488363
-0.128954766860468 0.410258932383851 -0.193458336243653
-0.167889955888903 0.469897149023981 -0.242329496497437
-0.20443959257546 0.52963585420024 -0.29062889215999
-0.238641925851678 0.589475087103729 -0.338366511166316
-0.270535204709145 0.649414886976307 -0.38555234148149
-0.300157678210773 0.709455293126637 -0.432196371105977
-0.327547595502543 0.769596344943608 -0.478308588081367
-0.352743205837353 0.829838081841773 -0.52389898050622
-0.375782758629568 0.890180543034184 -0.568977536577661
-0.39670450352168 0.950623767237239 -0.613554244643093
-0.415546690451424 1.01116779237291 -0.657639093252314
-0.432347569718902 1.07181265527097 -0.701242071209622
-0.447145392053698 1.13255839137125 -0.74437316762593
-0.459978408682002 1.1934050344258 -0.787042371970874
-0.470884871393732 1.25435261620122 -0.829259674124924
-0.479903032609646 1.31540116618081 -0.871035064431493
-0.487071145445632 1.37655071126342 -0.91237853374713
-0.492427463703134 1.43780127537403 -0.953300073441714
-0.496010241672133 1.49915287885017 -0.993809675271764
-0.497857733860284 1.56060553774009 -1.03391733120376
-0.4980081947192 1.62215926309752 -1.07363303323555
-0.496499878370754 1.68381406027643 -1.11296677321771
-0.493371038333362 1.74556992822579 -1.15192854267501
-0.488659927248283 1.80742685878437 -1.19052833262773
-0.48240479660591 1.86938483597546 -1.22877613341312
-0.474643896472057 1.93144383530167 -1.26668193450677
-0.465415475199749 1.99360382303204 -1.30425572433382
-0.454757778763754 2.05586475529148 -1.34150748981486
-0.442709049137493 2.11822657664802 -1.37844721523858
-0.429307522292702 2.18068921850233 -1.415084880869
-0.414591426184585 2.24325259746966 -1.45143046154269
-0.398598978736962 2.30591661376172 -1.4874939252658
-0.381368385827428 2.36868114956861 -1.52328523181125
-0.3629378392725 2.43154606744072 -1.5588143313158
-0.343345514812773 2.49451120867063 -1.59409116287722
-0.322629570098068 2.55757639167505 -1.62912565315134
-0.300828142643908 2.62074141036884 -1.66392771493096
-0.277979347042228 2.68400603233514 -1.69850724524884
-0.254121270279035 2.74736999647766 -1.73287412227308
-0.229291966306305 2.81083301046895 -1.76703820172676
-0.203529450585205 2.87439474819095 -1.80100931328921
-0.176871694629314 2.93805484717543 -1.83479725699731
-0.149356620547836 3.00181290604443 -1.86841179964684
-0.121022095588824 3.06566848195081 -1.90186267119374
-0.0919059266823962 3.12962108801865 -1.93515956115544
-0.0620458549839581 3.19367019078378 -1.96831211501216
-0.0314795503933792 3.25781520763287 -2.0013299305971
-0.0002446054491521 3.32205550420685 -2.03422255419783
0.0316214723640422 3.38639039171397 -2.0669994759244
0.0640812689327925 3.45081912420712 -2.09967012478875
0.0970974718564526 3.5153408958598 -2.13224386377285
0.130632878788639 3.57995483824213 -2.16472998489699
0.164650405778724 3.6446600175968 -2.19713770428795
0.199113095613339 3.70945543211508 -2.22947615724727
0.233984126157862 3.77434000921279 -2.26175439331942
0.269226818697919 3.83931260280627 -2.29398137136007
0.304804646275063 3.90437199059612 -2.32616595461652
0.340681241871145 3.96951687155152 -2.358316906126
0.376820406208628 4.03474586390415 -2.39044288492095
0.413186115399588 4.10005750334261 -2.42255244255215
0.449742528588911 4.16545024121474 -2.45465401962401
0.486453995597471 4.23092244272981 -2.48675594232996
0.523285064565329 4.29647238516078 -2.51886641898779
0.560200489594913 4.36209825604652 -2.550993536575
0.597165238394209 4.42779815139407 -2.58314525726412
0.634144499919954 4.49357007388083 -2.6153294149581
0.671103692006806 4.55941193106144 -2.64755371183715
0.708008468632263 4.62532153369327 -2.67982571520536
0.744824726256904 4.69129659436349 -2.71215285509825
0.78151860980036 4.75733472623486 -2.74454242219
0.818056518603287 4.82343344179607 -2.77700156571221
0.854405112389325 4.88959015161209 -2.80953729137277
0.890531317227067 4.95580216307456 -2.84215645927458
0.926402331492025 5.02206667915212 -2.87486578183434
0.961985631828595 5.08838079714078 -2.9076718217014
0.997248979112022 5.15474150741426 -2.94058098967645
1.03216042456273 5.22114569213024 -2.97359954257056
1.06668831982219 5.28759012278968 -3.00673357950777
1.10080133708488 5.35407145488461 -3.03998903427741
1.13446849319188 5.42058622139903 -3.07337166613001
1.1676591738767 5.48713082626569 -3.10688705051349
1.20034315801121 5.55370153782281 -3.14054056980925
1.23249064185151 5.62029448227088 -3.17433740406832
1.26407226328385 5.68690563712945 -3.2082825217475
1.29505912607049 5.75353082469382 -3.24238067044547
1.32542282409562 5.8201657054919 -3.27663636763893
1.35513546559034 5.88680577176093 -3.31105389145032
1.38416969681508 5.95344634144577 -3.34563727223641
1.41249872436445 6.02008255352045 -3.38039028626083
1.44009633692946 6.08670936383125 -3.41531645018741
1.46693692703889 6.15332154095975 -3.45041901560523
1.49299551280062 6.21991366208589 -3.48570096355352
1.51824775964302 6.28648010885102 -3.52116499904669
1.54267000205626 6.35301506322102 -3.55681354559928
1.56623926533372 6.41951250334933 -3.59264873975095
1.58893328731327 6.48596619943999 -3.62867242559143
1.61073053998751 6.5523697096628 -3.66488614936442
1.63161024770297 6.61871637742038 -3.7012911561222
1.65155239670091 6.68499933204769 -3.73788839158637
1.67053774124718 6.75121149086354 -3.77467850605925
1.68854780963086 6.8173455612741 -3.8116618584143
1.70556491016299 6.88339404287648 -3.84883852008644
1.72157213717519 6.94934922956223 -3.88620827906241
1.73655337701835 7.01520321162093 -3.92377064387116
1.75049331406133 7.08094787784366 -3.96152484757418
1.76337743668958 7.1465749176266 -3.99946985175586
1.77519204321472 7.21207582309503 -4.0376043505456
1.78592424546645 7.2774418917604 -4.07592677546518
1.7955619665015 7.34266423053036 -4.11443530237106
1.80409393599485 7.40773376025184 -4.15312785922194
1.81150968554195 7.47264122027459 -4.19200213387806
1.81779954396085 7.53737717301475 -4.23105558190053
1.82295463259437 7.60193200851844 -4.27028543435063
1.82696686061227 7.66629594902523 -4.3096887055891
1.82982892031343 7.73045905353182 -4.34926220107548
1.83153428242796 7.7944112223555 -4.38900252516741
1.83207719120951 7.85814220173104 -4.4289060889589
1.8314526540704 7.92164158927312 -4.46896911913233
1.82965641736403 7.98489884163589 -4.50918766938356
1.82668493671009 8.04790328303817 -4.54955763286069
1.82253534710997 8.11064411382191 -4.59007475464191
1.81720543306213 8.1731104190106 -4.63073464421322
1.81069359867743 8.2352911768678 -4.67153278794622
1.80299883779453 8.29717526745554 -4.7124645615759
1.79412070409525 8.35875148119277 -4.75352524267841
1.78405928121991 8.4200085274139 -4.79471002314887
1.77281515311322 8.48093504287704 -4.83601402161168
1.7603893803626 8.54151959896999 -4.87743229407853
1.74678349174817 8.6017507056098 -4.91895984015772
1.73199948178523 8.66161681383998 -4.96059160751119
1.71603980849731 8.72110631837747 -5.002322496244
1.69890739118904 8.78020756015976 -5.04414736329392
1.68060560821921 8.83890882889191 -5.08606102682097
1.6611382947737 8.89719836559362 -5.12805827059698
1.64050974063845 8.95506436514628 -5.1701338483951
1.61872468797247 9.01249497884001 -5.21228248837941
1.59578832918269 9.06947831694018 -5.25449889752003
1.57170630744896 9.12600245175962 -5.2967777666746
1.5464847239761 9.1820554220146 -5.33911377736094
1.52013014789604 9.23762523768653 -5.38150160919599
1.49264962627184 9.29269988490312 -5.42393594736038
1.46405069410175 9.34726733081949 -5.466411490063
1.4343413843233 9.40131552849933 -5.50892295600553
1.40353023781729 9.45483242179607 -5.55146509184704
1.3716263134119 9.50780595023399 -5.59403267966855
1.33863919788669 9.5602240538894 -5.63662054443758
1.30457901573095 9.61207467829625 -5.67922356145457
1.26945643251284 9.66334577998892 -5.72183666332741
1.2332826420299 9.7140253336622 -5.76445484574819
1.19606934707042 9.76410133996841 -5.80707317279801
1.15782873992901 9.813561833339 -5.8496867822337
1.11857348292225 9.86239488980618 -5.89229089077449
1.0783166889043 9.9105886348245 -5.93488079938875
1.03707190178248 9.95813125109248 -5.97745189858064
0.994853077032921 10.0050109863742 -6.01999967367683
0.951674562216172 10.051216161321 -6.06251971011318
0.907551077513497 10.0967351772998 -6.1050076987
0.862497696801569 10.141556524398 -6.14745944032914
0.816529830093747 10.1856687898778 -6.18987084926449
0.769663206519708 10.2290606668061 -6.23223795587419
0.721913857325794 10.2717209626916 -6.27455690934162
0.673298098875353 10.3136386081226 -6.31682398037618
0.623832515649082 10.3548026654037 -6.35903556392419
0.573533943245371 10.3952023371932 -6.40118818187972
0.522419451380643 10.4348269751404 -6.4432784857955
0.470506326889701 10.4736660885225 -6.48530325959374
0.417812056714966 10.5117093529167 -6.52725942226604
0.364354310607079 10.5489466197671 -6.56914403028761
0.310150923092807 10.5853679282253 -6.61095427930653
0.255219875154306 10.6209635178864 -6.65268750554732
0.199579275897282 10.6557238415597 -6.69434118720355
0.143247344219153 10.6896395780391 -6.73591294583044
0.0862423904772156 10.7227016448739 -6.77740054773751
0.0285827981568026 10.7549012111387 -6.81880190538114
-0.0297129944605515 10.7862297102045 -6.86011507875723
-0.0886265126289486 10.8166788525091 -6.90133827679375
-0.148139263452854 10.8462406383022 -6.94246985871113
-0.208232753756913 10.874907369733 -6.98350833454317
-0.268888506826397 10.9026716612678 -7.02445236352722
-0.330088078702735 10.9295264494504 -7.06530075165506
-0.391813074461944 10.9554650026368 -7.1060524491914
-0.454045164493044 10.9804809307299 -7.14670654819242
-0.51676610077649 11.004568194914 -7.1872622800243
[...]
POINT_DATA 1161
SCALARS MaximumInscribedSphereRadius float
LOOKUP_TABLE default
1.86
1.873094827586207
1.8861896551724138
1.8992844827586208
1.9123793103448277
1.9254741379310345
1.9385689655172413
1.9516637931034484
1.9647586206896552
1.977853448275862
1.990948275862069
2.004043103448276
2.017137931034483
2.0302327586206896
2.0433275862068965
2.0564224137931033
2.06951724137931
2.0826120689655174
2.0957068965517243
2.108801724137931
2.121896551724138
2.1349913793103448
2.1480862068965516
2.1611810344827584
2.1742758620689653
2.1873706896551726
2.2004655172413794
2.2135603448275862
2.226655172413793
2.23975
2.2528448275862067
2.2659396551724136
2.279034482758621
2.2921293103448277
2.3052241379310345
2.3183189655172414
2.331413793103448
2.344508620689655
2.357603448275862
2.370698275862069
2.383793103448276
2.396887931034483
2.4099827586206897
2.4230775862068965
2.4361724137931033
2.44926724137931
2.462362068965517
2.4754568965517243
2.471448275862069
2.458353448275862
2.445258620689655
2.4321637931034483
2.4190689655172415
2.405974137931034
2.3928793103448274
2.3797844827586205
2.3666896551724137
2.353594827586207
2.3405
2.327405172413793
2.3143103448275864
2.301215517241379
2.2881206896551722
2.2750258620689654
2.2619310344827586
2.2488362068965517
2.235741379310345
2.222646551724138
2.2095517241379308
2.196456896551724
2.183362068965517
2.1702672413793103
2.17
2.17
2.17
2.17
2.17
2.17
2.17
2.17
2.17
2.17
2.17
2.17
2.17
2.17
2.17
2.17
2.17
2.17
2.17
2.17
2.17
2.17
2.17
2.1659913793103445
2.1528965517241376
2.139801724137931
2.126706896551724
2.113612068965517
2.1005172413793103
2.0874224137931034
2.0743275862068966
2.0612327586206898
2.0481379310344825
2.0350431034482757
2.021948275862069
2.008853448275862
1.9957586206896551
1.9826637931034483
1.9695689655172413
1.9564741379310344
1.9433793103448276
1.9302844827586207
1.917189655172414
1.9040948275862069
1.891
1.8779051724137932
1.8648103448275863
1.86
1.86
1.86
1.86
1.86
1.86
1.86
1.86
1.86
1.86
1.86
1.86
1.86
1.86
1.86
1.86
1.86
1.86
1.86
1.86
1.86
1.86
1.86
1.86
1.8640193103448277
1.8682096551724139
1.8724
1.8765903448275862
1.8807806896551726
1.8849710344827588
1.889161379310345
1.8933517241379312
1.8975420689655174
1.9017324137931035
1.9059227586206897
1.910113103448276
1.914303448275862
1.9184937931034483
1.9226841379310344
1.9268744827586208
1.931064827586207
1.9352551724137932
1.9394455172413794
1.9436358620689655
1.947826206896552
1.9520165517241381
1.9562068965517243
1.9583020689655173
1.9551593103448277
1.952016551724138
1.9488737931034483
1.9457310344827587
1.942588275862069
1.9394455172413794
1.9363027586206898
1.93316
1.9300172413793104
1.9268744827586206
1.923731724137931
1.9205889655172415
1.9174462068965517
1.914303448275862
1.9111606896551725
1.9080179310344827
1.9048751724137931
1.9017324137931035
1.8985896551724137
1.8954468965517242
1.8923041379310346
1.8891613793103448
1.8860186206896552
1.8921758620689657
1.9042231034482757
1.9162703448275864
1.9283175862068969
1.9403648275862069
1.9524120689655173
1.9644593103448273
1.976506551724138
1.9885537931034485
2.0006010344827585
2.012648275862069
2.024695517241379
2.0367427586206897
2.0487900000000003
2.06083724137931
2.072884482758621
2.084931724137931
2.0969789655172413
2.109026206896552
2.121073448275862
2.1331206896551724
2.1451679310344827
2.1572151724137933
2.169262413793103
2.17
2.17
2.17
2.17
2.17
2.17
2.17
2.17
2.17
2.17
2.17
2.17
2.17
2.17
2.17
2.17
2.17
2.17
2.17
2.17
2.17
2.17
2.17
2.1630517241379303
2.1368620689655176
2.110672413793103
2.0844827586206898
2.0582931034482757
2.0321034482758615
2.0059137931034483
1.9797241379310342
1.953534482758621
1.9273448275862068
1.9011551724137925
1.8749655172413795
1.8487758620689652
1.8225862068965522
1.7963965517241378
1.7702068965517235
1.7440172413793105
1.7178275862068961
1.6916379310344831
1.6654482758620688
1.6392586206896547
1.6130689655172414
1.5868793103448273
1.560689655172414
1.54225
1.5291551724137928
1.5160603448275862
1.5029655172413792
1.4898706896551726
1.4767758620689655
1.4636810344827582
1.4505862068965518
1.4374913793103445
1.4243965517241381
1.4113017241379309
1.3982068965517238
1.3851120689655172
1.3720172413793101
1.3589224137931035
1.3458275862068965
1.3327327586206899
1.3196379310344828
1.3065431034482755
1.293448275862069
1.2803534482758618
1.2672586206896552
1.2541637931034482
1.241068965517241
1.2565956896551724
1.2746665517241382
1.2927374137931034
1.3108082758620692
1.328879137931035
1.34695
1.365020862068966
1.3830917241379308
1.4011625862068966
1.4192334482758624
1.4373043103448275
1.4553751724137933
1.4734460344827585
1.4915168965517243
1.50958775862069
1.5276586206896552
1.545729482758621
1.5638003448275861
1.581871206896552
1.5999420689655168
1.6180129310344828
1.6360837931034486
1.6541546551724138
1.6708144827586209
1.683123620689655
1.6954327586206897
1.7077418965517244
1.7200510344827586
1.7323601724137934
1.7446693103448274
1.7569784482758621
1.7692875862068969
1.781596724137931
1.7939058620689656
1.806215
1.8185241379310346
1.8308332758620693
1.8431424137931034
1.8554515517241381
1.8677606896551724
1.880069827586207
1.8923789655172418
1.9046881034482759
1.9169972413793106
1.9293063793103449
1.9416155172413796
1.9539246551724143
1.9427379310344828
1.913929310344827
1.8851206896551727
1.8563120689655168
1.8275034482758612
1.7986948275862067
1.769886206896551
1.7410775862068966
1.712268965517241
1.6834603448275864
1.6546517241379308
1.6258431034482752
1.5970344827586207
1.568225862068965
1.5394172413793106
1.510608620689655
1.4817999999999993
1.4529913793103448
1.424182758620689
1.3953741379310345
1.366565517241379
1.3377568965517233
1.3089482758620687
1.2801396551724131
1.2875475862068964
1.2990710344827587
1.310594482758621
1.3221179310344826
1.333641379310345
1.3451648275862067
1.356688275862069
1.3682117241379312
1.3797351724137932
1.3912586206896553
1.402782068965517
1.4143055172413794
1.4258289655172411
1.4373524137931035
1.4488758620689657
1.4603993103448276
1.4719227586206898
1.4834462068965517
1.4949696551724139
1.5064931034482762
1.518016551724138
1.5295400000000003
1.541063448275862
1.5502939655172414
1.551603448275862
1.5529129310344827
1.5542224137931036
1.5555318965517242
1.5568413793103448
1.5581508620689655
1.5594603448275863
1.560769827586207
1.5620793103448276
1.5633887931034482
1.564698275862069
1.5660077586206897
1.5673172413793104
1.568626724137931
1.5699362068965517
1.5712456896551723
1.5725551724137932
1.5738646551724138
1.5751741379310344
1.576483620689655
1.577793103448276
1.5791025862068966
1.5804120689655172
1.5730629310344821
1.5586586206896549
1.5442543103448276
1.5298499999999993
1.515445689655172
1.5010413793103448
1.4866370689655175
1.4722327586206891
1.4578284482758619
1.4434241379310346
1.4290198275862063
1.414615517241379
1.4002112068965518
1.3858068965517234
1.3714025862068961
1.356998275862069
1.3425939655172416
1.3281896551724133
1.313785344827586
1.2993810344827588
1.2849767241379304
1.2705724137931032
1.256168103448276
1.2417637931034486
1.24
1.24
1.24
1.24
1.24
1.24
1.24
1.24
1.24
1.24
1.24
1.24
1.24
1.24
1.24
1.24
1.24
1.24
1.24
1.24
1.24
1.24
1.24
1.24
1.24
1.24
1.24
1.24
1.24
1.24
1.24
1.24
1.24
1.24
1.24
1.24
1.24
1.24
1.24
1.24
1.24
1.24
1.24
1.24
1.24
1.24
1.24
1.2469482758620694
1.260043103448276
1.2731379310344826
1.2862327586206903
1.299327586206897
1.3124224137931033
1.32551724137931
1.3386120689655177
1.3517068965517243
1.3648017241379309
1.3778965517241384
1.390991379310345
1.4040862068965516
1.4171810344827593
1.430275862068966
1.4433706896551723
1.456465517241379
1.4695603448275867
1.4826551724137933
1.4957499999999997
1.5088448275862074
1.521939655172414
1.5350344827586206
1.5481293103448284
1.55
1.55
1.55
1.55
1.55
1.55
1.55
1.55
1.55
1.55
1.55
1.55
1.55
1.55
1.55
1.55
1.55
1.55
1.55
1.55
1.55
1.55
1.55
1.5524051724137937
1.5655000000000003
1.578594827586207
1.5916896551724145
1.604784482758621
1.6178793103448277
1.6309741379310343
1.644068965517242
1.6571637931034484
1.670258620689655
1.6833534482758628
1.6964482758620694
1.7095431034482758
1.7226379310344835
1.73573275862069
1.7488275862068967
1.7619224137931033
1.7750172413793108
1.7881120689655174
1.801206896551724
1.8143017241379318
1.8273965517241384
1.840491379310345
1.8535862068965525
1.8605344827586208
1.8615820689655174
1.862629655172414
1.8636772413793106
1.864724827586207
1.8657724137931035
1.8668200000000001
1.8678675862068967
1.8689151724137931
1.8699627586206897
1.8710103448275863
1.872057931034483
1.8731055172413793
1.874153103448276
1.8752006896551725
1.876248275862069
1.8772958620689657
1.878343448275862
1.8793910344827587
1.8804386206896553
1.8814862068965519
1.8825337931034483
1.8835813793103449
1.8846289655172415
1.8620096551724132
1.8347724137931036
1.8075351724137916
1.780297931034482
1.7530606896551721
1.7258234482758625
1.6985862068965507
1.6713489655172409
1.6441117241379313
1.6168744827586194
1.5896372413793096
1.5624
1.5351627586206904
1.5079255172413784
1.4806882758620687
1.4534510344827591
1.426213793103447
1.3989765517241375
1.3717393103448279
1.3445020689655158
1.317264827586206
1.2900275862068966
1.2627903448275868
1.2378620689655166
1.2247672413793103
1.2116724137931036
1.198577586206896
1.1854827586206893
1.172387931034483
1.1592931034482752
1.1461982758620686
1.133103448275862
1.1200086206896553
1.1069137931034478
1.0938189655172412
1.0807241379310346
1.0676293103448269
1.0545344827586205
1.0414396551724139
1.0283448275862073
1.0152499999999995
1.0021551724137931
0.9890603448275865
0.9759655172413788
0.9628706896551722
0.9497758620689656
0.936681034482758
0.9556551724137946
1.008034482758621
1.0604137931034472
1.1127931034482779
1.165172413793104
1.2175517241379303
1.269931034482761
1.3223103448275872
1.3746896551724135
1.4270689655172442
1.4794482758620706
1.5318275862068966
1.584206896551723
1.6365862068965535
1.68896551724138
1.7413448275862062
1.793724137931037
1.8461034482758631
1.8984827586206894
1.9508620689655203
2.0032413793103463
2.0556206896551728
2.1079999999999988
2.1603793103448297
2.159310344827586
2.1462155172413793
2.1331206896551715
2.120025862068965
2.1069310344827588
2.093836206896552
2.080741379310344
2.067646551724138
2.0545517241379314
2.0414568965517237
2.028362068965517
2.0152672413793105
2.0021724137931027
1.9890775862068961
1.9759827586206895
1.9628879310344831
1.9497931034482754
1.9366982758620688
1.9236034482758622
1.9105086206896547
1.897413793103448
1.8843189655172414
1.871224137931034
1.8562586206896545
1.8300689655172413
1.803879310344828
1.7776896551724128
1.7514999999999996
1.7253103448275864
1.6991206896551712
1.672931034482758
1.646741379310345
1.6205517241379295
1.5943620689655162
1.5681724137931032
1.54198275862069
1.5157931034482748
1.4896034482758616
1.4634137931034483
1.437224137931033
1.4110344827586199
1.3848448275862069
1.3586551724137936
1.3324655172413782
1.3062758620689652
1.2800862068965522
1.2538965517241367
1.24
1.24
1.24
1.24
1.24
1.24
1.24
1.24
1.24
1.24
1.24
1.24
1.24
1.24
1.24
1.24
1.24
1.24
1.24
1.24
1.24
1.24
1.24
1.24
1.2504224137931037
1.26351724137931
1.2766120689655178
1.2897068965517244
1.302801724137931
1.3158965517241388
1.3289913793103452
1.3420862068965518
1.3551810344827584
1.3682758620689661
1.3813706896551725
1.3944655172413791
1.4075603448275869
1.4206551724137935
1.43375
1.4468448275862076
1.4599396551724142
1.4730344827586208
1.4861293103448274
1.4992241379310352
1.5123189655172418
1.5254137931034482
1.5385086206896559
1.5516034482758625
1.564698275862069
1.5777931034482757
1.5908879310344832
1.6039827586206898
1.6170775862068965
1.6301724137931042
1.6432672413793106
1.6563620689655172
1.669456896551725
1.6825517241379315
1.6956465517241381
1.7087413793103448
1.7218362068965523
1.7349310344827589
1.7480258620689655
1.7611206896551732
1.7742155172413798
1.7873103448275862
1.800405172413794
1.8135000000000006
1.8265948275862072
1.8396896551724136
1.8527844827586213
1.8482413793103423
1.8220517241379313
1.795862068965516
1.769672413793105
1.7434827586206896
1.7172931034482743
1.6911034482758633
1.6649137931034481
1.6387241379310327
1.6125344827586217
1.5863448275862064
1.560155172413791
1.5339655172413802
1.5077758620689647
1.4815862068965493
1.4553965517241385
1.429206896551723
1.4030172413793078
1.3768275862068968
1.3506379310344814
1.3244482758620706
1.2982586206896554
1.27206896551724
1.245879310344829
1.24
1.24
1.24
1.24
1.24
1.24
1.24
1.24
1.24
1.24
1.24
1.24
1.24
1.24
1.24
1.24
1.24
1.24
1.24
1.24
1.24
1.24
1.24
1.2376482758620684
1.214601379310343
1.1915544827586213
1.1685075862068959
1.1454606896551702
1.1224137931034486
1.0993668965517231
1.0763199999999977
1.053273103448276
1.0302262068965506
1.007179310344829
0.9841324137931033
0.9610855172413779
0.9380386206896563
0.9149917241379308
0.8919448275862053
0.8688979310344837
0.8458510344827581
0.8228041379310327
0.799757241379311
0.7767103448275856
0.7536634482758601
0.7306165517241384
0.7075696551724129
0.6930531034482755
0.6899103448275863
0.6867675862068964
0.6836248275862066
0.6804820689655172
0.6773393103448274
0.6741965517241381
0.6710537931034483
0.6679110344827585
0.6647682758620691
0.6616255172413793
0.6584827586206894
0.6553400000000001
0.6521972413793102
0.6490544827586204
0.6459117241379311
0.6427689655172413
0.6396262068965515
0.6364834482758621
0.6333406896551723
0.6301979310344824
0.6270551724137932
0.6239124137931032
0.620769655172414
0.6445220689655173
0.6769972413793124
0.7094724137931019
0.7419475862068969
0.774422758620692
0.8068979310344816
0.8393731034482765
0.8718482758620716
0.9043234482758612
0.9367986206896561
0.9692737931034512
1.001748965517241
1.0342241379310357
1.0666993103448308
1.0991744827586203
1.1316496551724153
1.164124827586205
1.1966
1.2290751724137952
1.2615503448275847
1.2940255172413795
1.3265006896551745
1.3589758620689643
1.387025517241379
1.3652881034482742
1.3435506896551732
1.3218132758620684
1.3000758620689636
1.2783384482758626
1.2566010344827578
1.234863620689653
1.213126206896552
1.1913887931034473
1.1696513793103425
1.1479139655172415
1.1261765517241367
1.1044391379310357
1.0827017241379309
1.060964310344826
1.039226896551725
1.0174894827586203
0.9957520689655156
0.9740146551724145
0.9522772413793098
0.9305398275862051
0.908802413793104
0.8870649999999992
0.8751620689655174
0.8775191379310344
0.8798762068965518
0.8822332758620692
0.8845903448275861
0.8869474137931036
0.8893044827586205
0.891661551724138
0.8940186206896553
0.8963756896551723
0.8987327586206897
0.901089827586207
0.903446896551724
0.9058039655172414
0.9081610344827589
0.9105181034482758
0.9128751724137932
0.9152322413793106
0.9175893103448276
0.919946379310345
0.9223034482758623
0.9246605172413793
0.9270175862068967
0.9293746551724141
0.93
0.93
0.93
0.93
0.93
0.93
0.93
0.93
0.93
0.93
0.93
0.93
0.93
0.93
0.93
0.93
0.93
0.93
0.93
0.93
0.93
0.93
0.93
0.9291982758620688
0.9161034482758612
0.9030086206896557
0.889913793103448
0.8768189655172404
0.8637241379310349
0.8506293103448272
0.8375344827586195
0.824439655172414
0.8113448275862064
0.7982499999999987
0.7851551724137933
0.7720603448275856
0.7589655172413801
0.7458706896551724
0.7327758620689647
0.7196810344827593
0.7065862068965516
0.6934913793103439
0.6803965517241385
0.6673017241379308
0.6542068965517231
0.6411120689655176
0.6280172413793099
0.6352327586206931
0.6745172413793096
0.7138017241379325
0.7530862068965556
0.792370689655172
0.8316551724137949
0.870939655172418
0.9102241379310344
0.9495086206896575
0.9887931034482738
1.028077586206897
1.0673620689655199
1.1066465517241362
1.1459310344827593
1.1852155172413823
1.2244999999999986
1.2637844827586218
1.3030689655172447
1.342353448275861
1.3816379310344842
1.4209224137931071
1.4602068965517234
1.4994913793103466
1.5387758620689698
1.531293103448276
1.5051034482758607
1.4789137931034497
1.4527241379310345
1.426534482758619
1.400344827586208
1.3741551724137928
1.3479655172413776
1.3217758620689666
1.2955862068965511
1.269396551724136
1.243206896551725
1.2170172413793097
1.1908275862068942
1.1646379310344832
1.138448275862068
1.1122586206896525
1.0860689655172417
1.0598793103448263
1.0336896551724108
1.0075
0.9813103448275847
0.9551206896551737
0.93
0.93
0.93
0.93
0.93
0.93
0.93
0.93
0.93
0.93
0.93
0.93
0.93
0.93
0.93
0.93
0.93
0.93
0.93
0.93
0.93
0.93
0.93
0.93
0.9348103448275874
0.9479051724137928
0.9610000000000005
0.9740948275862081
0.9871896551724136
1.0002844827586213
1.013379310344829
1.0264741379310345
1.0395689655172422
1.0526637931034497
1.0657586206896552
1.078853448275863
1.0919482758620684
1.105043103448276
1.1181379310344837
1.1312327586206892
1.144327586206897
1.1574224137931046
1.17051724137931
1.1836120689655176
1.1967068965517254
1.2098017241379309
1.2228965517241384
1.235991379310346
1.2218275862068968
1.1956379310344816
1.1694482758620661
1.1432586206896551
1.1170689655172399
1.0908793103448289
1.0646896551724137
1.0384999999999982
1.0123103448275872
0.986120689655172
0.9599310344827566
0.9337413793103457
0.9075517241379303
0.881362068965515
0.855172413793104
0.8289827586206887
0.8027931034482734
0.7766034482758624
0.7504137931034471
0.7242241379310318
0.6980344827586208
0.6718448275862055
0.6456551724137901
0.62
0.62
0.62
0.62
0.62
0.62
0.62
0.62
0.62
0.62
0.62
0.62
0.62
0.62
0.62
0.62
0.62
0.62
0.62
0.62
0.62
0.62
0.62
0.62
0.6245431034482769
0.6376379310344824
0.65073275862069
0.6638275862068977
0.6769224137931031
0.6900172413793109
0.7031120689655186
0.716206896551724
0.7293017241379317
0.7423965517241393
0.7554913793103448
0.7685862068965525
0.7816810344827579
0.7947758620689657
0.8078706896551733
0.8209655172413788
0.8340603448275865
0.8471551724137941
0.8602499999999996
0.8733448275862072
0.886439655172415
0.8995344827586205
0.9126293103448281
0.9257241379310357
0.9211810344827589
0.9080862068965512
0.8949913793103436
0.8818965517241381
0.8688017241379303
0.8557068965517227
0.8426120689655172
0.8295172413793096
0.8164224137931041
0.8033275862068964
0.7902327586206888
0.7771379310344833
0.7640431034482755
0.7509482758620679
0.7378534482758624
0.7247586206896548
0.7116637931034471
0.6985689655172416
0.685474137931034
0.6723793103448263
0.6592844827586208
0.6461896551724131
0.6330948275862054
0.62
FIELD FieldData 2
Curvature 1 1161 double
0.299235829662222
0.305728187743208
0.312010937995581
0.318041072226298
0.323774277589718
0.32916548591828
0.334169505208737
0.338741723136694
0.342838867722482
0.34641980562831
0.349446354392438
0.351884079601897
0.353703046084114
0.354878509466059
0.355391503356403
0.355229298667528
0.354385716333227
0.352861278887644
0.350663193653461
0.347805168115498
0.344307065849491
0.340194429752882
0.335497907341628
0.330252513503654
0.32449684466845
0.318272266261086
0.311622091992389
0.304590781857486
0.297223182209971
0.28956382695869
0.281656314188727
0.273542827053947
0.265263863411828
0.256857697748058
0.248360047392994
0.239803881393382
0.23121930569322
0.222633515945428
0.214070808566074
0.205552640468892
0.197097728173364
0.188722286513531
0.180440500686906
0.172264353504723
0.164203690303744
0.156266400155152
0.148458598627818
0.140784808919416
0.13324813908876
0.125850454003553
0.118592541483058
0.11147435486389
0.104495408513161
0.0976546757331004
0.0909506630216663
0.0843815767226587
0.077945508459868
0.0716406552419742
0.0654656003582443
0.0594196995015893
0.0535036507285888
0.0477203788977654
0.0420765136927011
0.0365851620211777
0.0312710903286815
0.0261812145562771
0.0214072700071205
0.0171365141539119
0.0137552409932776
0.0119471417215586
0.0123407441060532
0.014702195784386
0.0182427512620539
0.0223810114306008
0.0268209911493594
0.0314200483480474
0.0361066532733438
0.040842997015345
0.0456082400593919
0.0503906097909496
0.055183428259523
0.0599824935007512
0.0647833956222104
0.0695822996086598
0.0743759930641386
0.0791615931910883
0.0839363494305132
0.0886975062335677
0.0934422049653215
0.0981674121897845
0.102869866423173
0.107546123639697
0.112192778271592
0.11680617653067
0.121382314553999
0.125916828609834
0.130404990370187
0.134841707068176