# vtk DataFile Version 2.0
Vessel Segment
ASCII
DATASET POLYDATA
POINTS 1161 float
-0.0576998004400125 -0.155676267428822 0.179491671332883
0.0431684986409847 -0.0668915816418277 0.172870756170815
0.143397186593545 0.0191215808784483 0.169739166013675
0.2429885438764 0.102418530440571 0.170018414626489
0.34194485116048 0.183054577850126 0.173630015208205
0.440268389360461 0.261085034635779 0.180495480120615
0.537961439666323 0.336565213275338 0.190536320617292
0.635026283574902 0.409550427421811 0.20367404657251
0.731465202921438 0.480095992129473 0.219830166210175
0.827280479911135 0.548257224079918 0.238926185832756
0.922474397150709 0.614089441808126 0.260883609550209
1.01704923770161 0.677647965974658 0.285623938957153
1.11100728569645 0.738988120837426 0.313068671464421
1.20435082838527 0.798165238768527 0.343139295214812
1.29708215874489 0.855234665970646 0.375757282653216
1.38920357811011 0.910251768239596 0.410844084044986
1.48071739880474 0.963271936726863 0.448321120994317
1.57162594677278 1.01435059370215 0.488109779962613
1.66193156420943 1.0635431983159 0.530131405786865
1.7516366121923 1.11090525236187 0.57430729519802
1.84074347331245 1.15649230603965 0.620558690339361
1.92925455431154 1.20035996369541 0.66880677231474
2.01717228887648 1.24256388899628 0.718972655513376
2.10449914083355 1.2831598086668 0.7709773839059
2.19123760750001 1.32220351565908 0.824741928116951
2.27739022304179 1.35975087230103 0.880187182527639
2.36295956183111 1.39585781344475 0.93723396237801
2.44794824180416 1.43058034961477 0.995803000869513
2.53235892781876 1.46397457015639 1.05581494626746
2.61619433501198 1.49609664638398 1.11719035900351
2.69945723215784 1.52700283472929 1.17984970877808
2.78215044500526 1.55674947977656 1.24371337178943
2.86427685910398 1.58539301435482 1.30870163125254
2.94583942133071 1.6129899521599 1.37473468626957
3.02684114090326 1.63959687743361 1.44173266399017
3.10728509037495 1.66527043452974 1.50961563189842
3.18717440662904 1.69006731748004 1.57830361009968
3.26651229187317 1.71404425956024 1.64771658360751
3.34530201463372 1.73725802285602 1.71777451463057
3.42354691075032 1.75976538782902 1.7883973548595
3.50125038437021 1.78162314288284 1.85950505775379
3.57841590891698 1.80288807368763 1.93101759111768
3.65504702739119 1.82361694622885 2.00285495718884
3.73114735097494 1.84386647392481 2.07493723179819
3.80672055696834 1.86369327846844 2.14718461104254
3.88177038670027 1.88315385042755 2.21951745824628
3.95630064343919 1.90230450984519 2.29185635092292
4.03031519030384 1.92120136683996 2.36412212773677
4.10381794817406 1.93990028220634 2.43623593546457
4.17681289360155 1.95845682801497 2.50811927595707
4.24930405672062 1.97692624821305 2.5796940531007
4.32129551913028 1.99536341954268 2.6508826193794
4.39279141103047 2.01382282072982 2.7216078120429
4.46379590646495 2.03235852266757 2.79179296289097
4.53431321781831 2.05102418686993 2.8613618976642
4.60434759028433 2.0698730642437 2.9302389350349
4.67390329633429 2.08895799386033 2.99834888559803
4.74298463018538 2.10833140172781 3.06561705086217
4.81159590226895 2.12804529956254 3.13196922224042
4.87974143369893 2.14815128356123 3.19733168004136
4.94742555074014 2.16870053317275 3.26163119246
5.01465257939303 2.18974380865229 3.32479501629374
5.08142684300551 2.21133141695546 3.38675094250993
5.14775266756861 2.23351309726422 3.44742745566725
5.21363439003922 2.25633787485273 3.50675393818863
5.27907636677923 2.27985391373552 3.56466087635926
5.34408298199467 2.30410836931558 3.62108006632454
5.40865865617486 2.32914724103258 3.67594482008809
5.47280785453152 2.35501522501094 3.72919017150974
5.53653509543795 2.38175556670803 3.78075308230347
5.59984495886818 2.40940991356227 3.83057264803544
5.66274209491941 2.43801816860472 3.87859030325028
5.72523123450225 2.46761836911972 3.92475000393365
5.78731720553329 2.49824662889154 3.96899835244378
5.84900495129538 2.52993710550015 4.01128469977926
5.91029954888127 2.56272196858036 4.05156124697518
5.97120622763723 2.59663136808101 4.08978314649926
6.03173038760671 2.63169340252414 4.12590860364793
6.09187761797396 2.66793408726412 4.15989897794249
6.15165371550766 2.70537732274686 4.19171888452521
6.21106470300456 2.74404486276893 4.22133629555544
6.27011684755159 2.78395628338711 4.24872264071931
6.32881667406836 2.82512896873641 4.27385288469155
6.38717096686907 2.86757813976995 4.29670554609138
6.44518676650478 2.91131689990739 4.31726269339051
6.5028713664242 2.95635628133365 4.33550993993482
6.56023230963445 3.00270529129773 4.35143643896588
6.61727738536183 3.05037095841137 4.36503487864256
6.67401462571257 3.0993583789479 4.37630147706266
6.73045230233362 3.14967076314094 4.38523597728448
6.78659892307339 3.20130948148318 4.39184164234841
6.84246322834335 3.25427411128055 4.39612524963727
6.89805417970024 3.30856248984776 4.39809706804338
6.9533809286808 3.36417078456252 4.39777079149134
7.0084527778572 3.42109356956116 4.39516345526761
7.06327914159323 3.47932390268961 4.39029535168874
7.11786950680053 3.53885340245441 4.38318994576965
7.17223339369475 3.59967232497377 4.37387379089193
7.22638031655181 3.66176964092851 4.36237644447207
7.28031974446407 3.72513311251313 4.34873038362978
7.33406106209653 3.78974937038681 4.33297092085622
7.38761353005087 3.85560399053115 4.31513611930037
7.44098623503155 3.92268156868343 4.2952666981253
7.49418801412534 3.99096578861528 4.27340591265742
7.54722736888297 4.06043948798683 4.24959942460563
7.60011237900855 4.13108472410761 4.22389517189854
7.65285061604907 4.20288283969742 4.19634323852175
7.70544905708379 4.27581452864729 4.16699572435506
7.7579139984137 4.34985990178034 4.13590661500969
7.81025096925098 4.42499855261266 4.10313165166557
7.86246464540844 4.50120962311426 4.06872820090855
7.91455876363094 4.57847186918159 4.03275512429681
7.96653605261851 4.65676371861281 3.99527264088565
8.01839820642073 4.73606331005173 3.95634217187757
8.07014587452269 4.81634852443429 3.9160261782306
8.12177865257304 4.89759701614695 3.87438799799591
8.17329507311204 4.97978624418485 3.83149168365543
8.22469259629949 5.06289350331009 3.78740183945938
8.27596760064283 5.14689595521 3.74218345876387
8.3271153737251 5.23177065965539 3.69590176136848
8.37813010293296 5.31749460565879 3.64862203085387
8.42900486640917 5.40404474233951 3.6004094528527
8.47973162983959 5.4913980021658 3.55132897758905
8.53030125805147 5.57953130484638 3.50144524402203
8.58070353244622 5.66842155359911 3.45082252825783
8.63092716865674 5.75804563112644 3.39952469289518
8.68095983420464 5.84838039559081 3.34761513637075
8.73078816615757 5.93940267659017 3.29515674230462
8.78039778878642 6.03108927113336 3.24221182884564
8.82977333122262 6.1234169396156 3.18884209801698
8.87889844511541 6.21636240179392 3.13510858506144
8.92775582120324 6.30990233226862 3.08107160622404
8.97632717765188 6.4040133431218 3.02679066589825
9.02459317672376 6.49867193395419 2.97232426061868
9.07253331321408 6.59385442907911 2.91772964241758
9.12012580180093 6.68953691422239 2.86306258061838
9.1673474643956 6.78569517322227 2.80837712362918
9.21417361749267 6.88230462472938 2.75372536073637
9.26057795952028 6.97934025890663 2.69915718389808
9.30653245819032 7.07677657412918 2.64472004953779
9.3520072378486 7.17458751368432 2.59045874033781
9.39697046890087 7.27274640275185 2.53641512927687
9.4413883112098 7.37122589267414 2.48262800201224
9.48522499449506 7.46999792373111 2.42913302736716
9.52844295270448 7.56903369520505 2.3759627861629
9.57100296046087 7.6683036357258 2.32314680229479
9.61286426950894 7.76777737361587 2.2707115738083
9.65398474516222 7.86742370723562 2.21868060397504
9.69432100274988 7.96721057532845 2.16707443236882
9.73382854406369 8.06710502736595 2.11591066594172
9.77246189380489 8.16707319389305 2.06520401010009
9.81017473615561 8.26708025732212 2.01496630024447
9.84692005458855 8.36709043439762 1.96520654536861
9.88265027989683 8.46706698828663 1.91593100227049
9.91731744146205 8.5669722523399 1.86714326182245
9.95087331864686 8.66676765430187 1.81884433570521
9.98326959218761 8.7664137405207 1.77103274314184
10.0144579955869 8.86587020015824 1.72370459763178
10.0443904665064 8.96509588940004 1.67685369368483
10.073019298159 9.06404885566538 1.63047159355514
10.1002972907021 9.16268636181722 1.58454771397519
10.1261779021722 9.2609649108 1.53906941327224
10.1506153875334 9.35884028139873 1.49402208842778
10.1735649075476 9.45626759222933 1.44938929737707
10.1949826257587 9.55320137685025 1.40515289125173
10.2148258050179 9.649595659302 1.36129314700479
10.2330529040106 9.74540402964647 1.31778890003562
10.2496236737819 9.84057971950645 1.27461767681505
10.2644992542629 9.935075677605 1.23175582751031
10.277642270797 10.0288446453049 1.18917865861007
10.2890169306658 10.1218392321481 1.14686056554947
10.2985891192054 10.2140119915532 1.10477516510095
10.306326485262 10.3053155006231 1.06289542167743
10.3121984995871 10.3957024503863 1.02119375818189
10.3161765025727 10.4851257401484 0.979642160769272
10.3182337515758 10.5735385720011 0.93821228337419
10.3183454682435 10.6608945453321 0.896875552238684
10.3164888858375 10.7471477513345 0.855603270439941
10.3126432965596 10.8322528675162 0.814366722418032
10.3067900988762 10.9161652522092 0.773137278503642
10.298912844843 10.9988410390794 0.731886499445808
10.2889972871146 11.0802372317101 0.690586240712679
10.2770314177457 11.1603118001132 0.649208750891162
10.2630054861577 11.2390237821356 0.607726755106782
10.2469120088975 11.3163333867921 0.566113532542422
10.2287457790804 11.3922020976736 0.524342993730094
10.2085038758334 11.4665927763547 0.482389757842709
10.1861856737383 11.5394697658016 0.440229229985848
10.1617928522745 11.6107989937797 0.397837678489538
10.1353294052624 11.6805480762615 0.355192312200016
10.1068016503064 11.7486864208343 0.312271357771507
10.0762182374502 11.8151853294254 0.269054136500727
10.043590137351 11.8800180832787 0.225521129272531
10.0089305774633 11.9431599828774 0.18165401132613
[...]
POINT_DATA 1161
SCALARS MaximumInscribedSphereRadius float
LOOKUP_TABLE default
2.4986
2.5242872413793105
2.549974482758621
2.575661724137931
2.6013489655172415
2.627036206896552
2.652723448275862
2.6784106896551725
2.704097931034483
2.729785172413793
2.7554724137931035
2.781159655172414
2.806846896551724
2.8325341379310345
2.858221379310345
2.883908620689655
2.9095958620689655
2.935283103448276
2.960970344827586
2.9866575862068965
3.012344827586207
3.038032068965517
3.05159724137931
3.0539062068965515
3.056215172413793
3.0585241379310344
3.060833103448276
3.063142068965517
3.0654510344827584
3.06776
3.0700689655172413
3.0723779310344828
3.0746868965517242
3.0769958620689652
3.0793048275862067
3.081613793103448
3.0839227586206897
3.086231724137931
3.0885406896551726
3.0908496551724136
3.093158620689655
3.0954675862068965
3.097776551724138
3.1005344827586208
3.1149655172413797
3.129396551724138
3.1438275862068967
3.1582586206896552
3.1726896551724137
3.1871206896551727
3.201551724137931
3.2159827586206897
3.2304137931034482
3.244844827586207
3.2592758620689657
3.273706896551724
3.288137931034483
3.3025689655172417
3.317
3.3314310344827587
3.345862068965517
3.360293103448276
3.3747241379310347
3.389155172413793
3.403586206896552
3.393965517241379
3.365103448275862
3.3362413793103447
3.3073793103448277
3.27851724137931
3.249655172413793
3.2207931034482757
3.1919310344827587
3.1630689655172413
3.1342068965517242
3.105344827586207
3.0764827586206898
3.0476206896551723
3.0187586206896553
2.989896551724138
2.9610344827586204
2.9321724137931033
2.9033103448275863
2.874448275862069
2.845586206896552
2.8167241379310344
2.79
2.79
2.79
2.79
2.79
2.79
2.79
2.79
2.79
2.79
2.79
2.79
2.79
2.79
2.79
2.79
2.79
2.79
2.79
2.79
2.79
2.79
2.781961379310345
2.768396206896552
2.7548310344827587
2.7412658620689654
2.727700689655172
2.7141355172413792
2.700570344827586
2.687005172413793
2.67344
2.659874827586207
2.6463096551724137
2.632744482758621
2.6191793103448275
2.6056141379310347
2.5920489655172414
2.578483793103448
2.5649186206896553
2.551353448275862
2.537788275862069
2.524223103448276
2.510657931034483
2.493693448275862
2.4495344827586205
2.4053755172413793
2.361216551724138
2.3170575862068965
2.2728986206896544
2.2287396551724132
2.184580689655172
2.1404217241379304
2.0962627586206892
2.052103793103448
2.007944827586207
1.9637858620689652
1.919626896551724
1.8754679310344828
1.8313089655172414
1.78715
1.742991034482758
1.6988320689655168
1.6546731034482753
1.610514137931034
1.5663551724137927
1.5627206896551726
1.5829241379310346
1.6031275862068968
1.6233310344827587
1.6435344827586207
1.6637379310344829
1.6839413793103448
1.7041448275862072
1.7243482758620694
1.7445517241379314
1.7647551724137933
1.7849586206896555
1.8051620689655175
1.8253655172413794
1.8455689655172416
1.8657724137931035
1.8859758620689655
1.9061793103448277
1.92638275862069
1.946586206896552
1.966789655172414
1.9810068965517242
1.9608034482758623
1.9406
1.9203965517241373
1.9001931034482753
1.8799896551724133
1.8597862068965512
1.8395827586206892
1.8193793103448272
1.799175862068965
1.7789724137931031
1.7587689655172412
1.738565517241379
1.718362068965517
1.698158620689655
1.6779551724137929
1.657751724137931
1.637548275862069
1.6173448275862068
1.5971413793103448
1.5769379310344829
1.5567344827586207
1.5626993103448277
1.581748275862069
1.6007972413793103
1.6198462068965516
1.6388951724137937
1.6579441379310351
1.6769931034482763
1.6960420689655178
1.715091034482759
1.7341400000000005
1.753188965517242
1.7722379310344831
1.7912868965517246
1.8103358620689658
1.8293848275862072
1.8484337931034487
1.86748275862069
1.8865317241379314
1.9055806896551726
1.924629655172414
1.9436786206896555
1.9585586206896552
1.955095172413793
1.951631724137931
1.948168275862069
1.9447048275862069
1.941241379310345
1.937777931034483
1.9343144827586207
1.9308510344827585
1.9273875862068965
1.9239241379310343
1.9204606896551724
1.9169972413793104
1.9135337931034482
1.9100703448275862
1.9066068965517242
1.903143448275862
1.89968
1.8962165517241378
1.8927531034482759
1.8892896551724139
1.8858262068965517
1.8839875862068967
1.882833103448276
1.8816786206896552
1.8805241379310345
1.879369655172414
1.8782151724137932
1.8770606896551725
1.8759062068965517
1.874751724137931
1.8735972413793103
1.8724427586206898
1.871288275862069
1.8701337931034483
1.8689793103448276
1.867824827586207
1.8666703448275863
1.8655158620689656
1.8643613793103448
1.8632068965517241
1.8620524137931036
1.8608979310344829
1.860256551724138
1.8614110344827588
1.8625655172413793
1.86372
1.8648744827586208
1.8660289655172415
1.8671834482758622
1.8683379310344828
1.8694924137931035
1.8706468965517242
1.871801379310345
1.8729558620689657
1.8741103448275862
1.875264827586207
1.8764193103448277
1.8775737931034484
1.8787282758620691
1.8798827586206897
1.8810372413793104
1.8821917241379311
1.8833462068965519
1.8845006896551724
1.883944827586207
1.8827903448275862
1.8816358620689655
1.8804813793103448
1.8793268965517242
1.8781724137931035
1.8770179310344828
1.875863448275862
1.8747089655172415
1.8735544827586208
1.8724
1.8712455172413793
1.8700910344827586
1.8689365517241379
1.8677820689655174
1.8666275862068966
1.8654731034482759
1.8643186206896551
1.8631641379310346
1.862009655172414
1.8608551724137932
1.856258620689655
1.8418275862068965
1.8273965517241377
1.8129655172413792
1.7985344827586205
1.784103448275862
1.7696724137931032
1.7552413793103447
1.7408103448275862
1.7263793103448275
1.711948275862069
1.6975172413793103
1.6830862068965518
1.6686551724137932
1.654224137931034
1.6397931034482753
1.6253620689655168
1.6109310344827583
1.5964999999999996
1.582068965517241
1.5676379310344823
1.5532068965517238
1.5749175862068974
1.6069544827586215
1.6389913793103454
1.6710282758620696
1.7030651724137937
1.7351020689655177
1.7671389655172418
1.799175862068966
1.83121275862069
1.8632496551724143
1.8952865517241382
1.9273234482758623
1.9593603448275863
1.9913972413793104
2.0234341379310345
2.0554710344827596
2.0875079310344837
2.119544827586208
2.151581724137932
2.183618620689656
2.2156555172413803
2.240765517241379
2.2494241379310345
2.2580827586206893
2.2667413793103446
2.2754
2.284058620689655
2.292717241379311
2.301375862068966
2.310034482758621
2.3186931034482763
2.3273517241379316
2.3360103448275864
2.3446689655172417
2.353327586206897
2.3619862068965523
2.370644827586207
2.3793034482758624
2.3879620689655177
2.3966206896551725
2.405279310344828
2.413937931034483
2.422596551724138
2.391040689655171
2.3503451724137916
2.3096496551724126
2.268954137931033
2.228258620689654
2.1875631034482748
2.1468675862068958
2.1061720689655163
2.065476551724137
2.024781034482758
1.9840855172413785
1.9433899999999993
1.90269448275862
1.8619989655172409
1.8213034482758617
1.7806079310344824
1.7399124137931032
1.6992168965517238
1.6585213793103448
1.6178258620689654
1.5771303448275862
1.5548103448275863
1.5692413793103448
1.5836724137931035
1.598103448275862
1.6125344827586205
1.6269655172413793
1.6413965517241378
1.6558275862068965
1.670258620689655
1.6846896551724146
1.6991206896551734
1.7135517241379319
1.7279827586206906
1.7424137931034491
1.7568448275862076
1.7712758620689664
1.7857068965517249
1.8001379310344836
1.8145689655172421
1.8290000000000006
1.8434310344827594
1.857862068965518
1.835413793103447
1.80655172413793
1.7776896551724128
1.7488275862068956
1.7199655172413784
1.6911034482758611
1.6622413793103439
1.6333793103448269
1.6045172413793096
1.5756551724137924
1.5467931034482751
1.517931034482758
1.4890689655172409
1.4602068965517236
1.4313448275862064
1.4024827586206892
1.373620689655172
1.344758620689655
1.3158965517241374
1.2870344827586204
1.2581724137931032
1.245344827586207
1.2597758620689656
1.2742068965517241
1.2886379310344829
1.3030689655172414
1.3175
1.3319310344827586
1.3463620689655171
1.3607931034482759
1.3752241379310344
1.3896551724137929
1.4040862068965516
1.4185172413793101
1.43294827586207
1.4473793103448285
1.4618103448275872
1.4762413793103457
1.4906724137931042
1.505103448275863
1.5195344827586215
1.5339655172413802
1.5483965517241387
1.5628275862068972
1.577258620689656
1.5916896551724145
1.6061206896551732
1.6205517241379317
1.6349827586206902
1.649413793103449
1.6638448275862074
1.6782758620689662
1.6927068965517247
1.7071379310344832
1.721568965517242
1.7360000000000004
1.7504310344827592
1.7648620689655177
1.7792931034482764
1.793724137931035
1.8081551724137936
1.8225862068965522
1.8370172413793107
1.8514482758620694
1.8717586206896557
1.900620689655173
1.9294827586206902
1.9583448275862074
1.9872068965517244
2.016068965517242
2.044931034482759
2.073793103448276
2.1026551724137934
2.1315172413793104
2.160379310344828
2.189241379310345
2.218103448275862
2.2469655172413794
2.2758275862068964
2.3046896551724134
2.333551724137933
2.36241379310345
2.3912758620689676
2.4201379310344846
2.4490000000000016
2.477862068965519
2.493362068965518
2.5077931034482766
2.522224137931035
2.536655172413794
2.5510862068965525
2.565517241379311
2.5799482758620695
2.594379310344828
2.608810344827587
2.6232413793103455
2.637672413793104
2.6521034482758625
2.666534482758621
2.68096551724138
2.6953965517241385
2.709827586206897
2.7242586206896555
2.738689655172414
2.753120689655173
2.7675517241379315
2.78198275862069
2.7771724137931026
2.7483103448275856
2.719448275862068
2.690586206896551
2.661724137931034
2.6328620689655167
2.6039999999999996
2.575137931034482
2.546275862068965
2.517413793103448
2.4885517241379307
2.4596896551724137
2.430827586206896
2.401965517241379
2.373103448275862
2.3442413793103447
2.3153793103448277
2.2865172413793102
2.257655172413793
2.228793103448276
2.1999310344827565
2.1710689655172395
2.1838965517241387
2.1983275862068976
2.212758620689656
2.2271896551724146
2.241620689655173
2.2560517241379316
2.2704827586206906
2.284913793103449
2.2993448275862076
2.313775862068966
2.3282068965517246
2.3426379310344836
2.357068965517242
2.3715000000000006
2.385931034482759
2.4003620689655176
2.4147931034482766
2.429224137931035
2.4436551724137936
2.458086206896552
2.472517241379311
2.48
2.48
2.48
2.48
2.48
2.48
2.48
2.48
2.48
2.48
2.48
2.48
2.48
2.48
2.48
2.48
2.48
2.48
2.48
2.48
2.48
2.48
2.451137931034483
2.4222758620689633
2.3934137931034463
2.364551724137929
2.335689655172412
2.3068275862068948
2.2779655172413773
2.2491034482758603
2.220241379310343
2.191379310344826
2.162517241379309
2.1336551724137913
2.1047931034482743
2.0759310344827573
2.04706896551724
2.018206896551723
1.9893448275862056
1.9604827586206883
1.9316206896551713
1.9027586206896538
1.8738965517241368
1.8525172413793098
1.8380862068965513
1.8236551724137926
1.809224137931034
1.7947931034482754
1.7803620689655169
1.7659310344827581
1.7514999999999996
1.737068965517241
1.7226379310344824
1.7082068965517239
1.6937758620689651
1.6793448275862066
1.6649137931034481
1.6504827586206894
1.6360517241379309
1.6216206896551721
1.6071896551724136
1.5927586206896551
1.5783275862068964
1.5638965517241379
1.5510689655172416
1.5799310344827588
1.608793103448276
1.6376551724137933
1.6665172413793103
1.6953793103448276
1.724241379310347
1.7531034482758643
1.7819655172413813
1.8108275862068985
1.8396896551724158
1.868551724137933
1.8974137931034503
1.9262758620689673
1.9551379310344845
1.9840000000000018
2.012862068965519
2.0417241379310362
2.0705862068965533
2.0994482758620707
2.1283103448275877
2.1571724137931048
2.178017241379311
2.19244827586207
2.2068793103448283
2.221310344827587
2.2357413793103453
2.250172413793104
2.264603448275863
2.2790344827586213
2.29346551724138
2.3078965517241383
2.322327586206897
2.336758620689656
2.3511896551724143
2.365620689655173
2.3800517241379313
2.39448275862069
2.4089137931034488
2.4233448275862073
2.437775862068966
2.4522068965517243
2.466637931034483
2.477862068965517
2.4489999999999994
2.4201379310344824
2.3912758620689654
2.362413793103448
2.333551724137931
2.3046896551724134
2.2758275862068964
2.2469655172413794
2.2181034482758597
2.1892413793103427
2.160379310344825
2.131517241379308
2.102655172413791
2.0737931034482737
2.0449310344827567
2.0160689655172392
1.9872068965517222
1.9583448275862052
1.929482758620688
1.9006206896551707
1.8717586206896535
1.902758620689654
1.9749137931034524
2.04706896551724
2.1192241379310386
2.191379310344826
2.2635344827586246
2.335689655172412
2.4078448275862105
2.4799999999999978
2.5521551724137965
2.6243103448275837
2.6964655172413825
2.768620689655181
2.8407758620689685
2.912931034482767
2.9850862068965545
3.057241379310353
3.1293965517241404
3.2015517241379388
3.2737068965517264
3.3458620689655247
3.4067931034482752
3.377931034482756
3.3490689655172408
3.3202068965517215
3.2913448275862063
3.262482758620687
3.2336206896551722
3.2047586206896526
3.1758965517241378
3.147034482758618
3.1181724137931033
3.089310344827584
3.060448275862069
3.0315862068965496
3.0027241379310343
2.973862068965515
2.9450000000000003
2.9161379310344806
2.887275862068966
2.858413793103446
2.8295517241379313
2.8006896551724116
2.7627413793103455
2.7194482758620664
2.6761551724137935
2.6328620689655144
2.589568965517242
2.546275862068963
2.5029827586206905
2.4596896551724114
2.416396551724139
2.37310344827586
2.3298103448275875
2.2865172413793085
2.243224137931036
2.1999310344827565
2.156637931034478
2.113344827586205
2.070051724137926
2.0267586206896535
1.9834655172413744
1.940172413793102
1.896879310344823
1.8621379310344834
1.876568965517243
1.8910000000000005
1.9054310344827603
1.9198620689655177
1.9342931034482773
1.948724137931035
1.9631551724137946
1.977586206896552
1.9920172413793118
2.0064482758620694
2.020879310344829
2.0353103448275864
2.0497413793103463
2.0641724137931035
2.0786034482758633
2.093034482758621
2.1074655172413803
2.121896551724138
2.1363275862068978
2.150758620689655
2.165189655172415
2.161148965517241
2.1478724137931025
2.1345958620689656
2.1213193103448265
2.1080427586206896
2.094766206896551
2.081489655172414
2.068213103448275
2.054936551724138
2.0416599999999994
2.0283834482758625
2.0151068965517234
2.0018303448275865
1.9885537931034476
1.9752772413793107
1.9620006896551718
1.948724137931035
1.9354475862068958
1.922171034482757
1.90889448275862
1.8956179310344812
1.8819137931034478
1.8663282758620672
1.850742758620689
1.8351572413793087
1.8195717241379306
1.80398620689655
1.7884006896551718
1.7728151724137915
1.7572296551724134
1.7416441379310328
1.7260586206896549
1.7104731034482743
1.6948875862068962
1.6793020689655158
1.6637165517241377
1.648131034482757
1.632545517241379
1.6169599999999986
1.6013744827586205
1.58578896551724
1.570203448275862
1.5546179310344814
1.5447193103448276
1.5372151724137926
1.5297110344827587
1.5222068965517237
1.5147027586206896
1.5071986206896546
1.4996944827586207
1.4921903448275857
1.4846862068965518
1.4771820689655168
1.469677931034483
1.4621737931034477
1.4546696551724139
1.4471655172413789
1.439661379310345
1.43215724137931
1.4246531034482761
1.417148965517241
1.409644827586207
1.402140689655172
1.3946365517241381
1.387260689655172
1.3803337931034474
1.3734068965517239
1.3664799999999993
1.3595531034482755
1.3526262068965509
1.3456993103448274
1.3387724137931027
1.331845517241379
1.3249186206896544
1.3179917241379309
1.3110648275862062
1.3041379310344825
1.2972110344827579
1.2902841379310344
1.2833572413793097
1.276430344827586
1.2695034482758614
1.2625765517241379
1.2556496551724132
1.2487227586206895
1.2417958620689649
1.250689655172414
1.2651206896551737
1.2795517241379313
1.293982758620691
1.3084137931034485
1.3228448275862081
1.3372758620689655
1.3517068965517254
1.3661379310344828
1.3805689655172424
1.395
1.4094310344827596
1.4238620689655173
1.4382931034482769
1.4527241379310345
1.4671551724137941
1.4815862068965515
1.4960172413793114
1.5104482758620688
1.5248793103448286
1.539310344827586
1.5425172413793087
1.5136551724137937
1.4847931034482742
1.4559310344827594
1.42706896551724
1.3982068965517205
1.3693448275862055
1.340482758620686
1.3116206896551712
1.2827586206896517
1.2538965517241367
1.2250344827586173
1.1961724137931022
1.167310344827583
1.138448275862068
1.1095862068965485
1.0807241379310335
1.051862068965514
1.0229999999999992
0.9941379310344798
0.9652758620689648
0.9364137931034454
0.9466117241379316
0.967969655172416
0.9893275862068971
1.0106855172413813
1.0320434482758625
1.053401379310347
1.0747593103448279
1.0961172413793123
1.1174751724137935
1.1388331034482777
1.1601910344827588
1.1815489655172433
1.2029068965517242
1.2242648275862087
1.2456227586206898
1.266980689655174
1.2883386206896552
1.3096965517241395
1.3310544827586206
1.352412413793105
1.373770344827586
1.3850372413793095
1.372337931034483
1.3596386206896545
1.3469393103448277
1.3342399999999992
1.3215406896551727
1.3088413793103442
1.2961420689655156
1.283442758620689
1.2707434482758604
1.2580441379310339
1.2453448275862053
1.2326455172413788
1.2199462068965503
1.2072468965517236
1.194547586206895
1.1818482758620685
1.16914896551724
1.1564496551724135
1.143750344827585
1.1310510344827582
1.1183517241379297
1.1221144827586211
1.1296186206896561
1.13712275862069
1.144626896551725
1.1521310344827589
1.1596351724137939
1.1671393103448278
1.1746434482758628
1.1821475862068966
1.1896517241379319
1.1971558620689657
1.2046600000000007
1.2121641379310346
1.2196682758620696
1.2271724137931035
1.2346765517241385
1.2421806896551724
1.2496848275862074
1.2571889655172412
1.2646931034482765
1.2721972413793103
1.2814331034482767
1.2941324137931034
1.306831724137932
1.3195310344827584
1.332230344827587
1.3449296551724137
1.3576289655172422
1.3703282758620687
1.3830275862068973
1.395726896551724
1.4084262068965525
1.421125517241381
1.4338248275862076
1.446524137931036
1.4592234482758628
1.4719227586206913
1.4846220689655178
1.4973213793103464
1.510020689655173
1.5227200000000016
1.5354193103448281
1.5481186206896567
1.55
1.55
1.55
1.55
1.55
1.55
1.55
1.55
1.55
1.55
1.55
1.55
1.55
1.55
1.55
1.55
1.55
1.55
1.55
1.55
1.55
1.5544896551724148
1.5666117241379311
1.5787337931034493
1.5908558620689657
1.6029779310344838
1.6151
1.6272220689655181
1.6393441379310345
1.6514662068965527
1.663588275862069
1.675710344827587
1.6878324137931033
1.6999544827586215
1.7120765517241379
1.724198620689656
1.7363206896551742
1.7484427586206903
1.7605648275862085
1.7726868965517248
1.784808965517243
1.7969310344827591
1.8090531034482775
1.7996248275862063
1.7875027586206882
1.7753806896551718
1.7632586206896537
1.7511365517241375
1.7390144827586194
1.726892413793103
1.7147703448275848
1.7026482758620685
1.6905262068965503
1.6784041379310342
1.666282068965516
1.6541599999999996
1.6420379310344815
1.629915862068965
1.6177937931034472
1.6056717241379308
1.5935496551724126
1.5814275862068963
1.5693055172413781
1.557183448275862
1.5382413793103422
1.5093793103448272
1.4805172413793077
1.4516551724137927
1.4227931034482735
1.3939310344827585
1.365068965517239
1.336206896551724
1.3073448275862045
1.2784827586206897
1.2496206896551703
1.2207586206896552
1.1918965517241358
1.1630344827586208
1.1341724137931015
1.1053103448275865
1.076448275862067
1.0475862068965522
1.0187241379310326
0.9898620689655133
0.9609999999999983
0.9321379310344788
0.9433620689655181
0.9577931034482778
0.9722241379310353
0.986655172413795
1.0010862068965525
1.015517241379312
1.0299482758620697
1.0443793103448293
1.058810344827587
1.0732413793103466
1.0876724137931042
1.1021034482758638
1.1165344827586212
1.130965517241381
1.1453965517241385
1.159827586206898
1.1742586206896557
1.1886896551724153
1.2031206896551727
1.2175517241379326
1.23198275862069
1.2346124137931023
1.222490344827586
1.2103682758620677
1.1982462068965516
1.1861241379310334
1.174002068965517
1.161879999999999
1.1497579310344825
1.1376358620689644
1.1255137931034482
1.11339172413793
1.1012696551724137
1.0891475862068956
1.0770255172413792
1.064903448275861
1.0527813793103449
1.0406593103448267
1.0285372413793104
1.0164151724137922
1.0042931034482758
0.9921710344827578
0.9800489655172415
0.9857144827586212
0.9920641379310354
0.9984137931034487
1.004763448275863