# vtk DataFile Version 2.0
Vessel Segment
ASCII
DATASET POLYDATA
POINTS 1151 float
-0.0107945940507658 -0.256331612059456 -0.0067684190838653
0.0406800671356258 -0.23347378793834 -0.0529881621179761
0.0919643438079222 -0.210889538380852 -0.0993794729397431
0.14306216972412 -0.188580816682939 -0.145937632791186
0.193977478642972 -0.166549576118805 -0.192657922913985
0.244714204325104 -0.144797769916783 -0.239535624548745
0.295276280534144 -0.123327351235211 -0.286566018934269
0.34566764103784 -0.102140273138306 -0.333744387306822
0.395892219609183 -0.0812384885720362 -0.381066010899398
0.445953950027531 -0.0606239503399976 -0.428526170940994
0.495856766079728 -0.0402986110792866 -0.47612014865587
0.545604601561326 -0.0202644232330258 -0.523843225262821
0.595201390280255 -0.0005233389358202 -0.571690681974319
0.644651066066748 0.0189226903218088 -0.61965779999539
0.693957562785716 0.0380717141160587 -0.667739860522365
0.743124814349223 0.0569217835158295 -0.715932144741635
0.792156754728957 0.0754709515087079 -0.764229933828399
0.841057317968705 0.093717273426951 -0.812628508945418
0.889830438196825 0.11165880737347 -0.861123151241768
0.938480049638722 0.129293614647815 -0.909709141851589
0.987010086629315 0.146619760172159 -0.958381761892839
1.03542448362564 0.163635312926599 -1.00713629246647
1.08372717522271 0.180338346626806 -1.05596801466664
1.13192209617757 0.196726941016841 -1.10487220961893
1.18001318143672 0.212799183404304 -1.1538441585296
1.22800436616353 0.22855317020482 -1.20287914273529
1.27589958576573 0.24398700848651 -1.25197244375267
1.3237027759229 0.259098817514472 -1.30111934332815
1.37141787261393 0.273886730295255 -1.35031512348754
1.41904881214452 0.288348895121336 -1.39955506658574
1.46659953117462 0.302483477115599 -1.44883445535644
1.5140739667459 0.316288659785017 -1.49814857296323
1.56147605630874 0.329762646813643 -1.54749270308957
1.60880973774795 0.342903664463098 -1.59686213012691
1.65607894940804 0.355709964212364 -1.64625213940158
1.70328763011843 0.36817982540679 -1.69565801740316
1.75043971921872 0.380311557907088 -1.74507505201291
1.79753915658391 0.392103504738343 -1.79449853273207
1.84458988264963 0.403554044739003 -1.8439237509103
1.8915958384374 0.414661595209892 -1.89334599997401
1.93856096557983 0.425424614563204 -1.94276057565478
1.98548920634562 0.435841604976153 -1.99216277622051
2.03238450365691 0.445911115165399 -2.04154790278007
2.07925080108766 0.455631743468078 -2.09091125977415
2.12609204285435 0.465002141043605 -2.1402481555396
2.1729121738065 0.474021015080133 -2.18955390287654
2.21971513941718 0.482687132000999 -2.23882381961545
2.26650488577343 0.490999320671182 -2.28805322918434
2.31328535956679 0.498956475603755 -2.33723746117584
2.36006050808378 0.506557560166336 -2.38637185191432
2.40683427919637 0.513801609787542 -2.43545174502304
2.45361062135153 0.520687735157383 -2.4844724919943
2.50039348353635 0.527215125269994 -2.53342945283949
2.54718681518116 0.533383050066203 -2.58231799694173
2.59399456603824 0.539190862918435 -2.63113350398834
2.64082068605956 0.544638003109559 -2.67987136490641
2.68766912527456 0.549723998311738 -2.72852698279831
2.73454383366788 0.554448467065272 -2.7770957738773
2.78144876105716 0.558811121257445 -2.825573168403
2.82838785697076 0.562811768601374 -2.873954611617
2.87536507052554 0.566450315114853 -2.92223556467839
2.92238435030262 0.569726767597188 -2.97041150560299
2.96944964417163 0.572641236053723 -3.01847793029875
3.01656489898412 0.57519393598757 -3.06643035384513
3.06373406021535 0.577385190639035 -3.11426431186866
3.1109610716042 0.579215433223026 -3.16197536192218
3.15824987479306 0.580685209166467 -3.20955908486403
3.20560440896763 0.581795178345707 -3.25701108623733
3.25302861049683 0.58254611732393 -3.3043269976492
3.30052641257269 0.582938921588569 -3.35150247814997
3.34810174485015 0.582974607788712 -3.39853321561248
3.39575853308391 0.582654315961537 -3.4454149281127
3.44350069868534 0.581979311473203 -3.49214336534881
3.49133215807668 0.580950986234942 -3.53871431015755
3.53925682196532 0.579570859633614 -3.58512358006877
3.58727859461513 0.577840579451279 -3.63136702886162
3.63540137311764 0.575761922784771 -3.67744054812061
3.68362904666333 0.573336796965275 -3.72334006879178
3.73196549581287 0.570567240477897 -3.76906156273875
3.78041459176836 0.567455423881241 -3.81460104429886
3.8289801956446 0.56400365072698 -3.8599545718393
3.87766615773639 0.560214358466096 -3.90511824931193
3.92647631668263 0.556090119008357 -3.95008822777569
3.97541449836875 0.551633638401571 -3.99486070683648
4.0244845147259 0.546847756164073 -4.03943193605454
4.07369016252625 0.541735444603891 -4.08379821635061
4.12303522217827 0.536299808137894 -4.12795590141208
4.17252345652194 0.530544082610952 -4.17190139909914
4.22215860962412 0.524471634615093 -4.2156311728509
4.27194440557372 0.518085960808659 -4.25914174309159
4.32188454727704 0.511390687235461 -4.30242968863667
4.37198271525027 0.504389568635065 -4.34549164809614
4.42224256634036 0.497086487522397 -4.38832432120485
4.47266773226412 0.489485452681769 -4.43092446996705
4.52326181807561 0.481590597430235 -4.47328891972793
4.57402840063088 0.473406177872067 -4.51541456024239
4.62497102705262 0.464936571153233 -4.55729834674366
4.67609321319484 0.456186273715874 -4.59893730101209
4.7273984421076 0.447159899552788 -4.6403285124438
4.77889016250162 0.4378621784619 -4.68146913911944
4.83057178721304 0.428297954300746 -4.72235640887285
4.88244669161772 0.418472183286772 -4.76298762041467
4.9345182107376 0.408389933488994 -4.80336014588172
4.98678963302636 0.398056387343891 -4.8434714370059
5.03926419284709 0.387476845362653 -4.88331903270902
5.09194506289963 0.376656729884258 -4.92290056675239
5.14483534664786 0.365601588828543 -4.96221377538646
5.19793807074705 0.35431709944928 -5.00125650500043
5.25125617747121 0.342809072087247 -5.04002671977187
5.30479251714036 0.331083453923302 -5.07852250931637
5.35854984054789 0.319146332731459 -5.11674209633714
5.41253079143931 0.307003940518824 -5.15468384418588
5.46673790032766 0.294662654224051 -5.19234626211594
5.52117358170212 0.282128988948942 -5.22972800467752
5.57584013257326 0.269409588248564 -5.26682786880512
5.6307397310698 0.256511214308231 -5.30364479081625
5.68587443503524 0.243440738120487 -5.34017784341016
5.74124618062459 0.230205129662085 -5.37642623266655
5.79685678090108 0.216811448070971 -5.41238929504428
5.85270792443283 0.203266831823268 -5.44806649438011
5.90880117388956 0.189578488910251 -5.48345741888738
5.96513796460466 0.175753687057048 -5.51856177819261
6.02171960223671 0.161799745025828 -5.55337940135643
6.07854725814513 0.147724026671949 -5.58791023739329
6.13562196386528 0.133533936084602 -5.62215435677551
6.19294460554889 0.119236912769175 -5.65611195297521
6.25051591840457 0.104840426829602 -5.68978334400625
6.30833648113829 0.0903519741507277 -5.72316897396615
6.36640671039379 0.0757790715806608 -5.75626941457798
6.4247268551931 0.061129252113133 -5.78908536673235
6.48329699137699 0.0464100600698565 -5.82161766202928
6.54211701607027 0.0316290462889607 -5.85386726429952
6.60118664279276 0.0167937634715024 -5.88583527058982
6.66050539820927 0.0019117619292347 -5.91752291078741
6.72007261952524 -0.01300941450955 -5.9489315467084
6.77988745190719 -0.027962232588099 -5.98006267116565
6.83994884590322 -0.0429391737092769 -6.01091790703654
6.90025555486346 -0.0579327380236441 -6.0414990063308
6.96080613236057 -0.072935448517535 -6.07180784925832
7.02159892961019 -0.0879398551011363 -6.10184644329696
7.08263209289143 -0.102938538696565 -6.13161692226038
7.14390356099118 -0.117924115289749 -6.16112154536465
7.20541106326937 -0.132889239041158 -6.19036269626453
7.26715211930004 -0.147826603007475 -6.21934288201238
7.32912403913334 -0.162728938922108 -6.24806473198679
7.3913239235814 -0.177589016939516 -6.27653099681992
7.45374866450418 -0.192399645379528 -6.30474454732497
7.51639494509532 -0.207153670471664 -6.33270837342348
7.57925924016796 -0.221843976099455 -6.36042558307279
7.64233781644067 -0.236463483544766 -6.38789940119342
7.70562673282324 -0.251005151232115 -6.41513316859645
7.76912184069198 -0.265461974459029 -6.44213034092415
7.8328187838898 -0.279826984763318 -6.46889448793383
7.89671299802779 -0.294093248368666 -6.49542929365325
7.96079970951164 -0.308253864267148 -6.5217385568793
8.02507393455744 -0.32230196228777 -6.54782619168983
8.08953047820745 -0.336230701165024 -6.57369622795555
8.15416393334601 -0.350033266607424 -6.59935281185193
8.21896867971527 -0.36370286936606 -6.62480020637104
8.28393888293106 -0.377232743303143 -6.65004279183344
8.34906849349867 -0.39061614346055 -6.67508506640005
8.41435124585193 -0.403846344115228 -6.69993164657826
8.47978065799702 -0.416916636492934 -6.72458726757799
8.54535003269122 -0.429820325614646 -6.74905678328686
8.61105245922649 -0.442550726801315 -6.77334516609534
8.67688081523612 -0.45510116216547 -6.79745750671607
8.74282776850164 -0.467464957102824 -6.82139901400323
8.80888577875946 -0.479635436783877 -6.84517501477194
8.87504709950769 -0.491605922645528 -6.86879095361755
8.94130377981292 -0.503369728882676 -6.89225239273505
9.00764766611695 -0.514920158939827 -6.91556501173839
9.07407040406605 -0.526250502012054 -6.93873460746858
9.14056344092462 -0.537354029789063 -6.96176709350721
9.20711802947236 -0.548223993816402 -6.98466849894281
9.27372523248588 -0.55885362309978 -7.00744496684268
9.34037592724277 -0.569236121718739 -7.0301027527134
9.40706081002566 -0.579364666440322 -7.05264822296138
9.47377040062632 -0.589232404332746 -7.07508785335341
9.54049504684972 -0.598832450379074 -7.09742822747717
9.60722492901809 -0.608157885090881 -7.1196760352018
9.67395006447503 -0.617201752121929 -7.14183807113837
9.74066031208069 -0.625957055887644 -7.16392123311162
9.80734537647663 -0.634416759335568 -7.1859325209214
9.87399481176582 -0.64257378209906 -7.20787903583972
9.94059802496233 -0.650420998801976 -7.2297679803976
[...]
POINT_DATA 1151
SCALARS MaximumInscribedSphereRadius float
LOOKUP_TABLE default
2.2382
2.2289808695652176
2.2197617391304347
2.2105426086956523
2.2013234782608695
2.192104347826087
2.1828852173913043
2.173666086956522
2.164446956521739
2.1552278260869566
2.146008695652174
2.1367895652173914
2.1275704347826085
2.118351304347826
2.1091321739130433
2.099913043478261
2.090693913043478
2.0814747826086957
2.0722556521739133
2.0630365217391304
2.053817391304348
2.044598260869565
2.035379130434783
2.02616
2.0169408695652176
2.0077217391304347
1.9985026086956523
1.9892834782608695
1.980064347826087
1.9708452173913045
1.9616260869565219
1.9453120000000002
1.9264640000000002
1.9076160000000002
1.8887680000000002
1.86992
1.851072
1.832224
1.813376
1.7945280000000001
1.7756800000000001
1.7568320000000002
1.7379840000000002
1.719136
1.700288
1.68144
1.662592
1.643744
1.6248960000000001
1.6060480000000001
1.5872000000000002
1.568352
1.5495040000000002
1.530656
1.511808
1.49296
1.474112
1.4552640000000001
1.4364160000000001
1.4175680000000002
1.39872
1.3864709565217392
1.3815540869565217
1.3766372173913044
1.371720347826087
1.3668034782608696
1.3618866086956523
1.3569697391304347
1.3520528695652174
1.3471360000000001
1.3422191304347826
1.3373022608695653
1.332385391304348
1.3274685217391304
1.3225516521739131
1.3176347826086956
1.3127179130434783
1.307801043478261
1.3028841739130435
1.2979673043478261
1.2930504347826086
1.2881335652173913
1.283216695652174
1.2782998260869565
1.2733829565217392
1.2684660869565219
1.2635492173913043
1.258632347826087
1.2537154782608697
1.2487986086956522
1.2438817391304349
1.24
1.24
1.24
1.24
1.24
1.24
1.24
1.24
1.24
1.24
1.24
1.24
1.24
1.24
1.24
1.24
1.24
1.24
1.24
1.24
1.24
1.24
1.24
1.24
1.24
1.24
1.24
1.24
1.24
1.24
1.24
1.2594086956521737
1.2798956521739127
1.3003826086956523
1.3208695652173912
1.3413565217391301
1.3618434782608695
1.3823304347826086
1.4028173913043476
1.423304347826087
1.443791304347826
1.464278260869565
1.4847652173913044
1.5052521739130433
1.5257391304347823
1.5462260869565214
1.5667130434782608
1.5871999999999997
1.6076869565217389
1.6281739130434782
1.6486608695652172
1.6691478260869563
1.6896347826086957
1.7101217391304346
1.7306086956521736
1.7510956521739132
1.771582608695652
1.792069565217391
1.8125565217391306
1.8330434782608696
1.8535304347826085
1.852991304347826
1.8427478260869568
1.8325043478260872
1.8222608695652176
1.812017391304348
1.8017739130434784
1.7915304347826089
1.7812869565217393
1.7710434782608697
1.7608000000000004
1.7505565217391306
1.740313043478261
1.7300695652173916
1.7198260869565218
1.7095826086956523
1.699339130434783
1.6890956521739133
1.6788521739130435
1.6686086956521742
1.6583652173913046
1.6481217391304348
1.6378782608695654
1.6276347826086959
1.617391304347826
1.6071478260869567
1.5969043478260871
1.5866608695652173
1.576417391304348
1.5661739130434784
1.5559304347826086
1.5462045217391305
1.5371902608695653
1.528176
1.5191617391304348
1.5101474782608697
1.5011332173913046
1.4921189565217392
1.483104695652174
1.474090434782609
1.4650761739130436
1.4560619130434784
1.4470476521739133
1.438033391304348
1.4290191304347828
1.4200048695652177
1.410990608695652
1.401976347826087
1.3929620869565218
1.3839478260869567
1.3749335652173913
1.3659193043478262
1.356905043478261
1.3478907826086957
1.3388765217391305
1.3298622608695654
1.320848
1.3118337391304349
1.3028194782608697
1.2938052173913044
1.2847909565217392
1.278623304347826
1.2876375652173913
1.2966518260869564
1.3056660869565215
1.314680347826087
1.323694608695652
1.3327088695652172
1.3417231304347823
1.3507373913043477
1.3597516521739128
1.368765913043478
1.3777801739130433
1.3867944347826084
1.3958086956521736
1.404822956521739
1.4138372173913043
1.4228514782608694
1.4318657391304348
1.44088
1.449894260869565
1.4589085217391302
1.4679227826086956
1.4769370434782607
1.4859513043478259
1.4949655652173912
1.5039798260869564
1.5129940869565215
1.5220083478260868
1.5310226086956522
1.5400368695652173
1.5490511304347825
1.559165217391304
1.5694086956521738
1.5796521739130436
1.5898956521739127
1.6001391304347825
1.6103826086956523
1.6206260869565214
1.6308695652173912
1.6411130434782608
1.6513565217391302
1.6616
1.6718434782608695
1.682086956521739
1.6923304347826087
1.7025739130434783
1.7128173913043476
1.7230608695652174
1.733304347826087
1.7435478260869564
1.7537913043478262
1.7640347826086957
1.774278260869565
1.7845217391304347
1.7947652173913045
1.8050086956521736
1.8152521739130434
1.8254956521739132
1.8357391304347823
1.8459826086956521
1.8562260869565215
1.8535304347826091
1.8432869565217394
1.83304347826087
1.8228000000000004
1.8125565217391306
1.8023130434782613
1.7920695652173917
1.781826086956522
1.7715826086956528
1.761339130434783
1.7510956521739132
1.740852173913044
1.7306086956521742
1.7203652173913044
1.7101217391304353
1.6998782608695655
1.6896347826086957
1.6793913043478266
1.6691478260869568
1.658904347826087
1.6486608695652178
1.638417391304348
1.6281739130434782
1.6179304347826091
1.6076869565217393
1.5974434782608695
1.5872000000000004
1.5769565217391306
1.5667130434782608
1.5564695652173917
1.55
1.55
1.55
1.55
1.55
1.55
1.55
1.55
1.55
1.55
1.55
1.55
1.55
1.55
1.55
1.55
1.55
1.55
1.55
1.55
1.55
1.55
1.55
1.55
1.55
1.55
1.55
1.55
1.55
1.55
1.5489217391304348
1.5386782608695655
1.528434782608696
1.5181913043478266
1.5079478260869568
1.4977043478260872
1.4874608695652178
1.477217391304348
1.4669739130434785
1.456730434782609
1.4464869565217393
1.4362434782608697
1.4260000000000004
1.4157565217391308
1.405513043478261
1.3952695652173919
1.385026086956522
1.3747826086956523
1.3645391304347831
1.3542956521739133
1.3440521739130435
1.3338086956521744
1.3235652173913046
1.3133217391304348
1.3030782608695657
1.2928347826086959
1.282591304347826
1.272347826086957
1.2621043478260872
1.2518608695652174
1.2416173913043482
1.2572521739130431
1.2777391304347827
1.298226086956521
1.3187130434782606
1.3392000000000002
1.3596869565217384
1.380173913043478
1.4006608695652165
1.421147826086956
1.4416347826086955
1.462121739130434
1.4826086956521733
1.503095652173913
1.5235826086956514
1.5440695652173908
1.5645565217391302
1.5850434782608687
1.6055304347826083
1.6260173913043476
1.6465043478260861
1.6669913043478257
1.687478260869565
1.7079652173913036
1.7284521739130432
1.7489391304347826
1.769426086956521
1.7899130434782604
1.8104
1.8308869565217385
1.8513739130434779
1.8540695652173913
1.8438260869565222
1.8335826086956524
1.8233391304347828
1.8130956521739134
1.8028521739130436
1.7926086956521745
1.7823652173913047
1.772121739130435
1.7618782608695658
1.751634782608696
1.7413913043478262
1.731147826086957
1.7209043478260873
1.7106608695652177
1.7004173913043483
1.6901739130434785
1.679930434782609
1.6696869565217396
1.65944347826087
1.6492000000000002
1.6389565217391309
1.6287130434782613
1.6184695652173915
1.6082260869565221
1.5979826086956526
1.5877391304347828
1.5774956521739134
1.5672521739130438
1.557008695652174
1.5532347826086952
1.563478260869565
1.5737217391304348
1.583965217391304
1.5942086956521737
1.6044521739130435
1.6146956521739126
1.6249391304347824
1.6351826086956522
1.6454260869565214
1.6556695652173912
1.6659130434782603
1.67615652173913
1.6864
1.696643478260869
1.7068869565217388
1.7171304347826086
1.7273739130434778
1.7376173913043476
1.7478608695652174
1.7581043478260865
1.7683478260869563
1.778591304347826
1.7888347826086952
1.799078260869565
1.8093217391304348
1.819565217391304
1.8298086956521737
1.8400521739130435
1.8502956521739127
1.8589217391304353
1.838434782608696
1.8179478260869575
1.797460869565218
1.7769739130434785
1.75648695652174
1.7360000000000004
1.715513043478261
1.6950260869565226
1.6745391304347832
1.6540521739130447
1.6335652173913051
1.6130782608695657
1.5925913043478273
1.5721043478260877
1.5516173913043483
1.5311304347826098
1.5106434782608704
1.4901565217391308
1.4696695652173923
1.449182608695653
1.4286956521739134
1.4082086956521749
1.3877217391304355
1.367234782608696
1.3467478260869576
1.326260869565218
1.3057739130434785
1.2852869565217402
1.2648000000000006
1.244313043478261
1.2561739130434773
1.2766608695652157
1.2971478260869564
1.3176347826086947
1.3381217391304332
1.358608695652174
1.3790956521739122
1.3995826086956507
1.4200695652173911
1.4405565217391296
1.4610434782608681
1.4815304347826086
1.502017391304347
1.5225043478260853
1.542991304347826
1.5634782608695645
1.5839652173913028
1.6044521739130435
1.624939130434782
1.6454260869565203
1.665913043478261
1.6863999999999995
1.7068869565217377
1.7273739130434784
1.747860869565217
1.7683478260869552
1.7888347826086957
1.8093217391304344
1.8298086956521726
1.8502956521739131
1.8546086956521743
1.8443652173913052
1.8341217391304347
1.8238782608695656
1.8136347826086965
1.803391304347826
1.7931478260869569
1.7829043478260878
1.7726608695652173
1.7624173913043482
1.752173913043479
1.7419304347826086
1.7316869565217394
1.7214434782608703
1.7111999999999998
1.7009565217391307
1.6907130434782616
1.680469565217391
1.670226086956522
1.6599826086956528
1.6497391304347826
1.6394956521739132
1.629252173913044
1.6190086956521739
1.6087652173913045
1.5985217391304354
1.5882782608695651
1.5780347826086958
1.5677913043478267
1.5575478260869575
1.552695652173913
1.5629391304347822
1.5731826086956513
1.5834260869565218
1.593669565217391
1.60391304347826
1.6141565217391303
1.6243999999999996
1.6346434782608688
1.644886956521739
1.6551304347826084
1.6653739130434775
1.6756173913043477
1.685860869565217
1.6961043478260862
1.7063478260869565
1.7165913043478258
1.726834782608695
1.7370782608695652
1.7473217391304345
1.7575652173913037
1.767808695652174
1.7780521739130433
1.7882956521739124
1.7985391304347826
1.808782608695652
1.8190260869565211
1.8292695652173914
1.8395130434782607
1.8497565217391299
1.86
1.86
1.86
1.86
1.86
1.86
1.86
1.86
1.86
1.86
1.86
1.86
1.86
1.86
1.86
1.86
1.86
1.86
1.86
1.86
1.86
1.86
1.86
1.86
1.86
1.86
1.86
1.86
1.86
1.86
1.86
1.8750956521739128
1.895582608695651
1.9160695652173918
1.93655652173913
1.9570434782608686
1.977530434782607
1.9980173913043475
2.018504347826086
2.0389913043478245
2.059478260869565
2.0799652173913032
2.100452173913042
2.1209391304347824
2.1414260869565207
2.1619130434782594
2.1824
2.202886956521738
2.2233739130434764
2.2438608695652174
2.2643478260869556
2.284834782608694
2.3053217391304344
2.325808695652173
2.3462956521739113
2.366782608695652
2.3872695652173905
2.407756521739129
2.4282434782608693
2.4487304347826075
2.4692173913043463
2.4848521739130436
2.4950956521739127
2.505339130434782
2.5155826086956523
2.5258260869565214
2.5360695652173906
2.546313043478261
2.55655652173913
2.5667999999999993
2.5770434782608698
2.587286956521739
2.597530434782608
2.607773913043478
2.6180173913043476
2.6282608695652168
2.638504347826087
2.6487478260869564
2.6589913043478255
2.6692347826086955
2.679478260869565
2.689721739130434
2.6999652173913042
2.710208695652174
2.720452173913043
2.730695652173913
2.740939130434782
2.7511826086956517
2.7614260869565217
2.7716695652173913
2.7819130434782604
2.7878434782608696
2.7776000000000005
2.767356521739131
2.757113043478261
2.746869565217392
2.736626086956522
2.726382608695653
2.716139130434783
2.7058956521739135
2.6956521739130443
2.6854086956521743
2.6751652173913048
2.6649217391304356
2.6546782608695656
2.644434782608696
2.634191304347827
2.623947826086957
2.6137043478260873
2.603460869565218
2.593217391304348
2.582973913043479
2.5727304347826094
2.5624869565217394
2.5522434782608703
2.5420000000000007
2.5317565217391307
2.5215130434782616
2.511269565217392
2.501026086956522
2.490782608695653
2.4805391304347832
2.4590386086956526
2.436912695652175
2.4147867826086973
2.3926608695652174
2.37053495652174
2.3484090434782625
2.3262831304347826
2.3041572173913054
2.2820313043478277
2.259905391304348
2.2377794782608706
2.215653565217393
2.193527652173913
2.1714017391304354
2.149275826086958
2.1271499130434783
2.1050240000000007
2.0828980869565235
2.0607721739130436
2.038646260869566
2.0165203478260887
1.9943944347826088
1.9722685217391311
1.9501426086956537
1.928016695652174
1.9058907826086964
1.883764869565219
1.861638956521739
1.8395130434782616
1.8173871304347842
1.797504
1.7786560000000007
1.7598080000000014
1.7409599999999998
1.7221120000000005
1.7032640000000012
1.684416
1.6655680000000006
1.6467200000000013
1.6278719999999998
1.6090240000000005
1.5901760000000011
1.5713280000000018
1.5524800000000005
1.5336320000000012
1.514784000000002
1.4959360000000004
1.477088000000001
1.4582400000000018
1.4393920000000004
1.4205440000000011
1.4016960000000018
1.3828480000000005
1.364000000000001
1.3451520000000017
1.3263040000000004
1.307456000000001
1.2886080000000018
1.2697600000000002
1.250912000000001
1.2443130434782599
1.2545565217391303
1.2647999999999995
1.2750434782608686
1.285286956521739
1.2955304347826082
1.3057739130434773
1.3160173913043476
1.326260869565217
1.336504347826086
1.3467478260869563
1.3569913043478257
1.3672347826086948
1.377478260869565
1.3877217391304344
1.3979652173913035
1.4082086956521738
1.4184521739130431
1.4286956521739123
1.4389391304347825
1.4491826086956519
1.459426086956521
1.4696695652173912
1.4799130434782604
1.4901565217391297
1.5004
1.510643478260869
1.5208869565217384
1.5311304347826087
1.5413739130434778
1.548382608695653
1.5381391304347827
1.5278956521739135
1.5176521739130442
1.507408695652174
1.4971652173913048
1.4869217391304355
1.4766782608695652
1.466434782608696
1.4561913043478267
1.4459478260869565
1.4357043478260874
1.425460869565218
1.4152173913043489
1.4049739130434786
1.3947304347826095
1.3844869565217401
1.37424347826087
1.3640000000000008
1.3537565217391314
1.3435130434782612
1.333269565217392
1.3230260869565227
1.3127826086956524
1.3025391304347833
1.292295652173914
1.2820521739130437
1.2718086956521746
1.2615652173913054
1.251321739130435
1.2410782608695659
1.2410998260869563
1.2423290434782608
1.2435582608695652
1.2447874782608694
1.2460166956521739
1.247245913043478
1.2484751304347825
1.249704347826087
1.2509335652173912
1.2521627826086954
1.2533919999999998
1.2546212173913043
1.2558504347826085
1.257079652173913
1.2583088695652174
1.2595380869565216
1.260767304347826
1.2619965217391302
1.2632257391304347
1.2644549565217391
1.2656841739130433
1.2669133913043475
1.268142608695652
1.2693718260869564
1.2706010434782606
1.271830260869565
1.2730594782608695
1.2742886956521737
1.2755179130434782
1.2767471304347824
1.285351652173912
1.2982584347826085
1.3111652173913038
1.3240719999999988
1.3369787826086954
1.3498855652173907
1.362792347826086
1.3756991304347825
1.3886059130434776
1.4015126956521728
1.4144194782608694
1.4273262608695647
1.4402330434782598
1.4531398260869564
1.4660466086956516
1.4789533913043469
1.4918601739130435
1.5047669565217385
1.5176737391304338
1.530580521739129
1.5434873043478257
1.5563940869565207
1.569300869565216
1.5822076521739126
1.5951144347826078
1.608021217391303
1.6209279999999995
1.6338347826086947
1.64674156521739
1.6596483478260866
1.6581387826086973
1.631915478260872
1.605692173913044
1.579468869565219
1.5532455652173938
1.5270222608695658
1.5007989565217408
1.4745756521739155
1.4483523478260876
1.4221290434782623
1.3959057391304373
1.3696824347826093
1.343459130434784
1.317235826086959
1.2910125217391308
1.2647892173913058
1.2385659130434807
1.2123426086956526
1.1861193043478275
1.1598960000000025
1.1336726956521743
1.1074493913043493
1.081226086956524
1.055002782608696
1.028779478260871
1.0025561739130457
0.9763328695652178
0.9501095652173926
0.9238862608695675
0.8976629565217394
0.8783836521739111
0.9181283478260835
0.9578730434782603
0.9976177391304328
1.0373624347826054
1.0771071304347821
1.1168518260869547
1.1565965217391272
1.196341217391304
1.2360859130434765
1.275830608695649
1.3155753043478258
1.355319999999998
1.3950646956521706
1.4348093913043476
1.4745540869565201
1.5142987826086927
1.5540434782608692
1.5937881739130417
1.6335328695652143
1.6732775652173868
1.7130222608695636
1.752766956521736
1.7925116521739086
1.8322563478260854
1.872001043478258
1.9117457391304304
1.951490434782607
1.9912351304347795
2.030979826086952
2.070724521739129
2.0631982608695663
2.0468086956521754
2.030419130434783
2.0140295652173923
1.9976400000000016
1.9812504347826092
1.9648608695652183
1.9484713043478277
1.9320817391304352
1.9156921739130446
1.8993026086956537
1.8829130434782613
1.8665234782608706
1.85013391304348
1.8337443478260873
1.8173547826086967
1.800965217391306
1.7845756521739133
1.7681860869565227
1.751796521739132
1.7354069565217394
1.7190173913043487
1.702627826086958
1.6862382608695654
1.6698486956521748
1.653459130434784
1.6370695652173917
1.620680000000001
1.6042904347826101
1.5879008695652177
1.5773231304347837
1.570972173913044
1.5646212173913043
1.5582702608695662
1.5519193043478265
1.545568347826087
1.5392173913043488
1.5328664347826093
1.5265154782608696
1.5201645217391315
1.5138135652173919
1.5074626086956522
1.501111652173914
1.4947606956521744
1.488409739130435
1.4820587826086966
1.475707826086957
1.4693568695652175
1.4630059130434792
1.4566549565217397
1.450304
1.443953043478262
1.4376020869565223
1.4312511304347826
1.4249001739130445
1.4185492173913048
1.4121982608695653
1.405847304347827
1.3994963478260876
1.393145391304348
1.3880236521739135
1.3855652173913047
1.3831067826086958
1.3806483478260874
1.3781899130434785
1.3757314782608696
1.3732730434782612
1.3708146086956523
1.3683561739130434
1.3658977391304352
1.3634393043478263
1.3609808695652175
1.358522434782609
1.3560640000000002
1.3536055652173913
1.351147130434783
1.3486886956521742
1.3462302608695653
1.3437718260869569
1.341313391304348
1.3388549565217391
1.3363965217391307
1.3339380869565218
1.331479652173913
1.3290212173913047
1.3265627826086959
1.324104347826087
1.3216459130434786
1.3191874782608697
1.3167290434782608
1.3148097391304339
1.3225947826086952
1.3303798260869566
1.3381648695652164
1.3459499130434778
1.3537349565217394
1.361519999999999
1.3693050434782605
1.377090086956522
1.3848751304347817
1.392660173913043
1.4004452173913045
1.4082302608695643
1.4160153043478256
1.4238003478260872
1.4315853913043468
1.4393704347826084
1.4471554782608698
1.4549405217391296
1.462725565217391
1.4705106086956523
1.4782956521739121
1.4860806956521735
1.493865739130435
1.5016507826086947
1.5094358260869563
1.5172208695652176
1.5250059130434774
1.5327909565217388
1.5405760000000002
1.54836104347826
1.54288347826087
1.5338692173913042
1.5248549565217402
1.5158406956521744
1.5068264347826084
1.4978121739130446
1.4887979130434787
1.4797836521739127
1.470769391304349
1.461755130434783
1.452740869565217
1.443726608695653
1.4347123478260873
1.4256980869565214
1.4166838260869574
1.4076695652173916
1.3986553043478258
1.3896410434782618
1.380626782608696
1.37161252173913
1.3625982608695661
1.3535840000000001
1.3445697391304343
1.3355554782608705
1.3265412173913045
1.3175269565217387
1.3085126956521749
1.2994984347826088
1.290484173913045
1.281469913043479
1.2765530434782608
1.2753238260869566
1.2740946086956522
1.2728653913043477
1.2716361739130435
1.270406956521739
1.2691777391304346
1.2679485217391306
1.2667193043478262
1.2654900869565218
1.2642608695652175
1.263031652173913
1.2618024347826087
1.2605732173913045
1.259344
1.2581147826086956
1.2568855652173914
1.255656347826087
1.2544271304347825
1.2531979130434785
1.251968695652174
1.2507394782608696
1.2495102608695654
1.248281043478261
1.2470518260869565
1.2458226086956523
1.2445933913043479
1.2433641739130434
1.2421349565217392
1.2409057391304348
1.2403234782608696
1.2415526956521736
1.242781913043478
1.2440111304347825
1.2452403478260867
1.2464695652173912
1.2476987826086956
1.2489279999999998
1.2501572173913043
1.2513864347826087
1.252615652173913
1.2538448695652173
1.2550740869565218
1.2563033043478258
1.2575325217391302
1.2587617391304347
1.2599909565217389
1.2612201739130433
1.2624493913043477
1.263678608695652
1.2649078260869564
1.2661370434782608
1.267366260869565
1.2685954782608695
1.269824695652174
1.271053913043478