# vtk DataFile Version 2.0
Vessel Segment
ASCII
DATASET POLYDATA
POINTS 1161 float
-0.0104713441008799 -0.179285532405901 0.0013838270486285
0.0113310533426338 -0.108086674880019 -0.0575288810720382
0.03125335094981 -0.0376540467210866 -0.115807759398099
0.0493207016565658 0.0320140255666612 -0.173462688663665
0.0655582584030475 0.100919215489699 -0.230503549604618
0.0799911741260923 0.169063196587032 -0.286940222954891
0.0926446017516906 0.236447642452021 -0.342782589442772
0.103543694187447 0.303074226754201 -0.398040529787186
0.112713604315045 0.368944623261107 -0.45272392469399
0.120179484982702 0.434060505860091 -0.506842654852265
0.125966488997641 0.498423548580148 -0.560406600930607
0.130099769118308 0.562035425615682 -0.613425643573315
0.132604478040483 0.624897811400917 -0.665909663393915
0.133505768367848 0.687012380812843 -0.717868540961913
0.13282879257643 0.748380809424808 -0.769312156786886
0.13059870297882 0.809004773762046 -0.820250391302466
0.126840651688378 0.868885951557219 -0.870693124850327
0.12157979058345 0.928026022005948 -0.92065023766417
0.11484127127158 0.986426666022348 -0.97013160985371
0.106650245053718 1.04408956649456 -1.01914712138866
0.0970318628884364 1.10101640854031 -1.06770665208273
0.0860112753500961 1.15720887976889 -1.11582008157502
0.0736136324299015 1.21266867071204 -1.16349728924482
0.0598640829381192 1.26739747568332 -1.21074815395714
0.0447877737491812 1.32139699380632 -1.25758255374168
0.0284098490407453 1.37466893004934 -1.3040103654691
0.0107554495327558 1.42721499626007 -1.35004146452741
-0.0081502882734963 1.47903691220032 -1.39568572449832
-0.0282822328563134 1.53013640658067 -1.44095301683358
-0.0496152584345301 1.58051521809521 -1.48585321053131
-0.0721242457284535 1.6301750964562 -1.53039617181236
-0.0957840827269605 1.67911780343081 -1.57459176379396
-0.120569665614714 1.72734511393166 -1.61844984609327
-0.146455900105831 1.77485881724358 -1.66198027425287
-0.173417702937665 1.82166071830417 -1.70519289909626
-0.201430003370753 1.86775263898642 -1.74809756608055
-0.230467744688757 1.91313641938131 -1.79070411464921
-0.260505885698406 1.9578139190804 -1.83302237758478
-0.291519402229444 2.00178701845846 -1.87506218036163
-0.323483288634568 2.04505761995603 -1.91683334049869
-0.356372559289375 2.0876276493621 -1.95834566691217
-0.390162250128531 2.12949905711439 -1.99960895925212
-0.424827421123799 2.17067382006131 -2.04063300681894
-0.460343161152961 2.21115394439542 -2.08142758641325
-0.496684593810591 2.25094146904855 -2.12200245976581
-0.53382688325506 2.29003846910456 -2.16236737095116
-0.571745240055542 2.32844705921216 -2.20253204380127
-0.610414927039016 2.36616939699774 -2.2425061793193
-0.649811265137269 2.40320768647814 -2.28229945309318
-0.689909639233905 2.43956418147352 -2.32192151270935
-0.730685504011342 2.47524118902009 -2.36138197516642
-0.77211438984872 2.51024107279589 -2.40069042426551
-0.814171910043155 2.54456625688144 -2.43985640739387
-0.856833771390289 2.57821923037093 -2.47888943076835
-0.900075786088193 2.61120255231838 -2.51779895407211
-0.943873883692164 2.64351885669674 -2.55659438506807
-0.988204123069532 2.6751708573569 -2.59528507421229
-1.03304270435446 2.7061613529868 -2.63388030926738
-1.07836598090274 2.7364932320705 -2.6723893099159
-1.1241504712466 2.76616947784719 -2.71082122237376
-1.17037287104951 2.79519317327032 -2.74918511400365
-1.21701006505791 2.82356750594205 -2.78748996792819
-1.26403913897374 2.85129577240957 -2.82574467763747
-1.31143739112567 2.87838138084109 -2.86395804158203
-1.35918234406113 2.90482785306363 -2.90213875776025
-1.40725175613524 2.93063882657623 -2.9402954183055
-1.45562363309979 2.9558180565632 -2.97843650407319
-1.50427623969222 2.98036941790733 -3.01657037922799
-1.55318811122449 3.00429690720309 -3.05470528583089
-1.60233806517214 3.0276046447699 -3.09284933842636
-1.65170521276318 3.05029687666532 -3.13101051862949
-1.70126897057602 3.07237797668924 -3.16919666970756
-1.75100907237004 3.09385244815261 -3.20741549101796
-1.80090558150689 3.11472492504855 -3.24567453208134
-1.85093890360442 3.13500017298805 -3.28398118651099
-1.90108979919955 3.15468309012663 -3.32234268593676
-1.95133939641124 3.17377870809092 -3.36076609392897
-2.00166920360332 3.19229219290534 -3.39925829992233
-2.05206112204741 3.21022884591874 -3.43782601313976
-2.10249745858584 3.227594104731 -3.4764757565164
-2.15296093829454 3.24439354411968 -3.51521386062342
-2.20343471706423 3.26063287693279 -3.55404645762879
-2.2539023920582 3.2763179541005 -3.59297947621513
-2.30434800677951 3.29145476241051 -3.63201863892746
-2.35475605401478 3.3060494214023 -3.671169460478
-2.40511147869626 3.32010818022764 -3.71043724608787
-2.4553996807639 3.33363741451097 -3.74982708982878
-2.50560651802744 3.34664362320984 -3.78934387296471
-2.55571830902849 3.35913342547536 -3.82899226229357
-2.60572183590259 3.37111355751261 -3.86877670848889
-2.65560434724131 3.38259086944111 -3.90870144444152
-2.70535356098829 3.39357232215313 -3.94877048358445
-2.7549576682188 3.40406498411863 -3.98898761778063
-2.80440533916184 3.41407602805417 -4.02935641410115
-2.85368573010585 3.4236127275385 -4.06988021116639
-2.90278849033825 3.43268245362591 -4.1105621154703
-2.95170376908513 3.44129267145969 -4.1514049977047
-3.00042222245076 3.44945093688559 -4.19241148908364
-3.04893502035731 3.45716489306518 -4.23358397766762
-3.09723385348438 3.46444226708937 -4.274924604688
-3.14531094020866 3.47129086659174 -4.31643526087119
-3.193159033519 3.47771857632939 -4.35811758277219
-3.24077142729379 3.4837333539134 -4.39997294934473
-3.28814196095968 3.48934322338148 -4.44200247911277
-3.33526502351259 3.49455626792026 -4.48420702757872
-3.38213555751412 3.49938062255506 -4.52658718464087
-3.4287490630881 3.5038244668395 -4.56914327201069
-3.47510160191703 3.50789601754526 -4.61187534063028
-3.52118980123855 3.51160352135173 -4.65478316808967
-3.56701085784194 3.5149552475357 -4.69786625604425
-3.61256254206457 3.51795948066104 -4.74112382763212
-3.65784320164456 3.52062451326387 -4.78455482496135
-3.70285176183393 3.52295863841836 -4.82815790841422
-3.74758771601917 3.52497014200014 -4.8719314605638
-3.79205111260229 3.52666729483038 -4.91587359190755
-3.83624254173806 3.52805834481538 -4.95998214667073
-3.88016312207124 3.52915150908603 -5.00425470860988
-3.92381448747385 3.52995496613743 -5.04868860681628
-3.96719877378234 3.53047684796841 -5.09328092151939
-4.01031860553491 3.53072523222105 -5.13802848989031
-4.05317708270866 3.53070813432023 -5.18292791184524
-4.09577776749697 3.53043349960511 -5.22797555582914
-4.13812467212849 3.52990919525037 -5.27316756408547
-4.18022224933065 3.52914300165404 -5.31849985662116
-4.22207538383484 3.52814260361502 -5.3639681346576
-4.26368938392173 3.52691558150263 -5.40956788406189
-4.30506997296652 3.5254694024261 -5.45529437877807
-4.34622328098424 3.52381141140407 -5.50114268425834
-4.38715583617503 3.52194882253412 -5.54710766089433
-4.42787455646941 3.51988871016227 -5.59318396744829
-4.4683867410736 3.51763800005246 -5.63936606448437
-4.50870006197363 3.51520346057347 -5.68564821782249
-4.54882255437089 3.51259169433832 -5.73202450258255
-4.58876260440474 3.50980913099216 -5.77848880872669
-4.62852893580645 3.50686202045266 -5.82503484719187
-4.66813059651206 3.50375642616779 -5.87165615604505
-4.70757694527518 3.50049821837363 -5.91834610663841
-4.7468776382799 3.49709306735214 -5.96509790976465
-4.78604261575353 3.49354643668893 -6.0119046218121
-4.82508208857956 3.48986357653109 -6.05875915092005
-4.86400652491039 3.48604951684491 -6.1056542631339
-4.90282663674184 3.48210906077839 -6.15258258858835
-4.9415533654896 3.4780467807444 -6.19953662841669
-4.98019786503213 3.47386702141064 -6.24650876350328
-5.01877148375568 3.46957390541027 -6.29349126396227
-5.05728574656079 3.46517133915727 -6.34047629864414
-5.09575233686888 3.46066301866178 -6.38745594464235
-5.13418307862882 3.45605243534546 -6.43442219679984
-5.17258991832347 3.45134288185676 -6.48136697721572
-5.21098490697623 3.44653745788633 -6.52828214475175
-5.24938018215761 3.4416390759823 -6.57515950453903
-5.28778795007609 3.43665046733507 -6.62199081744197
-5.32622046986006 3.43157418676619 -6.66876780841544
-5.36469004340198 3.42641261569727 -6.71548217205235
-5.40320900739364 3.42116796432306 -6.76212557702434
-5.44178972544575 3.41584227375394 -6.80868967047982
-5.48044458020743 3.41043741815838 -6.85516608244219
-5.51918596548583 3.40495510690545 -6.90154643020785
-5.55802627836566 3.39939688670726 -6.94782232274443
-5.59697791132872 3.3937641437615 -6.9939853650888
-5.63605324437349 3.38805810589385 -7.04002716274525
-5.67526463707446 3.38227984464724 -7.08593932612021
-5.71462441907593 3.376430275986 -7.13171347590889
-5.75414487661174 3.37051015748406 -7.17734125089837
-5.79383823745949 3.36452008412817 -7.22281431672259
-5.83371665583453 3.35846048406779 -7.26812437465399
-5.87379219728394 3.352331614365 -7.31326317039512
-5.91407682358052 3.34613355674442 -7.35822250287022
-5.95458237761678 3.33986621334309 -7.40299423301692
-5.99532056829894 3.33352930246042 -7.44757029257775
-6.03630295544091 3.32712235430805 -7.49194269289186
-6.07754093470993 3.32064470688767 -7.53610353367
-6.11904572391541 3.31409550519355 -7.5800450113391
-6.16082835270731 3.30747370885476 -7.62375942629387
-6.20289965361767 3.30077810310223 -7.66723918971797
-6.24527025315384 3.29400730986357 -7.7104768303885
-6.2879505628917 3.28715979885801 -7.75346500148063
-6.33095077056887 3.28023389869122 -7.79619648737208
-6.3742808311779 3.27322780795025 -7.83866421044773
-6.41795045805951 3.26613960629835 -7.88086123790417
-6.46196911399579 3.2589672655699 -7.92278078855423
-6.50634600240494 3.25170866083841 -7.9644162395661
-6.55109006117518 3.24436158078657 -8.0057611315008
-6.59620996319837 3.2369237363045 -8.04680916902996
-6.64171411954276 3.22939276838995 -8.08755421995207
-6.6876106827273 3.22176625602171 -8.12799031414314
[...]
POINT_DATA 1161
SCALARS MaximumInscribedSphereRadius float
LOOKUP_TABLE default
1.55
1.570844827586207
1.5916896551724138
1.6125344827586208
1.6333793103448275
1.6542241379310345
1.6750689655172413
1.6959137931034483
1.7167586206896552
1.737603448275862
1.758448275862069
1.7792931034482757
1.8001379310344827
1.8209827586206897
1.8418275862068965
1.8626724137931034
1.8835172413793102
1.9043620689655172
1.9252068965517242
1.946051724137931
1.966896551724138
1.9877413793103447
2.0085862068965517
2.0294310344827586
2.0502758620689656
2.071120689655172
2.091965517241379
2.112810344827586
2.133655172413793
2.1545
2.1681827586206897
2.1610955172413795
2.154008275862069
2.1469210344827587
2.139833793103448
2.132746551724138
2.1256593103448274
2.118572068965517
2.111484827586207
2.1043975862068964
2.0973103448275863
2.0902231034482757
2.0831358620689655
2.0760486206896553
2.0689613793103447
2.0618741379310346
2.054786896551724
2.047699655172414
2.0406124137931037
2.033525172413793
2.026437931034483
2.0193506896551723
2.012263448275862
2.005176206896552
1.9980889655172414
1.9910017241379312
1.9839144827586208
1.9768272413793104
1.96974
1.9626527586206897
1.9632620689655174
1.9711831034482759
1.9791041379310343
1.987025172413793
1.9949462068965518
2.0028672413793105
2.010788275862069
2.0187093103448275
2.026630344827586
2.034551379310345
2.0424724137931034
2.050393448275862
2.0583144827586204
2.0662355172413793
2.074156551724138
2.0820775862068963
2.089998620689655
2.0979196551724137
2.1058406896551722
2.113761724137931
2.1216827586206897
2.129603793103448
2.1375248275862067
2.1454458620689656
2.153366896551724
2.1612879310344826
2.169208965517241
2.17713
2.1850510344827585
2.192972068965517
2.1948
2.1948
2.1948
2.1948
2.1948
2.1948
2.1948
2.1948
2.1948
2.1948
2.1948
2.1948
2.1948
2.1948
2.1948
2.1948
2.1948
2.1948
2.1948
2.1948
2.1948
2.1948
2.1948
2.1948
2.1948
2.1948
2.1948
2.1948
2.1948
2.194778620689655
2.193944827586207
2.1931110344827585
2.19227724137931
2.191443448275862
2.1906096551724135
2.1897758620689656
2.1889420689655172
2.188108275862069
2.1872744827586206
2.1864406896551722
2.185606896551724
2.1847731034482756
2.1839393103448277
2.1831055172413794
2.182271724137931
2.1814379310344827
2.1806041379310344
2.179770344827586
2.1789365517241377
2.1781027586206894
2.1772689655172415
2.176435172413793
2.175601379310345
2.1747675862068965
2.173933793103448
2.1731
2.1722662068965515
2.1714324137931036
2.1705986206896553
2.17
2.17
2.17
2.17
2.17
2.17
2.17
2.17
2.17
2.17
2.17
2.17
2.17
2.17
2.17
2.17
2.17
2.17
2.17
2.17
2.17
2.17
2.17
2.17
2.17
2.17
2.17
2.17
2.17
2.17
2.1587758620689654
2.137931034482759
2.117086206896552
2.096241379310345
2.0753965517241384
2.054551724137931
2.0337068965517244
2.0128620689655174
1.9920172413793105
1.971172413793104
1.9503275862068967
1.92948275862069
1.9086379310344828
1.887793103448276
1.8669482758620695
1.8461034482758623
1.8252586206896555
1.8044137931034483
1.7835689655172415
1.762724137931035
1.7418793103448278
1.721034482758621
1.7001896551724138
1.679344827586207
1.6585000000000005
1.637655172413793
1.6168103448275866
1.59596551724138
1.5751206896551726
1.554275862068966
1.5417155172413795
1.531293103448276
1.5208706896551727
1.5104482758620692
1.5000258620689657
1.4896034482758622
1.4791810344827587
1.4687586206896555
1.4583362068965517
1.4479137931034485
1.437491379310345
1.4270689655172415
1.4166465517241382
1.4062241379310345
1.3958017241379312
1.3853793103448275
1.3749568965517243
1.364534482758621
1.3541120689655173
1.343689655172414
1.3332672413793105
1.322844827586207
1.3124224137931038
1.302
1.2915775862068968
1.2811551724137935
1.2707327586206898
1.2603103448275865
1.2498879310344828
1.2411117241379301
1.2627903448275857
1.2844689655172412
1.3061475862068967
1.3278262068965512
1.3495048275862067
1.371183448275862
1.3928620689655165
1.414540689655172
1.4362193103448275
1.457897931034482
1.4795765517241375
1.501255172413793
1.5229337931034483
1.5446124137931028
1.5662910344827583
1.5879696551724138
1.6096482758620683
1.6313268965517238
1.6530055172413793
1.6746841379310338
1.696362758620689
1.7180413793103448
1.739719999999999
1.7613986206896546
1.7830772413793101
1.8047558620689657
1.82643448275862
1.8481131034482756
1.8697917241379312
1.888455862068965
1.9003374137931033
1.9122189655172415
1.9241005172413788
1.935982068965517
1.9478636206896551
1.9597451724137933
1.9716267241379306
1.9835082758620688
1.995389827586207
2.0072713793103443
2.0191529310344825
2.0310344827586206
2.042916034482758
2.054797586206896
2.0666791379310343
2.078560689655172
2.09044224137931
2.102323793103448
2.114205344827586
2.126086896551724
2.1379684482758616
2.14985
2.1617315517241376
2.1736131034482757
2.1854946551724135
2.197376206896551
2.2092577586206894
2.2211393103448276
2.2330208620689653
2.219268620689656
2.1857084482758626
2.1521482758620687
2.118588103448277
2.0850279310344835
2.0514677586206895
2.017907586206898
1.9843474137931043
1.9507872413793106
1.9172270689655186
1.8836668965517251
1.8501067241379314
1.8165465517241377
1.782986379310346
1.7494262068965523
1.7158660344827585
1.6823058620689668
1.648745689655173
1.6151855172413794
1.5816253448275877
1.548065172413794
1.5145050000000002
1.4809448275862085
1.447384655172415
1.413824482758621
1.3802643103448275
1.3467041379310358
1.3131439655172419
1.2795837931034484
1.2460236206896567
1.2571034482758616
1.2779482758620688
1.298793103448275
1.3196379310344821
1.3404827586206893
1.3613275862068965
1.3821724137931026
1.40301724137931
1.4238620689655173
1.4447068965517234
1.4655517241379306
1.4863965517241378
1.507241379310344
1.528086206896551
1.5489310344827585
1.5697758620689646
1.5906206896551718
1.611465517241379
1.6323103448275862
1.6531551724137925
1.6739999999999995
1.694844827586207
1.715689655172413
1.7365344827586202
1.7573793103448274
1.7782241379310335
1.799068965517241
1.819913793103448
1.8407586206896553
1.8583965517241388
1.8375517241379316
1.8167068965517243
1.7958620689655183
1.7750172413793108
1.7541724137931036
1.7333275862068975
1.7124827586206903
1.6916379310344831
1.670793103448277
1.6499482758620698
1.6291034482758624
1.6082586206896552
1.587413793103449
1.566568965517242
1.5457241379310347
1.5248793103448286
1.5040344827586214
1.483189655172414
1.4623448275862079
1.4415000000000007
1.4206551724137935
1.3998103448275863
1.3789655172413802
1.358120689655173
1.3372758620689655
1.3164310344827594
1.2955862068965522
1.274741379310345
1.253896551724139
1.2469482758620682
1.2677931034482757
1.2886379310344818
1.309482758620689
1.3303275862068962
1.3511724137931034
1.3720172413793095
1.392862068965517
1.413706896551724
1.4345517241379302
1.4553965517241374
1.4762413793103446
1.4970862068965507
1.517931034482758
1.5387758620689653
1.5596206896551723
1.5804655172413786
1.6013103448275858
1.622155172413793
1.6429999999999991
1.6638448275862063
1.6846896551724138
1.7055344827586199
1.726379310344827
1.7472241379310343
1.7680689655172404
1.7889137931034478
1.8097586206896548
1.8306034482758622
1.8514482758620683
1.86
1.86
1.86
1.86
1.86
1.86
1.86
1.86
1.86
1.86
1.86
1.86
1.86
1.86
1.86
1.86
1.86
1.86
1.86
1.86
1.86
1.86
1.86
1.86
1.86
1.86
1.86
1.86
1.86
1.86
1.86
1.86
1.86
1.86
1.86
1.86
1.86
1.86
1.86
1.86
1.86
1.86
1.86
1.86
1.86
1.86
1.86
1.86
1.86
1.86
1.86
1.86
1.86
1.86
1.86
1.86
1.86
1.86
1.86
1.8589310344827596
1.848508620689656
1.8380862068965524
1.8276637931034487
1.817241379310345
1.8068189655172415
1.7963965517241378
1.7859741379310354
1.7755517241379317
1.765129310344828
1.7547068965517245
1.7442844827586208
1.7338620689655173
1.7234396551724136
1.7130172413793112
1.7025948275862075
1.692172413793104
1.6817500000000003
1.6713275862068966
1.660905172413793
1.6504827586206905
1.640060344827587
1.6296379310344833
1.6192155172413796
1.608793103448276
1.5983706896551724
1.5879482758620689
1.5775258620689663
1.5671034482758626
1.556681034482759
1.55
1.55
1.55
1.55
1.55
1.55
1.55
1.55
1.55
1.55
1.55
1.55
1.55
1.55
1.55
1.55
1.55
1.55
1.55
1.55
1.55
1.55
1.55
1.55
1.55
1.55
1.55
1.55
1.55
1.55
1.5371724137931049
1.5163275862068977
1.4954827586206905
1.4746379310344833
1.453793103448276
1.4329482758620689
1.4121034482758639
1.3912586206896567
1.3704137931034492
1.349568965517242
1.3287241379310348
1.3078793103448276
1.2870344827586204
1.2661896551724154
1.2453448275862082
1.2245000000000008
1.2036551724137938
1.1828103448275864
1.1619655172413792
1.1411206896551742
1.120275862068967
1.0994310344827598
1.0785862068965524
1.0577413793103454
1.036896551724138
1.016051724137931
0.9952068965517258
0.9743620689655186
0.9535172413793114
0.9326724137931041
0.9401765517241378
0.9518496551724138
0.9635227586206887
0.9751958620689647
0.9868689655172408
0.9985420689655168
1.0102151724137929
1.0218882758620689
1.0335613793103449
1.0452344827586197
1.0569075862068957
1.068580689655172
1.080253793103448
1.091926896551724
1.1036
1.1152731034482748
1.1269462068965508
1.1386193103448268
1.150292413793103
1.161965517241379
1.173638620689655
1.185311724137931
1.1969848275862058
1.2086579310344818
1.2203310344827578
1.232004137931034
1.24367724137931
1.255350344827586
1.2670234482758622
1.2783758620689647
1.287547586206896
1.2967193103448271
1.3058910344827583
1.3150627586206896
1.3242344827586205
1.3334062068965509
1.342577931034482
1.3517496551724133
1.3609213793103445
1.3700931034482755
1.3792648275862067
1.388436551724138
1.3976082758620683
1.4067799999999995
1.4159517241379307
1.4251234482758617
1.434295172413793
1.443466896551724
1.4526386206896544
1.4618103448275854
1.4709820689655166
1.4801537931034479
1.489325517241379
1.4984972413793103
1.5076689655172415
1.5168406896551716
1.5260124137931028
1.535184137931034
1.5443558620689652
1.55
1.55
1.55
1.55
1.55
1.55
1.55
1.55
1.55
1.55
1.55
1.55
1.55
1.55
1.55
1.55
1.55
1.55
1.55
1.55
1.55
1.55
1.55
1.55
1.55
1.55
1.55
1.55
1.55
1.55
1.540646551724139
1.5260551724137938
1.511463793103449
1.4968724137931038
1.4822810344827586
1.4676896551724152
1.45309827586207
1.4385068965517251
1.42391551724138
1.4093241379310348
1.39473275862069
1.3801413793103448
1.3655500000000014
1.3509586206896562
1.3363672413793113
1.3217758620689661
1.307184482758621
1.292593103448276
1.2780017241379324
1.2634103448275873
1.2488189655172424
1.2342275862068974
1.2196362068965523
1.2050448275862071
1.1904534482758622
1.1758620689655186
1.1612706896551734
1.1466793103448285
1.1320879310344834
1.1174965517241384
1.1391965517241378
1.1650441379310321
1.190891724137929
1.216739310344826
1.242586896551723
1.2684344827586198
1.2942820689655168
1.3201296551724138
1.345977241379308
1.371824827586205
1.397672413793102
1.423519999999999
1.449367586206896
1.475215172413793
1.50106275862069
1.526910344827584
1.552757931034481
1.578605517241378
1.604453103448275
1.630300689655172
1.656148275862069
1.681995862068963
1.70784344827586
1.733691034482757
1.759538620689654
1.785386206896551
1.811233793103448
1.8370813793103449
1.8629289655172392
1.8841265517241383
1.8797491379310347
1.8753717241379313
1.8709943103448277
1.8666168965517242
1.862239482758621
1.8578620689655176
1.853484655172414
1.8491072413793106
1.844729827586207
1.8403524137931035
1.835975
1.831597586206897
1.8272201724137933
1.82284275862069
1.8184653448275863
1.8140879310344828
1.8097105172413794
1.8053331034482762
1.8009556896551728
1.7965782758620692
1.7922008620689658
1.7878234482758621
1.7834460344827587
1.779068620689655
1.7746912068965521
1.7703137931034485
1.765936379310345
1.7615589655172414
1.757181551724138
1.7517779310344828
1.7448991379310343
1.7380203448275868
1.7311415517241384
1.72426275862069
1.7173839655172416
1.7105051724137932
1.7036263793103448
1.6967475862068973
1.6898687931034488
1.6829900000000004
1.676111206896552
1.6692324137931036
1.6623536206896552
1.6554748275862068
1.6485960344827593
1.6417172413793109
1.6348384482758624
1.627959655172414
1.6210808620689656
1.6142020689655174
1.6073232758620697
1.6004444827586213
1.5935656896551729
1.5866868965517245
1.579808103448276
1.5729293103448279
1.5660505172413794
1.5591717241379317
1.5522929310344833
1.55
1.55
1.55
1.55
1.55
1.55
1.55
1.55
1.55
1.55
1.55
1.55
1.55
1.55
1.55
1.55
1.55
1.55
1.55
1.55
1.55
1.55
1.55
1.55
1.55
1.55
1.55
1.55
1.55
1.55
1.5322979310344829
1.513120689655174
1.4939434482758636
1.4747662068965528
1.4555889655172423
1.4364117241379315
1.417234482758621
1.3980572413793122
1.3788800000000017
1.3597027586206911
1.3405255172413804
1.3213482758620696
1.302171034482759
1.2829937931034485
1.2638165517241398
1.2446393103448292
1.2254620689655185
1.2062848275862077
1.1871075862068972
1.1679303448275866
1.1487531034482779
1.1295758620689673
1.1103986206896566
1.0912213793103458
1.0720441379310353
1.0528668965517247
1.033689655172414
1.0145124137931054
0.9953351724137947
0.9813958620689649
0.9914013793103443
1.0014068965517238
1.0114124137931033
1.0214179310344818
1.031423448275861
1.0414289655172406
1.0514344827586202
1.0614399999999995
1.071445517241379
1.0814510344827586
1.091456551724137
1.1014620689655163
1.111467586206896
1.1214731034482752
1.1314786206896548
1.1414841379310343
1.1514896551724136
1.161495172413792
1.1715006896551716
1.1815062068965512
1.1915117241379305
1.20151724137931
1.2115227586206894
1.2215282758620678
1.2315337931034473
1.2415393103448267
1.2515448275862062
1.2615503448275858
1.2715558620689653
1.2686589655172413
1.2490648275862086
1.229470689655174
1.209876551724139
1.1902824137931043
1.1706882758620696
1.1510941379310347
1.131500000000002
1.1119058620689672
1.0923117241379323
1.0727175862068976
1.053123448275863
1.033529310344828
1.0139351724137933
0.9943410344827606
0.9747468965517257
0.9551527586206909
0.9355586206896561
0.9159644827586213
0.8963703448275866
0.8767762068965539
0.857182068965519
0.8375879310344843
0.8179937931034494
0.7983996551724146
0.7788055172413799
0.7592113793103451
0.7396172413793124
0.7200231034482776
0.7004289655172428
0.7143148275862053
0.7430806896551714
0.7718465517241373
0.8006124137931033
0.8293782758620662
0.8581441379310322
0.8869099999999982
0.9156758620689642
0.9444417241379301
0.9732075862068961
1.001973448275859
1.030739310344825
1.059505172413791
1.088271034482757
1.117036896551723
1.145802758620689
1.174568620689655
1.2033344827586179
1.2321003448275838
1.2608662068965497
1.2896320689655159
1.3183979310344818
1.347163793103448
1.3759296551724107
1.4046955172413766
1.4334613793103426
1.4622272413793087
1.4909931034482746
1.5197589655172408
1.5485248275862067
1.55
1.55
1.55
1.55
1.55
1.55
1.55
1.55
1.55
1.55
1.55
1.55
1.55
1.55
1.55
1.55
1.55
1.55
1.55
1.55
1.55
1.55
1.55
1.55
1.55
1.55
1.55
1.55
1.55
1.547862068965519
1.5374396551724154
1.5270172413793117
1.5165948275862082
1.5061724137931045
1.495750000000001
1.4853275862068973
1.4749051724137936
1.46448275862069
1.4540603448275864
1.443637931034483
1.4332155172413792
1.4227931034482757
1.4123706896551742
1.4019482758620705
1.391525862068967
1.3811034482758633
1.3706810344827598
1.360258620689656
1.3498362068965526
1.3394137931034489
1.3289913793103452
1.3185689655172417
1.308146551724138
1.2977241379310345
1.2873017241379308
1.2768793103448273
1.2664568965517258
1.256034482758622
1.2456120689655186
1.238075862068966
1.2339068965517246
1.2297379310344831
1.2255689655172417
1.2214000000000003
1.2172310344827588
1.2130620689655174
1.208893103448276
1.2047241379310345
1.200555172413793
1.1963862068965525
1.192217241379311
1.1880482758620696
1.1838793103448282
1.1797103448275867
1.1755413793103453
1.1713724137931036
1.1672034482758624
1.1630344827586208
1.1588655172413795
1.1546965517241379
1.1505275862068967
1.146358620689655
1.1421896551724144
1.138020689655173
1.1338517241379316
1.1296827586206901
1.1255137931034487
1.1213448275862072
1.1171758620689658
1.1189931034482758
1.1231620689655173
1.1273310344827587
1.1315000000000002
1.1356689655172416
1.139837931034483
1.1440068965517236
1.148175862068965
1.1523448275862065
1.156513793103448
1.1606827586206894
1.1648517241379308
1.1690206896551723
1.1731896551724137
1.1773586206896551
1.1815275862068966
1.185696551724138
1.1898655172413795
1.194034482758621
1.1982034482758614
1.202372413793103
1.2065413793103443
1.2107103448275858
1.2148793103448272
1.2190482758620687
1.22321724137931
1.2273862068965515
1.231555172413793
1.2357241379310344
1.2398931034482759
1.24
1.24
1.24
1.24
1.24
1.24
1.24
1.24
1.24
1.24
1.24
1.24
1.24
1.24
1.24
1.24
1.24
1.24
1.24
1.24
1.24
1.24
1.24
1.24
1.24
1.24
1.24
1.24
1.24
1.24
1.24
1.24
1.24
1.24
1.24
1.24
1.24
1.24
1.24
1.24
1.24
1.24
1.24
1.24
1.24
1.24
1.24
1.24
1.24
1.24
1.24
1.24
1.24
1.24
1.24
1.24
1.24
1.24
1.24
1.24
1.24
1.24
1.24
1.24
1.24
1.24
1.24
1.24
1.24
1.24
1.24
1.24
1.24
1.24
1.24
1.24
1.24
1.24
1.24
1.24
1.24
1.24
1.24
1.24
1.24
1.24
1.24
1.24
1.24
1.24
1.24
1.24
1.24
1.24
1.24
1.24
1.24
1.24
1.24
1.24
1.24
1.24
1.24
1.24
1.24
1.24
1.24
1.24
1.24
1.24
1.24
1.24
1.24
1.24
1.24
1.24
1.24
1.24
1.24
FIELD FieldData 2
Curvature 1 1161 double
0.235260371555667
0.239428253854806
0.243533395255672
0.247562970555675
0.251503724992857
0.255342047805365
0.259064056636093
0.262655692443445
0.266102824299158
0.269391363157731
0.272507383378088
0.27543724882251
0.278167739139085
0.280686187529507
0.282980616584679
0.285039870359212
0.286853741586615
0.288413091478123
0.289709959604151
0.290737661496409
0.291490871830133
0.291965701603781
0.292159776321077
0.292072231703531
0.291703712353199
0.291056361602557
0.290133792346381
0.28894103973272
0.287484497021366
0.285771836298557
0.283811916053004
0.281614696723818
0.279191184533492
0.276553254646492
0.273713509163535
0.270685153154293
0.267481872027363
0.264117712355965
0.260606968042605
0.256964073440436
0.253203504765729
0.249339778567557
0.245387614654396
0.24136156344759
0.23727584691479
0.23314430308486
0.228980341276459
0.224796907517003
0.220606459473745
0.216420950096408
0.212251819078886
0.208110117697982
0.204006853539037
0.199952545924764
0.195957090217732
0.192029760411414
0.188179213331436
0.184413493469834
0.180740037571443
0.177165678205029
0.173696645681374
0.170338655333275
0.167097183561358
0.163977227421101
0.160983210901701
0.158118971514205
0.155387744129394
0.152792142565339
0.150334139612829
0.148015046356906
0.145835491793679
0.143795453349816
0.141894380035457
0.140131013871988
0.138503326780387
0.13700851505793
0.135643000741349
0.13440244044766
0.133281741989689
0.132275088747764
0.13137597146447
0.130577416934416
0.129872713425241
0.129255075490768
0.128717516597595
0.128252883561883
0.12785389053454
0.127513152008036
0.127223214394511
0.126976585811355
0.126765763801751
0.126583202895327
0.126421124861987
0.126271647985853
0.126126860694009
0.125978845414681
0.125819700455452
0.125641559965199
0.125436612084017
0.125197115414646
0.124915413967727
0.12458415405004
0.124196916604384
0.123747633665904
0.123230393023672
0.12263944325515
0.12196919873715
0.121214244726658
0.120369342604157
0.119429435376612
0.11838965354865
0.117245902046084
0.115996686173952
0.114641499148844
0.113180240657397
0.111613196562414
0.109941020049368
0.108164714229242
0.106285616264105
0.104305383137734
0.102225979256961
0.100049516727872
0.0977777865569045
0.0954126840667463
0.0929563633163752
0.0904112511308891
0.0877800679642887
0.0850658574800326
0.0822720273399295
0.0794024045211103
0.0764613096257074
0.0734537884992572
0.0703861323581453
0.0672656276563302
0.0641006233759802
0.0609008009292717
0.0576775381108845
0.0544444009304321
0.0512178089487067
0.0480179336540014
0.0448699024290432
0.0418050922219396
0.0388620299885162
0.0360890977745818
0.0335468814755391
0.0313094284296188
0.0294630067638141
0.0280999553512474
0.0273057095130704
0.0271404877192898
0.0276227673169836
0.0287243661613934
0.030381250673323
0.0325106398647507
0.0350271331612429
0.0378530709548108
0.0409227941021072
0.0441829646466838
0.0475910552213851
0.0511133170360731
0.0547228470451427
0.0583977135789313
0.0621188277835812
0.0658696449908695
0.0696357466058025
0.0734043490912235
0.0771639339160613
0.0809039690968713
0.0846146998658484
0.088286991615689