# vtk DataFile Version 3.0
Curve with Curvature, Torsion, Distance to V, and Extrema
ASCII
DATASET POLYDATA
POINTS 75 float
0.0 0.0 0.0
-0.3741004358185487 -0.746185942463292 0.0493934043097104
-0.8175010637278461 -1.5518831242863698 0.16930426078640526
-1.3064717094352254 -2.3700982209877584 0.32066636474790755
-1.8235556863777207 -3.1729952024513164 0.46346015327182233
-2.3592199003078944 -3.9601530376859095 0.543730519621775
-2.8952265956842833 -4.728974310497831 0.49317221177613924
-3.392455607994303 -5.458306296210953 0.2521740787873954
-3.801966846774712 -6.1256659208793796 -0.2039216514119282
-4.075387738900075 -6.732230224943111 -0.8259349443648691
-4.224226591321968 -7.315820400415287 -1.5196111128633794
-4.253544209316407 -7.89341884837831 -2.2497211508543042
-4.160771594015723 -8.46244156154546 -2.9921747131928553
-3.9433963470798163 -9.015678917954197 -3.7319823641821452
-3.607315371102106 -9.548075523695083 -4.450489516660535
-3.1684807284050747 -10.06080780405478 -5.132135590731008
-2.654100599066031 -10.562725541155679 -5.752030548950436
-2.105304329813019 -11.073615060736945 -6.262542949607991
-1.5654833269576764 -11.603906974502372 -6.622125272171243
-1.0851075115532574 -12.13371906775738 -6.747834954173224
-0.7117512554061296 -12.61741063027818 -6.618402668753448
-0.4645042562400903 -13.034213587669369 -6.260066963524111
-0.3526972081626507 -13.357621791545213 -5.697769939829908
-0.37229648833908335 -13.55169089104807 -4.980737435233389
-0.4916510163585164 -13.623227692779121 -4.184032640643978
-0.6819924632453276 -13.596181967311825 -3.3589611596214146
-0.9048287737925484 -13.506302167087192 -2.531919898597894
-1.1295208768447837 -13.392452104413817 -1.7093785962326171
-1.325811021949339 -13.299659919452987 -0.8866810133662009
-1.4670518812266238 -13.281037699717432 -0.058430752799588426
-1.5326284884746926 -13.379660617604808 0.761452050517839
-1.5265777935086993 -13.609335208874407 1.5485518580403062
-1.4568975604871275 -13.977387699968263 2.2816464859477956
-1.338059281891545 -14.476043092801268 2.948780276297994
-1.1808230494195486 -15.09024569010485 3.5402481324744306
-0.9875595050408847 -15.795420138351794 4.049917383326189
-0.7637157839095767 -16.56938753750412 4.4722527535162415
-0.5204783768478238 -17.387216348678486 4.813232716085105
-0.2589151213217553 -18.22909647765002 5.091390676694466
0.020697229245315363 -19.077885950801644 5.320167156832431
0.32627321959045297 -19.919391643856184 5.5193302048099415
0.6700636785037895 -20.746783790777688 5.707441343194802
1.0584361227964867 -21.552210569599765 5.9035273943851605
1.5011846564367897 -22.325671755199643 6.128462255996888
2.0070970493316023 -23.05211461164091 6.391743087495792
2.580299948830991 -23.713660503836827 6.697231886328161
3.2201116241456176 -24.292930460192636 7.046358220987837
3.920115320891191 -24.77571127017613 7.438544994343052
4.6671981438969 -25.155284067013262 7.870623715831034
5.448180437211915 -25.4308064212491 8.335457794712536
6.254380740489593 -25.60529499625528 8.81769538974902
7.083840534143679 -25.688140122182183 9.300663363268797
7.932439837939016 -25.68723381925428 9.777185738855602
8.790034234179002 -25.608262484375587 10.248346089094
9.64484848826071 -25.459661787970884 10.719994839498348
10.48804817192719 -25.25414857777753 11.19909375071765
11.315155873645498 -25.00725376373335 11.690753636174684
12.125984526186524 -24.73740013624411 12.197281766018799
12.924016822418828 -24.465927308607426 12.71839496982438
13.713766917234548 -24.21435204711979 13.251937730327818
14.496924877239223 -24.00178986332619 13.795082386716945
15.270974580444069 -23.845770719814205 14.345522258351352
16.029793604301084 -23.763534076415738 14.902746306667396
16.762957535967562 -23.771452743590192 15.468810110358866
17.45257456488496 -23.882899441698267 16.046674327610255
18.07583529526098 -24.103182925085797 16.63468181224353
18.619427614437654 -24.429709775616665 17.2252721979427
19.07671354084804 -24.859192721139387 17.811360242673214
19.44065367254678 -25.385188076400656 18.38551343474784
19.71154660855603 -25.994600182096633 18.94025200296849
19.902535997464277 -26.669395790165794 19.47168698604272
20.03327815639858 -27.39030794431003 19.983853942130693
20.12314575557862 -28.139451486507532 20.484193942303147
20.188337296467147 -28.891548785605828 20.979238517906698
20.24176438468981 -29.60560312643154 21.45448656702716
LINES 1 76
75 0 1 2 3 4 5 6 7 8 9 10 11 12 13 14 15 16 17 18 19 20 21 22 23 24 25 26 27 28 29 30 31 32 33 34 35 36 37 38 39 40 41 42 43 44 45 46 47 48 49 50 51 52 53 54 55 56 57 58 59 60 61 62 63 64 65 66 67 68 69 70 71 72 73 74
POINT_DATA 75
SCALARS Curvature float 1
LOOKUP_TABLE default
0.0
0.07774960421716476
0.04462392151764405
0.03551211451663071
0.0728639693476495
0.14859302036157634
0.23252263294293685
0.28348247453026737
0.25997247076454794
0.16929251149995667
0.1411827614643817
0.13706910937072903
0.1372882526258768
0.13242465143858737
0.11945866687718415
0.10840780327747407
0.13211399517772285
0.19802185241769826
0.4067166423721843
0.6100112750040663
0.6262262878326245
0.5033485585247547
0.3617716921372796
0.23496362460940334
0.15978404599295234
0.09239682070762824
0.03302883345689455
0.04730178201596393
0.13004678296250105
0.2009350525534876
0.22343469618879658
0.23242543268767393
0.21012874099741988
0.18209795365616924
0.15384100335142462
0.1350565003661666
0.11017555610363788
0.08084595625563824
0.06223342613950336
0.047281906771065384
0.05031159499511013
0.05997420243271262
0.0815692729705637
0.10183416164249984
0.11829808938604994
0.13073726991780651
0.13697914530038802
0.13355050675251642
0.12507725308930412
0.11443853771002796
0.10063646532392803
0.08957194869297362
0.08066996691945966
0.07082768112107178
0.059254069794755164
0.04662073555311081
0.03223946093088892
0.019696403546345474
0.02508060224222602
0.041747484449728416
0.06080631783778375
0.08290566911187129
0.10806285448808405
0.1356627483938402
0.1611171301060445
0.17473246784646035
0.18034842896129075
0.17981233364348675
0.16498707824334868
0.13374128761757575
0.09523416955966084
0.06025041136377858
0.03104948327746577
0.013792583408555631
0.0
SCALARS Torsion float 1
LOOKUP_TABLE default
0.0
0.0
0.5728713855190875
0.7790711839209041
0.39347294209987177
0.15273413238106015
0.09356921607108624
0.09984156690520041
0.24463202326452121
0.4953168235948693
0.2801885514186017
0.11346263295836517
0.03165984138043164
0.060776920168617694
0.10150895853542548
0.27445924418908046
0.4383238476553848
0.276860430279884
0.057501225845003806
0.01476258271657703
0.042824708536296455
-0.027476727963263836
-0.09866136158555651
-0.07220857992500297
-0.01876968371482901
-0.21246348150199723
-0.8013337066710347
-0.5467988159969875
-0.12748638439222615
-0.06410261265785709
-0.10222930293176043
-0.09325331358230234
-0.09443565814114109
-0.05317298079396146
0.04518892095410304
0.014124829477991235
-0.030178444585219795
0.12919156443344507
0.19609665575502147
0.5703023280505061
0.5057099581073531
0.36893102668175376
0.21468947321135007
0.041085630453648964
0.005965721505402047
0.00765133144920609
0.017760167868690908
0.033022735124033746
0.008753332726048214
-0.0856346408595371
-0.1596252919012652
-0.06708981021486222
0.06809341630432598
0.15949869648198753
0.21475778433682896
0.2600438449629789
0.4042408735554124
0.7963836456784269
0.5972844443996558
0.21719868087541633
0.06888829472000596
0.0016062630385597493
-0.04350951778949766
-0.07978770424111764
-0.0812379626715335
-0.023972049780181526
0.0017510247495630786
-0.009427537912827666
0.0002895992714016943
0.02809787056491611
-0.0017778140627141663
-0.07383200381369802
-0.5650895277177541
-0.9548606115101022
0.0
SCALARS Distance_to_V float 1
LOOKUP_TABLE default
0.0
0.7484831894454017
1.5750192182600913
2.4415009682220683
3.322665980757911
4.215863909089373
5.113178903395046
5.9856974118448605
6.803843589682306
7.54923436580181
8.253573532611487
8.933725833447587
9.586822439499189
10.207941295541652
10.7945053238257
11.35116508788221
11.88173100554909
12.379203044243102
12.823800259222873
13.142403885690443
13.28575514977241
13.25571558114851
13.056740009473108
12.708064822013869
12.270405734667701
11.797996269339917
11.328757572177375
10.887936817361332
10.4943148695564
10.169013762388854
9.931934410447889
9.793759512921934
9.757633904339972
9.816821563542216
9.959051854037382
10.162461727928322
10.412659191062058
10.698177636827387
11.002889890414185
11.313835382491527
11.612473934430112
11.88198762559572
12.108094657755991
12.271340179494448
12.35249226297091
12.335114158482046
12.206939958731937
11.962088186924229
11.604775797868426
11.144704434232525
10.5950005033329
9.97053774327354
9.283340339017853
8.544166348444085
7.764235143118601
6.955122214586368
6.128706537219037
5.2986574167436835
4.482194181185198
3.701360190918105
2.985689180810701
2.3775414984967056
1.9346346328013018
1.7089711274649058
1.685530664405797
1.7666049883758042
1.8535721992555443
1.8849136641754207
1.8266394688879621
1.6690085288748575
1.4231876500704737
1.10978859538578
0.7507389502837579
0.36996403693927643
0.0
SCALARS Local_Extrema int 1
LOOKUP_TABLE default
0
0
0
0
0
0
0
0
0
0
0
0
0
0
0
0
0
0
0
0
1
0
0
0
0
0
0
0
0
0
0
0
-1
0
0
0
0
0
0
0
0
0
0
0
1
0
0
0
0
0
0
0
0
0
0
0
0
0
0
0
0
0
0
0
-1
0
0
1
0
0
0
0
0
0
0
