# vtk DataFile Version 3.0
Curve with Curvature, Torsion, Distance to V, and Extrema
ASCII
DATASET POLYDATA
POINTS 74 float
0.0 0.0 0.0
-0.7185902562916339 -0.9215580982288851 0.19329537590847523
-1.5080119370773355 -1.8556326699792005 0.4246920266176543
-2.3098085827137584 -2.745431451642559 0.6275220784151065
-3.083272099479086 -3.5665224877052943 0.7385040845368263
-3.79368738282662 -4.308746859462927 0.7026320025270122
-4.415395579867697 -4.977014621388818 0.483907828527886
-4.934208849283453 -5.592057928592109 0.06985107135618017
-5.3394983453176845 -6.181436823563612 -0.5192460593708008
-5.6244486454946205 -6.775526200763803 -1.2352851459255112
-5.786289878659268 -7.399679309089693 -2.0317844702919667
-5.816211478155617 -8.060009150473542 -2.866943062779218
-5.699899900469364 -8.751367019645546 -3.726126885237621
-5.433670494649644 -9.455702333260437 -4.574290817470491
-5.029118835573338 -10.1741462211125 -5.39494845221061
-4.51954630932938 -10.899218221205919 -6.157980585353254
-3.968269114043611 -11.613527197961654 -6.804442361618146
-3.4482476147874324 -12.292997853248826 -7.269192444470957
-3.026414994091388 -12.895325801935781 -7.50425518077952
-2.730215058927509 -13.383448660329082 -7.516810423262236
-2.544799450358209 -13.764319179823481 -7.346465037144667
-2.4462523484877177 -14.058149533335015 -7.015618037225557
-2.4259723946855427 -14.27489156673307 -6.522505029411763
-2.487532217347275 -14.400181178602429 -5.862173727665325
-2.6281159816995108 -14.4130853504162 -5.063117753896669
-2.826050833500994 -14.320286095102603 -4.182877345736429
-3.0476114832901025 -14.157419970426353 -3.2711638478525225
-3.255444545990855 -13.979063125393965 -2.365532734072235
-3.4224140369068334 -13.842680834370844 -1.4764347912606237
-3.5347261062341624 -13.798471100019006 -0.6033897904834579
-3.5894353665941865 -13.884482475292979 0.2476170601218261
-3.591994034374484 -14.121780427234087 1.0666492867722044
-3.550832475231156 -14.518895877471206 1.8472346484562543
-3.4730699528572626 -15.080947251509675 2.583415196179596
-3.3664290738108473 -15.803554128080824 3.2628341709109843
-3.2396614973484033 -16.665203035148163 3.8734216761751203
-3.1002188151392516 -17.63548926427195 4.409453365317928
-2.952854127565545 -18.679874961473928 4.868913287481239
-2.7955209351206225 -19.76480221540219 5.2584942587502255
-2.6171999983753222 -20.864802386847433 5.592469615592141
-2.4041667638534006 -21.962659920334918 5.8866605967967125
-2.147325844205092 -23.042668630675703 6.162249884749801
-1.831259873259202 -24.095713922715174 6.448571914689178
-1.441003801803304 -25.108802172846747 6.765358033419686
-0.9646637812096027 -26.062969538631904 7.125534845958103
-0.39497012617753346 -26.936231672756303 7.538077434713957
0.2682327399477998 -27.70754149225497 8.007743788870458
1.018581772976061 -28.36288742442353 8.53403335168438
1.8479380517772883 -28.89622668194768 9.109308418878404
2.7481341880999985 -29.309612907858657 9.716368173589695
3.7135217327438994 -29.611491483629912 10.337540594307182
4.739125801197721 -29.809761363092015 10.961026301536732
5.816249436047658 -29.90870333908921 11.582481010727033
6.929755924738097 -29.911509341127413 12.204321140448476
8.06112568044296 -29.82556687077845 12.833170864550235
9.19504387686293 -29.666479260383174 13.47585614110607
10.322742963928945 -29.458633387874613 14.136585806263486
11.44107713582016 -29.23286414936683 14.816569697729998
12.548597485236481 -29.021991333762422 15.514232333629892
13.640952731156053 -28.856447020998257 16.22577900613531
14.707226459497544 -28.76275786972416 16.945740361492305
15.72987908296914 -28.762614912707576 17.668244552124634
16.687142614952148 -28.8710703770329 18.38932972925823
17.554356077070715 -29.094962429608653 19.10665209881381
18.308575621199775 -29.43212065193065 19.81566833814676
18.93908366020782 -29.87613655372839 20.51126805980925
19.445619177481742 -30.42353980821996 21.19212991699836
19.830334114461923 -31.072171170030263 21.858482487476675
20.098155348139798 -31.81555767167592 22.509922883066967
20.260726725960883 -32.64039325829388 23.145939798543832
20.335159505578403 -33.529630394378046 23.768705239670286
20.341593177086285 -34.46091661855594 24.383024480546105
20.306142419368292 -35.39277841631147 24.988331447217377
20.25832810880025 -36.25415694763695 25.557638925664985
LINES 1 75
74 0 1 2 3 4 5 6 7 8 9 10 11 12 13 14 15 16 17 18 19 20 21 22 23 24 25 26 27 28 29 30 31 32 33 34 35 36 37 38 39 40 41 42 43 44 45 46 47 48 49 50 51 52 53 54 55 56 57 58 59 60 61 62 63 64 65 66 67 68 69 70 71 72 73
POINT_DATA 74
SCALARS Curvature float 1
LOOKUP_TABLE default
0.0
0.03447871992514922
0.030943723232059184
0.06889762679664267
0.14148555964112386
0.22863151752159822
0.2703474591130996
0.2345983887728719
0.171479074106469
0.12969912645200826
0.117073516340364
0.11473702335820966
0.11360074950114284
0.10067581002561542
0.08704498268169229
0.0905561307397677
0.14397157334288838
0.3022453662349192
0.5961318886051418
0.8014843907805616
0.7454300849393338
0.4985036846097877
0.29571217982620207
0.19015218097797082
0.1246495364201278
0.07126895091134695
0.023171075021490385
0.06334009245481217
0.13411691859073985
0.19295558476602817
0.22022481566719854
0.21174533919801963
0.1843056050841774
0.15225013045222968
0.12051728782696043
0.0941797685743462
0.07539270988722817
0.05893118304720593
0.04526267431999967
0.03926089757616842
0.0378260221747015
0.05085292559012464
0.0699311102035663
0.08893218692090153
0.1062706326213589
0.11844730810210616
0.12132616075174092
0.11559418092935472
0.10331734444569796
0.08913429602677768
0.07729264976374697
0.0680746153068034
0.06003346645742449
0.05184847648926597
0.041920829564918084
0.02917408849540476
0.015569910582502526
0.014469121736893015
0.02812796946839392
0.04423980515148196
0.06206318027873862
0.08215037844083237
0.10472650352012666
0.1280883992622192
0.1467802290580377
0.15685960815684305
0.1555223085751644
0.14062228894644574
0.11504319144592146
0.0866043993551456
0.059833252648707175
0.03456127092347317
0.017094486419515015
0.0
SCALARS Torsion float 1
LOOKUP_TABLE default
0.0
0.0
0.6912159779384409
0.2878720355494988
0.13720202133288978
0.10024640282061872
0.10753395946196631
0.16977419001831678
0.2938875457967736
0.32690084807823544
0.21099175590087935
0.026327189788436872
0.04191678066647537
0.08082376554199229
0.1494171770489944
0.33370059553509085
0.30780414178342574
0.17518723261205768
0.046030479454449436
-0.005000285930069147
-0.06659890913915167
-0.03262761680045457
-0.04738464241188767
-0.06535510644961522
-0.08284036771652385
-0.22798098467361066
-0.986476274882567
-0.397660972876399
-0.1398066687230543
-0.102670221813592
-0.09013697161914878
-0.07391637616107813
-0.05544462747298646
-0.04707014678454949
-0.037958573216354534
-0.025004307040416073
-0.001599428027776812
0.08279798789790706
0.2779724770907848
0.39075828015776887
0.43680877735380047
0.32998787277149455
0.1250396150161211
0.054094210019759115
0.03363655785776173
0.027745911303191546
0.01971290124107326
-0.009437317861572366
-0.0637834660751348
-0.09202736735425893
-0.06927163056162071
-0.005608781345843625
0.07018304472710399
0.12808356714779237
0.16146739878701127
0.23234307541854723
0.5948102602759852
0.6552685566805654
0.1979760539781873
0.0628666426707952
0.007811699095622397
-0.028106430638965653
-0.0539274549464761
-0.0544697603645645
-0.026710767632813923
-0.004847986750499252
-0.0009703302056280278
-0.0027293719613574476
-0.002994440628155432
-0.016909349929978192
-0.08066617370045422
-0.34582952596585315
-0.8937132029232501
0.0
SCALARS Distance_to_V float 1
LOOKUP_TABLE default
0.0
1.0793234054622256
2.2239310943343673
3.358138235665997
4.436493530422713
5.428503641110702
6.325206029471853
7.143157280556396
7.909348466150877
8.651707110505134
9.393235263147904
10.13470643571898
10.871205486446932
11.585240542820072
12.284250497916458
12.967320405940153
13.609907811650945
14.165555706582508
14.574992385967949
14.808644502076502
14.8842323397647
14.82143292811084
14.626301760786637
14.295335782708118
13.845468114740502
13.3248695878519
12.786524622315637
12.278361652577596
11.830887426784539
11.46513996053785
11.199219996665532
11.043618123478746
10.999674735384545
11.065528155732716
11.236914763576811
11.502010756399505
11.844254149250052
12.244767051866118
12.68009355917224
13.124014079224587
13.55315855878845
13.946810882223502
14.280516407860606
14.529787603129543
14.670259661201701
14.679903433467683
14.543390102914419
14.25593426543479
13.821494618453446
13.252943711884773
12.566331007653812
11.775471722101232
10.892132381693484
9.929160350190504
8.90223428446833
7.829806782245333
6.733516230113577
5.639270984058468
4.57951462923336
3.597778939591607
2.7583568257368536
2.1545746981074836
1.8774399988076198
1.900880844034186
2.06326110709875
2.2195425469554406
2.2949324673679676
2.2559567585771423
2.0919710583585305
1.8098957747541564
1.4272574007772296
0.9685528617286211
0.4732567884432288
0.0
SCALARS Local_Extrema int 1
LOOKUP_TABLE default
0
0
0
0
0
0
0
0
0
0
0
0
0
0
0
0
0
0
0
0
1
0
0
0
0
0
0
0
0
0
0
0
-1
0
0
0
0
0
0
0
0
0
0
0
0
1
0
0
0
0
0
0
0
0
0
0
0
0
0
0
0
0
-1
0
0
0
1
0
0
0
0
0
0
0
