# vtk DataFile Version 3.0
Curve with Curvature, Torsion, Distance to V, and Extrema
ASCII
DATASET POLYDATA
POINTS 120 float
0.0 0.0 0.0
-0.24749270997229544 -0.500621057790255 0.021305824862970724
-0.5244325640629999 -1.0137401870096596 0.08339850168787155
-0.8247500728550463 -1.5329893312798717 0.1735883407114187
-1.1428317133608514 -2.051979680440274 0.27958121060452434
-1.4732600706247947 -2.564808629844933 0.3890876043036684
-1.8105695949488911 -3.0661598013533204 0.48945869481442195
-2.1491370166812187 -3.5513707416825095 0.5677226769693284
-2.4831248417741687 -4.016661974235305 0.610957037706533
-2.806536559253483 -4.459489121822481 0.6070289426949556
-3.1133778692710896 -4.87890321281481 0.5455299001368061
-3.3977540021746346 -5.275571722050081 0.41853408680795745
-3.6538345130078325 -5.65121074676912 0.2215828419162893
-3.876452886494473 -6.008621901549587 -0.04372638643747173
-4.062121127821881 -6.353602741541879 -0.36964720544661134
-4.20819417802359 -6.69283301313984 -0.7460985180391653
-4.312562312844743 -7.031750153594018 -1.1619168455956155
-4.373174615736871 -7.3740647033147635 -1.6057218416928087
-4.388089697364745 -7.7213956333280365 -2.0663167849918835
-4.356240332983062 -8.073600921212124 -2.5347255821586945
-4.27529460572712 -8.428204011975799 -3.0071902479446537
-4.142593740890972 -8.77822455853149 -3.478747902913722
-3.9630090496866233 -9.123398001898286 -3.9415587379388652
-3.7401648906115588 -9.463472713551258 -4.3917319748107575
-3.479124706359748 -9.797923684547872 -4.824934029617244
-3.187366838257499 -10.127196103456676 -5.2364408083343585
-2.8738520126405325 -10.452878926678803 -5.620185792616684
-2.548221801736413 -10.776649180228143 -5.9679223718877195
-2.220515318680577 -11.099635727559972 -6.269653444097732
-1.9006190941119385 -11.421980298782646 -6.514403127735867
-1.597805804746618 -11.74249221327095 -6.690989693928803
-1.3204332519320348 -12.058137124586306 -6.788768973265426
-1.0760821618243304 -12.363904867780874 -6.798669660414784
-0.8723490405947478 -12.65260070619672 -6.715164024198683
-0.7156869896135447 -12.915186489768262 -6.539826761833845
-0.6094307277543374 -13.143528456016922 -6.281647417300111
-0.5518093869623035 -13.332154739703718 -5.954360917476545
-0.5386177483125572 -13.477919892736736 -5.570447826427082
-0.5660866086859233 -13.579011170776685 -5.141175647276381
-0.6297468038456886 -13.635386317764484 -4.677579121356234
-0.7239021017698875 -13.64939052295061 -4.189958137603486
-0.8418075563887673 -13.625914809477308 -3.6869788762535842
-0.976173164266938 -13.571561911229173 -3.1752168148076736
-1.1191575571528034 -13.494365779291355 -2.6604437071183966
-1.262151270174372 -13.404974390642169 -2.147158149151643
-1.3970264973013435 -13.315426360342826 -1.6371513371722566
-1.5170466750587996 -13.237608540825548 -1.1305682038190756
-1.6170449315701436 -13.182674458809107 -0.6271760105497144
-1.693400030360798 -13.160591613110828 -0.1272210886274303
-1.7438796354407673 -13.179882533252535 0.3680997704605389
-1.7675171791746376 -13.247528548103508 0.8563416827143397
-1.7646527563969379 -13.368397183853926 1.3338232505378502
-1.7367225340706192 -13.54471561119596 1.7962412367044824
-1.6856220641087276 -13.77625684950889 2.239543738616859
-1.6132572885588754 -14.06106228341033 2.660187727048739
-1.5216866308057684 -14.395887344266479 3.0550789655466666
-1.413502629311271 -14.776229073680422 3.421577258364829
-1.2919760358534385 -15.196482648968308 3.7578392500975433
-1.1604493106395806 -15.650491289219302 4.06308193915073
-1.0216905851157998 -16.13211983095125 4.337378194132755
-0.8775429609281638 -16.63546138073896 4.58148218780791
-0.7287858123567323 -17.1549350059362 4.796968155459725
-0.5751185051328669 -17.68553560569479 4.986292940859371
-0.41520723436937246 -18.223026834060228 5.152701063189268
-0.24687032591845615 -18.763994366722653 5.299991620848436
-0.0674462235565283 -19.30577747084912 5.431872646108747
0.12501737552352443 -19.84614985407066 5.551508022526509
0.3314855992759336 -20.383123454492093 5.664666785523661
0.5549682839762919 -20.9148002439345 5.778934218562669
0.7988661793033738 -21.438409194088763 5.900099290839543
1.0659843230376587 -21.950173854746453 6.0324887323987
1.3585922621365745 -22.445555537867317 6.17931288903441
1.678354823397338 -22.919506868810004 6.34296025963875
2.026129919781194 -23.366800520078044 6.525123944509144
2.401846803076867 -23.782422287094604 6.726834952883254
2.80444810117719 -24.16197039036156 6.948465434954658
3.2320446088210777 -24.502123510478004 7.189764855181702
3.6822108431931966 -24.80061675946508 7.449878095516276
4.152269351047867 -25.056168872116018 7.726847181931706
4.639748703324341 -25.268716200806114 8.017116392490761
5.14267220771106 -25.43943036859909 8.316375082411621
5.659379820021252 -25.570167874599235 8.620558043368131
6.188292106102845 -25.66282762458472 8.926298482912818
6.7276638284610115 -25.719110146370998 9.231178400179596
7.2754036343535535 -25.740471951562107 9.533904093862663
7.828986170283711 -25.728295739594877 9.834314575923063
8.385535249057657 -25.68411753547382 10.13322030616745
8.942079700216276 -25.60984452466805 10.432101455471791
9.495906495050495 -25.507942822424056 10.73269121633429
10.044882031462096 -25.381719938047787 11.03660593645327
10.587709810296602 -25.235349292621763 11.345110940273926
11.123985284899442 -25.0739164892098 11.658935137583066
11.654107224936473 -24.903116140323203 11.978359410749349
12.179033352158452 -24.728998533972455 12.303331915462358
12.699890741337306 -24.557589943560394 12.633563200465742
13.217637856909136 -24.394702288794164 12.968666799954883
13.732793593523088 -24.245820684064494 13.308172481793854
14.245185148343747 -24.1162027397965 13.651603395353408
14.753852945776401 -24.010858286257488 13.998565980542395
15.256878254707999 -23.934507705856124 14.348778022403753
15.751416742724931 -23.89144017525804 14.70213505603185
16.23370675845974 -23.885282042413618 15.058695095322939
16.699257731769947 -23.918796435507392 15.418581815173745
17.14319380079664 -23.993786788082403 15.781734177825303
17.560687378836327 -24.111144753311052 16.147721376704606
17.947440259983836 -24.27102133032995 16.515529511050946
18.300047777667768 -24.472973604503096 16.883634899079823
18.61616895119481 -24.71604591365664 17.25018840553242
18.894618732422728 -24.99877168353771 17.613296091838897
19.135277977466593 -25.319115539955003 17.97130114691083
19.33909138217179 -25.674435737741568 18.323044634633607
19.50800846124001 -26.06164776187481 18.667856612456614
19.6448583109634 -26.477031855610733 19.005524754184126
19.75314906732498 -26.916550224129157 19.33622995078936
19.836890503710567 -27.375626078396408 19.66049133079376
19.90059262816428 -27.84894498544408 19.979245490280068
19.949497088406414 -28.330718440683896 20.293855667900154
19.989204889452303 -28.815102674419464 20.60591231040791
20.025354146666853 -29.29634338737496 20.916974701958374
20.06357384211273 -29.768741520606604 21.22858412431955
LINES 1 121
120 0 1 2 3 4 5 6 7 8 9 10 11 12 13 14 15 16 17 18 19 20 21 22 23 24 25 26 27 28 29 30 31 32 33 34 35 36 37 38 39 40 41 42 43 44 45 46 47 48 49 50 51 52 53 54 55 56 57 58 59 60 61 62 63 64 65 66 67 68 69 70 71 72 73 74 75 76 77 78 79 80 81 82 83 84 85 86 87 88 89 90 91 92 93 94 95 96 97 98 99 100 101 102 103 104 105 106 107 108 109 110 111 112 113 114 115 116 117 118 119
POINT_DATA 120
SCALARS Curvature float 1
LOOKUP_TABLE default
0.0
0.123989819680427
0.08280640187943186
0.0542587473011479
0.0366408343627091
0.03879622687327503
0.06371913916486252
0.10397972338845661
0.15688581123578263
0.21755846815115343
0.2739833340926717
0.3085383459034705
0.30420321750217055
0.2634052615053998
0.21516996387778334
0.17577603956263477
0.1508308597647083
0.1387612112792825
0.13333385021021493
0.13422407402353406
0.1406943630069386
0.12982030291836769
0.12224363165295453
0.1141585627511688
0.10395509019686905
0.09762268614650864
0.10369413338504382
0.12821606063739152
0.17699563683669145
0.2576876795098959
0.37719689373025583
0.5245795135676122
0.6499738750160917
0.6940448790165946
0.6474699626739604
0.5371281605357029
0.41967191812270116
0.326669263669096
0.25583465012221895
0.20019549865949773
0.1537679924356794
0.1141995138972391
0.07915532462519723
0.042012397419432024
0.024743677317429283
0.06234106494135089
0.1087331798991661
0.15385221246735395
0.19366333309311035
0.22495121071901672
0.24377945839344267
0.24821610106047176
0.2401541342599787
0.22422919761486512
0.2043445590213354
0.18296195035404303
0.1615764432631535
0.14167268149890178
0.12449837296672871
0.10988804539131672
0.09661124721838911
0.08397277952980466
0.0720187567612259
0.06167960378939993
0.05528650341593913
0.05219311480097723
0.045897135920253296
0.051313422004719916
0.06550804951469785
0.0803528526723941
0.09465268594175673
0.10817165527355115
0.1203261480623968
0.13036313233868693
0.13742692625003786
0.1406582044918062
0.14038814777359565
0.13683793824201834
0.12996062417485132
0.12093352014991723
0.1116165517741794
0.10343753440161936
0.09653603995570613
0.09057177827979493
0.08496452524863637
0.07939581829345811
0.07374538786923782
0.06779759993248585
0.06076426983488562
0.05222935206514582
0.041809228748935764
0.03038000518037747
0.02011033024714077
0.017221328285755493
0.024747589741191095
0.03622031275480944
0.04887045668514083
0.0621067090764633
0.07595192514559987
0.09047723801261996
0.10556614232990195
0.12103813568902196
0.13656724267927262
0.15170153666765634
0.16563797389035623
0.1771590962911172
0.18483730883961125
0.1871611214652335
0.18329979491425813
0.17298423336845364
0.1573922268421632
0.13786669749203279
0.11681552124733573
0.0953787363675577
0.07372930846262768
0.051465354073952835
0.029649847443973983
0.010503598170102563
0.0183415556291267
0.0
SCALARS Torsion float 1
LOOKUP_TABLE default
0.0
0.0
0.24493422872097345
0.4912399432018786
0.8206655020443832
0.8167896146833974
0.4818821393808887
0.26243364675420194
0.17194466847901535
0.1366939290847039
0.1262902512723699
0.1284240333535614
0.1530524493371227
0.23330904277154318
0.3076760148224847
0.3451191452938826
0.3460885809149486
0.29609989700694384
0.1931825781124909
0.010707565851484746
-0.07664337287484049
0.15637637718928887
0.08398568245084971
0.10235854157163267
0.19149530183911992
0.33562797343581824
0.4055776614889545
0.3599136032155852
0.25451364194011455
0.15361842251504493
0.07280094827525585
0.022328067227268142
0.006365730042000507
-0.004592887894295611
-0.010796968733013746
-0.05383889890884865
-0.08925890284302081
-0.06860255712147798
-0.06384639495573981
-0.07180277705497
-0.09046247517762022
-0.1416733502059102
-0.2705117542504703
-0.7703298582093944
-0.9967792720777613
-0.50750847198698
-0.21815391923568062
-0.13866022746324635
-0.10894204322318904
-0.09788626124156584
-0.09258184199251412
-0.08346224610803465
-0.0644841848900302
-0.044272559683368504
-0.035111748308400366
-0.04002125239802743
-0.05477180493459532
-0.05829569190804523
-0.04353834008980405
-0.010201042153881401
0.041179047261251545
0.11265368247837203
0.21345764284352334
0.3379991040995323
0.4206382859939571
0.38205847383443636
0.5757296094569786
0.6098797911737381
0.31769825087075987
0.15898818069573914
0.08096662024345233
0.044582067869513096
0.028702264624564964
0.021792096577395923
0.019326054188300457
0.017951852322728435
0.013179661659460717
-0.010134547897966282
-0.05906599512273876
-0.0978273400234696
-0.10851141673882457
-0.09725530818490943
-0.06576349340193675
-0.016834278728929827
0.04042684249998145
0.09615572147716102
0.14150993554993885
0.16957580454931026
0.18777119565827285
0.2097783517142848
0.2644585891136627
0.42017316209183697
0.7526639202405793
0.8655835018850908
0.5534176080881416
0.26483281130849023
0.12513686328495205
0.05104100877655372
0.003355781389227548
-0.029951299536764807
-0.05572727019435476
-0.07249970789309267
-0.07654713014222678
-0.069854746638799
-0.05078982490729931
-0.02873009974898615
-0.009110710082679916
0.004849412107575286
0.009937728336151471
0.008317990352249543
0.008800069607137716
0.004223081875563957
0.0021088159354032882
-0.010946541498257313
-0.04897834882792935
-0.11785107418816898
-0.3501229712637014
-0.9939881891688072
-0.7680355281461407
0.0
SCALARS Distance_to_V float 1
LOOKUP_TABLE default
0.0
0.5002695383011945
1.022604075700262
1.562980683448869
2.1159434098172136
2.6753891839018045
3.2349003607279285
3.7880500649412214
4.328831413370025
4.852252411754132
5.355006386455552
5.835833434531529
6.295214000501166
6.735289436811332
7.161044513515125
7.578161781199668
7.991057928228141
8.401989377314385
8.810732637588181
9.216021401984607
9.615536716531356
10.002971944504646
10.37888856758823
10.744043918179843
11.098722588876747
11.443768701917103
11.779389186432494
12.103337976605294
12.410579172311403
12.693504164003452
12.94251275063084
13.14665766915946
13.294890634994783
13.37800718824916
13.391467236881997
13.337134388225602
13.221864482596924
13.05331677709055
12.839719633922233
12.590271099659635
12.314777629689956
12.0229638878965
11.723604081114773
11.424970924299114
11.135080413264312
10.860505259656989
10.606518117920528
10.377659756033207
10.177963143175962
10.010957333102356
9.879670003162099
9.786283948822275
9.73155303937736
9.714480886526117
9.732739678798476
9.78335870310309
9.863231300204006
9.969392994595957
10.098953766455601
10.24901631833321
10.416488661323992
10.597890335669867
10.78937150963078
10.986792727763161
11.185869066217169
11.38249774427384
11.573482361283352
11.755696514677076
11.923959767334482
12.07255930151201
12.19581197938817
12.288126132659448
12.344158917651555
12.359150729858033
12.329270852593753
12.251932841656036
12.126009348957218
11.951633049061908
11.730170655292309
11.464326522599062
11.157716162212601
10.814246390314008
10.437644068584063
10.03132647904266
9.598375501622074
9.141652300714432
8.66390836750314
8.16785626514896
7.6562474934806914
7.132067693994333
6.598584129006079
6.059550276065547
5.51914808634602
4.982060706263038
4.453574297926893
3.9398207356918715
3.448224277423031
2.988190369259844
2.5717510302852866
2.2140343940743965
1.9322930915931793
1.7415664374406483
1.6461805216395857
1.6328324976456212
1.6739077126867523
1.738777586024121
1.8022575589337664
1.8468086829563684
1.8614678563904805
1.8401042815168065
1.7801243055709541
1.6815519783717674
1.546473089666833
1.378400593512821
1.1819926426174532
0.9629705656692882
0.7280812937838986
0.48450482237746134
0.23944580358232895
0.0
SCALARS Local_Extrema int 1
LOOKUP_TABLE default
0
0
0
0
0
0
0
0
0
0
0
0
0
0
0
0
0
0
0
0
0
0
0
0
0
0
0
0
0
0
0
0
0
0
1
0
0
0
0
0
0
0
0
0
0
0
0
0
0
0
0
0
0
-1
0
0
0
0
0
0
0
0
0
0
0
0
0
0
0
0
0
0
0
1
0
0
0
0
0
0
0
0
0
0
0
0
0
0
0
0
0
0
0
0
0
0
0
0
0
0
0
0
0
-1
0
0
0
0
1
0
0
0
0
0
0
0
0
0
0
0
