# vtk DataFile Version 3.0
Curve with Curvature, Torsion, Distance to V, and Extrema
ASCII
DATASET POLYDATA
POINTS 74 float
0.0 0.0 0.0
-0.3429247674835927 -0.551984183492328 0.15863800562171537
-0.7996297808542843 -1.2428632704566844 0.3768495506459191
-1.3159870309675061 -1.9874832360818022 0.5778005925299796
-1.8448696848604995 -2.7209769234116408 0.6975779693446871
-2.3400206667941643 -3.3902609396064456 0.6816658786308292
-2.768973680919103 -3.9684479664470302 0.5030998421899691
-3.1135485950511437 -4.475005917010426 0.15185423901929962
-3.355648049730896 -4.949899441713244 -0.34311364267164546
-3.482519734951332 -5.445193720383443 -0.9298374412242767
-3.49922235833396 -5.9919841200495 -1.5460479736943817
-3.411679382552354 -6.592522201809583 -2.154229425016455
-3.2319804984386784 -7.236673766350415 -2.744686841215967
-2.960902528766454 -7.913086628827227 -3.332789738825496
-2.6072537012019548 -8.591390570276694 -3.895438897352782
-2.196799443950543 -9.237804523591652 -4.381156091086756
-1.7657485684140561 -9.825839753296837 -4.745459623293416
-1.3477402279500867 -10.343066763393459 -4.956866418707173
-0.9786657554502942 -10.793138376254223 -4.978351132766487
-0.7004499410019718 -11.173605672420347 -4.78692124265971
-0.5212434093466789 -11.504867546085315 -4.344755819102812
-0.4683310483408589 -11.76198583526605 -3.6117874056036703
-0.5465432931150027 -11.915506244849777 -2.6527024454617774
-0.7207096906007027 -11.961071684971607 -1.6326308176333058
-0.9123498380428443 -11.93263881255295 -0.7421258884305928
-1.0673035253321843 -11.87846059288734 -0.019962420154359783
-1.169235898782246 -11.829628061272686 0.5799387519333337
-1.2163271307257548 -11.80985886608592 1.1129134838683976
-1.215097157388263 -11.845038599633012 1.6208133207009516
-1.1764513098860028 -11.96319995981474 2.120841415431534
-1.1165265383511902 -12.183515060426673 2.608050693552008
-1.0551557024765894 -12.517333731656858 3.0770236272068785
-1.0072399138325703 -12.975058942092275 3.5262200956971808
-0.9735670573138564 -13.565488472116865 3.9605275397686746
-0.9410326178918322 -14.287701897270255 4.375762996746323
-0.8930112761032398 -15.094677744363391 4.751516811304837
-0.8104746480418723 -15.923086598810341 5.078695801763037
-0.6742972128205129 -16.73402534278263 5.362607688000443
-0.46700656906736215 -17.509504682455777 5.608683712162894
-0.17576101286586887 -18.23648988320683 5.812450032486476
0.19602250508508812 -18.902970838421812 5.952032167682474
0.610563113493956 -19.477842733441676 6.028883129996107
1.082888135903092 -19.9727033732221 6.09152795393649
1.6325285718856537 -20.395418950257888 6.1630718919277205
2.262793715804481 -20.73462009591135 6.262739684816689
2.96438824351356 -20.972385641026463 6.408875394315524
3.717787845360807 -21.098267721278724 6.61742066582492
4.503305235619428 -21.114599076706778 6.904979424955573
5.3093562235987575 -21.022612967660276 7.2773843299271475
6.117261936529022 -20.8343430700899 7.70420171778281
6.908580997308673 -20.57581611512127 8.148573547483837
7.674448588132507 -20.272023752713956 8.586112280146315
8.415932342962634 -19.94604052318904 9.008709213212779
9.14060410476338 -19.620319886896823 9.423065746627483
9.854420309165242 -19.315534075898867 9.845697932740896
10.557003417589925 -19.05075088306088 10.293986729997261
11.246141549657851 -18.84374493338474 10.779640446287868
11.92179882224775 -18.712849666404107 11.305604239749183
12.580994168963466 -18.677112881349434 11.862951412228469
13.209430307670837 -18.752618410613977 12.429194277717887
13.781885153889945 -18.947449372938888 12.974106659774678
14.271957008972446 -19.26168383176213 13.47336440812376
14.655218491892581 -19.692167834002962 13.919139789880575
14.905887590831645 -20.234138838379838 14.318302954281698
15.002291469835674 -20.87729444772591 14.679944921391897
14.949265294111244 -21.603018664531092 15.009030338497631
14.783424185139843 -22.385421781573047 15.31229270383124
14.563564163058661 -23.186992738831876 15.597933719904919
14.354593769414915 -23.96537483132532 15.875147231973006
14.203329160439822 -24.68835225110218 16.153757049394766
14.12140492786763 -25.351566182098704 16.44418571718723
14.085333270459056 -25.98723507939492 16.764678413469284
14.05352236946251 -26.629314612415616 17.13580558216761
13.981857268584854 -27.275628315604912 17.56184031469863
LINES 1 75
74 0 1 2 3 4 5 6 7 8 9 10 11 12 13 14 15 16 17 18 19 20 21 22 23 24 25 26 27 28 29 30 31 32 33 34 35 36 37 38 39 40 41 42 43 44 45 46 47 48 49 50 51 52 53 54 55 56 57 58 59 60 61 62 63 64 65 66 67 68 69 70 71 72 73
POINT_DATA 74
SCALARS Curvature float 1
LOOKUP_TABLE default
0.0
0.029925486648096942
0.044611753251212874
0.09818355490267539
0.195721521065002
0.3240950710123109
0.38937212670742427
0.31764332604597284
0.2185288557748602
0.1647469791029932
0.1473980918689816
0.12019882749563592
0.09556747510595423
0.09369107016309022
0.11295961516573509
0.1584201776523139
0.26295668518544935
0.500983888360306
0.7307211665625869
0.611550730812853
0.34673108895619686
0.1863987009818747
0.12934089994230194
0.10740474871089566
0.0696897713635394
0.0861548397563651
0.19098556803229422
0.2794626508912491
0.3274518851862241
0.33215897950818984
0.2983426894886535
0.2432689524723258
0.1702203407120103
0.11797672081936009
0.09111047604108082
0.07870838471646238
0.0890939187340499
0.11859948626098778
0.15603959492297784
0.19167214315512943
0.20389039171852633
0.20442335339575984
0.21192617491598992
0.21525604475661905
0.21603017921208598
0.20383227213094565
0.18002472816912046
0.15307239220696425
0.1151026518084438
0.08183426195409306
0.059147005152060186
0.03705528378590955
0.008288017339790697
0.028039555913530537
0.06291652654540918
0.09264230835265592
0.11562354691492704
0.1351107142703732
0.15884909028700256
0.19537676909158258
0.247019851048947
0.30191836506762326
0.3336788712131953
0.3168706840054628
0.24336912416822915
0.15126672474936007
0.0702874560630145
0.006209638932174244
0.0823111768755898
0.13518992210075728
0.11732208406753206
0.07429235064395882
0.09377607761968382
0.0
SCALARS Torsion float 1
LOOKUP_TABLE default
0.0
0.0
0.5463773231142013
0.1464103482710224
0.0879488614296322
0.07471443866231585
0.17019374322162045
0.3642995938556801
0.603272361887472
0.6009124683578074
0.2786832635922984
0.04961539344697666
-0.2247839201893884
-0.03776104235178543
0.1996152422833295
0.24709804893548867
0.2474871949894783
0.2773037998918523
0.22395402489404448
0.0901753544581364
-0.010748799280743376
-0.023289064851476665
-0.025078339902098366
-0.2188558332601295
-0.9221658187176326
-0.9578289475439365
-0.5750568331275099
-0.482565333461064
-0.4224776923895812
-0.3494434527500795
-0.31489700925615527
-0.2019264411700741
-0.014154896329504257
0.1923913791655921
0.28980947646106886
0.46974884283935536
0.4418963400847783
0.22826088255223095
0.04535488275131133
-0.16431903525279792
-0.01683505172618152
0.600045839871609
0.2736906974752283
0.19826423864493148
0.1620573012042384
0.15802338225516696
0.19178024709784766
0.0787097487137081
-0.1421303294123597
-0.23981757829016281
-0.2909652805476982
-0.2812307060179685
0.7916202123607546
0.24195660461103552
-0.0036058895040803063
0.016503412759470266
0.08430290934442097
0.12451941073484145
0.1140749018721769
0.06986596073168357
0.007868279127525288
-0.0827298632948429
-0.1607739885158237
-0.15431494669744003
-0.07600988960227059
-0.01742022406116151
0.04710994658861172
0.9999949076424034
0.04994394164514793
0.08185123145693636
0.34786561201980076
0.8618682251350422
0.5984532792384961
0.0
SCALARS Distance_to_V float 1
LOOKUP_TABLE default
0.0
0.5577086241670258
1.2792165929317174
2.0792387163194173
2.888587296050202
3.648511196117242
4.3299022830901235
4.945723209069168
5.521079788360255
6.087318544044873
6.665068077857351
7.2538470901897965
7.853781752198937
8.46910558095261
9.0747609680557
9.626456196795615
10.083399426528526
10.41543696786764
10.597064983825133
10.61172848240588
10.44221893084316
10.05917884771517
9.516275421979207
8.945151373686794
8.473578782128316
8.115497619801605
7.833925174996411
7.597618090606978
7.396853742470442
7.242414087205839
7.154007786346024
7.14976911286209
7.242943372105901
7.433860690634298
7.709534404843112
8.032716069551775
8.353494399101182
8.633598898008113
8.848943235494279
8.98560182189111
9.049547204989409
9.055915252130616
8.988335455840238
8.832174127444093
8.573730602807466
8.202557933616808
7.717834056389444
7.123372441355956
6.420928275818866
5.643736806173162
4.841662997049686
4.058150641816171
3.3310018282701623
2.703174957731944
2.237780822836292
2.0175061727659718
2.084799412681407
2.3816868276715724
2.7994788598791724
3.2405741250323152
3.6297949048903413
3.9144722754166463
4.058785857545825
4.035443509970801
3.828083159489754
3.449388345684454
2.9442288319554035
2.3829267614662704
1.843629879989398
1.3832001797000395
1.0130764285395006
0.6951314171092716
0.3722787135840214
0.0
SCALARS Local_Extrema int 1
LOOKUP_TABLE default
0
0
0
0
0
0
0
0
0
0
0
0
0
0
0
0
0
0
0
1
0
0
0
0
0
0
0
0
0
0
0
-1
0
0
0
0
0
0
0
0
0
1
0
0
0
0
0
0
0
0
0
0
0
0
0
-1
0
0
0
0
0
0
1
0
0
0
0
0
0
0
0
0
0
0
