# vtk DataFile Version 3.0
Curve with Curvature, Torsion, Distance to V, and Extrema
ASCII
DATASET POLYDATA
POINTS 74 float
0.0 0.0 0.0
-0.3569537635215405 -0.5744779133781215 0.1598364364673479
-0.832524403259272 -1.290965400483353 0.3872429695738999
-1.3701271769380585 -2.0622443788823457 0.6005189607896018
-1.9200978457642282 -2.8216280557463698 0.7296913810626133
-2.4342065089779683 -3.5148456487178112 0.715749802239122
-2.880185114737414 -4.115761525661256 0.5288038002276414
-3.2400208767399348 -4.645689640375698 0.15359647174029512
-3.4929298990646767 -5.143624786700407 -0.3795655162131055
-3.6256620264930883 -5.662832768664309 -1.011451318574803
-3.6429592420542645 -6.233131654153855 -1.6719734731363483
-3.5514015497573266 -6.855092263339056 -2.31986822585918
-3.3640988316775178 -7.518394766736231 -2.9447644062324834
-3.081708872780873 -8.213161406747844 -3.564737944433271
-2.713568494467674 -8.908590561748568 -4.156373211162431
-2.2856155591928284 -9.570981501754915 -4.666722791116858
-1.834927576529147 -10.173931791891443 -5.0519861949946625
-1.3967307080386706 -10.704985946517082 -5.282931410014215
-1.008398666588397 -11.168739223855315 -5.323532256630618
-0.7158862833100454 -11.561606642904163 -5.150333605300429
-0.5282803954858966 -11.903307603970593 -4.7289112416447905
-0.46941031389126797 -12.17155552728283 -4.021293292967862
-0.5427863793456589 -12.338806846532304 -3.084719913723597
-0.7172485519325691 -12.39630455060866 -2.075124385216541
-0.9165046782241135 -12.371709905789901 -1.180686377462293
-1.085054325561798 -12.309946175104802 -0.4450742453720675
-1.2037165295115364 -12.241774418819366 0.1716538994943413
-1.267498766896812 -12.193281081576327 0.7185725676210479
-1.281991027426971 -12.192624518239043 1.23608237258372
-1.2583242341687977 -12.268306537881202 1.7424097932231715
-1.2127361296925474 -12.438768676803909 2.2344082899060593
-1.164765955075898 -12.714513381055468 2.7102068010393157
-1.1280258232012463 -13.108059819899584 3.172832057823932
-1.101642956977218 -13.634259044883649 3.630309945027472
-1.0714352908110496 -14.299612557248102 4.077130439622902
-1.0209144415198588 -15.062541826606363 4.486823633463063
-0.932170426926286 -15.862257066932756 4.843118465087268
-0.7881567725552947 -16.659570740907085 5.1454119861215855
-0.5737702226215702 -17.433677917183054 5.396673131502073
-0.2773751850077839 -18.168678788989144 5.592799928724137
0.09662302812898504 -18.8509170677409 5.7124261153931455
0.5062190766864685 -19.44414961136136 5.761190609883658
0.9660865599393063 -19.95747981133808 5.795917055404291
1.4956189406536828 -20.398747030842152 5.84352389176936
2.0977085845203978 -20.757111017069597 5.924963984580587
2.7643468349126006 -21.016052541400107 6.058815228301008
3.479594075310776 -21.166398557375313 6.260345433182735
4.228552577681322 -21.21038151417428 6.545679645632638
5.003826632284498 -21.147127868015666 6.91998046507305
5.788667591651284 -20.98670587417833 7.349906833891069
6.565633332208611 -20.75417658510242 7.7965459250202045
7.326841281422418 -20.47299160990204 8.235609657525046
8.073827302822616 -20.164142419238868 8.660295849878954
8.813465715063021 -19.848468924698366 9.078669055590158
9.549610834995432 -19.54661643918461 9.508073895810634
10.279310648040129 -19.27935868225876 9.966207549155815
10.998384854114667 -19.06707286464519 10.464775790052036
11.705711673721867 -18.93060131506125 11.006459127006904
12.397723222847025 -18.8907264967606 11.581641296095242
13.05929076745106 -18.964275476384866 12.166480202867382
13.66379066661553 -19.159191550029796 12.728968231522177
14.183208860359526 -19.474653195072715 13.243322773733887
14.591729292673925 -19.90575284810437 13.701063975469793
14.863343938891056 -20.445074064668486 14.109187319820759
14.978302584520623 -21.080058879149945 14.4775609679748
14.944446445720395 -21.79201553029654 14.812374813897407
14.799975023414174 -22.557118026742778 15.121524107286902
14.602652637843594 -23.34154918943834 15.414085690725841
14.41444330506055 -24.107432144436526 15.699767567468662
14.279890417048698 -24.826051347649006 15.988586309552446
14.21051858771858 -25.494234762691647 16.29138116869656
14.18397390968053 -26.14287146280897 16.627167686705256
14.159039901687033 -26.80454479096317 17.017834853129933
14.090563261352946 -27.475898310295094 17.46934855487137
LINES 1 75
74 0 1 2 3 4 5 6 7 8 9 10 11 12 13 14 15 16 17 18 19 20 21 22 23 24 25 26 27 28 29 30 31 32 33 34 35 36 37 38 39 40 41 42 43 44 45 46 47 48 49 50 51 52 53 54 55 56 57 58 59 60 61 62 63 64 65 66 67 68 69 70 71 72 73
POINT_DATA 74
SCALARS Curvature float 1
LOOKUP_TABLE default
0.0
0.03452803497160056
0.03994041276629585
0.09428525641931051
0.19179367516767076
0.31749262848068316
0.37748421652507785
0.30207615976967606
0.20229990322235217
0.1539202144590615
0.14039338688354372
0.11669754613845836
0.093328002115695
0.0915455937823682
0.11092784244864275
0.15252073932771643
0.24379665529652061
0.46345515395194603
0.7147783638954343
0.636413544487873
0.3716590438445334
0.19672599632218685
0.13587536718975535
0.11630136928211818
0.08791656675519281
0.08303216654608828
0.15645654742858503
0.24859910476446903
0.316380399568797
0.33894656202747914
0.31456717315597926
0.26228253174371463
0.1867293151344786
0.13355636673898327
0.10662627223505826
0.09478861043698414
0.1017942521844372
0.12362503626198297
0.15568476002628712
0.19023034534862585
0.19721083896675504
0.1901125579799123
0.20790088129093487
0.22286032272250222
0.23224757075025806
0.2226792998093038
0.19619781087745494
0.16394764434940176
0.12012118502700812
0.08358555085802252
0.060623826291561184
0.03964951235732312
0.012030391511670995
0.021880683949444885
0.05575531548314608
0.08497630427609125
0.1077219616773181
0.12657263776702948
0.14871382462493044
0.18287788050486695
0.23271002220255912
0.28942832638245747
0.32884775551943074
0.32139114913610434
0.2514293100008338
0.156961772471546
0.07216577988714894
0.006313114090825064
0.08069506189698912
0.12769135857724195
0.10697530094006495
0.06880536819351013
0.0910177775864152
0.0
SCALARS Torsion float 1
LOOKUP_TABLE default
0.0
0.0
0.6362403712529587
0.15725827340578513
0.0863047003187018
0.06877233614791212
0.154205113928859
0.3332974367268286
0.5843430041376068
0.5797357996623279
0.2629504682587922
0.05102561334696537
-0.21376869615313832
-0.03982234922816502
0.18606108130610283
0.22756997921727753
0.2400163862470716
0.2830406852451295
0.2323809321682123
0.09127737542893524
-0.016635656279440983
-0.026403045978342927
-0.021695323639101326
-0.1957772411320328
-0.776469083890426
-0.9684659846709062
-0.7551149180803218
-0.577553590469062
-0.4644272496962585
-0.37663414016190194
-0.3446235321415917
-0.2098802750631444
0.012583985502015477
0.2008357152053742
0.25457512502313856
0.3783914016931362
0.36191654124800565
0.2292120985101684
0.0824690427871409
-0.13934224211486346
-0.025331282812360745
0.7095607402961125
0.33829401968708883
0.21455460054141273
0.1579835215879488
0.14820824715216996
0.1810136340108864
0.05506381049319842
-0.1853959681441583
-0.2948919816130753
-0.3361706954321564
-0.31160139657825786
-0.08891664811203137
0.2831960099349499
0.006622544103258021
0.0293907976214359
0.09163780515017948
0.12638063818404124
0.11516946648847778
0.0718646205390524
0.0089854050658036
-0.08384998535890574
-0.16331126469037818
-0.1566798784130411
-0.07625235959095132
-0.01535522598686883
0.0486303779552238
0.9999842632165068
0.046101189692505984
0.08175492177206294
0.36479137168812353
0.8556524177175219
0.5348118732801859
0.0
SCALARS Distance_to_V float 1
LOOKUP_TABLE default
0.0
0.5806749054933071
1.3305399322163678
2.1614464102959774
3.0009146735911822
3.7880267147970224
4.495146825734268
5.1388145393240325
5.744260280588895
6.343926637316152
6.9555399111144975
7.575620680362203
8.203312160482222
8.844528278948452
9.473720092104404
10.045402812173819
10.519302419966769
10.867096769612372
11.064549864151816
11.094492872226185
10.940940918285534
10.575086756032762
10.043990266171098
9.471117675034614
8.983998691912621
8.601984099501143
8.292268723600994
8.026651593259421
7.796009236409908
7.610531390884886
7.488943896671252
7.447661800813549
7.499188313944615
7.645602423251647
7.87788912800874
8.162956337134155
8.45380861148501
8.714269269629781
8.920958619180754
9.059552049997778
9.13658767121135
9.166981005822587
9.130332380145395
9.010024558860154
8.791122640698063
8.461655506634983
8.018312205034178
7.461307552402695
6.788625254322916
6.0324383228015375
5.241777676639711
4.456594746005509
3.7081747037494175
3.0295606377318602
2.470996180362723
2.1118055967002154
2.031796969572947
2.2289592709324166
2.6037953549435593
3.0377429852601936
3.437123382568178
3.7386102262220846
3.9011282439716712
3.89601693999114
3.7085088023728643
3.3535280440782547
2.8762058151325895
2.3440969216464076
1.830449445796036
1.3881469226281602
1.0276198545540354
0.7119878359864363
0.38463606852496934
0.0
SCALARS Local_Extrema int 1
LOOKUP_TABLE default
0
0
0
0
0
0
0
0
0
0
0
0
0
0
0
0
0
0
0
1
0
0
0
0
0
0
0
0
0
0
0
-1
0
0
0
0
0
0
0
0
0
1
0
0
0
0
0
0
0
0
0
0
0
0
0
0
-1
0
0
0
0
0
1
0
0
0
0
0
0
0
0
0
0
0
