# vtk DataFile Version 3.0
Curve with Curvature, Torsion, Distance to V, and Extrema
ASCII
DATASET POLYDATA
POINTS 74 float
0.0 0.0 0.0
-0.39882869658446163 -0.6416345093758995 0.1637982223413168
-0.930179097287628 -1.4312196339740684 0.42173722554771764
-1.5303982142932768 -2.277381558698311 0.6767447121056032
-2.142158968799244 -3.1095775042387928 0.8391123380536012
-2.711468052075402 -3.871295524558633 0.8353299539505445
-3.2075846366196132 -4.540166759221156 0.6258322332697475
-3.613742758353658 -5.144561375791094 0.17625067235316738
-3.89979719086934 -5.718574395653416 -0.48021280929880295
-4.050781764721618 -6.317168436677045 -1.25845645412159
-4.070257562300405 -6.964473410180943 -2.0613265554918287
-3.9668845289637065 -7.655001618511453 -2.8350503954229715
-3.7570859569594686 -8.37781074860947 -3.5669985773455126
-3.4411679323263678 -9.128390416393259 -4.2846084154781146
-3.030171358941614 -9.874912071694732 -4.964073674967928
-2.5501494394800406 -10.584226321368597 -5.548500730734975
-2.040237497918699 -11.230983344654916 -5.997713604293617
-1.5398074161313864 -11.803959457775402 -6.291379300266513
-1.0892327107834672 -12.312990312169006 -6.3970965514348315
-0.7479716927172944 -12.751276102498718 -6.2840468272164305
-0.5335108452059543 -13.128382014798607 -5.925915259205912
-0.45675369580159275 -13.429433829592961 -5.299646159114131
-0.5140233345570611 -13.637076211558119 -4.441215301649256
-0.6867544506088454 -13.730445867087097 -3.4760299783882704
-0.9076766910735397 -13.716937439064829 -2.581231458296579
-1.1193316956706227 -13.628657688320605 -1.8135572928609518
-1.294676625505487 -13.492656287675432 -1.1507453406245327
-1.4172177952903202 -13.342823660423068 -0.562135892465732
-1.4869545380335496 -13.218031231172894 -0.010895158148498396
-1.5137399316446225 -13.15332356310215 0.5236631597175458
-1.513773706988467 -13.168953134565898 1.0411564587621438
-1.506924477149283 -13.27325817020416 1.5474140609517506
-1.5044372106463642 -13.481201764622025 2.056431513474498
-1.501200337487091 -13.818639007481243 2.585159796824267
-1.4795072539693286 -14.309478734724621 3.125724832324176
-1.4228569248690452 -14.928849802219588 3.6355976752147505
-1.3167239301796916 -15.626310104264043 4.077952459604763
-1.1508462628162248 -16.36555176778979 4.434189939000781
-0.9177700800815685 -17.121822641698706 4.699340491418469
-0.609157105040794 -17.874426536094298 4.869927288572529
-0.23107769164393588 -18.60781338711393 4.925016825784953
0.1621735396505808 -19.269043646316767 4.882815792012827
0.5835690479218223 -19.852451188392514 4.828923125112043
1.051719225691063 -20.361198231310027 4.803747629000061
1.5679257159168591 -20.783879479188677 4.833017209122263
2.1276139310959925 -21.108433288492428 4.933911311445405
2.7252977096933884 -21.331609830093235 5.117758639736473
3.360330341953031 -21.457730513158825 5.39875896484639
4.037313453301361 -21.481128131669575 5.780183154242138
4.7453320621575035 -21.40648427799716 6.219801154985314
5.470866178892015 -21.256012738354578 6.672602262837163
6.210061904466144 -21.04831002828727 7.1148368054716
6.966863936653093 -20.797458484434365 7.543732911664625
7.746638276534048 -20.51829396092332 7.971383363694718
8.546847717851648 -20.2300680470708 8.417595077280632
9.35639708530514 -19.95789218982528 8.901200564256996
10.164854552038927 -19.72994982063922 9.434239120132563
10.967636268828429 -19.57501335143001 10.018935758318769
11.759344543023 -19.519403048931103 10.643808017826956
12.522345490121046 -19.58228826024744 11.28097255909702
13.225754789001842 -19.771229193076827 11.893042602776436
13.836485623920476 -20.082811802352968 12.449898825645551
14.32396576535485 -20.50700867587951 12.941075510890744
14.660842936278833 -21.0283459887389 13.373555609180316
14.833261904920066 -21.62706909449011 13.758960012699962
14.85906620487932 -22.284048224417994 14.107053536580855
14.781822022615529 -22.9821136810809 14.429648127661022
14.656065737293678 -23.699491458383747 14.739091608832151
14.534555003383526 -24.412855253089106 15.047337216530105
14.45467409224412 -25.10505291399024 15.36552071404914
14.427290641593592 -25.77715395084048 15.70591641315541
14.433174365645943 -26.455868989741553 16.089640984663134
14.432282390745089 -27.16918483111092 16.542613592534618
14.37642678840804 -27.91002511527578 17.07659367349618
LINES 1 75
74 0 1 2 3 4 5 6 7 8 9 10 11 12 13 14 15 16 17 18 19 20 21 22 23 24 25 26 27 28 29 30 31 32 33 34 35 36 37 38 39 40 41 42 43 44 45 46 47 48 49 50 51 52 53 54 55 56 57 58 59 60 61 62 63 64 65 66 67 68 69 70 71 72 73
POINT_DATA 74
SCALARS Curvature float 1
LOOKUP_TABLE default
0.0
0.049284727911105435
0.02899498481121252
0.08442815273690796
0.18224714375630732
0.300140511714653
0.34278223053402135
0.2588412435342883
0.16084360211481086
0.1255728989085723
0.12099399179715441
0.10658619092066558
0.08712179899671747
0.08574251325367713
0.10551957358361626
0.13687036188781077
0.19252012502394356
0.3507182810408294
0.6382930704216423
0.7003207067344412
0.4619060487949122
0.23654699470615106
0.16086536124245576
0.14618781528840785
0.14163054218082888
0.13998131728678959
0.12862159283563315
0.15283612323655352
0.24003474477727066
0.3073265572520873
0.3225273894634839
0.3042829581751892
0.24538952025979455
0.19731976743012491
0.16750134472944814
0.15552304282141477
0.1587042205473446
0.16269462513108218
0.17335594571300184
0.19624115114070345
0.18624978171599635
0.1336670418271237
0.18466129128199102
0.24516745359752998
0.2921733283315999
0.29581125927685503
0.25761022034547243
0.20349575516311322
0.13947321161822462
0.09377602067069242
0.0718358118339018
0.053623250072729146
0.02806932233947238
0.006813154204437868
0.037023592673788595
0.06509555779811019
0.08734340072999798
0.10465775639090158
0.12271335470893238
0.15047288091135952
0.19434186014391455
0.2535834868301037
0.31330636551843954
0.3362034790970307
0.2804988771495733
0.17842102584177263
0.07961958971787718
0.005796161251734461
0.07426346710814447
0.10455952554575645
0.07839595870969829
0.056617358766608235
0.08446634258836735
0.0
SCALARS Torsion float 1
LOOKUP_TABLE default
0.0
0.0
0.8708095920799775
0.18876860664522033
0.08203532926417618
0.054229811609680136
0.11643642344893165
0.254046843279501
0.5260510963384288
0.5177670199073414
0.22050493567699314
0.0535513618076735
-0.18224408852653612
-0.04372367104533456
0.1524571656313732
0.17544940979341792
0.21610792189384226
0.3050795224811775
0.25089250723054285
0.08454854491357633
-0.034649431300202455
-0.037365211619630384
-0.01437762561598531
-0.1489904453290511
-0.41316773167082627
-0.6232444113875292
-0.8924499951779872
-0.9039213602225667
-0.6412941284625543
-0.45687848286229926
-0.41560318554537135
-0.20578607984032107
0.07953182151704277
0.1772203133116454
0.1627470186345626
0.20281122289062387
0.1579347145036085
0.1397115858463752
0.12374846883150134
-0.07798427654623555
-0.12946552904467976
0.9369298243248958
0.5157481483204613
0.23455357503004537
0.1263702140129895
0.10604612620089722
0.13760140771263765
-0.027123460512273406
-0.3250778359942754
-0.4595245609780032
-0.40909678896848417
-0.25460617971498817
-0.07252770701734912
0.9987233525883976
0.1258172190564012
0.08516872857600714
0.116797458422473
0.13298612787824618
0.11952850937393711
0.07896857528766608
0.012815649614069474
-0.08859126402583296
-0.17404908111548714
-0.1672679768569118
-0.07892863225505091
-0.00921417951804819
0.04973789798556634
0.9998311307852612
0.03033770693904858
0.08387765046017222
0.44217687038925585
0.8076906385501781
0.3522014290603799
0.0
SCALARS Distance_to_V float 1
LOOKUP_TABLE default
0.0
0.6496933982552806
1.482695501641864
2.4036729311201386
3.3302898784435926
4.195240845593262
4.97680999667883
5.704733404910459
6.405040747654146
7.113037612257525
7.834962095167952
8.556013845554936
9.271388665532651
9.992863966388084
10.693732274020677
11.325141361930099
11.849913907583735
12.247757349175059
12.50011042998586
12.584151382805274
12.48290461315447
12.175631110206858
11.692747615979307
11.130746214292794
10.610450138114158
10.163669750061315
9.769337310443829
9.410304546862498
9.081005739611093
8.792143630524947
8.56221710305305
8.403462243728988
8.324980015267334
8.331126856714315
8.423542364017933
8.583310369787236
8.773972917341485
8.967090436190253
9.143225567107706
9.2883843737092
9.412194132277449
9.528261589112002
9.598409175852748
9.5958427206682
9.500303734157134
9.29673585303918
8.977642627537506
8.535332654517433
7.958627828848083
7.277664331808451
6.539519464206457
5.775301475072707
5.001538688037098
4.232074978347253
3.491692318778344
2.827409334858162
2.3173007209051444
2.0687876636921714
2.142425385884005
2.4507413486912757
2.8328148085795033
3.1658178782686184
3.3771746839361296
3.426599897182263
3.3013432010103587
3.0227712166331515
2.6365557427065696
2.2009683795091055
1.773297731764749
1.3933502713985817
1.0676610496764807
0.762650091157823
0.42308698960881963
0.0
SCALARS Local_Extrema int 1
LOOKUP_TABLE default
0
0
0
0
0
0
0
0
0
0
0
0
0
0
0
0
0
0
0
1
0
0
0
0
0
0
0
0
0
0
0
0
-1
0
0
0
0
0
0
0
0
0
1
0
0
0
0
0
0
0
0
0
0
0
0
0
0
-1
0
0
0
0
0
1
0
0
0
0
0
0
0
0
0
0
