# vtk DataFile Version 3.0
Curve with Curvature, Torsion, Distance to V, and Extrema
ASCII
DATASET POLYDATA
POINTS 74 float
0.0 0.0 0.0
-0.44762981102352084 -0.7282219965091894 0.16324623705501207
-1.0427370965487155 -1.6032768422707004 0.45881083770559794
-1.71412399691456 -2.5332891608415125 0.7694287053017472
-2.395092075168955 -3.4464981788245854 0.9776079814331557
-3.025127886131543 -4.2864545009220265 0.9898405093074385
-3.577991051953638 -5.03928937598225 0.7524503600876473
-4.0402796892716815 -5.74653904194675 0.1973298009254414
-4.366441665017479 -6.430848199694299 -0.6428315492297281
-4.5388477675773125 -7.144206897320144 -1.6396785586181233
-4.558968989815904 -7.899024473830201 -2.652809790918649
-4.438318774941365 -8.679949598185786 -3.6094703055326347
-4.19807820948 -9.475378314520341 -4.493289808015245
-3.8381038046578557 -10.289957512010448 -5.346560831037599
-3.372038611721202 -11.091627501558843 -6.14618382222264
-2.825149651057624 -11.849429395140023 -6.831201651935985
-2.237701105967927 -12.542216725338662 -7.370123083308676
-1.6523571141978493 -13.164603168059166 -7.759923111679858
-1.108499056951589 -13.740638359321535 -7.976305445929541
-0.6845547038106883 -14.262821175609542 -7.964841695574177
-0.42594810406298933 -14.705942002460608 -7.694906782056372
-0.32435016667803973 -15.057153774507432 -7.183471980089425
-0.35680551624631507 -15.3241258876688 -6.447999097119097
-0.520584269663757 -15.473966656262597 -5.570331414771593
-0.7655341012122268 -15.484061655649663 -4.704202498156186
-1.0376852044347054 -15.362415573182101 -3.9181701651665124
-1.3038228791028197 -15.122176632037407 -3.210009353740573
-1.5300375007228344 -14.80344043569847 -2.571586238138642
-1.7026595748079818 -14.463028779749461 -1.9675394410576912
-1.8232496831350793 -14.155717422207339 -1.3711259266505325
-1.9042439166462057 -13.917609671678214 -0.7802968868694826
-1.9669370728667546 -13.762197267317129 -0.18397200762326227
-2.020923371333119 -13.71025888274108 0.43515163770607046
-2.0553887666364337 -13.794550699057133 1.0921828781343672
-2.0480502789810946 -14.048920608049484 1.7691054596271314
-1.984353761110229 -14.461853430976161 2.4066233861711805
-1.8566462935457264 -14.99525511437352 2.948436139158452
-1.6655984393402448 -15.62158833267054 3.359207913257407
-1.4137979226594353 -16.322009372407845 3.628303300523464
-1.0952801751916201 -17.081633247116056 3.7521778338963534
-0.7155651772768681 -17.893137134233378 3.703638616086771
-0.34678784000478524 -18.681487546833957 3.5131791396618244
0.020455112107566453 -19.402683101507304 3.3176408834161704
0.4060672615803518 -20.040404826136605 3.1843778813678134
0.8111943813849161 -20.57490254962362 3.145922297603035
1.2352522524218152 -20.998490905719834 3.212079856849281
1.6836939823804948 -21.32032259590713 3.383138573524096
2.1712653331683205 -21.55435007141552 3.668747785306293
2.714871845073613 -21.692810736827102 4.068784002819804
3.31101031266759 -21.734915169062774 4.5275822857176955
3.9534994945538164 -21.700053010555994 4.992106585573323
4.646183903050858 -21.600730674231166 5.440007130477829
5.3985514831840735 -21.44114808008403 5.87392391829278
6.215688056351905 -21.225847024552444 6.310701294067691
7.0871061154506965 -20.96903220159926 6.772916680226629
7.990825006320376 -20.699322938755696 7.281067501085529
8.908072795880681 -20.454726557160633 7.84833797220363
9.829689995486888 -20.274954154452175 8.477142870418806
10.748014348422247 -20.193993021595496 9.154046890216833
11.642414356458952 -20.23402862932414 9.84602312578512
12.476687124260387 -20.40201387495767 10.508821602863954
13.21094068626018 -20.69145185984872 11.107120105007905
13.8071849976743 -21.086498920199737 11.628184108839477
14.234370782462014 -21.56209933194232 12.078359903871217
14.485535302974732 -22.08921633104188 12.470139220576847
14.592935339507546 -22.64766916883417 12.817371106781412
14.608527024015261 -23.229245534750927 13.137891580195205
14.58300113009115 -23.828897023813006 13.450054026958032
14.557275754543303 -24.443424513419593 13.770722268946407
14.559184343759053 -25.072283908926682 14.11408523226326
14.597743610824127 -25.72376617433157 14.494810206795329
14.656681031481353 -26.41967201899645 14.935967119048787
14.697552304730797 -27.181741094222403 15.468523194421731
14.668571720715162 -27.998127117732242 16.113518316070458
LINES 1 75
74 0 1 2 3 4 5 6 7 8 9 10 11 12 13 14 15 16 17 18 19 20 21 22 23 24 25 26 27 28 29 30 31 32 33 34 35 36 37 38 39 40 41 42 43 44 45 46 47 48 49 50 51 52 53 54 55 56 57 58 59 60 61 62 63 64 65 66 67 68 69 70 71 72 73
POINT_DATA 74
SCALARS Curvature float 1
LOOKUP_TABLE default
0.0
0.0682128378371461
0.0219153502911359
0.07513453042955025
0.17496103839479663
0.283467224476197
0.30129614365861584
0.2109032812096646
0.12023103619077857
0.09657105043543453
0.0992564958170216
0.09442439389989399
0.08016788059835261
0.07956418848306272
0.10012557368725894
0.12055231379054998
0.138562044263367
0.2201076567352828
0.48107975452280083
0.7360640536619064
0.6059257570654328
0.3157652447042801
0.21144116462125934
0.1970082977366576
0.20821560771482928
0.2147917735274587
0.1863739298733564
0.11568634709974555
0.11561264377217537
0.1715984860322676
0.21323517854036483
0.2647549475079703
0.2917428864835316
0.29261337622067174
0.2733091354923336
0.26988485672412554
0.2791765014193792
0.2605229637802368
0.22699591802574062
0.20986767270062218
0.17958743662481014
0.05021971406761294
0.1344521199205323
0.25877805954357097
0.37690164429793455
0.4163283962536375
0.35898197993415704
0.26799113580738054
0.1770611371665814
0.12384369881008386
0.10510699783799457
0.08465050618097629
0.05485617961602
0.02431133713165104
0.021091891033303133
0.04485571855213177
0.06658306330447457
0.08262105786332322
0.09665166719269597
0.11747544783359117
0.1530328356957544
0.20985410917778646
0.2887343738723646
0.35570711521846743
0.3304130590125603
0.21904046538485406
0.09492967252131235
0.0016419737741723839
0.05935004316191215
0.07070511851846877
0.04580179702276553
0.050117676287475585
0.07936995031412347
0.0
SCALARS Torsion float 1
LOOKUP_TABLE default
0.0
0.0
0.9752360885093491
0.23203679095697072
0.07830040638029637
0.04072098266290857
0.08323654391469833
0.1773867331105511
0.4515197293940387
0.44384055801313216
0.17480933584071429
0.05485269275578705
-0.14480827873166216
-0.045325848144019076
0.1212642337614816
0.1209127615637206
0.18115517361683148
0.35057097392787884
0.24890656204095532
0.05174566395214433
-0.05467592260528141
-0.05762851656995928
-0.0072250641852235065
-0.1094686800054079
-0.22078556133795085
-0.26777605332631416
-0.4573273038291401
-0.8970920504165099
-0.9007088711943392
-0.5585179069369008
-0.42258748866103274
-0.1546728757220242
0.07350607394267306
0.10203714681678086
0.08856553756619903
0.10044318440510529
0.031377972469486426
0.023896460674180914
0.07840115827081894
-0.04707067668098132
-0.255529382103555
0.9994837725426854
0.513746594874253
0.1346154129227609
0.03157369089092141
0.01759923395439117
0.04864399558245739
-0.15125126669396322
-0.49335061528217566
-0.5967255539088161
-0.37167309675865356
-0.09567628889727792
0.13064775215555033
0.7136600043681155
0.7472659837665241
0.2351630946786084
0.1628851580329105
0.14556826266520506
0.12887935751636195
0.0922873143148774
0.019947545902667937
-0.09895408334534571
-0.19802744726602714
-0.192054920993381
-0.0885742423573994
-0.00112682609156399
0.034664253235425886
-1.0
-0.018710919480142585
0.09812535570491096
0.6468273817953294
0.5883801146719007
0.15750398290594592
0.0
SCALARS Distance_to_V float 1
LOOKUP_TABLE default
0.0
0.7363831445087481
1.6677781505648277
2.6941477253254957
3.7210199875890435
4.673390585227187
5.540881116034966
6.376418785368638
7.208890510718973
8.076465005207837
8.962835242858652
9.832314254079
10.672291748798363
11.504202617093231
12.300765690793343
13.009404444969908
13.601072181358425
14.072783896306293
14.419516898963005
14.60262464477081
14.584342871253288
14.367173255033837
13.972249506471789
13.458538516959793
12.926313998079982
12.41484005609594
11.91398359992074
11.421325838679886
10.935890081515499
10.471598677808373
10.0537939802227
9.696546544571563
9.411563819717433
9.207384627696342
9.095888867144236
9.073426285309782
9.11644367807396
9.207329432966464
9.334552600847353
9.489120536002286
9.691776517688492
9.959099268696775
10.21365394668958
10.399140607267809
10.480460250365557
10.441189325495273
10.277823260500895
9.98135785778918
9.534781028920412
8.968164418027534
8.325773190999607
7.627285076708259
6.873106884655067
6.0617870010029655
5.206166868123144
4.337751410633043
3.5023736898833118
2.766858388431284
2.239183958144873
2.0425946467281704
2.164346139582064
2.4251384056411758
2.6541608837792996
2.758115260161973
2.710324772024957
2.5351886417917657
2.2767254671899146
1.9786734900098635
1.675522374986769
1.388411550351814
1.1170874636957635
0.831057161658484
0.4767670450883516
0.0
SCALARS Local_Extrema int 1
LOOKUP_TABLE default
0
0
0
0
0
0
0
0
0
0
0
0
0
0
0
0
0
0
0
1
0
0
0
0
0
0
0
0
0
0
0
0
0
0
0
-1
0
0
0
0
0
0
0
0
1
0
0
0
0
0
0
0
0
0
0
0
0
0
0
-1
0
0
0
1
0
0
0
0
0
0
0
0
0
0
