# vtk DataFile Version 3.0
Curve with Curvature, Torsion, Distance to V, and Extrema
ASCII
DATASET POLYDATA
POINTS 74 float
0.0 0.0 0.0
-0.4248514271626065 -0.6854063414519498 0.1651444186991653
-0.9903946472344334 -1.519468208837715 0.4434706386529714
-1.6288354042465425 -2.4098925844368235 0.7275607391179193
-2.277954784176295 -3.2850316112303304 0.9138028735413255
-2.880265760828091 -4.088034810864567 0.9186126205919818
-3.406918304582401 -4.800332645783508 0.695461696157492
-3.8426098040469068 -5.456372792460803 0.1943010171999795
-4.149882474629653 -6.0852241874555055 -0.5511672292011269
-4.312474953928608 -6.741100604616991 -1.4353526403217867
-4.3329651973501875 -7.442760964139525 -2.340361635354143
-4.2214398374679964 -8.179944807505208 -3.203203258473909
-3.996677024197962 -8.941316619591202 -4.009502334400253
-3.6587604350409277 -9.726709155665265 -4.793835644811751
-3.2199793366068503 -10.503970538943841 -5.532596782515834
-2.706121224798636 -11.240766016697624 -6.166693372196309
-2.1571383318706996 -11.91337461067296 -6.659748987554669
-1.6144332051258514 -12.51281549628802 -6.999288216959736
-1.1187281667443179 -13.054877155116412 -7.1563130459425475
-0.7390510233139143 -13.531572203332031 -7.090039378252688
-0.5042389236784617 -13.938144497752369 -6.7751124200258
-0.41539636314769934 -14.262583781116607 -6.205900754384619
-0.4607382019637294 -14.498421990824744 -5.406968632343637
-0.6299820700688521 -14.617992185681983 -4.481901020570038
-0.8637873065451829 -14.61402288561021 -3.597286579310145
-1.1054690690062463 -14.507580581254972 -2.8167418593394364
-1.3240159682956838 -14.320297106067036 -2.1286815475234517
-1.4942525587471858 -14.090381591162355 -1.5140092114064814
-1.6101571394340874 -13.865761612506592 -0.9370752227128198
-1.678507539798062 -13.690079977932022 -0.3748650675090359
-1.7143937952584745 -13.589517343891657 0.1730894566211223
-1.738481755691037 -13.57332310088846 0.715514046151744
-1.7613067150823323 -13.657602458323895 1.2697175315347047
-1.7752191125085925 -13.871166394359426 1.854718819413046
-1.7601508660549134 -14.244488818608739 2.4598817608205623
-1.6999474144004392 -14.761700895722903 3.03403044666422
-1.5829030327710658 -15.379788832249542 3.529091715130025
-1.4038693056747142 -16.06678123659722 3.916291231681543
-1.160588909717732 -16.799408465094842 4.18645045238587
-0.846328843015403 -17.55786977075595 4.33614973094264
-0.4672109087175462 -18.328870914377813 4.342731896817668
-0.08592864239628684 -19.048067022659026 4.231563302021537
0.3088928940446203 -19.693270331208268 4.111635334305478
0.7358575968792005 -20.259894672424583 4.035155690481637
1.195599748183603 -20.733613786547064 4.031014357388078
1.6855092684616553 -21.105011672429452 4.113471548960419
2.2061725554281604 -21.376548137831982 4.289247698795284
2.765475401489903 -21.556370713172832 4.570653180514149
3.3749091566786076 -21.637158590040002 4.959550708074358
4.027360949298647 -21.620585084349642 5.407375659632024
4.712716761664259 -21.527222252574738 5.865102542688144
5.430696548187004 -21.37246322424211 6.309558921541873
6.187717674862878 -21.165438895193873 6.740668921373418
6.988744223452466 -20.91609082002635 7.173010273874058
7.827113181291039 -20.641574788302794 7.627881258162973
8.68619413206066 -20.369093464231277 8.124960197581975
9.551300524761913 -20.131866457756356 8.676787748834581
10.415497326259716 -19.964135496774755 9.28559129520664
11.272192908122335 -19.896063877713217 9.938846838668606
12.102171357822836 -19.94838592834894 10.606056450602173
12.871794559101104 -20.12839886788103 11.246325669643227
13.544533768008947 -20.43109167099337 11.826804655178453
14.086230795521123 -20.843326730159934 12.335786867403996
14.467985227716001 -21.344543425157795 12.779970817000326
14.679652609301192 -21.910167808992675 13.17159911376784
14.746263588841899 -22.520600301881508 13.522610864044076
14.715423685906353 -23.163237265390187 13.847756513608605
14.639590125886242 -23.824731181664 14.162175427974368
14.565395685383157 -24.491901722481828 14.480019984124638
14.525362998779261 -25.155861293159585 14.813735696136792
14.52958528950092 -25.821070336835497 15.176729134951788
14.560532513660556 -26.511574463096164 15.591230596115807
14.578968426289906 -27.2521402760287 16.085762454616596
14.534827057587806 -28.033205437957072 16.67650975309506
LINES 1 75
74 0 1 2 3 4 5 6 7 8 9 10 11 12 13 14 15 16 17 18 19 20 21 22 23 24 25 26 27 28 29 30 31 32 33 34 35 36 37 38 39 40 41 42 43 44 45 46 47 48 49 50 51 52 53 54 55 56 57 58 59 60 61 62 63 64 65 66 67 68 69 70 71 72 73
POINT_DATA 74
SCALARS Curvature float 1
LOOKUP_TABLE default
0.0
0.058877551577389275
0.024327683344410572
0.079279903464949
0.17783342811046607
0.2908692613007534
0.321224273183099
0.2334431220498905
0.13868112313077094
0.10992482709148536
0.10953619168353523
0.10030082806975656
0.08345922865749916
0.0824378193023923
0.10256257069593917
0.12810529703578138
0.16357166927849476
0.2812016901975431
0.5650628340879109
0.7271226462553462
0.5327799054685484
0.2720524026123122
0.18323366524775955
0.16968837570178802
0.1755021743838083
0.18188810170238223
0.15872747441590226
0.1188971555106012
0.17176926425281766
0.24400022764114593
0.2801651858106394
0.30047090138438615
0.27941747193146105
0.248199416215231
0.21875244517421358
0.20786149173726692
0.21191563085983317
0.20554173696064557
0.19736245151482262
0.20405788713112574
0.18379695186705272
0.09030031527499185
0.1606428460430095
0.25560221528058386
0.33700044775862364
0.3558792807826324
0.3076316421626012
0.23493046860305553
0.15658293757613093
0.10613831261972263
0.08580624962298895
0.06751167923453935
0.040750172378845276
0.01248423993375181
0.027282779479836497
0.05416287101135285
0.07617377838443946
0.09275036631749968
0.10861263939350657
0.13268498289764333
0.1723929265748876
0.2311614410693539
0.301751631497564
0.346427879240018
0.3040672624081003
0.19694191544682824
0.0864170560801904
0.004315794752127719
0.06801904951575131
0.08823550861469483
0.061264815816356614
0.052017504316342646
0.08143789157303083
0.0
SCALARS Torsion float 1
LOOKUP_TABLE default
0.0
0.0
0.9493945652793333
0.20992799356957403
0.07987087984982374
0.04677930925394198
0.09788741470918891
0.2120111799340786
0.4878868165064815
0.4792752081847375
0.19619235129648843
0.054367558934521554
-0.16284689102869937
-0.04491437532438036
0.13517494983455203
0.14612611732336037
0.19905039560462934
0.32509336537485134
0.2546806735741049
0.0711815667682863
-0.0458339522863761
-0.046535534098531325
-0.010773620288911843
-0.1275437027029475
-0.2938141885554557
-0.39378627799359045
-0.6861971803304452
-0.9603777498664959
-0.7914990970048715
-0.5083283844489247
-0.43258985204171807
-0.18152050896623123
0.09033872467343956
0.14029751621316033
0.1191340986505103
0.13949627382719745
0.07963021631660357
0.07346563604162293
0.10654294093076673
-0.056478489719022015
-0.20916633143066102
0.9895470625761748
0.5728824337406102
0.20613823079917026
0.08608512832203084
0.0661450994003241
0.09762993752732736
-0.08916166359157739
-0.41606260738148937
-0.5439944984496574
-0.4032167940407761
-0.17251987915604364
0.0557935494976228
0.9643693644116897
0.3786197385855614
0.14507582726125856
0.1374930673317329
0.1386250114055844
0.12361851305738614
0.08496262302428127
0.015993977346296748
-0.09312601758818122
-0.18442597827622711
-0.1778874615712778
-0.08271747748071805
-0.005137351192410877
0.045620672887784736
0.9945006889229782
0.01280037488503627
0.0884854968207893
0.5271116720388666
0.7286902044390665
0.2467650320411161
0.0
SCALARS Distance_to_V float 1
LOOKUP_TABLE default
0.0
0.6942369244662314
1.57883832636204
2.5552915908998735
3.5349567110798454
4.446511369115736
5.273440406439073
6.056316018427655
6.82227191531514
7.608178319366919
8.410081215427553
9.20357306347574
9.98031543473196
10.756661795108387
11.505463395801268
12.175878232235235
12.734207537513669
13.167837506847412
13.463982933864628
13.592955988720208
13.530907825770528
13.267388634650551
12.825798701327686
12.283622766453702
11.752799126702785
11.270193629300165
10.821116741338045
10.396159291707303
9.992455539681675
9.622365525980461
9.307027196580234
9.058332331947716
8.884666663418841
8.790927720904648
8.78397052124933
8.853784768765271
8.97135980657385
9.114162985316518
9.266632980897775
9.416535458676373
9.577639824911254
9.76364251821674
9.919048707311358
10.005111107263161
9.995655530827145
9.874744870426214
9.635468468579004
9.267975270150872
8.757119102678447
8.132554438069217
7.439991588699605
6.70488424778339
5.93553371872441
5.137495277723211
4.327927780437724
3.542581835534275
2.8382266925500077
2.3054488850138006
2.0655785464496805
2.160687351544202
2.4570064179362694
2.778165288990696
3.009061327356821
3.090320198031981
3.0058229738160853
2.7798571916418107
2.457839315008295
2.091069165509446
1.7254856800998217
1.3915631773493318
1.0926004445318915
0.7967675962072892
0.4497235634300941
0.0
SCALARS Local_Extrema int 1
LOOKUP_TABLE default
0
0
0
0
0
0
0
0
0
0
0
0
0
0
0
0
0
0
0
1
0
0
0
0
0
0
0
0
0
0
0
0
0
0
-1
0
0
0
0
0
0
0
0
1
0
0
0
0
0
0
0
0
0
0
0
0
0
0
-1
0
0
0
0
1
0
0
0
0
0
0
0
0
0
0
