# vtk DataFile Version 2.0
Vessel Segment
ASCII
DATASET POLYDATA
POINTS 119 float
-0.0032524095816514015 -0.006220681426107625 -0.0005167145577436445
-0.00718007846163779 -0.012628689348067199 -0.0003892857162455069
-0.011604987680622604 -0.018944895947705303 0.0002282904333838906
-0.016334591184313275 -0.024986185196285537 0.0011435023521027125
-0.021212592446131502 -0.030687152985494435 0.002140798812161184
-0.02610407882580796 -0.0360268465603966 0.002991480420571731
-0.030882093293478297 -0.04099696715894769 0.0034729758136834692
-0.03542149365481768 -0.04559070239598664 0.0033913783587217377
-0.03961246915096106 -0.04980581183696116 0.0026143106116238604
-0.043394131232052116 -0.05367013858777434 0.0010885866489577193
-0.04676968320207578 -0.05726954033407263 -0.0012050394432933811
-0.049758496465125465 -0.06071641869322621 -0.004310120514104878
-0.052335091177766954 -0.06409362773428315 -0.008257265226548743
-0.05442828690896064 -0.06744713730319746 -0.012966860045082858
-0.05598688925923352 -0.07081673250726603 -0.01825230067176434
-0.05698692202683581 -0.07423113425251585 -0.02391616066246132
-0.057420911287340046 -0.07769357060163246 -0.029772884601575324
-0.05730046730918086 -0.08120070608591483 -0.035689470580443715
-0.05663621416200226 -0.08474794379629769 -0.04158478419726466
-0.05544126944245599 -0.08833633240641865 -0.04739452645784245
-0.05373842232925829 -0.09197663215114836 -0.05306985815384893
-0.05156671571950151 -0.09567605535345615 -0.05856085248022626
-0.04899533696994133 -0.0994335754949266 -0.06379592358941687
-0.046130127368433346 -0.10323505817487653 -0.06866363747662924
-0.04312441591867721 -0.10703177479038399 -0.07300012893768498
-0.040179948120063334 -0.11071793422082866 -0.0766220090959207
-0.03749924008172284 -0.11416218807288842 -0.07941805138191699
-0.03522249742587362 -0.11728236251477926 -0.08140514023194023
-0.033382100167682255 -0.12006056886634116 -0.08269929393553531
-0.03194184763530895 -0.12251071634090094 -0.08343027276370772
-0.030839548942527502 -0.12468170576265444 -0.08369863644305849
-0.03002236660753207 -0.12661791884887558 -0.08354441691722823
-0.029453804922995572 -0.1283425000086027 -0.08296649649094334
-0.029113328892329753 -0.12986642214403754 -0.08195567478455743
-0.028982611497406118 -0.13119802561894997 -0.08050101368919967
-0.02905459429935056 -0.1323297170463317 -0.07856158089215433
-0.02934810344687506 -0.13322078277816582 -0.0760633447599881
-0.029908688594743334 -0.13378837221517267 -0.07291778792187806
-0.030790999390462873 -0.133913661673639 -0.0690600955305827
-0.03203059331777152 -0.13347360224334187 -0.06452602986174108
-0.03357599899297318 -0.13243472626911137 -0.05953604369694198
-0.0353084299050352 -0.13089413504914768 -0.05433114551385018
-0.037111995206634885 -0.12900500938906653 -0.049082815769354145
-0.03888388723180214 -0.12693977666343045 -0.04390141975330439
-0.04053673309217194 -0.12487385943554632 -0.03884289103089131
-0.042000681888208664 -0.12297242546664758 -0.033920057751299665
-0.043219919535285346 -0.12138419439668055 -0.02912170615770491
-0.044151599279421694 -0.12024020699250883 -0.024446379940361675
-0.044782136787476924 -0.11962767658063406 -0.019934323928882655
-0.045132959017945465 -0.11956367589964603 -0.015633314653063363
-0.045238097287427934 -0.1200209232072399 -0.011559465623660274
-0.04512900697247385 -0.1209711366547065 -0.007703468109451353
-0.044830437756695866 -0.12239877068858011 -0.0040528621815739355
-0.04436050969910326 -0.12429628290308249 -0.0005982224064356241
-0.04373164601291004 -0.12666173011512133 0.0026759207841431654
-0.04294974396465743 -0.1295024887230721 0.005795776140531899
-0.042014826342590766 -0.1328351126313191 0.008787645642816004
-0.04092702351752569 -0.13667127122963896 0.01165828995240414
-0.03969604884939985 -0.1410000762723974 0.014375334711488181
-0.03835217904434993 -0.1457758546276569 0.016863241395819736
-0.03694718554692975 -0.15091785049924786 0.019038163338894416
-0.03552092847578537 -0.15633658275014112 0.020859976254538743
-0.03408263110731358 -0.16194712337043216 0.022329277903092443
-0.03261913629626972 -0.16765821470009254 0.023480488689114357
-0.03110293325056977 -0.17337404538565018 0.024378925308349626
-0.02950570874932334 -0.17900628317299574 0.025109238317752844
-0.027806770478183924 -0.18448069591784244 0.025765275395243765
-0.025993391276430952 -0.1897417562104084 0.026441569857658474
-0.024059070347579304 -0.19475117973850667 0.02722569363264151
-0.022001040270895347 -0.1994878618533343 0.028192124178449747
-0.01981565171972992 -0.20395080004089267 0.029399966306439523
-0.017493227425826895 -0.20815661389180917 0.030895567363349932
-0.015014064000799684 -0.21213386797639325 0.032714469170111386
-0.012350521470828239 -0.21590984610291825 0.03487843495532977
-0.009476221024344464 -0.21950072185614822 0.0373874528113669
-0.006373755529217447 -0.22291619700413864 0.04021349136103301
-0.003031654146420242 -0.22616475072505884 0.04330543651293428
0.000562139634511767 -0.22925216535769444 0.04660042883616169
0.004422673991636974 -0.2321772198029385 0.05003171825783958
0.008571123914597226 -0.23493391782286827 0.05353644131391629
0.013036814953504967 -0.23751316798348288 0.05706630558685005
0.01785381197580371 -0.23990096811738446 0.06059483784854332
0.023051099398111514 -0.2420744708474741 0.06411911742038663
0.028639610056358768 -0.24400215595770355 0.067655468629363
0.03459778674113118 -0.2456482368034212 0.07123172161359394
0.04086098562630468 -0.2469857108565713 0.07487659785845192
0.04732078252793437 -0.2480145797772869 0.07860919756546238
0.053840889411012234 -0.24877456942340936 0.08243131303696871
0.06028105763324713 -0.24934463989061886 0.08632582688529249
0.06651538551425129 -0.24982686622311764 0.0902611922685506
0.07244094121731735 -0.25032815766392563 0.09419647390132226
0.07797967726139415 -0.250935754389852 0.09808693134322952
0.08308195775862995 -0.2517022309728078 0.1018885701226553
0.08773091103119518 -0.25263826235434467 0.10556252660867746
0.09194506088453834 -0.2537214326762976 0.10908218397049706
0.09576747015495193 -0.2549142224736301 0.11243616715672264
0.09925173740320306 -0.25617883285098636 0.1156267615036832
0.10245152490885619 -0.2574866627308766 0.11866681383486243
0.10541677243895112 -0.25882309220947886 0.12157905299311018
0.10819050304887753 -0.26018821200068576 0.12439353045919443
0.1108089657648639 -0.26159569001004224 0.1271454461860955
0.11329936074300534 -0.2630701039004565 0.12986876178948975
0.11567796416456609 -0.26464223128561426 0.13258788236222127
0.11795288979981801 -0.26634606240938635 0.135311722863587
0.12012856821821895 -0.26821580554004787 0.13803345948865106
0.12220884542579706 -0.270287623145729 0.14073712947264821
0.12419327107702001 -0.27260039105516404 0.14340419641006402
0.1260711330589938 -0.2751973720502699 0.14601793159227114
0.12781598781065578 -0.27812320643392824 0.14856503888030892
0.12938669058410043 -0.28141777297696297 0.15103435177714863
0.13073789052906745 -0.285109795508598 0.15341657932559594
0.13183443996979352 -0.28921503164171886 0.15570926743421817
0.1326578148940509 -0.2937325963683505 0.15792179076963572
0.13321078077265486 -0.29863103108210703 0.16007405693330046
0.1335211336459096 -0.303834252127515 0.1621929542228692
0.13364304410855155 -0.30921594874134484 0.16430967542285566
0.13364583048419645 -0.31459601759085465 0.16645338698110582
0.13359748776795174 -0.3197508955216574 0.16863235417861652
0.13355063474273382 -0.3244817261347132 0.17082443873126596
LINES 1 120
119 0 1 2 3 4 5 6 7 8 9 10 11 12 13 14 15 16 17 18 19 20 21 22 23 24 25 26 27 28 29 30 31 32 33 34 35 36 37 38 39 40 41 42 43 44 45 46 47 48 49 50 51 52 53 54 55 56 57 58 59 60 61 62 63 64 65 66 67 68 69 70 71 72 73 74 75 76 77 78 79 80 81 82 83 84 85 86 87 88 89 90 91 92 93 94 95 96 97 98 99 100 101 102 103 104 105 106 107 108 109 110 111 112 113 114 115 116 117 118
POINT_DATA 119
SCALARS Curvature float
LOOKUP_TABLE default
0.02937269734306711
0.027909831662298247
0.03476718590592138
0.050507807090643064
0.07477799433743383
0.10621863713277975
0.14249492809357747
0.18045478241381396
0.21641000322562856
0.24651731215034234
0.2672210700885205
0.27570801781264354
0.27031846329730636
0.25085918701474297
0.2187712552915172
0.17712034279812439
0.13039660959212285
0.08413347189318957
0.044377091948128486
0.017058284394590856
0.007333192874683571
0.01896647492658782
0.0538296155522435
0.11157715124134962
0.18954587913256574
0.2828984009498373
0.3850052551750651
0.4880325595543032
0.5836777688691785
0.6639778147725417
0.722103845283049
0.7530563805903302
0.7541841753760252
0.7254684740741586
0.6695396344117551
0.5914224020271316
0.49803606663389294
0.39750284021687715
0.2983389120248035
0.2086152973697144
0.135178350144018
0.08301236955153887
0.0548100229400332
0.0507923423839397
0.06879168843586005
0.1045816581103003
0.15241087829182828
0.205676073413282
0.2576561311251006
0.3022245362657117
0.3344627908023865
0.35111142444599186
0.35081604281079853
0.33415089959488425
0.3034286261643871
0.2623288706641799
0.2153978928013155
0.16748350552718383
0.1231739408456965
0.086305069640649
0.05958877557188292
0.0443979078256637
0.04072249409987333
0.04729048183337628
0.06182686151648883
0.08140991612641434
0.1028741989515746
0.12320750423055533
0.13989349586308647
0.15116187769442005
0.15612240161063246
0.15477553214720657
0.147908963037162
0.13690328842345495
0.12348025096438084
0.10943201699177393
0.09636949537498546
0.08552220231553943
0.07761262475447672
0.07281598981740452
0.07080360769141564
0.0708563242727867
0.07202565534238786
0.07331498173993391
0.07385228436898354
0.07302917403293688
0.07058771831105234
0.06664561456564642
0.06166015496645228
0.056340668660028535
0.05152636446021019
0.048050746211622676
0.046614532182075695
0.04768632571696804
0.05144472533708269
0.05776811795410136
0.06627031785576447
0.07637280775180053
0.08739877682952905
0.09867128540307021
0.10959812023393341
0.11972913769711742
0.12877753715594212
0.13660358700890754
0.14316662797617768
0.14845744565851518
0.15242723695852378
0.15493062664247476
0.15569821800460432
0.1543492038921434
0.1504473409073119
0.14359522235494504
0.13355363513467786
0.1203662464882154
0.10446614883861305
0.08674072478853678
0.06853518215249296
0.051582652590721007
0.03785906209900543
