# vtk DataFile Version 2.0
Vessel Segment
ASCII
DATASET POLYDATA
POINTS 119 float
-0.0032314505904709823 -0.00580451881591747 -0.00014109811307986457
-0.007137244626041716 -0.01192408604539099 0.00027371756877137866
-0.011544858181442769 -0.018088943131593455 0.0011070326549026178
-0.01626167429168332 -0.024093323673357467 0.002174089974198051
-0.021126585283537606 -0.029829701234331187 0.0032757646505076434
-0.026007469172232806 -0.03524899645765174 0.004209706930376662
-0.030786467572966714 -0.04032865919236723 0.004778109571274199
-0.03534898578248083 -0.04505486516351146 0.004803347307690186
-0.0395915876766364 -0.049421581603694205 0.004157521571998001
-0.04345086895048682 -0.053452659162836653 0.0027831118462291345
-0.046918867382323336 -0.057226548481617526 0.0006589797743365294
-0.05000403735343926 -0.06084920194575135 -0.00224816827420804
-0.05267957960166515 -0.06440562594442624 -0.005958178277868879
-0.054879814642006614 -0.06795064433305592 -0.010402512332030024
-0.05654842973679519 -0.07152935600371035 -0.015422494246789709
-0.057655821838503894 -0.07517310386222857 -0.020834455325699282
-0.05819266889807462 -0.0788918876816251 -0.02647119933355676
-0.05816254250959364 -0.08268179196426736 -0.03220822948744441
-0.0575720862497136 -0.08653300813265374 -0.03796146512893819
-0.05643440756655374 -0.09043967871238617 -0.0436637540599544
-0.054773587444414615 -0.09440624217200995 -0.049263771221372585
-0.052629265047972 -0.09843577298242889 -0.054708216482997785
-0.050070351612104665 -0.10252336148742902 -0.05991936018367172
-0.047202919992230405 -0.10664913189284332 -0.0647789560574276
-0.04417789399986964 -0.11075903736442098 -0.06912236540922324
-0.041187372097506225 -0.11474861188480556 -0.07277152050061711
-0.038423270263191325 -0.11849299997491156 -0.07561046172507464
-0.036027109242652296 -0.12190678781803561 -0.07762631565982141
-0.03405658469395878 -0.12494832362316652 -0.07888680263647768
-0.03250850843154194 -0.1275938353382584 -0.07949100218392237
-0.031337857504696004 -0.12986130120580133 -0.07954553036596561
-0.030482359753431137 -0.13179999214084545 -0.07912757571857022
-0.029885498448362774 -0.13347225548802452 -0.078260137221053
-0.029514794001235262 -0.13492050971984426 -0.07692525519357844
-0.029352681947752642 -0.13616045518874773 -0.07509067492824116
-0.02939656507591237 -0.13718000701636937 -0.07270767720255247
-0.029664377578703 -0.13793751642420182 -0.06971898002633846
-0.03019022598949644 -0.13836364300849466 -0.06608008397525847
-0.031005564048112298 -0.13837630848401056 -0.06179338458206775
-0.03211547206946824 -0.1379144109562036 -0.056954456171441584
-0.033457263293667966 -0.13700018803812464 -0.05178258760886273
-0.03492355704663857 -0.13575008288073745 -0.04648669677048529
-0.03641425698182618 -0.134312888255374 -0.041207580674727406
-0.03784448664548032 -0.13284048247854996 -0.03603096551157113
-0.03914620442666122 -0.13147589891670022 -0.030995914035370335
-0.0402689155944618 -0.13034552002385924 -0.02610429067949645
-0.04117598148417778 -0.12955927362413128 -0.021335581071377237
-0.041841789714240435 -0.12921497051848163 -0.01667376985624944
-0.042260399753896095 -0.1293837395232612 -0.012138254087640854
-0.042448658877335066 -0.13008957221558717 -0.007766674701339306
-0.04243177684507417 -0.13132140559974287 -0.0035824649826540636
-0.04223397544602891 -0.13306318297584951 0.0004100097640645948
-0.041875327687600265 -0.1353057042986462 0.00421064053045912
-0.041371230485275745 -0.13804205680780668 0.007817586136466126
-0.04073243529968622 -0.1412646362922506 0.011235525397402706
-0.03996367238061445 -0.14496731476067548 0.014481400898270902
-0.03906343419715108 -0.14914481845485245 0.017577298289812672
-0.03802833291007006 -0.1537820138565729 0.020535765413626384
-0.036860244437486506 -0.15884273082210743 0.0233440034373045
-0.03557466576183091 -0.16426429551265978 0.025959042321733072
-0.03420176247782268 -0.16996023160254675 0.028331188483234123
-0.032762195852590326 -0.17584090823059825 0.030440172067009733
-0.03125355973917979 -0.18182292089668767 0.032292288817793086
-0.02965709945816647 -0.18782100984589958 0.03391564558673267
-0.027944866347226593 -0.19375097609148706 0.035358739271292815
-0.02609078361370838 -0.19953864971023963 0.03668268803100245
-0.024076912459491943 -0.20512318847279815 0.03795440316894215
-0.02189319025728896 -0.21045902933727792 0.039241491347947736
-0.01953543023790808 -0.21551435661263518 0.040607766750284595
-0.01700259036920296 -0.22027088869542522 0.04210946148138264
-0.01429316573898805 -0.22472449542248468 0.04379344050593673
-0.011401672325401912 -0.22888336534743225 0.04569845659006031
-0.008315775887123887 -0.23276469728895494 0.04785576934734122
-0.005018084827722747 -0.23638579215555836 0.05028654098262647
-0.001493653263384089 -0.23975742725293725 0.05299579473153489
0.0022636245054767335 -0.24288765460548722 0.055967325900997365
0.0062541333726096535 -0.24578573336564702 0.059167184658674835
0.010478678240874808 -0.24846036639879032 0.0625512890485562
0.014941277574874557 -0.250916344960466 0.0660704842597455
0.019652194022173913 -0.25315575620462316 0.06967595187970749
0.024629767443247266 -0.25517927447426825 0.07332799343361385
0.029896751912428774 -0.2569840617843885 0.07700300548409282
0.03547139326905685 -0.2585608777274469 0.08069511304192718
0.04135655395760484 -0.25989482708971656 0.08441342200237288
0.04752874524571138 -0.2609699139231972 0.08817654440514645
0.053930413667575956 -0.26177896059115185 0.09200436896812644
0.06047031188722945 -0.2623365758268676 0.09591005990213303
0.06703611408719816 -0.26268718161868587 0.09989354918755813
0.07351247715966688 -0.2629034232263477 0.10393952305211739
0.07979517318141348 -0.26307386218055184 0.10802070742689651
0.08579813535887093 -0.26328990074717046 0.11210149662938913
0.09145562197941569 -0.2636278958299316 0.1161428629265799
0.09672482511870825 -0.2641381158417537 0.12010651566975392
0.10158960211439882 -0.26483923690942873 0.12395866783561083
0.10606278079946649 -0.26572440024443983 0.12767684657481715
0.11017749974804115 -0.26677447146101557 0.1312519759824716
0.11397531437322952 -0.2679694386587073 0.1346865845040389
0.11749709710190474 -0.2692952774715047 0.13799150241136976
0.120778975910008 -0.2707471680691276 0.1411844625593553
0.12384950144471552 -0.2723294221752818 0.14428836797644284
0.1267294341800675 -0.27405386351052197 0.1473297492159399
0.12943009734622885 -0.27593728804338574 0.15033418595854317
0.1319531676058426 -0.2779975011955378 0.15331929143216477
0.13429534202137264 -0.2802510629001494 0.15629009579848382
0.1364552931166595 -0.2827133330748971 0.15923989300295335
0.13843640450567238 -0.28540273293672824 0.1621567237610257
0.14024223581812822 -0.2883424900602536 0.16502810152230182
0.14187047393886532 -0.291561046965536 0.16784300853541784
0.1433086849510718 -0.29508788651094436 0.17059231931467653
0.1445353673925708 -0.2989464944142991 0.17326777455781633
0.14552797971638612 -0.303147368220241 0.17586137067352534
0.14627343376903187 -0.30768586687948873 0.17837009213156818
0.14677283265703892 -0.31254231086301804 0.18080090551357747
0.14704399871833565 -0.31767669238544366 0.1831713492748549
0.1471229268638838 -0.32302134338335076 0.1855071584696396
0.14706452831875527 -0.3284720729402651 0.18783737396895064
0.1469340485421636 -0.33387442999643974 0.19018281129955386
0.1467935855494373 -0.33902664522600695 0.19253427635965806
0.14668924258812505 -0.3437431103799039 0.19484880666435014
LINES 1 120
119 0 1 2 3 4 5 6 7 8 9 10 11 12 13 14 15 16 17 18 19 20 21 22 23 24 25 26 27 28 29 30 31 32 33 34 35 36 37 38 39 40 41 42 43 44 45 46 47 48 49 50 51 52 53 54 55 56 57 58 59 60 61 62 63 64 65 66 67 68 69 70 71 72 73 74 75 76 77 78 79 80 81 82 83 84 85 86 87 88 89 90 91 92 93 94 95 96 97 98 99 100 101 102 103 104 105 106 107 108 109 110 111 112 113 114 115 116 117 118
POINT_DATA 119
SCALARS Curvature float
LOOKUP_TABLE default
0.016939106020370777
0.015603924523929426
0.02256732806671915
0.03864199437251588
0.06364079740154294
0.09625754674029793
0.1340884555563509
0.1738056469769083
0.21147389830152766
0.24298153724186222
0.26453870948523345
0.27318367651859776
0.26723234618274727
0.24660899224681082
0.21300714536399387
0.169847906170517
0.1220264167840079
0.07546314054441736
0.03650172804429152
0.0112163572225347
0.004705692508362766
0.020455955566605323
0.05985104456719011
0.12189340631242747
0.2031769047450068
0.2981247575204589
0.3994750212949587
0.4989667644920342
0.5881555654053217
0.6592703782248858
0.7060172666850908
0.7242399631073737
0.7123622871917451
0.671561473281295
0.6056516237363708
0.5206892787974506
0.4243445846177286
0.32510800774252935
0.2314208452292272
0.15082576215687268
0.08923035115031593
0.05036270889102912
0.035475015981770164
0.043321916087287554
0.07040866362096986
0.11147336876089108
0.16014184097769715
0.20967550528001014
0.25372462907779836
0.2870014145157345
0.30579984312958197
0.30830975812765504
0.29469881596075287
0.26696430251504516
0.2285838756196209
0.18401680863801415
0.13812267312246687
0.0955709830861062
0.060312647012556383
0.035172828737986994
0.021606749992679482
0.019637619916282757
0.027972244061146772
0.044267992787388404
0.06550740038215766
0.08842574608315533
0.10993364187337194
0.12748099362158352
0.13931978122235406
0.14463914235103684
0.14356488414212693
0.13703418098298548
0.12657234769345094
0.11401014937779515
0.1011857682977924
0.0896748013124179
0.08058491366616055
0.07444024214988296
0.07116615461765016
0.07016970663190057
0.0704972904689827
0.07104046669005287
0.0707551816922158
0.06885916341036996
0.0649771160990753
0.059212516780317456
0.05213685868585201
0.04470022396501096
0.03807913546757716
0.0334869619399862
0.03197740298080772
0.034272059867655906
0.04063882761668929
0.050839551185941995
0.06415439341174813
0.0794783710079843
0.09547436600553712
0.11075830882085891
0.12408745686846588
0.13452247365833397
0.14153836974117892
0.14506762520728583
0.14546970417906024
0.14343301730817568
0.1398263525278315
0.13552515713092092
0.1312424716275753
0.12739402698639007
0.12402196770029726
0.1207925270391404
0.11707107234191888
0.11206503022553202
0.10501327171347179
0.0953914781351464
0.08309834390792194
0.06858811956171264
0.052921113887488595
0.03771470399894128
0.024991749319094585
