# vtk DataFile Version 2.0
Vessel Segment
ASCII
DATASET POLYDATA
POINTS 119 float
-0.00327119528223682 -0.006539233275817765 -0.0007994732423839734
-0.007218109791080744 -0.013164568135397361 -0.0008833476868782493
-0.011657819994187696 -0.019593568184237683 -0.00042158545734129026
-0.016397747227430332 -0.025662772300951566 0.0003851584420419526
-0.021285624356987616 -0.03133919123118256 0.0013082798480647886
-0.026185065791157203 -0.036622904463290876 0.002099986391760706
-0.030962901511602275 -0.04151613667188107 0.002520106627978978
-0.03548678076964826 -0.0460173615500507 0.002363270031756479
-0.03964285740950958 -0.05012741869354165 0.0014938570130837922
-0.04337245653083896 -0.05387725541017994 -0.00013887960157883076
-0.04668655179775906 -0.05735773724572593 -0.002554129896338847
-0.04961152219829718 -0.06068514816889611 -0.00580420565244625
-0.05212186363440599 -0.06394005725731439 -0.009928194136025734
-0.05414175467406019 -0.06716169154671613 -0.014837715128033736
-0.05562357675955417 -0.07038604486990778 -0.020324097341708623
-0.05654772827272053 -0.07364043746232542 -0.0261791100450906
-0.05690842240257138 -0.07692401786041149 -0.03220345776108241
-0.056723153128641436 -0.08023423900263472 -0.03825775124478443
-0.05600535653002507 -0.0835702740988648 -0.04426301889389561
-0.05476816580573593 -0.08693798511856173 -0.050156956595743554
-0.05303355346197092 -0.09035244381819263 -0.055892443697710494
-0.050840278076701814 -0.09382364605474001 -0.06142201585062703
-0.04825784168419566 -0.09735318677269157 -0.0666785822967659
-0.045392042521508254 -0.10093085017121063 -0.07155561045253069
-0.04239808702034196 -0.10451160937891948 -0.07588972884156547
-0.03948464630258086 -0.10798893757687046 -0.07949376164125613
-0.03686142621462676 -0.11122728760168228 -0.08226000397355089
-0.034666943479097906 -0.11414688988361885 -0.08422630285856679
-0.03291518023309047 -0.11674632178699546 -0.08554228786569644
-0.031546658134197846 -0.11906634963437517 -0.08635992355477311
-0.030486727248727148 -0.12118032279213782 -0.08677765504253511
-0.029689047012787875 -0.1231326596413287 -0.0868081721505528
-0.0291326735812163 -0.1249172390841329 -0.08642565451298194
-0.02880782287683392 -0.1265147498254207 -0.08562063345873744
-0.02869623963380419 -0.12792088631166834 -0.08439890848171935
-0.02878647808334152 -0.12912965446608435 -0.08273226879350778
-0.0290962417141247 -0.1301051244495875 -0.08054328986210876
-0.02967792870364597 -0.130761947831002 -0.07771878264423604
-0.030603026791256174 -0.13096107682803668 -0.07414838049133522
-0.03193131959934067 -0.13053582506435313 -0.06982135062198729
-0.033622796982008214 -0.12940736967985889 -0.06495126428926228
-0.035552828726320485 -0.1276521365580211 -0.059796759126056497
-0.03759523678991224 -0.12542112877848619 -0.054548262110848574
-0.039634207834489475 -0.12289861340635466 -0.04933179307145113
-0.041567007415532965 -0.12028369497680372 -0.04421381127422461
-0.04330695172082977 -0.11777388370131318 -0.0392137840375211
-0.04478018607304223 -0.11555436327662605 -0.03432689851100239
-0.04592669799642465 -0.11379164466807556 -0.029564078975557018
-0.04672438630114907 -0.11259495095561989 -0.02498472272398249
-0.047197895618194104 -0.11198152634165294 -0.020648950637678423
-0.0473893634648216 -0.11191239800395827 -0.016572946416987137
-0.04733799291818512 -0.1123471856866674 -0.012742843729761229
-0.04707473913840198 -0.11326027203912607 -0.009141050498032793
-0.04662231510641479 -0.11463677072339026 -0.0057515523242132605
-0.04599620100042918 -0.1164716039390417 -0.0025501686243653713
-0.04520388051450573 -0.11877524791691735 0.0004984665944467973
-0.04424623917547643 -0.1215744623856618 0.0034266558294468574
-0.04312513477277677 -0.12489633117978013 0.006239938280408647
-0.04185495001699935 -0.12874629334741694 0.008894695947247556
-0.0404754624644434 -0.13309125573381683 0.011294939587032902
-0.03905232472941264 -0.13785738394115943 0.01333530436733203
-0.037637337970946996 -0.14296014924256706 0.01496333299331946
-0.036246837075467025 -0.1483191904267146 0.016175459736017087
-0.03487130663606419 -0.1538438694343233 0.01700884486789394
-0.0334837686221892 -0.1594327442778411 0.017538696763612232
-0.032054602814317414 -0.16498742849628195 0.017865278045180618
-0.03056128678251888 -0.1704221544653081 0.018101740053836843
-0.02898922766705866 -0.17567117947987437 0.01836268441931677
-0.02733029194244307 -0.18068830871145605 0.018753529552729853
-0.025580525081963054 -0.18544779006755616 0.019362060698025128
-0.02373493314021667 -0.18994951649003528 0.02025550899641092
-0.021781273760753197 -0.1942161988203614 0.02148458974751624
-0.019695300284936254 -0.1982856754234521 0.02308718682722848
-0.01744289426929965 -0.20219387558499963 0.02508567167266836
-0.014990163669414311 -0.20596195900859007 0.02747732704658493
-0.012311962426405774 -0.2096012929022781 0.03022659812892502
-0.009389005447679608 -0.21311965553123363 0.03327048314792527
-0.006201255378888235 -0.2165201616402299 0.036532381105642636
-0.002725922646431637 -0.2197964712128226 0.03993214673539028
0.0010655641568141031 -0.222936069682311 0.04339588190787456
0.00520957196564936 -0.22592247038912927 0.046868177342433814
0.00974707619887079 -0.22873374956471088 0.05031967105423918
0.014713388389922526 -0.2313378136981796 0.05374884953364098
0.020123984705864517 -0.2336919663453318 0.0571766548213138
0.0259578186042956 -0.23574692416393134 0.0606371865702555
0.032144884854442085 -0.23746199234694781 0.06416550430668244
0.03856487126749063 -0.23882700858221917 0.06778537165666611
0.04506530036307293 -0.23987846896374848 0.07150061575884732
0.0514893357741572 -0.24069988759728742 0.07529363771297254
0.057696794805530034 -0.24140295704160386 0.07913059193253788
0.06357379909526091 -0.24210556027898328 0.08296738582682225
0.06903445040928938 -0.24290255595487922 0.08675571786952711
0.07402497643383413 -0.24384805851956803 0.09044789003827411
0.07852836838754587 -0.2449470787244934 0.09400153833570003
0.08256714386981319 -0.24616638116098716 0.09738692720969348
0.08619104444066086 -0.24745590477359433 0.10059070084663158
0.08946176755496638 -0.24876614078946108 0.1036146830015619
0.09244176345552131 -0.2500595586861298 0.10647317410590097
0.09519071363506738 -0.25131640744435696 0.1091928621229659
0.09776208358710778 -0.25253561972887384 0.11180964890564646
0.1002033672128734 -0.2537334774334401 0.11436584431775901
0.10255320356314954 -0.2549404581716711 0.1169023137337595
0.10483821530480664 -0.256196029028601 0.1194490271818701
0.10707434443736415 -0.25754546215516394 0.12201797484343269
0.10926964085418484 -0.2590352668178868 0.12460205218800623
0.11142760770631843 -0.2607133872968 0.127181763977976
0.11354406731918908 -0.2626291060943286 0.12973315682685457
0.11560125879459948 -0.2648350448955649 0.1322338628127038
0.1175617243231584 -0.2673844328897706 0.13466568024345552
0.11936995501589685 -0.27032545802694313 0.13701352110523476
0.12096548385135462 -0.2736960556985135 0.13926605971983447
0.12230008003323749 -0.2775238832464323 0.14142116236620822
0.12334401832453394 -0.2818212294373844 0.14349047092036815
0.12409073596370329 -0.28656490233984755 0.14549632101842846
0.12456191856623437 -0.2916758712210479 0.1474671711654131
0.12481018538803458 -0.29701438915599665 0.14943644563944564
0.12490686378996302 -0.30238310859735773 0.1514397702648338
0.12492365046181761 -0.30754302519826127 0.15349805913929349
0.12491758791906683 -0.31228576423085985 0.15560402246934638
LINES 1 120
119 0 1 2 3 4 5 6 7 8 9 10 11 12 13 14 15 16 17 18 19 20 21 22 23 24 25 26 27 28 29 30 31 32 33 34 35 36 37 38 39 40 41 42 43 44 45 46 47 48 49 50 51 52 53 54 55 56 57 58 59 60 61 62 63 64 65 66 67 68 69 70 71 72 73 74 75 76 77 78 79 80 81 82 83 84 85 86 87 88 89 90 91 92 93 94 95 96 97 98 99 100 101 102 103 104 105 106 107 108 109 110 111 112 113 114 115 116 117 118
POINT_DATA 119
SCALARS Curvature float
LOOKUP_TABLE default
0.03803649361423204
0.03675522386626802
0.04390784728296731
0.059778674347079806
0.0837961818193873
0.11448321561852631
0.1495066283671187
0.1858338031586112
0.21999069913338104
0.24840250511763215
0.2677854550038484
0.27554860126959924
0.27015888882572725
0.2514227952752663
0.2206435542145251
0.18062427808627182
0.1355031348470599
0.09042545110427902
0.0510770879691379
0.02312131826684797
0.011595445084076046
0.02033162043684773
0.051467444559899406
0.10510545399146952
0.1791669467763491
0.26946604140201014
0.37000648106246287
0.47347907232577646
0.571914621021256
0.657428532464318
0.7229811786867307
0.7630742800728069
0.7743085507666251
0.7557413367689733
0.7090035510727797
0.6381606456112974
0.5493298189127586
0.4500920341998759
0.348759703733185
0.25357652339152686
0.17193311808350376
0.10968006038452416
0.07060870371324442
0.05615142499514293
0.06532848832492519
0.09494163774634251
0.1399878136482656
0.1942430961737821
0.2509497084839911
0.3035295236780202
0.34624692498361637
0.3747519411981591
0.38645018105197576
0.3806672288584032
0.3585992465001757
0.32306568209163505
0.27810141331655647
0.22844195775509302
0.17896484881256816
0.13415205736660119
0.09763253315482373
0.07185154595548628
0.05789627606692269
0.05548730049804028
0.06312572777854872
0.07836813859529135
0.09818819596489756
0.11937618595699001
0.13892646412582435
0.15436763155616198
0.16400031498083723
0.16702114465189435
0.16352699839484086
0.15440877700459663
0.1411570050128531
0.12561090002985933
0.1096872647714686
0.09512531897841765
0.08327875007769894
0.07497774461044578
0.07047291534237023
0.06946143449074794
0.07118489855127108
0.07457985515959309
0.07845650871726571
0.08167938912075408
0.08332568541489722
0.08280198567551096
0.07990740340956481
0.07483934369754511
0.0681462385859389
0.06063834339088506
0.05327228232522286
0.047026985268521775
0.04278791056155871
0.04125334891558041
0.04287182725192196
0.04781406235723433
0.05597749643393714
0.0670170331224298
0.08039281526629125
0.09542506382188698
0.11134709850946053
0.1273503195073896
0.1426185188835916
0.1563526358456102
0.16779018524857234
0.1762254146145632
0.1810363652890654
0.18172333344925756
0.17795999758675068
0.16965426530605635
0.15701148568668208
0.1405889662143955
0.12132856867002653
0.10055418243391163
0.07992341127203235
0.0613277852902181
0.04674272752413093
