# vtk DataFile Version 2.0
Vessel Segment
ASCII
DATASET POLYDATA
POINTS 119 float
-0.0032340094149845085 -0.0058618624664867666 -0.00019342575002181259
-0.007142546169195666 -0.01202152007803603 0.00018088281027055683
-0.01155238136931093 -0.01820753528111182 0.0009835285611269576
-0.01627090533656631 -0.024217034246688612 0.00202888834224546
-0.0211376344383796 -0.029948278678528346 0.0031156118810188238
-0.026019995673522756 -0.035356113842558386 0.004037608785515269
-0.030798802511536473 -0.040419990955328194 0.004593524015891707
-0.035357921126245986 -0.04512705924856828 0.0046033881717907335
-0.03959295268253957 -0.049471789376760195 0.003938663424207732
-0.04344080857322682 -0.053478574252443865 0.0025425083603883864
-0.046895137737190624 -0.05722694643877465 0.0003941802746607612
-0.0499660282551096 -0.06082384688977092 -0.002540936827016261
-0.05262696396645497 -0.06435404599149949 -0.006284142069227363
-0.054811554932452045 -0.06787114819975736 -0.010765390952785853
-0.056464237617607875 -0.07141950307487589 -0.015822220102682437
-0.05755618068127141 -0.07503003495057325 -0.021269094467440595
-0.05807828921011186 -0.0787117010506479 -0.026936260596977197
-0.05803526950839436 -0.08246063339865849 -0.032698038748922326
-0.05743433600028234 -0.08626776446054074 -0.03847076395248263
-0.05628859544027438 -0.09012823758453058 -0.04418769537466944
-0.05462193254970577 -0.09404741685764845 -0.04979786784686114
-0.052473886490943894 -0.0980289855760178 -0.05524845761303169
-0.04991339604386995 -0.10206860346593531 -0.060462602537436516
-0.047046488852468434 -0.10614723286741332 -0.06532302642809534
-0.04402441678308096 -0.1102115969506072 -0.06966520680139228
-0.04104065357741431 -0.11415701956666867 -0.07331031420834846
-0.03828866804947346 -0.11785767237147915 -0.07614305203370564
-0.03590986800212351 -0.12122859285424684 -0.07815482980511196
-0.033958363925138506 -0.12423157044028155 -0.07942036470511375
-0.032426224681014616 -0.12684821815294686 -0.08004311979995683
-0.031266001987485234 -0.12910070518789726 -0.08012870225865035
-0.03041679412162226 -0.1310373094914253 -0.07974916300184874
-0.029824799267545537 -0.13271500932985475 -0.07892479119879973
-0.02945902341489414 -0.13417254931115374 -0.07763935632320218
-0.029301758120690663 -0.1354251913822846 -0.07586332067439369
-0.029349894669295072 -0.1364614827783129 -0.07354832051694123
-0.02962165231971884 -0.13723941541982299 -0.07063388383391359
-0.030152884825081255 -0.13768703115668812 -0.06706862312840434
-0.030978328198599435 -0.13771647260133243 -0.06284513256724876
-0.03210718855081694 -0.13725777346112097 -0.05805083680296531
-0.03347806638258569 -0.13632575866152247 -0.05290597905389938
-0.03498174680947854 -0.1350347405690358 -0.04762462069692165
-0.03651579884275568 -0.1335345928865947 -0.04235228119230935
-0.03799282266702625 -0.13198032124618042 -0.037178445529305194
-0.03934218370748993 -0.1305194388331718 -0.03214476431051533
-0.040510925474345066 -0.12928333660296373 -0.027254764693953153
-0.041460084406114095 -0.12838659882726353 -0.02248919181615175
-0.04216201831560303 -0.12793069418772005 -0.017833758238463157
-0.04260993283326466 -0.1279881452796386 -0.013310272500495133
-0.04282127580759141 -0.12858160207167127 -0.008957245318529202
-0.04282228956388976 -0.12969785723331784 -0.004796544494204872
-0.04263794384205983 -0.13131960413006688 -0.0008301388728379679
-0.04228869765415968 -0.1334373974395479 0.0029439214337069436
-0.04179010611053538 -0.1360449466270125 0.006525428928324442
-0.04115302244441462 -0.13913612330087946 0.00992041949704477
-0.040382315789231384 -0.14270730068970647 0.013146868908516036
-0.03947675682598102 -0.14675678423015526 0.016227162458127255
-0.03843356303902074 -0.151273582436059 0.019172742950681693
-0.03725583539131065 -0.15622526466268527 0.02196776367754138
-0.03596128717388551 -0.1615515028929179 0.024564354481549373
-0.03458330902637497 -0.1671663203958216 0.026907695190320165
-0.03314545987124981 -0.1729796066157579 0.028974512083966012
-0.03164710928596144 -0.1789071794984095 0.030770266074118667
-0.03007035865145331 -0.18486244741374971 0.032324078260470776
-0.028387334471069763 -0.19075929875069275 0.03368700317502532
-0.02657164095941139 -0.19652154259995214 0.034923624496640014
-0.024604944806913262 -0.20208662820715975 0.036104729751088804
-0.022476791473680816 -0.20740788468096644 0.0373017606394324
-0.020182638824715743 -0.2124529018670483 0.03858192155159481
-0.017721167067867433 -0.21720325114380837 0.04000409250689584
-0.015090528433807083 -0.2216553728441928 0.04161698587657284
-0.012284593769309307 -0.2258186464862638 0.043460552767560626
-0.009289913773033544 -0.22971178056601615 0.04556672730393799
-0.006087561610367161 -0.23335335817670874 0.04795672633845962
-0.0026608983169220607 -0.23675482270859477 0.05063474988674482
0.0009978362411196223 -0.23992442041385495 0.05358279148425275
0.004890641885285328 -0.24287131663446623 0.05676438676013133
0.009019968566546254 -0.24560385034658017 0.06013277751982466
0.013391460568428042 -0.24812602053001112 0.0636363546102465
0.018017011378935306 -0.2504388086512405 0.06722437569319165
0.02291663303720831 -0.2525415021713801 0.07085600219947841
0.02811482114011696 -0.2544296256424105 0.0745073023876271
0.03363148477628973 -0.25609191183466706 0.07817290004687115
0.039470744617859876 -0.257510993856306 0.08186299883110179
0.045609451228916534 -0.2586679715960805 0.08559757399583767
0.0519890429987233 -0.2595527938192906 0.08939778496521789
0.05851575984022624 -0.2601779773415436 0.09327760706349157
0.06507374675913502 -0.260587290012162 0.0972371670574614
0.071543976140226 -0.26085430200481646 0.10126080941753823
0.0778190016774273 -0.2610695288464459 0.10532057060323564
0.08381023683170918 -0.26132661173384214 0.10938001571280431
0.08945008765966057 -0.2617034861690624 0.11339924726800678
0.09469469599890172 -0.2622507652252541 0.11733912191935504
0.09952777605949817 -0.26298597640048316 0.12116511463533268
0.10396297778900233 -0.26390000318156204 0.12485417634735824
0.10803490141053812 -0.2649710174636557 0.12839693637254804
0.1117868762822162 -0.26617636260259186 0.13179591682816127
0.11526163746974717 -0.26749978764817334 0.13506223404340187
0.11849729638565436 -0.26893489471431853 0.13821429484710668
0.12152445930102729 -0.2704852093401558 0.1412759495456018
0.12436608641675909 -0.2721626734970535 0.1442748787518206
0.12703577578377417 -0.27398512529685953 0.1472377745578083
0.12953732605567939 -0.2759722382418345 0.15018315727853596
0.13186913266468214 -0.27814315005396006 0.15311658781591
0.13403077247058565 -0.2805160286941422 0.1560313633052033
0.13602578306031496 -0.28311194832918574 0.15891501340492517
0.13785723682550785 -0.28595650136380807 0.1617542850587677
0.13952169191837296 -0.28908043742474093 0.16453748599792095
0.14100474022205067 -0.2925156965383523 0.1672550736298565
0.14228201062597792 -0.2962884913348575 0.16989854754583028
0.14332750902722735 -0.30041230405147773 0.17245982912786245
0.14412470910107572 -0.30488563625993087 0.1749359983042869
0.14467165903318796 -0.3096914714107318 0.17733432472651273
0.14498393597296724 -0.3147907748065563 0.17967262324002756
0.14509642742817164 -0.32011435527185245 0.18197672408354185
0.14506406278862674 -0.3255546208345208 0.18427590734106666
0.14495276925348666 -0.330953346245081 0.1865921335490583
0.1448255426930014 -0.33610563475407396 0.18891868772820372
0.14472944333521762 -0.34082399036900163 0.19121558552796658
LINES 1 120
119 0 1 2 3 4 5 6 7 8 9 10 11 12 13 14 15 16 17 18 19 20 21 22 23 24 25 26 27 28 29 30 31 32 33 34 35 36 37 38 39 40 41 42 43 44 45 46 47 48 49 50 51 52 53 54 55 56 57 58 59 60 61 62 63 64 65 66 67 68 69 70 71 72 73 74 75 76 77 78 79 80 81 82 83 84 85 86 87 88 89 90 91 92 93 94 95 96 97 98 99 100 101 102 103 104 105 106 107 108 109 110 111 112 113 114 115 116 117 118
POINT_DATA 119
SCALARS Curvature float
LOOKUP_TABLE default
0.018717606473921816
0.01733994072064734
0.0242551388762904
0.04025029186207032
0.06512405475053612
0.09757008891778127
0.1351984017224219
0.1747059562335341
0.21218827476988109
0.24356385400044778
0.2650657524530447
0.2737422097222792
0.2679025683170349
0.2474472172456784
0.21403086624492912
0.17102622457699262
0.12327814813954263
0.0766638197103988
0.03749939112393825
0.011854555061627291
0.004850912009201019
0.020025685508393117
0.058838281131000966
0.12038354227306079
0.20135369657113406
0.2962633421447068
0.39792160673195637
0.4981064339867769
0.5883713695497623
0.6608983002945219
0.7093025242993548
0.7293003091616891
0.7191634356811833
0.67990853870061
0.6151986585507973
0.5309668344173679
0.4348029739319767
0.335171898555469
0.24054923405895232
0.15857048421272726
0.09528620988623761
0.05460309032420888
0.03796841345523571
0.04432695381291012
0.07034771542128429
0.11088741652094136
0.1596314896716346
0.20983478216406187
0.25507512457419956
0.28993434769195114
0.3105327438681916
0.314862754045998
0.3028932002334876
0.2764434213348786
0.23885373507298294
0.19450148500015746
0.1482279023935312
0.10474841307091849
0.06811726385939515
0.04130700929654497
0.025946117224856107
0.022236168638135597
0.02904676712555578
0.04416435038437788
0.06465332405739752
0.08727639050167481
0.10891681019134908
0.12694879058676795
0.1395124295543115
0.145664977935261
0.1453983571594928
0.13953132291072717
0.12950092623305387
0.11708991121316215
0.1041329910808852
0.09224498200064125
0.0826078464503211
0.07584291417036014
0.07198064308801398
0.07052535506351887
0.07059859192892153
0.07113400294444973
0.07109040781060241
0.06964860422603027
0.06636156059163378
0.061236067238379044
0.05473532069853154
0.04770450160547462
0.04123327123372571
0.0364785043032193
0.03447615412871485
0.03597216388038891
0.04129874209905833
0.050314749126220665
0.062418616508809734
0.07663076272016979
0.09173164575493659
0.10643306210928989
0.11955535723638151
0.1301825965880931
0.13777153782484364
0.1421978484899823
0.14373324863577736
0.1429585341311349
0.1406279913047518
0.13750887782950155
0.1342240955533143
0.1311261469435529
0.12822585347873447
0.12519073101168957
0.12141659976827952
0.1161636462286432
0.10873665421525266
0.09868031972399158
0.08595595157377697
0.07106635415131903
0.05510147335581039
0.039687860622462594
0.02683884451400679
