# vtk DataFile Version 2.0
Vessel Segment
ASCII
DATASET POLYDATA
POINTS 119 float
-0.0032163807607420067 -0.004933667442070861 0.0006948408028029531
-0.007097264468117049 -0.010426597756231193 0.0017767893978783882
-0.011480281798533283 -0.01625470438872184 0.003126198098227083
-0.016174111894916625 -0.02217982651245035 0.004563058566403031
-0.02101069090578929 -0.028007291775728554 0.005921147798423485
-0.0258682630156353 -0.0336259796101726 0.007060904969603579
-0.03065296347018364 -0.03898109279413131 0.007845480594451401
-0.0352779884911093 -0.044043737194171324 0.008138206354892338
-0.039658940968111456 -0.04880139450470283 0.007822416214413194
-0.04372946942748816 -0.05327040528232395 0.0068266240199087195
-0.047453844999141195 -0.05751007453835458 0.00511709543713288
-0.050809511840744774 -0.06160670241709866 0.0026758407871685886
-0.05376034139688126 -0.06564611064345316 -0.0004970263123913795
-0.05624851190757035 -0.06970122130171351 -0.00435586736937202
-0.058202958185415675 -0.07382825214126261 -0.0087972986710728
-0.05958217688507102 -0.07806749475777111 -0.013664262770905357
-0.060374849748164414 -0.082450365246671 -0.01882940988088088
-0.06056589105747846 -0.08697368903670302 -0.024186645942037822
-0.06015223342158219 -0.09161510702410094 -0.02964501147950783
-0.059147249237900164 -0.09635079717112736 -0.03513022715688756
-0.057579069126705816 -0.10116811289863101 -0.0405847036528562
-0.05548985332295042 -0.10605884207215004 -0.045947334511144806
-0.05294866531702502 -0.11100772232458787 -0.05112608648697352
-0.050062952039343724 -0.11597975667599286 -0.055986318015068356
-0.04697880572538487 -0.12090723115946246 -0.0603611359166946
-0.04386502099962772 -0.12569028875100896 -0.06408551505944504
-0.04088511895588774 -0.13022307389801158 -0.06703278703571966
-0.038178739361954456 -0.13441335810168104 -0.06911537349530947
-0.03586297880396854 -0.13815902181355355 -0.07027625249992572
-0.03401642361596818 -0.14134485021153956 -0.07053699613827245
-0.032633507563871934 -0.14392733640053362 -0.07002061785231768
-0.03162827020583326 -0.14597971186751435 -0.06887406009625976
-0.030907217791249015 -0.147633390608487 -0.06713433969496274
-0.030422182237550395 -0.14895423213460057 -0.06475014009233497
-0.03015695871932887 -0.14995020440009826 -0.06167200411322344
-0.0301114838963215 -0.15061211831192772 -0.05788220611775559
-0.0302927780027487 -0.1509332441673651 -0.05341184379012239
-0.030701168127755786 -0.15092022565780952 -0.04835857208633989
-0.03131426234066273 -0.15061027410848124 -0.042898754804987886
-0.03207701750180212 -0.15009004847473892 -0.03724523650551595
-0.032917648450166925 -0.1494816714045053 -0.031559423239219384
-0.033766988276606305 -0.1489122858456764 -0.02593145930519946
-0.03456526039760393 -0.14849951370848663 -0.02040071908036501
-0.03526534705740038 -0.14834505827601305 -0.014973426032891028
-0.03583252468035857 -0.14853554195020302 -0.009635373332772652
-0.03624300409974676 -0.1491459962620234 -0.004361194485491869
-0.03648336630073853 -0.15024745591722705 0.0008746553982375282
-0.03655037219040451 -0.15191139579203336 0.0060842062900714365
-0.03645061412931492 -0.15420569810075857 0.011251160145247928
-0.03619949668215982 -0.157175415618794 0.01632415418703079
-0.03581870781455457 -0.16082444664943168 0.021234548685856555
-0.03533400756395006 -0.16512458480746156 0.02592621347430067
-0.034770439754451196 -0.17003489015176484 0.03036230254174442
-0.034148041594889995 -0.17550538362343562 0.03452056405260222
-0.033478154386406396 -0.1814769337515414 0.03839604625993588
-0.03276073415261326 -0.18787974280596367 0.04200333456986805
-0.0319837499729671 -0.19463048742837963 0.045373598516057795
-0.031126396085441852 -0.20163197500835245 0.04855069940428941
-0.030163205374089803 -0.20878096757658735 0.051584521859437106
-0.029066555651853704 -0.21598180883671658 0.05452513791294856
-0.02780613221154552 -0.2231582861393437 0.05741901561436447
-0.02634746182313287 -0.23025579863198448 0.060303883997092744
-0.02465263302115327 -0.23723199803929212 0.06320415330014839
-0.02268359516407181 -0.24404643525262384 0.06613121337093598
-0.020407307512781324 -0.25065822545928557 0.06908788156159681
-0.017800409401954858 -0.2570259611424902 0.07207267788607191
-0.014850688630492137 -0.2631068048191118 0.07508160531383004
-0.011556159723723307 -0.26885822782117863 0.0781102628390472
-0.007922137112416537 -0.2742429083770136 0.08115654568236415
-0.003956357318267318 -0.27923372536208546 0.08422287160506742
0.0003334505408293456 -0.2838119522829731 0.08731638701805783
0.004939295127950733 -0.287966626151567 0.0904493186217645
0.009852389562084965 -0.2916943248718819 0.09363926734102795
0.01506169662389507 -0.29499648331705297 0.09690918739588462
0.020550911977599885 -0.29787660875485406 0.10028449274164312
0.026295384966706158 -0.3003406522516865 0.10378696871178268
0.03226447616416515 -0.3023983207611489 0.10743101570888217
0.03842603488718579 -0.3040625246513032 0.11122058151713292
0.04475040977447972 -0.3053500636474401 0.11514795750850397
0.05121348298335638 -0.3062821512684533 0.11919504470089051
0.057797999700179 -0.3068861208794586 0.12333846700829154
0.06449011731061659 -0.30719282089273253 0.12755653343739148
0.0712739531979258 -0.3072351440573582 0.131830490765339
0.07812735935873395 -0.30704777864483795 0.1361461444012423
0.08502013499227945 -0.3066694201608153 0.14049496949934284
0.09191393726445005 -0.30614347411509457 0.14487337892560795
0.09876507951735568 -0.30551826896226963 0.1492817897685726
0.10552773339343913 -0.30484550546694833 0.15372023768381926
0.11215609078030685 -0.30417808103315014 0.15818370340505641
0.11860694385798413 -0.30356799925330513 0.16266097250426084
0.12484265918320384 -0.3030659551819445 0.16713425555484435
0.1308337795276461 -0.3027193692052921 0.1715822016060957
0.13655921459694015 -0.30257141500997464 0.17598302025402413
0.1420072959088915 -0.30266065041163615 0.1803161488748407
0.1471763639641149 -0.30302101926989833 0.1845681438053766
0.15207220482389583 -0.3036834151099479 0.18873327790605937
0.15670318922938478 -0.3046784404324917 0.19281279269414153
0.16107662763356495 -0.30603682091588297 0.19681280827309178
0.16519458027130443 -0.3077887689505348 0.20074166724765802
0.16905137903792122 -0.3099610592610374 0.20460988674281042
0.1726305468473303 -0.31257226834579505 0.2084286235893125
0.17590279492225763 -0.31562801235950877 0.21220812993200833
0.17882912809479043 -0.31911706963989717 0.21595275858235818
0.1813705731163851 -0.3230099392524334 0.2196588138911531
0.1835032129466636 -0.3272681436327805 0.22331817255127678
0.18522154080697784 -0.3318561819118814 0.22692500680812355
0.18653336278869945 -0.3367458690447939 0.23047624934443964
0.18745535752890552 -0.3419111744466551 0.23396709497321375
0.1880142342454738 -0.34731973784101167 0.2373884754207183
0.1882493491629925 -0.3529260650582741 0.24072897040540736
0.1882134976343238 -0.35867103334201217 0.2439767660844794
0.18796825453759494 -0.3644881625563203 0.2471255629627556
0.18757671556490713 -0.37031723770777036 0.2501776206730038
0.18709540348188497 -0.3761167666476044 0.2531475522066108
0.1865724220306132 -0.38186239815036577 0.2560623319810763
0.18605403392408612 -0.3875203901394279 0.2589501720055767
0.18558785784011814 -0.393006182567698 0.26181464974064744
0.185217472301709 -0.3981720414573292 0.2646048692099482
0.18497105023118116 -0.40286427145178855 0.2672269795545071
LINES 1 120
119 0 1 2 3 4 5 6 7 8 9 10 11 12 13 14 15 16 17 18 19 20 21 22 23 24 25 26 27 28 29 30 31 32 33 34 35 36 37 38 39 40 41 42 43 44 45 46 47 48 49 50 51 52 53 54 55 56 57 58 59 60 61 62 63 64 65 66 67 68 69 70 71 72 73 74 75 76 77 78 79 80 81 82 83 84 85 86 87 88 89 90 91 92 93 94 95 96 97 98 99 100 101 102 103 104 105 106 107 108 109 110 111 112 113 114 115 116 117 118
POINT_DATA 119
SCALARS Curvature float
LOOKUP_TABLE default
-0.008341813043456292
-0.008492772039028427
-0.0001279679622437474
0.017617884078091464
0.04447206719399443
0.07892142544936198
0.1182789153198746
0.15892236042875602
0.19668472199813522
0.2273530090865907
0.24721558483456402
0.25358762835940324
0.24524352078274764
0.22269341091320732
0.18825839893252674
0.14592268997260952
0.1009687981776707
0.05942992332242046
0.027418335927852488
0.010406690625112104
0.012548117015791602
0.036119312344519865
0.0811586094934315
0.14534940861788065
0.2241709527684945
0.31130662533316955
0.3992686685915695
0.48017138176878127
0.5465658623955248
0.592240669969002
0.6128956111764917
0.606609935665562
0.5740499432530932
0.5183914785884678
0.444966312563642
0.36067387610662804
0.2732272431303315
0.19032130513908724
0.11881943949421157
0.06405168241274317
0.02930296540747444
0.015546233533738692
0.021445248907609585
0.04361935869353944
0.07713150884855109
0.11613510769324345
0.15459806324566414
0.18701541343529327
0.20902608313524215
0.2178636845103794
0.21259389669407702
0.19411878743727348
0.1649578483957237
0.12884276210746398
0.09018461961427471
0.05348586999056783
0.022773221165621724
0.001121815465148291
-0.009673661985042069
-0.009246546460435025
0.0013850773240431753
0.020036829888986984
0.043713902717042966
0.0690502808497265
0.09276878110716949
0.1120995345508455
0.12510305182010542
0.13085943549493947
0.12950533059877026
0.1221219626608062
0.110498077770134
0.0968080057471223
0.08325528106941944
0.07173504924552657
0.06356368737505283
0.05931256161836506
0.058766428367055375
0.06100810208087737
0.06461239616531833
0.06791663561013889
0.06932442219079347
0.0675952268710776
0.06207526498831892
0.05283445337303789
0.04068861785541564
0.02710337962238897
0.013993776485697747
0.003449120591901872
-0.002576356839515103
-0.0025614376285504306
0.0043396307596550625
0.01814623141235527
0.03801487385907549
0.062323413071893194
0.08886487034252365
0.11512389192111468
0.13859692632784507
0.15711086108620184
0.16909505505172878
0.1737684156884715
0.1712154458995829
0.1623412629670342
0.14871315860865564
0.13231278396874305
0.11523610304268203
0.0993859410961737
0.0862031006082237
0.07647639962022773
0.07026035506613061
0.0669132143245248
0.06524991545662416
0.06378695142897661
0.061041614240789036
0.05583888593029405
0.047576787261244986
0.036405810089418206
0.02328962919203282
0.009931114391905757
-0.0014325455709935893
