# vtk DataFile Version 2.0
Vessel Segment
ASCII
DATASET POLYDATA
POINTS 119 float
-0.0032781912865372264 -0.004208386850019678 0.001520024281025393
-0.0071839058113521564 -0.009142809181332676 0.0032855648027365148
-0.011569254761617988 -0.014659073926423932 0.005178126460936041
-0.01625110569363447 -0.020515845117885755 0.0070105608342682195
-0.02106276013085595 -0.02644768174109188 0.008645398111352922
-0.02589905683980977 -0.03228708594583646 0.010009153250346594
-0.03069435443999008 -0.037948804134187164 0.011031243634696937
-0.03539454598086218 -0.043391136189302404 0.011621158450771538
-0.03994091648212534 -0.04859925143045093 0.011676003895428569
-0.044269431266435275 -0.053585736498469184 0.011106353264358002
-0.04831533444631492 -0.05838927614872291 0.009854744252409195
-0.05201814113227366 -0.06307121358515407 0.007905538326384944
-0.055323724989363374 -0.06771323984229012 0.005269540612610079
-0.05817318461928402 -0.0724014645826745 0.001970227622013148
-0.060472546405212324 -0.07719737139930213 -0.0019334146742136494
-0.062168801325229485 -0.0821530786391463 -0.006302173163322431
-0.06325214541640523 -0.0873295480032535 -0.011042797470309515
-0.06368880068648465 -0.09272673165807521 -0.0160650394097813
-0.0634657278552877 -0.09830873093343487 -0.021270756166541616
-0.06259752086532219 -0.10403017754990888 -0.026577985005417155
-0.06111837820563208 -0.10985707329250083 -0.03192244602614014
-0.05907498230447611 -0.11576729513327837 -0.03723532360481264
-0.05653786177697469 -0.12173347855243215 -0.04241005679665012
-0.05361712009500425 -0.12770296184527796 -0.047294601962594336
-0.050455113807631735 -0.13359223159065386 -0.05171912031333804
-0.047195900182291 -0.13930837189569448 -0.055532620287364116
-0.04396875803989971 -0.1447711424702333 -0.05859790064603368
-0.04090363488952444 -0.14988361724812901 -0.06074358676099624
-0.03817758993477832 -0.15447658556666116 -0.06176642932313031
-0.03595793226903799 -0.15833819027480872 -0.06159216813040081
-0.03427765393978953 -0.16137241778693234 -0.06033902317846487
-0.03302891204456262 -0.16366711536341924 -0.0581744968986702
-0.032099912152429806 -0.1653628060003502 -0.055112237666179405
-0.03143675994925689 -0.16649477684675074 -0.05110399545840872
-0.031016560875819537 -0.16706958837773886 -0.04615276271703124
-0.0308318197294555 -0.16712814165444392 -0.04033789078612921
-0.030870202064569613 -0.16676142296516297 -0.03384115476495062
-0.03109123505934451 -0.16611312176207782 -0.026953967974488027
-0.0314203251135494 -0.16537892198908372 -0.02004833361274825
-0.03175554294891339 -0.16478898301401954 -0.013415951156822467
-0.03203215012557568 -0.16452359956050558 -0.007068210526602496
-0.03222381887828384 -0.1646911464216888 -0.0008994815909956818
-0.03230187065995356 -0.1653853611043618 0.005207012625942276
-0.03223740265445733 -0.166701723687397 0.011360497154437111
-0.03200467123654877 -0.1687377150727539 0.01763749176740695
-0.03158572959294169 -0.1715830441165695 0.024064057206669688
-0.030983073219349233 -0.17530799753396156 0.030608020661231687
-0.030227911526811008 -0.17995264620681012 0.03719295304625871
-0.029363064961863174 -0.18555021928804527 0.04373634859009507
-0.02842810607894234 -0.1921279293033201 0.050136609041768046
-0.02746596042259743 -0.19965384740476494 0.056263866696454216
-0.02652508078137127 -0.2080222474063001 0.062007303048772985
-0.025649174599814493 -0.21709558680346433 0.06730470039443794
-0.024867678119418226 -0.22672726597260606 0.07213609658039842
-0.02418815062706449 -0.23676663400829426 0.07651464946579316
-0.023593724007843143 -0.24704807058653785 0.08047970822769977
-0.023044509853526126 -0.25738087916557884 0.08409653998238692
-0.02248293263574906 -0.26756366604517223 0.08746434067561266
-0.021838354554224927 -0.27741922529683755 0.09071846580346579
-0.021025422656466362 -0.2868350690871983 0.09402207888335837
-0.019940908427783774 -0.29578889036075995 0.0975340166921505
-0.01848455268166846 -0.3043210387300565 0.10136389218885336
-0.01657125111384511 -0.31248760919345475 0.10557032913398712
-0.014128591613526744 -0.32033438513963436 0.11016322851328486
-0.011103354045110071 -0.32788072913721006 0.11510575308879374
-0.007464101753963363 -0.33511154481187067 0.12032519084930807
-0.0032011618308307073 -0.34197984880636334 0.12572212687188658
0.0016736713633172338 -0.34841768819362623 0.13118344659266415
0.007133221585961468 -0.35435640065695256 0.13660035954910957
0.01314725812561343 -0.35974295397440403 0.14188547234940835
0.01968841749269236 -0.364537076507559 0.1469803289512943
0.026729171373721182 -0.36870975861385796 0.15185632540680927
0.03423606670281707 -0.3722425316906437 0.15651446586854428
0.04216578902730116 -0.37512715650276074 0.16098714189977234
0.05046487705808872 -0.3773635406077473 0.1653360504504928
0.059069152471189906 -0.3789552362845344 0.16964132958826098
0.06790330997091736 -0.37990964231736896 0.1739856062704637
0.07688336328955774 -0.38024238187845605 0.1784362642343604
0.0859242153803435 -0.3799853132083778 0.18303665862226615
0.09494548766041729 -0.37918783210748147 0.1878038110036032
0.10387383914089905 -0.37792022099139083 0.19272993667311103
0.11264164126030285 -0.376269464346345 0.19778995740738425
0.12118701354519919 -0.37433681157460047 0.20294194130389007
0.12945818863941813 -0.37223158443414966 0.20813482933221164
0.13742135630535576 -0.3700656983803291 0.21331924906124752
0.14506811649235327 -0.3679400713432954 0.21845880576643673
0.1524190923790058 -0.3659307238300543 0.2235395215565992
0.1595142742402901 -0.3640819403459163 0.22856713464444314
0.16639611571557608 -0.36240987658447094 0.2335566285558495
0.17309869065710512 -0.3609150221543273 0.23852318493554348
0.1796467462283304 -0.35959544648328395 0.24347605887282775
0.186058900126432 -0.35846111566994704 0.24841890242822381
0.19234503306521056 -0.3575439031431802 0.25335168589419177
0.19850252291202314 -0.3569043896016164 0.2582693500299803
0.20451313802370938 -0.35662637469437436 0.263166642913415
0.21034792296356783 -0.35680445125816435 0.2680382224330623
0.21597312649225844 -0.3575352032828273 0.27288126700295723
0.22135633566524296 -0.358909603224505 0.2776972746355981
0.22646318984267153 -0.3610095865242657 0.2824889205304704
0.23125356456840715 -0.3639038206965531 0.2872611166871712
0.23567064319319497 -0.3676390861205519 0.2920164853209681
0.2396342397471161 -0.3722288339928482 0.2967543386091425
0.2430463197618273 -0.37764332415903124 0.3014663251047207
0.24580855894136164 -0.38380306262279146 0.3061372036758983
0.24785190933717255 -0.39059820091422487 0.31075326494663574
0.24914541215220617 -0.39791134313067383 0.31531118449654616
0.24969466185520214 -0.40562728358950995 0.3198141347259587
0.2495439144210593 -0.41362070954179014 0.32425855950830185
0.248787500770054 -0.4217441617839671 0.32862707957426285
0.24757224698517824 -0.4298288971167819 0.33289501847094966
0.24607901018423253 -0.43770553323196654 0.33703789237768567
0.24448564922373814 -0.44523096468557316 0.3410404944950364
0.24293668153594863 -0.4523180578807668 0.34489676865676944
0.2415221864739162 -0.45895875069483777 0.3486179899081407
0.24028187953045765 -0.4652121352942506 0.3522361114862071
0.23923111882133913 -0.4711455819816228 0.3557841418985664
0.23838419377034217 -0.4767606468404092 0.35925114689366755
0.23775730909025844 -0.4819690762916498 0.3625419136005751
0.23735535601132113 -0.48665079543342143 0.3655077924756476
LINES 1 120
119 0 1 2 3 4 5 6 7 8 9 10 11 12 13 14 15 16 17 18 19 20 21 22 23 24 25 26 27 28 29 30 31 32 33 34 35 36 37 38 39 40 41 42 43 44 45 46 47 48 49 50 51 52 53 54 55 56 57 58 59 60 61 62 63 64 65 66 67 68 69 70 71 72 73 74 75 76 77 78 79 80 81 82 83 84 85 86 87 88 89 90 91 92 93 94 95 96 97 98 99 100 101 102 103 104 105 106 107 108 109 110 111 112 113 114 115 116 117 118
POINT_DATA 119
SCALARS Curvature float
LOOKUP_TABLE default
-0.006574756365748537
-0.007876206249280815
-0.0012405632114048518
0.014063486797590929
0.03766142366965151
0.06802019744905381
0.10255744137390155
0.13790632849703938
0.17030792638301326
0.19608411529010197
0.21213108536770908
0.21636804956947747
0.20807904233814292
0.18809732464069853
0.1588006574102058
0.12390923713437926
0.08810342321582175
0.05650224042563369
0.03406285477314398
0.02497318969559931
0.03211286445227495
0.056651128610187756
0.0978350941590933
0.15299914653845403
0.21779969921677114
0.2866517827553454
0.3533188285343064
0.4115876287875917
0.455949330016275
0.4822059130383504
0.48793016703895614
0.472724648369186
0.4382493608020691
0.3880158730778935
0.3269737971042974
0.2609404550925606
0.19594306124595023
0.1375525512209286
0.0902881407633993
0.05716187151040206
0.03941413434113254
0.03646683775998842
0.04609364668585123
0.06478003002139474
0.08822308623632347
0.1119050843777842
0.13166728211025913
0.14421264340239395
0.14747713252930067
0.14082771342478723
0.12506851139274575
0.10226168859792403
0.07539316398767357
0.04793234959050601
0.02334720616995469
0.004639720729727051
-0.006037922779958465
-0.007638826717047779
-0.0003194154723604867
0.014627195952418725
0.03498749882887344
0.057958965090538564
0.08054752068983848
0.09997475556976654
0.11403896207906873
0.12138214218432898
0.12162949933479175
0.11538653095604398
0.10409902397908155
0.08980022186920093
0.0747845876950221
0.06125691210028778
0.05100782243090107
0.04516184216281144
0.04403283215493233
0.04710559898829041
0.05314399755774607
0.060407609085686195
0.06694360596825458
0.07090987046174996
0.07088125450476432
0.06609358836831894
0.05658923038668278
0.04324225915683522
0.02765879277463227
0.011965905767293387
-0.0014813410588374093
-0.010433401475949422
-0.013072945422504922
-0.008288160968944882
0.004146618432925437
0.02350934946512159
0.048197530491360774
0.07591597951664758
0.10395993541977398
0.12955487531147852
0.15020643587644353
0.1640123544183583
0.16989362437213323
0.16771336078922006
0.1582676164032251
0.14315037176931325
0.12451261499591194
0.10475033028578995
0.08616621394710793
0.07065359602602286
0.05944781501904938
0.05298059022016948
0.05085809536821167
0.051965528591555184
0.054682519012393176
0.05717733345758408
0.05773590606296197
0.055075969019413605
0.04859792202961729
0.0385324593006631
0.025959303077082448
0.01268974398379438
0.0010255347351698389
