# vtk DataFile Version 2.0
Vessel Segment
ASCII
DATASET POLYDATA
POINTS 119 float
-0.00323672164852097 -0.005919905136828252 -0.0002461792766468431
-0.007148131597327255 -0.012120022591137815 8.744790928858138e-05
-0.011560272160081392 -0.01832734946433006 0.0008593773594199956
-0.016280543606825806 -0.024342018127806484 0.0018830422975549526
-0.021149108030656966 -0.03006815432404779 0.002954828304178523
-0.026032958909162823 -0.03546455898295401 0.0038648970282754843
-0.030811590972123607 -0.0405126962260375 0.004408349169796415
-0.03536734201915177 -0.045200698251643356 0.00440287751659686
-0.03959486788761205 -0.049523552091826815 0.0037193053401649552
-0.0434314105236688 -0.053506202696056486 0.002301451254771784
-0.04687222531231245 -0.05722925729125661 0.00012892711300610104
-0.04992901007199519 -0.06080062377674267 -0.002834253138800868
-0.052575500560386984 -0.06430481325544159 -0.006610870633107734
-0.05474457065559995 -0.0677941951231168 -0.01112935059480935
-0.05638139850434525 -0.0713123647982901 -0.016223376458428296
-0.0574579346443364 -0.07488984219416903 -0.02170551364119456
-0.057965323602968695 -0.0785345669153615 -0.027403429211898717
-0.05790941087153971 -0.08224272996048676 -0.03319024966501747
-0.0572979811279015 -0.08600600581139786 -0.038982727354763436
-0.05614414134553986 -0.08982053356465239 -0.04471453164139198
-0.054471584054498055 -0.09369259511889895 -0.0503350557970162
-0.05231975345166533 -0.09762647663013793 -0.05579195431148345
-0.04975761985072282 -0.1016184024170591 -0.061009235877001286
-0.04689116971092641 -0.1056501670263088 -0.06587059533707862
-0.043871988072656055 -0.10966926013326397 -0.07021162453734588
-0.040894924818354446 -0.11357080236463096 -0.07385273285713168
-0.038154988704365476 -0.1172280078237056 -0.07667929091364487
-0.035793449625972786 -0.12055636953501843 -0.07868698019763508
-0.03386082249855115 -0.12352110325597758 -0.07995748113256358
-0.03234444175948262 -0.12610920686580318 -0.08059863580298755
-0.031194423789545705 -0.12834711419912212 -0.08071507877413893
-0.030351230277799155 -0.1302821986741574 -0.08037365300277753
-0.02976382565772405 -0.13196597647409083 -0.07959169652677486
-0.029402774131974344 -0.13343324343131868 -0.07835457695846322
-0.02925023077223894 -0.1346986402171277 -0.07663560674415627
-0.029302533051534758 -0.13575137279176394 -0.07438703213263952
-0.029578135583864608 -0.1365492470888903 -0.07154544712614434
-0.030114604573002125 -0.13701791155515405 -0.0680527659872384
-0.030949969356627693 -0.1370638963234537 -0.06389184255670784
-0.032097635379464515 -0.13660836942173035 -0.05914181799681981
-0.033497590850995726 -0.1356585633051764 -0.05402362484078588
-0.03503885077745788 -0.1343264573231553 -0.04875627724693036
-0.036616671899419834 -0.13276286740994914 -0.04348989793513995
-0.038141114884516894 -0.1311258780228554 -0.03831764471151827
-0.03953889348628321 -0.12956754673506848 -0.0332836937758234
-0.04075448795357823 -0.1282244612117544 -0.028393207760525632
-0.04174647571505595 -0.12721615671914047 -0.0236282303299538
-0.04248505078747164 -0.12664810509101113 -0.018976343426387654
-0.04296249765558075 -0.12659449566852998 -0.014461975790905149
-0.043196892013772616 -0.12707672730086256 -0.010124707181942524
-0.04321559085052549 -0.12807936698740283 -0.0059850072809150235
-0.043044409489496664 -0.12958367248195274 -0.0020425811258294665
-0.04270428476732857 -0.13157972191880496 0.001706511264800589
-0.04221100101284283 -0.13406161060008553 0.0052637045770130945
-0.04157555159556007 -0.1370244734309907 0.008636463103603722
-0.04080294729848272 -0.14046700678586188 0.011843895821563808
-0.039892212327369656 -0.1443909524244876 0.014908787863923745
-0.038841132049174276 -0.14878936439143667 0.017841567456913072
-0.03765399559195748 -0.1536335146583447 0.02062342057518994
-0.036350697613404835 -0.15886545361989657 0.02320165471967966
-0.03496780993623041 -0.16439981449008143 0.025516399991631522
-0.0335317406284159 -0.1701461762658572 0.02754143217753615
-0.032043597617421725 -0.1760197650661513 0.029281388625141503
-0.030486316618919162 -0.18193281318444915 0.03076637661819497
-0.028832090163686392 -0.18779737860042406 0.032049965200760706
-0.027054199074675024 -0.19353524707389042 0.03320017144891471
-0.02513391414941815 -0.19908209017889908 0.03429164464390826
-0.023060393839314283 -0.20439002355456481 0.03539965467366531
-0.02082875225250547 -0.20942593330428322 0.0365947848858908
-0.01843740613460257 -0.21417115997887476 0.037938539265752975
-0.015884179547019178 -0.21862267494217708 0.039481439374746886
-0.013162313929781958 -0.22279105402608537 0.041264595968684634
-0.010257264201649121 -0.22669655283411586 0.043320598175189885
-0.0071485900514040995 -0.23035908313186207 0.04567072977203524
-0.0038179784967929276 -0.23379078783219157 0.04831840416721476
-0.00025602919802033804 -0.23700012005259863 0.051243853273851725
0.0035408591684090475 -0.2399961450224587 0.054408122686278246
0.0075767643538434395 -0.24278682092307827 0.057761779927476026
0.011858934415485294 -0.24537533480343487 0.06125074542803286
0.01640086505149391 -0.24776155002026276 0.06482232827992443
0.021224203085567845 -0.24994336949214174 0.06843452232998695
0.026355142614109702 -0.25191469999814087 0.07206304077986207
0.03181521382438687 -0.25366228033604 0.07570297974348715
0.03760976304697407 -0.2551663080593726 0.07936561657147498
0.04371596245806884 -0.2564050064475965 0.08307227202203386
0.05007424428216703 -0.2573654637239983 0.08684537139488716
0.056588358242241475 -0.2580581033033395 0.09069971246717361
0.06313895733314859 -0.25852602896405685 0.09463564038414043
0.06960337245800038 -0.2588437241261987 0.09863718632270103
0.07587097988065247 -0.25910364747499537 0.10267572414644324
0.08185071016119803 -0.2594016692439717 0.10671401275969083
0.08747314857544196 -0.2598172943416433 0.11071130306217393
0.0926934117565354 -0.26040147477136255 0.11462761174051432
0.09749508386676572 -0.26117059135424164 0.11842768004649101
0.1018926340363376 -0.2621132825065811 0.12208787746148123
0.1059221090953591 -0.2632050500239082 0.12559852734738558
0.10962859406413655 -0.26442062768526214 0.12896213609277296
0.11305667469408429 -0.26574158540010884 0.13219010685008067
0.1162464426781617 -0.26716000528757256 0.13530153375249854
0.1192305640562779 -0.26867868740013245 0.13832123895255632
0.1220342023105464 -0.27030974251522993 0.14127808211121926
0.12467322568891083 -0.2720720789195182 0.14419989503370437
0.12715353860583578 -0.2739872390504505 0.1471061248148861
0.12947520730415948 -0.2760769131008923 0.1500028700763531
0.1316386810086436 -0.27836203861078934 0.1528834242131528
0.13364761904311032 -0.2808662990002937 0.15573478642117014
0.13550457826505619 -0.2836176010214736 0.15854290642762361
0.1372049694660256 -0.286648928813033 0.16129537283402726
0.13873241202838948 -0.2899945731686412 0.16398216889749975
0.14005970025432082 -0.29368333954736936 0.16659449694084177
0.14115746292911377 -0.29773156826349445 0.169124167520311
0.14200583371234873 -0.3021408326930263 0.17156834973483773
0.14259988511340088 -0.3068967928633235 0.1739346277293967
0.14295297365193887 -0.3119614741425461 0.17624111157595965
0.14309885270230627 -0.31726427109459737 0.17851374903282693
0.14309242539219028 -0.3226942716600332 0.18078208188594025
0.14300026593597018 -0.32808951315607304 0.18306923142221376
0.14288624894504767 -0.33324197629648683 0.18537096638658163
0.14279838242977935 -0.3379622758282933 0.18765027937064258
LINES 1 120
119 0 1 2 3 4 5 6 7 8 9 10 11 12 13 14 15 16 17 18 19 20 21 22 23 24 25 26 27 28 29 30 31 32 33 34 35 36 37 38 39 40 41 42 43 44 45 46 47 48 49 50 51 52 53 54 55 56 57 58 59 60 61 62 63 64 65 66 67 68 69 70 71 72 73 74 75 76 77 78 79 80 81 82 83 84 85 86 87 88 89 90 91 92 93 94 95 96 97 98 99 100 101 102 103 104 105 106 107 108 109 110 111 112 113 114 115 116 117 118
POINT_DATA 119
SCALARS Curvature float
LOOKUP_TABLE default
0.020503208679452004
0.01908967671622638
0.02596553637057353
0.04188919251999688
0.0666422262610714
0.09891604839667169
0.13633349216740168
0.17561672072936152
0.21289366573975066
0.24411571937640417
0.2655422161254039
0.27423482623639733
0.26849928208803236
0.24821400910744235
0.21499538135448784
0.1721665659710599
0.12451938711348576
0.07788369440631539
0.038543284863894606
0.012558362788201669
0.005069036223996858
0.019660363344590398
0.05786590331723202
0.11887368902887105
0.19947730841569597
0.2942876997297642
0.3961914648664132
0.4970125279035224
0.5883093357343275
0.662222575528751
0.7122807817134661
0.7340742984993945
0.7257216428175408
0.688074892379928
0.624639715215024
0.5412176752880694
0.445309722628722
0.3453466087852907
0.24983118905975946
0.1664869262804138
0.10150533108539593
0.058972812335968954
0.04053600123333957
0.04533667389790049
0.07021630876227407
0.11015979608047184
0.15892146785284034
0.20975748104874903
0.2561787866872906
0.29263940575059105
0.31508519852550493
0.3213072417013964
0.3110688092872874
0.2860026187790622
0.2493020276259694
0.2052529974824938
0.1586702111289062
0.11430894918078505
0.07632352225235005
0.04783366697823697
0.030643863464009373
0.025139360043471
0.030359648089267662
0.0442281916056252
0.06389910221197713
0.08616928071818997
0.10789959223364441
0.1263911886964445
0.1396724412647692
0.1466665379593312
0.14722746124594369
0.14205029825307497
0.13247819792059926
0.12024067855918674
0.10716493682699016
0.09490264701469629
0.0847096613913204
0.07730602469429682
0.07283043151207338
0.0708887049991492
0.0706821733681565
0.07119087663206315
0.07137979451994075
0.07039453840630819
0.06771624224805153
0.06325303901418297
0.05735623065113869
0.050761356492993466
0.04446599292322576
0.03956555381421174
0.037074254857007584
0.03775996330762173
0.04201875065906701
0.04980814305892857
0.060648445742468325
0.07369062955988306
0.08783880652685222
0.10190689856612527
0.11478400407880981
0.1255819576913646
0.13374179496527386
0.13908276055018925
0.1417870463170724
0.14232411648084078
0.14132858600917428
0.13945355302002618
0.13722574804643622
0.13492907392018225
0.13253893598570937
0.12972174802628098
0.12590329967866484
0.12039789149473838
0.1125791090733556
0.10206459362274765
0.08888263117928263
0.07358873821194561
0.05730587724990215
0.04167194289404794
0.02869145862044239
