# vtk DataFile Version 2.0
Vessel Segment
ASCII
DATASET POLYDATA
POINTS 119 float
-0.0032145960256660298 -0.005073458987173844 0.0005533620509411796
-0.007096707981615928 -0.010669633187105745 0.0015199531251699396
-0.011482220394229792 -0.016554082395316323 0.0027788035771271237
-0.016179278796988703 -0.022492137223680486 0.004150217272550966
-0.02102051031335468 -0.028303001664520603 0.005462731103350284
-0.025881957259912627 -0.03388586983637872 0.006565779367963195
-0.03066532909526866 -0.039191390348990066 0.007311655627121832
-0.03527869668234305 -0.04419312212375339 0.007556297246878899
-0.039633935195918193 -0.04887939790344854 0.007180973258398379
-0.04366486673102003 -0.05326762786615921 0.0061169415343772585
-0.047340679181213006 -0.05742056251757232 0.004333449765537765
-0.050644687833337275 -0.06142831129961828 0.0018107733390308432
-0.0535429999451005 -0.06537694850036524 -0.0014538171168253038
-0.05597701224812947 -0.0693365846918845 -0.0054109153344421585
-0.0578786313437799 -0.07336179121401554 -0.009948509664115418
-0.059208324748943886 -0.07749106687205175 -0.014905549066885349
-0.05995487414596893 -0.08175155807662836 -0.020148171109459337
-0.060106405512118564 -0.08613976981540106 -0.025567273440456565
-0.05966155687702034 -0.09063556172733592 -0.03107309196815501
-0.05863360703563933 -0.0952184299841567 -0.0365926189042595
-0.057049864765093106 -0.09987894351674302 -0.042069382778158707
-0.05495192766621919 -0.10461101222502123 -0.0474436148402351
-0.052408746251240895 -0.1094012863463672 -0.052625752412495966
-0.04952744306167897 -0.11421755325342756 -0.057484040134978945
-0.04645486486715575 -0.11899459423738759 -0.0618520202315138
-0.043363914404583016 -0.12363159871839913 -0.06556235205087274
-0.04042339993215025 -0.12801900790584367 -0.06849018942379809
-0.037773812128732986 -0.13206565618413574 -0.07056142000281698
-0.03552197136514172 -0.13568033413936356 -0.07174189727769835
-0.03373188775578648 -0.138763942898597 -0.07206751361878135
-0.03239128249242068 -0.1412826760019537 -0.07165913281202914
-0.03141833163065818 -0.1433052924983522 -0.0706544348313018
-0.030724700357995086 -0.14495478984257282 -0.06909167599378738
-0.030263898033918185 -0.14629767466515806 -0.06692437419299062
-0.030019841124812336 -0.14734407669132316 -0.06410153975452665
-0.02999280489885972 -0.14808165773952556 -0.06059521640206645
-0.030192415865315615 -0.14849345906799546 -0.056416685345794595
-0.0306254078854774 -0.1485686739236488 -0.05163539844678173
-0.031278598119492684 -0.14832096932736186 -0.04639616180936186
-0.03210629938815067 -0.14781157467444608 -0.040894106961208466
-0.03303685286834308 -0.14714840986869968 -0.035306675118478986
-0.03399370446763386 -0.1464596213816227 -0.029749472838518354
-0.03491021497501123 -0.14586911844658035 -0.02428292450085106
-0.03573363032800261 -0.14548586336155253 -0.018929571759768365
-0.03642501302999751 -0.14540267790984937 -0.013685685751999363
-0.03695782304986608 -0.14569867181769267 -0.008529855218991753
-0.03731618618785146 -0.14644709704067602 -0.0034340824387048942
-0.03749355302859843 -0.14772133422577502 0.0016198809226824406
-0.03749367466493669 -0.14958942029227978 0.006620565153928276
-0.03733062996397964 -0.1520943824956169 0.011522402366232696
-0.0370247979696519 -0.15524099858447474 0.016266445499947067
-0.03659989766453354 -0.15900792118689888 0.020806329986378543
-0.036078822207901845 -0.16336452910526914 0.025111208431750222
-0.03548013922861334 -0.16827242024809283 0.029160996768241312
-0.03481509184453301 -0.17368458262344172 0.03295048769680886
-0.034085056099292535 -0.17954480926677913 0.036492683895006484
-0.03328082627226297 -0.18578551449963016 0.03981534814089284
-0.03238577400205984 -0.19232533064824242 0.042955222820753376
-0.031380238713875526 -0.1990731669415629 0.04594976450714748
-0.030244972243546827 -0.20593808840364244 0.04883148339267872
-0.02896101297871986 -0.21283933600131244 0.05162890298073202
-0.027504274008038752 -0.21971235059901856 0.05436868584054206
-0.025843798680222744 -0.22650378258632542 0.05707129008083951
-0.02394572795706435 -0.23316242133659695 0.05975050703791428
-0.021778672966086005 -0.23963846816759654 0.06241708602020991
-0.019319353191165175 -0.2458850982527488 0.06508098970618725
-0.01655474396637149 -0.25185784789416493 0.06775171580448551
-0.013481170094408718 -0.25751574490225265 0.07043908609197173
-0.010101634443950428 -0.26282442073046547 0.07315441167249943
-0.006421595748554432 -0.26775968549338575 0.0759113072484586
-0.002446582917203465 -0.2723059377586496 0.07872529405974193
0.0018181407673757916 -0.27645542964521724 0.0816141353367899
0.006367737778423576 -0.28020777768042365 0.08459806415179064
0.011196413924148583 -0.28356654361523675 0.08769927165908219
0.016293677705925137 -0.28653608302593503 0.09093863220857619
0.02164071271303361 -0.28912263224806983 0.09433010967160302
0.027212990567792285 -0.2913359923441726 0.097878623694709
0.03298508516966685 -0.29318853423512575 0.10157906990825397
0.038934366093789016 -0.2946949747065053 0.10541623146359023
0.045043908762117765 -0.29587287796880846 0.1093666657644548
0.05130385367931514 -0.29674417875290615 0.11340440598915495
0.05770780576295094 -0.29733270128917655 0.11750787267249213
0.0642466430838715 -0.2976625908794119 0.12166121548324718
0.07090299170284141 -0.29775854310706074 0.12585507977808805
0.07764779204298636 -0.29764875084938763 0.1300864003850445
0.08443885612337373 -0.29736746734485076 0.13435611249102952
0.09122330880932053 -0.2969574752058735 0.13866682189147997
0.09794262249958119 -0.296469949902809 0.1430181082755425
0.1045377482811706 -0.29596205652776214 0.14740251450325734
0.1109538463270837 -0.29549288436343574 0.15180537736344976
0.11714397576662988 -0.2951207943342497 0.1562052345608146
0.12307162165655382 -0.29489867437540684 0.16057720766140568
0.12871132870796417 -0.2948711567853324 0.16489631402902793
0.13405035506969715 -0.2950732356307484 0.16913956163758193
0.13908967395497945 -0.2955312719943604 0.17329201389970936
0.14384026182716877 -0.2962666875868305 0.17734757456008196
0.148316784062247 -0.2973003516437185 0.18130789876279885
0.15253274178518764 -0.29865418454566983 0.18517991416756213
0.15649624270533216 -0.3003511589353311 0.18897333500096547
0.16020754864497697 -0.30241285573781257 0.1927003581201632
0.1636567705199112 -0.3048553594193634 0.19637430611618198
0.16682217478745293 -0.3076851538451551 0.20000770645100313
0.16967278249480475 -0.3108955329294126 0.20360704769262325
0.17217709755987207 -0.3144652964932359 0.20717021956773146
0.17431639784698247 -0.31836634348486026 0.21068957353611423
0.17608772414945198 -0.32257411013033827 0.21415851141177006
0.17749864724897435 -0.32707134624757417 0.21757268608667113
0.1785622625286302 -0.33184409371302553 0.22092674920740232
0.17929710493515905 -0.33687397678279624 0.22421240247212
0.17972951031595363 -0.3421309369775775 0.22741963070858348
0.179896220284405 -0.347570665451613 0.230537942409952
0.1798432913080941 -0.35313853342381396 0.23356191513436952
0.17962168182930646 -0.3587806017549031 0.23649471267395153
0.17928130817748456 -0.3644534256068735 0.23935133865430572
0.17886930657962405 -0.3701225539018591 0.2421582194093932
0.17843475940272988 -0.37574005891889617 0.24494329413499905
0.17802929569254394 -0.38120825050060697 0.24771289833425292
0.1777002421092102 -0.3863697266270209 0.2504234634996844
0.17747919001789453 -0.39106517922085415 0.2529901641805365
LINES 1 120
119 0 1 2 3 4 5 6 7 8 9 10 11 12 13 14 15 16 17 18 19 20 21 22 23 24 25 26 27 28 29 30 31 32 33 34 35 36 37 38 39 40 41 42 43 44 45 46 47 48 49 50 51 52 53 54 55 56 57 58 59 60 61 62 63 64 65 66 67 68 69 70 71 72 73 74 75 76 77 78 79 80 81 82 83 84 85 86 87 88 89 90 91 92 93 94 95 96 97 98 99 100 101 102 103 104 105 106 107 108 109 110 111 112 113 114 115 116 117 118
POINT_DATA 119
SCALARS Curvature float
LOOKUP_TABLE default
-0.005106970516167284
-0.005440641093597543
0.0027234058366515947
0.020277380135048498
0.046989417857746976
0.08139226743456905
0.12083875519386035
0.1617292510417295
0.19989260714742996
0.2310796565511901
0.25151045951373147
0.25840569355202164
0.2504306448099048
0.2279877857955208
0.1933102818354708
0.15033212345944663
0.10433811760502162
0.06142523400861151
0.02783214508734355
0.009212847389281615
0.009940366180803179
0.03252616532160324
0.07722976832379372
0.14191236998672815
0.22216025875365458
0.3116720226248883
0.40287167490026543
0.4876819730879028
0.5583718376015768
0.6083815352971722
0.6330305683898767
0.6300259687266704
0.5997114751942771
0.545028145485128
0.4711906789706269
0.38511699554023177
0.29467736587283416
0.20785012095503919
0.13188118042093755
0.07254313863747193
0.03357669832129795
0.016374523688473034
0.019937975260565684
0.04110438996519107
0.07501064126063557
0.11573155399435026
0.1570126092025181
0.19300745745962275
0.2189329552861042
0.23156723127812856
0.22953784258311422
0.21337450036925865
0.1853305513122068
0.14900561911006577
0.10882503284253016
0.06944711635878656
0.03517536656609114
0.009448550751621241
-0.005531363210892228
-0.008993779594308792
-0.001601417823362076
0.014730018343101392
0.03716099495919851
0.062354910883929165
0.08694096756327999
0.10794992409966014
0.12316628491208681
0.13135451421290495
0.13233604764170825
0.12691540213396876
0.11667456063375996
0.10367219707466564
0.09009593638207922
0.07792029641886267
0.06861984475993675
0.0629770918019344
0.061009343304420774
0.06202045803172194
0.06476486996698858
0.06769499256166663
0.06925148980328745
0.06815044243305099
0.06362281795796666
0.055569546053583455
0.04460865852754321
0.03200739300919991
0.01950945623097914
0.009083276852145496
0.00262879583602776
0.001686475494696666
0.007191905152595946
0.01931272378685187
0.037392565293827146
0.060011125382966095
0.08515252738888714
0.11045838803402135
0.13352964414141685
0.1522340899310761
0.16497572864833768
0.17088759353117527
0.1699208475542682
0.16281812107198182
0.15097599788295515
0.13621784716911622
0.12051143593025869
0.105673983693897
0.09310928907232534
0.08361691427508963
0.07730276459402695
0.07360523220360038
0.07143355302847794
0.06939769411027956
0.06609450575965004
0.06040524607645369
0.05175644966470266
0.04030009558274056
0.026979745089452386
0.013465399673902981
0.0019590977574615144
