# vtk DataFile Version 2.0
Vessel Segment
ASCII
DATASET POLYDATA
POINTS 119 float
-0.003226726115040544 -0.00467097228193168 0.0009728332709507384
-0.0071095820971337 -0.00996640352720397 0.002283630893617326
-0.011490050226048262 -0.01568565130142876 0.0038139077123106324
-0.01617848315606944 -0.021586241361854594 0.005382016160942512
-0.021006191044785898 -0.027447588004536966 0.006831709385492518
-0.02585630409271223 -0.0331387386242712 0.008045407422580447
-0.030644050258639713 -0.03859432074150651 0.008908124469993001
-0.03529315652667355 -0.043780804965414796 0.00929822302100704
-0.039727155122225036 -0.04868436359980246 0.009103334653704494
-0.04387981725318979 -0.05331956320657406 0.008246225720973832
-0.047705620949580224 -0.057738796822427135 0.006686315374612279
-0.05116984139715275 -0.06202040115118905 0.004407895580188068
-0.05423118679469501 -0.06624927181033104 0.0014158587127837763
-0.056832583379184884 -0.07050343377338514 -0.00225153359863586
-0.058896376991397145 -0.07484181801813514 -0.006506955939104711
-0.0603772102547161 -0.07930849723391226 -0.011200447496886496
-0.0612638770961377 -0.08394401549068414 -0.016216982772103188
-0.0615349589546324 -0.08874603612861287 -0.021456170297065515
-0.061184006096051145 -0.09368773868546397 -0.026824667778115
-0.06022466133634962 -0.0987384438963356 -0.032245642558113276
-0.05868685372956287 -0.10387879059222134 -0.03765926683870619
-0.05661402889578986 -0.10909615375394416 -0.043001807217371825
-0.05407558837044745 -0.11437134934010362 -0.04817634154216484
-0.051179730683377236 -0.11966367063689595 -0.05304245153185233
-0.04807115661168958 -0.12490029838656033 -0.057432325656608274
-0.04491043810072844 -0.12998345895855729 -0.061185589304917326
-0.041850163191475664 -0.13481517715693003 -0.06417199709885331
-0.03902760976881271 -0.13930131927169345 -0.06627663167047104
-0.03658017601021734 -0.14331769026813646 -0.0673954923308639
-0.03461577857613813 -0.14671686451709648 -0.06752027420027047
-0.03314198862232034 -0.14943698586637952 -0.0667762205868139
-0.03206486478267074 -0.15155912681814213 -0.06532399508568049
-0.03128244093054875 -0.1532257552706303 -0.06319499393028441
-0.030744076428500074 -0.1544968111863715 -0.06033206018560424
-0.0304325536728169 -0.15537694244748146 -0.05669507413393205
-0.030346278633855833 -0.1558675350640046 -0.05229217586668556
-0.030486434817565713 -0.1559875543674218 -0.047198843484358065
-0.030840136752585647 -0.1557833071221066 -0.041572746347276944
-0.03136699317682838 -0.15534173149372973 -0.035654297674783626
-0.03199465719114094 -0.1547991629727357 -0.029687864154972737
-0.03265246560446703 -0.15430207517733097 -0.02379514334997785
-0.03328617666710873 -0.15397313342448982 -0.018009276404704115
-0.03384867953334705 -0.15391836426373903 -0.012323222971163245
-0.03430215910285148 -0.15422931028314257 -0.006707737756707033
-0.034617933744098 -0.1549867002485703 -0.0011271215974343347
-0.03477571859883711 -0.15626367549667627 0.004449238020107033
-0.03476637444440399 -0.15813019330239036 0.010036062903757175
-0.03459453377224117 -0.16065291077410157 0.015625238380210304
-0.03427477348517065 -0.16389584921531478 0.021184714644977242
-0.03382751403407146 -0.16790411302541966 0.02664868258841993
-0.03327922264310945 -0.17267519068000914 0.03192830901904442
-0.032661492124324856 -0.17816157278004974 0.036948276244961144
-0.0320047172957379 -0.18429636347190437 0.04166115274258003
-0.03133214671474225 -0.19100222210342807 0.04604253822348356
-0.03065484024850866 -0.19819280599532577 0.05009045185977707
-0.02996883068213878 -0.20576887327702728 0.05382495257876057
-0.029254952765835434 -0.2136136274235389 0.057286076872167635
-0.028482439470304093 -0.22159681903279743 0.060533783491020385
-0.027612798623659236 -0.22959071402192066 0.06364440748241722
-0.026600624667048482 -0.2374918118127684 0.06670433366438056
-0.025392164771953406 -0.24523673012729283 0.06979675156622958
-0.023931576978559948 -0.2527957696748203 0.07298238998583187
-0.02216622695233079 -0.26015328447788244 0.0762949063349682
-0.020048450161437782 -0.2672936362255861 0.07974240148658757
-0.01754056888739086 -0.27419495775314023 0.08331270053469514
-0.014618064176512837 -0.2808259188791208 0.08698106195937705
-0.01127002234015663 -0.2871449200352075 0.09071468990421289
-0.007498304367108868 -0.2931038651086875 0.09447779572671333
-0.0033139095846304346 -0.2986573676794874 0.09823809298855542
0.0012696832512959725 -0.30377106974407664 0.1019726442966036
0.0062394666488421275 -0.30841950839272114 0.1056697599630946
0.01158154028070052 -0.31258549171743427 0.10932949799297616
0.01727904611391411 -0.316260083785199 0.11296403710724463
0.023310306137648645 -0.31944104317280364 0.11659852884461173
0.02964705829597825 -0.3221305012742676 0.12026874775629515
0.03625237739251286 -0.3243338023317071 0.12401370867642315
0.04308234803371773 -0.32606022138969176 0.1278682836783055
0.050089851534879305 -0.3273236167295505 0.13185566442178287
0.05722942104047795 -0.3281452007916323 0.13598383386478954
0.0644607843289851 -0.32855423115340276 0.14024565091953525
0.07175027812231383 -0.3285901796495353 0.1446228062452731
0.07906786548548941 -0.3282997788421364 0.14909293148407834
0.08638331466514165 -0.32773552581532567 0.15363063690245873
0.09366469767625415 -0.32695404514828014 0.1582109725773458
0.1008798763244118 -0.32601637334783157 0.16281341772506108
0.10799906471213598 -0.3249845410845768 0.1674246264326923
0.11499818300272369 -0.3239172272044419 0.17204054441642344
0.12185814337788055 -0.3228658187786341 0.1766625974008567
0.12856088425620948 -0.3218732616011282 0.18129142922969357
0.13508755183113677 -0.32097624921989143 0.18592353618080132
0.14142007997528455 -0.32020930247406637 0.1905491818270678
0.14754395546369775 -0.3196083066693683 0.1951546124524569
0.15344750309655386 -0.319213185197903 0.1997247912878543
0.1591215715895372 -0.31906970780340804 0.20424414337915847
0.1645591287163164 -0.319227565816644 0.20870209378599866
0.1697550792962295 -0.3197375314527544 0.21309338337037093
0.17470460073546804 -0.3206507430079134 0.21741819605324744
0.17940226209839583 -0.32201663124179636 0.22168106943491173
0.18383800230611833 -0.3238811259460878 0.2258879703320996
0.18799444786774924 -0.3262829371049814 0.2300466991287451
0.1918418581178507 -0.32924745562806207 0.23416473860322692
0.1953351258175628 -0.33278030644545153 0.2382482287473425
0.1984177980688277 -0.3368623535285331 0.242297342492564
0.20103402577615667 -0.34144743603867106 0.24630499278961746
0.2031476168401943 -0.3464750888842683 0.2502617448271181
0.2047465545092954 -0.3518857544286505 0.25416297821716566
0.2058385476776501 -0.35762649002499475 0.2580078947895394
0.20644815698354754 -0.3636434420089715 0.2617923653013049
0.206620834589241 -0.36987192847096584 0.26550511579866776
0.20642585334512267 -0.3762312275929252 0.26913110644712296
0.20595239379965602 -0.38262947183718654 0.2726551475509048
0.20529628608098552 -0.3889755860657838 0.27606869579661825
0.20454619149732117 -0.39519824310541274 0.27937187729186963
0.20377111882842405 -0.40126290109597773 0.28257847196207625
0.20301921676642137 -0.4071686493805383 0.28571685051132995
0.20232920325765227 -0.41291239648056693 0.2888162530802091
0.201739400101282 -0.4184368830360438 0.2918750587132022
0.20128521543199854 -0.4236139074016655 0.294827697864518
0.20098761091463163 -0.428300985971634 0.29756218953879265
LINES 1 120
119 0 1 2 3 4 5 6 7 8 9 10 11 12 13 14 15 16 17 18 19 20 21 22 23 24 25 26 27 28 29 30 31 32 33 34 35 36 37 38 39 40 41 42 43 44 45 46 47 48 49 50 51 52 53 54 55 56 57 58 59 60 61 62 63 64 65 66 67 68 69 70 71 72 73 74 75 76 77 78 79 80 81 82 83 84 85 86 87 88 89 90 91 92 93 94 95 96 97 98 99 100 101 102 103 104 105 106 107 108 109 110 111 112 113 114 115 116 117 118
POINT_DATA 119
SCALARS Curvature float
LOOKUP_TABLE default
-0.011907239498959095
-0.012028420416329162
-0.003683128680194666
0.013935606111435298
0.04048536631236058
0.07439099620642031
0.11293142250747813
0.15249595086715625
0.1889856460652433
0.21831404628464282
0.23694544822396263
0.24240069315733156
0.2336611729027387
0.2114118623567336
0.17808253509207372
0.13767076408524848
0.09535781828785309
0.05695562234786448
0.02824600845740452
0.014289451742965146
0.018787094218604142
0.04357604243992462
0.08832391291630821
0.15046595683905933
0.22539951735254105
0.3069195578517701
0.38784941149963126
0.46079647435886023
0.5189464220191835
0.5568037819939918
0.5707921578068502
0.559643485225923
0.5245304763217649
0.4689268421116948
0.39821222940843476
0.31906906713527955
0.23874295836351914
0.16425387780304207
0.10165035477206294
0.05539250181042768
0.027933063033905157
0.019540770408338043
0.028380385790971064
0.0508326455734854
0.08200880055477086
0.11639206227535713
0.14852471111921972
0.17365641859156908
0.18827667911538085
0.1904709877938961
0.18006421896429556
0.15854237845932131
0.12877190910780945
0.09456045241894544
0.06012133815610267
0.02951390486879233
0.0061320205687554865
-0.007695888595608366
-0.010948936169556063
-0.00397401734034557
0.011635055829818365
0.033315019392603194
0.0579230417573185
0.08218174146499013
0.10311706548132162
0.1184303077860619
0.1267569063895628
0.1277820531345963
0.12220404457166802
0.11155774135169617
0.09792953263410904
0.08360926534152763
0.07073188094067359
0.06096116515282178
0.05526029109349167
0.053779976897706964
0.05587716756363811
0.06025779732905698
0.06521915939470435
0.06895323901049598
0.06986400700866467
0.06685023001103109
0.05951094554549398
0.04824249378206329
0.0342121492491772
0.01921160402368489
0.005411194885541779
-0.0049496827654470004
-0.00989113992535577
-0.007992594287421982
0.0013799694880988265
0.017952793061694332
0.040547627302930024
0.06721020732543753
0.09544676713693398
0.12253601447905065
0.14587319160583112
0.16329823066871368
0.17336224091108202
0.1754953331138973
0.17005285626533376
0.158234494375799
0.14188887120399563
0.1232327317496161
0.10452604630572473
0.08775072794360683
0.07434011543474171
0.06499897601466777
0.059640533358439496
0.05744978120827962
0.0570635512579864
0.056840166489792086
0.055177601442501945
0.050830967201537826
0.04317912283049831
0.032396577511114424
0.019499831760367452
0.0062551952659886485
-0.005044538405167924
