# vtk DataFile Version 2.0
Vessel Segment
ASCII
DATASET POLYDATA
POINTS 119 float
-0.0032633475581230155 -0.006409666585513961 -0.0006848237959584078
-0.007202220082312609 -0.012946928752842379 -0.0006835256998588734
-0.011635769335666313 -0.019330338036196444 -0.00015924755402148586
-0.016371448044010743 -0.025388220264439737 0.0006908897413972876
-0.02125532168189411 -0.031074384549425862 0.0016436448044548834
-0.026151542101069007 -0.0363804026718519 0.0024588928871896133
-0.03092939563506005 -0.04130425569618252 0.0029034948239421684
-0.035459382244130186 -0.04584227553602033 0.0027766506084893686
-0.03962921840293688 -0.04999403380808719 0.0019440452281980609
-0.04337930401926456 -0.05378921358381502 0.00035402711080834127
-0.046717529244063305 -0.05731670975318893 -0.0020124828149680205
-0.04966755348796125 -0.06069133040749755 -0.005204150198487448
-0.05220398065269242 -0.063994636117955 -0.00925659691104454
-0.054252912826994945 -0.06726858941416446 -0.014085043790549206
-0.05576530006283265 -0.07055069096916967 -0.019489866067585723
-0.05671975238162955 -0.07386877129723252 -0.025267251097018488
-0.05710977167349401 -0.07722353467355629 -0.031223459374458407
-0.05695048380922435 -0.08061207945281151 -0.037221687010377306
-0.05625420399800239 -0.08403206487062122 -0.043182090894471004
-0.055034059550309 -0.08748743742499626 -0.049041573767970754
-0.053312340069023544 -0.09099156266979355 -0.05475233411947614
-0.051127904324731924 -0.0945533397440187 -0.06026591757484134
-0.048550116888217816 -0.0981733307124437 -0.06551342426500999
-0.045684780890630695 -0.1018397708229615 -0.07038635711516925
-0.042686335495562666 -0.10550616168268286 -0.07472115319818626
-0.0397606775305616 -0.10906624943834024 -0.0783321502379508
-0.037114674784560306 -0.11238612381806502 -0.08111021974441933
-0.03488759445812517 -0.1153850469020677 -0.08308485068762443
-0.03310080942227111 -0.11805506448662742 -0.08439230894817566
-0.0317041186127168 -0.12042620991565653 -0.0851756208319247
-0.030627867227371052 -0.12256181052289923 -0.08553378547734075
-0.029823140205771245 -0.12450586909377225 -0.08549042784717496
-0.02926266659326849 -0.12626400292094103 -0.08503035733297468
-0.028932143153266626 -0.12782974683018686 -0.08414501116069355
-0.02881320143203675 -0.12920469059216122 -0.08283351744739328
-0.02889626268300283 -0.13038252659323737 -0.08106192208117852
-0.029199671480992433 -0.1313250932205043 -0.07875325218015798
-0.029773239069492544 -0.1319473066075903 -0.07580343168353232
-0.030681695737039494 -0.13211753506202722 -0.07212001961520746
-0.03197487201908491 -0.13168643970190635 -0.06771123935319821
-0.03360780074990581 -0.13059390531008955 -0.06279416968727251
-0.035457937318129386 -0.12892536030414822 -0.057620897877721344
-0.03740310264649424 -0.126833274776703 -0.05237453026161965
-0.039332691929760175 -0.12449753922868094 -0.047174977565437495
-0.041150261277477604 -0.12210780618948693 -0.0420846149985476
-0.04277615842780723 -0.11984824347044808 -0.03712038711964901
-0.044144192644501506 -0.11788859093967638 -0.032275019676947306
-0.04520174138117719 -0.11637994694822222 -0.027554418883559174
-0.045930467031056 -0.11542157664048668 -0.02301002626451389
-0.046353782353737015 -0.11503002224194865 -0.018696592740002346
-0.046510448123414115 -0.1151708524210528 -0.014629758805992446
-0.04643634321257685 -0.11580870021419337 -0.01079691044766386
-0.04615965893769794 -0.11692240503730189 -0.0071820218030942745
-0.04570098087101733 -0.11850066007009359 -0.003771450511476415
-0.04507433557624978 -0.12054038978692073 -0.000544508901107521
-0.04428645037519324 -0.1230515570345539 0.0025302998677685044
-0.043337851449272366 -0.1260574525028813 0.00548259102209026
-0.042229759479119736 -0.12957942861266597 0.008318092155984834
-0.04097476994369251 -0.13361661445393053 0.010997387801799954
-0.03960896663338703 -0.13813088248143934 0.013432355025882135
-0.03819262120471722 -0.14304538121559343 0.015525909865166615
-0.03677295719426099 -0.1482731331142789 0.017230326681724188
-0.03536358916377332 -0.15373138004352904 0.01854374331267837
-0.033953560543558414 -0.15932873309028603 0.019502462067786584
-0.03251562512008969 -0.16496572715512323 0.020177999986238582
-0.031020628427933006 -0.17054798564648882 0.020664508396091467
-0.029446754473863603 -0.17599454550546942 0.021067378556399768
-0.02778015969067205 -0.18124405204473218 0.021493035370434472
-0.026013382738748397 -0.18625379925800933 0.022039594121072963
-0.024142964465980077 -0.1910001599869025 0.022789425485892256
-0.022164447098427176 -0.1954828106677278 0.023806536044292944
-0.020066574735800143 -0.19972202532954533 0.025139990977933888
-0.017826837441295214 -0.20375181777204868 0.026826816576237172
-0.015413612358702013 -0.20760450280049114 0.028889135903047997
-0.012795942770121055 -0.21129912629984943 0.031325239590432895
-0.00995175132631994 -0.21484633448877882 0.03410250920861998
-0.006864887719085425 -0.2182541971002741 0.03716268449960143
-0.003518531186503955 -0.22152695760549437 0.040434718065190056
0.00010699107803308246 -0.22466041932899217 0.04384392592175665
0.004037301573890056 -0.22764477181169215 0.04732093915391536
0.008306009811477395 -0.23046655904145302 0.050813301396950526
0.01295143462150294 -0.23310705514546975 0.05429289135236019
0.018006494926490216 -0.23553785117755185 0.057757696609128065
0.023484986880970015 -0.23772067654532675 0.06122685418918865
0.02936576855420877 -0.23961159479685032 0.06473197407118451
0.03558103268244873 -0.24117533624428944 0.06830556749446921
0.04201520428345799 -0.24240575712604923 0.07196948613141443
0.04852220219872776 -0.24334060618837391 0.07572667357942815
0.05495171147606397 -0.24406154677593728 0.07955964643599989
0.06116914414042651 -0.24467640967923812 0.0834354069707203
0.06706489110078531 -0.2452986864182546 0.08731106334067538
0.07255610097830485 -0.24602019614046322 0.09113968814624918
0.07759058273613241 -0.24689444392777576 0.09487502850657047
0.08215134468319224 -0.24792870153232505 0.09847610816724432
0.08625931347750208 -0.24909403767859017 0.10191445494626712
0.08996159740114335 -0.250345356636821 0.10517753923829903
0.09331670165591215 -0.2516377382339965 0.10826739853277619
0.09638359537731596 -0.2529370718497405 0.1111977512096509
0.09921807777789043 -0.25422546368268945 0.11399366326005009
0.10186942820509338 -0.2555021215399437 0.11668862148909394
0.10438061946421198 -0.2567821673163016 0.11932199694415614
0.10678568965934983 -0.25809371949887916 0.12193179597919777
0.10910710471809823 -0.25947286945284653 0.12454568470752529
0.11135767567729409 -0.26096052230798894 0.1271743893001017
0.11354402383398061 -0.2625983842449197 0.12981093811865088
0.11566983721413537 -0.26442974761130916 0.1324373224908071
0.11773251523709125 -0.2664997588169008 0.1350318754685749
0.11971725209595108 -0.26885735292996354 0.1375746523131006
0.12159116468339243 -0.2715524792719173 0.14004961627989854
0.12330461452306654 -0.2746302951347986 0.1424434396333579
0.12480313736716783 -0.2781254292828738 0.1447457239465775
0.12604348850294428 -0.28206108368344934 0.14695420969981776
0.12700011258575078 -0.2864443501252142 0.14907956561758814
0.12766998890254228 -0.2912485469393332 0.1511430727754283
0.1280772356530393 -0.29639553072494046 0.1531724828381162
0.12827517408373793 -0.30175069752388833 0.1552002572536068
0.12833440857125109 -0.3071234912889797 0.15725938749299218
0.128325202039167 -0.3122810728988223 0.15936570795592753
0.12830284759160368 -0.3170188811455662 0.16150599150615857
LINES 1 120
119 0 1 2 3 4 5 6 7 8 9 10 11 12 13 14 15 16 17 18 19 20 21 22 23 24 25 26 27 28 29 30 31 32 33 34 35 36 37 38 39 40 41 42 43 44 45 46 47 48 49 50 51 52 53 54 55 56 57 58 59 60 61 62 63 64 65 66 67 68 69 70 71 72 73 74 75 76 77 78 79 80 81 82 83 84 85 86 87 88 89 90 91 92 93 94 95 96 97 98 99 100 101 102 103 104 105 106 107 108 109 110 111 112 113 114 115 116 117 118
POINT_DATA 119
SCALARS Curvature float
LOOKUP_TABLE default
0.034573625642727965
0.03319717217528919
0.0402023123430819
0.05599283109037239
0.08009232886760992
0.11107746614719392
0.14661841519566116
0.1836353192236394
0.21856529680296746
0.24771955434158538
0.2676964435039715
0.27580576074828955
0.2704538796103862
0.25143955052153605
0.22011680552853455
0.17939396995612433
0.13355511750890253
0.08791053488104765
0.048303537860284906
0.020519759472073587
0.009659389361731729
0.0195407940999657
0.05220420590378121
0.10757634112797496
0.1833414845044843
0.27504327327457884
0.3764164408885708
0.47992195821356726
0.5774353564941462
0.66101937222046
0.7237007367197992
0.7601684419380053
0.7673176312980005
0.7445787798079114
0.693994391701451
0.620032552934747
0.5291552609470238
0.4291862430615372
0.32854488193489123
0.23542736172620363
0.15702156242033813
0.09883795326381813
0.06422529456108361
0.054118944422343246
0.06704345336853756
0.09936296169091256
0.14574594865514118
0.1997881956130536
0.2547219488919517
0.3041318956125855
0.3426003599091623
0.36621466057661384
0.3728873958789195
0.3624632627166439
0.33661106582227046
0.29852383354406964
0.2524706163479619
0.2032583047936048
0.15566914788956285
0.11393900433523423
0.08133312469564236
0.05986174961166762
0.0501590357109282
0.051528242195610696
0.062136300635019764
0.07932421669152057
0.09998809203816221
0.1209800778162794
0.13947962369626532
0.1532924820246578
0.1610468423738543
0.1622709382746154
0.15735241849979237
0.14739462567663095
0.13399684290163197
0.11899319973896444
0.10418754908770514
0.09111920774041381
0.08088763239994914
0.07405406270136028
0.07062644793087364
0.07012226464089107
0.07169370966975035
0.07429248998219445
0.07684783300489784
0.07843166050405102
0.07838879704779819
0.0764168241576134
0.0725885963105533
0.06731918854048848
0.06128685904818449
0.05532340852413572
0.05029238484999502
0.0469736490914576
0.045970084259534236
0.04764730561122175
0.052111037755135176
0.05922042761126163
0.06863001047801937
0.07984920174898294
0.09230659651094927
0.10540717638818559
0.11857349070543972
0.13126637987434575
0.14298597101642738
0.15325851931381274
0.1616182691764967
0.16759515406989087
0.17071846425595666
0.1705436148152891
0.16670428183897237
0.15898623573677403
0.1474132159172388
0.13233026527350905
0.11446707844301042
0.09496384552858007
0.07534511734967433
0.057433219485987654
0.04320104908145554
