# vtk DataFile Version 2.0
Vessel Segment
ASCII
DATASET POLYDATA
POINTS 119 float
-0.0032425863164553823 -0.0060380967837366795 -0.00035300788807834715
-0.007160126751656188 -0.012320248073390256 -0.00010128665390491992
-0.011577127612580684 -0.01857066104086981 0.0006090615840778763
-0.016301012925531846 -0.024595823267379337 0.0015893427234583222
-0.021173299863998407 -0.030311817601679614 0.0026312938008309847
-0.02606016724347438 -0.03568544970005455 0.003517557277065023
-0.030838500629363684 -0.0407022440536709 0.004036155507398849
-0.035387613393360044 -0.045352327025677555 0.004000124032663108
-0.039600322790562366 -0.049631756854939695 0.003279008086255441
-0.043414575755828064 -0.05356661091379692 0.0018178869934333413
-0.04682882488526775 -0.057239622396860056 -0.00040304318972724505
-0.04985791379516951 -0.060760566315765124 -0.0034226518963105827
-0.05247598764961428 -0.06421336403153548 -0.00726676914450884
-0.054614372175095786 -0.06764786902737245 -0.011860684869576088
-0.05621970996027565 -0.07110615772700184 -0.017030174413723214
-0.057265547119602286 -0.0746179849134194 -0.022583904970233465
-0.057743543962541395 -0.07818933006658473 -0.028344318854940483
-0.05766183798063528 -0.08181653728818698 -0.03418212290039787
-0.05702935223649121 -0.08549276845638164 -0.04001490926059698
-0.0558591964041297 -0.0892161397268177 -0.04577716396795349
-0.054174690452219405 -0.09299474591895651 -0.0514189924928935
-0.05201510352865627 -0.09683406115887283 -0.05688901136890591
-0.04944948093010223 -0.10073142435316766 -0.062112981061641745
-0.0465837388672069 -0.10467027655406175 -0.06697654155193533
-0.04357014423630549 -0.10859963013933127 -0.07131550764640505
-0.0406063020139518 -0.11241422009505161 -0.07494876794379186
-0.0378902622771308 -0.11598539085317484 -0.07776304059808295
-0.035562944175061804 -0.11922955829076778 -0.07976251896850683
-0.03366764013691969 -0.1221187447353449 -0.08104271204742101
-0.03218224231765939 -0.12465071609295077 -0.08172021667684119
-0.03105196847422954 -0.1268606612045551 -0.0818978588180395
-0.0302199845943169 -0.12879443369945817 -0.0816318866643144
-0.029640934715822884 -0.13049238451464445 -0.0809330013787959
-0.02928872026563193 -0.13198058981204952 -0.07978930511081551
-0.029145255920571447 -0.1332718463125406 -0.0781801556151137
-0.029205645148110217 -0.13435670300831773 -0.07605977991207154
-0.029488657325445276 -0.13519309430588508 -0.07335969556772257
-0.030035172913694036 -0.13570256693903887 -0.07000901296348809
-0.03088983973038669 -0.13578094911880947 -0.06597130095780544
-0.03207468835827153 -0.1353316880742744 -0.06130873719744894
-0.033532794619946286 -0.1343462871300335 -0.05624284321953762
-0.03514983581677819 -0.13293143210686853 -0.0510019768614398
-0.036816520565566016 -0.1312393762547654 -0.04574512436371796
-0.0384377906486126 -0.12943417819023117 -0.040572546046280175
-0.03993488665728627 -0.12767713981324313 -0.03553328902981926
-0.04124685860232327 -0.12611578084610814 -0.030635692188091063
-0.04232695304365934 -0.1248804252091151 -0.025864473743730992
-0.04314060871063371 -0.12408563344582611 -0.021211320676022407
-0.04367803567036203 -0.12380981946056736 -0.016706482503763782
-0.043958624497542224 -0.12407221846782909 -0.012392262216055102
-0.044012193770391325 -0.12485275791766952 -0.008286852535224994
-0.04386653815522761 -0.12612931228998886 -0.004385866652912583
-0.04354383192022553 -0.12789033501217276 -0.0006816361582714014
-0.0430605454963258 -0.13012997870347737 0.0028305454685094533
-0.04242808496484677 -0.13284524261006642 0.006161191780405651
-0.041651767819860346 -0.13603890519267053 0.009331972150934637
-0.04073106233887096 -0.13971912717602655 0.012366774388308327
-0.039664784711212535 -0.143886746205737 0.015274274616412585
-0.038459493844395634 -0.148520315884643 0.018029973435174984
-0.03713934228738496 -0.15356672990361564 0.020571778007175905
-0.03574712727368231 -0.15894216213505322 0.022829962863431783
-0.034314802247102455 -0.1645560732878134 0.024772568726958873
-0.03284683792690898 -0.17032306523020269 0.026402609422739386
-0.031327780375462445 -0.1761534917469223 0.027752058229993555
-0.029729938374827847 -0.18195600258663117 0.028879363701012937
-0.02802594273281357 -0.18764833390174096 0.029859307448569537
-0.026196272442236743 -0.19316239693401893 0.03077423095202672
-0.02422932388453871 -0.19844756416671896 0.031707065505471276
-0.022119550548849023 -0.20346898447246342 0.03273514840268978
-0.019864876012339085 -0.20820728105471706 0.033925183756266755
-0.017462506164263626 -0.21266036457726928 0.03533120920190038
-0.014904470015499851 -0.21684121759266353 0.03699654066906156
-0.012174092348155153 -0.2207733038097162 0.03895501534795275
-0.009247975874084814 -0.22447933561702543 0.041228083318880136
-0.006104518864402235 -0.22797295903670495 0.043817690067857
-0.0027310811148689375 -0.23126308170860688 0.04670065834802681
0.0008791085620482387 -0.23435855072316364 0.04983311851289621
0.004733342879024972 -0.23726650977721303 0.05316028570383738
0.008842023924763518 -0.2399884568665124 0.05662308238684443
0.01322177691087447 -0.2425219723690749 0.060164839610483085
0.017897413374140785 -0.24486218499131784 0.06374112936038498
0.022898397891858473 -0.24699981198158844 0.0673268732475689
0.02824937415274901 -0.248917690443396 0.07091803470054366
0.03395803603719894 -0.2505912459552675 0.07452797073645295
0.04000213774916346 -0.2519930266719706 0.07818064541317422
0.046320096717241285 -0.25310444068900456 0.08190100583024303
0.052810743119977854 -0.25393172780004747 0.08570553107093559
0.059347853170430905 -0.2545166442243763 0.08959507405897923
0.06580160197702074 -0.2549354745977644 0.09355312380428155
0.0720551332753328 -0.2552845386020558 0.09754980840192834
0.07801252232374113 -0.25566413967504303 0.10154634248247434
0.08360080713531631 -0.25615689693427235 0.10550032750245888
0.08877312881848964 -0.256814424625796 0.10937013816395738
0.09351285047964561 -0.25765081586480704 0.11311906108176167
0.0978360711245593 -0.258650254763503 0.1167222870663547
0.10178168663425043 -0.2597829709509093 0.120169493912688
0.10539823956856824 -0.2610185831868903 0.12346312818589376
0.10873398146529906 -0.26233444692766517 0.1266151687714831
0.11183295444440686 -0.263719781537721 0.12964612421346017
0.1147319560715378 -0.2651761190492162 0.13258283424030473
0.11746056883409288 -0.2667160544831132 0.1354566047305267
0.12003919316871815 -0.2683607092594227 0.1382976313133123
0.1224779060725674 -0.2701353527249645 0.14112727707301523
0.12478004479001883 -0.2720666949808962 0.14395273977149114
0.12694771851695777 -0.27418109741120855 0.14676728528515087
0.1289847402158394 -0.27650734076289063 0.1495567916099279
0.13089255011072734 -0.27907782628549926 0.15230551736679895
0.13266419627405143 -0.2819298109747264 0.15499947290762922
0.13427933272689171 -0.28510198900770906 0.15762751576068512
0.1357051570282495 -0.2886279622592704 0.1601800804382547
0.1369057448848384 -0.29252940624169504 0.16264864719434174
0.13785483850039873 -0.29681381299544596 0.16503054754994742
0.13854180720743542 -0.301472222013541 0.16733403431400057
0.13897565598944442 -0.306469029998469 0.16957786901787755
0.13918780254387877 -0.3117311252164688 0.17178830356374292
0.1392329715053812 -0.3171411969460397 0.17399547123612502
0.1391789303085466 -0.3225299173729784 0.17622486267136964
0.1390912552156088 -0.32768303628768575 0.1784772288929245
0.1390198233221738 -0.3324073851295168 0.18072151306983386
LINES 1 120
119 0 1 2 3 4 5 6 7 8 9 10 11 12 13 14 15 16 17 18 19 20 21 22 23 24 25 26 27 28 29 30 31 32 33 34 35 36 37 38 39 40 41 42 43 44 45 46 47 48 49 50 51 52 53 54 55 56 57 58 59 60 61 62 63 64 65 66 67 68 69 70 71 72 73 74 75 76 77 78 79 80 81 82 83 84 85 86 87 88 89 90 91 92 93 94 95 96 97 98 99 100 101 102 103 104 105 106 107 108 109 110 111 112 113 114 115 116 117 118
POINT_DATA 119
SCALARS Curvature float
LOOKUP_TABLE default
0.024074914950262226
0.0226133758114929
0.029442885160809923
0.04525445938316577
0.06978604898651246
0.10171727052871717
0.1386927937745426
0.17748556585481562
0.2142929584519872
0.2451403555249613
0.2663501594239108
0.27502204549773057
0.26946443699253575
0.24951875847622415
0.21672728290789348
0.1743115409789643
0.1269495986807204
0.08036456539630617
0.04076054577060705
0.014162872446362043
0.0057341208781494755
0.01914402912556115
0.05606887921226739
0.11588410860294289
0.19559402559710867
0.2900166558755142
0.39221290029864403
0.4941207341128046
0.5873305559416265
0.6639200402393644
0.7172582227059052
0.7426902501778043
0.7380262195067412
0.7037785360724865
0.6431198639912754
0.561564819357563
0.46640944218178837
0.36598954418777546
0.2688390870753227
0.1828404524541911
0.11445859347734051
0.06814064942907185
0.04594295636527961
0.047420891581356636
0.06978683551967337
0.10831131211489019
0.15691562957254326
0.20888417042847487
0.2576131160783474
0.29731098115112004
0.3235748010058694
0.3337828963506775
0.32726855731863963
0.3052657605112389
0.27064484534669553
0.22747970893221306
0.18050579538346265
0.13453803114308058
0.09391899515453538
0.06206022371491405
0.04112489516874026
0.03188033716295979
0.03372652895045463
0.044884917325111316
0.06271314207201978
0.08409788078660858
0.10587140575989283
0.125198100894427
0.1398846594487859
0.1485806566922824
0.15085269167670878
0.14713297421741572
0.1385597044888825
0.12673973297896973
0.1134722211909131
0.10047450476859013
0.08914806408925402
0.08041419393660129
0.07463704694787182
0.0716380507242763
0.0707922719618681
0.07118600469990059
0.07180719361368842
0.07173718850785674
0.07031399658795794
0.06724319218816735
0.06264189061376471
0.057012192202357065
0.051151551244083715
0.046016970237439406
0.04256640258513688
0.04160338880608512
0.04364947545293021
0.04886372222345015
0.0570205029161178
0.06754717591728658
0.07961357375909811
0.09225714620598785
0.10452223978018799
0.11559021825148101
0.12487916970048558
0.13209745395235456
0.13724342330683975
0.14055299660028225
0.14240587094174784
0.14320853002476766
0.1432766197308294
0.14273992606541186
0.14148990000412903
0.13918284273944037
0.13530247971666534
0.1292751353869999
0.12062072620283093
0.109114955910949
0.09493379888695429
0.07875148540008388
0.061768012041125135
0.045651244479069306
0.032390846345486564
