# vtk DataFile Version 2.0
Vessel Segment
ASCII
DATASET POLYDATA
POINTS 119 float
-0.0032228506301300924 -0.005582082880136997 6.4180163308274e-05
-0.007119015092352078 -0.011544952586845106 0.0006393858243838401
-0.01151858700323562 -0.017626701885345167 0.0015949474371616062
-0.016228967671551117 -0.023611119695881467 0.002748832855969565
-0.02108677716581952 -0.029368279053733508 0.003910451531081205
-0.025961873020558406 -0.034833711106109215 0.004892349609145619
-0.03074180300239908 -0.03997697585553026 0.005510948574404818
-0.035318236008688476 -0.04478045031216253 0.005598065860615547
-0.03959176093548593 -0.04923621957313091 0.005028370101883469
-0.043497862511433366 -0.0533660676672012 0.0037414440318871314
-0.047022094198025166 -0.057244052681005644 0.0017141641489983976
-0.050166144913000976 -0.06097196607423166 -0.0010819491659579718
-0.052901775913694576 -0.06463553249904183 -0.004661225828311495
-0.05516588565605612 -0.06829429126434168 -0.008960936155628811
-0.05689907127597319 -0.07199627196158544 -0.013836912061509589
-0.058068737902838 -0.07577462677961191 -0.019112617030344715
-0.05866477790339602 -0.07964377302512415 -0.024630856151693248
-0.05868626778545623 -0.08359971559252083 -0.03027175515769235
-0.05813756352230765 -0.08762968927047622 -0.035949585789029834
-0.05703178683120688 -0.09172377874722189 -0.04159553964926385
-0.055393846395300726 -0.09588263850778625 -0.04715683925625218
-0.0532638328606256 -0.10010684743456272 -0.05257829794232203
-0.050710587407933924 -0.10438917161871379 -0.0577787478386415
-0.04784040379520926 -0.1087063241146961 -0.06263607103072333
-0.044802944042466264 -0.11300114216721432 -0.06698514538454892
-0.04178481296329715 -0.11717006892938064 -0.07065095564558754
-0.038971585706722656 -0.12109229599930763 -0.07351493089187044
-0.03650498540844022 -0.12468065109330859 -0.07554695154648003
-0.03445694507902724 -0.12787957559644322 -0.07678640028097669
-0.032843329348099304 -0.13064375913380813 -0.07731472738887392
-0.031628708334622134 -0.13297512627816258 -0.07724281131171276
-0.03074526795466471 -0.13492767771628483 -0.07666753217335406
-0.03012617753704637 -0.13658412359960287 -0.07562038790967524
-0.02973371951929198 -0.1379988481885268 -0.07407553914766936
-0.029550930397220468 -0.13918774883031962 -0.07199142968314551
-0.029576837367367496 -0.14013672075174133 -0.06932044947102894
-0.029827770842934215 -0.14080735902870695 -0.06602052271653082
-0.03033052993242549 -0.1411429760368583 -0.06207649929215862
-0.031103555820649064 -0.141086170010787 -0.05753053766352532
-0.03213613329538145 -0.14061121833659648 -0.0525094517100928
-0.033361377087097334 -0.13976823759680296 -0.047226036869875046
-0.03467983069310219 -0.1386802791870842 -0.04186668076256833
-0.03600090884786305 -0.13749058863721864 -0.036552029908174875
-0.03724961848499023 -0.1363382522027179 -0.031351848427751274
-0.03836766770923561 -0.13534923021946038 -0.026294205138059006
-0.0393133924299892 -0.13463187939651228 -0.021374122856786387
-0.040058177436041086 -0.13428040356026807 -0.016566650224100032
-0.04058333800193022 -0.13438115037502404 -0.011850557806082601
-0.040885840225557746 -0.13500199647593336 -0.007237878933844637
-0.040980512055078806 -0.13617285964505357 -0.0027647875378989306
-0.040889309653158575 -0.13789019095799523 0.0015374669928208346
-0.04063444635656764 -0.14014090149428393 0.005653807902521351
-0.04023532675427024 -0.14291439581068016 0.009575417466845166
-0.03970734986635372 -0.14619896247925837 0.01329416934849137
-0.03906116134338955 -0.14997909866033685 0.016810109962388662
-0.03830089486970742 -0.1542370333862866 0.020137063516650046
-0.037423633719080154 -0.15895186123360028 0.023296900056881037
-0.03642316095806983 -0.16409099444192582 0.026307463299177047
-0.035296064134165694 -0.1696029917456143 0.029168916433031506
-0.03404862483784197 -0.17541617089123546 0.03185861667212385
-0.03269769468059421 -0.1814432065893544 0.03434808279648424
-0.031251894110877865 -0.1875981025868241 0.036629566528448995
-0.029701349011170587 -0.19380241035718385 0.03871286439859679
-0.0280236309430894 -0.19997772284201376 0.04062185219295755
-0.02619034427910855 -0.20604828070037254 0.04239446247135335
-0.0241765972416831 -0.21194795153291757 0.0440776586175547
-0.021965996347109964 -0.21762202429869656 0.04572264304959073
-0.01955010952444422 -0.22302831231187634 0.04738148861443843
-0.016926325600234528 -0.22813630035633198 0.049104191402776325
-0.014094899775266704 -0.23292748258339008 0.05093603693056921
-0.011055872849701488 -0.23739507523146616 0.05291606076311737
-0.007806501673562801 -0.2415425647154839 0.05507782785442149
-0.004339087523227763 -0.24538147468055269 0.0574497218403881
-0.0006425746852171798 -0.24892442049190686 0.06005282932054014
0.0032910300631601233 -0.25217982909663555 0.06289585269424881
0.007461062338980388 -0.25515508710187895 0.06597022500190851
0.011861278969582972 -0.2578597614197385 0.0692523411621387
0.01648567906949202 -0.2603038532283335 0.0727088916119107
0.021331497068816936 -0.2624951582591279 0.07630042333289973
0.02640213382095024 -0.2644401096530368 0.07998560317131652
0.03170883247105959 -0.26614501217141817 0.08372904051215252
0.03726693985913922 -0.26761383762570584 0.08750818485104858
0.04308763922054289 -0.26884584045991405 0.09131489248272026
0.049168464075266205 -0.26983641801984015 0.09515361615243473
0.05548443080154593 -0.27058148924616604 0.09903731099207826
0.06198207821059545 -0.27108549356342415 0.10298071136874114
0.0685804676251653 -0.2713713558857707 0.10699383745013721
0.0751817810876909 -0.271485964765688 0.11107607563228562
0.08168585210150717 -0.2714981012322264 0.11521376782076466
0.08800173772631506 -0.27148836686344374 0.11938267209799487
0.09405381837162886 -0.2715390854193361 0.12355073443691243
0.09978407577547904 -0.2717201928193328 0.12768259000603885
0.10515415422626107 -0.2720805138442521 0.13174348758951232
0.11014861529656565 -0.27264333974749405 0.13570263552249873
0.11477696760504012 -0.27341097958786875 0.1395398140416503
0.11906634814850639 -0.2743753236732557 0.14324701536154105
0.12305102864771286 -0.27552729709209073 0.14682670010306922
0.1267643100598828 -0.27686224875674526 0.15028856289459105
0.13023435814647746 -0.27838223690593167 0.15364777478711905
0.1334815446083053 -0.28009532084316446 0.15692369450399943
0.13651785802657074 -0.2820133803576502 0.16013853663448593
0.13934544888009856 -0.2841493754778212 0.16331369175292743
0.14195729665189133 -0.28651370972519186 0.16646332430005623
0.14434297148268266 -0.28911241941812255 0.1695903962158098
0.1464971557750158 -0.29194924570661485 0.17268811428645592
0.14842226294490066 -0.2950315136579706 0.1757463788986443
0.15012352316523433 -0.29837240602007536 0.1787554853122229
0.15160301082201796 -0.3019903118082115 0.18170669982612894
0.15285632710394717 -0.30590372704021745 0.18459202869656705
0.15387395427572284 -0.31012383317720815 0.1874036414551776
0.15464803326974272 -0.31464793078903697 0.1901334836874797
0.15518023725327684 -0.31945815766948116 0.19277808012977232
0.15548463261446935 -0.3245243833415 0.19534327188228048
0.1555881930188795 -0.32980362073948083 0.1978456572606209
0.1555310155403858 -0.3352354019445274 0.20031080288350422
0.1553674597452017 -0.340729956066792 0.202767014056698
0.15515968078354664 -0.3461482988284278 0.2052306802874964
0.15496598683167626 -0.3513012219923956 0.20768273176811747
0.15482855577742966 -0.3560106542552334 0.21006828010632372
LINES 1 120
119 0 1 2 3 4 5 6 7 8 9 10 11 12 13 14 15 16 17 18 19 20 21 22 23 24 25 26 27 28 29 30 31 32 33 34 35 36 37 38 39 40 41 42 43 44 45 46 47 48 49 50 51 52 53 54 55 56 57 58 59 60 61 62 63 64 65 66 67 68 69 70 71 72 73 74 75 76 77 78 79 80 81 82 83 84 85 86 87 88 89 90 91 92 93 94 95 96 97 98 99 100 101 102 103 104 105 106 107 108 109 110 111 112 113 114 115 116 117 118
POINT_DATA 119
SCALARS Curvature float
LOOKUP_TABLE default
0.009946096931664757
0.008844620926363865
0.016085002929117066
0.03255142500924163
0.05808548381630995
0.09136116888228103
0.1299105936360632
0.1703109475303653
0.20852146272551533
0.2403377165346946
0.26191227406864487
0.2702781626645986
0.2638069347115069
0.24253712791239934
0.20832164828680022
0.16476270302382937
0.11692809648921292
0.07086992060271607
0.0329924943023956
0.009337473298593557
0.0048675012845825006
0.02283363511904371
0.06430524213294295
0.12792462804649757
0.20992406442961742
0.30441296952399666
0.4039113118211359
0.5000757038191195
0.5845408001124267
0.649783525819637
0.6899133170637102
0.7012986349875794
0.6829578009500009
0.6366686538342837
0.5667835333401824
0.47976983061961825
0.3835277770242111
0.286562493128374
0.19710356340617458
0.12227062120085515
0.06737705734010488
0.0354468518751404
0.026993822546351284
0.04008146449969431
0.0706488290541174
0.11305751034535991
0.16079039117962488
0.20721717180348084
0.24633657047879198
0.27341082585956206
0.28542378583042494
0.2813172720865296
0.2619884930392429
0.23006046396022464
0.18946406243082073
0.14489129109283744
0.10119213752718945
0.06279080286809835
0.03319093546554253
0.014624978697648299
0.007881976929581007
0.012324057759449844
0.0260775306566696
0.04636322716266304
0.0699149764739528
0.09342676199420566
0.11396890823024158
0.1293212732638229
0.13818552003967155
0.14025695204558322
0.1361564736711453
0.127242197670421
0.11533555110811275
0.10240649325615893
0.09026555138465084
0.08030665588425485
0.0733350133782786
0.0695001015489009
0.06833746966427744
0.06890679534965212
0.06999989234114719
0.07038297591619178
0.06903368602383023
0.06533552509832116
0.05920000435436449
0.051098647436257895
0.04200123084783178
0.03323109830575752
0.026260931727393563
0.02248117309434653
0.022977123044573635
0.028349096482621045
0.03860320708716573
0.0531294526215623
0.07077044623903052
0.08997039586104527
0.10898183352173835
0.12609894540420905
0.13988243959148444
0.14934229450510342
0.15405124685802393
0.1541725316625248
0.15039858497028724
0.14381117989298295
0.1356857063712569
0.12727115119591612
0.11958139980489242
0.1132320758442995
0.10835037788697283
0.10457418848683794
0.1011427239771575
0.09706622726942826
0.09134890761220096
0.0832295686595301
0.07239974073083409
0.05916053364425965
0.0444868800145014
0.0299804818366787
0.017708949444880818
