# vtk DataFile Version 2.0
Vessel Segment
ASCII
DATASET POLYDATA
POINTS 119 float
-0.0032182609297890575 -0.005422460552537441 0.0002142334651413015
-0.007108662472644897 -0.011271608632815757 0.0009081595548419482
-0.011503100941631825 -0.017292612206726937 0.0019550084826793256
-0.016209070417461287 -0.023262591911914713 0.0031740702146701404
-0.021061731618675285 -0.02903559982631235 0.004380798045342181
-0.02593261160371843 -0.03453594737082232 0.005398849248834167
-0.030713410309563784 -0.03972739889366252 0.006055359283350417
-0.03530060626033455 -0.044589583400600166 0.006189301122247474
-0.0395979904118219 -0.04911331518252648 0.0056772884792460855
-0.0435403780217011 -0.05331894212761143 0.004456556664162024
-0.04710842776586302 -0.05727717029004869 0.0025020826356975247
-0.05029852473190621 -0.06108646685516601 -0.00021149880859965345
-0.05308103532653034 -0.06483286853373321 -0.003694701863300828
-0.05539450587970328 -0.06857927386691422 -0.007888950278993634
-0.057177092766212204 -0.07237581477125608 -0.01266031299062222
-0.058394047339711125 -0.07625713265826663 -0.017837251244729666
-0.05903480149635849 -0.08024121440411304 -0.023269825692455896
-0.059095104892424005 -0.08432411536017395 -0.028841512513041876
-0.05857759581159373 -0.08849085778118514 -0.03446536187757458
-0.05749542203962242 -0.09272842057717036 -0.04007131330578231
-0.05587416045140199 -0.09703453007780558 -0.04560548872246125
-0.053754295833544456 -0.10140782942949608 -0.05101130668318928
-0.05120465926508345 -0.10583929418665206 -0.05620505244201561
-0.04833175193707861 -0.11030301846727339 -0.06106171198430938
-0.04528434138615917 -0.11473946365345127 -0.06541578135307607
-0.042244918416392004 -0.11904582627024804 -0.06909454091104862
-0.03939416588101344 -0.12310450006775409 -0.0719775014334088
-0.03687369735095852 -0.1268270491412946 -0.07402148245256211
-0.034766016606269566 -0.130147344852117 -0.07524422646914188
-0.03310135797041415 -0.13300392960554627 -0.07571379456545964
-0.031851364455066325 -0.13538739112986786 -0.07554431458713416
-0.03094402073941671 -0.1373558875432659 -0.07484632807052168
-0.03030537470870356 -0.13900598990252525 -0.07365538157851216
-0.029894478084811837 -0.14039826551085943 -0.07193919440782198
-0.02969477713985563 -0.14154750636950206 -0.06965114959373529
-0.02970608243436479 -0.1424389203512675 -0.06674707479527799
-0.029943080475827465 -0.14303850461179354 -0.063198715606683
-0.030426792479578035 -0.14330126689562736 -0.05901469929936035
-0.031166030310669703 -0.14318981705829475 -0.054267530920801756
-0.03213893860639208 -0.14270480244604922 -0.04910600249952753
-0.03327640630013928 -0.14191542752528025 -0.043735196451957434
-0.03448545773288683 -0.14094784448947795 -0.03832248405760513
-0.0356827435152948 -0.13994009427449922 -0.03297198622602222
-0.036800387021975384 -0.13902167097306184 -0.027740442441196472
-0.037786702513431386 -0.13830690893913444 -0.022646996181206296
-0.03860558642819013 -0.13789291620799282 -0.017681480499515116
-0.0392332135029868 -0.13786503768208996 -0.012816555582047032
-0.03965507976467175 -0.13830387674880665 -0.00802923194153989
-0.039870041370621515 -0.1392766876352482 -0.003328623508068375
-0.03989195728842187 -0.14081794458882654 0.0012481229268689843
-0.03974131679171218 -0.14292832631084249 0.005662469527927418
-0.03943984530335373 -0.14559466821194605 0.00989040689910023
-0.03900729304284259 -0.14880280641686763 0.013916361014496725
-0.038459621745938345 -0.15253511182511229 0.017727943180231236
-0.03780760711535712 -0.15676824512684906 0.02132264211929988
-0.037054806627834454 -0.16147416765188105 0.024713008176801533
-0.036196874640538675 -0.1666190108758819 0.027921748256485218
-0.035225002321685996 -0.17215626082658808 0.0309715580044588
-0.03413137760747885 -0.1780227596019222 0.033873086903936526
-0.03291500057192564 -0.1841405204197717 0.03661963576672894
-0.03158233451806362 -0.19042284468654694 0.03919929218451638
-0.03013254241601202 -0.1967882931317586 0.041614194029716514
-0.028549777583573115 -0.2031640556148195 0.043876997802597975
-0.026808552124300666 -0.20947841817680363 0.0460083655213758
-0.024879909641215142 -0.21566272927129715 0.04803808640353852
-0.022739690625677496 -0.22165680055535994 0.050002237910618086
-0.020372602641105762 -0.22740976690519998 0.051939945121380095
-0.017771521966926197 -0.23288087427090004 0.05389125729274977
-0.014935231267130214 -0.23803948137012493 0.055895342193385864
-0.011865210348872043 -0.24286610313112536 0.05798874966720513
-0.008562877250772524 -0.24735160874528817 0.06020410741959355
-0.005027716047857411 -0.2514960318366496 0.06257066786664485
-0.001255665198819836 -0.2553070025206262 0.06511449437201157
0.0027594044689725813 -0.25879405369604963 0.06785679251750401
0.007020095980320034 -0.2619641486551211 0.07080945402078169
0.01152049414299389 -0.2648242706957979 0.07397012912916162
0.016249162891209566 -0.2673841411719699 0.07732332731980286
0.021194689999116778 -0.26965458747460375 0.08084395481772756
0.026348847637478107 -0.27164553108619616 0.0844997772019692
0.03170946680170843 -0.2733666496912752 0.08825490595983743
0.03728199614636115 -0.2748286385273527 0.09207694916545432
0.04307575125507716 -0.27604093391859674 0.09594388450977673
0.04909620565819143 -0.27700964700961184 0.09984556852291278
0.0553366256058016 -0.27773838069751017 0.1037826602831346
0.06177081386632648 -0.27823233501333294 0.10776362106799564
0.06834849362874967 -0.2785047820216874 0.11179921138159632
0.07499676974587655 -0.27858478124820835 0.11589717912070953
0.08162914043130325 -0.27852084508025404 0.12005674172455101
0.08815729196529909 -0.2783786179285527 0.12426579023103118
0.09450067878762626 -0.2782325311541337 0.12850265171827138
0.10059190243089663 -0.27815793775823777 0.13273818830206635
0.1063790671674085 -0.27821982577825455 0.13693997896561225
0.11182742132617828 -0.2784658585365829 0.1410760637795241
0.11692219415672794 -0.2789228118835871 0.14511794369840422
0.12167037070338169 -0.27960002876298196 0.14904703530189897
0.1260944180418276 -0.28049794859261495 0.15285601666337592
0.1302229410389635 -0.28161608327661575 0.15654720100526873
0.13408343313057872 -0.2829572914952217 0.16012944134255286
0.13769806251092412 -0.28452936426988146 0.1636161290465196
0.14108111514429536 -0.2863437990192616 0.16702422045720056
0.14423801767993472 -0.28841310364234124 0.17037298410172413
0.1471639275149461 -0.29074777755913644 0.17368092494040105
0.14984501898204067 -0.2933528249348164 0.17695978452042627
0.1522650901719743 -0.2962262161699199 0.18021100871224308
0.15441536992854377 -0.2993625671348134 0.18342765213003914
0.15629713136432646 -0.3027603091325488 0.18660082833329908
0.1579165732478845 -0.30642437224615193 0.18972265241283434
0.1592790056618335 -0.3103646140267091 0.1927857149856924
0.16038636053781016 -0.3145899590121311 0.195782357026465
0.16123883924007057 -0.3191008291621956 0.1987045459933849
0.16184066281381929 -0.3238833201276686 0.20154383188686031
0.1622056695617254 -0.32890904344064525 0.20429629197933735
0.1623583665947247 -0.33414032166719204 0.20696697602978656
0.1623326734661618 -0.33953294499336767 0.2095719185484362
0.1621713417048694 -0.34503303202564467 0.2121367666167448
0.1619277684141111 -0.35056249086982405 0.21468950052923727
0.1616613880796568 -0.3559943290063844 0.21724334688293612
0.1614274483882808 -0.3611488164877124 0.21977186442703495
0.16126507345573027 -0.36585352154201717 0.22221120412107045
LINES 1 120
119 0 1 2 3 4 5 6 7 8 9 10 11 12 13 14 15 16 17 18 19 20 21 22 23 24 25 26 27 28 29 30 31 32 33 34 35 36 37 38 39 40 41 42 43 44 45 46 47 48 49 50 51 52 53 54 55 56 57 58 59 60 61 62 63 64 65 66 67 68 69 70 71 72 73 74 75 76 77 78 79 80 81 82 83 84 85 86 87 88 89 90 91 92 93 94 95 96 97 98 99 100 101 102 103 104 105 106 107 108 109 110 111 112 113 114 115 116 117 118
POINT_DATA 119
SCALARS Curvature float
LOOKUP_TABLE default
0.004929328014894231
0.004051150845591012
0.011564810584733588
0.02837840703507721
0.054328301242852275
0.08805469492644445
0.12703415725049783
0.1677783615598737
0.20618573067316678
0.2380106566518313
0.2593965057384899
0.2674064204522597
0.2604819250522586
0.2387644359773657
0.20422870066391852
0.16059847817024026
0.11304094939627894
0.06766419182442905
0.030868036286288963
0.00861933267283674
0.005735256015819544
0.02526091170234472
0.06801950150144023
0.13239538005841076
0.2143844313646987
0.30791534513642294
0.40541327987878806
0.4985479969411576
0.5790855061142304
0.6397485128789608
0.6749883220855125
0.6815797997268485
0.658970563761836
0.6093434878817643
0.5373845365632443
0.44978194904943536
0.354513753469549
0.26000478574638547
0.17424890777056495
0.10399525319163223
0.05408876584615125
0.02703615842787908
0.02284111777489551
0.0391205072287065
0.07148040445422926
0.11410105757172245
0.16045679254036257
0.20408322917199848
0.2393013294513593
0.2618159111116949
0.2691240562095782
0.26069389819718736
0.2379033036967796
0.20375728126436915
0.16242891119178374
0.11868807724040475
0.07729307376491376
0.04242120263978509
0.017205974374734135
0.003431905594708853
0.0014155730376828196
0.010076609927584664
0.027178021154778968
0.04969465916462988
0.07425445557949943
0.09759064820671472
0.11694529018078428
0.1303741609333072
0.1369191891337013
0.13663425327127618
0.13047093304110835
0.12004960132723418
0.1073556847171065
0.09440917473144582
0.08295664529562748
0.07422923250679042
0.06879833055090685
0.06654501061330718
0.06674174490531913
0.0682284490500066
0.06965148473307192
0.06972591657937843
0.06747905728909838
0.06243733261626484
0.05472802139518778
0.04508096462111046
0.03473083069210594
0.025235664354938788
0.01824001612689575
0.015219134404542293
0.01724335332947516
0.024798595270413015
0.03769035686007772
0.05504596702076361
0.0754151803242314
0.0969544889598935
0.1176680750487897
0.13566992322808968
0.1494285126221917
0.15795816822820663
0.16092918666695943
0.15868107882659266
0.15213788695854502
0.14263936810279057
0.13171467303964504
0.12083404987676612
0.11117768598229708
0.10345846375736745
0.09782740615187556
0.09387803128723285
0.09075052121190444
0.08732078076863271
0.08244548693354489
0.0752242575525874
0.06523571701302237
0.05270633904709032
0.03857941561876301
0.02446531442612257
0.012471512846552561
