# vtk DataFile Version 2.0
Vessel Segment
ASCII
DATASET POLYDATA
POINTS 119 float
-0.0032155467033285166 -0.004979626577998326 0.0006478980388469714
-0.007096679693200417 -0.01050663309943287 0.0016914768845400258
-0.011480439035669664 -0.016353377220855825 0.003010713432936769
-0.01617530592771815 -0.02228276060446463 0.004425746459932947
-0.02101341956075688 -0.028104667113565983 0.005768627490914266
-0.025872272331712687 -0.033711384671018745 0.006896129248023536
-0.030656515233568514 -0.03904991962881049 0.00766777795431072
-0.03527762561511126 -0.04409218556385754 0.00794443185713385
-0.03964994624500631 -0.04882593346565565 0.007608731066177273
-0.04370716634981169 -0.053267847276435486 0.006590114805405814
-0.04741519513025439 -0.057478381961959965 0.004855876495596028
-0.05075345052402803 -0.06154512122760479 0.002387492862208222
-0.05368657564450951 -0.06555398760357697 -0.0008158367610129969
-0.05615651810320689 -0.06957698504057604 -0.0047072259695082235
-0.05809322535908867 -0.07366980208992634 -0.00918046244156065
-0.059455846870404894 -0.07787212459379667 -0.014077190759549007
-0.06023308595720885 -0.08221392308382029 -0.019267915908095297
-0.06041092395336076 -0.08669190834002706 -0.024645552646025415
-0.05998686108310747 -0.09128446152477418 -0.030119539473995247
-0.05897423571224705 -0.09596887453376544 -0.03561602135582427
-0.057400898961340804 -0.10073358286759526 -0.04107778182205643
-0.05530881767978897 -0.10557108798775638 -0.046444158474149615
-0.052767013559198224 -0.11046676878928396 -0.05162393945279008
-0.049882821563373106 -0.11538656172382711 -0.056483445259954274
-0.046802580985987004 -0.12026358874817962 -0.060855929615513255
-0.0436964559261135 -0.12499766841339395 -0.06457559484128636
-0.040729743119371595 -0.12948169345836696 -0.06751637722157104
-0.03804239051031996 -0.13362378195241953 -0.0695952016688987
-0.03574807874809629 -0.1373254610484372 -0.07076271560284061
-0.03392052882556159 -0.1404768869359444 -0.0710453060618568
-0.03255194833093211 -0.1430377421673107 -0.07056533524057808
-0.03155774768094523 -0.14507979292476542 -0.06946682883097331
-0.03084608448904303 -0.14673185509107073 -0.06778735267103178
-0.030369311044097524 -0.1480601938015641 -0.06547708217673713
-0.03011128889509966 -0.14907347898267856 -0.0624858172262194
-0.030072101066525764 -0.14976131971916035 -0.05879221402588854
-0.030259662099802093 -0.15011338187259862 -0.05442058299479525
-0.030676451085823033 -0.15013031197152052 -0.04945904128304183
-0.03130313070349812 -0.1498413704979969 -0.0440733976715301
-0.03208772223272629 -0.14932478053105935 -0.0384707364676611
-0.032958425904414446 -0.14869808470630716 -0.032818090270817064
-0.033843598987007596 -0.1480888661992288 -0.02721431351511215
-0.03468120806169242 -0.14761682897898992 -0.02170595596062433
-0.03542232258225512 -0.1473859593335384 -0.016304789653785658
-0.036030901457889924 -0.14748471976372513 -0.01100013275680811
-0.03648232083351056 -0.1479892607406788 -0.005767855920350468
-0.03676238480736743 -0.1489711974546681 -0.0005813899926177205
-0.036866726561820974 -0.15050262850793505 0.0045736554878896855
-0.03680091971792862 -0.1526515810293089 0.009682833234782813
-0.036579840224224544 -0.15546256822614804 0.014696834994486862
-0.03622465445084596 -0.1589399579779216 0.019550294133991942
-0.03576037097432751 -0.16305804556697365 0.02419033136248755
-0.03521127186467572 -0.16777953667652507 0.02858205277833387
-0.03459688915201022 -0.17305847604749355 0.03270384935870509
-0.033928544957078366 -0.17883989033018513 0.03655059129907419
-0.03320670582709159 -0.18505860236791016 0.040136247852953014
-0.032420335456611195 -0.19163661306128052 0.04349077423089616
-0.03155007831044045 -0.19848205945337843 0.04665558823087905
-0.03057245353535293 -0.20549576160758318 0.04967637148242705
-0.029462667945185678 -0.212583579218649 0.052597295560739714
-0.02819421960055827 -0.21966764764650437 0.05545881207577537
-0.026736121936046287 -0.2266898631630971 0.05829492709799597
-0.025052812643786806 -0.2336040348620082 0.061128687547415676
-0.023107681712541447 -0.24036600039791395 0.06397223586269993
-0.020868284911842692 -0.24693185455944516 0.06683100795773914
-0.018311322762186 -0.25325840897849683 0.0697073528488309
-0.015424323883303987 -0.25930235888487074 0.07260183285573088
-0.012204723584293238 -0.265021788483169 0.07551488686697026
-0.008657028699564992 -0.2703804450289753 0.07844899587754225
-0.004788174724990161 -0.2753522397344836 0.08141041233805066
-0.0006051260854132894 -0.27991950803646226 0.08440914857546154
0.003885052010580408 -0.2840723508388112 0.08745931754073212
0.008674896526161307 -0.2878083356155932 0.09057940458655392
0.013755124819584293 -0.29112958161868163 0.09379208548678374
0.019111382819803423 -0.294039864426688 0.09712121400734608
0.024720986162985337 -0.2965452300105345 0.10058591086238657
0.030555369182239285 -0.2986554255455929 0.1041973630984704
0.036584675687691026 -0.30038318781298273 0.10795646297105022
0.042781656761185116 -0.30174461608456526 0.11185297857441956
0.049124654888124446 -0.30275968375995516 0.11586702366731075
0.05559893866590831 -0.3034538793626929 0.11997436567001743
0.06219319598449988 -0.3038556462287133 0.12415336904406113
0.06889382971667132 -0.30399488727552604 0.1283862789519432
0.07568029412189524 -0.3039028912255027 0.13266055269574442
0.08252275892658281 -0.30361480595957036 0.13696952309250682
0.08938157029160594 -0.30317097509215785 0.1413111345204465
0.09620993519565324 -0.3026179040363727 0.14568653515722493
0.10295774339099424 -0.30200716516897885 0.15009558986665805
0.10957472633872979 -0.3013931266583917 0.1545324373146756
0.11601375817139169 -0.30083019272153716 0.1589846835101943
0.12223406734594984 -0.30037164250189224 0.16343328878629904
0.1282038131897917 -0.3000667396566232 0.16785570644644265
0.13390042501573576 -0.2999591556937393 0.17222906842054456
0.13931186288246178 -0.30008625753955875 0.17653199758255095
0.14443734874478759 -0.30047944086512496 0.18075055711886795
0.14928441699902686 -0.3011664084026259 0.18487890704315335
0.15386355855053008 -0.30217447899546984 0.1889184353828079
0.15818416056573312 -0.3035314018868364 0.19287553022291812
0.1622503002634825 -0.30526492909206404 0.19675897775152135
0.1660582806076586 -0.30740004639967256 0.20057983111526465
0.1695938230766197 -0.3099544334020264 0.20434994423308256
0.17283018140536593 -0.3129339339661489 0.2080803102444422
0.17573108183393857 -0.31632879326879676 0.21177598867302874
0.17826011080323642 -0.320112280645213 0.21543381879122375
0.18039514969895007 -0.32424942169205917 0.2190458481931216
0.18213159208364854 -0.3287084385168828 0.22260600536789124
0.18347718775014268 -0.3334648933982228 0.22611080923439006
0.18444739842956365 -0.3384969116473838 0.22955529183248388
0.18506612696937993 -0.3437769524902044 0.23293066967531242
0.18536825457255116 -0.34926482736475895 0.2362260237735673
0.1854010737482907 -0.35490646841148865 0.23943000935691064
0.1852208695450732 -0.3606393818234661 0.24253663646543316
0.18488664206056815 -0.3664053939136237 0.2455484758745872
0.1844527348611871 -0.37216225051975826 0.2484802704873209
0.18396699553255502 -0.37788211444817 0.2513587995546307
0.18347669487337112 -0.3835264308493922 0.2542121656104987
0.18303083442196508 -0.38900622460636386 0.25704485313547426
0.1826742664663432 -0.39417053208881686 0.2598084086529176
0.182436316772555 -0.3988637876605176 0.26241199245074953
LINES 1 120
119 0 1 2 3 4 5 6 7 8 9 10 11 12 13 14 15 16 17 18 19 20 21 22 23 24 25 26 27 28 29 30 31 32 33 34 35 36 37 38 39 40 41 42 43 44 45 46 47 48 49 50 51 52 53 54 55 56 57 58 59 60 61 62 63 64 65 66 67 68 69 70 71 72 73 74 75 76 77 78 79 80 81 82 83 84 85 86 87 88 89 90 91 92 93 94 95 96 97 98 99 100 101 102 103 104 105 106 107 108 109 110 111 112 113 114 115 116 117 118
POINT_DATA 119
SCALARS Curvature float
LOOKUP_TABLE default
-0.007376870581620462
-0.007580421838024151
0.0007287470718567452
0.018426185176459327
0.04525336240541933
0.07971203974013343
0.11912705314947446
0.15988141475017656
0.19780375563513766
0.2286658527029351
0.24873041355075806
0.2552790166080027
0.24704879223309736
0.2245146047075675
0.1899704207813695
0.14738730457846488
0.10205317510469102
0.06002761097783059
0.027469939309135577
0.009917272467880415
0.011598490287532159
0.034868952044631536
0.07983883329071302
0.14424665564324612
0.2236012832380385
0.31158380268572605
0.40066920118673305
0.48290054511085667
0.5507288898258851
0.5978229424209514
0.619754814224493
0.6144818707062228
0.5825681230201676
0.5271189901750296
0.45343689696811534
0.3684379480448297
0.27989782179631156
0.19561465458257013
0.12258566532440972
0.06629156215898566
0.030168792092594866
0.01532625382798912
0.02053316602582833
0.04247211875056284
0.07621998406019491
0.1158931574314586
0.15537568391449066
0.18904124681487364
0.21238348850332855
0.22248301724035988
0.21826176134609226
0.20050307143589835
0.1716455289323961
0.1353860313226319
0.09614996358938646
0.05850047134614789
0.026563459527544613
0.0035396589248353556
-0.008639078606083053
-0.009473062797316694
0.0001337508547863152
0.018080139532551685
0.04141543406244653
0.0667755606971855
0.09084498388550466
0.11078177554234023
0.12455098631756184
0.13112649291439737
0.13054127914023103
0.12378783344104634
0.11259098688533602
0.09909228067706194
0.08549565658726685
0.07372761426349611
0.06516073189676228
0.06043841579768459
0.0594226682918236
0.06126794391530523
0.06460551983306603
0.06780688820793063
0.06928369908239011
0.06777721541712528
0.06259262553607484
0.053742434012100375
0.04197714367396354
0.028698461084168767
0.015767810259948556
0.0052384801778805525
-0.0009489709984634374
-0.0012629823999512008
0.005174993279510686
0.018435090835007106
0.0377357799892133
0.061520038937814964
0.08764093067686746
0.1136307060472457
0.1370154470632876
0.15563064848118696
0.16789297656038574
0.17298977442202987
0.17095980073385617
0.16265448143509917
0.14958634538518115
0.13368778449788132
0.11701642541511892
0.1014512848880877
0.08842531191318603
0.07873462663805218
0.0724534504911763
0.0689679663941522
0.0671243995605416
0.0654690668631137
0.06254358859494973
0.057189086999950026
0.048810500582213534
0.03755667872449655
0.024383214373479067
0.010981566681195267
-0.00042233403813339364
