# vtk DataFile Version 2.0
Vessel Segment
ASCII
DATASET POLYDATA
POINTS 119 float
-0.0032323283820710463 -0.0045882407549020475 0.0010644483844049306
-0.007117201913798695 -0.009820429733846205 0.00245114945695454
-0.011497552314207134 -0.015504503498131277 0.004041701733592261
-0.016184499182825506 -0.02139730793892538 0.005653680555218049
-0.02100937678432946 -0.027270150119296725 0.007134047531078352
-0.025857087228070674 -0.03298570033854048 0.008372550753781198
-0.03064596007800602 -0.03847515495052929 0.009261539694188234
-0.035303314943422 -0.043703520408358364 0.009684462675064382
-0.0397554675656561 -0.04865665077200907 0.009530441779499538
-0.04393637214099655 -0.05334863392198453 0.008720264137560798
-0.047797262087890105 -0.057829560844136166 0.007210818592994796
-0.05129924125306944 -0.06217502412457921 0.004986815090592213
-0.05439910179608524 -0.06646949887430936 0.002054468400414994
-0.05703977459109146 -0.07079255469324477 -0.0015503982083794848
-0.05914119533509258 -0.07520383267011424 -0.005745495928289745
-0.06065673654723069 -0.07974871220609124 -0.010382969389265289
-0.06157531953580896 -0.08447094731509776 -0.015351690151446343
-0.06187343953172606 -0.0893685322307539 -0.02055307415387153
-0.06154353023509797 -0.09441314988249488 -0.0258929846928406
-0.060599352346624474 -0.09957176608534943 -0.03129373577645116
-0.05907148242164046 -0.10482269439209896 -0.0366947541616919
-0.05700384304486406 -0.11015178885837043 -0.042031444418351833
-0.054465981772575084 -0.11553853156067129 -0.04720526760186983
-0.05156637776741452 -0.12094027188529864 -0.052073876509684563
-0.048449301606113805 -0.12628245382717884 -0.056469139421188856
-0.04527258073303603 -0.13146804990082278 -0.06023223784704224
-0.04218505218607339 -0.13640185524198148 -0.06323175130257544
-0.03932301222152082 -0.1409891718444459 -0.06534352286641659
-0.03683055420246288 -0.14509837696943365 -0.06644751313310729
-0.034825424605096904 -0.14857131124056616 -0.06652504061544515
-0.0333194986885015 -0.15134024905352883 -0.0657013449151283
-0.03221629695328429 -0.15348836437703278 -0.06414016812657132
-0.031411570980925625 -0.1551600383924893 -0.06187034511836168
-0.030854042491089622 -0.15641209805617823 -0.05883414824436435
-0.030525901011563186 -0.15724858587489834 -0.054996414444413486
-0.030424812671075347 -0.1576757421890318 -0.0503754160283267
-0.030549858395277938 -0.1577226372082293 -0.04506276618124036
-0.03088364893497743 -0.1574501656813906 -0.03923717508551187
-0.031379922389757946 -0.1569625673393577 -0.03316067058842072
-0.031960956331382843 -0.15641235095048103 -0.027086965154289218
-0.03255679696568096 -0.15595295745073004 -0.021122241618360658
-0.0331181232773335 -0.15570500580831662 -0.015278814785944082
-0.03360162602834863 -0.15577122696480353 -0.009532894053552865
-0.033971926490519576 -0.15624135936863137 -0.0038426446718472776
-0.03420164910159525 -0.15719623749422998 0.0018347888902412414
-0.03427120377060193 -0.15871008083291968 0.007530778517634708
-0.034172918017479036 -0.1608530447133896 0.013254576216966296
-0.03391467360756799 -0.16368931744057513 0.018989144715949265
-0.03351453580842633 -0.16728016917207103 0.02469558895275629
-0.03299529426458437 -0.17166942388881568 0.030302636391682056
-0.03238558091096874 -0.17685112566599173 0.03571460955697661
-0.03171937595670677 -0.1827697856564582 0.04084997625410526
-0.031029100165295954 -0.18934838797135142 0.04565823722343766
-0.030339094757464727 -0.19649932576789275 0.05011492978789039
-0.029660138532356956 -0.204126395220498 0.05421976769173185
-0.028986603406164928 -0.21211993988828018 0.057995281131846856
-0.02829648338179057 -0.2203514606324693 0.06148503981763484
-0.027555195224672743 -0.22867929955613034 0.06475490129478294
-0.026719468275814777 -0.2369675128627639 0.0678904770498546
-0.02573765339500144 -0.2451104734124485 0.07099058139874377
-0.024547982637896135 -0.2530502039450656 0.07415084346030687
-0.023087343772330255 -0.2607667960364456 0.07743989135209617
-0.021297963144771417 -0.26825487877224485 0.08089490800267073
-0.019128581853010442 -0.2755080048570028 0.08452344305018794
-0.01653954140489802 -0.2825109364844065 0.08830866127770517
-0.013505613650561705 -0.28923544088151687 0.09221796222079434
-0.010016217373921986 -0.29563973917089753 0.09620834227534826
-0.006074649712320051 -0.30167319359737166 0.10023256142495787
-0.001694144518301536 -0.30728714893568815 0.10424716238659293
0.003109530044272282 -0.3124444806182305 0.10821979597540382
0.008321333711792323 -0.31711736213174474 0.11213184258907727
0.013925262395229242 -0.3212865793227045 0.11597898162385932
0.01990172747765561 -0.324941494948138 0.11977155099149757
0.02622547059686953 -0.32807877438935756 0.1235356413889357
0.032864148445573164 -0.3307001543990362 0.12731086485203946
0.03977655361603528 -0.33281074808426764 0.13114246367480664
0.046914006687614536 -0.33441961250390234 0.1350726139872569
0.05422391240333397 -0.33554089947462057 0.13913130760766176
0.06165496674003938 -0.33619740064952247 0.14333201136739682
0.0691609566587312 -0.3364213213596547 0.1476713647967974
0.07670225245601751 -0.3362566272517278 0.1521327480073084
0.08424303331854799 -0.3357559387880171 0.15669345049131178
0.0917480542353237 -0.334978960205516 0.16132562525278102
0.09918208572969947 -0.33399024883051176 0.16600040497762936
0.10651248022515761 -0.3328587178331323 0.17069292720121115
0.11371259413594786 -0.3316527129163827 0.17538635327042285
0.12076527123329835 -0.33043412390837634 0.18007508635641614
0.12766074481764753 -0.3292537851617933 0.184761142838574
0.13439057628465972 -0.32815085502737806 0.18944728311151737
0.1409443478894199 -0.327156544575423 0.1941328157703397
0.14731079341013398 -0.3262997042159728 0.19881090092009754
0.15348062390903325 -0.32561217848704566 0.20347047979582839
0.15944550513096709 -0.32513269992035215 0.20809887720257197
0.16519723519685608 -0.3249094691853871 0.21268221985660324
0.17072695812900013 -0.32499761076488953 0.21721085637133813
0.17602579942957564 -0.32545481342034355 0.22167960590543917
0.18108435466420622 -0.3263393817136847 0.2260882328561825
0.18589283681602525 -0.327707295896904 0.23044075691009297
0.19043713864408351 -0.329610076251558 0.23474246154318149
0.19469603236875874 -0.33209086554212575 0.23900043096285692
0.1986353220551154 -0.33517788679605554 0.24322111227656876
0.20220439268670676 -0.33887732006535726 0.24740939014075516
0.20534050936654466 -0.34316775555128143 0.25156404956905065
0.20798158396125166 -0.34799747333363573 0.2556767873467262
0.21008674028048893 -0.3532982952505799 0.2597376154420025
0.21164135956191052 -0.3590019563289765 0.2637422256968744
0.21265296395988736 -0.36504635380123174 0.26769051490610074
0.2131489993829869 -0.3713672206416413 0.27157849377330195
0.21318195450088148 -0.37788777767314685 0.27539399664160824
0.21283231985302842 -0.38451426140609934 0.2791205723378106
0.2122027494980474 -0.39114298386358526 0.28274170438968205
0.21140147186440938 -0.39767443892837706 0.2862479462505499
0.21052603164333006 -0.40403405120964175 0.2896385901124175
0.2096493401377759 -0.41019051578078697 0.29292709655781646
0.2088189593891916 -0.41615170302263715 0.29614237406787514
0.20807050033802632 -0.4219254156985612 0.29931413999444434
0.20743879370553334 -0.42746380502714465 0.3024391275165489
0.20695631753496616 -0.4326452420567065 0.30544686179075387
0.20664151272214742 -0.4373309778991617 0.30821929154010197
LINES 1 120
119 0 1 2 3 4 5 6 7 8 9 10 11 12 13 14 15 16 17 18 19 20 21 22 23 24 25 26 27 28 29 30 31 32 33 34 35 36 37 38 39 40 41 42 43 44 45 46 47 48 49 50 51 52 53 54 55 56 57 58 59 60 61 62 63 64 65 66 67 68 69 70 71 72 73 74 75 76 77 78 79 80 81 82 83 84 85 86 87 88 89 90 91 92 93 94 95 96 97 98 99 100 101 102 103 104 105 106 107 108 109 110 111 112 113 114 115 116 117 118
POINT_DATA 119
SCALARS Curvature float
LOOKUP_TABLE default
-0.012165346564249783
-0.01241374714499063
-0.0042355149193185745
0.013160158073081981
0.039415172532009914
0.07294528125919962
0.1110326065021101
0.15008603040664958
0.18604406467160045
0.21487381469394207
0.23310413485646284
0.23832331784532376
0.2295729780816756
0.20758029848693135
0.17478940393210896
0.1351770900326649
0.09386542297633699
0.05657033709641306
0.02894779958400581
0.01591435955680077
0.021024797265552692
0.045985153843597526
0.09036498600184589
0.15154988235248507
0.22494683107885557
0.30442444021829973
0.3829411033182515
0.4532906315875722
0.5088796599312034
0.5444462705393669
0.5566354641711619
0.5443636560761564
0.5089292811791022
0.4538568018378312
0.3844931870992297
0.30740534021387544
0.229650355653635
0.15800501295240754
0.09824481120018569
0.05455570626452116
0.02914451237007163
0.02208890608187869
0.03143832286930585
0.05354651203062968
0.08358892957156154
0.11619689573600712
0.1461280713775319
0.16889069935452589
0.1812472730076402
0.1815405791916539
0.16980903087844815
0.14768565852775356
0.11810249197811885
0.08484584349615898
0.05202524279376535
0.023527432045367565
0.002526018598542876
-0.00889252697946328
-0.009943302496848291
-0.001177126236059854
0.015661833091778123
0.03792805764043275
0.06247064699837848
0.08607553822722834
0.10589236470092536
0.11978886700297993
0.12658787479610986
0.1261597067101935
0.11936379969104778
0.10785452801044818
0.09378459614815526
0.07945261845545469
0.0669478293464608
0.05784358550291836
0.05298277905540407
0.05238383185705062
0.055277737231816663
0.0602672952829377
0.06558200255157333
0.0693884867851819
0.07010878948780115
0.06669819265886298
0.058840664767138284
0.047032380927350126
0.03254033067793365
0.01724136522960829
0.003364522255106941
-0.00682639376264806
-0.011364209113633386
-0.008875789239466674
0.0011978251822394156
0.018490949879557014
0.04172932023851111
0.06887159063444039
0.09735734518444436
0.12442753490004055
0.14747292462968734
0.16436210642491336
0.17370349677482674
0.17500508909384388
0.16871026193252636
0.15610558994438942
0.13911486000510684
0.12000975270780732
0.1010795744851557
0.0843082861201641
0.0711059906426503
0.062134122639199825
0.0572499039598966
0.055578112390838555
0.05569933432661852
0.055926347831293605
0.05462665957319801
0.05054152851038453
0.04305126668131077
0.03234343013455535
0.019453872911144046
0.006168760154251258
-0.005203964061189284
