# vtk DataFile Version 2.0
Vessel Segment
ASCII
DATASET POLYDATA
POINTS 119 float
-0.003217112842659478 -0.005370608230191394 0.0002635720184526075
-0.007105880995010666 -0.011182563942718993 0.0009968009143468608
-0.011498781296679542 -0.017183617744032324 0.002074013722917833
-0.016203359409296327 -0.023148885946039692 0.0033148143462798057
-0.021054338067412335 -0.02892722674214996 0.004536608252449987
-0.02592383617073772 -0.03443927265029232 0.005566746597061023
-0.030704956162987993 -0.0396468793785406 0.006235944815268338
-0.03529580099251041 -0.04452877934892614 0.006385575823810216
-0.039601263947013805 -0.049075390552387084 0.005892907134750094
-0.04355596910053464 -0.05330660498573511 0.0046943610023317695
-0.04713893938332661 -0.0572920023192816 0.0027642053074127555
-0.05034475053692552 -0.06112890541423525 7.801926981000802e-05
-0.053143245432096003 -0.06490341390204374 -0.003373502293801187
-0.05547346380760007 -0.06867951105818086 -0.007533134036022265
-0.05727272024159639 -0.07250800649563503 -0.01227024026659751
-0.058505563434760016 -0.07642406135724808 -0.017414881061592887
-0.05916129618629641 -0.08044690049168024 -0.022819487665140713
-0.05923456737772354 -0.08457261591462614 -0.028368630608275866
-0.0587274428179762 -0.08878549276040312 -0.0339749552127705
-0.057653082532641314 -0.09307146185609018 -0.03956798199163216
-0.056037295648963696 -0.09742725547639325 -0.045093464268121095
-0.05392070918167011 -0.10185085920811238 -0.05049435952433551
-0.05137215897964962 -0.10633264307732469 -0.05568610975921827
-0.048498223272469936 -0.11084581687830994 -0.06054273675466072
-0.04544738110313351 -0.11533004240172842 -0.06489860565944361
-0.042400752816622714 -0.11968278080592748 -0.06858176329174852
-0.03953736434179105 -0.12378752565225301 -0.07147108816498904
-0.036998743061398505 -0.12755543149530188 -0.07351902095962963
-0.034870896189614996 -0.13091682136059746 -0.07473601356045645
-0.033188862429675406 -0.13380485708785 -0.07518561973424397
-0.031926618225625224 -0.13620647255751886 -0.07498302626355341
-0.031010743576064502 -0.13818129130477336 -0.0742430812056916
-0.030365036364784406 -0.1398301933718696 -0.07300226799048387
-0.029947594495188894 -0.14121529780967224 -0.07122614590122389
-0.02974198096212338 -0.142350860379446 -0.06886681660286509
-0.02974818699116606 -0.1432220649387552 -0.06588173560240007
-0.02998027543910627 -0.14379676010971876 -0.062247689178741426
-0.030457291358464634 -0.14403425667061306 -0.057981547056634455
-0.031184862985206636 -0.14390409868841472 -0.053166020224468716
-0.03213754959117351 -0.14341567814588457 -0.04795694643685476
-0.03324565983663872 -0.14264422308169045 -0.04255628978790327
-0.03441846505262873 -0.14171659626803665 -0.03712466777963083
-0.03557503117658567 -0.1407689526497407 -0.03176040841193198
-0.036649781702772465 -0.13992764861287785 -0.026515696929994337
-0.03759308802575717 -0.1393034236215228 -0.021406575991268145
-0.03837050037685535 -0.13899009515836766 -0.016421169523961318
-0.03895958190147991 -0.13907058192561453 -0.011531580018516754
-0.039347078533627636 -0.1396240130840764 -0.006714703075910991
-0.03953246910161401 -0.140717656722222 -0.0019792008459907137
-0.03952941776133521 -0.14238744138762807 0.002637079803092194
-0.039358115404620295 -0.1446351436070449 0.00709294354793655
-0.03904031214610949 -0.14744711688645257 0.011361283863581293
-0.03859601927631489 -0.1508075322030376 0.015424277039385944
-0.03804147341799896 -0.15469637031871009 0.019268228219319537
-0.03738751488085622 -0.15908734919444975 0.022889957978174294
-0.036637470106199874 -0.163948747021498 0.02630179197301074
-0.03578643613576441 -0.169242161764081 0.029526899061761407
-0.034824643478669766 -0.17491629363077096 0.032589752674428284
-0.033742726334646714 -0.1809040394101419 0.03550463591499458
-0.032537186462932376 -0.1871254061963777 0.03827028592914603
-0.03121095314474842 -0.19349415438392775 0.04088042437933196
-0.029759963736517323 -0.19993071749097446 0.0433405722549228
-0.028166312083147776 -0.20636452757510937 0.04566439575027931
-0.026403425059310145 -0.21272638821040057 0.047871503706121595
-0.02444210362190571 -0.21895015500625628 0.04998895256185138
-0.02225839186075932 -0.22497759775822454 0.052049146281332566
-0.019837349403875146 -0.23075898760272132 0.054087112601404384
-0.017172308584736336 -0.23625384130593954 0.056138790624209955
-0.01426256604989631 -0.24143127283072155 0.0582396148288705
-0.011110067575992784 -0.2462713250852619 0.0604230956562015
-0.007716737798692837 -0.25076402337269904 0.06271960995110368
-0.004082836311281564 -0.2549082656884296 0.06515689136153477
-0.00020554032598692684 -0.25871044921027075 0.0677602030560258
0.003919609218253694 -0.2621791546679421 0.07055082807890783
0.008293387547600214 -0.2653209083422475 0.07354180708539519
0.012908093794904254 -0.26814257323115626 0.07673296209462743
0.01775051061310807 -0.27065390669573625 0.08011158511859418
0.022807351027831522 -0.2728659869131493 0.08365535915558284
0.028068481068444322 -0.274789428256355 0.0873344570705843
0.033529782428159446 -0.2764349993080728 0.09111478297112499
0.03919467485848178 -0.2778149054728768 0.094964906776756
0.04507037094384986 -0.2789404878116423 0.09886293496150046
0.05116036572971975 -0.27982024968933183 0.10279799891530676
0.05745645887329211 -0.28046063274127764 0.10676943017549928
0.06393204041022332 -0.28087000247631055 0.11078413739336711
0.07053792629370804 -0.28106459675003453 0.11485152953964499
0.07720396927755493 -0.28107549182030983 0.11897860943054143
0.08384752672566084 -0.2809516857357629 0.1231645826829474
0.09038432696031637 -0.2807577197598937 0.1273979158295958
0.0967373729251659 -0.2805659211843912 0.13165784960957458
0.10284207971473067 -0.2804492824022705 0.13591626729710138
0.1086486551709724 -0.2804711131991286 0.14014176722688515
0.11412359958143892 -0.28067867280152464 0.1443033462321543
0.11925239153349386 -0.2810999033405308 0.14837327837782233
0.12404116804255166 -0.2817465251160427 0.15233351571259587
0.12851080632729364 -0.2826218840276155 0.1561769432679507
0.1326879822000192 -0.2837284288322658 0.15990580699398976
0.13659822832177546 -0.2850716108720565 0.16352868147019078
0.1402617094602987 -0.286661237823638 0.1670583919541143
0.1436906927227608 -0.2885100716408373 0.17051114250019753
0.14688841862009375 -0.290630946615772 0.17390527363625272
0.14984768530306178 -0.29303363295697 0.17725837399373473
0.15255233364438467 -0.2957213773718983 0.18058140390075653
0.1549841426515745 -0.29868943683421056 0.18387530614527087
0.1571330898894198 -0.30192930565042375 0.18713306622562187
0.15899998283224842 -0.30543633023677247 0.1903461696490584
0.16059129076293582 -0.30921253458656045 0.19350729333369776
0.1619134061132804 -0.31326472231918784 0.1966094040993757
0.1629704572040011 -0.3175983548827569 0.19964486618972854
0.16376605965691363 -0.32220996596565465 0.2026054875784976
0.16430869139725135 -0.3270816702984409 0.2054826206019132
0.1646164604437143 -0.33218146685840455 0.2082721699693925
0.16471748022525673 -0.33746923143517193 0.21097892451732939
0.16464798443719209 -0.34290054811280224 0.21361875158152768
0.16445151518944903 -0.3484239608296796 0.2162173612894368
0.16418103606495282 -0.3539654364587002 0.21880266758054853
0.16389499404626756 -0.35940205488734006 0.22138687153832845
0.1636475733324417 -0.3645572572098327 0.22394108004120966
0.16347685783052981 -0.36926048927635563 0.22639845363291985
LINES 1 120
119 0 1 2 3 4 5 6 7 8 9 10 11 12 13 14 15 16 17 18 19 20 21 22 23 24 25 26 27 28 29 30 31 32 33 34 35 36 37 38 39 40 41 42 43 44 45 46 47 48 49 50 51 52 53 54 55 56 57 58 59 60 61 62 63 64 65 66 67 68 69 70 71 72 73 74 75 76 77 78 79 80 81 82 83 84 85 86 87 88 89 90 91 92 93 94 95 96 97 98 99 100 101 102 103 104 105 106 107 108 109 110 111 112 113 114 115 116 117 118
POINT_DATA 119
SCALARS Curvature float
LOOKUP_TABLE default
0.0033483663246659996
0.0025395557220084107
0.010139044087324614
0.02705972961491868
0.05313380690762219
0.08698909451688139
0.1260841429987129
0.16691092839880312
0.2053511204649191
0.23714974236102151
0.2584515795484765
0.26633363274416244
0.25926316255324916
0.2374163134110356
0.20280660671324807
0.1591942420378404
0.11177360135087314
0.0666643561688092
0.03025756478331966
0.008488698969862098
0.0061218403884615545
0.026131500776705955
0.06926005401788776
0.1338103761413163
0.2157070039495777
0.3088280210586085
0.40557770947176247
0.4976407190810229
0.5768357681986359
0.6359735974971069
0.6696218245529016
0.6746888832002711
0.6507593442192653
0.6001412492077356
0.5276192656008672
0.43994149279957184
0.3450985059287809
0.25147699937556445
0.16698433028976573
0.09824271959984293
0.04994261678780961
0.0244249844672703
0.021534498954823334
0.03875334357374788
0.07159236566277237
0.11418687252501336
0.16002177661211192
0.2026977776863569
0.2366481780520345
0.25772477628126633
0.26358972812341974
0.2538757893731843
0.2301066271766412
0.19539817777232324
0.15398770498374395
0.11065618965222093
0.07011979985115566
0.03646648161056124
0.012704473993178804
0.0004723005881755155
-6.298851631089184e-05
0.009882266824193615
0.02796359579599935
0.05108793379463552
0.0758608072405438
0.09903883662964802
0.11792799035125359
0.13067853705704136
0.13644419900306798
0.13539314102975444
0.12857928214102232
0.117701132041086
0.10478946346456817
0.09187287393870851
0.08067083998414153
0.07235741337409791
0.06742640803971547
0.0656727118386654
0.066286654758512
0.06804174003571672
0.06954284163738318
0.06949398986106614
0.06694311912316013
0.06146573766016294
0.05325958768754994
0.043136408742208004
0.032412770644128765
0.022717254146250317
0.01574378956454412
0.012988912988434029
0.015512950515735384
0.0237614190950234
0.037473836745665394
0.05569404335011087
0.07688099880111338
0.0991040896199695
0.12029444214291961
0.13851545634069873
0.15221296031050677
0.16040845975100185
0.16280747317688837
0.15980765471255365
0.15240644200501302
0.1420231042386956
0.13026305077067613
0.11866113880683267
0.10844411924615116
0.10034970613849244
0.09453135620227077
0.09056486290362413
0.0875571638555331
0.08434162746141166
0.07972993280162248
0.07278065727329426
0.0630404544370445
0.050716051923552545
0.036744098598389556
0.022740069047231685
0.010825103508954556
