# vtk DataFile Version 2.0
Vessel Segment
ASCII
DATASET POLYDATA
POINTS 119 float
-0.0032145677083441765 -0.005169876136292739 0.000457867195321691
-0.00709828777358399 -0.010836586509942773 0.001347101032892224
-0.011485909823162204 -0.01675931883528676 0.0025454962103390647
-0.016185317137834707 -0.022706244390795115 0.0038733343209951146
-0.021029731795926935 -0.02850616726311104 0.005155545450700773
-0.02589381725968748 -0.03406530728961191 0.006234215920021824
-0.030676377583578815 -0.039338002102247464 0.006954427162176058
-0.035282118960524855 -0.04429949569137774 0.007167229419249628
-0.03962051914753413 -0.0489387596235866 0.006752540858055513
-0.04362560097805679 -0.053273981792882355 0.005643392001567286
-0.04726983249103016 -0.05737020037408159 0.003810846790033258
-0.05054035663083829 -0.061319992361196264 0.0012337985760162255
-0.0534046370269823 -0.06520951442956262 -0.002092543293890525
-0.055803401127722224 -0.06910690845607749 -0.006116214441695595
-0.05767043195152448 -0.0730655556769417 -0.010719206046308282
-0.05896753422684384 -0.07712280306905737 -0.015737638045198454
-0.05968361537235288 -0.08130306367637685 -0.02103317899740579
-0.05980896050104364 -0.08560266955669285 -0.026494663297844778
-0.05934334830563746 -0.09000295667818012 -0.03203312672608751
-0.058300008598589644 -0.09448559498993096 -0.03757640670459293
-0.05670572948631827 -0.09904324668117778 -0.04306877541067246
-0.0546017624112939 -0.10367120511268779 -0.04845136522860834
-0.05205700322285064 -0.10835737651149328 -0.05363627176111577
-0.04917837746900559 -0.11307137765473856 -0.05849366423308028
-0.046113257483943106 -0.11774963272113091 -0.06285736629583595
-0.04303728461467536 -0.12229072841899175 -0.0665584971001493
-0.04012272573262607 -0.1265827228626179 -0.06947343953296596
-0.03751051584761832 -0.1305351963548282 -0.0715369869962548
-0.03530057669737607 -0.13406416131881968 -0.0727300259569319
-0.03354723411624882 -0.13708126803481882 -0.07309780091420633
-0.03223367606160909 -0.13955941130936317 -0.07275945086048796
-0.03128086816325993 -0.14156428674699187 -0.07184565311503041
-0.030604254329601954 -0.14321227015511637 -0.0703947561148847
-0.030158673579928144 -0.14456929754862283 -0.06836402331490089
-0.029928002550619434 -0.14564697129105464 -0.065702596914105
-0.029912569412676556 -0.14643159059231703 -0.06237676363082635
-0.030123602735643185 -0.14690035242565777 -0.05838552260318834
-0.030572020259585213 -0.1470317312643524 -0.05378021864066503
-0.03125085266991236 -0.14682422837874068 -0.048684802804242845
-0.03212092760401021 -0.146321927338673 -0.04328187936794895
-0.033110970949517836 -0.14562249696477803 -0.03775817684093825
-0.034139593099635226 -0.14485418361506464 -0.032245171668391706
-0.035135450466428124 -0.1441450917571085 -0.02681653487586034
-0.03604172281635757 -0.14360963179768013 -0.02150513459428715
-0.03681623494787872 -0.14334583838784182 -0.016314034488061648
-0.03743018251267521 -0.14343675286024613 -0.011224813698086056
-0.03786579652595337 -0.14395799018205616 -0.006208823582748368
-0.03811437442240721 -0.1449844083747484 -0.0012450984229256373
-0.03817808518154563 -0.14658380849554037 0.0036568684606730125
-0.03807054998348057 -0.14879724010323883 0.008454706568722502
-0.03781171471745838 -0.15162918111152973 0.013095676477616294
-0.03742431139600398 -0.15506175899191693 0.01753991304415047
-0.03693004252921922 -0.15907017489983083 0.021760784619209064
-0.03634658979847459 -0.16362289187293658 0.02574004388340851
-0.0356850770328238 -0.1686803585330425 0.02947278130024678
-0.034947650958085295 -0.17419495452809258 0.03297139634511855
-0.03412673188338604 -0.18010917901624876 0.03626178275478025
-0.03320819319710486 -0.18635193188618826 0.039376295264279
-0.03217599630824036 -0.19284017022012637 0.04234441123742256
-0.031016289239884646 -0.19948639037302537 0.04518717380472973
-0.0297175328393376 -0.20620747860658345 0.04792133094821764
-0.028262433948267326 -0.21293315030927915 0.0505663445650814
-0.026624515732843204 -0.21960360343929075 0.05314025614575166
-0.024772503148229562 -0.2261610957089151 0.05565867240330343
-0.022675890261313916 -0.23255014589450196 0.05813773600692641
-0.020311285962463125 -0.23872020240252503 0.060594960487019525
-0.017665067645209098 -0.2446253437746917 0.06304855197113225
-0.01473250947814091 -0.25022515702676973 0.06551735023277544
-0.011515251254334344 -0.25548680621136716 0.06802107378128971
-0.008017434590465253 -0.26038776657242735 0.07058031364863775
-0.004243273825468586 -0.264914411899995 0.07321581259706465
-0.0001962973985960752 -0.2690611773908903 0.07594882084406665
0.004121249708092477 -0.27282982878294004 0.07880128710151381
0.008707030110978252 -0.27622547802041497 0.08179501150205241
0.013554362833822222 -0.2792531261913928 0.08494807503169746
0.0186482158795035 -0.2819192053868098 0.08826951019489813
0.023967958415666086 -0.2842335357574721 0.09175817272953193
0.029492393200254735 -0.2862080932824272 0.09540310172960272
0.035203271430181884 -0.28785622756618273 0.09918416404870625
0.0410881607678262 -0.2891931760918949 0.10307437309958749
0.0471418458727856 -0.2902374871203056 0.10704599114387252
0.053362657362168435 -0.2910086067609228 0.11107741758572015
0.05974581694193792 -0.29152520576317786 0.115154584005556
0.06627707164298477 -0.2918056501381637 0.11927117370821834
0.07292816314924784 -0.291871356936845 0.12342757910362333
0.0796544778202857 -0.2917505322110933 0.12762763710304356
0.08639722625273474 -0.2914821400590656 0.13187541067496955
0.09308965573137051 -0.2911167842436943 0.13617027244576257
0.09966412389928372 -0.2907142468827001 0.14050328776752852
0.10605824059840296 -0.2903381576698759 0.14485764345552893
0.11221903900388067 -0.29005185119894505 0.14920955756830517
0.11810545385095848 -0.2899117609837532 0.15353189907002976
0.12368924683813778 -0.28996343577789274 0.15779762484835613
0.1289570287147147 -0.2902395082424806 0.1619821465898435
0.13391150870652901 -0.290761384400946 0.16606950956241623
0.13856703356496075 -0.29154433565437926 0.1700533199729134
0.14294235658772594 -0.29260293739348675 0.17393546523938017
0.1470550407375137 -0.2939534488215727 0.17772341736213096
0.1509172189923881 -0.29561425554374393 0.18142787311064415
0.15453313387323503 -0.29760376534910893 0.18506226885841054
0.1578972775428175 -0.29993672762881246 0.1886414966454724
0.1609928392727118 -0.30262050255011963 0.1921796916386276
0.16379394830364394 -0.30565157620423533 0.19568479771906586
0.1662737691160721 -0.3090142609839109 0.19915573439175283
0.16841671886009243 -0.31268715564679866 0.20258510875593078
0.1702212854494129 -0.31665261244898163 0.20596574164474418
0.17169476898699818 -0.3209001741520001 0.20929236225759965
0.17284797566873086 -0.32542328735070025 0.2125591592310739
0.17369437591463105 -0.33021212077656714 0.2157581962506458
0.174252271466703 -0.33524610861428766 0.21888022133134208
0.17454843736286565 -0.34049022896505615 0.2219154796089126
0.1746191630943941 -0.34589756524966625 0.22485905066352535
0.1745075720041244 -0.35141860642438477 0.227714659474324
0.17425907454820533 -0.3570091557626724 0.23049757834023607
0.1739198419412118 -0.362628623327096 0.23323393454519853
0.17354050276891925 -0.3682200447291448 0.23595157995975566
0.17317513299810056 -0.37367716772852455 0.2386587519819159
0.17287343789602824 -0.3788361789633233 0.24131676895974694
0.17266922247620486 -0.3835340250645644 0.24384680969995084
LINES 1 120
119 0 1 2 3 4 5 6 7 8 9 10 11 12 13 14 15 16 17 18 19 20 21 22 23 24 25 26 27 28 29 30 31 32 33 34 35 36 37 38 39 40 41 42 43 44 45 46 47 48 49 50 51 52 53 54 55 56 57 58 59 60 61 62 63 64 65 66 67 68 69 70 71 72 73 74 75 76 77 78 79 80 81 82 83 84 85 86 87 88 89 90 91 92 93 94 95 96 97 98 99 100 101 102 103 104 105 106 107 108 109 110 111 112 113 114 115 116 117 118
POINT_DATA 119
SCALARS Curvature float
LOOKUP_TABLE default
-0.002520480985145986
-0.0030072381054686774
0.00497866226200511
0.022342584186755023
0.04887826030462767
0.08315135641393764
0.12254766092201687
0.16349240773027054
0.20182371092810172
0.23328068013633854
0.25404861709957893
0.26129242078672577
0.2536067627741759
0.23131844008762908
0.1965920357054992
0.15331288447084013
0.10674861890596193
0.06301885345913023
0.028428220025130926
0.008737591960674154
0.00845921538976919
0.03026194916850483
0.07456253710892505
0.1393588051182583
0.22033316450946136
0.3112230804792877
0.40442309653375735
0.4917545677332673
0.5653180311645709
0.6183318610625758
0.6458610398545299
0.6453516332850797
0.6169085568743787
0.5632838495948967
0.48957635539592603
0.40267736437367957
0.3105262884437214
0.22126225492600582
0.14236896621509895
0.07990995004780332
0.037939517202444796
0.018152885753646517
0.01980978657742571
0.03993307156591017
0.07375145337770304
0.11532746280327573
0.1582913717515762
0.19659154275154297
0.225172486164413
0.24050348672599278
0.24090131685920066
0.22661749919533353
0.19969030027610152
0.16359034874780612
0.12271291064170864
0.08178652679689559
0.04527505321735464
0.01684751574923252
-0.0010217393474329648
-0.007279506901065624
-0.00232780480310988
0.012127880319457026
0.03338603418482243
0.058163421925519626
0.08305596882471897
0.1049828941412964
0.12155627813582552
0.13133121982364535
0.13391017852697104
0.1298962979314549
0.12071150955908047
0.10831314662376167
0.09485531776747679
0.08234685447551907
0.07235571981062866
0.06580086443198034
0.06285810832819816
0.06298891185372997
0.06508248312070292
0.06768519122889935
0.06927902198799156
0.06856447881235975
0.06470367834251287
0.057486233037886865
0.047392741596877536
0.03554645938846839
0.02356065401532221
0.013304786124712246
0.006624729880952589
0.005059036009091069
0.009593797207050371
0.020492963431682568
0.03722984258040573
0.05853065660528512
0.08252458658553131
0.1069791355403362
0.12958714143754851
0.14826420774036372
0.1614137914265418
0.16812192899126624
0.16825390898849768
0.16243961971761572
0.1519507152907406
0.1384887532894391
0.12391670653314778
0.10997476836790691
0.09802385623984203
0.08885624012588618
0.08260278770671776
0.07875181129378996
0.07627749585264548
0.07385885624338502
0.07015563768047221
0.06409774566775885
0.05514124221859665
0.04344736985263426
0.02995116485328359
0.016301723437179488
0.0046750000700906905
