# vtk DataFile Version 2.0
Vessel Segment
ASCII
DATASET POLYDATA
POINTS 119 float
-0.005083096001761318 -0.0053328951900759565 0.0007333066649679733
-0.010633979158940886 -0.011209847010802064 0.0014807684027682356
-0.016456819668861294 -0.01734385595169902 0.002235168332773639
-0.022430270950347914 -0.023538859475657134 0.003016175386808191
-0.028486444151735797 -0.029672511041111675 0.003818755409460457
-0.03456450491390359 -0.03563011497765455 0.004599595568557553
-0.040600184454501774 -0.04128944783887347 0.00528851007944307
-0.046526283574409674 -0.04652991039873073 0.005804249780166787
-0.05230102206762245 -0.051283924059657704 0.006046489216743514
-0.05790040021429781 -0.05554401783765001 0.005846458860801094
-0.06329488438664956 -0.05933359405186916 0.0050049633081593456
-0.06848762649574162 -0.06272952693382845 0.0033565579670253713
-0.07351800547997811 -0.06585423615205989 0.0007855173063979468
-0.0784333902271723 -0.06886159394587947 -0.0027454370557035363
-0.08327912307422963 -0.0719339731269012 -0.007200960136789674
-0.08804904950927801 -0.07524007502642957 -0.012496460834749258
-0.09265130312238443 -0.0788900028924626 -0.018492397235500363
-0.09691273993826194 -0.08291455909538518 -0.0249751774770396
-0.1006354332338035 -0.08727906487365908 -0.03170860497008302
-0.1036355669247073 -0.0918961719824604 -0.03847696526201744
-0.10578451974598232 -0.09667231673334202 -0.045172301969884435
-0.10699325462848007 -0.10152228949731107 -0.05180800331054694
-0.10720723195337646 -0.10640058649351805 -0.058497363811282774
-0.10638427409306778 -0.11132337001859621 -0.06543695035522609
-0.1044642369821713 -0.11637802487361235 -0.07288178136960716
-0.10135961901745097 -0.12172940749686456 -0.081059912238532
-0.09703256351119201 -0.1275562109472745 -0.08997137197117659
-0.09158196836714741 -0.13395748982383396 -0.09932553901011466
-0.08523652693165525 -0.14096107196559166 -0.10862892844998982
-0.0783567484620886 -0.14849229408511427 -0.11722727823266675
-0.07140517204854951 -0.15628380388917187 -0.12448133433199428
-0.06476413988836466 -0.16403378988687844 -0.13003772496320548
-0.05869839828263216 -0.1714835822363191 -0.13374964528810698
-0.05340700864767018 -0.17833632844296765 -0.13561238083321858
-0.049004824750992285 -0.18434883320737205 -0.13581847512265435
-0.04549766582929005 -0.18941961509505398 -0.1346406036697037
-0.04283839061137447 -0.19354910581748497 -0.13230169613535853
-0.04096194936322303 -0.19678691946655547 -0.12892514154491164
-0.03981710196797659 -0.19917721098476673 -0.12454662103691025
-0.039382004328782194 -0.20073397118744576 -0.11921618592177269
-0.039625075177442876 -0.20148222446184746 -0.11308720299281645
-0.040480603928342816 -0.20149956526985974 -0.10635827973488059
-0.04185893363679335 -0.20090809276045507 -0.09921935126978074
-0.043649436696181446 -0.19986020649901223 -0.09183101686092486
-0.045728642373104415 -0.19853208798576977 -0.0843101741437807
-0.047973679420025145 -0.1971142744723913 -0.07673254561096414
-0.050273479914191864 -0.19580095034725742 -0.06915079480228094
-0.052535929004869385 -0.1947645307381672 -0.061598383450530855
-0.05469163118196227 -0.19413875457939858 -0.054081402251309627
-0.05669336402642479 -0.19402247226237498 -0.04658602646700538
-0.05851333877760958 -0.19449023530856446 -0.03910678475004477
-0.060141322805290255 -0.19559849129644574 -0.031664828039711435
-0.061581025431596464 -0.19738629274472447 -0.0243155047189893
-0.0628462296654903 -0.19987136234710345 -0.017139739720851654
-0.06395713691538371 -0.20305808375115095 -0.010224775251093622
-0.06493750062827072 -0.20694630364958613 -0.0036564644066456285
-0.06581148227099413 -0.21153028830145607 0.0024903727569067268
-0.06660164765723478 -0.2168018767269572 0.008170705004397691
-0.06732317817522565 -0.22275364689314955 0.01337383110358348
-0.06797573379688358 -0.22936439938584116 0.018118100856270768
-0.06854036268376748 -0.23658488801471084 0.02243953172022593
-0.06899153226473508 -0.24433480956391515 0.026382408909165208
-0.06930658517835533 -0.2525205848273295 0.030005389234330136
-0.06946875389683255 -0.26106220704523536 0.03337568390379857
-0.06946892378203616 -0.26990231885618426 0.03655653918270141
-0.06930119326782352 -0.2790090546379678 0.03960199269549369
-0.06895294417369198 -0.28837446329714117 0.04255562423455476
-0.06839388064517811 -0.2980025847980221 0.04545159062336192
-0.06756917250081455 -0.3078754454979992 0.048313220348133235
-0.06640630711247644 -0.3179235445150149 0.051153472823596335
-0.06483258218543667 -0.3280182915179964 0.05398128196810501
-0.06279209201061163 -0.33799468225252494 0.05681116833145891
-0.060255062248222344 -0.3476783229746368 0.059672169308879024
-0.0572217227976526 -0.35690775019380666 0.06260690095979039
-0.05372615957733243 -0.36554507355092497 0.06565916375490952
-0.049832632386523294 -0.37349566812073465 0.06886166107682365
-0.04561309882563136 -0.3807152404367798 0.07223301980442413
-0.04112814593813214 -0.38719454077474164 0.07577235203743377
-0.036420574598890545 -0.3929457267431968 0.0794524433227307
-0.0315056768635657 -0.3980083835147272 0.08322359050386213
-0.026360632629415875 -0.40245065723996803 0.08703806846087857
-0.020931450569534535 -0.40634402985130663 0.09086810700267652
-0.015152403601358642 -0.40973978524190835 0.0947052797542478
-0.008972856498659514 -0.41265668052376714 0.09855253467550182
-0.0023836078506554222 -0.41507988348022906 0.10241979595516644
0.004573738479810821 -0.41697295469248796 0.10632411468265428
0.011820278209926205 -0.41829431520431914 0.11028927398385632
0.019269983483188768 -0.4190128096352013 0.1143437203386274
0.026864318808225884 -0.4191147898672592 0.11851671214076404
0.03459194412178507 -0.4186082211524024 0.12283923309521329
0.04248493497378932 -0.41752753002650733 0.12733906106794332
0.05060022922360741 -0.4159335901591853 0.13203915135416386
0.05899244625195213 -0.41391686853594717 0.1369553586625534
0.06769824317440418 -0.41159780989070466 0.14209375180344744
0.07672238346371098 -0.4091204820425871 0.14744959686759743
0.08603840275397902 -0.4066425315973674 0.15300792933838717
0.09558771712820796 -0.4043259668595357 0.15873895510084898
0.10528182983435568 -0.40232240815601916 0.16460437622023358
0.1150055600260073 -0.4007555713755479 0.17055995583002942
0.12463080807800783 -0.399704258345715 0.17656342619687018
0.13403254764259326 -0.39919401947163485 0.1825810593643456
0.14310396329165975 -0.3992044066141846 0.18859259350909446
0.15176479429048978 -0.3996879475919256 0.19458666619763182
0.15995730548949258 -0.40059291037360023 0.20055448965343423
0.1676399087286393 -0.4018785723408804 0.20648214226178938
0.17477884908502667 -0.40352035829953115 0.21234778256038545
0.1813480186945943 -0.4055119747046605 0.21812673216792633
0.18733017981402753 -0.40786530676892124 0.2237953141652776
0.19271393823556482 -0.4106049125417663 0.22933714128850766
0.1974976033744228 -0.4137622400182419 0.23474445566411986
0.20168469013345774 -0.4173663112471652 0.24001394568245266
0.2052856998879296 -0.42143402382934514 0.2451514521788949
0.20832222652975485 -0.42596280833050904 0.25017482511547345
0.21083420422182342 -0.43093023069673136 0.2551164537271457
0.21287379211478621 -0.4362844697663886 0.26001081965970685
0.21449405277845202 -0.44192180538949044 0.26487489958145355
0.215740694691895 -0.44763625681726554 0.2696730958527563
0.21666708806979612 -0.45309899427560374 0.27426385716126206
0.21734849325120964 -0.4579784104471056 0.2784200382487007
LINES 1 120
119 0 1 2 3 4 5 6 7 8 9 10 11 12 13 14 15 16 17 18 19 20 21 22 23 24 25 26 27 28 29 30 31 32 33 34 35 36 37 38 39 40 41 42 43 44 45 46 47 48 49 50 51 52 53 54 55 56 57 58 59 60 61 62 63 64 65 66 67 68 69 70 71 72 73 74 75 76 77 78 79 80 81 82 83 84 85 86 87 88 89 90 91 92 93 94 95 96 97 98 99 100 101 102 103 104 105 106 107 108 109 110 111 112 113 114 115 116 117 118
POINT_DATA 119
SCALARS Curvature float
LOOKUP_TABLE default
0.02851749935741996
0.026957117102708643
0.02790561997266306
0.031457874017160894
0.037684133311801836
0.04660424261353405
0.05814338797705632
0.07207765362801845
0.08798112574104129
0.10518790668853055
0.1227817684275409
0.13962322054783777
0.1544187978437603
0.16583101643731288
0.17262059093532361
0.17380616501632254
0.16882199067634376
0.1576515452506078
0.1409155591063851
0.11989651490288315
0.0964881165306106
0.0730668414687075
0.052292469749777436
0.036854190179074535
0.029187220791504685
0.031190656213564042
0.04397955455971899
0.0677025944165658
0.10145095547134309
0.14327490720869246
0.1903129022453552
0.23902510006826574
0.2855107323339924
0.32587811482927986
0.35662878194792136
0.37501417237118684
0.3793250348877576
0.36908018002371973
0.34509172443015435
0.30939739663494503
0.2650652532103596
0.21589055919593994
0.1660169000521917
0.1195223296094243
0.08001545094052458
0.05028525818505501
0.032042439951973506
0.025779372310400724
0.03076245009014088
0.045155332280675566
0.06625690060953826
0.09082499695095854
0.11544780524202888
0.136920128851788
0.15258227203396652
0.16058463153332345
0.1600507114736757
0.15112386039928577
0.13489702028583764
0.11323845677927666
0.0885381627743456
0.06340802323646025
0.04037296760888009
0.02158983471964774
0.008625735803202299
0.0023190727693442807
0.002735240175223361
0.00921687947830747
0.020516919314819897
0.0349929693487189
0.05083508740556482
0.06629622655984314
0.07989599319801778
0.0905733854277095
0.09777214039829557
0.10145205229880395
0.10202978889702964
0.10026197911508054
0.09709047804170172
0.09347386707772148
0.09022996771653463
0.08791146173039686
0.0867310980004163
0.08654528596967852
0.0868962407928466
0.08710446634820937
0.08639638169283509
0.0840472354287213
0.07951769130336812
0.07256377636970483
0.06330400476378381
0.05223379037912369
0.040184820902387314
0.028234812358932684
0.017579924414208106
0.0093871649039116
0.004646690295556015
0.0040437146971146155
0.00786686014186712
0.01596467018842532
0.027755419908203034
0.04228822733895603
0.05834679585156012
0.07458179792114608
0.0896546414078281
0.10237452879316336
0.11181236544230877
0.11737888345516337
0.11885971463565158
0.11640625742806653
0.11048714322058688
0.10181006968297399
0.09122705458356281
0.07963735935877268
0.06790134454617383
0.05677558464079957
0.04687521214885947
0.03866441000800169
0.03247105246452013
