# vtk DataFile Version 2.0
Vessel Segment
ASCII
DATASET POLYDATA
POINTS 119 float
-0.002983002596584 -0.005247116156692311 0.0003417409270380836
-0.006655336387104022 -0.010955065692550347 0.0011847868253286457
-0.01085866506803167 -0.016888994734506287 0.00239207086932531
-0.015393583190117773 -0.02281538472309734 0.0037571602733800164
-0.020081355694887764 -0.028564113607666808 0.00507813035309465
-0.024787109387460683 -0.03405031052601349 0.006175462447976687
-0.029403099125263052 -0.03924272323034978 0.006877825471594821
-0.0338298949267892 -0.04413344528724263 0.007024260446873793
-0.03797292745870922 -0.04872422309092937 0.006490354650345525
-0.04176395746567733 -0.05304182691206542 0.0052198814290217764
-0.04517614150225076 -0.05716049208327849 0.003200965750873581
-0.04819210745310819 -0.0611762234512921 0.00042551151451454376
-0.05076698182816418 -0.06516847271440945 -0.003099024805359249
-0.052826615404537466 -0.06919040357943224 -0.007305858367086601
-0.05429404451748931 -0.07327626444674752 -0.01206118347617326
-0.055130135834994036 -0.07744495234216883 -0.017188506219825903
-0.05533283040868768 -0.08170821496864765 -0.022545101360594254
-0.05490908745121667 -0.08605799809584966 -0.028028086005137003
-0.05387735559867897 -0.09047653137683297 -0.033561515430036715
-0.05227072506910483 -0.09495085398427511 -0.039083227565751735
-0.050137399215277816 -0.0994795904171895 -0.0445354218820157
-0.04754500081906657 -0.10406356907696626 -0.04984309087598994
-0.0445928477407518 -0.10869368740045594 -0.0548916478771521
-0.04141880057641926 -0.11333693352472204 -0.059518641985088216
-0.03819831860829723 -0.11791638231508145 -0.06352663672532574
-0.03512731974300483 -0.12230345782068504 -0.06673393075396947
-0.03237650154264847 -0.1263613749627416 -0.0690460175208692
-0.03005640959262225 -0.13000036412227478 -0.07046278717615174
-0.028215310681256208 -0.1331618349360691 -0.07104055764721537
-0.026848864098472897 -0.13580125793446338 -0.07088334163063913
-0.025893891586195483 -0.1379463379577136 -0.070117928396198
-0.025262520509509768 -0.13968736657531267 -0.06881965632144109
-0.024896985904693383 -0.1411147230259097 -0.06695270522319209
-0.02478715894967554 -0.1422404875648536 -0.06444215699251275
-0.024929982278927863 -0.1430358095594604 -0.061264905484494286
-0.02531442758131487 -0.1434797393945636 -0.05744366253464874
-0.02592580647305427 -0.14356889090005234 -0.05303684417934612
-0.026743620419403195 -0.14331628048263284 -0.04814187773033026
-0.02773324037570926 -0.14275689131883498 -0.042900904268766846
-0.028840476668055524 -0.14195795041994674 -0.03748479298252657
-0.0299899062150484 -0.14102544295419836 -0.03205906948811994
-0.031102934642537407 -0.1400875804648234 -0.026732396023039756
-0.03211650992673832 -0.1392661353927147 -0.021556005640889744
-0.032985053355519225 -0.13866583178205014 -0.016542499122020528
-0.0336783958024254 -0.1383735998323086 -0.011677060261157349
-0.034178290694564746 -0.13846199396501863 -0.006925265563251721
-0.03447406972953602 -0.1389992037197696 -0.002243744431236306
-0.03456027465112404 -0.14005873733028767 0.0023987596794705366
-0.03444120776595767 -0.14171058892323707 0.006992265362585598
-0.03413411404083228 -0.1439951583174634 0.011484743552512293
-0.03366317293708044 -0.14691169932609083 0.01581293587697275
-0.03305450043891208 -0.15043541583307396 0.01993045013683728
-0.03233184877016334 -0.15453477312143032 0.02380882989046435
-0.03151381865244904 -0.15917175744480827 0.027432052628527156
-0.03061175870951507 -0.16429898144940183 0.03080093117669006
-0.029627334848540004 -0.16985941031899687 0.03393766016493859
-0.028551906725478103 -0.17578677699408124 0.0368807405681695
-0.02737054643044226 -0.18200253438768263 0.03967360841280379
-0.026068286474428517 -0.18841752662692887 0.04235086414473355
-0.024636071126399123 -0.19494087474482003 0.04493026325948325
-0.02307105178167649 -0.20148871389461853 0.04741990355342118
-0.021363040628875063 -0.2079939732962945 0.049831681617766486
-0.019488287575255277 -0.21440233293294192 0.0521771921986974
-0.017415117356778916 -0.22065921267836067 0.054467623338140675
-0.015110217086128235 -0.2267099949290273 0.05671840860164033
-0.012546873277192075 -0.23250391345063942 0.05894965147335781
-0.009709531846245107 -0.23799427389635036 0.06118458877556254
-0.00659389300272705 -0.24314036910358428 0.0634485491966628
-0.0032043267988495394 -0.2479117301619317 0.06576849669680152
0.00045145662219811273 -0.2522922799272158 0.06817231963873877
0.004366729307345209 -0.2562786818404846 0.07068715575272495
0.0085373603002811 -0.2598769956627906 0.07333868452465123
0.012962154147610754 -0.2630999301698333 0.07614993920266766
0.017640712108798768 -0.26596167938897985 0.07913969723966514
0.022568901051583073 -0.2684748438704675 0.08231930115683761
0.027734686481568935 -0.2706522543697784 0.08568827090128278
0.03312002010391049 -0.2725089601084209 0.08923444820800036
0.03870564779617071 -0.2740613642115494 0.09293678902264735
0.04447498198098177 -0.2753261460371303 0.09676842020205602
0.05041630352854413 -0.2763192831165529 0.10069996036824425
0.0565223120987469 -0.27705673777618844 0.10470372636186447
0.06278604009787529 -0.2775540493285512 0.10875867993226015
0.06919540678179242 -0.2778268157817471 0.11285165275484761
0.07572927595786041 -0.27789262766651524 0.11697798330244231
0.08235512720962049 -0.2777751364148449 0.12114007780886402
0.08902680708216612 -0.2775078694252216 0.125342844975979
0.09568488806716155 -0.2771381631314428 0.12958945908096675
0.10226100794349556 -0.2767271126547031 0.13387616087463167
0.10868342214415232 -0.2763454577332188 0.13818936768325685
0.11488288266223486 -0.27606516093410266 0.14250682829546876
0.12079805362934437 -0.2759523713674683 0.14679970641789208
0.12637998946634535 -0.2760590481694358 0.15103666039422098
0.1315958820100254 -0.27641883300416703 0.1551875538404415
0.13643240933832843 -0.2770462740012938 0.15922611347490992
0.1408978632795458 -0.2779417633669603 0.16313672528858558
0.1450158489384767 -0.27910000501801974 0.16691532639803944
0.14881648063809313 -0.28051764656352723 0.170568346525831
0.15232953044555247 -0.2821971891468467 0.17410893353706108
0.15557988458187152 -0.28414874726824785 0.17755449528362896
0.1585840827906524 -0.28638886399624963 0.18092550662214865
0.16134762103585037 -0.2889370728837812 0.18424368255239887
0.16386219690158174 -0.29181097925358446 0.18752877433517579
0.1661070020311746 -0.2950201895083272 0.19079248263412615
0.16805702016117469 -0.2985617994139712 0.19403483576829467
0.16969609143394526 -0.3024243159219098 0.19724686671351413
0.17102117689216917 -0.30659655193856444 0.20041799964363802
0.172037672017228 -0.31107041266542385 0.20353827129536006
0.17275438439062218 -0.3158372405179942 0.20659659565063637
0.17318338004866665 -0.32088037027195615 0.2095794622214835
0.17334254387644296 -0.32616775791712943 0.21247259395422496
0.1732605829011289 -0.33164983265536546 0.21526294549985567
0.17297829338980222 -0.3372655118571251 0.21794469914218367
0.1725440754865739 -0.3429553682563031 0.22052322700491497
0.17200710005500786 -0.34867006828089386 0.22301670254964398
0.17141558998511403 -0.3543679051433894 0.22545486633885814
0.1708221127145684 -0.35999449394110894 0.22787052187213439
0.1702827733614749 -0.3654537542294022 0.23028092941457112
0.16984642590952412 -0.37060256692975085 0.232664640786021
0.1695414563643433 -0.37530093025353783 0.23496591361069036
LINES 1 120
119 0 1 2 3 4 5 6 7 8 9 10 11 12 13 14 15 16 17 18 19 20 21 22 23 24 25 26 27 28 29 30 31 32 33 34 35 36 37 38 39 40 41 42 43 44 45 46 47 48 49 50 51 52 53 54 55 56 57 58 59 60 61 62 63 64 65 66 67 68 69 70 71 72 73 74 75 76 77 78 79 80 81 82 83 84 85 86 87 88 89 90 91 92 93 94 95 96 97 98 99 100 101 102 103 104 105 106 107 108 109 110 111 112 113 114 115 116 117 118
POINT_DATA 119
SCALARS Curvature float
LOOKUP_TABLE default
-0.004826874142522386
-0.0016525659162322714
0.011166153462675322
0.034024464257035925
0.0660326418757149
0.10498803322692615
0.14753110332047273
0.18947760996165572
0.22629401976384378
0.2536616082312194
0.2680593812570277
0.26728934800398363
0.2508710037821219
0.22024509182333613
0.17874842949808603
0.13134925900255556
0.08416280050674148
0.043795596254064394
0.016591045862013966
0.007864013127381221
0.021217293519442144
0.05802613655393411
0.11715944070814675
0.19497961909764425
0.28563060342112234
0.38158895506646756
0.474420849303235
0.5556618355515097
0.617720061356024
0.6546992217520974
0.6630455514986473
0.6419428568824508
0.5934085735482373
0.522078651383947
0.43470548086032507
0.3394266491884997
0.24488895531826899
0.15932858414291862
0.08971266914860454
0.04103919344082388
0.015872386509669455
0.014161979203341352
0.033360485948225445
0.06881732820257769
0.11439642980957587
0.1632387885248289
0.20857641286239526
0.24450057341266776
0.2665957348674876
0.27236950855325986
0.26143590052568577
0.23544048896226524
0.19774793093674015
0.15294039893897282
0.1061967552750465
0.06263403444994031
0.026693932136835307
0.0016476956722598737
-0.010725393572288201
-0.01025523039496579
0.001709543437148463
0.022576283544005003
0.04892157812274567
0.07698158353851332
0.10315121674359376
0.12442639342400033
0.13873454243353908
0.14511647705220682
0.143744708434966
0.13578631997155066
0.123139418363849
0.10808816421600213
0.09293044548853407
0.07963338762511678
0.06956521480914898
0.06333868685975558
0.06078352158418651
0.06104553496985423
0.06279154568327078
0.06448403934646654
0.0646802382598675
0.062307783556074865
0.05687390807870222
0.04857593703323238
0.0382964891014508
0.02748452144814352
0.01794073745828336
0.011540316524231953
0.009935344470106525
0.014282382898750385
0.025036911148547086
0.04184648586710037
0.06355986609818759
0.08835220041729072
0.11394918673454496
0.1379184157481966
0.1579860537961101
0.17233309380174386
0.179828198519755
0.18016329546284132
0.1738722496502746
0.16223009034520344
0.1470479046965443
0.13039404784268388
0.11428345175669627
0.10038185874416804
0.08976994341845324
0.0828036990235061
0.07909331311163822
0.07760503567851969
0.07687179595555813
0.07528129464346481
0.07139753420470506
0.06426523426369775
0.0536474354156386
0.04015490704234274
0.0252407533168379
0.011052908931867205
0.00015838070537122032
