# vtk DataFile Version 2.0
Vessel Segment
ASCII
DATASET POLYDATA
POINTS 119 float
-0.0030485740808099257 -0.005245699791345026 0.0003541381568922703
-0.006781192467828041 -0.01095694691770856 0.0011937095185519547
-0.011037258225220406 -0.016895756305949285 0.0023855265734191926
-0.015619340064196045 -0.022829752828897557 0.0037307086512970147
-0.0203522291973663 -0.028590624402612733 0.005034203922431889
-0.02510347758670398 -0.034092485137482226 0.006121063841407847
-0.029766569438339135 -0.03930075510856021 0.006823054973908359
-0.034242482463856444 -0.04420303170851392 0.006981564642440545
-0.03843720232073558 -0.048797434000743205 0.006473172039739223
-0.04228315539675219 -0.05310832239348567 0.005239144969313326
-0.0457541324810723 -0.057207745377449125 0.003263337930627886
-0.048835043039823785 -0.061191263451051574 0.000533717955755009
-0.051484910693029844 -0.06514027857223026 -0.0029462483776942004
-0.05363367980080186 -0.06911181093972696 -0.007113488913260831
-0.055207825892729344 -0.07314529695276725 -0.011837366533323332
-0.05616877545636124 -0.07726465834734274 -0.016944348997929935
-0.05651199701136081 -0.08148470354630374 -0.022292037058071576
-0.05624028766154554 -0.08579866688987339 -0.02777487078264331
-0.05536709543509887 -0.09018898333619628 -0.03331358563769473
-0.0539197848705665 -0.09464181129959515 -0.038843610290651504
-0.05194009951642721 -0.09915468306124593 -0.04430811555090001
-0.04948769908224282 -0.10372723285844267 -0.04963702158200807
-0.0466528772359705 -0.10834976161751964 -0.054723668711726826
-0.04356450666558399 -0.11299029243669544 -0.059415023019292135
-0.040390373186052944 -0.11757585827896665 -0.06352197723276025
-0.037321820547107545 -0.12198514434642559 -0.06686518215255585
-0.03453163318221625 -0.126087337085872 -0.0693412014387284
-0.03213996515015692 -0.12979175973886434 -0.07093306621976744
-0.03020878638338764 -0.13303304437001023 -0.07167974229537685
-0.028748011047936305 -0.13575571145634194 -0.07167306215785386
-0.027704923356573756 -0.137974046772893 -0.07104141454320133
-0.026991961876136245 -0.1397737509055371 -0.06987786609581002
-0.02654227631060889 -0.141255263834834 -0.0681675302518618
-0.026336098107831635 -0.1424477797531878 -0.06584131038552785
-0.026368670209661906 -0.14333296085674369 -0.06286361177362779
-0.026634390387443436 -0.14388915290353976 -0.059237179615011355
-0.027127829653187358 -0.14410406058079958 -0.05499985719106807
-0.027839128446612606 -0.14397720909031073 -0.05023213991128469
-0.02874296386901328 -0.14352943679927407 -0.0450673466046324
-0.029790418562628384 -0.14281788204836354 -0.03967809380781505
-0.030906780185476067 -0.14194440652283957 -0.03423877603271984
-0.032011127745864836 -0.14103772273934934 -0.0288684814702161
-0.03303665702223895 -0.14022274235601837 -0.02362797679803249
-0.033933457364218336 -0.13960848639092321 -0.018538040562804763
-0.0346671195616922 -0.13928642138983455 -0.013590579492992477
-0.03521591527797944 -0.13933300995552045 -0.00875656797332957
-0.03556689065560281 -0.13981892099567023 -0.003996897804448923
-0.03571343965610653 -0.14081803205609833 0.0007171612352142327
-0.035659158809538564 -0.14239927089294474 0.00537613525705512
-0.03542031481146884 -0.1446024945565665 0.009931552813885483
-0.03501983364187941 -0.1474282255925629 0.014324709023867892
-0.034482628562362845 -0.15085435791389085 0.018512699433508244
-0.033831549190989976 -0.15485259199104753 0.022468690320073502
-0.03308466301175983 -0.15938837369840886 0.026176560019337616
-0.03225312986273339 -0.1644183597114294 0.0296356187051647
-0.03133880725188327 -0.16989028174920529 0.032865122766026045
-0.0303335987107094 -0.1757427234971359 0.03589950472405944
-0.029223246416573465 -0.1819015406831125 0.03877800984812038
-0.02799317860710489 -0.18828100346758414 0.04153199947124653
-0.026634080328179568 -0.19479181116001498 0.044177684974772646
-0.025142191691885155 -0.2013497043320523 0.04672312266549626
-0.02350676230391985 -0.2078854151696097 0.049180860530054896
-0.021704251041928156 -0.2143416522648852 0.05156384857589832
-0.019703674987788026 -0.22066150292378695 0.05388493623472277
-0.017472745188212097 -0.22678881011613505 0.056160895268728084
-0.014985734133680404 -0.23267194461543084 0.058412652659231824
-0.012227615527093165 -0.23826396599625205 0.06066378313538791
-0.009193898234371977 -0.24352423204644602 0.06293957225410321
-0.0058880775316366 -0.2484218757898413 0.06526658340289489
-0.0023167639189378784 -0.2529394362427468 0.06767199711821334
0.0015141640180521233 -0.2570713228897118 0.07018215797560949
0.005601073958731697 -0.2608211041694277 0.07282218972459631
0.009943113713902758 -0.26419919022479266 0.07561520949048967
0.014540271900489309 -0.2672177924515681 0.07858087043871893
0.019388761638064612 -0.26988762293036206 0.08173199373903932
0.024476750035077252 -0.2722197224468531 0.08506993480119714
0.029786475750494305 -0.2742275310900012 0.0885845452414324
0.035299151482261704 -0.27592593269454985 0.09225653341622761
0.040998699409533594 -0.27733019728267655 0.09605997471815327
0.04687414457661722 -0.2784554549802829 0.09996543226040636
0.05291972936692002 -0.279317571003439 0.10394480229541138
0.059130962188389244 -0.27993217996413333 0.10797683499576981
0.06549873682007207 -0.28031453057785466 0.11204843429334031
0.0720045143096299 -0.280481053338548 0.11615506729109248
0.0786171285233663 -0.280453308502213 0.12029926709188492
0.08529031736527701 -0.28026201977275456 0.12448623496441878
0.09196354373909252 -0.27995133124570093 0.1287197015726372
0.09856710335591026 -0.27957924740075285 0.1329967472388263
0.10502850318224 -0.2792139917081243 0.13730476935483957
0.11127870043904504 -0.27892620377657723 0.14162254179527997
0.11725727177555832 -0.27878239878655997 0.1459220687904984
0.12291633476292071 -0.2788366682110039 0.15017259467325253
0.12822359145841217 -0.2791262997621317 0.15434428273195377
0.13316541383144329 -0.27967048118377286 0.15841087141526086
0.13774880523102143 -0.28047445216053013 0.16235634149633818
0.14199547333211088 -0.281537323884693 0.16617586262598102
0.14593327917186097 -0.28285932861469887 0.16987463725142218
0.1495895765108593 -0.2844454874199409 0.1734643811761757
0.15298673568830892 -0.2863071116536402 0.17696090471372536
0.1561389350725326 -0.28846044734681425 0.18038306020599823
0.15904976108843147 -0.29092326238376603 0.18375106342443928
0.1617097955207844 -0.2937103356317471 0.18708349799049492
0.16409808824444405 -0.2968281369505981 0.19039138133238603
0.16619025979706112 -0.3002712500235919 0.1936747354191175
0.1679710884766407 -0.30402681150707617 0.19692522135385193
0.16943831584842756 -0.3080833747333087 0.20013326073913906
0.17059777563143616 -0.3124338060042338 0.2032901795832027
0.1714582269198239 -0.31707187070003173 0.2063864038022793
0.17203085606190752 -0.32198495697531276 0.2094101289495523
0.17233170795048022 -0.32714661184345545 0.212348632064224
0.17238655296622893 -0.33251367243739677 0.21518985710394098
0.1722325835334954 -0.3380309584307999 0.21792820473653532
0.17191486145489673 -0.34364292342066144 0.2205685471843854
0.1714804500021246 -0.34930153142403986 0.22312816129167454
0.17097678155836474 -0.354963999484811 0.2256356133418313
0.17045625044133345 -0.36057316725734095 0.22812224826690225
0.1699750013392936 -0.36602811131564705 0.23060318405041869
0.16958276230760214 -0.371178334391039 0.2330531802957878
0.16931002733227987 -0.3758763747002021 0.23541129825279541
LINES 1 120
119 0 1 2 3 4 5 6 7 8 9 10 11 12 13 14 15 16 17 18 19 20 21 22 23 24 25 26 27 28 29 30 31 32 33 34 35 36 37 38 39 40 41 42 43 44 45 46 47 48 49 50 51 52 53 54 55 56 57 58 59 60 61 62 63 64 65 66 67 68 69 70 71 72 73 74 75 76 77 78 79 80 81 82 83 84 85 86 87 88 89 90 91 92 93 94 95 96 97 98 99 100 101 102 103 104 105 106 107 108 109 110 111 112 113 114 115 116 117 118
POINT_DATA 119
SCALARS Curvature float
LOOKUP_TABLE default
-0.0039066062561970765
-0.0019168257213836965
0.009417549229366077
0.030656556702247418
0.061120372575917604
0.09883283128186399
0.14064425635812
0.18253026315943213
0.2200385013484249
0.24883320926714272
0.2652710834498827
0.26693378292420755
0.2530438270994405
0.2247019016016211
0.1849035470626285
0.13831956758652136
0.09085403564542323
0.049022749282647084
0.019219639500728847
0.006955611840740339
0.01616121951966459
0.048640225858013586
0.10374575700529376
0.17832602235218886
0.2669553684265598
0.3624324925314735
0.4564951495035119
0.5406737016680778
0.6071878211178882
0.6497839139616297
0.6644163730564778
0.6496930330258456
0.6070321886591968
0.5405120133214338
0.45642912433015087
0.3626170179514086
0.2676029994538589
0.1797006752088491
0.10614183968176776
0.05234591476608012
0.02140775666958376
0.013857846776382084
0.027715988509969838
0.05882472451167832
0.10141605345023905
0.14883861394200362
0.1943554374159227
0.231916566065476
0.256816766830539
0.26616525599992563
0.25911946668786745
0.2368651206809891
0.20235631639569696
0.15985806223418172
0.11435615716957896
0.07091291575286401
0.034050518087658285
0.007236655668125044
-0.007469107711168249
-0.009572845797740565
-9.88064160211478e-05
0.018645286911058427
0.04344927919318348
0.0706702535377526
0.09672455955229983
0.11853648449571975
0.1338870778942864
0.14162298266223589
0.14170612201725194
0.13510773448468827
0.1235714063672518
0.10928659119308909
0.09452447584195814
0.08129075392786517
0.07104479225599208
0.06452279923321742
0.061685817073276875
0.06179418888367474
0.06359139176975784
0.06556444444316953
0.06623766007849455
0.06445269639060952
0.05959105701295555
0.051704811553983675
0.041535808252557926
0.030420856571592367
0.020097705134954336
0.012441594034771996
0.009172556796773574
0.011578005434202685
0.020292859700201102
0.03517095303978906
0.055267943303937736
0.07893947347626895
0.10404129003740595
0.128202932968168
0.1491356750403117
0.1649302172410193
0.17430101253615596
0.17674181187642848
0.17256999749429788
0.1628536116219569
0.14923232338411418
0.13365936079998422
0.11810333165531661
0.10425507458299242
0.09328423777638134
0.08568315580702997
0.08122273911659571
0.07902831097217837
0.07776503099829486
0.07590540599349703
0.07203796529639307
0.06516854144179268
0.05496502611438903
0.04190325216700815
0.02728501436553603
0.013117443588389167
0.0018635042547095082
