# vtk DataFile Version 2.0
Vessel Segment
ASCII
DATASET POLYDATA
POINTS 119 float
-0.004034730037403397 -0.005264490596079189 0.000538907611172039
-0.008661783631142717 -0.011045003914633013 0.0013308232179491991
-0.01369432392757482 -0.017070810937216185 0.0023015751738397934
-0.01896843540229798 -0.023127429686206895 0.003361609732806277
-0.024361521171701993 -0.02907121357149804 0.0044130480963892075
-0.029776668031756378 -0.03480177416142001 0.005347156376657785
-0.03512692057766745 -0.04023866734586995 0.00604317090435
-0.04032441218251881 -0.04531051204704838 0.006379113080439245
-0.04529231121060398 -0.0499744163395626 0.006243200540508193
-0.049977467797227934 -0.05423136972523929 0.005527511986763134
-0.05435427353002065 -0.058126415055299537 0.004136364242540855
-0.05842558481544334 -0.06174732895516 0.0019912521015265747
-0.062197056195576556 -0.06519995387017442 -0.0009607740497225834
-0.06565651271399961 -0.06859377146125985 -0.004707147759352683
-0.06878305701248344 -0.07204173479545897 -0.009163937611327333
-0.0715484275033376 -0.07563965368747295 -0.014200906869189584
-0.07390755827249489 -0.07944646130087009 -0.01967743941412516
-0.07579014210553882 -0.08347094297646859 -0.02543946360712744
-0.07712495113110922 -0.08768889797202445 -0.03134184586273029
-0.07785308310685772 -0.09205865913174986 -0.03726243160327492
-0.07793682216706724 -0.09654630936441048 -0.04313743864160455
-0.07734959590820255 -0.10112330315450038 -0.04895360963814052
-0.07608331567914291 -0.10576942294113602 -0.05471868105574027
-0.07415550254400875 -0.11047469631548604 -0.0604385413284301
-0.0716132977909757 -0.11523782084486146 -0.06609951688129209
-0.06853555591536317 -0.120067323894497 -0.07164518771275885
-0.0650486977622379 -0.12496228097057598 -0.07693424286567452
-0.06133139805369361 -0.12988510726298233 -0.08175063565146401
-0.05758724295345383 -0.13475812129928424 -0.08584910279118262
-0.05403017429270505 -0.13944714108379452 -0.08899799823454367
-0.05084608897224512 -0.14377807265911188 -0.09107117461543042
-0.04812161649192506 -0.14763945771383938 -0.09211029088126223
-0.04585866235111598 -0.15101253810357 -0.09222634414097852
-0.04401920161404006 -0.1539095803151149 -0.09153957598388678
-0.04254002759739047 -0.15638399665972846 -0.09015491047366385
-0.04136452616870593 -0.15850459507861436 -0.0880965896017406
-0.04048183988479077 -0.16029895109778255 -0.08530314982403987
-0.03993210760973961 -0.1617256686307765 -0.0816863206684983
-0.03977672791760615 -0.16269583519922093 -0.07722397933460268
-0.04004814095350777 -0.16314473256004036 -0.07202693616141712
-0.04071373840483125 -0.163093606173709 -0.06630927101866267
-0.04169361937657186 -0.16264378474638078 -0.06027848676376715
-0.04289485155635466 -0.16193274853877856 -0.0540939203153526
-0.04422344581282624 -0.1611073879817887 -0.04786871652829046
-0.04559148400877347 -0.1603132500128005 -0.04167285670657874
-0.046923952875492 -0.15968727321066073 -0.03554096869223075
-0.04816262282300435 -0.1593552305072117 -0.029487423745363398
-0.04926674328128668 -0.15942548608731447 -0.02351917625774965
-0.05021348191598372 -0.15998131228361662 -0.017645366390828802
-0.05099588524273182 -0.16107552875158826 -0.01187882782908538
-0.05161750577424892 -0.16273371271844375 -0.006234498883423811
-0.05208950791308719 -0.16496662181407798 -0.0007275368735697131
-0.05242723068596445 -0.16777851621171772 0.004619813099532716
-0.052647038859002064 -0.17116534501781963 0.009777167965526804
-0.05276364787518164 -0.17511799990071 0.014716308752511257
-0.052787865959618416 -0.17962616439568937 0.019415374073787846
-0.05272486230230904 -0.18467475964380783 0.023857848475391456
-0.0525747663391905 -0.19023885097104248 0.028034770938503407
-0.05233282713093858 -0.19628058891114888 0.03194356689572855
-0.051988998089310526 -0.20274363377782006 0.035587732831760324
-0.051527798998551255 -0.2095535047287166 0.038979635131264116
-0.05092917544036207 -0.2166250038477423 0.042142651494749744
-0.050169593562936855 -0.22387202562733452 0.045109881766607844
-0.04922483495631198 -0.23121606276908083 0.04791941818953342
-0.04807368736233139 -0.23859007589662404 0.050609496147058175
-0.04669981981915245 -0.24594117775631957 0.053215875879643
-0.04508928540390023 -0.2532297628431511 0.05577061008394379
-0.04322599153238137 -0.26042523708839743 0.05830235750838325
-0.041089081731635606 -0.26749419175141964 0.060835720600399205
-0.03865535744403144 -0.2743919622258388 0.06339087242840974
-0.0359051299355717 -0.2810610393301774 0.06598514370060853
-0.03282655718491165 -0.2874405491349409 0.06863695681017137
-0.029416097976264956 -0.29347593457099735 0.07136988436442024
-0.02567840941091213 -0.29912266105621516 0.07421243919161351
-0.02162963821583121 -0.30434467914930974 0.07719174191180436
-0.017298696728690863 -0.3091196160440319 0.0803262976181287
-0.012717854932027891 -0.31344125151552943 0.08362474182185095
-0.007913990530074973 -0.317313025591881 0.08708354609794648
-0.0029057302728329954 -0.32074309597481865 0.0906833076820032
0.0023016983585237545 -0.3237483619315993 0.09439036465275126
0.007722698814079699 -0.3263573637342426 0.09817043493836446
0.013387076992675146 -0.32860010169639525 0.10200069321721189
0.019327538127875972 -0.3304978330884773 0.10587084638143116
0.025563124754849162 -0.3320585109590254 0.10977978047558423
0.03208399417948264 -0.33327853617013214 0.11373298502501472
0.03884557217664336 -0.3341502718325013 0.11774068918878663
0.04577582464434182 -0.3346716665911063 0.1218156115295455
0.05279225574153411 -0.3348540394645246 0.12596893264776823
0.0598214740337136 -0.33472479647802444 0.1302061987504847
0.06681158118659666 -0.33432764992936326 0.13452775675941642
0.07373337469238063 -0.33372323221148703 0.13892727162733967
0.08057445155898828 -0.3329838522400117 0.14339374066558816
0.08732919078007381 -0.3321890161159259 0.14791319157815996
0.09399481772366525 -0.3314200915511104 0.15246951787845267
0.10056790561500417 -0.3307553281880983 0.15704778324440644
0.10704285994127676 -0.3302679364945571 0.16163521904894795
0.11340725743847505 -0.33002634737850384 0.1662185716200262
0.11963902177122032 -0.33009162927041574 0.17078510109287914
0.12570449463627628 -0.3305127725689481 0.17532200607492435
0.13156138426227526 -0.3313205803459499 0.1798189445027335
0.13716313878345437 -0.3325234624651568 0.18426966820548177
0.14246342908912013 -0.3341087700953195 0.1886725036515016
0.14742087838910567 -0.33604846463409904 0.19302563904836648
0.1520035902710578 -0.33830755746773955 0.1973240132195431
0.15619486915029837 -0.3408537614534411 0.20155907097960407
0.15999159041613742 -0.3436649168680677 0.2057220934315778
0.16339954568597037 -0.3467329287945777 0.20980745257483274
0.1664285796802726 -0.35006384838844573 0.21381259592512133
0.1690883805165874 -0.3536735671155781 0.21773886838459028
0.1713886413064434 -0.3575819874550051 0.22159040527881835
0.17333852977577016 -0.3618050054697733 0.2253703811885822
0.17494912094035328 -0.3663472374447906 0.22908341945926194
0.1762369692483162 -0.37119772827436964 0.2327380334759727
0.17722908174722282 -0.37632990523829685 0.23635045864704723
0.177963227326564 -0.38169670190944965 0.23994213851837842
0.17848569666781136 -0.38721369446122017 0.24352928227792528
0.17884593021992856 -0.39272171616566354 0.24709726188112346
0.17909709438852928 -0.39797426968891236 0.25056227865521724
0.17929342801912396 -0.4027250167036322 0.2537823033643243
LINES 1 120
119 0 1 2 3 4 5 6 7 8 9 10 11 12 13 14 15 16 17 18 19 20 21 22 23 24 25 26 27 28 29 30 31 32 33 34 35 36 37 38 39 40 41 42 43 44 45 46 47 48 49 50 51 52 53 54 55 56 57 58 59 60 61 62 63 64 65 66 67 68 69 70 71 72 73 74 75 76 77 78 79 80 81 82 83 84 85 86 87 88 89 90 91 92 93 94 95 96 97 98 99 100 101 102 103 104 105 106 107 108 109 110 111 112 113 114 115 116 117 118
POINT_DATA 119
SCALARS Curvature float
LOOKUP_TABLE default
0.02112885039213258
0.0172427031159621
0.017433616892890823
0.02272164766918641
0.03378757403597621
0.05079678493547105
0.0732695148778721
0.1000232591532143
0.12920521061304172
0.15842134162241206
0.18495569885231997
0.2060603042699074
0.21928458804435458
0.22280520116255467
0.21571367165298716
0.198221410733294
0.1717490818405646
0.13887962711351123
0.10316994971928836
0.06883351449459611
0.040322809272471
0.021854549045893575
0.016929817730497305
0.027904662736678777
0.05566333490260511
0.09943656802989179
0.15679200536978574
0.22380480741806666
0.2953958360708561
0.36580507344068386
0.4291515124537284
0.480019704800826
0.5140089025175547
0.5281839058374066
0.5213770579403836
0.4943071587890763
0.44950151675254224
0.39102951599007496
0.3240773266777446
0.2544112022109895
0.18778908190022484
0.1293855096789456
0.08329259628963483
0.052150219177166335
0.03694306946931128
0.03698243881332879
0.0500691902712425
0.07281375729484323
0.10107170448028215
0.13044136697990888
0.15676468692034753
0.1765740777053541
0.1874365844337766
0.18816056950304158
0.1788477855844146
0.16079274658666318
0.13624939906873326
0.10810004467656095
0.07947153636931599
0.053347896876637914
0.03222639582962286
0.017856276179708933
0.011086953099327534
0.011837364682587137
0.019182271718681435
0.03153674356723121
0.04690864326978934
0.06318197863193258
0.07839222497304646
0.09095815177360286
0.09984261867356453
0.1046259944817484
0.10548865837766364
0.1031116728083607
0.09851547068550712
0.0928638902067404
0.08726422802034396
0.08259287443721719
0.07937087301602898
0.07770529829809703
0.07730197550967192
0.07754430648320688
0.07762335583320863
0.07669722210926841
0.07405401366818049
0.06925290110318685
0.062221600755079744
0.05329560219981731
0.043193407737025756
0.03293166294670753
0.023692917638741803
0.016665595372473464
0.012879611875238846
0.01306145971992562
0.017529472873655597
0.026143908989021827
0.038318372339087976
0.053090162446877656
0.06923869297513213
0.0854344135196293
0.10039664729154361
0.11303798807401834
0.12257545349752304
0.1285940493591982
0.1310559136529987
0.13025662924297293
0.12673833906595228
0.12117574402369999
0.11425492816606779
0.1065656429245602
0.09852507567535965
0.09034561215281285
0.08205151035850054
0.07354089891250341
0.06468141973949379
0.05542144381174801
0.045895161516773295
0.03649965587891109
0.02792547454185259
