# vtk DataFile Version 2.0
Vessel Segment
ASCII
DATASET POLYDATA
POINTS 119 float
-0.0033855958488039984 -0.005244509515044649 0.0004176021688640108
-0.007426575357226048 -0.010975725056298728 0.0012399948501082662
-0.01195161346354358 -0.01694170819991046 0.0023539309023057568
-0.016773938421272658 -0.022916108701070276 0.003598755198426889
-0.02173642280628753 -0.02873958205866032 0.00481388762721176
-0.02671895763268925 -0.034321135178600186 0.005847543109124027
-0.031621491822975877 -0.03960966391853549 0.00654757242425754
-0.03634778344396186 -0.04457088227519386 0.006767623525505675
-0.04080783298011922 -0.049186248992155346 0.006388784845823074
-0.044937897003465926 -0.05346965586415935 0.005337543185387728
-0.04871347724488027 -0.05748277796341622 0.003573515543747567
-0.052128715063659306 -0.06131874047620845 0.0010635852944209452
-0.05516090939212877 -0.06506832172887556 -0.002208520826908946
-0.05776041058815268 -0.06880765718395414 -0.006197921600187329
-0.05987121066830187 -0.07260225576950294 -0.010790095728599566
-0.06145760455359564 -0.07650127833693482 -0.015826483779847165
-0.06250183101270955 -0.0805347793590612 -0.021165789694570364
-0.06298412535619533 -0.08470173846281923 -0.0266874044967741
-0.06289163201921126 -0.08898395735786613 -0.032292707698017405
-0.06222329393681222 -0.09336088483700052 -0.03790181296700543
-0.06099110049014765 -0.09782248185617902 -0.04346002971518111
-0.059219064314147925 -0.10236115529911768 -0.04892039299321545
-0.056956275262769814 -0.10696423565690882 -0.05421649635684956
-0.0542881482153594 -0.11160613699900127 -0.05924620912203555
-0.05134147648283908 -0.1162361160366661 -0.06387012358435747
-0.048277287864843504 -0.12077355966366937 -0.06793269860623792
-0.04526792041173651 -0.1251248308543081 -0.07129689285830147
-0.042471177590993094 -0.12920505788386005 -0.07386427391841714
-0.04001176569811817 -0.13292754897698905 -0.0755766748409891
-0.03797469960858258 -0.13619163424410669 -0.07643610700249576
-0.03637876754204584 -0.13893830821825465 -0.0765310463129271
-0.03516965360174708 -0.1411981924250006 -0.07599873510003098
-0.034264433175233686 -0.1430731499185396 -0.07492193340144583
-0.03360015161437281 -0.14464785461621643 -0.07330410259988243
-0.033142590234067966 -0.14596638194918138 -0.07110511464706146
-0.03288725272943977 -0.14703262806037082 -0.06826506675807363
-0.03285569044640142 -0.14781724213089112 -0.06473506409925929
-0.03308079437412898 -0.1482709459435501 -0.060512347651765636
-0.033582044396413845 -0.14835167466045082 -0.05567700406387684
-0.034341582261839004 -0.1480644437184935 -0.05039634353094033
-0.03529501704623365 -0.14748434800291493 -0.04487672964749688
-0.03635565397410653 -0.14673620361803427 -0.03928127399690958
-0.037442145798307784 -0.14595544845562516 -0.03371356308062543
-0.03848538704948021 -0.14526918210663997 -0.028232153297329487
-0.03943045901822908 -0.14479033362156118 -0.022860239736902755
-0.04023726007670462 -0.14461614007329385 -0.017594052390047077
-0.040879127069271076 -0.14483313181330348 -0.012415013965833976
-0.041340811499493924 -0.14552171253101806 -0.00730740213345429
-0.04161990168203794 -0.14674989776556932 -0.002279647027840106
-0.04172658071694809 -0.14855760887912578 0.0026350099506976133
-0.04167762568637286 -0.15095221132176923 0.0073974807070922854
-0.041492825756587644 -0.15392362165048332 0.011979357264484767
-0.04119164731383112 -0.15745716930087433 0.01635972413404367
-0.04079060929423684 -0.1615324557655437 0.020520737368697507
-0.04030101539362108 -0.1661227614378126 0.02445401102893844
-0.03972670082663903 -0.1711959153028411 0.02816487037183839
-0.039063133609327935 -0.1767117251337315 0.0316688071421656
-0.038300070021763624 -0.182616551509728 0.03498575938874591
-0.037425408395656994 -0.18884213868520827 0.0381323124200116
-0.03642879191183138 -0.19530895057880043 0.041117842574541624
-0.035301895249608035 -0.20193315556704125 0.04395054974382265
-0.0340307979464542 -0.2086367298855444 0.04664624799792012
-0.032592423298076684 -0.2153493875709008 0.049224687870802725
-0.030958651869745744 -0.22200410976316795 0.051707237325522536
-0.029101626904427164 -0.22853848149697573 0.05411772980814192
-0.026999638508069232 -0.23489794157960328 0.0564817063923114
-0.024639054771666904 -0.24103559103607503 0.05882503672643801
-0.022012789230684057 -0.24691202436848372 0.061173477901391826
-0.01911796340094565 -0.25249432319889104 0.06355226842869213
-0.015953597378703964 -0.25775648724663297 0.06598561881624299
-0.012519668271862504 -0.26267838701256996 0.06849628969291151
-0.008816720853626054 -0.26724685038920404 0.07110672875054024
-0.00484477624256638 -0.27145647612614215 0.07384014378879442
-0.0006041709745240598 -0.27530619567748943 0.07671971722198832
0.0038999718628680152 -0.27879538778769813 0.07976435247031385
0.008653721191280939 -0.2819259255383524 0.08298305542874918
0.013638139852096172 -0.28470435938215843 0.0863742395294779
0.018834885741593872 -0.28713983431400086 0.08992612846068157
0.024229303404407175 -0.28924254263465726 0.0936167046343395
0.029813728827584967 -0.291025227535734 0.09741596141220353
0.03559014064610615 -0.29250501852933075 0.1012938457668452
0.04156655910848664 -0.29369961239964176 0.10522838914125598
0.047748921787010845 -0.29462383364196454 0.10920719347880231
0.05413197222120843 -0.2952892338038762 0.11322663069359364
0.060691758194528656 -0.2957073523790081 0.11729002892981924
0.06738202051407448 -0.2958948775051918 0.12140415606383619
0.07413731473459123 -0.29587961989694567 0.12557566500485837
0.08088211610660535 -0.2957034644969027 0.1298061528891272
0.08754155835872444 -0.29542108444075693 0.13408855891804827
0.09404963736613911 -0.2950952116639565 0.13840785327892402
0.10035307977373138 -0.2947926916959935 0.14274172954771275
0.10641218387750402 -0.2945768973730749 0.14706412004435232
0.112199865478316 -0.2945025410887262 0.1513484826178892
0.11770293581366655 -0.29461212681049076 0.15557015693986195
0.12292279753594154 -0.29493629755052136 0.1597121199925748
0.12787130134101293 -0.2954982168855578 0.16376607740630544
0.13256353916044056 -0.2963186433262909 0.1677308060857681
0.13701233232240684 -0.2974180110307415 0.1716100562192876
0.14122432300363785 -0.29881635617272373 0.17541053475517884
0.14519837587999176 -0.30053086814184 0.17914180537682745
0.14892500196806724 -0.3025725030698923 0.18281553802433703
0.15238593316406884 -0.3049435321431245 0.1864436325697693
0.15555663218246632 -0.30763597460166503 0.19003291434144562
0.15841344816673128 -0.31063239868775416 0.19358234370063715
0.16094397753710146 -0.31391256483718444 0.19708518261323443
0.16314879377560376 -0.317462021757724 0.20053487849442256
0.16503598728662836 -0.32127560574032404 0.20392720969391637
0.16661545078056508 -0.32535539873004427 0.20725854816183828
0.16789665912753507 -0.32970451742805024 0.21052469478601027
0.1688901758130153 -0.33431970273550443 0.21372070688414924
0.16961121476778465 -0.3391855556886284 0.21684034328701585
0.170082631921402 -0.3442735021951028 0.2198805984364736
0.1703351783711107 -0.3495465034037308 0.22284555497496913
0.17040619383747435 -0.3549639793133811 0.22574957807229232
0.17033874747888128 -0.3604797016915884 0.22861648978603194
0.17018332889125715 -0.36602455612796175 0.2314708805656402
0.1699948470311552 -0.37147493751137567 0.23431699283875332
0.1698258213163442 -0.3766445980340322 0.23710966907495917
0.16971621616562158 -0.38134961657094874 0.2397606717015702
LINES 1 120
119 0 1 2 3 4 5 6 7 8 9 10 11 12 13 14 15 16 17 18 19 20 21 22 23 24 25 26 27 28 29 30 31 32 33 34 35 36 37 38 39 40 41 42 43 44 45 46 47 48 49 50 51 52 53 54 55 56 57 58 59 60 61 62 63 64 65 66 67 68 69 70 71 72 73 74 75 76 77 78 79 80 81 82 83 84 85 86 87 88 89 90 91 92 93 94 95 96 97 98 99 100 101 102 103 104 105 106 107 108 109 110 111 112 113 114 115 116 117 118
POINT_DATA 119
SCALARS Curvature float
LOOKUP_TABLE default
0.004323602724005084
0.0017986129115274431
0.00668780721702448
0.02013981546904808
0.042370132579657035
0.07249451468987753
0.10850255292536073
0.14738772874725525
0.18542937455509673
0.21860052111523506
0.24305653628807827
0.2556454640038143
0.25437418864484784
0.23876621471888543
0.21005711384604317
0.17119155824647686
0.1266092964019615
0.08183359285585948
0.042901258906091616
0.015695121235889353
0.00525469047302865
0.01514677317044316
0.04697377853620371
0.1000837123380806
0.1715237791707334
0.25625167140227934
0.34758833151530333
0.43786692981947933
0.5192086066708351
0.5843392440898526
0.6273552712133877
0.6443511676369875
0.6338364608828135
0.596893872338775
0.5370600140445956
0.4599421000334743
0.37261463722788424
0.2828653146729071
0.1983762744736751
0.12593360577715262
0.07075351035732205
0.03599876184507163
0.022535714610741782
0.02895313966337815
0.05183316006889506
0.08623531958091309
0.12633086789105277
0.16610849986497686
0.20006681052583733
0.22381313323885244
0.23450242711483177
0.23107150499411638
0.21425027126342328
0.18635936768669484
0.15092921825996672
0.11219579271509719
0.07454109384100882
0.0419500729309294
0.017550229584490613
0.0032865696029678875
-0.0002350965206397871
0.006273417716409414
0.02096913906621165
0.04119536910296707
0.06388096393023006
0.08596425639589314
0.10478425234548651
0.11838919021723304
0.12572634137523825
0.1266949498749508
0.12206386813482928
0.1132740068535595
0.10216068880983604
0.09064045228515218
0.08040968315308322
0.07269850447328972
0.0681134023021673
0.0665877121207881
0.06744249855460616
0.06954395479302446
0.07152956226996203
0.07206580771214707
0.07009650117824973
0.06504308591953209
0.05692631023814492
0.04639097697936519
0.03463032725179472
0.023221751697933446
0.013898744713608033
0.008293419388544884
0.0076881531416761436
0.012813464946595432
0.023722297892619565
0.039759548462390076
0.059631631672957694
0.08156617024093406
0.10353870229153264
0.1235335450402803
0.1398010551295752
0.15107420277112132
0.15671352523226798
0.15676024384611525
0.1518910446387877
0.14328271768800732
0.1324083523624153
0.12079708365137048
0.10979492289718425
0.10036411402509159
0.09295268296027788
0.08745517907676904
0.08327156239463414
0.07945581122690663
0.07493138929022257
0.06873940434228527
0.06027888692075581
0.04949821607758143
0.037002567135673875
0.02405369608428736
0.012453913495655885
