# vtk DataFile Version 2.0
Vessel Segment
ASCII
DATASET POLYDATA
POINTS 119 float
-0.0038118848385988286 -0.005254945551088967 0.0004973763006872202
-0.008238960406564013 -0.01101725037254175 0.0012994254904209303
-0.013098882185432162 -0.01702163406786445 0.0023184060094048687
-0.018219557021105604 -0.023049540099404034 0.0034407008150439894
-0.02346658520391051 -0.028952162578291193 0.004547416705797043
-0.028735171731353575 -0.03463228087596406 0.005515271290368603
-0.03393377507977126 -0.04001918124367624 0.006212698593444446
-0.038971230038934275 -0.04505354192641011 0.0065092582423296914
-0.04376539518529869 -0.04969984188561612 0.006290840929429913
-0.048258905439512924 -0.05396260214055056 0.00546193630393792
-0.05242692263667291 -0.057892163447065416 0.003946901017906352
-0.05627038600327325 -0.06157823848855257 0.0016835642037668227
-0.059786077108688544 -0.06512193379718786 -0.0013684319159166887
-0.06294911941848533 -0.06862180583989645 -0.0051856958460227125
-0.06572618029808261 -0.07217492864499785 -0.009673840503313418
-0.06808599883492927 -0.07586131669634692 -0.01469293631513727
-0.06999309095659308 -0.07972990177175185 -0.020102239087025686
-0.07139565094613819 -0.0837860269936748 -0.02575966395823675
-0.07224401789871343 -0.08800794819818367 -0.03153721713874193
-0.07250028886034861 -0.09236222130243134 -0.03732897521466084
-0.07214350663024113 -0.09682445667039129 -0.04307614651251332
-0.07116249001435468 -0.10137448778520199 -0.048755510079686364
-0.06956576965787692 -0.10599517359901832 -0.05434996837808033
-0.06739159654753075 -0.11067087572083206 -0.05982707073577012
-0.06471394863445461 -0.11538255647360002 -0.06512585310140494
-0.06164262460855098 -0.12010701112812981 -0.07014834379756216
-0.0583256994982382 -0.12480916147368801 -0.07474587631145836
-0.05494177076506158 -0.12943096128022336 -0.0787362719307558
-0.05167353859632039 -0.13388551619878453 -0.08193629487961515
-0.048694075475737106 -0.13804290973645558 -0.0841991185624253
-0.04613056500597796 -0.14176314208620516 -0.08548559900900213
-0.04401521530152569 -0.14498269555563212 -0.08588956710804672
-0.04230961360847725 -0.14773146444980542 -0.08553588481858401
-0.04095110567265936 -0.1500660775374015 -0.0845231497323263
-0.03987291022018187 -0.15206041637753287 -0.08290336858550032
-0.039034020076017875 -0.1537725775672513 -0.08064892080433579
-0.03844252534387535 -0.15520623621039764 -0.07767603523232494
-0.03814779913705524 -0.15630395531464678 -0.07390799842297091
-0.03820642077455494 -0.15697949544286482 -0.06935255052803163
-0.03863799282423541 -0.15718423046761376 -0.06414385985234168
-0.03939925499939203 -0.156955782060059 -0.058500003158783315
-0.04040643156615006 -0.15640448391029985 -0.05261865607159568
-0.04156870169244295 -0.15566903663208245 -0.04664369327540178
-0.04279905999048651 -0.1548913974439243 -0.0406720101757647
-0.044019933550869396 -0.1542071833352541 -0.03475932916162188
-0.04516800533042897 -0.15374003724963964 -0.028928452812699953
-0.04619629866756161 -0.15360149389892583 -0.023183379108200647
-0.0470737534086115 -0.153888644927941 -0.017523789116122082
-0.04778560105055414 -0.15467749609245904 -0.011958548405218039
-0.048331558598286736 -0.15601471325446237 -0.006506677472916546
-0.04872013306576763 -0.15791863368258294 -0.0011898381746774543
-0.048965588223317605 -0.16039266194287394 0.003974197015406772
-0.04908465001527498 -0.1634349928416653 0.008965543339397867
-0.04909358669427343 -0.1670369515065489 0.01375973403213671
-0.049005694011601646 -0.17118495386338145 0.018336533050394142
-0.04882908040729739 -0.1758632317567588 0.02268400242789678
-0.04856525610099446 -0.18105020185485746 0.026796424432774458
-0.04821041451122389 -0.18671272532164104 0.030673783116741443
-0.04775685370967821 -0.19280325139559987 0.03431870299793248
-0.04719399231341601 -0.19925717045816727 0.03773545637659451
-0.04650846514933399 -0.20599583797223067 0.04093421534302408
-0.04568220956827214 -0.21293531551856515 0.04393542695703822
-0.04469190984547372 -0.21999372523691707 0.046767480357444685
-0.04351209863589956 -0.22709542428862511 0.04946264423899437
-0.04211938431124965 -0.23417391790225459 0.05205410008337587
-0.040495711493148734 -0.24117467071611276 0.054573948795568185
-0.038627403833541865 -0.2480544541485381 0.05705194304717506
-0.036501735338280994 -0.254778559914367 0.059515571621601725
-0.034104572728002824 -0.26131298532359837 0.061989518229893736
-0.03142129319271556 -0.2676194414362285 0.06449523462660015
-0.028440210318767024 -0.27365422561613867 0.06705178907796779
-0.02515495571073207 -0.27937477296469443 0.06967881350400458
-0.021564006735092185 -0.28474601142982736 0.07239958215775275
-0.017670630969539948 -0.2897411009453421 0.07524071510335997
-0.013486555702624612 -0.29433855591611074 0.0782266767710179
-0.009034369213033805 -0.2985258395482139 0.08137315780199339
-0.004340349819178609 -0.30230159320471145 0.08468597729676614
0.0005728908918135713 -0.3056708806112569 0.08815958437208533
0.005689141040683974 -0.3086417093888911 0.0917744141378413
0.011003047454494763 -0.3112283761181399 0.09549854514153736
0.016525261961044986 -0.3134541750411929 0.0992993609372142
0.022278581965774535 -0.31534360906647585 0.10315437572413513
0.02828695645603851 -0.31691460962773715 0.10705254419843627
0.034561375122139394 -0.318175457912196 0.11099181884659365
0.041087219615542986 -0.3191270739855096 0.1149768647999805
0.04781918742213504 -0.3197696853586859 0.11901664922147694
0.054687174261036024 -0.32011114151257275 0.12312173541783797
0.06161053665976841 -0.32017303841126 0.1272998938126232
0.0685145743225331 -0.3199921565320433 0.1315521013909565
0.07534143590188896 -0.3196191645579655 0.13587300542131409
0.08205226348669196 -0.31911778826899934 0.14025018081004872
0.08862371209656923 -0.318558659140985 0.14466673361920543
0.09504121094145347 -0.3180142557119603 0.14910364643857937
0.10129703820350082 -0.3175537568808312 0.15354123712989728
0.1073884998090981 -0.3172395296738377 0.1579633656733714
0.1133156357443669 -0.3171272711750307 0.1623584957818381
0.11907570281352153 -0.31726799849881776 0.16671739151608547
0.12465937677371247 -0.3177073097897862 0.17103301467920812
0.13004802347755653 -0.31848253409575916 0.1752993814998742
0.135214879465968 -0.31961814330039773 0.17951309387586153
0.14012751532542284 -0.32112197809115794 0.18367408185474277
0.14475047693236837 -0.3229853031347617 0.1877852442404406
0.14904924253895846 -0.3251859427371295 0.19184760570529527
0.1529958533200753 -0.32769409788156934 0.1958575183146233
0.15657640226839195 -0.33048104261744343 0.19980747685356703
0.15979054777320884 -0.33352703229300495 0.2036904127111531
0.16264632263361484 -0.33682525207107006 0.20750249193802126
0.16515465587953046 -0.34038134616437127 0.2112423469855421
0.16732557243230498 -0.34420860478028914 0.2149109936687955
0.16916858490441045 -0.3483215229142699 0.21851074027077425
0.1706936305446692 -0.3527281695490672 0.222042298524128
0.1719139753162002 -0.3574244060075592 0.2255077407615577
0.17284914738396837 -0.36239200348892825 0.22891346935285292
0.17352818900264047 -0.3676000665830695 0.2322740717959475
0.17398980780401843 -0.37300139871176036 0.2356107796260093
0.1742814098846179 -0.3785160379164791 0.23894190841431634
0.17445441758560104 -0.383996076165411 0.24225887760350404
0.1745621642614742 -0.38921460875491953 0.2454910415079119
0.17465434703322488 -0.39394569232138593 0.24851487705371103
LINES 1 120
119 0 1 2 3 4 5 6 7 8 9 10 11 12 13 14 15 16 17 18 19 20 21 22 23 24 25 26 27 28 29 30 31 32 33 34 35 36 37 38 39 40 41 42 43 44 45 46 47 48 49 50 51 52 53 54 55 56 57 58 59 60 61 62 63 64 65 66 67 68 69 70 71 72 73 74 75 76 77 78 79 80 81 82 83 84 85 86 87 88 89 90 91 92 93 94 95 96 97 98 99 100 101 102 103 104 105 106 107 108 109 110 111 112 113 114 115 116 117 118
POINT_DATA 119
SCALARS Curvature float
LOOKUP_TABLE default
0.016564148933628436
0.012382362139452471
0.013180830208654754
0.020160187303543235
0.034010920634581734
0.054715953223123885
0.08142892653431871
0.11245465553729797
0.14534582742913904
0.17711474742305033
0.2045427764822469
0.224555247301904
0.2346181985027939
0.23310697517302365
0.21959672828389692
0.1950314329456604
0.1617406953679693
0.12329096429258833
0.08417776521117423
0.0493857692752129
0.02386131144844213
0.011955019149690252
0.01689866893227876
0.04037920275246892
0.08226389399280151
0.14051482048902444
0.21130983114691523
0.28936352488840456
0.3684182280971191
0.4418544338505944
0.5033552086102502
0.5475515910264682
0.5705770222422611
0.5704683465098356
0.5473678544985555
0.5035032407451693
0.4429475623712279
0.3711863137940324
0.29454058170422426
0.2195113103809847
0.15211808998089973
0.09730561997307585
0.05848219184515627
0.037238313486826935
0.03327198808767847
0.04452282341209875
0.06749304317114832
0.09771249140304604
0.13028932692190948
0.16048003511024175
0.18421244453401991
0.19850341598845786
0.20172759003546106
0.19371304906273984
0.1756614446891247
0.14991132334599744
0.11958145304984548
0.0881437772174701
0.058981783862108214
0.034989051154128356
0.01825491117093232
0.009870811906336924
0.00987396923340451
0.017326602004551314
0.03051184018623332
0.047213466776660946
0.06503767416308166
0.0817319513371234
0.09545922324576428
0.10499378216988502
0.10981803164242773
0.11011375986469597
0.10665649396685721
0.10063443604985332
0.09342285100610448
0.08634941643016371
0.08048549628379775
0.07649283330660281
0.07454571460186935
0.0743367187715285
0.0751614764375606
0.076066295608426
0.07603364093368825
0.07417550598243941
0.06990428937020246
0.06305482935995822
0.05393908010453546
0.04332531078184254
0.03234511609588411
0.022342265827707954
0.014685939957353698
0.0105759871187348
0.010868814030446136
0.015949274792424258
0.025667006096491647
0.03934610152573737
0.055866261287596614
0.07380318135076858
0.09160747719440313
0.10779610185464626
0.12112877829155373
0.13074460856683648
0.13624033116136017
0.13768071681475788
0.1355419660835671
0.13059914016089172
0.12377708889179236
0.11598975728962467
0.10799431785462793
0.10028402417259183
0.0930373603459638
0.08613189066748977
0.0792205577852031
0.07185764763875074
0.06365286324720723
0.054426329981207534
0.04433585876308429
0.033950797812130715
0.0242540248226292
