# vtk DataFile Version 2.0
Vessel Segment
ASCII
DATASET POLYDATA
POINTS 119 float
-0.003454925329958133 -0.005245391783268544 0.00043061032934636214
-0.00755900788421059 -0.01098126898379741 0.0012495977483040922
-0.01213892404582791 -0.01695322505067486 0.0023478324970077876
-0.01701020001181757 -0.022936170228546847 0.0035724052978818284
-0.022019416814704366 -0.02877253485050567 0.004769656373942622
-0.027048977971432308 -0.03437029646809554 0.0057924969017410025
-0.0320001917646099 -0.03967506725561341 0.006492112164975903
-0.03677752657046919 -0.04464829922199632 0.0067247099595972235
-0.04129205084631849 -0.049268401891260125 0.006372211018706258
-0.04548092448743752 -0.05354747493650226 0.005357732279089914
-0.04931974311858068 -0.05754522567949421 0.0036354739217057458
-0.05280408490535407 -0.061354249169012706 0.001167785049987094
-0.055914671923012485 -0.06506711891546885 -0.002065559800321688
-0.058605945720448596 -0.06876375223987947 -0.006023268847056531
-0.060825517037596685 -0.07251489891130551 -0.010594110005949566
-0.06253831444390032 -0.07637480785162211 -0.015622568651245403
-0.06372376010721352 -0.08037660922607329 -0.02096748509198801
-0.06435716475871295 -0.08452034511628936 -0.026504919231995435
-0.06442002230629511 -0.08878740243198435 -0.03213181974126177
-0.06390546202700266 -0.09315543539872748 -0.03776455333088702
-0.06281988410111243 -0.09761243220069724 -0.043348273080687456
-0.0611809266417509 -0.10214904148318323 -0.04884029753588474
-0.05903023960647125 -0.10675195375137256 -0.05418237823451957
-0.056444933848046754 -0.11139708532889299 -0.05928334324410255
-0.05354319170945322 -0.11603860859565732 -0.06401539834896441
-0.05047856895910758 -0.12060486971564129 -0.0682303171522934
-0.04742114541186752 -0.12501100964274764 -0.07178680770758425
-0.044534077389366 -0.12917522309671733 -0.07457118570155921
-0.041953165710296406 -0.13300895619459743 -0.07650466474163174
-0.039778528352028636 -0.13640472308566465 -0.07756688272282779
-0.03804585297740612 -0.13928902340396956 -0.07783015478301526
-0.036712542924966174 -0.1416776689203892 -0.07743117275782407
-0.035698811542785 -0.14366446664480845 -0.07646656536474088
-0.034936904285854845 -0.14533657981602796 -0.07495832944713614
-0.03438497757612577 -0.14674875285448427 -0.07287656939283088
-0.034034091480356896 -0.14791421095920568 -0.07015827642142365
-0.03390690522353981 -0.14880572778682707 -0.06674217349374598
-0.03404212977504807 -0.1493685889443908 -0.06261012769092639
-0.034467242159558084 -0.14955041633439733 -0.05783021567689462
-0.0351710500447493 -0.1493460768364243 -0.052566024515648596
-0.036092277975277705 -0.14882448713482765 -0.04702784213669838
-0.03714409359812089 -0.14810862170014263 -0.04138593326988805
-0.03824301642684273 -0.14733509486574645 -0.03575145370844826
-0.03931657955111844 -0.14663397597750222 -0.030189884757036607
-0.04030592481067354 -0.14612222137911873 -0.024730219109696083
-0.04116713621147068 -0.14590140107700333 -0.019373394129784893
-0.0418704162308705 -0.14606182020229766 -0.014104760398430291
-0.04239825723701353 -0.1466860484721845 -0.008911211778064934
-0.04274656278677218 -0.14784277553731004 -0.0038011793500369135
-0.04292402719694629 -0.14957252927599818 0.0011947125812071403
-0.04294615703324631 -0.15188423756298153 0.006040706746610943
-0.04283182286508195 -0.15477005357155424 0.010710682854942484
-0.042599979356535866 -0.15821763183585816 0.015184397129299176
-0.042267015874404346 -0.16220885808500365 0.01944331298243234
-0.041844454185535326 -0.16671966953194498 0.023477350144674614
-0.04133671282151245 -0.17172118812873707 0.027289083522249704
-0.040740138091925206 -0.17717684699771705 0.030890417073512005
-0.04004543089486335 -0.18303676455641027 0.0342977381598189
-0.03924110058680559 -0.18923619711482442 0.03752499719754986
-0.03831665714462919 -0.19569789068112675 0.040580442610531314
-0.03726288428322615 -0.20233854914322066 0.043472428125628314
-0.0360651795969139 -0.20907882810274106 0.046217459835128295
-0.03470046868463359 -0.21584621098041792 0.048836675942114625
-0.03314111369543466 -0.22257197409539445 0.0513532019407579
-0.031360042361703096 -0.22919275400542324 0.053792361079239515
-0.029336211256172653 -0.23565370841067024 0.05618071314888947
-0.027056073461109664 -0.24190824790849888 0.05854469746796904
-0.024511753561529036 -0.24791746546141197 0.060910285020716125
-0.021698739642150158 -0.2536481058439384 0.06330256140872563
-0.01861411550417486 -0.2590722217858598 0.06574523424857963
-0.01525629075536469 -0.2641661785012331 0.06826041291297877
-0.011624965562283577 -0.2689125988877245 0.07087004112308402
-0.007720034616508779 -0.27330198004904827 0.07359731630753129
-0.003542223055719846 -0.27732978131113856 0.07646601313707956
0.0009025523981545007 -0.28099256121504596 0.07949604753781704
0.005599348555387632 -0.2842901563461698 0.08269769215432574
0.010528453749650016 -0.2872278567959988 0.08607079302271507
0.015671198038825704 -0.28981396887922056 0.08960482234046355
0.02101294162075349 -0.29205804673508584 0.0932783547292838
0.02654656061718195 -0.29397274977670784 0.09706118039990223
0.032275551753696126 -0.2955758565145848 0.10092285861187056
0.038210437594129516 -0.2968858404625185 0.10484132496136492
0.044360177983685765 -0.29791774446635805 0.1088043774490707
0.05072221519098867 -0.2986823584346211 0.11280861775761243
0.057274113591866474 -0.29918932825583977 0.1168575672593081
0.06396971143034808 -0.2994525533137839 0.12095833314388607
0.07074270195648204 -0.2994965270672065 0.12511818624320983
0.07751656988536498 -0.2993598045972859 0.12933969390938946
0.08421624850711382 -0.29909418158916 0.13361703097733357
0.09077674828178964 -0.2987605642208813 0.13793661505506066
0.0971467512286943 -0.2984255523226443 0.1422775633203037
0.10328877832268424 -0.2981540528824522 0.14661508018421698
0.10917734409565363 -0.2980040262163219 0.15092362146619964
0.11479977769716614 -0.2980225752687657 0.1551791381000153
0.12015657618844157 -0.298245581202366 0.15936460315775378
0.12525759453679253 -0.29870137672536634 0.16347111070712686
0.1301151170509407 -0.29941534013237686 0.1674961146247756
0.13473860818955719 -0.3004115794742796 0.17144164231067213
0.1391309626280946 -0.3017124729169736 0.17531239636670973
0.14328730314027885 -0.3033359362672346 0.1791158916312466
0.1471948428505417 -0.30529200997380457 0.1828619257595731
0.15083291681901512 -0.3075808220293594 0.18656094202847193
0.1541757212192872 -0.3101917815547728 0.1902188231778693
0.15719926057062975 -0.31310521704159555 0.1938341591973262
0.15989126638653925 -0.3162993946441723 0.19740025555372642
0.16225254731370292 -0.3197590293795164 0.2009107713394347
0.16429149534142817 -0.323478893398702 0.20436193430790767
0.16601832707172834 -0.3274620594346926 0.2077509022303925
0.16744254542299522 -0.33171393147165606 0.2110747070954653
0.1685742345483259 -0.33623494124715525 0.21432985329361426
0.16942724705732778 -0.341014353555045 0.21751133888547938
0.17002229186551676 -0.34602827354454047 0.22061691301355968
0.17038777527257468 -0.351243112658743 0.22365082140995696
0.17055933786777303 -0.35661990852277964 0.2266271780904394
0.17057918563734328 -0.3621120793395377 0.22956911611400635
0.17049729589478615 -0.36764847019021013 0.23250001735730905
0.17036810299961003 -0.37310122510003846 0.23542194752027298
0.170244417684482 -0.378277162323562 0.2382856017435316
0.1701679226769367 -0.38298523193244244 0.24099703905431608
LINES 1 120
119 0 1 2 3 4 5 6 7 8 9 10 11 12 13 14 15 16 17 18 19 20 21 22 23 24 25 26 27 28 29 30 31 32 33 34 35 36 37 38 39 40 41 42 43 44 45 46 47 48 49 50 51 52 53 54 55 56 57 58 59 60 61 62 63 64 65 66 67 68 69 70 71 72 73 74 75 76 77 78 79 80 81 82 83 84 85 86 87 88 89 90 91 92 93 94 95 96 97 98 99 100 101 102 103 104 105 106 107 108 109 110 111 112 113 114 115 116 117 118
POINT_DATA 119
SCALARS Curvature float
LOOKUP_TABLE default
0.006435676374602041
0.0033535633475016828
0.007253990899151834
0.019344017512800044
0.039969480213608105
0.06843513477761878
0.10295474647316527
0.1407502838909015
0.17829970833731304
0.21171210248483238
0.23718985543071427
0.251523003532005
0.25255280942152203
0.23954162996790113
0.21339444201230712
0.17669332576272598
0.13352797623433502
0.0891303170536271
0.049346409692607604
0.020000849118487755
0.006224781443242808
0.011826330984645295
0.03878034445357899
0.0869028942925849
0.15375609468352
0.2348027295883965
0.3238010565818787
0.4134014667079027
0.49588199103930286
0.5639420512229854
0.611465619048205
0.6341672115413995
0.6300467492275755
0.5996008131639037
0.5457657093714786
0.47359864780352445
0.3897335429799097
0.30167379958465457
0.2170028461415052
0.1426019307601655
0.08396279318029315
0.0446705865490124
0.026111416411683942
0.027431731095461008
0.0457469000068026
0.07656731678746119
0.11438576482088249
0.1533524897369814
0.18795639303398007
0.21363276690829316
0.22722954740180643
0.22728350865330457
0.2140825470012374
0.18951700314226827
0.15674845622700007
0.1197454613423512
0.0827498027603138
0.049742459095613915
0.02397520457778143
0.007622331985217228
0.0015891303471405535
0.0054920074963634834
0.017802459262906585
0.03612642582042535
0.05757455143385828
0.07916939209239651
0.0982336847153784
0.11270935917337112
0.12136900204062229
0.12389810225373372
0.12084520283755368
0.11345541603339838
0.1034181472231653
0.0925703138604341
0.08260057876470994
0.07479777624088982
0.0698783488993022
0.06791460761026887
0.06836996115234303
0.0702312392698392
0.07221414685228596
0.07300770114979192
0.0715185826605079
0.06707725885142891
0.05957425672940742
0.04950600955230947
0.037923597639908886
0.02629237517127829
0.01628377525205229
0.009530593066006444
0.007382339949021244
0.01069711609732408
0.019700937700729452
0.03393542469269401
0.052301706693168776
0.07319426496754988
0.09470527379448682
0.11486975979459983
0.13191605660802413
0.14448544310921466
0.15178959606169054
0.15368386238868267
0.15064698184373335
0.1436719064212019
0.13408569466634912
0.12332712199755878
0.11271703561172056
0.10325760386391447
0.09549224116474785
0.0894487144859727
0.0846750739914475
0.08036346761169699
0.07554275554950747
0.0693092731451742
0.06105790481038289
0.05067403245218595
0.03865132447381332
0.026110283516432242
0.01470669525757133
