# vtk DataFile Version 2.0
Vessel Segment
ASCII
DATASET POLYDATA
POINTS 119 float
-0.004828626849973247 -0.005313733680100632 0.0006862273320632163
-0.010157757603464993 -0.011166150471030135 0.001444094097549318
-0.01579193173115316 -0.01727312140957509 0.0022496119602155437
-0.021598900140281832 -0.023434272284657456 0.0030964696331568778
-0.027497621635705155 -0.02952251013367667 0.003957911556293448
-0.03341864308603595 -0.03542653846080036 0.004775177801322185
-0.03929203388035478 -0.041033735648082735 0.005465881296880827
-0.045044865864228074 -0.046234463027466144 0.005938775244381004
-0.050625427684002695 -0.050965907423374875 0.006090537062639336
-0.05600120604248357 -0.055221744182536406 0.005767150188945393
-0.06114335640070254 -0.059030329372391 0.004795535409924567
-0.06605584012731197 -0.062471496643566084 0.003032776411906888
-0.07077076278301578 -0.06566446256131753 0.000379109250646117
-0.07532095421524934 -0.06875332776779144 -0.003190642816693245
-0.07973443952446248 -0.07190434928518409 -0.007629441391510165
-0.08399846995561384 -0.07526862297933776 -0.012841591014028323
-0.08803273347431827 -0.07894304720093463 -0.01868710456219949
-0.09169128583276384 -0.08295195048081444 -0.024967051649158408
-0.09481076946405168 -0.0872626348547529 -0.0314684578176765
-0.09724201562728187 -0.09179941421043447 -0.03800032488499464
-0.0988812260085674 -0.09648505145488544 -0.04446799556750572
-0.0996542904996264 -0.10125058181333682 -0.05088113320858773
-0.0995141075701045 -0.10605847605546706 -0.057329253514717016
-0.09842739612356964 -0.11091898491604531 -0.06396168932545691
-0.09635649832651624 -0.11589756996333783 -0.0709622759491422
-0.0932562421304301 -0.12112060870471686 -0.07847806640207897
-0.08913658046050094 -0.1267210912910893 -0.08646033626335896
-0.0841263379256226 -0.13275987224367383 -0.09462487627017756
-0.07845789148765556 -0.13923117339154797 -0.10253194786316727
-0.07246245575652431 -0.14603534524887282 -0.10963196510324229
-0.06653576536492621 -0.15291861990557393 -0.11542228136233361
-0.06098383840667654 -0.15962023892364574 -0.11966256660666891
-0.05599950980062991 -0.16593965651196985 -0.12229008915396294
-0.05171115044465521 -0.171664178213443 -0.12335709535022929
-0.0481719351863975 -0.17664297286767963 -0.12305881080541714
-0.04535393714276535 -0.18084226472634338 -0.12161878461230728
-0.043205277533678775 -0.18429367859877616 -0.11918222134667042
-0.041686230388152876 -0.1870344562881182 -0.1157912548527352
-0.04078837818044451 -0.18906320947669614 -0.11143398417248448
-0.0405216449887579 -0.19035185280652525 -0.10615999429319338
-0.040864301971592576 -0.19090957598545297 -0.1001391402966423
-0.04174954072283724 -0.1908148436561495 -0.09357865534965364
-0.04308581044300707 -0.19019377278682215 -0.08666661235610738
-0.04476448136598368 -0.18919951198803747 -0.07955599783305921
-0.04666882697014854 -0.18800306797091443 -0.07235498099507297
-0.04868637350542909 -0.18678351749825794 -0.06513116368749514
-0.05071854316413147 -0.1857187498156682 -0.05792925809565363
-0.0526861264708635 -0.18496473795442767 -0.0507773759987585
-0.05453193182161957 -0.18464133622634651 -0.043683169090747084
-0.05621965759248697 -0.18483422317055356 -0.03663939258738673
-0.057730383062673925 -0.18560392040578932 -0.029644533819940817
-0.05906030360488576 -0.18699375813406074 -0.02271622904465974
-0.060216983084592265 -0.18903274305036116 -0.01589900045809365
-0.061215557113318136 -0.19173246668276855 -0.009258337007605776
-0.06207535003611766 -0.19509418713630364 -0.0028638494206703335
-0.06281720494047201 -0.19911659868837403 0.003217151054636695
-0.06346062770126759 -0.2037941462373845 0.008925748206779357
-0.06402229608253276 -0.2091176284401935 0.014225368973994245
-0.06451170112546735 -0.21507477552918533 0.019105192149189723
-0.06492503309289581 -0.22163696964690882 0.02357724720039751
-0.06524312395889974 -0.2287485448540351 0.02766971194811657
-0.06544104805372418 -0.23632682948008138 0.03142060107170201
-0.06549547821966309 -0.24427852830973257 0.03488176842928511
-0.06538743109196993 -0.2525224462000684 0.03811306874027832
-0.06510439028747705 -0.26099723811819026 0.04117151574056106
-0.06463735236624038 -0.2696641209552406 0.04410662085485803
-0.0639727275467254 -0.2785054223799885 0.046959170916642035
-0.06308313954666782 -0.28751459580949784 0.04976213306824275
-0.06192207039154589 -0.29666803020893834 0.052539434715748456
-0.060430053556492426 -0.3059012983889129 0.055306110579725995
-0.05854934176757852 -0.31510357240013004 0.05807328031936175
-0.056237379067844734 -0.32413722165826053 0.06085620474728265
-0.05347339683146872 -0.33286048025056636 0.06368194758552745
-0.05026073759203125 -0.34114471133724805 0.06658874264590456
-0.04663016915163243 -0.3488813671030929 0.06961538782165179
-0.042637222277366264 -0.35599723289501717 0.07279057086817219
-0.03834313845910761 -0.3624598612399921 0.07613053338031965
-0.03379877259109108 -0.36826438548723905 0.07963440074274367
-0.02903942982487418 -0.3734220994282627 0.08327792235229349
-0.024076451153750462 -0.37796604605174416 0.08701644811606583
-0.018887635759262018 -0.38195293692132076 0.09080647857294402
-0.013423457591926653 -0.3854421507682791 0.09462210902596092
-0.00762486535274931 -0.38847573470248964 0.09845485466478082
-0.0014477994797348261 -0.3910680772837153 0.10230683056009854
0.005113012595547098 -0.3932055804776124 0.10618685927354099
0.012015507693953247 -0.39485750022335153 0.1101102299746948
0.019182305611643732 -0.39599066701098595 0.11409792170325302
0.026527641691071836 -0.396583174313824 0.11817404847227066
0.033988259799861475 -0.3966306709537895 0.12236186644081243
0.04154131070339069 -0.39615005250639335 0.12668449281330538
0.04920188368233417 -0.395183714369106 0.1311608109346604
0.057007719184278535 -0.3937981377669854 0.13580485069251724
0.06499641816854292 -0.3920844238346855 0.1406245786020014
0.07319291553006377 -0.39015626976739287 0.14562009905346798
0.08159839875942497 -0.3881431309938739 0.15078365369686944
0.09019063988508762 -0.38618194095389946 0.15610030602949287
0.0989222264920494 -0.3844104284319974 0.16154388102041395
0.10772149699611235 -0.38295584216808026 0.16708200490820557
0.1164943333885871 -0.3819211335025298 0.1726778727855267
0.12513496290444395 -0.3813711278970026 0.1782967704555089
0.13353876745911977 -0.3813254877251921 0.1839113537231898
0.14161455646450632 -0.3817645325212884 0.18950541968862444
0.14929203759121637 -0.38264474960812467 0.19506933870207482
0.15652035921105062 -0.38391769478828247 0.200594691676963
0.16326525427704025 -0.3855436191174573 0.20606866738809246
0.1695025923743711 -0.3874970949915233 0.21147298176947463
0.17521692359436766 -0.3897697687522323 0.21678860769384456
0.18040088044846972 -0.3923706459922722 0.22199872399165513
0.18505153981175576 -0.3953213999183726 0.2270936289876472
0.18917271955957635 -0.3986511706271305 0.23207129773745303
0.19277085986237583 -0.4023878511967404 0.23693286563792662
0.1958563771287468 -0.40654873975534667 0.24168600726215167
0.1984475983009146 -0.4111329552823456 0.24634704041623523
0.20057816285756877 -0.41611999024373125 0.25094371830046897
0.20229369734986785 -0.4214607356835442 0.25550587746726783
0.20364343810167826 -0.42705658161390997 0.26004883405579904
0.20467274889858378 -0.4327125232754051 0.2645409369761232
0.20543440403368568 -0.4381186567532675 0.2688539113805914
0.20599832148783595 -0.4429627636573261 0.27278084268873815
LINES 1 120
119 0 1 2 3 4 5 6 7 8 9 10 11 12 13 14 15 16 17 18 19 20 21 22 23 24 25 26 27 28 29 30 31 32 33 34 35 36 37 38 39 40 41 42 43 44 45 46 47 48 49 50 51 52 53 54 55 56 57 58 59 60 61 62 63 64 65 66 67 68 69 70 71 72 73 74 75 76 77 78 79 80 81 82 83 84 85 86 87 88 89 90 91 92 93 94 95 96 97 98 99 100 101 102 103 104 105 106 107 108 109 110 111 112 113 114 115 116 117 118
POINT_DATA 119
SCALARS Curvature float
LOOKUP_TABLE default
0.02758747596328847
0.025558364910283255
0.02622471292074725
0.029854074098846814
0.03665716156368924
0.04673140927442746
0.0599938766860282
0.07611589604667524
0.09447376451839991
0.11412938220493092
0.13385190827363921
0.15218649656570662
0.16756957680013881
0.17848284553278349
0.18363116586364553
0.18212401186122312
0.1736368670975589
0.1585287588231946
0.1378951616796782
0.11354167820058005
0.087872596395866
0.06369865386182755
0.0439788519578213
0.03152059987301727
0.028669529884551202
0.037023956190613924
0.05720848636869198
0.08873656818347667
0.1299831343398
0.17827687414100887
0.2301083111696518
0.2814363632650939
0.328064044502993
0.3660449489975672
0.39207732087663794
0.4038425712622126
0.4002501786946539
0.3815605220313223
0.3493703002800849
0.3064603046616391
0.25652066988063993
0.20378253448884154
0.152595641141359
0.10699753283944713
0.07032090581257235
0.044881241412449535
0.031777576859571936
0.03082628551887103
0.04063256470497703
0.058788772660616745
0.08217465246511775
0.10732347734706257
0.1308115091640669
0.1496266005321263
0.1614753899419393
0.16499680960743432
0.15986146473417254
0.14675035393539596
0.12722066458324496
0.1034792682085339
0.07809454083260281
0.05368311372760037
0.03260951722833732
0.01673339665180705
0.007231613639307235
0.004512148632027922
0.008224688318478657
0.017360675124917607
0.030424933358358188
0.04565305534737958
0.061244427671402986
0.07558050531343202
0.08740157204765422
0.09592213136136915
0.10087422382936141
0.1024780778434656
0.10134920427624738
0.09835907682193079
0.09447189837482578
0.09058202932352798
0.0873752943713582
0.08523290413255659
0.08418984961597785
0.08395137560550818
0.08396269054387379
0.08351959374777217
0.0819021956907423
0.07851107447491228
0.07298536547465374
0.06528531597807037
0.055727252825059886
0.044965893412671896
0.033926468503891305
0.02369615734619279
0.015389896771009885
0.010008979342945005
0.008311589233676135
0.010712500717021917
0.017224916295407875
0.027451498417730393
0.04062491696930575
0.05569165150378059
0.07142726389115346
0.08656763149135283
0.09993916690876394
0.11057197793047091
0.11778302583113172
0.12122110116203463
0.1208711085108332
0.11702087924211092
0.11019867355283208
0.10109298902682153
0.09046780127866558
0.07908576732838689
0.06764939226823466
0.0567661577576256
0.046938822053508786
0.03857732669563937
0.03202477806864353
