# vtk DataFile Version 2.0
Vessel Segment
ASCII
DATASET POLYDATA
POINTS 119 float
-0.0024171836379244145 -0.005279359455043703 0.00023392702631993493
-0.005566296183992191 -0.01096897162546746 0.0011090984612947743
-0.00930996421491038 -0.016867810951370837 0.0024544714396799094
-0.01343309078046949 -0.022733186086076378 0.003996781646793923
-0.01772647818291384 -0.028378512895642506 0.005472424322026149
-0.022033998506930448 -0.03372800723809101 0.006661654328467593
-0.026237700975860884 -0.038780761108238186 0.007367098036857368
-0.030236510097306702 -0.04357128237999297 0.007408201660115353
-0.0339339861793543 -0.048138780950785276 0.00664958980445342
-0.03725613538442982 -0.05253684535348283 0.005049657085072362
-0.04016464098958677 -0.056861118805085625 0.002626233536169986
-0.042614428406270964 -0.06121091672846541 -0.0005961631940697839
-0.04452174538211862 -0.06564717004321849 -0.0045720383790594414
-0.04577473043105035 -0.07018804731505644 -0.009199247188533386
-0.046264776897808155 -0.07482142636296685 -0.014315811766210156
-0.04594644705855039 -0.07952070605290218 -0.019718388474043985
-0.04483734470431057 -0.08426868631689743 -0.025259036325048903
-0.04297883536003569 -0.08904205252445974 -0.03085380201026345
-0.04043473299871904 -0.0938151115952196 -0.03644903122599798
-0.03729553738644178 -0.09857603383677438 -0.04199589139638696
-0.03367939368961925 -0.10332836218953682 -0.04742125446886589
-0.02974007312793392 -0.10808187463660762 -0.05260228110521402
-0.02566913011067666 -0.11283425764462966 -0.057355154368173816
-0.021687031768004614 -0.11754727435087609 -0.06144330172009222
-0.018027075512092948 -0.12211607735645923 -0.06461595989702772
-0.014901645328867352 -0.12636192452328962 -0.06670048868298938
-0.012430571261005507 -0.1301204077466366 -0.06770386424967045
-0.01061324672270564 -0.13334538082020223 -0.06776277936759781
-0.009376356931820701 -0.13607292208924263 -0.06701710429700877
-0.008636675203786144 -0.1383511490985346 -0.06554667188827074
-0.008334922452775336 -0.14023561693512784 -0.06332656576360222
-0.008466902597783989 -0.14171214333028986 -0.06025044833190729
-0.009070140078277906 -0.1426895524959801 -0.05620972534235936
-0.010163382859531885 -0.1430425805901049 -0.05124016572087942
-0.011674583131607299 -0.14273332440435407 -0.04555191037745162
-0.013475942302482362 -0.14183760729135314 -0.039405179360877396
-0.015425961877880739 -0.14050220691581344 -0.03306117437492795
-0.017389500627275074 -0.13890388076492424 -0.026758970541148556
-0.019254265134635917 -0.13721485582805135 -0.020686674374827782
-0.020942613073700087 -0.13557532732140037 -0.014956332507862507
-0.022400158638303174 -0.13410028434461055 -0.00961773390255351
-0.023590992881309836 -0.13288834115401174 -0.004662863746606906
-0.024500560543526572 -0.1320143158485291 -4.361432763248102e-05
-0.025130172120432268 -0.13153286475524603 0.0043100180408224015
-0.02548898061916151 -0.13148723618281233 0.008480485608254462
-0.025585182428373772 -0.1319210584666802 0.012555894446532365
-0.02541960409457322 -0.13289369329165782 0.016619093317058638
-0.024987033809216616 -0.13449134631350487 0.020720418894277358
-0.02429087146040157 -0.13680677410416708 0.02483783848038884
-0.023355207463305647 -0.13989147295305576 0.028877471616947908
-0.022218115127273067 -0.14373144153749337 0.03272525862851351
-0.0209213705035265 -0.14826992684169046 0.03629609108654268
-0.019501910853320596 -0.15343582070874068 0.03954309993558909
-0.01798757250567158 -0.15914869704750648 0.0424508589020769
-0.016395293589898576 -0.16531305194267543 0.04503674185391324
-0.014728380413227552 -0.1718176112939009 0.04735501340319564
-0.012975844241471787 -0.17854398476838265 0.04948720420932915
-0.011118427201420976 -0.18537064372103768 0.051519795215753006
-0.009138542834935657 -0.1921799508425394 0.05351957702976458
-0.00702954082554566 -0.1988735736383447 0.05551889437573087
-0.004796050250181435 -0.20537914681284927 0.057525539189523
-0.0024311654412958812 -0.21165641654646375 0.05954440012634026
9.32892549807638e-05 -0.21768342942663166 0.06157421281223149
0.0028179451734113782 -0.22343100533845373 0.06361146011022448
0.005788565405675728 -0.22886206616012172 0.06566050975049899
0.009044958888593996 -0.2339366178964003 0.06773561135114164
0.012612915259006542 -0.23861215626973303 0.0698590423618701
0.01650166124310383 -0.2428474776485052 0.07205904591211117
0.020705949941699556 -0.2466123353531468 0.07436882301929633
0.02521387337841766 -0.24989537432874712 0.07682486867440322
0.030013499197017762 -0.25270234485171666 0.07946274687349807
0.03509399836094417 -0.25504990241647624 0.08231297711351532
0.040444057046417806 -0.2569622308333273 0.08539572612426329
0.04604952709846292 -0.2584669113663345 0.08871785052238697
0.05189215465361042 -0.2595939394385133 0.09227206084177175
0.057948757920923355 -0.2603765061488302 0.09603589625568937
0.06419200719824784 -0.2608506482507439 0.09997440094661335
0.07059426496806616 -0.261053343714612 0.10404732516209544
0.07713234390173689 -0.26101985671599515 0.10821743522968433
0.08378769748180487 -0.2607782416702218 0.11245582009770741
0.09054005470725036 -0.2603489053551053 0.11673978072766783
0.09736119610316038 -0.2597496771076056 0.1210516845358034
0.10421327877217369 -0.2590019989828757 0.12537896283944924
0.11105309364001012 -0.25813573780751153 0.12971662634287975
0.11783762962612299 -0.25719398190143006 0.1340663136283473
0.1245236703944605 -0.25623481865084 0.13843041195372366
0.1310639268465808 -0.25533250545934727 0.1428073031220958
0.13740488380556545 -0.254573121507794 0.14718649742452486
0.14348559907843625 -0.2540463128496612 0.15154752444589262
0.1492408577697331 -0.2538316088956637 0.15586230710084298
0.1546085857245016 -0.2539877752080646 0.16009928908398563
0.15953831308183775 -0.25454506460694454 0.16422768607498828
0.16399959147971024 -0.2555046479571945 0.1682206623019859
0.16798610371457184 -0.25684296418028685 0.17205689575866237
0.17151811217079221 -0.25852316677383363 0.175727479437456
0.17463291798477426 -0.26050800658602147 0.17923582105604238
0.17737441966088294 -0.26276970215001977 0.18259751779990396
0.17978550099354404 -0.26529497591361434 0.18583486321588735
0.18190368725208206 -0.26808883040324816 0.18897481190002832
0.18375629127443113 -0.2711749134212384 0.192047400196834
0.18535574448480965 -0.2745921140416576 0.19508321455700975
0.1866943445942173 -0.27838621797600327 0.19810857323474368
0.18774440832357275 -0.2825968763264658 0.20113773420898726
0.1884691234725524 -0.287243336724773 0.20416681264475472
0.18884107359198077 -0.2923224383266549 0.2071765117710319
0.18885124213852333 -0.2978177906621765 0.21014248788053597
0.18850617674758 -0.3037022716207943 0.21303937746103926
0.18782383645709205 -0.3099330402342432 0.21584055983324893
0.18683599146519567 -0.31644335790351713 0.21851751247979412
0.18559063861331138 -0.323137497356927 0.22104486490774633
0.18415644333655323 -0.3298968914734877 0.22340557275694375
0.18261759504072703 -0.33660041384828204 0.22559776229727943
0.18105841225326383 -0.3431527791348418 0.22763676373566152
0.17954727335843534 -0.3494973565667373 0.22955291796387925
0.17813587043321258 -0.3556089951359716 0.2313888811263865
0.17687317760280943 -0.36146473407280477 0.2331911971722796
0.175809035089235 -0.3670170618010991 0.23499501865592384
0.1749782993032565 -0.37219284876194575 0.23680935907338824
0.1743860106520798 -0.37692177219110506 0.2386206870581166
LINES 1 120
119 0 1 2 3 4 5 6 7 8 9 10 11 12 13 14 15 16 17 18 19 20 21 22 23 24 25 26 27 28 29 30 31 32 33 34 35 36 37 38 39 40 41 42 43 44 45 46 47 48 49 50 51 52 53 54 55 56 57 58 59 60 61 62 63 64 65 66 67 68 69 70 71 72 73 74 75 76 77 78 79 80 81 82 83 84 85 86 87 88 89 90 91 92 93 94 95 96 97 98 99 100 101 102 103 104 105 106 107 108 109 110 111 112 113 114 115 116 117 118
POINT_DATA 119
SCALARS Curvature float
LOOKUP_TABLE default
0.0024988578514044697
0.017107899700865806
0.04233965969237207
0.07689564134975717
0.11807504743654564
0.16202151933470824
0.20414989914204945
0.23970483663049297
0.26438267290622164
0.2749361300564926
0.2696798108022927
0.24882391091964495
0.2145829689938433
0.1710336613612997
0.12372724318991771
0.0790942185827541
0.04370702060030451
0.02348711851563195
0.022953166087056318
0.0446049763593957
0.08852419497832704
0.15224804365195765
0.2309403071193182
0.3178477682210654
0.40499503093513367
0.4840405638817693
0.5471957071881964
0.5880990801539369
0.6025426138151871
0.5889619809057839
0.5486315665254619
0.4855390036443949
0.4059524158277978
0.3177301698914041
0.2294536183532275
0.14948422264119257
0.0850550304399295
0.0415017141383127
0.02172090946870349
0.02591565148525138
0.051652807893256915
0.09421991624465527
0.14723338455317425
0.20342095320460277
0.2554821294884602
0.29692320402242667
0.32276910584264307
0.3300718071120778
0.3181618411774008
0.2886222042860168
0.244998259789787
0.19228892350669247
0.13628948575224908
0.082871950936131
0.03729306855353537
0.003613084801271307
-0.01570907376626974
-0.020003427844333302
-0.010347770098130557
0.01068448752290791
0.03944369510137428
0.07172765747064495
0.10333656028334604
0.13058589402758122
0.15071362737677363
0.16213538212954345
0.1645242285340738
0.15871666835887246
0.14646994466980637
0.13011485061973835
0.11216026312619949
0.09490929403185709
0.08014202511484204
0.06890726733920494
0.06144768485134071
0.05726170304517952
0.05528495627656924
0.054156590840963824
0.05252396145806873
0.049334721643804154
0.04406851674951607
0.03687082502195299
0.028567318505052446
0.02055602104057441
0.014593695680594715
0.012509460826208725
0.01589017510076771
0.025786954426316972
0.04248958670064231
0.06540596963101342
0.09306842185415182
0.1232700350104885
0.15331487460219867
0.1803486382215356
0.20172387874880143
0.21534796820174346
0.21996354664440093
0.21532012288436647
0.2022105577843478
0.18236525609825263
0.15821730411030308
0.13257058270681665
0.10821732089213765
0.08755948631298051
0.07228859502106477
0.06317081389319289
0.05996960652128555
0.06151862323423671
0.06593578249540437
0.07094862107745836
0.07428402158962198
0.0740648775277741
0.06915378419667706
0.05938999169354466
0.045679955727055306
0.029922064399487493
0.014769784790757594
0.0032612942180015223
-0.001635734306633895
