# vtk DataFile Version 2.0
Vessel Segment
ASCII
DATASET POLYDATA
POINTS 119 float
-0.0018301049094750518 -0.0053611537039991485 0.00012003963288039296
-0.004434167982258106 -0.011056810428346237 0.0010334929362789064
-0.007696011845798989 -0.016936730113521044 0.0025314732822789253
-0.01138656732002974 -0.022750930053731654 0.004268101637736613
-0.015265237169169867 -0.02829438914818535 0.005911190140472678
-0.01915328262538602 -0.03350144776777742 0.007198098850403267
-0.022922936943326287 -0.03840588944933599 0.007906525516248647
-0.026474937291795134 -0.04309390781916029 0.00783715058318906
-0.029715480432657756 -0.04765752653739515 0.00683610460470191
-0.03256084270381232 -0.052191631507284765 0.004858218090859992
-0.0349442863316727 -0.05681890419861504 0.0019365533451953742
-0.03677402317041447 -0.0616406197249052 -0.0018696821627739932
-0.03791524069606729 -0.06669553610045341 -0.006464233109422764
-0.03821068721724991 -0.07196274605470572 -0.0116993871629424
-0.03751091349037775 -0.0773786845689882 -0.01738095982910323
-0.03575722380832383 -0.08286360138993286 -0.023273095419255284
-0.03298423901301574 -0.08836191432126661 -0.029215415400879997
-0.02927158309440578 -0.09382213563001796 -0.03513454237017903
-0.0247452701392068 -0.09919536627618852 -0.04098892786510869
-0.019584362973903917 -0.10445839985304795 -0.04673227198196331
-0.0140183549331415 -0.10961425866694055 -0.052265282886997354
-0.008330799305087837 -0.11468388763706515 -0.05740719668513935
-0.0028368720310831064 -0.11967862624849702 -0.06190151070029149
0.0021538046268583747 -0.12456374326085518 -0.06544830687262888
0.006375158217781192 -0.12922029718725245 -0.06777430495733613
0.009653591091593585 -0.13345076739894132 -0.06875841478912158
0.011985668055060218 -0.13712341570994374 -0.068514742767613
0.01350727531846347 -0.14030721957861472 -0.0672073053188885
0.014332732709785221 -0.14313873782051867 -0.06481007116619329
0.014440914440114104 -0.1455998358392284 -0.061124768394123424
0.013725642682717441 -0.1475089953477676 -0.05593409667698714
0.012084403619948333 -0.14857402308816536 -0.04914018427574546
0.00947216140051551 -0.14851015844062843 -0.04082274574058424
0.005979259433223724 -0.14715884972859516 -0.0313709561119223
0.001900800949284181 -0.14464163994028123 -0.02140587683131448
-0.002392639799937148 -0.14130115464173326 -0.01151907406244241
-0.006544112905711243 -0.13757695956349592 -0.0022085575928568173
-0.01026052100568334 -0.13390493071964565 0.006164932397525932
-0.013364410432997641 -0.13062045252175966 0.013438313975903456
-0.015813027042651407 -0.1278937119750068 0.01965495784332092
-0.01764374912117164 -0.12577616756157828 0.02496492865321777
-0.018922113866817372 -0.1242692439093419 0.029549192120077748
-0.01972367214651168 -0.12334828461627599 0.03359131925343197
-0.020119965377377313 -0.12298480287201309 0.03727091206327773
-0.020163016949913917 -0.12317036924436525 0.04076089665736656
-0.019873140681383916 -0.12393833632678451 0.04421817011334253
-0.019238519424153607 -0.12537516512413197 0.047765680897830363
-0.018231510754936415 -0.12761686522685942 0.05145870323358623
-0.016842911195682205 -0.13080422021189583 0.055239400543094626
-0.015106429105498986 -0.1350057007863562 0.05894452412562306
-0.013086953029138971 -0.14018011205906242 0.06238540848890436
-0.010858310290624406 -0.14621204035989988 0.06542447653257245
-0.008485642324100784 -0.1529599441629652 0.06799411036565019
-0.006017943051844943 -0.16027040019578528 0.07008704904226772
-0.003487202222065488 -0.16796947442947538 0.0717533925510818
-0.0009057694988384483 -0.1758627615922715 0.07310205935836803
0.0017348103458447177 -0.18375806059161637 0.07428065643399577
0.004455649207691126 -0.19148139916803883 0.07543550396732474
0.007276291099453356 -0.19889073795963047 0.0766726426158914
0.010201973134514465 -0.20589553782159337 0.07803726996321725
0.013222830291189178 -0.21245415810406773 0.07953102349975956
0.01634759467938112 -0.2185714382648923 0.08114553925971912
0.019616827149811788 -0.2242729376251921 0.08286187207764169
0.02308940846001175 -0.2295658195925599 0.08465955121677787
0.026834972496292152 -0.23443788896641066 0.08653220418797505
0.030920674193724757 -0.23886338812778127 0.08849081173628952
0.03539940724867295 -0.24280235967099995 0.09056130290036386
0.04030319118767043 -0.24620471670931304 0.09278110947728417
0.045640822338717635 -0.24902417708704044 0.09519664130602255
0.051403145968086594 -0.2512318317587576 0.09785911984048436
0.05756844076566736 -0.2528197631650521 0.10081587214095987
0.06410288510938233 -0.25379907794755524 0.10410122483017784
0.07095997837448627 -0.2542013015101796 0.10772573617793786
0.07808368185057571 -0.25407601856213496 0.11167236010415793
0.08541630426124544 -0.2534884516978791 0.11590020482428813
0.09290538150994847 -0.2525138311494907 0.12035006745651634
0.10050330929157075 -0.25123049013943655 0.1249518423345016
0.10816823026693013 -0.24971417389475925 0.12963758949241644
0.11586833969026457 -0.2480319742835671 0.13435614844869684
0.12357917434452066 -0.2462313488872092 0.13908067521508083
0.13126922205375938 -0.24434062929750688 0.14379781849256268
0.13888969073950364 -0.24238262635323912 0.1484976469862464
0.14637693477786126 -0.24038777187329113 0.15317118234990457
0.1536666154176254 -0.23840123666187807 0.15781474318100366
0.16070831612251446 -0.2364875008836234 0.16242950633068778
0.16746684925120206 -0.23472920768912314 0.16701466375805876
0.17391339876035355 -0.23322513615801616 0.171563052395267
0.18001690859645736 -0.23208107482365484 0.1760579529592879
0.18573679477740848 -0.23139754927255726 0.1804752370799347
0.19102421761990954 -0.23125205083213637 0.1847880265613914
0.1958310848819882 -0.2316878163857611 0.18897309270275425
0.20012007693424166 -0.23271086926172085 0.19301410383765405
0.20387368438368755 -0.23429600268523929 0.1969018080363181
0.207095212148243 -0.2363956091764359 0.20063105520428487
0.20981000743609526 -0.23895357409974743 0.20420483552981125
0.21205471221630526 -0.2419169517104174 0.20763218407438008
0.2138686181556515 -0.24524447303869273 0.21093026769879356
0.2152888834001037 -0.24891149210104618 0.21411925705769724
0.21634834516833606 -0.25291779079835297 0.21722307408587146
0.21706976554848337 -0.25729258218497336 0.22026937784265754
0.21745866120002935 -0.2620937856710631 0.22328736807727534
0.217494886587055 -0.2673971541884835 0.22630143267088365
0.21713202476372354 -0.27327466674002815 0.22932078524290983
0.2163139013017687 -0.2797657129939522 0.23232966830324245
0.21500262935490766 -0.2868656028602781 0.2352902279277488
0.21319371152614017 -0.2945353218912855 0.23815757251257094
0.2109139057926828 -0.3027054119914305 0.2408872862229207
0.20821577592110088 -0.31127101190962764 0.2434376236492394
0.2051816011468661 -0.3200841628104602 0.24576954991239408
0.20192285086075634 -0.3289538194341674 0.24785575223429723
0.1985810984949886 -0.3376645884794585 0.24968827860630094
0.19531068315027242 -0.3460175341827362 0.25128398224528015
0.1922458497746508 -0.3538784910623146 0.2526811062521897
0.18947312596724944 -0.36119404689949286 0.25393093454588156
0.18703625615443736 -0.36797321430108854 0.2550934968589645
0.18496580274835947 -0.3742422105925066 0.25623007664127323
0.18328926960943853 -0.38001817042859537 0.2573911404130407
0.1820101860757558 -0.38531300652848144 0.2586102436314544
0.18109564100415604 -0.3901386351750961 0.25990979925083946
LINES 1 120
119 0 1 2 3 4 5 6 7 8 9 10 11 12 13 14 15 16 17 18 19 20 21 22 23 24 25 26 27 28 29 30 31 32 33 34 35 36 37 38 39 40 41 42 43 44 45 46 47 48 49 50 51 52 53 54 55 56 57 58 59 60 61 62 63 64 65 66 67 68 69 70 71 72 73 74 75 76 77 78 79 80 81 82 83 84 85 86 87 88 89 90 91 92 93 94 95 96 97 98 99 100 101 102 103 104 105 106 107 108 109 110 111 112 113 114 115 116 117 118
POINT_DATA 119
SCALARS Curvature float
LOOKUP_TABLE default
0.02686334014670014
0.052111467999519656
0.08678417368545963
0.12799523521289188
0.17169460710293577
0.21314753034859052
0.24753652994921957
0.2706092389339395
0.2792858787871768
0.27214248449821354
0.24969957593121717
0.2144694104260632
0.1707453235307775
0.12415010951026556
0.08099255709286698
0.047507867186468
0.029075115519195
0.029510699946179095
0.05052982836278018
0.0914491947989708
0.14917527185285753
0.21848764051762692
0.2925898744877227
0.3638663928774548
0.42475679123945703
0.46864298191842013
0.49064121082321765
0.4882012278191014
0.4614374160538236
0.41314879720290815
0.348522553767271
0.27455434135081297
0.1992533639920426
0.13072659849722595
0.07625136424086065
0.04144679194268308
0.029642496487795374
0.041518468624804544
0.07505694402701855
0.12580897620136097
0.187440398712894
0.25248854509800306
0.3132365990192952
0.3625997183117198
0.39491754435431137
0.40656112039559306
0.3962867164292605
0.36530134190211366
0.3170406337463242
0.2566947630991101
0.1905476430078686
0.12521543797870255
0.06687978385461028
0.02060833082531199
-0.010159084981480819
-0.023904001181002974
-0.02107769805260252
-0.003911224618990979
0.023976407014763588
0.058111559342972505
0.09376551648103844
0.1265403149214909
0.15286697879483988
0.17035778553911649
0.1779767363040019
0.1760187117008864
0.16591416675955706
0.14989907221700868
0.13060614422970604
0.11064120621365883
0.09220701540483893
0.07682659735741787
0.06520080828183207
0.05721317310050284
0.052072258098717954
0.04856124569615354
0.04534891496884944
0.041308033219694854
0.035787287292590814
0.028791168178540622
0.021037330448512644
0.013880567039010815
0.009113724025716773
0.008675476704995733
0.01430999192112677
0.027231869453796853
0.0478501278620699
0.07559728050831976
0.10889481504003044
0.14526674684102503
0.18159119026762008
0.2144592287405241
0.24059378612319743
0.25727116697765384
0.26268598629958273
0.2562067512876304
0.23848357986651716
0.21138952832711486
0.17779999372124616
0.14123743290492463
0.10542796482736065
0.07382950620358837
0.049195987140595344
0.03323808470173516
0.02642823812671762
0.027978120576056476
0.03599288616045187
0.04778167385262732
0.060281505849950644
0.07053504641589682
0.07615412464597693
0.07570181381559164
0.06893624648657064
0.05687794991404827
0.04168686436147086
0.02636206389185102
0.014302835384513296
0.00879058580198654
0.012464036107600588
