# vtk DataFile Version 2.0
Vessel Segment
ASCII
DATASET POLYDATA
POINTS 119 float
-0.0036669907979546496 -0.00525012904585422 0.00047031448003702277
-0.007963350915030315 -0.011001254947991139 0.0012791259535004421
-0.012710133476225422 -0.01699216429188366 0.0023299664439172967
-0.01773011069833851 -0.02300164446029804 0.00349338519359497
-0.022881178664887803 -0.028877407334580253 0.004636546872028618
-0.028053372889304415 -0.03452432270286931 0.005626580971701161
-0.03315221958924646 -0.03987818966193421 0.006324907656390854
-0.03808464096567385 -0.04488789141137209 0.0065956343208233275
-0.042765480853867235 -0.04952322324523692 0.006323090906538671
-0.04713497372525456 -0.05379147098754166 0.00541955257134877
-0.05116861151162204 -0.05774663322934036 0.0038218576418488884
-0.05486553626658874 -0.06147962388308696 0.0014780299842262297
-0.058216308350145365 -0.06508822807347016 -0.00164413642280133
-0.061187720635027254 -0.06866360537733579 -0.005514085448968146
-0.06373859853873115 -0.07229227733714806 -0.010030608369985719
-0.06583600515867372 -0.07604387860930867 -0.015047462811594199
-0.06745058120466421 -0.07996091510317795 -0.020423781047161478
-0.0685418944618195 -0.08404658125649125 -0.026025024218638004
-0.06907339101229504 -0.08828056731878614 -0.03173372865595058
-0.06902006634264417 -0.0926342800639157 -0.03745360235845609
-0.06837187914178051 -0.09708879599766851 -0.043128077268605375
-0.06712862301885027 -0.1016287110456679 -0.048726557166261016
-0.06531125887668184 -0.10623857322129798 -0.054215427079819176
-0.0629729976449451 -0.11089919470354587 -0.05953796393319642
-0.060205661643735725 -0.11558039096339093 -0.0646046958131386
-0.05713778422808542 -0.12023887718067143 -0.06929475719076422
-0.053928372683880864 -0.12481853657931144 -0.0734595695219481
-0.050752131409417825 -0.12925020106172405 -0.0769426649173313
-0.04777477177374731 -0.13344418849925413 -0.07960262620910824
-0.04514082024493489 -0.13727723425612834 -0.08134575979221008
-0.04293972111622549 -0.1406345785532751 -0.08218305201350566
-0.04117100085122272 -0.14348491083158427 -0.08223281657132166
-0.03977518863929623 -0.14588724485908575 -0.08161682205917475
-0.03868177125807151 -0.14791816883390146 -0.08040806790800176
-0.03783006056928463 -0.14965175825459356 -0.07862215154835976
-0.03719250712017923 -0.1511303999043211 -0.07620780711338275
-0.03678658094649998 -0.15234238959357704 -0.07308155441553547
-0.03666131246198056 -0.15322650559212467 -0.0691854258340829
-0.03686428499537307 -0.15370606044557217 -0.06455070257198661
-0.03740368260036515 -0.1537479085497903 -0.05932520955698668
-0.03822877745884747 -0.15340197552451748 -0.053726206254558595
-0.03925392585846259 -0.1527841935476661 -0.04794207322276134
-0.04039061862636297 -0.15203312537852584 -0.04210463192182082
-0.04155722051642884 -0.1512865461893996 -0.03629885786480107
-0.0426834366619071 -0.15067291385886653 -0.030570230140328156
-0.043713751926229824 -0.15030699256049587 -0.024933135132988133
-0.04460833231863931 -0.15029139859588092 -0.019384314137789703
-0.04534196186606779 -0.15071672099787922 -0.01391841309498861
-0.04590457583996684 -0.15165527948740432 -0.008544077617348749
-0.04629979707217887 -0.1531506616398476 -0.003284720548656939
-0.0465390902610674 -0.1552170825378846 0.0018328361565304579
-0.04663860232611198 -0.15785336914670953 0.0067880937443771825
-0.04661592045299052 -0.1610536488721364 0.011561647805744254
-0.0464872841559408 -0.16480580805021897 0.016131943871572067
-0.04626516369721638 -0.16909258686275316 0.020483208124788953
-0.045956050839958996 -0.17389361757927926 0.02460952848283584
-0.045559241252868185 -0.17918195146887336 0.028512224783033606
-0.04506857396693314 -0.1849181855037776 0.0321975906898469
-0.044474674317909815 -0.19104800026711793 0.03567239625910069
-0.04376686794137591 -0.19750151422276768 0.03894213917874919
-0.042933373609608395 -0.2041978494093368 0.042016024335775365
-0.041957508991772065 -0.21105451484779583 0.04491280574692112
-0.04081609101409875 -0.21799302331461198 0.047657897224229376
-0.039482816157407924 -0.22494017785926915 0.05027983302266703
-0.03793285014937121 -0.23183040835220242 0.052808568101398216
-0.03614698752410484 -0.23860870268195425 0.05527389994668063
-0.034111685751298366 -0.24523010632230724 0.057704169538665466
-0.03181630927442357 -0.25165786219351755 0.06012617998443477
-0.029250839773483108 -0.2578580435957219 0.06256471785285592
-0.0264057350037955 -0.2637965817170495 0.06504210032026092
-0.023273816415065714 -0.2694382781885 0.0675785782895743
-0.01985155586848035 -0.2747514622126313 0.07019466474801775
-0.01613821931588691 -0.27971231688818815 0.07291355958359516
-0.012136009001908072 -0.2843039574818939 0.07576073574345374
-0.0078540199655375 -0.2885129771865752 0.0787589030703803
-0.0033112999126723866 -0.29233230536924115 0.08192173602127377
0.0014690305489037572 -0.29576338017960685 0.08525288362469964
0.006466407075314286 -0.2988124198490491 0.08874505377349448
0.011665595897664048 -0.30148774537959183 0.09237816705467108
0.017060744106475543 -0.3038025866955355 0.09612114387144333
0.02265975027166775 -0.30577756124689975 0.09994230435798918
0.02848056754881307 -0.30743431067696286 0.10381933406854718
0.0345411887595109 -0.30878923299864647 0.10774069847729467
0.0408471865075898 -0.30985133705306434 0.11170377321115829
0.0473807794984058 -0.3106248709970531 0.11571273047706027
0.0540962560975146 -0.3111154632869514 0.11977575879360174
0.06092493482762524 -0.3113376179931549 0.1239020617281357
0.06778766221941085 -0.3113197604790525 0.12809725713611242
0.07460931817195147 -0.31110478766080263 0.13235947747533916
0.08132878092548954 -0.3107476768166683 0.13667988319327556
0.08790166810242668 -0.3103136384567322 0.1410424044992357
0.09429837150706046 -0.3098714265218086 0.14542668788890198
0.10049936213692076 -0.30948809230597446 0.14981080921311077
0.10649445502827239 -0.30922420652940963 0.15417308797196816
0.11228195066098279 -0.30913151303178243 0.15849685415436918
0.11786576645017703 -0.3092544750495354 0.16277153754648482
0.12324935199670327 -0.30963334721710706 0.16699058633820796
0.1284312841738092 -0.3103044978745351 0.17115066691647868
0.13340208372931017 -0.31129861449169904 0.17525018753171862
0.13814436044462955 -0.312636952302986 0.1792902316931583
0.14263415161097512 -0.31432775440464306 0.18327475912736527
0.146842452697607 -0.31636546527895165 0.1872097180682206
0.1507386750550293 -0.31873225524553656 0.1910980813183244
0.15429686953842942 -0.3214021536966092 0.19493714492475475
0.1575042472455128 -0.3243491022949984 0.1987199045688982
0.1603614254739441 -0.3275551388544319 0.20243991844368517
0.1628770221929421 -0.33101425840622467 0.20609383433577746
0.16506195759029743 -0.33473146983242197 0.20968020473065702
0.16692608092509828 -0.33871754700017337 0.21319892933358078
0.1684788706223869 -0.342982193832764 0.21665034247602882
0.16973132782661876 -0.34752685201311617 0.22003303238457492
0.1706990708634989 -0.35234023425208244 0.22334728387159902
0.17140459684831263 -0.35739839451835426 0.22659839356952144
0.17187916037711357 -0.36266726835237484 0.22980041280854652
0.17216264784971064 -0.3680997187640011 0.23297500978971897
0.17230344734476816 -0.3736190579730035 0.23614231319727863
0.1723542764871301 -0.3790851778047507 0.2392979361519781
0.17236841671092276 -0.3842844852629924 0.24237987476408177
0.17239245295860456 -0.3890048502225845 0.24527664097438814
LINES 1 120
119 0 1 2 3 4 5 6 7 8 9 10 11 12 13 14 15 16 17 18 19 20 21 22 23 24 25 26 27 28 29 30 31 32 33 34 35 36 37 38 39 40 41 42 43 44 45 46 47 48 49 50 51 52 53 54 55 56 57 58 59 60 61 62 63 64 65 66 67 68 69 70 71 72 73 74 75 76 77 78 79 80 81 82 83 84 85 86 87 88 89 90 91 92 93 94 95 96 97 98 99 100 101 102 103 104 105 106 107 108 109 110 111 112 113 114 115 116 117 118
POINT_DATA 119
SCALARS Curvature float
LOOKUP_TABLE default
0.012795055515105144
0.008737180409615861
0.010402124051212075
0.019050071830444732
0.03529679407309171
0.05891359579292683
0.08872461273532306
0.12262643282329452
0.15773957733920857
0.19068358801106253
0.21794968483353572
0.23632963565151827
0.24334883156878942
0.23764726974090894
0.2192550970468937
0.18971952001881479
0.15205623379850441
0.11051920355681175
0.07020514488398312
0.03653056523151824
0.014636948581666736
0.008791189810889385
0.021852033368552064
0.05486831838607634
0.10686162718775852
0.1748258772738674
0.2539517860451945
0.33805789363768557
0.4201851375073623
0.49329188476826086
0.5509733768674733
0.5881254130512333
0.6014774145003081
0.5899342345767113
0.5546875776586692
0.4990841211692868
0.428265271087405
0.34861958232497237
0.267110110806248
0.1905527982489975
0.12492679696923706
0.07479290226786516
0.042882623881845695
0.029899626337791748
0.034549890354627556
0.05379011350585236
0.08325883575380211
0.11783453335000893
0.15225182541086793
0.1817024131711319
0.20235176976758773
0.21171515608055846
0.20885549946071516
0.19438852679952826
0.17030435836648022
0.13963656759807877
0.10602685201458119
0.07324396038458691
0.044718296992873774
0.023148603850058357
0.010225229477258112
0.006497501484785844
0.0113929995759558
0.023376719003002658
0.04022078653164163
0.05934269517178105
0.07816343251289636
0.0944370078181011
0.10650944159610458
0.11347713024791245
0.11522983238422208
0.11238013195183645
0.10609680998152315
0.09787201389122077
0.08925985891470432
0.08162623701216458
0.07594605242635998
0.072675549633058
0.0717152226702431
0.07246483484165686
0.07395837333230287
0.07505526237577576
0.07465644786828249
0.07191105599528307
0.06638152226876938
0.05814195383709596
0.047794935312779965
0.03640443164741799
0.02535503639918879
0.016158723641653005
0.01023792075978894
0.008717052735991817
0.01225328108367958
0.020931232277548912
0.03423699207294005
0.05111495789812874
0.07009901988430632
0.08949876228505309
0.10761351487470844
0.12294327835897212
0.13436634060994002
0.14125865741193874
0.14353900211464046
0.14163516169306464
0.1363783929943236
0.12884416986342376
0.1201653240836385
0.11134778192714685
0.10311857504336162
0.09583069204233957
0.08944035243351696
0.08356073277707209
0.07758376675404247
0.07085024845867836
0.0628398534678717
0.05334824646287304
0.04261897623237605
0.03140346294286416
0.020932405764794902
