# vtk DataFile Version 2.0
Vessel Segment
ASCII
DATASET POLYDATA
POINTS 119 float
-0.002002535628505919 -0.005331134990925047 0.0001537402977193809
-0.004766522161305072 -0.01102184448025555 0.0010553534635325975
-0.008169968570987667 -0.016905099279880653 0.0025075050927058267
-0.011987701860784458 -0.022732736966221676 0.004185988045014796
-0.01598829702673619 -0.028305263970458273 0.00577923242218422
-0.019999705712592387 -0.03355396892393317 0.007037278033593842
-0.023896964273883513 -0.03850210802826228 0.007744847175086345
-0.02757992340261387 -0.043219825933417694 0.007707937425380498
-0.030953646255897135 -0.0477819818111703 0.006779107849496405
-0.03393804488267368 -0.05226977001944449 0.00491669963467549
-0.036476911465569944 -0.05679746288414699 0.002151058201013004
-0.038494238862672225 -0.06146596111817062 -0.0014692507706954953
-0.039871351504022524 -0.0663208082825641 -0.0058644659100888985
-0.04046512642480746 -0.07135281655146646 -0.01090141403089025
-0.04013932732158968 -0.07651391831266434 -0.01639582454483127
-0.038840190293373315 -0.08174078196045363 -0.022122096703738523
-0.036597671177602174 -0.08699029198477971 -0.027924457220733112
-0.033479357306938684 -0.0922208941254333 -0.03372742086541132
-0.029590435245932755 -0.0973922992823292 -0.03948685484621346
-0.025079756553716363 -0.10248590496222285 -0.04515655474060834
-0.020139104417547595 -0.1075051728426643 -0.05064568115245184
-0.015009123575606558 -0.11246716793263728 -0.055791186245867375
-0.009965735395688999 -0.11737822735504554 -0.0603579655736924
-0.005292559781578447 -0.12220150181534746 -0.0640633484809529
-0.001249894562981745 -0.12682037474062646 -0.06663762562443601
0.0019704277379812905 -0.13103854099097872 -0.06794193865480504
0.0043246489140349315 -0.13470723192354872 -0.06806410866628901
0.005911700972675585 -0.13785627689196295 -0.06718213592965538
0.006852020317633854 -0.14060245737097543 -0.06535175299193983
0.007177839234948867 -0.14297535710141307 -0.06247082810305845
0.006838605781732151 -0.14488632201482154 -0.05836057677035153
0.005754840105525393 -0.14612922160386654 -0.05289283637249985
0.0038710635525880163 -0.14646978565492763 -0.046068737302291954
0.0012316254388765697 -0.14574695973139887 -0.03815325463752536
-0.0019490240625889164 -0.1440183027599212 -0.029631349632990293
-0.005384180252443518 -0.14153073235747182 -0.020989476569353977
-0.008789152464058276 -0.13862300831281327 -0.01265420883471396
-0.011921452695154985 -0.1356450182509947 -0.004954337875226153
-0.014620758982100242 -0.13288211340489336 0.0019307530586749784
-0.01682683097922806 -0.13050148546407522 0.007987842949280125
-0.018541470043087444 -0.1285824279012753 0.01329947748996595
-0.019793296776589565 -0.127163330386357 0.017990365876314023
-0.020626422932746035 -0.12625521456416813 0.022201002601511824
-0.021089188424625253 -0.12585788950939603 0.026076263882786308
-0.021221185423733843 -0.12597847749651073 0.02976023091660404
-0.02104168741875566 -0.12665014618135462 0.033388405255492026
-0.02054597347394112 -0.12794649120028093 0.037072824734953484
-0.019715553790298525 -0.1299847674758428 0.04086982346682858
-0.018545779425229048 -0.13288953599002662 0.0447351341551259
-0.017066682411895833 -0.1367244429350733 0.04852875989514341
-0.01533342365515419 -0.1414584430809317 0.05208604130488312
-0.013408331576586803 -0.14699667010210413 0.05528564383699183
-0.01134644733608296 -0.15322183098592015 0.058065611021165475
-0.009189158200634933 -0.16000530032170615 0.060414823887465365
-0.006962958551523244 -0.1671993604340109 0.0623714388909938
-0.004676707863787074 -0.1746369329672133 0.0640253855269232
-0.002320651487470736 -0.18214954852606988 0.06550208988773872
0.00012605073038826934 -0.18957932513432188 0.06692852360717452
0.0026823974482567243 -0.1967906154099361 0.06839877145380366
0.00535381871311574 -0.20368867393340503 0.06995490842706009
0.00813157111940401 -0.21022060520681668 0.07160140468639267
0.011023102226167755 -0.2163760239150475 0.07333472266819714
0.014064260978548036 -0.22216501180906637 0.07514176433296742
0.017307322422737956 -0.22758306119233757 0.07700731441887652
0.020813383998543343 -0.2326101585355687 0.07892810355278607
0.024639678719485948 -0.237216424470364 0.08091575642623067
0.028828944210088504 -0.24136196121903228 0.08299458531215376
0.033404295765668265 -0.24500102209074962 0.08519859835928863
0.038368815025088224 -0.24809466298791505 0.08756954302030605
0.043712260279444734 -0.2506221303569782 0.09015366584846829
0.04941711963307912 -0.2525819696037101 0.09299454599649888
0.05545899040010043 -0.25398797488528346 0.09612561227472083
0.061805089597021245 -0.254868791386949 0.09956109573955974
0.06841502561444966 -0.25526531462988356 0.10329236776875739
0.07524539951761157 -0.2552293760295637 0.1072900822223744
0.08225406762831071 -0.2548207781437897 0.11150742393195343
0.08940025086768395 -0.25410278257033825 0.11588588708387987
0.09664660876287068 -0.2531377208359363 0.12036647602940737
0.10396386869138692 -0.25198203490705723 0.12490238285668383
0.11132905254068956 -0.2506769713763044 0.12946587380159874
0.11871362004319666 -0.2492485070359569 0.13404029913269547
0.1260745859079537 -0.24771801510093963 0.13861294703683139
0.13335570705457467 -0.2461132007768074 0.1431734304338364
0.14049857628412654 -0.24447462373744921 0.14771750496527153
0.1474544877903141 -0.24286047282026352 0.15224647938318348
0.15418527583350158 -0.24134641374704682 0.15676060381525786
0.16065600181958292 -0.2400245775719544 0.16125446556719641
0.16682821032396394 -0.2389958937602382 0.16571312617830086
0.17265431257506905 -0.23835893183041218 0.17011312710304194
0.17807929222832042 -0.2381930610494367 0.17442634099719145
0.18304932368652313 -0.23854686162256414 0.17862568541497054
0.18752172957047442 -0.23943314306785834 0.18268883655924678
0.19147445707185462 -0.24083269118965997 0.1865996620643446
0.19490849741313657 -0.24270213056226006 0.19034708578522924
0.1978495166397032 -0.24498800197908763 0.19393036962887647
0.20033693036951639 -0.24763977332564974 0.1973576441589717
0.2024140629227192 -0.2506192438902775 0.20064703859908287
0.20412197247871247 -0.2539054887959354 0.2038210592895588
0.20549643886157085 -0.25750096915958626 0.20690619526056148
0.20656258551715734 -0.2614345449831804 0.20993224419794887
0.2073287097106512 -0.26575948954722556 0.2129299589839496
0.2077790376274334 -0.2705431988393823 0.21592518969356883
0.20787335665107362 -0.2758483092607543 0.21892938463238265
0.2075614504273072 -0.2817087323884624 0.221930981434246
0.20680783797243618 -0.2881213671631944 0.2248981835415306
0.2056049620209491 -0.2950556761649648 0.2277924630581929
0.20397107536865258 -0.3024569943873721 0.23057493542855145
0.20194547209213462 -0.3102414408405424 0.23320780287801404
0.19959206259946025 -0.31828796102081236 0.23565423056837748
0.19700001282435708 -0.3264365458884781 0.23788615154285886
0.19428596705144224 -0.3345028287800898 0.2398912527462001
0.19158090449874507 -0.342312222300878 0.24167909900567375
0.1890031186625111 -0.34974194428931826 0.24327973104754264
0.18663423791454223 -0.35673625364228756 0.24473739239740666
0.18452191298940326 -0.36329211456506655 0.24610666834503866
0.18270401265455408 -0.3694193951231668 0.24744457073133766
0.18121659782740404 -0.37511467065536036 0.24879755690917854
0.18007451505845856 -0.38036359278532467 0.25019293134542486
0.17925777176664995 -0.3851529507749348 0.25164361984216566
LINES 1 120
119 0 1 2 3 4 5 6 7 8 9 10 11 12 13 14 15 16 17 18 19 20 21 22 23 24 25 26 27 28 29 30 31 32 33 34 35 36 37 38 39 40 41 42 43 44 45 46 47 48 49 50 51 52 53 54 55 56 57 58 59 60 61 62 63 64 65 66 67 68 69 70 71 72 73 74 75 76 77 78 79 80 81 82 83 84 85 86 87 88 89 90 91 92 93 94 95 96 97 98 99 100 101 102 103 104 105 106 107 108 109 110 111 112 113 114 115 116 117 118
POINT_DATA 119
SCALARS Curvature float
LOOKUP_TABLE default
0.019206201141509206
0.04156204397745836
0.0738011423928942
0.11346234308206675
0.15683326938639047
0.19936992621618185
0.23625806032082766
0.26304611868446787
0.2762670760515806
0.2739645989007785
0.25604851767347525
0.22442442763818157
0.1828700627830805
0.13666340249219602
0.0920001205795645
0.05526668002841717
0.03225625566944517
0.027424820442871225
0.04328259527335148
0.0800016482447824
0.13529534272346902
0.20459259378089903
0.2814935523536027
0.35845797596465495
0.4276476800038936
0.4818239642322576
0.5151924926695935
0.5240929759531687
0.5074486883140616
0.4669192401234855
0.4067356436107698
0.333235141953314
0.2541497339422593
0.1777322656915245
0.11182363965890314
0.06297166224889232
0.03570546790843612
0.03205017898076186
0.051336937461365445
0.09032740236092358
0.14363376485907134
0.20438002953535483
0.2650220940764984
0.3182264470435685
0.3577021485729807
0.3788886108254326
0.3794213577841594
0.3593267512287944
0.32093084509538466
0.2685026868145773
0.20768409446066435
0.14478230332162229
0.0860160141607
0.036807777004064034
0.001206334787040254
-0.018496941831887707
-0.021920275231577288
-0.010505689819651871
0.012781220401009893
0.04391640136476362
0.07837923850082153
0.11173425879877918
0.14015718716431363
0.1608412973736145
0.17223935235012955
0.17412085834009483
0.1674503800863696
0.1541166898655861
0.13656134579776494
0.11736651783766332
0.09886422491240233
0.08282260180598484
0.07025060568842384
0.06134296533982713
0.05556513792743653
0.05185680680926421
0.04891507853136013
0.04550745184601036
0.0407613207815482
0.034381576814789615
0.026759953748132816
0.018957231405375717
0.012559636296648467
0.009430727616886753
0.01139677353250686
0.01991462861777987
0.03577478029525129
0.05888797416328994
0.08819224137687637
0.12169989014787115
0.156683574226593
0.18997987721449466
0.21837096956876484
0.23899244321535545
0.24971028584296037
0.2494129691652744
0.2381754765722028
0.2172693424107996
0.18901404229361776
0.1564873823166955
0.12313271884014838
0.0923159933350824
0.06689345693680543
0.04885035321157196
0.03906167678404934
0.03720958892443697
0.041870368649162756
0.05075989233569564
0.06110390456023274
0.07008099833153017
0.07527493255926569
0.0750704026376039
0.06893317017550142
0.057530780463850566
0.04267197333680117
0.02706839263770028
0.013947825550184081
0.006570370008040336
0.007714455524791734
