# vtk DataFile Version 2.0
Vessel Segment
ASCII
DATASET POLYDATA
POINTS 119 float
-0.00434258205521801 -0.005281199662952303 0.0005961341066358558
-0.00924377986923252 -0.011088513696632295 0.0013745101111476764
-0.014512044652754973 -0.017145050013387217 0.0022800507213479302
-0.019995290682796374 -0.023241894352836405 0.0032559124837895485
-0.02558712859611928 -0.029242147873735476 0.0042324505257477
-0.03120140317744463 -0.0350411292933344 0.005120644389639988
-0.03675763890907912 -0.040545482964575705 0.005814649779497746
-0.04217319848282667 -0.04566818444536105 0.0062043087739313075
-0.047379880095201984 -0.05035756506022004 0.006181024067491932
-0.0523314717755634 -0.054610942937751636 0.005619171933136476
-0.057001054820012866 -0.058466568211109425 0.004393992856861765
-0.06139277930083108 -0.062009347396200974 0.0024031249052363798
-0.06552338227439355 -0.06535094181398762 -0.0004240782168236394
-0.0693981280334982 -0.0686150373111834 -0.004089760841704581
-0.07301418431591086 -0.07193584135959599 -0.008524366721685765
-0.07634838217292765 -0.07543073199366132 -0.013611042495616179
-0.07934216132855253 -0.07917285244060987 -0.019209330281951736
-0.08189764296702397 -0.08317628014837149 -0.025148044745126632
-0.08391075791172822 -0.08741328049818103 -0.03125680260981857
-0.08529069675379043 -0.09182965548387574 -0.03738854886031269
-0.08597575976537468 -0.09637627515644533 -0.04346974073174713
-0.08592015034693455 -0.10101085912072487 -0.049498231233228954
-0.08509728976078815 -0.105707761272265 -0.05551478292380674
-0.0835007321180845 -0.11046499886554627 -0.06157988960533096
-0.08114239981658913 -0.11530666760499213 -0.06775149941321078
-0.07805507467080045 -0.12028635332819482 -0.07404242253114444
-0.07432665489190822 -0.12545315831666265 -0.08033561665994408
-0.0701251205304864 -0.13080344377086578 -0.08637928029019865
-0.06567315232654575 -0.13628081788396085 -0.09184774656019126
-0.06123519169970924 -0.1417559364426213 -0.09638820298085041
-0.057078637158232234 -0.14701651580146236 -0.099738999788717
-0.05337124964768315 -0.15188916440402872 -0.10184746540054304
-0.05018182698795959 -0.1562850110303773 -0.1027764089119467
-0.047525055438542844 -0.16013795933307448 -0.1026432178025887
-0.0453663393082406 -0.16344146592250275 -0.10160738941232521
-0.043644406254378765 -0.16624836374234503 -0.09977550011995649
-0.04232361472996002 -0.1686065085764517 -0.0971515340751859
-0.0414173421138603 -0.17050729651463173 -0.0936687618393292
-0.040974697322157985 -0.17188081483181553 -0.0892843244035474
-0.0410331856631472 -0.17265850693706 -0.08407761282600432
-0.041570763559237126 -0.1728469378272881 -0.0782492523572007
-0.042513523818323885 -0.17253590612331057 -0.07201243486988099
-0.0437678177827843 -0.17185926072954533 -0.06554219524994474
-0.045232259735657046 -0.1709681565802563 -0.058970273233679496
-0.04680630336276648 -0.17001978492072592 -0.052383629326142864
-0.04839955538992928 -0.16916849761413644 -0.045831227455361764
-0.049938030266858176 -0.16856027353936445 -0.039340330790763545
-0.051366586284316805 -0.16832091806485838 -0.03292696155228318
-0.05264992557414135 -0.16854628194081073 -0.026600240777972115
-0.05377066681213562 -0.16930014915447172 -0.020365092871530068
-0.05472457971361509 -0.17061997164315218 -0.01422901052836699
-0.05551786699619793 -0.17252775859584882 -0.008206229187705243
-0.0561635178004616 -0.17503645151166233 -0.002325267099472887
-0.05667784963102721 -0.1781478143592619 0.003372409603087433
-0.057077582832486734 -0.18185734044724405 0.008845013491726205
-0.057377464344623576 -0.18615969454187556 0.014055154000927692
-0.05758807728050483 -0.19104571378379134 0.01897089955393655
-0.057715555550070456 -0.19649898444004008 0.02357205302703798
-0.057759993356738495 -0.20249337085187605 0.027851072455747142
-0.0577129358310482 -0.2089838525837875 0.03181267465191082
-0.05755671631708855 -0.2159027514911427 0.03547381897185308
-0.057268914539599175 -0.22316474501711048 0.03886271858313165
-0.056825815141431923 -0.23067962768448907 0.042019337222056495
-0.05620500396596262 -0.2383665642537838 0.044990003230035276
-0.05538837799667461 -0.24615939468525683 0.04782010085442182
-0.05436211959077181 -0.25400924825884613 0.05055062233872214
-0.05311204656589761 -0.26188341146503896 0.0532169593291323
-0.05161741579669321 -0.2697589109875358 0.0558494845301408
-0.049847592190951 -0.2776046973105952 0.05847268720807837
-0.04776624302126973 -0.2853677929385404 0.06110492885900348
-0.045340598641894596 -0.29297057514960845 0.06376119211508169
-0.04254896587671641 -0.3003242612899268 0.06645848689280567
-0.03938307862674892 -0.3073434718084859 0.0692212611939643
-0.03584846766088329 -0.3139547174639017 0.07208114481514508
-0.031967470771863786 -0.3200975343753746 0.07506920642906349
-0.027778895103637593 -0.32573280672562793 0.07820766294419156
-0.02332511779049634 -0.3308459879736957 0.08150834373524006
-0.0186408908110978 -0.3354380383791683 0.08496943264673748
-0.013749917415287024 -0.3395181259034016 0.08857057099942231
-0.008658594614495033 -0.3431083606517445 0.09227473195250468
-0.003348425666852793 -0.3462466121704666 0.09604473429847807
0.0022190671917567163 -0.34897257059560843 0.09985698382511765
0.00808776109974789 -0.3513139706471002 0.10370211519163401
0.014287147079886802 -0.3532798851868149 0.10758032871350821
0.020813673344360035 -0.3548617045595089 0.11149835596150587
0.02762383741825885 -0.3560418879425604 0.11546829269443769
0.03464332908025789 -0.3568054885664254 0.1195059594789841
0.04178784708455773 -0.3571502326317648 0.12362742381856125
0.04898700032486958 -0.35709081283757216 0.12784487172524925
0.05619880067592684 -0.3566608293792255 0.1321670877132861
0.06340950774203034 -0.3559151171651997 0.13659695655779688
0.07062423410625952 -0.35492588697704475 0.14113254960238666
0.07785215986031722 -0.3537796358290512 0.1457677907836497
0.08509950333576564 -0.35257234293052386 0.1504923218904837
0.09236335259568233 -0.35140314377349163 0.15529352034610028
0.09963102629796544 -0.3503697663555017 0.16015738427979925
0.10687656249982237 -0.3495662558560586 0.1650653720755685
0.11405930576566845 -0.34907741488687083 0.16999695934299597
0.12112327044389236 -0.3489710123514674 0.17492992959518727
0.12800286187240473 -0.34928909913919937 0.17984437364549868
0.13463023214750433 -0.35004293818825116 0.18472565946599115
0.14094256413313577 -0.3512160864794688 0.18956613245265255
0.1468878676442149 -0.35277371391622053 0.19436050059691976
0.152427569316188 -0.3546748444677002 0.1991020245094313
0.15753934826144111 -0.3568833845713034 0.20378045503346587
0.1622138068083171 -0.35937483024792893 0.20838383196239965
0.16645087151350926 -0.3621399234783918 0.2129023669636925
0.17025625999318386 -0.3651851187339527 0.21732957776627976
0.1736371710604559 -0.3685285493938169 0.22166460218574882
0.17660272311400038 -0.37219483107260287 0.22591149767910412
0.17916163425052484 -0.37620681998729644 0.23007479178295448
0.18132395067936152 -0.38057711916920434 0.23416168100886264
0.1831049401811805 -0.3853016108662205 0.23818394504148224
0.18453164927508509 -0.39035806551952085 0.2421614602773374
0.1856426757551479 -0.3956994373620657 0.2461176272347427
0.18648397413267848 -0.40123578797261966 0.25006711947788823
0.1871026523246753 -0.4067934967824739 0.25398784654083634
0.187551500252821 -0.4121004763410403 0.2577782574080376
0.18789079348240578 -0.4168837140679225 0.2612709011830255
LINES 1 120
119 0 1 2 3 4 5 6 7 8 9 10 11 12 13 14 15 16 17 18 19 20 21 22 23 24 25 26 27 28 29 30 31 32 33 34 35 36 37 38 39 40 41 42 43 44 45 46 47 48 49 50 51 52 53 54 55 56 57 58 59 60 61 62 63 64 65 66 67 68 69 70 71 72 73 74 75 76 77 78 79 80 81 82 83 84 85 86 87 88 89 90 91 92 93 94 95 96 97 98 99 100 101 102 103 104 105 106 107 108 109 110 111 112 113 114 115 116 117 118
POINT_DATA 119
SCALARS Curvature float
LOOKUP_TABLE default
0.02497889044951959
0.02186428294073221
0.02203889396047225
0.026206380698135134
0.03489024869847048
0.0483044102407445
0.06623996169243042
0.08798954475867168
0.11232761121749094
0.13755877138884431
0.16163784320406824
0.18235529368964185
0.19757180063641974
0.20547706808871163
0.20484210693710497
0.19523195000177518
0.1771477717698573
0.15207364403805862
0.12241312533779049
0.09131347555954529
0.062389025992332724
0.03936841349176727
0.025701291470530737
0.024167260812540267
0.03653203974450167
0.06329280523422433
0.1035463397474515
0.15500091675071279
0.21413714461441075
0.27650606897561275
0.33713671836546444
0.3910119329957626
0.43356241723455713
0.46112567219997397
0.4713193054573324
0.46328695468445247
0.4377887579018486
0.3971253994196109
0.3449032755236417
0.2856660861943617
0.22443307387481348
0.1661944350943133
0.11541891229132689
0.07562671632577223
0.04907298080722017
0.036573883014383954
0.03749096638825715
0.04987106145828926
0.07072168584839468
0.09638696976371205
0.1229787101355403
0.14681225749190002
0.1647980479859486
0.17474643604566942
0.1755550976204921
0.16726313759894665
0.15097226495181976
0.12865099307184236
0.10285090962863551
0.07637313027139891
0.0519271347730594
0.03182296211023574
0.0177315631915082
0.010537935654464915
0.010298923250613904
0.01630395614417316
0.02722429023078728
0.041326048716403135
0.05671577925171935
0.07158499952496421
0.08442240912480672
0.09416860947219417
0.10029731140557731
0.10281778338293299
0.1022041995728453
0.09926712400431992
0.09498938588018162
0.09035222402065339
0.08617745732490917
0.08300774649058727
0.08104040435615999
0.08012171911678134
0.07979963127862391
0.07942415142911875
0.0782782860508032
0.07571832444250504
0.07130159781393276
0.06488225922340808
0.05666080986726879
0.04718019844637702
0.037269280477891326
0.027942083639291886
0.020267595330794218
0.015228805545676743
0.013590979612627178
0.015797488050806933
0.021907287866495276
0.031581999179905916
0.04412338308931893
0.0585549543336038
0.07373547768974366
0.08848804357246123
0.10172684100451206
0.11256481655820359
0.12038890422033258
0.12489485586696648
0.12608005124851598
0.12419903763345239
0.11969196908303385
0.1130997649341534
0.10498114484736217
0.0958455407325718
0.08611243785045233
0.07610251979526166
0.06605992087185492
0.05619891030223332
0.04676343238074071
0.03808494153847655
0.03062345607989435
