# vtk DataFile Version 2.0
Vessel Segment
ASCII
DATASET POLYDATA
POINTS 119 float
-0.0027263659688694306 -0.005256981691562994 0.00029303925124151363
-0.006161972353613778 -0.010954194791389978 0.0011501528276651684
-0.010157747966045596 -0.016870527380244252 0.0024190178600576153
-0.014506874641203791 -0.022768121203076863 0.0038632653244334804
-0.019016801231823574 -0.02846957041613106 0.005253529099210916
-0.023543086116274977 -0.03389404998225609 0.00639221372409512
-0.027973264819820844 -0.039023702333868045 0.00709600203003206
-0.03220674190762158 -0.04386902713358527 0.0071948931171258775
-0.03614746871283389 -0.048447322503960534 0.006560106051044254
-0.039724693419238254 -0.052796113404868075 0.005143759506006285
-0.04290785469946162 -0.05699876866830783 0.0029491173164385895
-0.045668898943487635 -0.06115292332326412 -1.69046183532617e-05
-0.04794652434899408 -0.06533000140995428 -0.003730527633331279
-0.04965006238928431 -0.06956766291484069 -0.008109744373243504
-0.05068875949089133 -0.07387948544924951 -0.013008190918194957
-0.05102106777613702 -0.0782642553699466 -0.018237539577131773
-0.05065423625271497 -0.08272125646193665 -0.023653306077922463
-0.04961102415126167 -0.0872365743796711 -0.02916217110230377
-0.04792964929696822 -0.09179033279007778 -0.03469971405338926
-0.04566704000295546 -0.09637155731346816 -0.040211426832084826
-0.04289958321670953 -0.10098203642837655 -0.04563403528439692
-0.03972985018588541 -0.10562683257988699 -0.05087197025047432
-0.03629576270509784 -0.11029945077295708 -0.05577939919126751
-0.03277170378158587 -0.11496362273910433 -0.06015864154761913
-0.02936156558608184 -0.11952827731130164 -0.06378396103561422
-0.026274235630020723 -0.12383902121993925 -0.06647146531291158
-0.023664844457930656 -0.12774068332227306 -0.06816812919720332
-0.021599341202086748 -0.13115477813710452 -0.0689400919598546
-0.020069635803434165 -0.13405817202586776 -0.06890048947936267
-0.019021958826076817 -0.1364527524220949 -0.0681750871177287
-0.0183711240645195 -0.13840506390572452 -0.06684947374060693
-0.018050997975787467 -0.1399911120873322 -0.06491204023884017
-0.018049509471956604 -0.1412331994642486 -0.06226281574850491
-0.018385015622277838 -0.14207279999005043 -0.05884235349562638
-0.0190420467796468 -0.14245701932080726 -0.054708793160300806
-0.019971626734171737 -0.14238873055256884 -0.04998025641417874
-0.021111563047717285 -0.14191664178152175 -0.04480264860984684
-0.022394069460221887 -0.14111778760914134 -0.039339326548698116
-0.02374816091446278 -0.14008654101763135 -0.03376050587604059
-0.025103396688783114 -0.13892716944166175 -0.0282204657515018
-0.026387194938546264 -0.137756467228411 -0.022841147792692737
-0.027534830147247797 -0.13669544780395104 -0.01768430827809911
-0.028501384611089562 -0.13584939696830278 -0.012759954203992476
-0.02926032535758625 -0.13530340755479758 -0.008045947236921319
-0.02979877580785852 -0.1351255646581296 -0.0034990051952702933
-0.030111491100682973 -0.13537397354331723 0.0009380390484135821
-0.030195099371698293 -0.13610966929502877 0.005325971177517095
-0.03004657721204424 -0.13740812476093714 0.009705551895627258
-0.029671392176353405 -0.13934658276930906 0.0140633255208683
-0.029090123531181213 -0.1419691901475883 0.018330973821888953
-0.028332374886945767 -0.14526996962189204 0.02242482745223964
-0.027429999337540152 -0.14921187619169834 0.026282773879683724
-0.02641137792242725 -0.15374828244015168 0.029868802615706007
-0.02529816625348643 -0.15882493041031479 0.03316697704000136
-0.02410329953805099 -0.1643756899911682 0.036184547571284406
-0.022828411703636704 -0.17032192930652162 0.038956486195081255
-0.02146325583680051 -0.17657604533358295 0.04153884610970249
-0.019990621901637223 -0.18304105619415822 0.043992988319895975
-0.018394204021268238 -0.1896145430776059 0.04636723376594313
-0.016666045457903206 -0.196200745729225 0.04868580938351826
-0.01480682953056287 -0.20271909904981264 0.05095695302677988
-0.012808272953215774 -0.2091128655819115 0.053189786422295084
-0.0106452825583675 -0.21534086252292428 0.05539039039810972
-0.00828287711248336 -0.2213588435430654 0.05756339178451812
-0.005683016461151514 -0.22711922108749505 0.05971909996403225
-0.00281421453322155 -0.23257544355906995 0.06187466782467887
0.0003422870045409047 -0.23768239071347774 0.06405242737638468
0.003791382540528541 -0.24239932902329353 0.06627841313985085
0.007526705294290337 -0.24669688438025314 0.06858174112953043
0.011537487342331502 -0.2505630066741571 0.07099359984640866
0.01581436393658683 -0.254000959462289 0.0735445850932992
0.020351027974029108 -0.2570240105113187 0.07626260150084778
0.02514365555182662 -0.25965168313670733 0.07916995264549995
0.03018823117168593 -0.26190466053490635 0.08228110601809227
0.03547687286933633 -0.26380273527859954 0.08560038416106676
0.04099462720404047 -0.265366503909059 0.08911879527435705
0.04672070543028233 -0.266618707391233 0.09281510093770083
0.05263294298323601 -0.26758329196905484 0.09666045839427415
0.05871217109477588 -0.26828390648108114 0.10062374819500004
0.06494359501980439 -0.2687409987193159 0.10467574975814097
0.0713138962665301 -0.2689718411160817 0.10879068298211468
0.07780639584269002 -0.26899241102620514 0.11294866097452266
0.08439731038319148 -0.2688203960783628 0.11713649121912206
0.09105537955737691 -0.268478500705053 0.12134918156069636
0.09774302017137883 -0.26799892510840706 0.1255887234331656
0.10441492827920333 -0.26742630374200393 0.1298588960236384
0.11101657839151408 -0.26682038799353536 0.1341607123893558
0.11748558633595718 -0.2662540655143257 0.13848724964947867
0.12375410932650979 -0.26580737075795985 0.1428214349173147
0.1297533976177071 -0.26555662781995454 0.14713765861176428
0.13542014921843032 -0.26556558088003984 0.1514047699780034
0.14070300004650202 -0.2658769736307216 0.15559033793937588
0.14556873678309065 -0.2665097211096335 0.15966431810632764
0.15000635431117487 -0.26746036000282314 0.16360149107726057
0.15402957371578796 -0.2687110816612494 0.16738856009763842
0.15766903858884962 -0.2702405481666503 0.17102471916958295
0.16096259976548058 -0.2720328243245155 0.17452098480985295
0.16394787626865376 -0.27408201602167387 0.17789551384906063
0.1666576090452757 -0.2763949487394871 0.18117114554634084
0.1691154028307349 -0.27899060512278845 0.18437383179074388
0.17133202626446561 -0.2818965932345275 0.1875303529332227
0.17330144592692281 -0.2851426301282122 0.1906643374128893
0.17500150704847725 -0.2887514323970221 0.1937894844843904
0.1764031467761139 -0.2927301927737341 0.19690499164221556
0.1774855890393029 -0.29707215280850896 0.1999982995302279
0.1782425951144067 -0.30176560165690636 0.2030536573742349
0.17867862103580637 -0.30679635271393185 0.2060549185252619
0.1788043373721182 -0.3121433034623779 0.2089843104323834
0.17863775490827535 -0.317770496225283 0.21182137186801406
0.17820702546050388 -0.32362045519663085 0.21454608134512898
0.17755557309994055 -0.3296153449962963 0.21714239581575498
0.17674107002313189 -0.3356688167979728 0.2196048609417405
0.17582665935449449 -0.3417056082423578 0.22194204803320225
0.1748701325470351 -0.3476720880293453 0.22417667140977665
0.17392221481042872 -0.3535323262429885 0.22634375929110467
0.17303514949870877 -0.35924443943504525 0.22848215160246269
0.17226367352191652 -0.36473281035403404 0.23061742826518064
0.17165187546575367 -0.36988462690788126 0.23274254869892463
0.171218819867564 -0.3745902969930926 0.23482158591743185
LINES 1 120
119 0 1 2 3 4 5 6 7 8 9 10 11 12 13 14 15 16 17 18 19 20 21 22 23 24 25 26 27 28 29 30 31 32 33 34 35 36 37 38 39 40 41 42 43 44 45 46 47 48 49 50 51 52 53 54 55 56 57 58 59 60 61 62 63 64 65 66 67 68 69 70 71 72 73 74 75 76 77 78 79 80 81 82 83 84 85 86 87 88 89 90 91 92 93 94 95 96 97 98 99 100 101 102 103 104 105 106 107 108 109 110 111 112 113 114 115 116 117 118
POINT_DATA 119
SCALARS Curvature float
LOOKUP_TABLE default
-0.004613314988252386
0.0036011542837483734
0.022272667748971964
0.05106017350619945
0.08822312839485831
0.13071666642927524
0.1744787642654498
0.2148825665454704
0.24730277988766075
0.267726662083758
0.27333033845881777
0.26294161146635087
0.2373214096123575
0.19921646406679436
0.15316333039846694
0.10505510541675302
0.06151315775577616
0.029132854144828947
0.013691035491868257
0.01941122760095804
0.048378911206968266
0.10018377828991691
0.1718404308407969
0.2580064221570028
0.35148084769694743
0.4439322793121773
0.5267760295380949
0.5921012133203447
0.6335404034119372
0.646979954037417
0.6310267841966067
0.5871754953960321
0.5196547676570964
0.43496976195655607
0.3411931318452884
0.24708681385928277
0.16115640808247175
0.09074729480671313
0.04128581156053382
0.015750623119310598
0.014431171683530431
0.03499534221550857
0.0728515429186844
0.12175583437749168
0.1745867473323294
0.2241923404989106
0.2642079166079188
0.2897491637208819
0.29790327816674833
0.28796740069953314
0.26141592561511384
0.2216117790699013
0.173307390095397
0.12200504396311605
0.07326079625675025
0.032019596982750934
0.002061632474346359
-0.014377531820201529
-0.016775084259847695
-0.00626794034971612
0.014602362880549053
0.04230291577722976
0.0728187950198072
0.10218727284474124
0.12698613909430456
0.14471522973412054
0.15402773169916797
0.15479032409307553
0.14797550063336648
0.13541214022941495
0.11943851375991679
0.10251312132412634
0.08684175168774401
0.074073821681487
0.06510842356402466
0.06003260500663379
0.05819393394114589
0.058389353472023585
0.05913556955812167
0.05897506162967394
0.05676773838932217
0.05192170908059381
0.04452694937447178
0.035371179608070485
0.02583568096253054
0.017687309263032233
0.012798897882309668
0.012841247698992952
0.018994395583037803
0.03172320390708143
0.05065293529122482
0.07456576048391425
0.10152125837997325
0.12908553117908772
0.1546372809642549
0.17570747329884773
0.19030378970614556
0.19717277629923705
0.19596123049224856
0.18725272365118642
0.1724731869833878
0.15367859285609464
0.13325516573217694
0.11357569593269647
0.09666243434082683
0.08390662474730652
0.07588693704128491
0.07231491966214637
0.07211704935854965
0.07364264455025181
0.07496775296908843
0.07424994197667902
0.07008001352791174
0.061775484866697615
0.049567594250297185
0.034647830244158545
0.019059699104724936
0.005443963794861108
-0.0033322348762807614
