# vtk DataFile Version 2.0
Vessel Segment
ASCII
DATASET POLYDATA
POINTS 119 float
-0.004501286381298964 -0.0052911129300484494 0.0006255812269077217
-0.009542862408210812 -0.011112838340137232 0.001397155874353453
-0.014931430536776027 -0.017185625684837193 0.0022696655173831816
-0.02052123216375403 -0.023303388296112688 0.003202907652791741
-0.02621418739221159 -0.02933254009427464 0.004141457295557789
-0.031929631134553674 -0.03516621988815151 0.005006287918020134
-0.03759049028872247 -0.040704638506412996 0.005699232265769701
-0.04311711028737982 -0.04585312501565687 0.0061162772153219285
-0.0484463004187265 -0.05055604062880891 0.006150498324663415
-0.05353594937132966 -0.054809262993101335 0.005667014806879971
-0.058358454045328904 -0.058647723482924706 0.0045255660740515895
-0.0629181510512978 -0.06215475013824281 0.0026109243850613376
-0.06723704621111438 -0.0654446857669435 -0.00015688368786706324
-0.07132938644541494 -0.06864814586239705 -0.0037875295485892053
-0.07520209338733866 -0.07190999786802123 -0.008218834765164013
-0.07883507888832861 -0.07535865943825236 -0.013340848920615538
-0.08216273263216854 -0.07907483392100953 -0.019013224943249793
-0.08507207256029796 -0.08307566186496586 -0.025055784975539938
-0.08744066900973933 -0.08733165796366982 -0.03128455054082512
-0.08915977346396893 -0.09178177921162851 -0.0375386692789975
-0.09015461926122001 -0.09636822032452927 -0.043738404450128804
-0.09037004188690127 -0.10104064556679831 -0.049886198075163146
-0.08977171065986644 -0.10576999809170526 -0.056039204310201145
-0.08834295300019165 -0.11055838309036504 -0.062286644587381104
-0.08607861109768765 -0.1154432800352415 -0.06872597179800118
-0.08298657335547523 -0.12050188296850955 -0.07541065554834071
-0.07913141216030171 -0.12581011388094673 -0.08224213025996353
-0.07467113220800381 -0.13138405067521958 -0.08895491850459658
-0.06983417628355246 -0.1371817042823146 -0.09518439531978966
-0.06490845237305884 -0.14308063494515091 -0.1005140740536548
-0.060203349125271616 -0.1488526166624573 -0.10460684780726455
-0.05593055879792551 -0.15429436617684628 -0.10735336930062316
-0.05219721558059541 -0.1592805188907506 -0.10878124060662837
-0.04905160425342074 -0.16369955694623867 -0.10899377914688525
-0.04648279766212815 -0.16750334019385685 -0.10816866948483805
-0.0444353157743341 -0.17072367614793704 -0.1064536643671745
-0.04286456320203881 -0.17340985703509296 -0.10389608171044759
-0.041766825078376875 -0.17557053904639053 -0.10045609786747939
-0.0411768908976072 -0.1771541433308435 -0.09609198381715156
-0.04112818570383698 -0.17809913290998958 -0.09086977606693909
-0.04160129007672844 -0.17840913781224388 -0.08498077947142864
-0.042525138835153777 -0.17816908575247228 -0.07863802604721444
-0.04380644034492322 -0.17751043110516412 -0.07202229136276557
-0.045340895936690086 -0.17658554742022212 -0.06527328674836017
-0.04702218264305735 -0.17555673099999639 -0.05848560454320286
-0.04875238585186476 -0.17458680165288126 -0.05171479093982776
-0.05044941475721119 -0.17383221792427642 -0.0449941676935015
-0.05205039905820918 -0.17342837242467382 -0.03834399330469881
-0.05351314205018349 -0.1734784942814449 -0.03177312059767932
-0.05481439095224526 -0.17405297030783676 -0.025282513261025215
-0.05594544638328948 -0.1751962190514668 -0.018876436650888374
-0.05690955891060337 -0.17693669345496524 -0.01256966838793637
-0.05771820686533641 -0.17929218694554516 -0.006395197453420209
-0.05838750195083402 -0.18226748566721765 -0.0004014901998165817
-0.05893512271360238 -0.18586004840695722 0.005361446951439221
-0.05937785518218309 -0.190066248315605 0.010847225727916087
-0.0597291723846153 -0.19487877932829487 0.016015532437300757
-0.05999852620395605 -0.20028438959409472 0.02084071289991365
-0.060188851807605456 -0.20626212164979102 0.025313586399679525
-0.0602929213310649 -0.21277257284828996 0.02944054368731805
-0.06029230624825172 -0.21975188271688795 0.033241664210677174
-0.06016358699404841 -0.22711526543749308 0.036748056222764794
-0.05988306428691596 -0.23477109291616857 0.0400034141352529
-0.059429346058609445 -0.2426379973101567 0.04305840935873883
-0.058786040512242434 -0.25065095553772254 0.045962180337807
-0.0579407624946108 -0.2587639099846829 0.04875847460474691
-0.056879363901362875 -0.2669485199430544 0.051484442034254264
-0.055578807781301406 -0.2751866012007962 0.054171334407609725
-0.05400329907809116 -0.2834490373741488 0.05684352719229823
-0.05210924073095844 -0.2916788677730565 0.05951837509213709
-0.04985626030309259 -0.2997877738469903 0.06220963375022265
-0.047216551246087424 -0.30767159280115436 0.06493368506812358
-0.04417845369006965 -0.3152274857739459 0.06771566200191576
-0.040747306489073314 -0.32236514560763957 0.07058910484475787
-0.036948451251193615 -0.3290096377403904 0.07358736754904971
-0.032826090401834186 -0.3351117333287707 0.07673464764265656
-0.02842844889095055 -0.34065171470705835 0.08004424575892102
-0.023795105486054062 -0.34562896029383083 0.08351484354757557
-0.018953107462881095 -0.35005333348166306 0.08712510400381854
-0.01391006267094189 -0.3539502162455583 0.09083581805641554
-0.008645890977349111 -0.3573631305653669 0.09460798909503729
-0.0031181425492821492 -0.3603376448600464 0.09841743492803387
0.0027223583452672786 -0.36290564513432183 0.10225517330305671
0.008910135884742258 -0.36507747746100483 0.10612206369151501
0.015444689640332132 -0.3668425132783565 0.11002551004752864
0.022283044033375526 -0.3681785666994725 0.11397862111105932
0.029349838638046136 -0.369064439426953 0.11799886934122515
0.03656013034447132 -0.36949118095024386 0.12210491028849738
0.04384555909245201 -0.3694671030270857 0.12631247616634733
0.05116994406396023 -0.36902042685774356 0.13063491293818374
0.05852839811416131 -0.36820234917436173 0.13508016032513903
0.06593605848653837 -0.3670839484997608 0.1396513118027751
0.07341074718045215 -0.3657540839861458 0.14434669678718087
0.08096422144280639 -0.3643152357518391 0.14915921360318676
0.08859448690747587 -0.3628767973567486 0.15407768129900648
0.09628552759668217 -0.36154924132902816 0.1590876612896033
0.1040043732020291 -0.3604404632729166 0.16416801878397907
0.11170043892117372 -0.35964849162750434 0.1692942908670372
0.11930563286379976 -0.35925188407399034 0.17443944891208754
0.1267416464332691 -0.35929950471936883 0.1795787000856064
0.13392899496939065 -0.3598048903665177 0.18469318640723692
0.14079585725524574 -0.36075022809248875 0.18977234151560865
0.14728441977347861 -0.36209763549198215 0.19480930136969454
0.15335227546452865 -0.3638034780371154 0.1997966379521399
0.15897355475664696 -0.3658301762256001 0.20472322116343664
0.1641346414982893 -0.368152544045647 0.20957513662418845
0.16883122256998043 -0.3707612013835262 0.21433986902606783
0.17306561801789677 -0.3736630770766343 0.2190080396225347
0.17684259774150174 -0.3768773030737853 0.22357655269671248
0.18017024423476627 -0.3804301705471999 0.22804824720463868
0.18305689139073475 -0.38434679490834556 0.23242730078332546
0.18551258907784013 -0.3886422554730704 0.236721607316441
0.1875530213472249 -0.3933144848536257 0.2409445895474348
0.18920654035920842 -0.39834256399864154 0.24511847729908548
0.1905132474442656 -0.4036791448420418 0.24926836419696943
0.1915196131199207 -0.4092315345155338 0.25340873848271694
0.19227186733695828 -0.4148190018405723 0.257514088173652
0.19282267025517802 -0.42015681494146806 0.26147394726624035
0.19323539650902483 -0.4249588051011095 0.26510787282688364
LINES 1 120
119 0 1 2 3 4 5 6 7 8 9 10 11 12 13 14 15 16 17 18 19 20 21 22 23 24 25 26 27 28 29 30 31 32 33 34 35 36 37 38 39 40 41 42 43 44 45 46 47 48 49 50 51 52 53 54 55 56 57 58 59 60 61 62 63 64 65 66 67 68 69 70 71 72 73 74 75 76 77 78 79 80 81 82 83 84 85 86 87 88 89 90 91 92 93 94 95 96 97 98 99 100 101 102 103 104 105 106 107 108 109 110 111 112 113 114 115 116 117 118
POINT_DATA 119
SCALARS Curvature float
LOOKUP_TABLE default
0.026164910080274897
0.02344289173248197
0.023753591793819945
0.02764366489331124
0.035533350993805925
0.047612348523970026
0.0637407770589431
0.08337367279500554
0.10552638061946484
0.1287942525740068
0.1514335989748549
0.17150262623179488
0.18705220118332536
0.1963479406175138
0.19809857290314015
0.1916618194255096
0.17719892901536347
0.15575275161899133
0.1292316300184802
0.1002916873011088
0.07212212936613706
0.04815050765790283
0.031695924854825114
0.02560643096195938
0.03192115108793098
0.05159726493151337
0.0843366450196749
0.12853719044381973
0.18138067638998276
0.2390537553878015
0.29708336660829104
0.3507540871532189
0.3955645961765932
0.42767475435627056
0.44429462217293825
0.4439721944877894
0.42674717938418916
0.3941526339344568
0.34906303455121235
0.2954044560809561
0.237757953712072
0.1808991627996064
0.12932414111828858
0.08681274693695853
0.05607623224843644
0.03852579553370882
0.03418477996224488
0.041750706038585154
0.05879635773427168
0.08208370235965624
0.10795231527216137
0.13273657604921893
0.1531639913969947
0.16669069467554165
0.1717389057005521
0.1678137413972901
0.1554916365205131
0.13628791425077735
0.11242488429906898
0.08653261138077271
0.06132098201665835
0.0392632576803835
0.022327921598260723
0.01178790400938251
0.008125328140943362
0.011037244754009315
0.019535072400238614
0.03211924080355115
0.047002201318270674
0.06234845849127122
0.07650000213860826
0.08815932986699904
0.09650947121128234
0.10125996294835038
0.10261822500161845
0.10119581691043973
0.09786730186142899
0.09360488166821196
0.08931397942999361
0.08569340767392844
0.08313902435195822
0.0817026243714752
0.08110932052202775
0.08082806137077056
0.08018241611296735
0.07848333928328763
0.07516300044436933
0.06988920540573464
0.0626432899159686
0.05375007519394456
0.04385566405165476
0.03385646950251512
0.024789815908936134
0.01770176917229398
0.013510825515621931
0.012886355734339253
0.016158293593646372
0.023269882893108662
0.03377907990040867
0.04690737166609805
0.06162830781570899
0.07678286810601678
0.09120560721146624
0.10384473313236203
0.11386092936753686
0.12069350856510043
0.12408776583449016
0.12408335264790708
0.1209692028984705
0.11521515023603367
0.10739320099508967
0.09810207300694046
0.08790702131198329
0.07730343952681362
0.0667078463176098
0.05647444930434416
0.04693042315968991
0.038419196340007754
0.03133908329023867
