# vtk DataFile Version 5.1
vtk output
ASCII
DATASET POLYDATA
POINTS 240 float
0 0 0 -0.155934 -0.311774 -0.0439044 -0.311869 -0.623547 -0.0878087 
-0.50273 -0.917424 -0.0924307 -0.693887 -1.21115 -0.0967197 -0.909299 -1.49048 -0.0642851 
-1.12513 -1.76956 -0.0312228 -1.35479 -2.0376 0.0357254 -1.58481 -2.30536 0.10355 
-1.81872 -2.56505 0.201515 -2.05275 -2.82447 0.300528 -2.28166 -3.07799 0.424013 
-2.51035 -3.33125 0.548571 -2.72655 -3.57934 0.68889 -2.94209 -3.82715 0.830047 
-3.14012 -4.06864 0.974592 -3.33706 -4.30972 1.11935 -3.51414 -4.54144 1.25181 
-3.68979 -4.77248 1.38339 -3.84573 -4.9899 1.48525 -4.00005 -5.20621 1.58469 
-4.13667 -5.40478 1.63792 -4.27167 -5.60171 1.68692 -4.39215 -5.77842 1.67715 
-4.51115 -5.95306 1.66139 -4.61945 -6.1078 1.58063 -4.72656 -6.26031 1.49259 
-4.82712 -6.39642 1.34055 -4.92687 -6.53052 1.18067 -5.02425 -6.6544 0.964451 
-5.12131 -6.77692 0.740721 -5.21975 -6.89707 0.473285 -5.31839 -7.01689 0.199546 
-5.42111 -7.14231 -0.102865 -5.52447 -7.26861 -0.40973 -5.63261 -7.40709 -0.730443 
-5.74155 -7.54761 -1.05346 -5.85316 -7.70421 -1.37773 -5.96524 -7.86368 -1.70221 
-6.07474 -8.03986 -2.01873 -6.18375 -8.21922 -2.33374 -6.28227 -8.41274 -2.6353 
-6.37866 -8.60911 -2.93414 -6.45524 -8.8148 -3.21738 -6.52758 -9.02249 -3.49726 
-6.57109 -9.23367 -3.76196 -6.60807 -9.44564 -4.02322 -6.60934 -9.65573 -4.27154 
-6.60206 -9.86538 -4.51675 -6.55572 -10.0695 -4.75238 -6.49952 -10.2722 -4.98559 
-6.40508 -10.468 -5.21315 -6.30047 -10.6619 -5.43921 -6.16236 -10.8501 -5.66363 
-6.0149 -11.0366 -5.8876 -5.84136 -11.2203 -6.11339 -5.66017 -11.4031 -6.33971 
-5.46116 -11.5867 -6.56983 -5.25667 -11.7706 -6.80111 -5.04159 -11.9588 -7.03569 
-4.82309 -12.1483 -7.27133 -4.59891 -12.3442 -7.50653 -4.37283 -12.5422 -7.74157 
-4.14343 -12.7468 -7.96902 -3.91287 -12.9536 -8.1938 -3.67954 -13.1652 -8.40103 
-3.4452 -13.3786 -8.60181 -3.20819 -13.593 -8.77363 -2.97016 -13.8078 -8.93433 
-2.73046 -14.0189 -9.05501 -2.49009 -14.2284 -9.15969 -2.25083 -14.4287 -9.21561 
-2.01203 -14.6252 -9.25122 -1.77893 -14.8073 -9.23329 -1.54831 -14.9831 -9.19215 
-1.32906 -15.1399 -9.09761 -1.11494 -15.2881 -8.97898 -0.917677 -15.4138 -8.81208 
-0.728326 -15.529 -8.62255 -0.559917 -15.6192 -8.39396 -0.401717 -15.6973 -8.14633 
-0.266288 -15.7497 -7.87123 -0.142389 -15.7891 -7.58222 -0.0406682 -15.8037 -7.27763 
0.0493954 -15.8053 -6.96486 0.1199 -15.7854 -6.64672 0.179736 -15.7538 -6.32565 
0.223957 -15.7062 -6.00634 0.259342 -15.6497 -5.68804 0.283574 -15.5848 -5.37508 
0.301261 -15.5151 -5.06526 0.312053 -15.4457 -4.76118 0.318652 -15.3767 -4.4606 
0.321805 -15.3163 -4.1639 0.322786 -15.2613 -3.86964 0.322564 -15.2208 -3.57633 
0.321557 -15.1899 -3.28365 0.320223 -15.1765 -2.98919 0.318669 -15.1748 -2.69353 
0.316341 -15.1903 -2.39436 0.31347 -15.2178 -2.09272 0.308299 -15.2598 -1.7873 
0.301462 -15.3125 -1.47915 0.290156 -15.3764 -1.16853 0.275497 -15.4488 -0.856071 
0.254081 -15.53 -0.543921 0.227422 -15.618 -0.232013 0.192116 -15.7142 0.0756575 
0.149867 -15.817 0.379926 0.0979254 -15.9293 0.675414 0.0379316 -16.0495 0.963609 
-0.0316112 -16.1821 1.23859 -0.10936 -16.3251 1.50222 -0.195122 -16.4833 1.74922 
-0.288005 -16.655 1.98143 -0.386024 -16.844 2.1954 -0.488764 -17.0488 2.39259 
-0.592756 -17.2713 2.57228 -0.69794 -17.5107 2.73533 -0.800072 -17.7664 2.884 
-0.899204 -18.0381 3.01852 -0.991237 -18.3233 3.14365 -1.07605 -18.6222 3.25923 
-1.15055 -18.9305 3.37138 -1.21419 -19.2489 3.47992 -1.26549 -19.5726 3.59075 
-1.30337 -19.9021 3.70407 -1.32815 -20.2331 3.82397 -1.33817 -20.5658 3.95126 
-1.33536 -20.897 4.08709 -1.31762 -21.2266 4.23287 -1.28788 -21.5527 4.38648 
-1.2437 -21.8748 4.54953 -1.18843 -22.1924 4.71741 -1.11932 -22.5046 4.89129 
-1.03965 -22.8121 5.06551 -0.946355 -23.1135 5.24017 -0.842525 -23.41 5.41044 
-0.724645 -23.7002 5.57486 -0.595891 -23.9853 5.73113 -0.452133 -24.2634 5.87617 
-0.297098 -24.536 6.01124 -0.125952 -24.8005 6.13207 0.0566091 -25.0587 6.24344 
0.256054 -25.3073 6.3408 0.466563 -25.5483 6.43125 0.694019 -25.7778 6.5111 
0.931639 -25.9988 6.58784 1.18539 -26.2064 6.65964 1.44793 -26.4051 6.73234 
1.72491 -26.589 6.80653 2.00898 -26.764 6.88493 2.3051 -26.924 6.97051 
2.60641 -27.0758 7.06234 2.91691 -27.2131 7.16521 3.23069 -27.3433 7.275 
3.55051 -27.4603 7.3975 3.8718 -27.5712 7.52656 4.19587 -27.6704 7.6681 
4.51975 -27.7642 7.81529 4.84325 -27.8471 7.97365 5.16511 -27.925 8.1367 
5.48362 -27.9922 8.30938 5.79933 -28.0542 8.48607 6.1091 -28.105 8.67131 
6.41527 -28.1502 8.86026 6.71347 -28.1833 9.0574 7.00774 -28.2108 9.25818 
7.29291 -28.2255 9.46735 7.57429 -28.235 9.6801 7.84657 -28.2321 9.90144 
8.11572 -28.225 10.1261 8.377 -28.2076 10.359 8.63617 -28.1876 10.5946 
8.88983 -28.1608 10.8372 9.14262 -28.1332 11.0815 9.39302 -28.1035 11.3307 
9.64374 -28.0748 11.5807 9.89535 -28.0488 11.8328 10.1483 -28.0251 12.0846 
10.405 -28.0085 12.3358 10.6636 -27.9951 12.5861 10.9277 -27.9915 12.8332 
11.1938 -27.9914 13.079 11.4658 -28.0023 13.3205 11.7392 -28.0165 13.5606 
12.0173 -28.0419 13.7963 12.2958 -28.0701 14.031 12.5759 -28.1086 14.2624 
12.8552 -28.1498 14.4935 13.1318 -28.201 14.7231 13.4063 -28.2548 14.9531 
13.6732 -28.319 15.1843 13.9372 -28.3859 15.4163 14.189 -28.4644 15.6515 
14.4374 -28.546 15.8879 14.6707 -28.6408 16.1291 14.9006 -28.7387 16.3713 
15.1149 -28.851 16.6185 15.3264 -28.9663 16.8664 15.5243 -29.0959 17.1182 
15.7205 -29.228 17.3702 15.9076 -29.373 17.6238 16.094 -29.5197 17.8771 
16.277 -29.6768 18.1287 16.4603 -29.8351 18.3795 16.6455 -30.0009 18.6249 
16.8315 -30.1677 18.8689 17.0225 -30.3403 19.1043 17.2142 -30.5138 19.338 
17.4108 -30.6935 19.5601 17.6076 -30.8744 19.7804 17.8055 -31.064 19.9871 
18.0028 -31.2551 20.192 18.1948 -31.459 20.3822 18.3855 -31.6648 20.5706 
18.5636 -31.8882 20.7433 18.7399 -32.1138 20.9144 18.8977 -32.3609 21.0692 
19.0536 -32.6103 21.2224 19.1877 -32.8837 21.3585 19.3201 -33.159 21.4932 
19.4312 -33.4586 21.6099 19.541 -33.7597 21.7253 19.6329 -34.0827 21.8221 
19.7241 -34.4069 21.9177 19.8032 -34.7491 21.9949 19.882 -35.0919 22.0712 
19.9557 -35.4475 22.1299 20.0296 -35.8034 22.188 20.1059 -36.166 22.2302 
20.1825 -36.5285 22.272 20.2691 -36.8913 22.3006 20.3561 -37.2538 22.329 
20.4602 -37.6099 22.3473 20.5647 -37.9658 22.3654 20.6937 -38.3086 22.3768 
20.823 -38.6512 22.3882 20.9839 -38.9737 22.3963 21.1449 -39.2963 22.4044 

LINES 2 240
OFFSETS vtktypeint64
0 240 
CONNECTIVITY vtktypeint64
0 1 2 3 4 5 6 7 8 
9 10 11 12 13 14 15 16 17 
18 19 20 21 22 23 24 25 26 
27 28 29 30 31 32 33 34 35 
36 37 38 39 40 41 42 43 44 
45 46 47 48 49 50 51 52 53 
54 55 56 57 58 59 60 61 62 
63 64 65 66 67 68 69 70 71 
72 73 74 75 76 77 78 79 80 
81 82 83 84 85 86 87 88 89 
90 91 92 93 94 95 96 97 98 
99 100 101 102 103 104 105 106 107 
108 109 110 111 112 113 114 115 116 
117 118 119 120 121 122 123 124 125 
126 127 128 129 130 131 132 133 134 
135 136 137 138 139 140 141 142 143 
144 145 146 147 148 149 150 151 152 
153 154 155 156 157 158 159 160 161 
162 163 164 165 166 167 168 169 170 
171 172 173 174 175 176 177 178 179 
180 181 182 183 184 185 186 187 188 
189 190 191 192 193 194 195 196 197 
198 199 200 201 202 203 204 205 206 
207 208 209 210 211 212 213 214 215 
216 217 218 219 220 221 222 223 224 
225 226 227 228 229 230 231 232 233 
234 235 236 237 238 239 
CELL_DATA 1
FIELD FieldData 3
Length 1 1 double
80.800503835 
Tortuosity 1 1 double
0.61819189034 
ClusterLabel 1 1 int
2 
POINT_DATA 240
FIELD FieldData 6
Curvature 1 240 double
0 0.11344674047 0.22689348093 0.20867897725 0.18934870032 0.17112345044 0.15291708991 0.13842057146 0.12401999719 
0.11286630331 0.10182554441 0.09161204439 0.081434827658 0.070015227085 0.05852965923 0.05412978781 0.050172772418 0.082943723819 
0.11836173589 0.20221700698 0.29003532653 0.44211462581 0.60008942781 0.74350267421 0.88543279919 0.83299716368 0.75876349896 
0.59321253478 0.41646227915 0.2923949872 0.17535209039 0.10839281892 0.048657147262 0.034546547136 0.027523336764 0.040467712655 
0.05674001959 0.066877612895 0.075921890899 0.082726528168 0.089105633696 0.098741328625 0.1090349204 0.12686267302 0.14630488869 
0.17160581264 0.1982355158 0.22118138842 0.24324467664 0.24903906741 0.25072342093 0.23267711779 0.20938329957 0.17673872139 
0.14147995225 0.10876023511 0.076785674552 0.053661980112 0.033261629095 0.027693791186 0.026905318611 0.034833933023 0.045700891361 
0.06131302179 0.078596746931 0.10253859878 0.12892941678 0.16408761662 0.20261004438 0.25055693725 0.30227361616 0.35760054285 
0.41443173945 0.45787660272 0.49551534552 0.50428663967 0.50003237773 0.47382114389 0.43730910842 0.39661647359 0.35388579656 
0.3162070204 0.28108616874 0.25096114801 0.22346214098 0.19752008086 0.17242726452 0.14593497832 0.1186508868 0.091718197743 
0.064991664785 0.060630078747 0.069868798269 0.091985119203 0.12221609308 0.14451770323 0.16164320095 0.16627227496 0.16245306251 
0.15134889949 0.13514527107 0.11996803734 0.10553456786 0.097288322641 0.093682495614 0.096422744411 0.10408830579 0.11668493246 
0.133241354 0.15355567475 0.17699194255 0.20121195703 0.2261055038 0.24598792811 0.26141602134 0.26645241656 0.26193515392 
0.24824995722 0.22584770844 0.20088115323 0.17339303004 0.15007392227 0.13099449121 0.11930705365 0.11539395408 0.11562556224 
0.12036544901 0.12429564914 0.12731495182 0.12754406327 0.12452640678 0.11972954461 0.112791046 0.10693142379 0.10241530804 
0.10202556125 0.10695248215 0.11546455127 0.12875681803 0.14223517553 0.15597033824 0.16672398009 0.1732183064 0.17603554345 
0.17341375262 0.16883920105 0.16127318621 0.15411492973 0.14760376804 0.14196753253 0.13777006455 0.13334497297 0.12853188661 
0.12307842663 0.11649314351 0.10955090146 0.10195423469 0.09499267393 0.089239363625 0.084473448547 0.081657639042 0.080171267609 
0.081411948633 0.083468957854 0.087266035076 0.09119994139 0.095437090558 0.098546778751 0.099057043031 0.097640924153 0.091601485696 
0.083744536697 0.071343811338 0.05789907573 0.041733586138 0.028036213196 0.021049032396 0.019090777017 0.031408180894 0.04292066761 
0.052045233411 0.059759574106 0.06309735413 0.06522115221 0.063399508973 0.060909928676 0.056144414693 0.05205368732 0.050376619745 
0.050168409924 0.055483105264 0.061836521059 0.072301538655 0.082665892521 0.09261008473 0.10149707808 0.10572278555 0.10849400532 
0.10447761583 0.099216762357 0.087795812217 0.076170464876 0.063469342797 0.052108816204 0.048270519841 0.045673286857 0.050522434146 
0.055456046552 0.060933403148 0.066305907423 0.070951435603 0.076230119002 0.086257466539 0.097027080989 0.11384902565 0.1306539664 
0.14730728905 0.16324447675 0.1721505212 0.18001687595 0.17655061298 0.17235724995 0.15927710836 0.14594497706 0.12911648831 
0.11237793971 0.097078433442 0.082061169799 0.072359475563 0.063017105603 0.061867329146 0.061016135414 0.068749195062 0.076646286283 
0.090885931666 0.10519464952 0.12354410715 0.1411463159 0.070573157952 0 
Torsion 1 240 double
0 0 0 -0.10225633596 -0.20537925104 -0.24124598295 -0.27596303651 -0.30646234369 -0.33685257122 
-0.35871139093 -0.38027346602 -0.42593913908 -0.4726619875 -0.71351524524 -0.96467631233 -1.5341582139 -2.1235351676 -1.5292136543 
-0.84958053982 -0.56844287863 -0.31990939089 -0.22044550739 -0.13465773438 -0.09704755872 -0.064344360572 -0.050366963861 -0.038489657031 
-0.026751182848 -0.015029735311 0.019554623853 0.057187371234 0.39903119086 0.78475160744 0.8871510147 0.9455393914 0.50990167669 
-0.008073719921 -0.16900589326 -0.26630660106 -0.34908343931 -0.42910074235 -0.46305557882 -0.48770486648 -0.44892574713 -0.39655482627 
-0.33239955833 -0.26557155189 -0.21629843667 -0.17123118081 -0.14106268001 -0.11465807524 -0.095791715354 -0.078930207838 -0.059327989779 
-0.038959551569 0.028197945862 0.10908701502 0.49147770007 0.96663811309 0.91822232663 0.70109865366 0.35071851876 -0.044579524665 
-0.16772774171 -0.1950049972 -0.17739523251 -0.14327529948 -0.11095669635 -0.079329301208 -0.056049909851 -0.036109720007 -0.022500019662 
-0.011528023275 -0.0060916224724 -0.0030562028867 -0.0051666262434 -0.0095989543424 -0.018268704811 -0.028926381823 -0.041306177498 -0.054525506021 
-0.063766344372 -0.070992757319 -0.066846671818 -0.056722734567 -0.026190114338 0.015474514789 0.12183715849 0.26480525781 0.80597692889 
1.5807613621 1.6262846429 1.2283383041 0.813142687 0.38707766163 0.15982256408 0.062346169423 -0.013004717842 -0.073397515602 
-0.14527805594 -0.22520001609 -0.30745910842 -0.39141177479 -0.39949872171 -0.35068637903 -0.24412077909 -0.092731755596 0.024917239463 
0.11547196926 0.1702603474 0.19533514108 0.20848108674 0.21137567862 0.21530623063 0.22015763608 0.23341890622 0.25441182615 
0.2911382105 0.34282428234 0.41916808863 0.51975866714 0.62454987278 0.73361290264 0.76086832545 0.70208471325 0.59932859967 
0.44874274773 0.31623764562 0.20407338704 0.1006404842 0.0073677043925 -0.093680026378 -0.20408649442 -0.31087594146 -0.41316117369 
-0.45669482597 -0.42452932716 -0.35736693174 -0.24354200748 -0.13888996838 -0.046896510815 0.037809423966 0.11210461191 0.18559562706 
0.25789713662 0.32601321538 0.38771757037 0.43198946482 0.44859680236 0.44527036113 0.40916392817 0.36797953774 0.318139538 
0.27157130676 0.23078573612 0.19322938323 0.16159326288 0.13075056995 0.10141732427 0.073824172502 0.049667706188 0.029329873349 
0.016825134813 0.0085585592964 0.0093259628471 0.011890897401 0.018439549313 0.02653819668 0.038210444681 0.051631658828 0.069250391726 
0.096051115962 0.14580681854 0.26503839823 0.56532832431 1.0124289463 1.8586711476 2.2029963559 1.1225249386 0.28593268388 
0.17284861131 0.074628386522 0.022537344493 -0.033154315651 -0.10054798467 -0.18160850512 -0.30923755639 -0.43219839434 -0.53846139235 
-0.60049082183 -0.49620203365 -0.38674143524 -0.25680908795 -0.13889390031 -0.071137292036 -0.0086230475258 0.030777138567 0.070955917041 
0.11476812662 0.16677424598 0.25934021871 0.37265509252 0.59517470882 0.79026812099 0.83147005447 0.82035605924 0.4953464918 
0.18451844765 -0.035016040306 -0.24368912311 -0.37705646354 -0.49267737779 -0.47520009573 -0.44885968181 -0.35025065429 -0.25416000064 
-0.18052484732 -0.10899263203 -0.058107444584 -0.00810384083 0.032290500726 0.072761898214 0.11417509042 0.15673716737 0.21524002006 
0.27593081072 0.37162860887 0.46897266315 0.59732120779 0.72052392551 0.72640178911 0.72775517815 0.59902992345 0.4709982565 
0.3697853154 0.26801172978 0.1334404393 0 0 0 
FrenetTangent 3 240 double
-0.49613670431 -0.8655072411 -0.068888215558 -0.49613670431 -0.8655072411 -0.068888215558 -0.49613670431 -0.8655072411 -0.068888215558 
-0.53690665435 -0.84032583549 -0.014676077167 -0.57802211244 -0.81493102813 0.039995486125 -0.60163976797 -0.79136607225 0.090179017237 
-0.62495831577 -0.76783239589 0.14028582985 -0.63394772662 -0.74930464455 0.18502166219 -0.64256655634 -0.7309063568 0.22961858987 
-0.64025368321 -0.7187260649 0.26810695082 -0.63756057694 -0.70676205112 0.3063828399 -0.62750899101 -0.70113913998 0.33701031141 
-0.61713466474 -0.69579434737 0.36730232602 -0.60341858418 -0.69659322157 0.38738193051 -0.58952506534 -0.69771830817 0.40691928314 
-0.57662531247 -0.70506047317 0.41248669725 -0.56378766998 -0.71279120557 0.4171809902 -0.55606342369 -0.72716522636 0.40182765145 
-0.54870771045 -0.74201804271 0.38502943835 -0.54909698773 -0.76280846187 0.33704967998 -0.55011994605 -0.7840846849 0.28651870427 
-0.55594292832 -0.80294936779 0.18712340053 -0.56220627977 -0.82159280846 0.08324513091 -0.55706577115 -0.8109606379 -0.073760749858 
-0.55076375827 -0.79734669213 -0.23617777621 -0.51834319249 -0.7368146029 -0.39657617544 -0.4829934432 -0.6710206658 -0.55674818658 
-0.44059967556 -0.59625166987 -0.65865254428 -0.39734201887 -0.52038195917 -0.75341086902 -0.3664074519 -0.46814686328 -0.8010248696 
-0.33711596355 -0.41906304937 -0.84235296029 -0.32107833204 -0.39494555747 -0.86029135499 -0.30695231449 -0.37442897739 -0.87485623584 
-0.30132169616 -0.37203347949 -0.87793855133 -0.29701075149 -0.37245290697 -0.87923716735 -0.29616429358 -0.38490483016 -0.87400759255 
-0.29589525013 -0.3993621693 -0.86768998596 -0.29429881538 -0.42107456366 -0.85758132537 -0.29246581584 -0.44407993815 -0.84679703141 
-0.2847540274 -0.47045647056 -0.8346507202 -0.27592526907 -0.49747352297 -0.82224562571 -0.25706841071 -0.52469965622 -0.81075672314 
-0.23618567356 -0.55196802802 -0.79945290984 -0.20180147192 -0.57661722287 -0.79044023443 -0.16452409931 -0.60070516553 -0.78191851713 
-0.11192605478 -0.61894836529 -0.7752423957 -0.055853218676 -0.63586595326 -0.76898486303 0.013238940851 -0.64333443883 -0.76211316288 
0.085450313283 -0.64853907695 -0.75509431843 0.16208189534 -0.64252395704 -0.74488938588 0.23983016194 -0.63367437194 -0.73387954685 
0.3100919875 -0.61678486286 -0.71998463035 0.37836273831 -0.59775707611 -0.70532240602 0.43148341442 -0.57753644358 -0.6909273742 
0.48036858578 -0.55698232727 -0.67660704136 0.51380176101 -0.54083317316 -0.66512448542 0.54270011129 -0.5259767797 -0.65447475532 
0.56017827188 -0.51768992302 -0.64647158036 0.57414252795 -0.51142446227 -0.63928273007 0.58192606426 -0.5112911155 -0.63234800324 
0.58771803533 -0.51313367211 -0.62549516063 0.59231895801 -0.5196508678 -0.61557263786 0.5965184037 -0.52774378451 -0.60461539144 
0.60354553532 -0.53901619565 -0.58704178566 0.61156878357 -0.55140865597 -0.56713741693 0.62493788937 -0.56547480322 -0.53682544097 
0.6402732876 -0.58015655947 -0.5026853796 0.66124274503 -0.59453775596 -0.45366689247 0.68437410888 -0.60880362139 -0.39893924198 
0.71004800643 -0.61929741779 -0.32451027488 0.73673891745 -0.62828238658 -0.24220078113 0.75824660845 -0.62757336984 -0.1381251414 
0.77759462445 -0.62282519245 -0.024980274167 0.78092147842 -0.60198297433 0.10287383367 0.77729939464 -0.57416020842 0.2371078531 
0.75190580521 -0.52947179633 0.36803741468 0.71668848762 -0.4771732756 0.4974759404 0.66567418614 -0.4152309276 0.60690827881 
0.60724895394 -0.34876431495 0.70695499848 0.54415372549 -0.28120359685 0.78300563702 0.47878187386 -0.21310950233 0.84735818601 
0.41631881426 -0.14851568916 0.89255480523 0.35532856074 -0.08569417033 0.9280522195 0.30023895031 -0.02812831847 0.95067461815 
0.24825095996 0.026674939213 0.96652938038 0.2028555737 0.074747339498 0.9746657026 0.16105615332 0.11914836302 0.97859196662 
0.12579174909 0.15467926952 0.97906214429 0.094224788213 0.18519155717 0.97757690468 0.068813074973 0.20434181932 0.97619643546 
0.047012440346 0.21682635983 0.97487743153 0.030626907145 0.21615779636 0.97576684454 0.017534341028 0.2074907237 0.97799921379 
0.0086499892352 0.18602620531 0.98209787287 0.0024173889346 0.15649754304 0.98737255018 -0.0013403196431 0.11784692187 0.99216931755 
-0.0034824739017 0.073241688624 0.99665411593 -0.0052539140576 0.026001437923 0.99863412745 -0.0067747305947 -0.023020233032 0.99892076194 
-0.0098558563927 -0.068689735158 0.99678979125 -0.014029198673 -0.1120127191 0.99296649692 -0.021023270098 -0.14959751565 0.98800693802 
-0.030061348148 -0.18302420539 0.98222399899 -0.042478181585 -0.21186619446 0.97599151098 -0.057429081562 -0.23726965802 0.96942186124 
-0.075809614821 -0.26119549349 0.96186846262 -0.096851953016 -0.28397451312 0.95355155743 -0.12092059099 -0.30893469277 0.94268857607 
-0.14741943938 -0.33564640999 0.9297810184 -0.17585173659 -0.36744247389 0.91210264773 -0.20589028357 -0.40346245656 0.8904608324 
-0.2356335825 -0.44542198677 0.86179090264 -0.26512315262 -0.49248581564 0.82708118703 -0.29087816463 -0.54338254557 0.7845403305 
-0.31331356942 -0.59768629866 0.73503845982 -0.32863192409 -0.65125491648 0.68037091199 -0.3374071843 -0.70414768411 0.6209542739 
-0.33781232885 -0.75211288614 0.5622733678 -0.33025900277 -0.79539286188 0.50429201014 -0.31563081178 -0.83230287935 0.45281588028 
-0.29404567028 -0.86294910452 0.40773655777 -0.26769860937 -0.88788272245 0.3721468833 -0.23650891854 -0.90700690929 0.34620769837 
-0.20259488123 -0.92142664399 0.32989473617 -0.16581558295 -0.93089859283 0.32370590477 -0.12785632681 -0.9362815188 0.32530976158 
-0.088613607725 -0.9372167357 0.33538987574 -0.049418358838 -0.9346017272 0.35020493995 -0.010276513918 -0.92799271513 0.37034682297 
0.027984460566 -0.91889001189 0.39165899805 0.065220422181 -0.90688555894 0.41433296753 0.10143008242 -0.89400438684 0.43500880881 
0.13640437991 -0.88006790462 0.45327949579 0.17098620125 -0.86679766648 0.46738970254 0.20507927873 -0.85435709075 0.47631893393 
0.23984993389 -0.8432996096 0.47997872194 0.27549362184 -0.8340241926 0.47684903485 0.31271755609 -0.82562405281 0.46829602929 
0.35204848542 -0.8183909493 0.45251193245 0.393105564 -0.810474044 0.43222643602 0.43654472854 -0.80161349222 0.40572900815 
0.48083769918 -0.79025835665 0.3769692554 0.52635039283 -0.77533952995 0.34497760996 0.57126908828 -0.75689908717 0.31396074914 
0.61530916138 -0.73324958727 0.28438575724 0.65747227266 -0.70632517811 0.25876058821 0.69676003818 -0.67438388672 0.23918621169 
0.73334371432 -0.64031846918 0.2250508036 0.76563611819 -0.60288215582 0.21954680194 0.79480814007 -0.56468762592 0.2192068095 
0.81884886714 -0.52524625107 0.22735874334 0.83969550227 -0.48630694035 0.23916046248 0.85509766253 -0.44822342075 0.25718340656 
0.86768352473 -0.41154246399 0.27697454784 0.87529174387 -0.37734045551 0.29989087487 0.88080381968 -0.34492840829 0.3230841569 
0.88247296605 -0.31579795672 0.34678518975 0.88282098265 -0.28823849053 0.3700148436 0.88065563039 -0.2636677282 0.39234772762 
0.87770502313 -0.24004113006 0.41412126639 0.87320353723 -0.21827925622 0.43479009829 0.86811559552 -0.19670476898 0.45518845955 
0.86182466755 -0.17551466454 0.47503200925 0.85487739309 -0.15391306226 0.49494280694 0.84653106424 -0.13143431988 0.51499694902 
0.83736812999 -0.1083694351 0.5352283096 0.82639542162 -0.084005532015 0.5558524247 0.8146158036 -0.059428956547 0.57639827436 
0.80097581054 -0.034362053084 0.59676367868 0.78692197408 -0.0099846377863 0.61653077702 0.77187491348 0.012738005913 0.63486194106 
0.75715942085 0.033803777565 0.65209487735 0.74327284813 0.050727369097 0.66658224431 0.73050713559 0.065306217391 0.67968392212 
0.7206624526 0.073774522701 0.68917441 0.71239145175 0.079739893976 0.69722605111 0.70839889921 0.078900413343 0.70136582757 
0.70595677244 0.075844262898 0.70415242261 0.70791585428 0.066495630407 0.70309772849 0.71100229535 0.05554682885 0.70089150126 
0.71743323541 0.039850859068 0.69526905913 0.72433923588 0.023348759964 0.68888985482 0.73271956173 0.0043448802076 0.68016207821 
0.74093148735 -0.014822913846 0.67125006109 0.74859611222 -0.034523429364 0.6617392623 0.75559021805 -0.054009077339 0.65268099701 
0.76029959234 -0.072762584053 0.64516469775 0.76400585894 -0.091314730142 0.63861456727 0.76412408646 -0.10914662476 0.6355203482 
0.7630300546 -0.12705736259 0.63364147343 0.7573779275 -0.14526455091 0.63633229325 0.7504183867 -0.16387332582 0.64014883255 
0.73828366664 -0.18407171429 0.64842134482 0.7249177793 -0.20485738837 0.65739517508 0.70641310676 -0.22809434153 0.66929624565 
0.68705170306 -0.25177191825 0.68126240029 0.66391289379 -0.27739224434 0.6935155165 0.64061184384 -0.30303701121 0.70523463714 
0.61655367067 -0.32879583511 0.71446177848 0.59316639452 -0.35411944773 0.72281220935 0.57310005862 -0.37728876452 0.72682292336 
0.55433164858 -0.39974867294 0.72991159165 0.54239442725 -0.4184748531 0.72814738774 0.53191696879 -0.4365079047 0.72557096592 
0.52963040198 -0.45065173495 0.71843709918 0.52847307037 -0.46434767042 0.71064767748 0.53409114994 -0.47535623724 0.69892492597 
0.54018465057 -0.48633957721 0.68670505486 0.54933867429 -0.49716051928 0.67128497636 0.55825249598 -0.50841720014 0.65553655668 
0.56550091703 -0.52269500329 0.63751163822 0.57191913042 -0.53775543453 0.61931038896 0.57211078645 -0.55868557638 0.59978665875 
0.57112804364 -0.58052060638 0.58010070032 0.56056943338 -0.60973395511 0.55909195792 0.54879392994 -0.63962146473 0.53782564986 
0.52616779566 -0.67552024234 0.5142627146 0.50260127115 -0.71159422017 0.49035747312 0.46980182446 -0.74938834568 0.46309140681 
0.43661539958 -0.78684656982 0.43551526007 0.39921091243 -0.82064346901 0.40455923667 0.36200239128 -0.85384298654 0.37346178906 
0.32718901021 -0.87974117275 0.3406358232 0.29292913295 -0.90506835012 0.30785999318 0.26634912102 -0.92247277983 0.27577979783 
0.24042105665 -0.93946168129 0.24386843202 0.22492415338 -0.94980213083 0.21465833879 0.2100177822 -0.95987481618 0.18565109688 
0.20623309899 -0.9649046094 0.16046422119 0.20293124757 -0.96975610168 0.1354692939 0.21063796111 -0.97054233267 0.11485078992 
0.21871785517 -0.97119099945 0.094390191076 0.23752668922 -0.9678846952 0.078469364683 0.25661792871 -0.96445084264 0.062664932962 
0.28662884511 -0.95608512221 0.05136109527 0.31683200155 -0.94759666189 0.040135259504 0.35828120038 -0.93192791749 0.033472536475 
0.39938208662 -0.91639084322 0.026865802714 0.39938208662 -0.91639084322 0.026865802714 0.39938208662 -0.91639084322 0.026865802714 

FrenetNormal 3 240 double
-0.63682907723 0.30882226965 0.70645419679 -0.63682907723 0.30882226965 0.70645419679 -0.63682907723 0.30882226965 0.70645419679 
-0.55830610044 0.34360658165 0.74887906859 -0.47911767469 0.37868567595 0.7916634732 -0.38233467466 0.38554197609 0.83301535482 
-0.28525091267 0.3919158353 0.87434274887 -0.17014815945 0.36759039828 0.90600225451 -0.054579397842 0.34247101395 0.93741172856 
0.070947360655 0.28910116534 0.94467759118 0.19682048426 0.23474869189 0.95110367602 0.32264092331 0.15387588801 0.92115237632 
0.44845905164 0.071839911729 0.8896055773 0.57981652248 -0.069132596034 0.77948358403 0.7114681177 -0.21323447715 0.66518945656 
0.69908531977 -0.44018462311 0.22641047142 0.67770037228 -0.67231278561 -0.23264881732 0.40780262103 -0.60661424366 -0.53721323098 
0.11999403708 -0.519450714 -0.83064287888 0.022342576302 -0.41287895979 -0.89892439516 -0.059750574394 -0.30471925992 -0.94878470068 
-0.051418218962 -0.19111737222 -0.97315997822 -0.034789945536 -0.077016201225 -0.99519717981 0.032951632152 0.066832953382 -0.98353950118 
0.10589919453 0.21371199521 -0.96844993659 0.18771969284 0.35218176698 -0.89969321836 0.27053528677 0.48970844304 -0.82491775393 
0.32618056856 0.57528696165 -0.73898058812 0.37849364225 0.65449447983 -0.65167453441 0.41196922025 0.68955709234 -0.59144654814 
0.44293313215 0.71873371743 -0.53482897086 0.51194585194 0.68793557546 -0.5070057384 0.58644638055 0.64848722672 -0.48333553644 
0.38293502599 -0.033877403948 -0.11851317822 0.13623735948 -0.81611252501 0.29930368971 0.051588561644 -0.91824163028 0.38693575949 
-0.0060520914096 -0.90701973292 0.41953702957 0.04986594061 -0.90059007171 0.42510155013 0.12602215413 -0.89501447238 0.4258476401 
0.25147099428 -0.86849462637 0.40378521672 0.38628543348 -0.8379953735 0.3773891758 0.53232117702 -0.76124966945 0.32397723013 
0.68062385073 -0.675161248 0.26510752592 0.78645991415 -0.5580574587 0.20646672646 0.88319598965 -0.43430751915 0.14787497801 
0.93336163849 -0.31545984153 0.11720247479 0.97296492253 -0.19772401713 0.092862171519 0.98585924853 -0.094171740617 0.096647893107 
0.99235455334 0.0059823942122 0.10717214148 0.98262102687 0.094140232232 0.13260634522 0.96878758514 0.17926742685 0.16180727451 
0.94571113979 0.24967099461 0.19341955171 0.9201764488 0.31615870417 0.22567314485 0.89397919344 0.36582179568 0.2524993714 
0.86759670503 0.41078123053 0.27780826965 0.84875247956 0.42963919556 0.30629831327 0.83212057038 0.44083694663 0.3357219539 
0.81600126687 0.34281855033 0.43224993345 0.80003968819 0.2111951856 0.5494254019 0.62535493867 -0.091817633425 0.6497339953 
0.39952605632 -0.45005594328 0.74460770673 0.31352135034 -0.55446065508 0.76975056411 0.27464838921 -0.5733034799 0.77138863923 
0.29638729984 -0.52938132582 0.79085650408 0.33947811983 -0.46334878144 0.81660531759 0.36546233004 -0.39366273316 0.84018379315 
0.38515445388 -0.32263286734 0.86296398348 0.37836435578 -0.25591962727 0.88690111656 0.36141247483 -0.19086276686 0.91128219277 
0.31937023722 -0.12407692969 0.93559939662 0.26729185693 -0.056599501837 0.95989105153 0.19222704112 0.017667757547 0.97497097071 
0.10758454384 0.0947641134 0.98621266666 0.006862213364 0.17563391269 0.97565892981 -0.1008345026 0.25814038624 0.95565175223 
-0.2082270115 0.33569426403 0.90835260609 -0.31548225623 0.41101343398 0.8487387912 -0.40635357326 0.47457024589 0.77038916474 
-0.48953860322 0.53260891452 0.68324989827 -0.55089518596 0.57920481241 0.59086125782 -0.60161040067 0.62022235957 0.49591354756 
-0.63358559742 0.65324817441 0.40422705782 -0.65607217749 0.6822275425 0.31419181896 -0.66773255923 0.70334466008 0.23169521446 
-0.67370224697 0.72032905625 0.15316122547 -0.67980968952 0.72605565873 0.085806717258 -0.68599227104 0.72564164648 0.02455010766 
-0.71084656192 0.70063165355 -0.019342876606 -0.74626510939 0.66170551367 -0.053411704432 -0.83211836027 0.48558101051 -0.042331766395 
-0.94755997048 0.22896680089 -0.0047645523844 -0.80948594264 -0.18582503466 0.065861438601 -0.51724699976 -0.69680596706 0.15659073991 
-0.30642651209 -0.92231815661 0.1772024467 -0.14691080439 -0.96794593286 0.15363046381 -0.064172333925 -0.9896847874 0.11746075004 
-0.031552337753 -0.99582948472 0.073067517496 -0.025932880664 -0.99824463024 0.025854922332 -0.038567309152 -0.99813838863 -0.023263720803 
-0.076748574221 -0.99249109829 -0.069142322488 -0.13281262489 -0.98296507384 -0.11275289516 -0.21995805229 -0.95775755783 -0.14965922202 
-0.32962621645 -0.92118664214 -0.18170739974 -0.44251671916 -0.8635913231 -0.20671779288 -0.5578239758 -0.79022770153 -0.22644984759 
-0.63178356464 -0.73171831101 -0.24849996262 -0.67365242623 -0.68473757742 -0.27234916923 -0.67874734157 -0.66645325016 -0.30547496651 
-0.6543116637 -0.67121300675 -0.34605014721 -0.61181021301 -0.68275712992 -0.39302623491 -0.55430027413 -0.69993749609 -0.44531999917 
-0.4880497394 -0.71016463031 -0.50052254324 -0.41428775511 -0.71441633084 -0.55822481995 -0.33418276172 -0.70860651755 -0.61470995745 