# vtk DataFile Version 5.1
vtk output
ASCII
DATASET POLYDATA
POINTS 240 float
0 0 0 -0.00610979 -0.196945 -0.212918 -0.0122196 -0.393889 -0.425837 
-0.0687407 -0.612976 -0.59213 -0.125689 -0.83225 -0.758029 -0.222634 -1.06948 -0.885905 
-0.320264 -1.30701 -1.01313 -0.447764 -1.55838 -1.11082 -0.576038 -1.8101 -1.20774 
-0.724555 -2.07162 -1.28348 -0.873776 -2.33349 -1.35848 -1.03439 -2.6012 -1.42056 
-1.19551 -2.86917 -1.48207 -1.36024 -3.13917 -1.53877 -1.52516 -3.40928 -1.59522 
-1.68716 -3.67779 -1.65468 -1.84898 -3.9462 -1.71434 -2.0027 -4.20966 -1.7843 
-2.15583 -4.47277 -1.855 -2.29694 -4.72808 -1.94229 -2.43707 -4.98274 -2.03094 
-2.56237 -5.22737 -2.14093 -2.6863 -5.47107 -2.25289 -2.79343 -5.70327 -2.38903 
-2.89885 -5.9343 -2.52763 -2.98608 -6.15317 -2.6911 -3.07128 -6.37068 -2.85737 
-3.13729 -6.57616 -3.04708 -3.20095 -6.78017 -3.23966 -3.24467 -6.97297 -3.45249 
-3.28573 -7.16427 -3.66801 -3.30618 -7.34571 -3.89944 -3.32367 -7.52573 -4.13316 
-3.32001 -7.69759 -4.378 -3.31307 -7.86818 -4.62457 -3.28459 -8.03255 -4.87768 
-3.25253 -8.19588 -5.13187 -3.19879 -8.35508 -5.38866 -3.1412 -8.51353 -5.64592 
-3.06223 -8.67007 -5.90268 -2.97921 -8.82624 -6.15934 -2.87579 -8.98282 -6.41326 
-2.76824 -9.13947 -6.66663 -2.6422 -9.29891 -6.91566 -2.51219 -9.45895 -7.16376 
-2.36682 -9.62403 -7.40627 -2.21797 -9.79025 -7.64752 -2.05824 -9.96348 -7.88192 
-1.89591 -10.1384 -8.11468 -1.72849 -10.3217 -8.33887 -1.55978 -10.5071 -8.56089 
-1.39272 -10.7016 -8.77176 -1.2261 -10.8985 -8.97967 -1.06831 -11.1042 -9.17275 
-0.912983 -11.3123 -9.36168 -0.773473 -11.5281 -9.53099 -0.638604 -11.7462 -9.69454 
-0.525671 -11.9696 -9.83289 -0.419486 -12.1947 -9.96348 -0.339972 -12.4223 -10.0632 
-0.269052 -12.6507 -10.153 -0.227803 -12.8778 -10.2071 -0.196555 -13.1044 -10.2491 
-0.196137 -13.3257 -10.2523 -0.20658 -13.5451 -10.2418 -0.247296 -13.7549 -10.1917 
-0.299148 -13.9611 -10.1272 -0.379232 -14.1535 -10.0251 -0.470149 -14.3405 -9.90864 
-0.586052 -14.5101 -9.75912 -0.711948 -14.6726 -9.59637 -0.8587 -14.8144 -9.40695 
-1.01414 -14.9476 -9.20642 -1.1857 -15.0577 -8.98656 -1.36425 -15.1578 -8.75831 
-1.55376 -15.2329 -8.51804 -1.74822 -15.2968 -8.27234 -1.94821 -15.3346 -8.02106 
-2.1508 -15.3602 -7.76715 -2.35335 -15.3594 -7.51256 -2.55588 -15.3456 -7.25764 
-2.75282 -15.3057 -7.00509 -2.94692 -15.2527 -6.75374 -3.13007 -15.1751 -6.50593 
-3.30747 -15.0846 -6.25997 -3.46902 -14.9722 -6.01709 -3.62192 -14.8479 -5.77589 
-3.75477 -14.7058 -5.53615 -3.87628 -14.5536 -5.29722 -3.9746 -14.3889 -5.05758 
-4.0593 -14.2169 -4.81752 -4.11892 -14.0388 -4.57467 -4.16329 -13.8571 -4.33012 
-4.18213 -13.6765 -4.08139 -4.18489 -13.4967 -3.83003 -4.16312 -13.3255 -3.57424 
-4.12533 -13.1599 -3.31556 -4.06527 -13.0104 -3.05357 -3.99015 -12.8717 -2.78936 
-3.89604 -12.7554 -2.52437 -3.78863 -12.6549 -2.25885 -3.66616 -12.582 -1.99634 
-3.53276 -12.5292 -1.736 -3.38849 -12.5075 -1.4833 -3.23606 -12.5092 -1.23633 
-3.07684 -12.5433 -1.00204 -2.91235 -12.6028 -0.777586 -2.74474 -12.6941 -0.570691 
-2.57461 -12.811 -0.377897 -2.40443 -12.9573 -0.206834 -2.23419 -13.1279 -0.053825 
-2.06629 -13.3237 0.0745187 -1.90041 -13.5413 0.181665 -1.73865 -13.7788 0.262834 
-1.58056 -14.0342 0.320913 -1.42789 -14.3039 0.35352 -1.28021 -14.5867 0.362711 
-1.13885 -14.878 0.348756 -1.00351 -15.1775 0.312795 -0.875068 -15.4802 0.25766 
-0.75342 -15.7861 0.183671 -0.638932 -16.0907 0.0957957 -0.531725 -16.3941 -0.00620038 
-0.431556 -16.6927 -0.115911 -0.338788 -16.9863 -0.233734 -0.252495 -17.273 -0.352726 
-0.173245 -17.552 -0.472988 -0.099419 -17.8231 -0.588064 -0.0316942 -18.0851 -0.697307 
0.032137 -18.3392 -0.7958 0.0914374 -18.584 -0.881786 0.148756 -18.8221 -0.952808 
0.203689 -19.052 -1.00582 0.258766 -19.277 -1.04146 0.314022 -19.4957 -1.05547 
0.371546 -19.7118 -1.05172 0.431995 -19.9244 -1.02507 0.496625 -20.1366 -0.982116 
0.56683 -20.3483 -0.917426 0.642736 -20.5616 -0.839342 0.726512 -20.777 -0.742773 
0.817012 -20.9955 -0.636593 0.917118 -21.2182 -0.516683 1.02444 -21.4443 -0.391082 
1.14245 -21.6757 -0.257064 1.26769 -21.9102 -0.120754 1.40404 -22.1495 0.0190687 
1.5473 -22.3906 0.15874 1.70153 -22.6349 0.298171 1.8621 -22.8793 0.436118 
2.03312 -23.1238 0.571625 2.20984 -23.3662 0.705331 2.39627 -23.6049 0.835968 
2.58775 -23.8392 0.965224 2.78818 -24.0656 1.09204 2.99313 -24.2854 1.21825 
3.20637 -24.4931 1.34338 3.4237 -24.6923 1.46871 3.64881 -24.8756 1.59444 
3.87769 -25.0494 1.72097 4.114 -25.2042 1.84907 4.3538 -25.3489 1.97825 
4.60075 -25.4729 2.10961 4.8509 -25.5868 2.24203 5.10787 -25.6794 2.37669 
5.36768 -25.7626 2.51222 5.63378 -25.8252 2.64968 5.90226 -25.8795 2.78778 
6.17619 -25.9151 2.92737 6.45191 -25.9439 3.06748 6.7319 -25.9567 3.20882 
7.01301 -25.9645 3.35067 7.29692 -25.9598 3.49379 7.58125 -25.9517 3.63754 
7.86671 -25.9347 3.78291 8.15199 -25.9158 3.92909 8.43675 -25.8917 4.07745 
8.72084 -25.8668 4.22678 9.00303 -25.8397 4.37883 9.28426 -25.8128 4.53193 
9.56262 -25.786 4.68812 9.83992 -25.7597 4.84533 10.1139 -25.7351 5.00568 
10.387 -25.7111 5.16692 10.657 -25.6892 5.33104 10.9263 -25.6679 5.49585 
11.1932 -25.6485 5.66299 11.4599 -25.6293 5.83059 11.7253 -25.611 5.99983 
11.9908 -25.5927 6.16931 12.2567 -25.5741 6.3397 12.5231 -25.555 6.51013 
12.7915 -25.5343 6.68074 13.0609 -25.5129 6.85123 13.3338 -25.4886 7.02122 
13.6078 -25.4635 7.19096 13.8868 -25.4349 7.35957 14.167 -25.4056 7.52783 
14.4529 -25.3732 7.69439 14.7399 -25.3404 7.8605 15.0322 -25.3061 8.02442 
15.3254 -25.272 8.18783 15.6226 -25.2391 8.34861 15.92 -25.2073 8.50888 
16.2185 -25.1811 8.6662 16.5165 -25.1568 8.82301 16.8112 -25.1436 8.97674 
17.1045 -25.133 9.13 17.3887 -25.1397 9.28022 17.6706 -25.1498 9.43002 
17.9364 -25.1833 9.57699 18.1991 -25.2208 9.72362 18.4382 -25.2873 9.86773 
18.6735 -25.3579 10.0116 18.8782 -25.4617 10.1531 19.0788 -25.5696 10.2945 
19.2429 -25.7129 10.4338 19.4029 -25.8598 10.5729 19.5224 -26.042 10.7101 
19.638 -26.2272 10.847 19.7116 -26.4454 10.9819 19.7819 -26.6659 11.1165 
19.8111 -26.915 11.2489 19.8377 -27.1657 11.3811 19.8266 -27.439 11.5107 
19.8135 -27.7132 11.6402 19.7679 -28.0035 11.7671 19.721 -28.2943 11.8938 
19.6482 -28.5947 12.0181 19.5746 -28.8952 12.1423 19.4819 -29.1996 12.2644 
19.3888 -29.504 12.3865 19.2835 -29.8078 12.507 19.1781 -30.1115 12.6276 
19.0669 -30.4116 12.7473 18.9557 -30.7117 12.867 18.8438 -31.0067 12.9865 
18.732 -31.3016 13.1061 18.624 -31.5914 13.2259 18.5161 -31.8812 13.3457 

LINES 2 240
OFFSETS vtktypeint64
0 240 
CONNECTIVITY vtktypeint64
0 1 2 3 4 5 6 7 8 
9 10 11 12 13 14 15 16 17 
18 19 20 21 22 23 24 25 26 
27 28 29 30 31 32 33 34 35 
36 37 38 39 40 41 42 43 44 
45 46 47 48 49 50 51 52 53 
54 55 56 57 58 59 60 61 62 
63 64 65 66 67 68 69 70 71 
72 73 74 75 76 77 78 79 80 
81 82 83 84 85 86 87 88 89 
90 91 92 93 94 95 96 97 98 
99 100 101 102 103 104 105 106 107 
108 109 110 111 112 113 114 115 116 
117 118 119 120 121 122 123 124 125 
126 127 128 129 130 131 132 133 134 
135 136 137 138 139 140 141 142 143 
144 145 146 147 148 149 150 151 152 
153 154 155 156 157 158 159 160 161 
162 163 164 165 166 167 168 169 170 
171 172 173 174 175 176 177 178 179 
180 181 182 183 184 185 186 187 188 
189 190 191 192 193 194 195 196 197 
198 199 200 201 202 203 204 205 206 
207 208 209 210 211 212 213 214 215 
216 217 218 219 220 221 222 223 224 
225 226 227 228 229 230 231 232 233 
234 235 236 237 238 239 
CELL_DATA 1
FIELD FieldData 3
Length 1 1 double
72.556811363 
Tortuosity 1 1 double
0.85050482221 
ClusterLabel 1 1 int
3 
POINT_DATA 240
FIELD FieldData 6
Curvature 1 240 double
0 0.22315456743 0.44630913486 0.4082643712 0.3680060539 0.31271487597 0.25716672606 0.20908763126 0.16120170167 
0.12444045405 0.08806615189 0.05933233085 0.030933618631 0.024984143327 0.020226662905 0.042286350427 0.066022110946 0.0900552094 
0.11410973762 0.13734349079 0.16051008965 0.17977941415 0.19869119055 0.20994767373 0.22042445112 0.2215662134 0.22166105811 
0.21452869435 0.20650997484 0.19566995969 0.18445377179 0.17404206874 0.16374639715 0.15599377178 0.14863618272 0.14359545871 
0.13894087888 0.13521894479 0.1316632248 0.12747264495 0.12316144174 0.11731079171 0.11114914232 0.10368968579 0.095952127725 
0.0884837092 0.081076332633 0.076799366997 0.073272395647 0.075745563703 0.079734556449 0.090630149716 0.10336260482 0.12340298999 
0.14548645237 0.17761168299 0.21268395428 0.26320128526 0.31847094228 0.39167515115 0.47065827118 0.55315228726 0.63682975144 
0.68276930291 0.71541481695 0.69008952585 0.64344163976 0.57293761048 0.49327947974 0.42343164908 0.35750793843 0.30886389638 
0.26741971625 0.23917284701 0.21665011263 0.20278049024 0.19281532082 0.18823162947 0.18617258216 0.18733871383 0.19007712025 
0.1943970644 0.19951778714 0.20463573569 0.20975222601 0.21382394153 0.21732577988 0.21928528787 0.22037216157 0.22072395718 
0.22064450697 0.22096278576 0.22152292678 0.22373572907 0.22698993436 0.23278127303 0.24022879599 0.25042436655 0.26247777209 
0.27752217622 0.29466027934 0.31361033955 0.33387341212 0.35432048977 0.37490557123 0.39222750259 0.40701683985 0.41480936666 
0.41698324267 0.41092751507 0.39803488601 0.37892192665 0.35446337094 0.3276563785 0.29876188675 0.27051993346 0.24287789458 
0.21699806799 0.19279378749 0.1701850796 0.14914535144 0.12886658327 0.10936167272 0.08979882613 0.070175046806 0.05501798039 
0.044719443801 0.053767585491 0.084580740242 0.12681048206 0.18232497974 0.24144472639 0.30490412458 0.35609176447 0.39199759214 
0.40287820367 0.38151478671 0.34480556503 0.28763527039 0.23196075691 0.17835042142 0.13414363108 0.10337047668 0.081843508866 
0.073993192035 0.069701950805 0.070862910495 0.072194039584 0.073795220107 0.075488367678 0.077332749951 0.080100240592 0.084441211405 
0.090345460555 0.099012713276 0.10881786944 0.12070918192 0.13267242881 0.14477252651 0.15588894672 0.16506260389 0.17222327746 
0.17525475392 0.17591584962 0.17152429159 0.16525411758 0.15482052436 0.14322770826 0.1289622394 0.11434771688 0.098895465598 
0.083845794109 0.069802572107 0.056548793871 0.045352353934 0.035626610238 0.029899321943 0.025764650157 0.026150954269 0.026862208507 
0.028537481449 0.029740878584 0.02947983356 0.028637802517 0.025907566907 0.022720373557 0.017976139019 0.013145168317 0.0080039490326 
0.0047128525429 0.0083782177612 0.012321474052 0.017364715836 0.02202065601 0.025060032934 0.027643112751 0.028214337137 0.028397383627 
0.026768933269 0.025246477085 0.02424869207 0.024154271271 0.028814398973 0.034535059194 0.046206485214 0.058796623429 0.076899034815 
0.096092830885 0.12231241586 0.14977657939 0.1858698209 0.22311781151 0.26902642038 0.31485424045 0.36002332111 0.40305688155 
0.42704872018 0.44761751873 0.43457828751 0.41922512002 0.37865004723 0.33776071009 0.29303036446 0.2488221324 0.21185822609 
0.17546046929 0.14812110467 0.12117283828 0.10159025536 0.082203220097 0.067274671609 0.052452213221 0.040679845216 0.028988738307 
0.020439727129 0.012046616488 0.012773687314 0.013438185338 0.006719092669 0 
Torsion 1 240 double
0 0 0 -0.011815481277 -0.023731093751 -0.029643174476 -0.035452630727 -0.042863198941 -0.050315175222 
-0.060970904029 -0.071738067705 -0.13086880419 -0.19212075001 -0.25532530133 -0.31863353082 -0.20298928803 -0.076160515716 -0.053759151957 
-0.038884087913 -0.026566957319 -0.01445911219 -0.00098599014786 0.012612386657 0.028868125274 0.045394521114 0.066282569682 0.087659775567 
0.11429655685 0.14157838041 0.17151854475 0.20181315453 0.22782462181 0.25321832815 0.26626280106 0.27738894644 0.27535046525 
0.27111787964 0.26205908638 0.25214017691 0.24773053728 0.24436765893 0.25464626317 0.26768072248 0.30331280988 0.34378724616 
0.41208065076 0.48668351208 0.55174896166 0.61452940634 0.58766629372 0.53815638769 0.43837009114 0.32521241412 0.23280784392 
0.14620521756 0.087071008818 0.035998183507 0.004113688318 -0.021866705295 -0.034334242789 -0.042447637756 -0.04213179099 -0.038974626786 
-0.032900020803 -0.025797679648 -0.017552891866 -0.0088878938295 0.0016694851193 0.012953010232 0.023608697813 0.03401325038 0.03719181792 
0.037359558364 0.027727443858 0.013844789855 -0.0089395733572 -0.035740561457 -0.06699688837 -0.10034337423 -0.13381660485 -0.16735162353 
-0.19904240626 -0.22979939864 -0.25868696024 -0.28659187233 -0.31241541282 -0.33710365971 -0.35873262578 -0.37863068297 -0.39252893608 
-0.40290730413 -0.4057360961 -0.40397392965 -0.39280740692 -0.37571485146 -0.35013910006 -0.31902570687 -0.28486578047 -0.248646226 
-0.21198642934 -0.17501846315 -0.14030034344 -0.10721254728 -0.077293338592 -0.049750570507 -0.02560821069 -0.0041049737063 0.013642969525 
0.028375298076 0.039667451173 0.048101612354 0.053504025601 0.056301030468 0.055958736884 0.052825955786 0.046571927314 0.037448364967 
0.024727704796 0.0085868532534 -0.014199933038 -0.043521888499 -0.093216496109 -0.16362905506 -0.34725668529 -0.64995533876 -1.2889388432 
-2.2937058699 -2.3258856737 -1.2639048519 -0.59612689159 -0.38705771548 -0.25119620125 -0.20345502076 -0.17398657603 -0.16727285885 
-0.1729444578 -0.19457406023 -0.23454431295 -0.29896876604 -0.40002375416 -0.55162888063 -0.72802891732 -0.93985025434 -1.0085963696 
-0.86571038595 -0.67142955988 -0.39841620923 -0.16692714258 -0.0013353092202 0.13727883139 0.23152965506 0.30089324951 0.32783543053 
0.33274531564 0.29871439863 0.25857495016 0.20723652734 0.15954166966 0.1187784725 0.08254617602 0.055262408393 0.031710352502 
0.015813089916 0.0030340025318 -0.0030984482366 -0.0061519453391 -0.0023818153985 0.0050611486502 0.020972035781 0.043063354334 0.0799877083 
0.12993158316 0.21242426025 0.32470538405 0.51461700537 0.71049194358 0.92257964964 1.0290391965 0.8356510658 0.64278227025 
0.45145416908 0.2858026692 0.1998371733 0.11960314282 0.057996374998 -0.021679520146 -0.16292429356 -0.72191904974 -2.7751733596 
-3.9923481368 -2.0658638712 -0.49412426454 -0.32658226603 -0.1922008841 -0.1962290323 -0.21002017575 -0.26685725283 -0.34226133538 
-0.50431144354 -0.68042383086 -0.92614450009 -1.1089823374 -0.96085790149 -0.80320095472 -0.59205603039 -0.39829872872 -0.30886716307 
-0.22608694361 -0.18612476526 -0.14833600568 -0.1256162829 -0.10400723332 -0.090728232784 -0.077981500006 -0.069574796648 -0.061453795009 
-0.055880300372 -0.050611305044 -0.048331939295 -0.046254781505 -0.046381690477 -0.046632664223 -0.048399985194 -0.05035107429 -0.054851946128 
-0.059610190608 -0.068486397359 -0.077688357471 -0.093025339209 -0.10912593353 -0.14263689484 -0.17899844143 -0.29731431512 -0.43040944047 
-1.1349689631 -1.8123926961 -0.90237273479 0 0 0 
FrenetTangent 3 240 double
-0.11134732462 -0.73495539556 -0.66891130939 -0.11134732462 -0.73495539556 -0.66891130939 -0.11134732462 -0.73495539556 -0.66891130939 
-0.19160566377 -0.77173080348 -0.59509636706 -0.27254415833 -0.80881786739 -0.52065587436 -0.32929462311 -0.82355540474 -0.45314014109 
-0.3856316173 -0.8379108989 -0.38574277978 -0.42051266749 -0.84102978725 -0.33476537327 -0.45483882258 -0.84385807372 -0.28421262076 
-0.47397519324 -0.84316376313 -0.25100281232 -0.49258322357 -0.84234692743 -0.21839623672 -0.50098662736 -0.84149645336 -0.20140541355 
-0.50894245982 -0.84064450393 -0.18509949181 -0.5097182297 -0.84068384185 -0.18285398904 -0.51011275733 -0.84077050476 -0.18135505719 
-0.50482202187 -0.84124308227 -0.19306646067 -0.49917595747 -0.84173977944 -0.2056035101 -0.48823397286 -0.8411873841 -0.23070290858 
-0.4769103003 -0.84055937849 -0.25670770158 -0.45997598883 -0.83684015049 -0.29385422669 -0.44258262508 -0.83286800429 -0.33191234807 
-0.41913012834 -0.82374413869 -0.37803343558 -0.39512174784 -0.81414763829 -0.42489424475 -0.36519209886 -0.79834656642 -0.47491499433 
-0.33465935771 -0.78191354745 -0.52525758969 -0.29938717732 -0.76013794417 -0.57316382571 -0.26358347102 -0.73776317256 -0.62079682516 
-0.22489319014 -0.71266055033 -0.66165057694 -0.18584889539 -0.68722338039 -0.70167291156 -0.14553268817 -0.66211974278 -0.73298171109 
-0.10504689263 -0.63706057616 -0.76312870594 -0.064168347287 -0.61458820078 -0.78460970529 -0.023233155344 -0.5924889203 -0.80484080145 
0.01778417664 -0.57405218867 -0.81733745577 0.058814268243 -0.55618439667 -0.82863264339 0.099715007016 -0.54216630647 -0.83323168158 
0.14059418698 -0.52878983323 -0.83671469488 0.18078658233 -0.5190353099 -0.83441335179 0.22085658041 -0.50992628258 -0.8310811333 
0.25914964395 -0.50416598641 -0.82288310073 0.29710508994 -0.49904194917 -0.81376056347 0.3317880718 -0.49714761473 -0.80090272186 
0.3658099498 -0.4959057455 -0.7872902733 0.39502538929 -0.49796565181 -0.7713220538 0.42321087767 -0.50073308145 -0.75484902623 
0.44540045127 -0.50703465315 -0.73740051326 0.46623012668 -0.51413778284 -0.71973075617 0.48041695189 -0.52510619716 -0.70204614215 
0.4930122609 -0.53700066925 -0.68435796865 0.49874024199 -0.55319084331 -0.66681194224 0.5027333192 -0.57046624734 -0.64930182668 
0.499700269 -0.59261139515 -0.63105632358 0.49479856789 -0.61605168758 -0.61261523868 0.48239678565 -0.64499376255 -0.59137022547 
0.46789820653 -0.67547397029 -0.56934131831 0.44466194378 -0.71183117696 -0.5409997446 0.41886136083 -0.74991315505 -0.51080554049 
0.38180769309 -0.79302794036 -0.46894149725 0.34129153771 -0.83769128174 -0.42348673427 0.28600231957 -0.88259650254 -0.35953745458 
0.22595289232 -0.92757966227 -0.28962883061 0.14961614499 -0.9603379345 -0.19693043703 0.067789289774 -0.98897545814 -0.096550098631 
-0.023169223777 -0.98843997018 0.018832517969 -0.11734457151 -0.97762762587 0.13950002803 -0.20473942413 -0.933936648 0.25390994804 
-0.28964030153 -0.87815237963 0.36601822574 -0.35741152545 -0.80527798816 0.45629877261 -0.41860974279 -0.72584575876 0.5382035623 
-0.46411160211 -0.64555562137 0.598317872 -0.50333491822 -0.56492232079 0.6497159897 -0.53238342202 -0.48960980128 0.68596486001 
-0.55719242068 -0.41651427387 0.71590154391 -0.57584677297 -0.34853077427 0.73653680818 -0.59183164007 -0.28276453975 0.75313772177 
-0.60343708456 -0.21997047455 0.76412960108 -0.61306644811 -0.15851751015 0.77259057468 -0.61838827362 -0.09797547318 0.77763119995 
-0.62168927881 -0.037860784884 0.78106721737 -0.61963908068 0.022508650005 0.78245385978 -0.61498017093 0.083002273857 0.78284143188 
-0.60339041368 0.14364384725 0.78217077821 -0.58829136655 0.2043603318 0.78096431402 -0.5648419639 0.26364118741 0.77956400279 
-0.53700327182 0.32216741754 0.77806179759 -0.50032475275 0.37645573942 0.77721243295 -0.45882450986 0.428432475 0.77671916316 
-0.40948163812 0.47290502334 0.77764852417 -0.35570148953 0.51313178155 0.77938279473 -0.29643210015 0.5431894361 0.78304366598 
-0.23394235618 0.56728121649 0.78783480964 -0.16890202292 0.57981135181 0.79459844076 -0.10231065562 0.58531075704 0.8025615575 
-0.0358409584 0.57900119981 0.81206239804 0.030552070001 0.56525037858 0.82253221523 0.094941539126 0.54010817169 0.83359345028 
0.15802312928 0.50752992138 0.84504074975 0.21796314539 0.46419097277 0.85554853883 0.27577928047 0.41357718588 0.86542116595 
0.32971103399 0.35276240312 0.87222838188 0.38092372042 0.28480692326 0.87688980998 0.42742740871 0.20753411731 0.8756851792 
0.4705187795 0.12350962578 0.87022978111 0.50768791761 0.032201174367 0.85573070047 0.54041538119 -0.064570246972 0.83444885792 
0.56577430127 -0.1646813515 0.80152957713 0.58541435177 -0.26738444895 0.75957825473 0.59672965513 -0.36744775403 0.70560594506 
0.60135993427 -0.46539122585 0.64198041835 0.59815255615 -0.55457623256 0.56928340521 0.58843389353 -0.63648497595 0.48905008027 
0.57299200583 -0.70603945264 0.40510190486 0.55263172156 -0.76497698138 0.31796127982 0.52935535755 -0.81160367371 0.23242827624 
0.50348692264 -0.84728740034 0.1483242695 0.4770082601 -0.87326062209 0.069294785711 0.44996858181 -0.89030644419 -0.0050694108522 
0.42368033702 -0.90098048718 -0.072856649153 0.39810656996 -0.90559611725 -0.13439038616 0.37388950037 -0.90682601249 -0.18903604517 
0.35100651662 -0.90472660183 -0.23690842751 0.32969393147 -0.90158278385 -0.27797674618 0.30997836186 -0.89737685671 -0.31212567807 
0.29195721432 -0.89390533548 -0.33940424127 0.27571813137 -0.89120620665 -0.35945707189 0.26137832249 -0.89058660071 -0.37203501389 
0.24910439068 -0.89222893195 -0.3764823753 0.23911747621 -0.89674402129 -0.37207580188 0.23170345624 -0.9044909635 -0.3577085518 
0.22708927825 -0.91474483058 -0.33244235383 0.22573309818 -0.92791584659 -0.29449374377 0.22748639796 -0.94097809517 -0.24434862448 
0.23298259012 -0.95390941998 -0.17952252187 0.24112037051 -0.9620541703 -0.1054584413 0.25254767586 -0.96423828067 -0.019890463662 
0.26535302939 -0.95907914041 0.065978541965 0.279933945 -0.94445850415 0.15223541058 0.2949405331 -0.92552115301 0.22993234397 
0.31051468454 -0.90082818204 0.29621603041 0.32636655687 -0.87659491951 0.35137121383 0.34260168404 -0.85299605464 0.39116906309 
0.35922415483 -0.83210074411 0.42187141831 0.37639997364 -0.81506765408 0.43958021059 0.39399446109 -0.80052693563 0.45125277799 
0.41220822923 -0.78967285015 0.45399676275 0.43078058552 -0.7801669397 0.45329523122 0.44990226836 -0.77272631867 0.44731546199 
0.4693420949 -0.76542840686 0.43988313049 0.48928680168 -0.75835696837 0.43014564583 0.50960832439 -0.75041578608 0.42046936578 
0.53054949995 -0.74104435841 0.41089373333 0.5519632432 -0.73004249877 0.40240994122 0.57418249956 -0.71626149372 0.39578724062 
0.59694541133 -0.70025385275 0.3908023072 0.62066920241 -0.68031076224 0.38871203203 0.64486141389 -0.65768928248 0.38831014986 
0.6699123961 -0.63015742245 0.39100365484 0.69507445582 -0.59978789345 0.39496853508 0.72044783371 -0.56401987228 0.40135212924 
0.74534653559 -0.52568391761 0.40828538237 0.76930775236 -0.48227629424 0.41630421199 0.7921478831 -0.43711879333 0.42409674527 
0.81268835016 -0.38837180003 0.43142508094 0.83164107251 -0.33917247578 0.43798863885 0.84720939169 -0.28900897238 0.44292201257 
0.86109716815 -0.23975283363 0.44698461669 0.87126049859 -0.19250761113 0.44911740708 0.87997843923 -0.14721043368 0.45065812061 
0.88536395336 -0.10640458228 0.45083376808 0.88969145112 -0.068108306722 0.45086978589 0.89147970955 -0.035835013155 0.45057069254 
0.89257948468 -0.0061291750275 0.45055184234 0.89195805157 0.017158024504 0.45123360006 0.89090891774 0.038127282236 0.45245449266 
0.88874516991 0.053055843157 0.45508040346 0.88631384856 0.066050757772 0.45830274911 0.88315506174 0.073788571491 0.463146652 
0.87982678522 0.080070279822 0.46847039962 0.87601737669 0.082218527697 0.47515628712 0.87212019094 0.083408234747 0.48209379967 
0.86796259941 0.081754270686 0.4897777999 0.86381189323 0.079620640539 0.49744512189 0.85968255534 0.075998391506 0.50506068385 
0.8556717041 0.072305997984 0.51241413459 0.85204593448 0.068385634871 0.51891572391 0.84863703048 0.064720976911 0.5249874016 
0.84596707604 0.061927610579 0.52959419525 0.84358184242 0.059594397657 0.53368092426 0.84221503328 0.058907118087 0.53590742203 
0.84115763587 0.058740892776 0.53758912712 0.84126362656 0.060533831482 0.53722241173 0.84164712057 0.062796620372 0.53635506714 
0.84312906523 0.066919232914 0.53350606534 0.84482671843 0.071320040256 0.53024459986 0.84742472035 0.07688200851 0.5252615469 
0.85016582761 0.082434304791 0.51999447639 0.85353789934 0.08794395647 0.51347514668 0.85697932214 0.093123509291 0.5068421857 
0.86074438327 0.096762600772 0.49967894547 0.86452304823 0.099753698262 0.49257503393 0.86836905222 0.099537225491 0.48576479935 
0.87217094629 0.098376398684 0.47918318934 0.87574068288 0.092245287479 0.4738048665 0.87917361052 0.084908201758 0.46881150783 
0.88183888789 0.070804259037 0.46597822583 0.884210131 0.055251513224 0.46364085518 0.88481716863 0.031005948862 0.46427895263 
0.88484853496 0.005048556758 0.4654717535 0.88117401738 -0.031928726426 0.47023545758 0.8764491239 -0.070834813708 0.47551859624 
0.86444162424 -0.12311394274 0.48440314793 0.85070331136 -0.17732445478 0.49358136568 0.82398389934 -0.24602033947 0.50496207877 
0.79484185936 -0.31609163265 0.51616460732 0.74594608373 -0.39737779511 0.52591424645 0.69451245361 -0.47872340892 0.5349118467 
0.62044962093 -0.56059913066 0.53720376687 0.54482447677 -0.6410471176 0.53848359501 0.45386027449 -0.70747734468 0.5298265195 
0.36289013887 -0.77185301856 0.52046267481 0.27185532986 -0.81383406262 0.50339504615 0.18180763617 -0.85417508146 0.48613309278 
0.10382468527 -0.87447134773 0.46649605973 0.026995241574 -0.8938370999 0.44698681032 -0.033829289658 -0.90029196896 0.42925055896 
-0.093719297225 -0.90632733487 0.4117449819 -0.13865692615 -0.90565065038 0.39793019353 -0.18294403466 -0.90482465061 0.38433360935 
-0.21497967533 -0.90118654629 0.37484653722 -0.2465829129 -0.89752070733 0.36552751976 -0.26832735964 -0.89322251836 0.36004014911 
-0.28978712058 -0.88894315937 0.35466969262 -0.30306216467 -0.88520516222 0.35266051846 -0.316159196 -0.88149581882 0.35072237269 
-0.32237306771 -0.87889442013 0.35153065776 -0.32848316099 -0.8763180459 0.35237083984 -0.32852221591 -0.87520560255 0.35507699704 
-0.32856094264 -0.87410250746 0.35776041342 -0.32856094264 -0.87410250746 0.35776041342 -0.32856094264 -0.87410250746 0.35776041342 

FrenetNormal 3 240 double
-0.71906832023 -0.40502347455 0.56470942608 -0.71906832023 -0.40502347455 0.56470942608 -0.71906832023 -0.40502347455 0.56470942608 
-0.69257635287 -0.31882754512 0.63645178424 -0.66585987732 -0.23190114172 0.70880212849 -0.63021952065 -0.16278619015 0.7538292567 
-0.59442661901 -0.093975707843 0.7983893214 -0.55929411092 -0.048800374017 0.82514753028 -0.52417868199 -0.0042362940313 0.85144534634 
-0.49266611684 0.018245325044 0.86901111826 -0.46127886869 0.039958858522 0.8862731669 -0.4273741194 0.038429103226 0.90246410352 
-0.39335895339 0.035879905441 0.91860806155 0.0075318585903 -0.020500906479 0.064958630114 0.42790279337 -0.079740034193 -0.83487452111 
0.42889674827 -0.050624721153 -0.9008048023 0.40367964193 -0.015987255565 -0.91461615411 0.40218631647 0.017455968965 -0.91478103603 
0.40240281304 0.050813122067 -0.91396238858 0.41348811485 0.090503089826 -0.90497494866 0.42546268253 0.13071119697 -0.89531915299 
0.44611505218 0.17505132128 -0.87605413224 0.46756355046 0.21977052973 -0.8559075312 0.49553570937 0.2641776239 -0.82513899733 
0.5241723152 0.30855292866 -0.79328859993 0.55769780425 0.34676818671 -0.75119759365 0.59177157926 0.38429259841 -0.70795810786 
0.6303539017 0.40975238635 -0.65560111591 0.66948915919 0.43373255064 -0.60212593924 0.71253302171 0.44126939294 -0.54009104823 
0.75609803157 0.44661379232 -0.47691486198 0.80002056386 0.43390655179 -0.40532374024 0.8439946619 0.41859570935 -0.33251892588 
0.88123609961 0.3879637812 -0.25332227469 0.91743168717 0.35495187857 -0.1731327168 0.940461941 0.31353969266 -0.091473473934 
0.96129797253 0.27072745954 -0.0095692835707 0.96754042655 0.22611579978 0.068973796185 0.97118204498 0.18118345013 0.14691786613 
0.96228609812 0.13583081276 0.21982516541 0.95100801387 0.090398320736 0.29177547826 0.92815397594 0.040064842856 0.35962410865 
0.9029613615 -0.011258733175 0.42664411631 0.86187366138 -0.076559543912 0.49080430771 0.81737987146 -0.14485547637 0.55435168135 
0.74147870825 -0.23828648161 0.61165927096 0.65845422326 -0.33741822501 0.66755165181 0.5233733788 -0.45286349088 0.69682906063 
0.37582069823 -0.57221720485 0.71972996572 0.20233726912 -0.65865124848 0.69782923335 0.022302914075 -0.73676874382 0.66461019255 
-0.11901448505 -0.76213175324 0.62156050755 -0.25003482144 -0.77346431427 0.57589628952 -0.33546318331 -0.75842910679 0.55359243277 
-0.40814540178 -0.73602226509 0.53781942971 -0.45645233535 -0.70011088502 0.54602052358 -0.4976056527 -0.66023621651 0.56125749373 
-0.52842762012 -0.60431934653 0.59172498459 -0.55607071062 -0.54346641455 0.62687878951 -0.57814068708 -0.45907365658 0.66704644856 
-0.59841488233 -0.36709584358 0.70882968283 -0.60983902622 -0.24713232877 0.7418349331 -0.61828000673 -0.11773543134 0.77188131235 
-0.6102007329 0.029118746517 0.77759322142 -0.59630182402 0.18212264815 0.77473276032 -0.56491578267 0.32604797317 0.74375845294 
-0.52709769258 0.46663405162 0.7024434205 -0.48215715059 0.57951515187 0.64506483083 -0.43448357473 0.68176527213 0.58152231804 
-0.39031298291 0.75717882272 0.51419613008 -0.3475435847 0.82185774544 0.44535647206 -0.30979837537 0.86819997332 0.37924441263 
-0.27414657808 0.90690191167 0.31426885262 -0.23955246704 0.93442361741 0.2548821086 -0.20541711148 0.95709606563 0.19791942935 
-0.16613147433 0.97295011115 0.14888891479 -0.12452192964 0.98572756032 0.10343754773 -0.07284220267 0.99315675634 0.067204465539 
-0.016438192657 0.99807689533 0.035296010828 0.051721282843 0.99595654825 0.012307278899 0.12561154777 0.9904039642 -0.0063330881729 
0.20943078815 0.97381245951 -0.017280820549 0.29827735787 0.95163162791 -0.024333548016 0.39254885679 0.91380763111 -0.024619844413 
0.48967192104 0.8677609449 -0.021349427042 0.58523433932 0.8026821231 -0.012054586406 0.67994549617 0.72722213642 0.00052630328368 
0.7645144526 0.63205369407 0.018201995128 0.8433450588 0.52573441496 0.038760272402 0.90309350909 0.40398534336 0.061639216284 
0.95164709458 0.27318412684 0.08587961791 0.97573884376 0.13561377949 0.10844296011 0.98495515194 -0.0060729312068 0.12998646888 
0.97034723693 -0.1439253267 0.14542775618 0.94072679773 -0.27936157836 0.15702380803 0.89429831005 -0.40167261152 0.15837527884 
0.83689790183 -0.51541579373 0.1530393148 0.77191660897 -0.61230656152 0.13553977407 0.701810211 -0.69780414771 0.10981697021 
0.62991092918 -0.76740388473 0.072242132135 0.55675662867 -0.82587512733 0.026370870117 0.48463498595 -0.86925968312 -0.030547158441 
0.41326164598 -0.90171185718 -0.095470090289 0.34266896815 -0.9191687456 -0.16871156807 0.27266178693 -0.92537916979 -0.24819195531 
0.20350065208 -0.9155254779 -0.33174752037 0.13499615024 -0.89320411382 -0.41846591001 0.068483989267 -0.85502584781 -0.50317572883 
0.0035717383885 -0.80411400905 -0.58627260441 -0.057361550359 -0.74071261455 -0.66130584495 -0.1149892398 -0.66693528146 -0.72964006561 