# vtk DataFile Version 5.1
vtk output
ASCII
DATASET POLYDATA
POINTS 240 float
0 0 0 -0.0703712 -0.309135 -0.253275 -0.140742 -0.61827 -0.506549 
-0.268949 -0.907419 -0.646569 -0.397646 -1.1964 -0.785629 -0.571729 -1.46591 -0.83345 
-0.746588 -1.73509 -0.879711 -0.954634 -1.98534 -0.856536 -1.16354 -2.2351 -0.831565 
-1.39379 -2.46652 -0.758862 -1.62479 -2.69731 -0.6845 -1.86594 -2.91045 -0.583989 
-2.10754 -3.12281 -0.482332 -2.34918 -3.3183 -0.375586 -2.59083 -3.5129 -0.268569 
-2.82431 -3.69155 -0.176015 -3.05729 -3.86921 -0.0843646 -3.2767 -4.03215 -0.0235588 
-3.49513 -4.19403 0.035024 -3.69785 -4.34296 0.0513391 -3.89929 -4.49082 0.064196 
-4.08572 -4.62823 0.0290814 -4.27077 -4.76469 -0.0104342 -4.44337 -4.89393 -0.0984548 
-4.6147 -5.02243 -0.191416 -4.77696 -5.14749 -0.329867 -4.93819 -5.27216 -0.473421 
-5.09397 -5.39743 -0.65615 -5.24908 -5.52278 -0.843683 -5.40203 -5.65258 -1.06094 
-5.5547 -5.78297 -1.28217 -5.7076 -5.92062 -1.52239 -5.86053 -6.0593 -1.76536 
-6.01476 -6.20636 -2.01726 -6.16919 -6.35472 -2.27054 -6.32435 -6.51059 -2.52471 
-6.47963 -6.6677 -2.77902 -6.63308 -6.82943 -3.0291 -6.78619 -6.99198 -3.27842 
-6.93274 -7.15483 -3.52158 -7.07805 -7.31775 -3.76358 -7.21046 -7.47642 -3.99988 
-7.34027 -7.63425 -4.23504 -7.45031 -7.7843 -4.46592 -7.55612 -7.93269 -4.6959 
-7.63588 -8.07132 -4.92287 -7.70974 -8.20773 -5.14917 -7.75272 -8.33393 -5.37307 
-7.7883 -8.4577 -5.59639 -7.79008 -8.57198 -5.81724 -7.78332 -8.68388 -6.03747 
-7.74192 -8.78767 -6.25476 -7.6913 -8.8893 -6.47128 -7.60725 -8.98448 -6.68444 
-7.51386 -9.07786 -6.89667 -7.39017 -9.16667 -7.1056 -7.25759 -9.25415 -7.31357 
-7.09958 -9.33935 -7.51904 -6.93375 -9.42386 -7.72374 -6.74846 -9.50897 -7.92731 
-6.5569 -9.59428 -8.13051 -6.35232 -9.68379 -8.33406 -6.14334 -9.77471 -8.53772 
-5.92719 -9.87374 -8.74237 -5.70852 -9.97563 -8.94737 -5.48706 -10.089 -9.15234 
-5.26457 -10.2066 -9.3573 -5.04209 -10.3379 -9.55942 -4.81961 -10.4745 -9.76046 
-4.59877 -10.6259 -9.95444 -4.37859 -10.7831 -10.1456 -4.16076 -10.9544 -10.324 
-3.94391 -11.1316 -10.4972 -3.72942 -11.3196 -10.6503 -3.51595 -11.5124 -10.7948 
-3.30486 -11.7101 -10.9107 -3.09484 -11.9101 -11.0139 -2.88807 -12.1079 -11.0808 
-2.68281 -12.3047 -11.1308 -2.48294 -12.4929 -11.1395 -2.28569 -12.6768 -11.1281 
-2.09713 -12.848 -11.075 -1.91298 -13.0127 -11.0006 -1.74139 -13.1631 -10.8879 
-1.57642 -13.3059 -10.755 -1.42776 -13.4341 -10.5889 -1.28801 -13.5544 -10.4049 
-1.16774 -13.6609 -10.1942 -1.05851 -13.7595 -9.96834 -0.970934 -13.8459 -9.7228 
-0.896062 -13.9251 -9.46569 -0.843551 -13.994 -9.19546 -0.804638 -14.0567 -8.91725 
-0.787152 -14.1113 -8.63166 -0.783167 -14.161 -8.3414 -0.798208 -14.205 -8.04834 
-0.825667 -14.2453 -7.75343 -0.86852 -14.2823 -7.45902 -0.92178 -14.3171 -7.16496 
-0.985944 -14.3506 -6.87352 -1.05774 -14.3833 -6.58391 -1.13556 -14.4168 -6.29806 
-1.21775 -14.4509 -6.01492 -1.30125 -14.4878 -5.73594 -1.38573 -14.5269 -5.46007 
-1.46757 -14.5706 -5.18832 -1.54737 -14.6179 -4.91978 -1.62169 -14.6718 -4.65514 
-1.69162 -14.7307 -4.39363 -1.75435 -14.7977 -4.13579 -1.8111 -14.8712 -3.881 
-1.85998 -14.9538 -3.62974 -1.9021 -15.0443 -3.3815 -1.93673 -15.1447 -3.13677 
-1.96468 -15.2541 -2.89516 -1.98651 -15.3741 -2.65721 -2.0027 -15.504 -2.42262 
-2.01472 -15.6451 -2.19198 -2.02277 -15.7968 -1.96508 -2.02875 -15.9601 -1.74244 
-2.03269 -16.1349 -1.52397 -2.03652 -16.3212 -1.31 -2.04023 -16.5194 -1.10062 
-2.04534 -16.7286 -0.895871 -2.05194 -16.9495 -0.695992 -2.06086 -17.1802 -0.500739 
-2.07232 -17.4216 -0.310519 -2.08644 -17.6713 -0.124839 -2.10355 -17.9302 0.0557329 
-2.1231 -18.1955 0.231873 -2.14549 -18.4682 0.402854 -2.16966 -18.7455 0.569493 
-2.19594 -19.0283 0.730903 -2.22291 -19.314 0.888043 -2.25072 -19.6035 1.03987 
-2.27782 -19.8946 1.18748 -2.30398 -20.1879 1.32967 -2.32779 -20.4821 1.46774 
-2.34845 -20.7773 1.60032 -2.36505 -21.0729 1.7289 -2.37603 -21.369 1.85196 
-2.38143 -21.6653 1.97119 -2.37886 -21.9621 2.08494 -2.36964 -22.2592 2.19504 
-2.35061 -22.5569 2.29975 -2.32441 -22.8551 2.40101 -2.28725 -23.1542 2.49699 
-2.24282 -23.4537 2.58975 -2.18685 -23.7541 2.67742 -2.12373 -24.0548 2.76212 
-2.04884 -24.3562 2.84194 -1.967 -24.6574 2.91911 -1.8733 -24.9585 2.99173 
-1.77276 -25.2587 3.06203 -1.66013 -25.5573 3.12822 -1.54057 -25.8537 3.19246 
-1.40832 -26.146 3.25314 -1.26887 -26.4344 3.31224 -1.11572 -26.7156 3.36836 
-0.954994 -26.9911 3.42325 -0.779325 -27.2555 3.47574 -0.595804 -27.5125 3.52731 
-0.396177 -27.7543 3.577 -0.188644 -27.9874 3.62603 0.0357428 -28.2016 3.67365 
0.267764 -28.4059 3.72086 0.516707 -28.5884 3.76713 0.772603 -28.7606 3.81322 
1.04453 -28.9092 3.8589 1.32235 -29.0478 3.9047 1.6143 -29.1624 3.95078 
1.91078 -29.268 3.99735 2.21862 -29.3508 4.04517 2.52946 -29.4259 4.09399 
2.84813 -29.4809 4.14543 3.16824 -29.5301 4.19852 3.49225 -29.563 4.25605 
3.81617 -29.592 4.31596 4.13989 -29.6095 4.38262 4.46222 -29.6249 4.45243 
4.78044 -29.634 4.53159 5.09627 -29.6427 4.61459 5.40471 -29.6503 4.70951 
5.71021 -29.6589 4.80866 6.00611 -29.671 4.9216 6.29895 -29.685 5.03879 
6.58131 -29.7062 5.17043 6.86086 -29.7301 5.30588 7.13041 -29.7638 5.45496 
7.39772 -29.8005 5.60705 7.65663 -29.8486 5.77044 7.91399 -29.8999 5.93589 
8.1652 -29.9634 6.10945 8.4155 -30.03 6.28412 8.66201 -30.1093 6.46342 
8.90813 -30.1916 6.64301 9.15253 -30.2866 6.82392 9.39683 -30.3844 7.00454 
9.64067 -30.4946 7.18382 9.88442 -30.6072 7.36251 10.1277 -30.7318 7.53826 
10.3706 -30.8586 7.71337 10.6116 -30.997 7.88507 10.8517 -31.1374 8.05625 
11.087 -31.2892 8.22451 11.3208 -31.4429 8.39244 11.5456 -31.6085 8.55847 
11.7684 -31.776 8.72438 11.9774 -31.956 8.88945 12.1839 -32.138 9.0545 
12.3721 -32.3336 9.21937 12.5573 -32.5311 9.38419 12.7203 -32.7433 9.5487 
12.8802 -32.9573 9.71304 13.0153 -33.1868 9.87608 13.1475 -33.4179 10.0388 
13.2535 -33.6647 10.1984 13.3569 -33.913 10.3575 13.4342 -34.1766 10.5113 
13.5093 -34.4414 10.6644 13.5599 -34.7204 10.8095 13.6087 -35.0004 10.9538 
13.6357 -35.293 11.0877 13.6613 -35.5863 11.2206 13.6685 -35.89 11.3408 
13.6747 -36.1942 11.46 13.6665 -36.5064 11.5645 13.6576 -36.8188 11.6682 
13.6382 -37.1367 11.7558 13.6184 -37.4548 11.8426 13.5919 -37.7758 11.9125 
13.5653 -38.0968 11.9817 13.5357 -38.4182 12.0334 13.506 -38.7396 12.0846 
13.477 -39.0589 12.118 13.4479 -39.3782 12.151 13.423 -39.693 12.1661 
13.3981 -40.0077 12.181 13.3809 -40.3154 12.1779 13.3637 -40.6232 12.1747 

LINES 2 240
OFFSETS vtktypeint64
0 240 
CONNECTIVITY vtktypeint64
0 1 2 3 4 5 6 7 8 
9 10 11 12 13 14 15 16 17 
18 19 20 21 22 23 24 25 26 
27 28 29 30 31 32 33 34 35 
36 37 38 39 40 41 42 43 44 
45 46 47 48 49 50 51 52 53 
54 55 56 57 58 59 60 61 62 
63 64 65 66 67 68 69 70 71 
72 73 74 75 76 77 78 79 80 
81 82 83 84 85 86 87 88 89 
90 91 92 93 94 95 96 97 98 
99 100 101 102 103 104 105 106 107 
108 109 110 111 112 113 114 115 116 
117 118 119 120 121 122 123 124 125 
126 127 128 129 130 131 132 133 134 
135 136 137 138 139 140 141 142 143 
144 145 146 147 148 149 150 151 152 
153 154 155 156 157 158 159 160 161 
162 163 164 165 166 167 168 169 170 
171 172 173 174 175 176 177 178 179 
180 181 182 183 184 185 186 187 188 
189 190 191 192 193 194 195 196 197 
198 199 200 201 202 203 204 205 206 
207 208 209 210 211 212 213 214 215 
216 217 218 219 220 221 222 223 224 
225 226 227 228 229 230 231 232 233 
234 235 236 237 238 239 
CELL_DATA 1
FIELD FieldData 3
Length 1 1 double
73.186067505 
Tortuosity 1 1 double
0.64595755241 
ClusterLabel 1 1 int
2 
POINT_DATA 240
FIELD FieldData 6
Curvature 1 240 double
0 0.20751161508 0.41502323017 0.44313739568 0.46973124382 0.43001766689 0.3891706297 0.32602755494 0.26230785852 
0.2083539984 0.15473981954 0.11441125628 0.074665395464 0.066751083439 0.060526942147 0.1053972706 0.15346100342 0.22551409334 
0.29929614593 0.37679653592 0.45460115352 0.4866113919 0.51442031109 0.47566275075 0.43012527121 0.35659082693 0.27991653615 
0.21398909778 0.14937966962 0.10647315327 0.066460358502 0.047189720734 0.030910740226 0.030142574412 0.031783855541 0.032281668111 
0.032588902588 0.030630095813 0.028267440103 0.03739488414 0.048705447129 0.072711166036 0.099281562906 0.133833393 0.17009553022 
0.21085238476 0.25262865972 0.29118476773 0.3289693774 0.35185203837 0.3709699965 0.36777197796 0.35863885924 0.33128582662 
0.29883905462 0.25893725842 0.21684757468 0.17684698528 0.13748919413 0.10539150985 0.075633193328 0.061557055962 0.0527670464 
0.056985859907 0.065787326996 0.075188770704 0.084810895467 0.093674071655 0.10224602339 0.11132178216 0.12059906375 0.13297945079 
0.14665279843 0.16792811426 0.1925006693 0.2281411835 0.26877577682 0.31831214337 0.37202465046 0.41971948411 0.46448070196 
0.48699416607 0.49824294475 0.48946556764 0.47016162147 0.44181770991 0.40854290814 0.37530233727 0.34208113389 0.31238264881 
0.28475082515 0.25988100471 0.23669078083 0.21504637036 0.19437603411 0.17413978142 0.15418688884 0.13414318219 0.11403808011 
0.094194387106 0.07453368046 0.058922164102 0.046244843604 0.04599356935 0.055061829777 0.069492783635 0.088085827917 0.10618754233 
0.12389470397 0.13914182824 0.15234522917 0.16193089214 0.16840756153 0.17136923094 0.17120645591 0.16939681736 0.16607312686 
0.16231720945 0.1581503222 0.15360149531 0.14867709444 0.14278946127 0.13592226982 0.12820797489 0.11960276077 0.11076426543 
0.10167202559 0.092885567658 0.084443114371 0.076590887784 0.06942547045 0.06299614486 0.05745285563 0.053099275494 0.050227219891 
0.049166486202 0.050439571133 0.053688108124 0.059570581192 0.066345373875 0.074351567626 0.081901058962 0.088798118278 0.094439676108 
0.09822413799 0.10077723192 0.10144397493 0.10137103701 0.10012425762 0.098661228042 0.096842587062 0.095505973518 0.094990997648 
0.095580267261 0.098121226566 0.10211923881 0.10878851479 0.11676152539 0.12721481159 0.13846292189 0.15128080976 0.16408207353 
0.17684923659 0.18856583087 0.19804305484 0.20533985668 0.2078043716 0.20770396282 0.20168997992 0.19374811409 0.18117932921 
0.16756580536 0.15134043406 0.13515087211 0.11905463151 0.10386732253 0.091151171412 0.08052717222 0.075842184957 0.073798149205 
0.079588936271 0.08656183858 0.097203374403 0.10740124471 0.11615720207 0.12352112605 0.12614182514 0.12720774054 0.12271231432 
0.11744121736 0.10925359845 0.10115285863 0.093396015181 0.086162579518 0.081113802421 0.076546273747 0.074100613128 0.071839860907 
0.070442014541 0.069141284921 0.06832128319 0.067832771543 0.069088944553 0.070980728613 0.076438996892 0.082535973579 0.092465200707 
0.10272076367 0.11507711358 0.12737429617 0.13926125199 0.150759179 0.15933939002 0.16737702381 0.17099056635 0.17406358287 
0.17231690902 0.17017424846 0.16414371845 0.15791278982 0.14949751626 0.14105055431 0.13221628993 0.12345647907 0.11572971072 
0.10810683168 0.10214618181 0.096285339932 0.092304215388 0.088404715185 0.08636624996 0.084398053439 0.084450082147 0.084560913958 
0.08694546575 0.089376506189 0.094527132521 0.099217595624 0.049608797812 -1.3877787808e-17 
Torsion 1 240 double
0 0 0 0.0080564672321 0.01618120961 0.02385398749 0.031519039482 0.053094562423 0.075029838923 
0.15018809562 0.22719758642 0.66533522301 1.1193118134 1.5588247437 1.997569692 1.2452645931 0.41851886631 0.24494242189 
0.11844124106 0.08214669084 0.053232683121 0.047194945118 0.043255947456 0.051043382753 0.060025176962 0.086026817158 0.11393722513 
0.1869342381 0.26546074036 0.50958136642 0.77578120898 1.2652393711 1.7868982524 1.2839131289 0.62176000456 0.17530319122 
-0.23520423696 -0.80449845828 -1.402091316 -1.1573697535 -0.75260845119 -0.45862477598 -0.18702041938 -0.076606623899 -0.00073366294881 
0.03452853667 0.060580048151 0.071736037733 0.079323308527 0.081006194987 0.081197447509 0.080348335062 0.079222529805 0.082088093509 
0.086069523804 0.10559446047 0.12968107835 0.20503686239 0.29616777448 0.56813822365 0.89837919033 1.0811122206 1.2141234745 
0.89281923407 0.41147203539 0.15479627966 -0.019241703953 -0.12113401487 -0.19534252114 -0.25642303232 -0.31225234547 -0.35085894915 
-0.3822894239 -0.37047582114 -0.33990575103 -0.28437196369 -0.21757406005 -0.15411431244 -0.092220613339 -0.042674911636 0.00085114133663 
0.034826952487 0.063967198157 0.087751273532 0.10871992606 0.12718729297 0.14429032228 0.15692359546 0.16702792767 0.1709820006 
0.17132792142 0.16934471183 0.16594513915 0.16402615439 0.16304014284 0.16913847084 0.17986129828 0.21398554024 0.2639304568 
0.40731518439 0.61610777968 1.0527634909 1.6545374022 1.6099351482 1.0805507705 0.67586544375 0.36796147005 0.17767974223 
0.081852242163 0.010606242112 -0.040218204078 -0.089111989736 -0.136346614 -0.18299330225 -0.22911738072 -0.26550922844 -0.29295370275 
-0.3061883235 -0.30591193597 -0.29456357003 -0.27232775864 -0.24609512099 -0.21579791425 -0.18584720263 -0.1562609083 -0.12613344305 
-0.095417335776 -0.060281682045 -0.020174038554 0.029350401758 0.08983256928 0.16453301519 0.25634805545 0.35128725718 0.45011692412 
0.51096748637 0.52288343297 0.49260643602 0.40607218101 0.32214931701 0.24183017258 0.17536292545 0.128684103 0.092108192011 
0.070476170879 0.05502895572 0.049056336948 0.047554307593 0.053146909268 0.063230738957 0.080700143602 0.10018671706 0.12311164646 
0.1422140649 0.15456041747 0.15983698826 0.15215229245 0.14086292506 0.1227158898 0.10520939102 0.088967951802 0.074575693374 
0.063976626316 0.055126234837 0.050003283409 0.046594155143 0.046983229561 0.049432518762 0.056631747602 0.066943213565 0.084724048621 
0.10825649124 0.14616795277 0.19516814126 0.27306622421 0.36798853917 0.50919548491 0.63860276843 0.73451423665 0.77795589268 
0.66573710589 0.55248713139 0.43603691918 0.33506684328 0.28440721039 0.24328380661 0.23465422055 0.23249838135 0.25349863666 
0.27880169951 0.32028331873 0.36134798289 0.40076219994 0.43120726381 0.4242158622 0.40482331652 0.33075299928 0.25076521269 
0.14316256915 0.035149476018 -0.074895342604 -0.17893072333 -0.25133748354 -0.31149980854 -0.30295724701 -0.28763339059 -0.23162176483 
-0.17612119885 -0.12391058018 -0.073770978263 -0.037990425802 -0.0036509869415 0.019880099915 0.042764649516 0.060377433793 0.07779435301 
0.093464808779 0.10913598624 0.12481424936 0.14057501388 0.15723504374 0.17390803875 0.19073949669 0.20742008461 0.22200735106 
0.23642589131 0.24814481247 0.25973702374 0.26894286548 0.27803981167 0.28465393935 0.29113192283 0.29369576039 0.2960922929 
0.29201969654 0.28560537523 0.14220014463 0 0 0 
FrenetTangent 3 240 double
-0.26810796185 -0.80554943307 -0.52840158182 -0.26810796185 -0.80554943307 -0.52840158182 -0.26810796185 -0.80554943307 -0.52840158182 
-0.36218610841 -0.82420943376 -0.40576488615 -0.4570615274 -0.84302757006 -0.28208889645 -0.52504386677 -0.82388300875 -0.15907364479 
-0.59256649538 -0.80408951244 -0.036069687789 -0.62981587625 -0.76747832611 0.056190162642 -0.66628232831 -0.73043219953 0.14765490687 
-0.68503983784 -0.69594023405 0.20435998412 -0.70318138415 -0.66153710897 0.25985602948 -0.71460928454 -0.63698590043 0.28672662327 
-0.72574272678 -0.6128667935 0.3123417148 -0.73626026513 -0.59960014406 0.31325369405 -0.74674510062 -0.5869097313 0.31285400362 
-0.75905471208 -0.5837049261 0.28668342215 -0.77147837204 -0.58109297137 0.25890215999 -0.78390880494 -0.5842852597 0.20066127283 
-0.79633972598 -0.58789587185 0.14022509738 -0.80049999403 -0.58977588355 0.047686301002 -0.80398357228 -0.59151430066 -0.047479073449 
-0.78819654295 -0.58257692527 -0.16054942765 -0.77064156798 -0.57266011937 -0.27526244055 -0.73443831861 -0.55160331825 -0.37923314359 
-0.69633570797 -0.52941188799 -0.48210972249 -0.65392264484 -0.50569957778 -0.5561071846 -0.61102616649 -0.48181670159 -0.62686586727 
-0.57604933266 -0.46496023912 -0.67007031624 -0.542043776 -0.44896550664 -0.7098954724 -0.51909941837 -0.44211851086 -0.73091522697 
-0.49762988729 -0.43649121331 -0.74942759466 -0.48517233069 -0.4381739623 -0.75660430891 -0.47401457811 -0.44091104493 -0.76214607315 
-0.46854140849 -0.44803341528 -0.76134800413 -0.46395128087 -0.45583699536 -0.75956510665 -0.461568258 -0.46509420095 -0.75533292183 
-0.45955308592 -0.47459367745 -0.75069252245 -0.45608114912 -0.48307150625 -0.74735599294 -0.45234959088 -0.49136725923 -0.74425183627 
-0.44334017072 -0.49709863669 -0.74579572642 -0.43332795678 -0.5023427828 -0.74822274546 -0.41425214934 -0.50454530276 -0.75716310485 
-0.3933453129 -0.50613335279 -0.76741929059 -0.35979340539 -0.50469668454 -0.78373461095 -0.32353183979 -0.50261186238 -0.8013483173 
-0.27190660286 -0.49729911732 -0.82178976625 -0.21679682192 -0.49125426603 -0.84287255888 -0.14635322453 -0.48138256776 -0.86088555057 
-0.072235900269 -0.47059402073 -0.87816306912 0.012069512197 -0.45560926366 -0.88583723243 0.098948757475 -0.43956441141 -0.89108528495 
0.18610359412 -0.42035820927 -0.88365253361 0.27333172634 -0.40031122258 -0.87284722805 0.35095391309 -0.37979320629 -0.85221548284 
0.42589056668 -0.35914350431 -0.82883656096 0.4861105931 -0.34117833499 -0.80205398773 0.54201160937 -0.32400101764 -0.77427251683 
0.58323444788 -0.31190928589 -0.74871555843 0.61994092401 -0.3013823497 -0.72384306541 0.6444953232 -0.29735775167 -0.70390221396 
0.66513405315 -0.29542835149 -0.68555044702 0.67668326798 -0.30051619635 -0.6719629361 0.68516860131 -0.30796940471 -0.65998135418 
0.6877022439 -0.32187514807 -0.65049730818 0.68813926816 -0.33805394353 -0.64189307597 0.68546751409 -0.3592947055 -0.63281083485 
0.68165230133 -0.38239734019 -0.62355277437 0.67689151505 -0.40901178272 -0.6112341492 0.67176789241 -0.43697377943 -0.5977411213 
0.66743066319 -0.46691510605 -0.578996446 0.66340799135 -0.49764816465 -0.55815111175 0.66205150052 -0.52853287256 -0.52965781656 
0.66180591844 -0.55948076767 -0.49797787098 0.66595788328 -0.58834977459 -0.45560407925 0.67201721787 -0.61631709505 -0.40859199281 
0.68238414016 -0.63960078198 -0.34716246991 0.69469473008 -0.66077112207 -0.27922751836 0.70747413669 -0.67362687013 -0.19380071815 
0.720473482 -0.68258194538 -0.10016786548 0.72587296422 -0.67885811775 0.0085334466455 0.72756751319 -0.66895332495 0.12458063276 
0.71402749417 -0.645186404 0.24402239748 0.69277376984 -0.614400684 0.36518293618 0.65583093077 -0.57430807578 0.47602151868 
0.61064124934 -0.52932338529 0.58143445754 0.55525744258 -0.4818332538 0.66980814687 0.49431320384 -0.43297651812 0.74888770009 
0.42921855737 -0.38671931673 0.81119958272 0.3617756539 -0.34193290448 0.86402449383 0.29429357082 -0.30199210929 0.90342428398 
0.22678850237 -0.26489407611 0.93494800316 0.16180574032 -0.23303312698 0.95662023683 0.098356813244 -0.20435689111 0.97230170227 
0.039178235675 -0.18062565268 0.98118659149 -0.017309436726 -0.16001044002 0.98578870666 -0.068266541387 -0.14386238067 0.98619805175 
-0.11561341433 -0.13063037973 0.98387044971 -0.15653714133 -0.12141734356 0.97957365725 -0.19311845982 -0.114921354 0.97394558113 
-0.22277337235 -0.11215814989 0.96811606184 -0.24757980072 -0.11200789561 0.96214553233 -0.26536449174 -0.11554251259 0.9571052215 
-0.2780609673 -0.12174732616 0.95273898217 -0.28410241256 -0.13174259496 0.94962602586 -0.2851525851 -0.1445807052 0.9474530318 
-0.28036640693 -0.16123616222 0.94605138597 -0.27105052374 -0.18085433615 0.94524839847 -0.25704696469 -0.20401915621 0.94419363595 
-0.23927905987 -0.23003204061 0.94293669046 -0.21829341453 -0.25892051278 0.94024878491 -0.19463456937 -0.29019793479 0.93637208175 
-0.16967164247 -0.32334490692 0.93011380643 -0.14358802033 -0.35809852369 0.92180886754 -0.11846328243 -0.393671926 0.91068672738 
-0.094190886061 -0.42997402656 0.89706040832 -0.07276743101 -0.46629859836 0.88073768379 -0.05396316394 -0.50264382918 0.86193600583 
-0.03890420592 -0.53840695262 0.84091760536 -0.027406361425 -0.57361659692 0.81779150152 -0.019641005709 -0.60761911471 0.79313606583 
-0.015545930624 -0.64043462477 0.76697678714 -0.014495902952 -0.67137255271 0.74016737447 -0.016542533665 -0.70040107511 0.71269680859 
-0.020561835952 -0.72708537498 0.68551137809 -0.026655844549 -0.75130419945 0.65862583137 -0.033644974927 -0.77314445486 0.63272928528 
-0.041607746539 -0.79239749483 0.60790849426 -0.04958200036 -0.80960173494 0.58440471802 -0.057569171663 -0.82450107521 0.56238258338 
-0.064885400827 -0.83784691866 0.54167706826 -0.07142089732 -0.84938505671 0.52250361948 -0.07672107176 -0.85986508853 0.50445958653 
-0.080534284469 -0.86907147395 0.4877750356 -0.082596822593 -0.87763695992 0.47195085768 -0.082479275385 -0.8854043447 0.45719808767 
-0.080127341365 -0.89282302094 0.44302451184 -0.074896485875 -0.89979239966 0.42959720544 -0.067032931959 -0.90655143326 0.41646766222 
-0.055659113474 -0.91303000669 0.40373513657 -0.041555255962 -0.91925157817 0.39103276741 -0.023683944593 -0.92511848695 0.3783720142 
-0.0034799218344 -0.93051937908 0.3655555533 0.020056545766 -0.93525453317 0.35251665282 0.045108335824 -0.9392840146 0.33926947817 
0.072401540351 -0.94226968856 0.32571423131 0.1003276382 -0.94440552777 0.31205507614 0.12922327474 -0.94523949248 0.29823674228 
0.15813126171 -0.94520342439 0.28450529607 0.18705884825 -0.94378665207 0.2709117368 0.21573514457 -0.94153554393 0.25761922243 
0.2439982081 -0.9379124169 0.24482175967 0.27212364802 -0.93343719069 0.23253413142 0.30001450226 -0.92750952269 0.22111553926 
0.32821107009 -0.92056274702 0.21035665712 0.35694796893 -0.9118147578 0.20076377407 0.38657410654 -0.90168848618 0.19188677704 
0.41783051522 -0.88903536348 0.18432223772 0.45042476435 -0.87448369235 0.17742807606 0.48556417335 -0.85632014858 0.171809267 
0.52210985015 -0.83567692679 0.16673489808 0.56143290586 -0.81013634092 0.16273579842 0.60171892671 -0.78164443257 0.15912527594 
0.64398026069 -0.7470985294 0.15631183486 0.68625712385 -0.70950444429 0.15374740507 0.72856708871 -0.66541291871 0.15171376251 
0.7696443756 -0.61885845987 0.14985565195 0.80798978159 -0.56684560839 0.14838655828 0.8440303133 -0.51368050286 0.14713793039 
0.87475682928 -0.45785881159 0.14639759862 0.90275638143 -0.40246367523 0.14605166499 0.9242112204 -0.34809227066 0.14665228691 
0.94317991703 -0.2954731957 0.14791119086 0.95593325781 -0.24723494476 0.15081579992 0.96679354601 -0.20153238411 0.15467706558 
0.97272042445 -0.16243798606 0.16103143634 0.97734714229 -0.12615230179 0.16863314816 0.97843904851 -0.097502808138 0.17962606847 
0.97861279252 -0.071659361264 0.19211049392 0.97618014056 -0.05378146654 0.20882886947 0.97295954678 -0.038559818836 0.22713584463 
0.96740139231 -0.031218370627 0.2501556653 0.96101276627 -0.026269714776 0.2745441645 0.95204681464 -0.028746966247 0.30318028675 
0.94220663713 -0.033235139011 0.33256814538 0.92952522551 -0.044258805981 0.3643991473 0.91612038317 -0.056786149579 0.39607886832 
0.90025051768 -0.07443713206 0.42724311368 0.88408344507 -0.092999675092 0.45735509204 0.86685328545 -0.1148228001 0.4837031923 
0.84985176043 -0.13704199646 0.50845627087 0.83370990152 -0.16075042112 0.52721206792 0.81815920087 -0.1845336969 0.54428704765 
0.8049485017 -0.20861325835 0.55470879218 0.79244211039 -0.23259120978 0.56365535839 0.78287543879 -0.25614504981 0.56644465857 
0.77389923726 -0.27949721322 0.56813210685 0.76752647191 -0.30196016602 0.56496138999 0.76146488932 -0.32419600891 0.56116098675 
0.75685549293 -0.34537200552 0.55442204711 0.7522134549 -0.36639171149 0.54752147945 0.74740984077 -0.38663777882 0.53982085309 
0.7422450748 -0.40687985461 0.53232839788 0.73517950965 -0.42710092233 0.52593158034 0.72747297249 -0.4475018896 0.51995849886 
0.71616987017 -0.46891229321 0.51636304743 0.70400760487 -0.49065275422 0.51322826457 0.68669036173 -0.51437355957 0.5128574931 
0.66838121439 -0.53847449175 0.51281523143 0.64368668372 -0.56502249035 0.51488775161 0.61799346248 -0.59186793344 0.51703389139 
0.58537598668 -0.62077565837 0.51969046041 0.55191268106 -0.64978526623 0.52213185821 0.5121056518 -0.6795589961 0.52295947182 
0.47174725228 -0.70920286561 0.52335152442 0.42689306454 -0.73778787372 0.52019207955 0.38185264989 -0.76606511287 0.51650190145 
0.33515171201 -0.79159807885 0.50807935206 0.28860342528 -0.81674794926 0.49915574794 0.24355389538 -0.83813651778 0.48531269734 
0.19888877049 -0.85916309614 0.47107809094 0.15841366009 -0.87624398187 0.45257552623 0.11842284353 -0.89303845654 0.43381138702 
0.084351173722 -0.90633235157 0.41185022626 0.050754727657 -0.91942570666 0.38973670764 0.023752010961 -0.92973657002 0.36550922366 
-0.002845111932 -0.93991647626 0.34120405428 -0.022952733988 -0.94800106846 0.31565591857 -0.042739621417 -0.95600237875 0.29007243004 
-0.056486006719 -0.96243521279 0.26382312994 -0.069987727906 -0.9688147866 0.23755761794 -0.077911107303 -0.97398002722 0.21092247478 
-0.085650781938 -0.97910998722 0.18427644104 -0.088108944667 -0.98322562953 0.15731730302 -0.090431419922 -0.98731633236 0.13034581969 
-0.087507312861 -0.99044270865 0.10289698488 -0.084488979394 -0.99355018016 0.075434093121 -0.075958401157 -0.99555172145 0.047148869854 
-0.067499508452 -0.99753644308 0.019101337538 -0.067499508452 -0.99753644308 0.019101337538 -0.067499508452 -0.99753644308 0.019101337538 

FrenetNormal 3 240 double
-0.65141712503 -0.25250496676 0.71546975546 -0.65141712503 -0.25250496676 0.71546975546 -0.65141712503 -0.25250496676 0.71546975546 
-0.59757539774 -0.11990269206 0.77694805783 -0.54327738462 0.013823330732 0.83894736277 -0.47376547935 0.1361995551 0.85830733036 
-0.40399350756 0.25838176581 0.87693842039 -0.34830743303 0.34903663793 0.86338348991 -0.29298564894 0.43887614784 0.84899616235 
-0.27472817987 0.50877676079 0.81185507251 -0.25775990437 0.5779838469 0.77392254746 -0.33227670597 0.66338028962 0.64701995146 
-0.41080601094 0.74948679185 0.51621515937 -0.4978132375 0.57233308187 -0.070479087813 -0.58527061919 0.38120095356 -0.68137985474 
-0.44958395773 0.1789066995 -0.82931532443 -0.29995079356 -0.024085187409 -0.94831546304 -0.21370035372 -0.047068587327 -0.97212843159 
-0.13201803816 -0.057078402597 -0.98908106355 -0.044701549721 -0.019695480891 -0.99406799813 0.043075916499 0.021565028385 -0.99807592111 
0.14083501889 0.079496793368 -0.97987504567 0.23950986771 0.13895803135 -0.95963666578 0.3300291677 0.19136137876 -0.91749032483 
0.41971780994 0.24304586695 -0.87311261748 0.49066163732 0.27095717835 -0.82337315691 0.55950324247 0.29620233908 -0.77303237823 
0.61887288912 0.28344132936 -0.72876343688 0.67708088049 0.26601918553 -0.68523915483 0.74543202938 0.16535122887 -0.62968655702 
0.81513559927 0.053583830502 -0.57253018379 0.7916257517 -0.26329096315 -0.35618502966 0.75467166121 -0.60974855421 -0.1168799552 
0.51942463897 -0.7566806025 0.125779631 0.25337483121 -0.87261839173 0.36896030641 0.19162766149 -0.88303660792 0.42662799857 
0.16393093143 -0.87586822861 0.4533768602 0.35717463849 -0.82984501947 0.31831570069 0.58979386899 -0.7768971872 0.15441711168 
0.74174672173 -0.53383760273 -0.084430101397 0.8783729627 -0.25465678534 -0.33751755305 0.89595053089 -0.11602243576 -0.41275137586 
0.88947786217 -0.0057813119872 -0.45205517263 0.89650990359 0.042402633019 -0.43886870616 0.90643581147 0.077288611148 -0.41443432613 
0.92348131495 0.099405790231 -0.36570671133 0.94214157208 0.11862695304 -0.31146929071 0.95784095478 0.13753632855 -0.23973951254 
0.97283096133 0.15637100503 -0.16381885703 0.97708234133 0.1767694495 -0.07760314611 0.97862080515 0.19756295115 0.011213420914 
0.96674556183 0.21697072494 0.10038862468 0.95130284321 0.2360099541 0.18965921057 0.92626177 0.2495947806 0.27021169214 
0.89853728584 0.26165472034 0.34832685422 0.86856195906 0.26234014721 0.41481868101 0.8379260589 0.25968740183 0.47789931156 
0.80985546642 0.2299284172 0.53504088501 0.78257419939 0.19182905127 0.59035505628 0.73893940121 0.064683294092 0.64896132073 
0.69003513189 -0.09115518915 0.70862837077 0.50782408499 -0.36929509489 0.67611458072 0.28067816924 -0.68866019923 0.61252859737 
0.096159003338 -0.82748347884 0.51133749306 -0.073343921143 -0.90270679747 0.39689913021 -0.14121146351 -0.91835802041 0.36846156945 
-0.17169587683 -0.91209766792 0.37165648762 -0.17002158781 -0.89427287681 0.4101358275 -0.15600733161 -0.87201056855 0.46215453851 
-0.12386864169 -0.83404306535 0.52983915193 -0.084480178273 -0.78979348418 0.60379012632 -0.030896512847 -0.72130790666 0.68124953461 
0.028601820083 -0.64272399733 0.76017079037 0.083342724201 -0.54436684894 0.82497164147 0.13602016522 -0.4374333559 0.88364797971 
0.15934530476 -0.33139502827 0.92391601904 0.16942611315 -0.22576061674 0.95587787472 0.14606715385 -0.12738546828 0.9760705814 
0.10702040229 -0.032415900029 0.99074195893 0.040648233376 0.055926644959 0.99145090079 -0.03904507651 0.14103851611 0.98535315527 
-0.13223385938 0.21663992463 0.95971458094 -0.23225579312 0.28742590904 0.92418191608 -0.33052285744 0.34426161675 0.87072113939 
-0.42786749038 0.39376448671 0.8078366116 -0.51598932857 0.42661579609 0.7346448311 -0.59908055143 0.45038443605 0.65583091276 
-0.67110967296 0.45873145055 0.57379549309 -0.73687997401 0.4583530717 0.48993738188 -0.79104496101 0.44757599141 0.40730991441 
-0.83840149712 0.43069833961 0.32540442458 -0.87534195833 0.40769953427 0.24738356734 -0.90594831993 0.38097840584 0.17172498666 
-0.92843408584 0.3502644684 0.10156119177 -0.94580276406 0.31703451432 0.034859864645 -0.95771153195 0.27923685283 -0.025549182621 
-0.96605619173 0.23845749343 -0.08185076942 -0.9710849379 0.18649744871 -0.13204254868 -0.97387193966 0.12697863082 -0.17810375383 
-0.96765249109 0.027889975006 -0.2193461724 -0.95512852727 -0.098897567349 -0.25721544038 -0.83448634734 -0.33660252346 -0.27151346754 
-0.63549763398 -0.65468241707 -0.26873088541 -0.31589795711 -0.83891006079 -0.21126426178 0.09415994239 -0.9227485171 -0.11278460702 
0.34370870718 -0.92905732561 -0.056556618014 0.46868321816 -0.87519387014 -0.033120966616 0.54368878214 -0.83759844976 -0.032976859261 
0.57856776745 -0.81306675452 -0.051536567577 0.59747650889 -0.79702541022 -0.080766991793 0.6031176631 -0.78803758824 -0.11886231845 