# vtk DataFile Version 5.1
vtk output
ASCII
DATASET POLYDATA
POINTS 240 float
0 0 0 -0.0573766 -0.263127 -0.399897 -0.114753 -0.526254 -0.799793 
-0.233866 -0.75957 -1.07713 -0.353502 -0.992633 -1.35343 -0.521223 -1.20055 -1.5258 
-0.689765 -1.40804 -1.6964 -0.893157 -1.59492 -1.78159 -1.09745 -1.78126 -1.86456 
-1.32421 -1.95131 -1.88079 -1.55176 -2.12079 -1.89469 -1.79101 -2.27784 -1.86094 
-2.03077 -2.43435 -1.8251 -2.27372 -2.58167 -1.76098 -2.51683 -2.72851 -1.69536 
-2.75682 -2.86882 -1.62054 -2.99661 -3.00873 -1.54515 -3.22916 -3.14428 -1.47846 
-3.46118 -3.27952 -1.41238 -3.68458 -3.41214 -1.37007 -3.90727 -3.54456 -1.32969 
-4.12263 -3.67609 -1.32341 -4.33731 -3.80754 -1.32026 -4.5475 -3.94021 -1.35581 
-4.75724 -4.07301 -1.39531 -4.9656 -4.20947 -1.47437 -5.1738 -4.34635 -1.55787 
-5.3828 -4.48924 -1.67894 -5.5919 -4.63288 -1.80463 -5.80208 -4.78399 -1.96314 
-6.01241 -4.9361 -2.12602 -6.222 -5.09496 -2.31576 -6.43148 -5.25481 -2.50938 
-6.63691 -5.4182 -2.72418 -6.8417 -5.58214 -2.94226 -7.03834 -5.74454 -3.17675 
-7.23362 -5.90669 -3.41397 -7.41626 -6.06139 -3.66378 -7.59664 -6.21475 -3.91583 
-7.75967 -6.35549 -4.17723 -7.9194 -6.49383 -4.44041 -8.05702 -6.61646 -4.70977 
-8.19017 -6.73591 -4.98039 -8.29664 -6.83931 -5.25384 -8.3974 -6.93926 -5.52789 
-8.46745 -7.02576 -5.80122 -8.53052 -7.1092 -6.0744 -8.5597 -7.18425 -6.34344 
-8.58076 -7.25729 -6.61148 -8.56599 -7.32863 -6.87245 -8.54217 -7.39954 -7.13163 
-8.48221 -7.47595 -7.38172 -8.41265 -7.55384 -7.6294 -8.30848 -7.64379 -7.86723 
-8.19464 -7.73711 -8.10231 -8.04974 -7.84718 -8.32827 -7.89572 -7.96216 -8.55157 
-7.71577 -8.09614 -8.76768 -7.52785 -8.23598 -8.98158 -7.32004 -8.39486 -9.19068 
-7.10582 -8.55989 -9.39822 -6.87805 -8.74241 -9.60293 -6.6457 -8.93082 -9.80669 
-6.40608 -9.13421 -10.0084 -6.16388 -9.34287 -10.2094 -5.92043 -9.56355 -10.4076 
-5.67652 -9.78866 -10.6047 -5.43708 -10.0226 -10.7958 -5.19937 -10.26 -10.9845 
-4.97136 -10.5027 -11.1606 -4.74724 -10.7477 -11.3315 -4.53721 -10.994 -11.4803 
-4.33306 -11.241 -11.6198 -4.14608 -11.4848 -11.7267 -3.96656 -11.7272 -11.8194 
-3.80539 -11.9614 -11.8708 -3.6525 -12.1918 -11.9034 -3.51682 -12.4089 -11.8896 
-3.38922 -12.6197 -11.8541 -3.27557 -12.8134 -11.7722 -3.16873 -12.9986 -11.6677 
-3.07147 -13.1642 -11.5205 -2.97908 -13.3199 -11.3518 -2.89177 -13.4554 -11.1468 
-2.80713 -13.5801 -10.9226 -2.72365 -13.6856 -10.6698 -2.6408 -13.7806 -10.4014 
-2.55627 -13.8585 -10.1125 -2.4708 -13.9267 -9.81189 -2.38232 -13.9808 -9.49847 
-2.29208 -14.0266 -9.17752 -2.19935 -14.0615 -8.85054 -2.10509 -14.0898 -8.51989 
-2.01065 -14.1103 -8.18872 -1.9161 -14.1259 -7.8572 -1.82492 -14.1366 -7.52927 
-1.73596 -14.144 -7.20369 -1.65451 -14.1489 -6.88457 -1.57812 -14.1521 -6.56983 
-1.51313 -14.1553 -6.26332 -1.45611 -14.1585 -5.96257 -1.41338 -14.1646 -5.67085 
-1.38102 -14.1728 -5.38566 -1.3645 -14.1874 -5.10961 -1.35985 -14.2067 -4.84041 
-1.37116 -14.2364 -4.57993 -1.39486 -14.274 -4.32622 -1.43321 -14.3257 -4.08034 
-1.48331 -14.3886 -3.84074 -1.54543 -14.4682 -3.60753 -1.61752 -14.5619 -3.37965 
-1.69813 -14.6735 -3.15636 -1.78608 -14.8005 -2.93701 -1.87866 -14.9444 -2.72024 
-1.97535 -15.1033 -2.50575 -2.07293 -15.276 -2.29196 -2.17134 -15.4615 -2.07882 
-2.26752 -15.6568 -1.86505 -2.3616 -15.8614 -1.65067 -2.45122 -16.0719 -1.43515 
-2.53644 -16.2881 -1.21849 -2.61584 -16.5072 -1.00113 -2.68931 -16.7293 -0.783061 
-2.75641 -16.9526 -0.565669 -2.81681 -17.1773 -0.348992 -2.87102 -17.4031 -0.135055 
-2.91849 -17.6302 0.0759032 -2.96052 -17.8592 0.281718 -2.99643 -18.0904 0.481748 
-3.02806 -18.3249 0.674242 -3.05472 -18.5634 0.857968 -3.07842 -18.8066 1.03216 
-3.09854 -19.0556 1.19487 -3.11662 -19.3105 1.34678 -3.13216 -19.5726 1.48522 
-3.14581 -19.8412 1.61244 -3.15701 -20.1179 1.72519 -3.16544 -20.4008 1.82718 
-3.17018 -20.6919 1.91482 -3.17031 -20.9882 1.99295 -3.1641 -21.2919 2.05795 
-3.15096 -21.5995 2.11523 -3.12792 -21.9127 2.16148 -3.09566 -22.2282 2.20206 
-3.04975 -22.5471 2.23425 -2.99281 -22.8667 2.26284 -2.91897 -23.1871 2.2859 
-2.83318 -23.5065 2.30723 -2.72843 -23.8242 2.32579 -2.61189 -24.1392 2.34413 
-2.47593 -24.4497 2.3621 -2.32915 -24.756 2.38093 -2.16392 -25.0551 2.40122 
-1.98922 -25.3485 2.42307 -1.79779 -25.6319 2.44765 -1.59825 -25.9082 2.47416 
-1.38382 -26.1716 2.50421 -1.16246 -26.4271 2.53637 -0.927886 -26.6672 2.57252 
-0.687324 -26.8987 2.6108 -0.434937 -27.113 2.65327 -0.17736 -27.3186 2.69779 
0.090861 -27.5064 2.7465 0.363521 -27.6858 2.79712 0.645643 -27.8476 2.8518 
0.931446 -28.002 2.90823 1.22541 -28.1399 2.96853 1.52228 -28.2716 3.03041 
1.82585 -28.3886 3.09596 2.13156 -28.5005 3.16296 2.44239 -28.6001 3.23343 
2.75461 -28.6958 3.30525 3.07032 -28.7817 3.38043 3.38676 -28.8649 3.4569 
3.70507 -28.9407 3.53675 4.02354 -29.0147 3.61789 4.34244 -29.0838 3.70258 
4.66108 -29.1518 3.78861 4.97896 -29.2167 3.87848 5.29634 -29.2809 3.96976 
5.61222 -29.3433 4.06522 5.92751 -29.4053 4.16209 6.24098 -29.4662 4.26336 
6.55392 -29.5269 4.36595 6.86517 -29.5868 4.47284 7.17606 -29.6466 4.58082 
7.48575 -29.7059 4.69251 7.79528 -29.7652 4.80494 8.10428 -29.8244 4.91999 
8.41332 -29.8839 5.03533 8.72251 -29.9443 5.1518 9.03186 -30.0053 5.26811 
9.34186 -30.0686 5.38378 9.65205 -30.1328 5.49888 9.96303 -30.2013 5.61158 
10.2741 -30.2713 5.72338 10.5855 -30.348 5.83126 10.8968 -30.4267 5.93808 
11.2072 -30.5149 6.03996 11.5171 -30.6057 6.1408 11.824 -30.709 6.23651 
12.1299 -30.8153 6.33139 12.4299 -30.9371 6.42192 12.7282 -31.0622 6.512 
13.0169 -31.2053 6.59948 13.3034 -31.3518 6.68696 13.5764 -31.5181 6.77436 
13.8467 -31.6875 6.8622 14.0998 -31.8774 6.9529 14.35 -32.0701 7.04443 
14.5801 -32.2825 7.14169 14.8072 -32.4974 7.24006 15.0122 -32.7301 7.34668 
15.2145 -32.9646 7.45453 15.3939 -33.2143 7.57244 15.5708 -33.4654 7.69158 
15.7251 -33.7285 7.82165 15.8773 -33.9924 7.95279 16.0078 -34.2653 8.09456 
16.1365 -34.5388 8.23716 16.245 -34.8186 8.3888 16.352 -35.0988 8.54097 
16.4404 -35.3835 8.69946 16.5274 -35.6686 8.85814 16.5972 -35.9573 9.01951 
16.6659 -36.2462 9.18079 16.7186 -36.5386 9.34053 16.7704 -36.8313 9.49996 
16.8073 -37.1277 9.6533 16.8436 -37.4243 9.80616 16.8659 -37.7255 9.94822 
16.8877 -38.0269 10.0897 16.8966 -38.3339 10.2157 16.9052 -38.641 10.3412 
16.9018 -38.9549 10.4464 16.8983 -39.269 10.5512 16.8838 -39.591 10.6312 
16.8693 -39.9131 10.7108 16.845 -40.2444 10.7609 16.8206 -40.5758 10.811 

LINES 2 240
OFFSETS vtktypeint64
0 240 
CONNECTIVITY vtktypeint64
0 1 2 3 4 5 6 7 8 
9 10 11 12 13 14 15 16 17 
18 19 20 21 22 23 24 25 26 
27 28 29 30 31 32 33 34 35 
36 37 38 39 40 41 42 43 44 
45 46 47 48 49 50 51 52 53 
54 55 56 57 58 59 60 61 62 
63 64 65 66 67 68 69 70 71 
72 73 74 75 76 77 78 79 80 
81 82 83 84 85 86 87 88 89 
90 91 92 93 94 95 96 97 98 
99 100 101 102 103 104 105 106 107 
108 109 110 111 112 113 114 115 116 
117 118 119 120 121 122 123 124 125 
126 127 128 129 130 131 132 133 134 
135 136 137 138 139 140 141 142 143 
144 145 146 147 148 149 150 151 152 
153 154 155 156 157 158 159 160 161 
162 163 164 165 166 167 168 169 170 
171 172 173 174 175 176 177 178 179 
180 181 182 183 184 185 186 187 188 
189 190 191 192 193 194 195 196 197 
198 199 200 201 202 203 204 205 206 
207 208 209 210 211 212 213 214 215 
216 217 218 219 220 221 222 223 224 
225 226 227 228 229 230 231 232 233 
234 235 236 237 238 239 
CELL_DATA 1
FIELD FieldData 3
Length 1 1 double
76.080617831 
Tortuosity 1 1 double
0.68189609394 
ClusterLabel 1 1 int
3 
POINT_DATA 240
FIELD FieldData 6
Curvature 1 240 double
0 0.13438374216 0.26876748433 0.3454368356 0.42161708185 0.46834373258 0.51456690305 0.48922957032 0.46204153493 
0.39444145064 0.32543572987 0.25746857986 0.18954698119 0.13133807086 0.073644878504 0.057133602486 0.043196196239 0.097474816301 
0.15666990673 0.21473762066 0.2727130947 0.30627263186 0.3375921748 0.33307961631 0.32491749193 0.29211098188 0.25654061549 
0.2176279156 0.17830530688 0.15013258494 0.12344651458 0.10847287866 0.095188536158 0.090301188572 0.086718228544 0.089652007072 
0.093671908692 0.10244770303 0.11207108221 0.12473070176 0.13796720699 0.15344020605 0.16936502205 0.18753184398 0.20617909575 
0.22750277632 0.24943348198 0.27211620362 0.29497909575 0.31166595431 0.32679255176 0.32666343783 0.32247695386 0.30102359979 
0.2747429487 0.24074852079 0.20449026707 0.17119064609 0.13880137364 0.1137336365 0.091025060735 0.075754506527 0.062991150597 
0.056278433505 0.051697191459 0.051669648943 0.053317030392 0.059868497453 0.068301764807 0.084460669402 0.10370982889 0.13579736164 
0.17323421659 0.23053600933 0.29645391967 0.38163140703 0.47549919134 0.55500801806 0.62778054368 0.64021730542 0.62324038226 
0.5624413873 0.47945400155 0.39838222663 0.31831737534 0.25569048863 0.20257521895 0.16300274856 0.13109265144 0.10688455975 
0.087194977907 0.071473638606 0.058165419771 0.048358539519 0.04075798221 0.04046388884 0.044939292764 0.056680387269 0.073333497943 
0.094370426523 0.11847602764 0.14576312334 0.17535564991 0.20613380758 0.23780118858 0.26491675721 0.28849957594 0.30038476207 
0.30287639473 0.29263558776 0.27181706173 0.24382529704 0.2096690304 0.17637486963 0.1438470252 0.11690725183 0.095104898638 
0.079805067597 0.070687962536 0.06558037112 0.064415468122 0.064135322198 0.064754929229 0.06583041648 0.067385363965 0.070924444814 
0.076621705814 0.085173232825 0.0969358091 0.11014881082 0.12504958033 0.13873279351 0.15095042963 0.15986174344 0.16465575026 
0.16583144007 0.1623450676 0.15695336656 0.14902122742 0.14178647723 0.13551412378 0.13135634027 0.13021937099 0.13058708467 
0.13318047524 0.13570247312 0.13811510346 0.13950033758 0.13925513855 0.13829350781 0.13615374495 0.13415463766 0.13239528419 
0.13131140164 0.13142137465 0.13218811625 0.13415893362 0.13631257192 0.13881401591 0.14076936795 0.14164618841 0.14138334535 
0.13878273097 0.13503333428 0.12883521736 0.12186330832 0.11317650862 0.10412547125 0.094234663691 0.084359760208 0.074523026497 
0.06498969742 0.056214879927 0.048046831956 0.041460062133 0.035693038687 0.032154700704 0.029352950221 0.028642157803 0.028145294735 
0.028283088735 0.028230416652 0.027586642934 0.026576025345 0.024373165178 0.021809976393 0.01801900121 0.014186597104 0.010206004929 
0.0076621106704 0.010520200578 0.014166795339 0.020934555141 0.027832747012 0.035275350992 0.04276122411 0.050437874797 0.058155460967 
0.0660640794 0.074048197528 0.082406039146 0.090866959771 0.099870401488 0.10887372213 0.11787636341 0.1267280646 0.13467412523 
0.14226786397 0.14759353055 0.15244701131 0.15402667045 0.15518165176 0.15315154939 0.15077929766 0.14561721281 0.14026079297 
0.13317155282 0.12601260964 0.11816930945 0.11035824369 0.10289853312 0.095543107923 0.089462281766 0.083552831353 0.080021219396 
0.076698166929 0.076712066323 0.076911312937 0.080601265511 0.084412107008 0.09097921595 0.09759917638 0.10573861707 0.11388526673 
0.12231066371 0.13072081628 0.13823917024 0.14508474499 0.072542372497 0 
Torsion 1 240 double
0 0 0 -0.017638941786 -0.035427366129 -0.039683442184 -0.043708196046 -0.048404502174 -0.053118176034 
-0.053614335393 -0.053963798595 -0.038243078967 -0.021817526758 0.1239444431 0.27657383336 0.59668344173 0.92726056373 0.5171500885 
0.053656723375 0.0068611170588 -0.005841036264 -0.00069513737263 0.0060881975016 0.018624947877 0.031747694276 0.051461396378 0.071914271083 
0.090181618194 0.1081809289 0.092669257094 0.072689454284 0.015163419043 -0.047777938184 -0.097814945332 -0.14584739325 -0.13952605748 
-0.12414575777 -0.075936218867 -0.021875924459 0.034905759765 0.092204508055 0.14715629322 0.20163394443 0.25014589638 0.29737948421 
0.3283514983 0.35563532039 0.36167726069 0.36263000014 0.34912478725 0.33196703903 0.31139559556 0.28991625442 0.27392672013 
0.25947197055 0.25494476581 0.25333107967 0.26483286684 0.28037018425 0.3109501688 0.34637723498 0.37569883929 0.40296242274 
0.36683896951 0.30838599198 0.18010961152 0.026151059855 -0.10140781314 -0.21883657689 -0.26388167101 -0.27997329728 -0.27038495724 
-0.25009663122 -0.23134406962 -0.2132576227 -0.19900010521 -0.1864702754 -0.17971318191 -0.17566428572 -0.17924306924 -0.18654034662 
-0.19938100143 -0.21502842963 -0.23076350956 -0.24654466285 -0.25612784292 -0.26233031034 -0.25276453141 -0.23427724467 -0.18191990976 
-0.10969214659 0.032750684549 0.21789186783 0.52073588133 0.89774880155 1.0074920738 0.94276765921 0.78386142486 0.56128297433 
0.43463499909 0.37513835653 0.34460159482 0.33505025402 0.32907764344 0.32578908054 0.32252265076 0.31927339892 0.31790602697 
0.31804986159 0.32256781141 0.33071964157 0.35089998331 0.38141732719 0.4338216303 0.50568100829 0.59202072154 0.69167300108 
0.72189542771 0.68610258437 0.56354319439 0.35566336687 0.14786870647 -0.059839343308 -0.24361389835 -0.40221701926 -0.50403905113 
-0.54409919665 -0.53127650378 -0.45896061771 -0.37855124979 -0.28872401206 -0.20596351595 -0.13170928287 -0.060190941302 0.0079204410436 
0.079503613281 0.15556005326 0.23442492396 0.31703436893 0.38754763493 0.44136817394 0.46759531961 0.45440333195 0.42473375832 
0.3706910888 0.31842474299 0.26887957392 0.2257883029 0.19293908747 0.16427101806 0.14247861097 0.12224822838 0.10468038753 
0.087789208161 0.072093988625 0.057488472464 0.044880745821 0.033789933398 0.025584957786 0.019049195717 0.015810130398 0.01394262806 
0.014888588245 0.016940571678 0.021350130978 0.027001286648 0.035404088326 0.045953681474 0.061452821622 0.081157609725 0.11095595292 
0.14834911573 0.20472932758 0.26893099863 0.35351586639 0.42668475585 0.46881645433 0.48089397663 0.40765641818 0.33002703569 
0.23936857523 0.15835347928 0.10726606628 0.068839951425 0.071563055571 0.10323313153 0.23353733368 0.54829927438 1.5228523568 
2.1229282655 1.3149700004 0.60569637886 0.28704947136 0.016258064528 -0.054788643827 -0.11867629655 -0.15099902217 -0.18105910512 
-0.2005601889 -0.21808833042 -0.22585040774 -0.23179341122 -0.22816234184 -0.22373978231 -0.21487608359 -0.20565080207 -0.19425602366 
-0.18307709814 -0.17328772556 -0.16376420144 -0.15608389335 -0.14825398066 -0.13930203348 -0.12984312126 -0.11625049397 -0.1016224843 
-0.077762315106 -0.052563192655 -0.014217983702 0.025435014209 0.079342911746 0.13395660605 0.19719670525 0.25985717756 0.31447532679 
0.36691262398 0.38445628857 0.3998355297 0.37445146215 0.34842153622 0.30766603909 0.26711890499 0.23256220828 0.19824982296 
0.17338414443 0.14769004695 0.073533441098 0 0 0 
FrenetTangent 3 240 double
-0.20650284629 -0.57885534382 -0.78884920321 -0.20650284629 -0.57885534382 -0.78884920321 -0.20650284629 -0.57885534382 -0.78884920321 
-0.31058908256 -0.60804565751 -0.71889790043 -0.41555740557 -0.63748334674 -0.64835379001 -0.51789592851 -0.64770249805 -0.53770298132 
-0.62018949761 -0.65759312735 -0.42636658805 -0.68959121064 -0.64267440707 -0.3007849356 -0.75814227222 -0.62711406569 -0.17483487127 
-0.78888829987 -0.60018196245 -0.070000814672 -0.81831936981 -0.57285431967 0.034098772088 -0.82629625768 -0.54881603413 0.10367804243 
-0.83333217266 -0.52492201865 0.1717432638 -0.83381352197 -0.5102312966 0.2074894564 -0.83394684126 -0.496029245 0.24151959438 
-0.83503014552 -0.49166793903 0.24689866671 -0.83617282384 -0.48792167967 0.25048704743 -0.84020874459 -0.49211497264 0.22612680673 
-0.84445318731 -0.4968804856 0.19975225098 -0.84863198858 -0.50527596123 0.14581923851 -0.85280541919 -0.51396843381 0.089631443217 
-0.85019943392 -0.52037730857 0.013115442685 -0.84697148389 -0.52657667894 -0.065265530805 -0.83267570448 -0.52677510931 -0.14821918419 
-0.81725264614 -0.52636233282 -0.2316385735 -0.79356425375 -0.52128873293 -0.3045439954 -0.76894890802 -0.51569242388 -0.37627028078 
-0.74235906309 -0.50941471998 -0.43112493866 -0.7155270626 -0.50305344878 -0.48391043468 -0.69078862523 -0.49814507661 -0.52223542312 
-0.6663293296 -0.49343042432 -0.55863234388 -0.64458306383 -0.48936149373 -0.58640630272 -0.62322810046 -0.48538569609 -0.61293656513 
-0.60351836811 -0.48008477527 -0.63591077195 -0.58406420563 -0.47457801007 -0.65833258179 -0.56460238923 -0.46593131804 -0.68057935414 
-0.54513929719 -0.45676130486 -0.70279695358 -0.52356551398 -0.44347312341 -0.72661621111 -0.50161556799 -0.42945101097 -0.75072091266 
-0.47503347195 -0.41159826444 -0.77664257504 -0.44757126739 -0.39301769743 -0.80290945997 -0.41276287634 -0.37217932044 -0.82985453416 
-0.37647040719 -0.35088482022 -0.85693661628 -0.33030089429 -0.33013562006 -0.88238685639 -0.28201487201 -0.30950326992 -0.90748741606 
-0.22219581267 -0.29311550763 -0.92754585874 -0.15976101297 -0.27769043537 -0.9464607285 -0.086337275209 -0.27016037604 -0.95596535076 
-0.010280771042 -0.26452183023 -0.96321543457 0.072244216919 -0.26894249705 -0.95680073867 0.15640334816 -0.27590443864 -0.94693388789 
0.23819944838 -0.29204448315 -0.92222964897 0.3193670829 -0.31062551249 -0.89357929619 0.3886910326 -0.33436075652 -0.8547955809 
0.45470384461 -0.3595369638 -0.81317888255 0.50440750014 -0.38525635771 -0.76990618226 0.54932477279 -0.41113516508 -0.72614748141 
0.57959691187 -0.43491393532 -0.68735452151 0.60536285599 -0.4580465403 -0.65008948191 0.6206917164 -0.47853356802 -0.62009916861 
0.6326575165 -0.49816813196 -0.59245293379 0.63795282633 -0.51574636518 -0.57131974245 0.6409996563 -0.53263145321 -0.55238195903 
0.63990600688 -0.54847507166 -0.5378728312 0.6373537795 -0.56395180878 -0.52492379795 0.63225148526 -0.57960203378 -0.51376244446 
0.62621123538 -0.59531607042 -0.50325862835 0.61891018139 -0.61269391333 -0.49096000239 0.61112533047 -0.63071019353 -0.47797267031 
0.6032106917 -0.65190994997 -0.4584446343 0.5952441378 -0.67438309693 -0.43630031672 0.58766044289 -0.70076328544 -0.40169357721 
0.58023627257 -0.72877140793 -0.3618941619 0.57245913758 -0.75884919034 -0.30198948566 0.56452890947 -0.78982465657 -0.23336445529 
0.5532734004 -0.81471054773 -0.13740078678 0.54051745969 -0.83684870381 -0.029101391317 0.51978466429 -0.83692817067 0.10228021154 
0.49530964078 -0.82665911667 0.24449050427 0.46305569758 -0.7853588709 0.38413509183 0.42700953104 -0.72893091915 0.52252889811 
0.39156582986 -0.65560477024 0.63352377963 0.35642717444 -0.57372257214 0.73064578786 0.32873634492 -0.49447549814 0.79936423886 
0.30496039825 -0.41661355349 0.85315261491 0.28914470304 -0.34920837195 0.88903248637 0.27767096317 -0.28750687939 0.91514408261 
0.27173723157 -0.23615054425 0.93191112952 0.26893797835 -0.19064739028 0.94339112879 0.26881665537 -0.15338731497 0.95040945259 
0.27026638479 -0.12096317913 0.95481026013 0.2716954951 -0.094746636121 0.95747919557 0.27311206677 -0.072304980637 0.95909496555 
0.27218725353 -0.0545032363 0.96059741553 0.26978704707 -0.039625271589 0.96202845837 0.26315902661 -0.028423978596 0.96425742386 
0.25377118313 -0.019622735197 0.96700725552 0.23864587868 -0.014329418759 0.97083158683 0.21964172737 -0.011407658578 0.97538234045 
0.19393925889 -0.012842448802 0.98051446213 0.16354796838 -0.01732682431 0.98605354144 0.12645525058 -0.027961748574 0.99074073704 
0.084506426036 -0.043053592227 0.9948106256 0.037300101758 -0.06624055607 0.99567450804 -0.013849347322 -0.095498860056 0.99413388588 
-0.066714420773 -0.13331098662 0.98674378447 -0.12091102359 -0.17776190085 0.97481378871 -0.17142975637 -0.22811053841 0.95594181815 
-0.21899504807 -0.2831952265 0.93149523146 -0.25825201504 -0.33895194178 0.9023152601 -0.29060668146 -0.39526695657 0.86920293839 
-0.31340491124 -0.44732543945 0.83592645821 -0.32799057827 -0.49572596523 0.80250890435 -0.33484542308 -0.53761487852 0.77284242535 
-0.33482842591 -0.57371569184 0.74651023511 -0.32983077595 -0.60361199046 0.72534887265 -0.32025413873 -0.62780413848 0.70894133574 
-0.30784822656 -0.64725202613 0.69706860647 -0.2927521841 -0.66218897769 0.6895076615 -0.27615707873 -0.67411891174 0.68482821994 
-0.25808789484 -0.68309194523 0.68298225674 -0.23935033879 -0.69083771674 0.68201190922 -0.21993308225 -0.69733542519 0.68193201835 
-0.20048858271 -0.70427501141 0.68079034737 -0.18101543106 -0.71167933115 0.67853197663 -0.16212876319 -0.72082996504 0.67360228615 
-0.14388002505 -0.73188009856 0.66576694966 -0.12681490941 -0.74535770777 0.65406747292 -0.11108136907 -0.76156622716 0.63802083841 
-0.096953344158 -0.78002392772 0.61746419906 -0.084693555366 -0.80109885728 0.59165955408 -0.073931059704 -0.82332554118 0.56155219865 
-0.064970861329 -0.84693859604 0.52626565473 -0.056660882939 -0.8701081334 0.48792369496 -0.049160612457 -0.89272536593 0.44577687773 
-0.040916595183 -0.91355445496 0.40260524683 -0.031714288775 -0.93207958988 0.35811318291 -0.020296312776 -0.94820023251 0.31474545865 
-0.0059241106563 -0.96111488542 0.27287685392 0.01165605883 -0.97162635229 0.23368231004 0.033663223282 -0.97882142244 0.19817797015 
0.059115797722 -0.98378602745 0.16604584191 0.089490386432 -0.98556425366 0.13873115889 0.12283912976 -0.98517068862 0.11484371785 
0.16058714348 -0.98156468234 0.096025738883 0.20024832946 -0.97578881127 0.080323838255 0.24284033254 -0.96668889201 0.06939550444 
0.28596085932 -0.95558745533 0.061061937122 0.32992013025 -0.94130969754 0.056846151417 0.37325524648 -0.92540985919 0.054593752782 
0.41556397501 -0.90684259948 0.055570035106 0.45675148278 -0.88700802511 0.057912451474 0.49602781879 -0.86501325531 0.06258350542 
0.53424219237 -0.84187061473 0.068158551386 0.57057960909 -0.81669917929 0.075331350689 0.60607867406 -0.79029553026 0.083080502753 
0.64004076085 -0.76163282296 0.091886301544 0.67323311934 -0.73165345998 0.10101467947 0.70496111669 -0.69916923986 0.11075674454 
0.73571948873 -0.66552730687 0.12058524021 0.76456285081 -0.62959889096 0.1305844363 0.79207692458 -0.59304930402 0.14046073657 
0.8168642531 -0.55522552009 0.15008494285 0.84005990314 -0.51756135956 0.15945146514 0.85986276486 -0.48023744889 0.16826871363 
0.87806857058 -0.44380923948 0.17679507545 0.89273495489 -0.40936609774 0.18467676948 0.90600876774 -0.37633473094 0.19231391172 
0.91607192972 -0.34655828967 0.19938722621 0.9250359085 -0.3184481913 0.20631116597 0.9313618476 -0.29433731583 0.21287660642 
0.93687315622 -0.27191488888 0.21941159516 0.94034788865 -0.25371358321 0.22587045466 0.9432359775 -0.23703912439 0.23241779673 
0.94459523764 -0.22434372098 0.23919572972 0.94553329732 -0.21288513915 0.24615067681 0.94532621821 -0.20478916596 0.25358688096 
0.94482112285 -0.19756363205 0.26122741432 0.94347004585 -0.19280902258 0.26944797896 0.94192394098 -0.1885696417 0.27781509092 
0.93979925346 -0.18585877234 0.28661695989 0.93757955617 -0.18340357694 0.29541592647 0.93506500102 -0.18174185242 0.30420588565 
0.93255958274 -0.18020214103 0.31277927292 0.93008385926 -0.17905897229 0.32064880151 0.92770896066 -0.17805192192 0.32808158452 
0.9256776135 -0.17750868233 0.33402619739 0.92380409638 -0.17722536404 0.33937049264 0.92249512515 -0.17787176427 0.34256749794 
0.92135058511 -0.17894935021 0.34509038366 0.92082430637 -0.18164819439 0.34507857977 0.9204111147 -0.18495570512 0.34441105988 
0.92044555937 -0.19067252094 0.34114799747 0.9204835749 -0.19715314123 0.33733475172 0.92053649494 -0.20682181499 0.33122508851 
0.92043292536 -0.21736997457 0.32474765804 0.91963937886 -0.23179586712 0.3166487082 0.91849342476 -0.24716316339 0.30842568098 
0.91570290183 -0.26692367707 0.29962362601 0.91234818642 -0.28761875372 0.29097597296 0.90620071826 -0.3129399171 0.2830926095 
0.89928995946 -0.33910258931 0.27562150666 0.88836188154 -0.36969425528 0.27032019659 0.8765222344 -0.40091956432 0.26561472889 
0.85956767107 -0.43570031498 0.26425259893 0.84164346496 -0.47079554572 0.26357165859 0.81790140217 -0.50777765694 0.26697785598 
0.79326156956 -0.54469432215 0.27103209216 0.76284234379 -0.58118967862 0.27925807811 0.73173954858 -0.61725920641 0.28800523263 
0.6958973386 -0.65037632194 0.30036582265 0.65966887136 -0.68283316849 0.31307333692 0.62054347468 -0.71033799769 0.32838278309 
0.58133306921 -0.73711729944 0.34384764263 0.54142951519 -0.75798076201 0.36057971879 0.50167303129 -0.77820398574 0.37728715596 
0.4632279227 -0.79271841316 0.39377489551 0.42504914142 -0.80677417528 0.4100863813 0.38948521016 -0.81632667809 0.42466737555 
0.35420482169 -0.82562523406 0.43896160064 0.32201504971 -0.83215576962 0.45013004199 0.29006735415 -0.83860270388 0.4609479917 
0.26107837028 -0.84402784456 0.46748215477 0.23227344144 -0.84947890542 0.47364561177 0.20602227601 -0.8552896088 0.47466552229 
0.17990139756 -0.86117879746 0.47532242974 0.15586511065 -0.86832375066 0.47017128825 0.13191983114 -0.87555662247 0.4646796505 
0.10968852412 -0.88444529484 0.45277533332 0.087522605437 -0.89340184382 0.4405657057 0.066847540918 -0.90390597965 0.42139500002 
0.046222784658 -0.91444245889 0.40196709433 0.027044390818 -0.92590881074 0.37514468802 0.0079076382468 -0.93737096066 0.34812566984 
-0.0096189852572 -0.94867063574 0.31350432626 -0.027112603777 -0.95994222992 0.27875641283 -0.042675430725 -0.96957109158 0.23660416284 
-0.058107477614 -0.97911903843 0.19480613344 -0.058107477614 -0.97911903843 0.19480613344 -0.058107477614 -0.97911903843 0.19480613344 

FrenetNormal 3 240 double
-0.84860027272 -0.29538070215 0.43889385725 -0.84860027272 -0.29538070215 0.43889385725 -0.84860027272 -0.29538070215 0.43889385725 
-0.80206945814 -0.2255347051 0.53728023356 -0.75514431462 -0.15509679282 0.63650039272 -0.66872846471 -0.066807887229 0.72456756405 
-0.58163756 0.021786163547 0.81244408602 -0.47245049622 0.10298366576 0.8631030905 -0.36269198005 0.18398987792 0.91279957298 
-0.26414426171 0.23900799986 0.9275066608 -0.16598648417 0.29312218823 0.94099672621 -0.098274516504 0.32509602704 0.93767657917 
-0.031897891375 0.35609879788 0.93361914212 -0.0096236030538 0.38979725233 0.91989716778 0.010308968269 0.42363884043 0.90566203218 
-0.099706865963 0.17441079088 0.027232239517 -0.21784447554 -0.09250911103 -0.90520971921 -0.17655228844 -0.14483252221 -0.97143203754 
-0.12376966553 -0.18168951964 -0.97522411152 -0.076467840067 -0.15532519992 -0.98323971929 -0.02961444348 -0.12378822699 -0.99160088891 
0.03509675715 -0.082365479248 -0.99286744623 0.10144628843 -0.040035779689 -0.99348312168 0.17406726784 0.00089399984739 -0.98106414765 
0.24732700586 0.041681194937 -0.96731757042 0.3160768108 0.069737915621 -0.94299018004 0.38432082884 0.096366919549 -0.91747615641 
0.44446823535 0.10323151178 -0.88732662102 0.50362266119 0.10767216673 -0.85660857948 0.54992803404 0.10432723163 -0.82694259162 
0.59452019983 0.099944217862 -0.79741687758 0.61955502277 0.11372023961 -0.77592102859 0.64176907511 0.13011535302 -0.75558333322 
0.64351418468 0.17557153833 -0.74328407978 0.64207965266 0.2255420649 -0.73223351635 0.63137012124 0.28460491884 -0.71861508453 
0.61911475659 0.34518316066 -0.70456867464 0.6188735384 0.38694468577 -0.6820907879 0.62077345523 0.42535273661 -0.65811026172 
0.64366838394 0.43819397521 -0.62592949643 0.67055236492 0.44617751948 -0.59219068571 0.71395597162 0.4303459761 -0.54811298411 
0.76069687644 0.40970330389 -0.50194661768 0.81407981412 0.36500005766 -0.44127412597 0.86888604455 0.31514097413 -0.37749317885 
0.91494642076 0.24631032074 -0.29698390198 0.95902320118 0.17317683707 -0.21268057092 0.98056717391 0.093349019275 -0.11490302181 
0.99671266146 0.01191735059 -0.013897274614 0.98531364988 -0.063154323984 0.092174828951 0.96695602799 -0.1366192632 0.19952685413 
0.92485338774 -0.19704234005 0.30127574898 0.87643558305 -0.25399683648 0.4015344496 0.81336413613 -0.29881884164 0.48671286788 
0.74619597204 -0.34024896751 0.56767529326 0.67258098826 -0.37695163316 0.62922721339 0.59707400304 -0.41226689201 0.6850825722 
0.51711532429 -0.45109039276 0.72140842595 0.43578689368 -0.49099335255 0.75172520123 0.34374353944 -0.54015520548 0.7608265937 
0.2482475987 -0.59230047953 0.76309191837 0.13552214687 -0.64880816112 0.73692783618 0.016988994677 -0.70678631716 0.70118080785 
-0.099073806913 -0.74706359125 0.64388770275 -0.21426637136 -0.78110532737 0.57900450241 -0.2865055847 -0.78991340037 0.53856559503 
-0.3429458643 -0.789440126 0.50711769194 -0.34148102051 -0.77206166164 0.53303519677 -0.31779676891 -0.74819632206 0.5809650093 
-0.2719091525 -0.70602922679 0.64631101635 -0.21714019015 -0.65654142925 0.71862350121 -0.17358169305 -0.59295789962 0.78062933223 
-0.13469422314 -0.52350114828 0.83834072414 -0.11567444765 -0.43960647732 0.88553527433 -0.10527198542 -0.34944957617 0.92816830282 
-0.11348879863 -0.2384722121 0.95726040911 -0.13010699222 -0.11810024891 0.98024258709 -0.15821959072 0.021084551567 0.97645659865 
-0.19172462609 0.16909512757 0.96011270497 -0.22105906517 0.31487622963 0.91026122331 -0.24836033857 0.45957046314 0.84407479251 
-0.25882534493 0.5801885665 0.76043395497 -0.26076565911 0.68861622422 0.66795544313 -0.24394932833 0.77135514496 0.57752773194 
-0.21727373544 0.84059101164 0.4881780057 -0.17580702794 0.89131382041 0.4073341917 -0.12627243973 0.9319385976 0.33112996621 
-0.070237382897 0.95853674199 0.26341592934 -0.01052442935 0.97719876519 0.20050555184 0.037056760257 0.98655413683 0.1487522665 
0.077520648353 0.99044960621 0.10354447523 0.070780549427 0.99379324777 0.078258877664 0.035335323257 0.99680131836 0.065088127616 
-0.10892730975 0.9687693172 0.085953429464 -0.32175981555 0.92117781877 0.12826610648 -0.55214529303 0.74688541364 0.17258642139 
-0.79398896037 0.48988547219 0.21821727771 -0.91701002555 0.26847158339 0.22922367056 -0.95970031745 0.071115871034 0.21682197543 
-0.972614032 -0.076248601123 0.19131757436 -0.96468414241 -0.18861920514 0.15664127911 -0.94658859192 -0.2867436111 0.11268461499 
-0.92112662049 -0.37454468512 0.062003045903 -0.88543793498 -0.45437429132 0.0029055615967 -0.84207921389 -0.52822529664 -0.062503859121 
-0.78789301102 -0.59249089995 -0.13334070132 -0.72530338943 -0.64931708678 -0.20838987064 -0.65231174845 -0.69538089726 -0.28291728046 
-0.57096697069 -0.73280219341 -0.3570257016 -0.48154993268 -0.76041902987 -0.42345123743 -0.38542670925 -0.77989062288 -0.48349406852 