# vtk DataFile Version 5.1
vtk output
ASCII
DATASET POLYDATA
POINTS 240 float
0 0 0 -0.225553 -0.216348 -0.0356286 -0.451107 -0.432697 -0.0712572 
-0.672383 -0.66317 -0.040668 -0.893624 -0.893762 -0.00951764 -1.11054 -1.12979 0.0671678 
-1.32739 -1.36591 0.144632 -1.53984 -1.59903 0.2473 -1.75217 -1.83207 0.350621 
-1.95998 -2.05425 0.459314 -2.16764 -2.27604 0.568194 -2.37047 -2.48021 0.663612 
-2.5731 -2.68361 0.758439 -2.77033 -2.86463 0.82296 -2.96727 -3.04446 0.885873 
-3.15782 -3.20008 0.905096 -3.34796 -3.35419 0.921589 -3.53016 -3.48587 0.886032 
-3.71178 -3.61594 0.846724 -3.88327 -3.72895 0.75304 -4.05394 -3.84057 0.654906 
-4.21167 -3.94314 0.505992 -4.36823 -4.04489 0.352418 -4.50854 -4.14645 0.156299 
-4.64719 -4.248 -0.0441536 -4.76617 -4.35731 -0.276266 -4.88294 -4.4675 -0.51193 
-4.97719 -4.59125 -0.767641 -5.06867 -4.71667 -1.02581 -5.13623 -4.85904 -1.29306 
-5.20059 -5.00367 -1.56152 -5.24171 -5.16672 -1.82946 -5.27947 -5.33242 -2.09731 
-5.29682 -5.5168 -2.35671 -5.31098 -5.70409 -2.61479 -5.30912 -5.90967 -2.85827 
-5.30459 -6.11831 -3.09932 -5.28892 -6.34433 -3.32164 -5.27127 -6.57345 -3.54062 
-5.2466 -6.81818 -3.73904 -5.22061 -7.06588 -3.93355 -5.18996 -7.32605 -4.10825 
-5.15837 -7.58873 -4.27895 -5.12213 -7.85899 -4.43333 -5.08488 -8.13087 -4.58421 
-5.04066 -8.40373 -4.7247 -4.99486 -8.67682 -4.86283 -4.93808 -8.94333 -4.99804 
-4.87868 -9.20826 -5.13255 -4.8037 -9.45935 -5.27173 -4.72478 -9.70695 -5.41208 
-4.62627 -9.93537 -5.56299 -4.52256 -10.1587 -5.71671 -4.39701 -10.3609 -5.8834 
-4.26536 -10.5573 -6.05372 -4.11207 -10.7348 -6.23476 -3.95245 -10.9069 -6.41893 
-3.77411 -11.0663 -6.60662 -3.59002 -11.2218 -6.79539 -3.39244 -11.3732 -6.97648 
-3.19052 -11.5232 -7.15508 -2.98183 -11.677 -7.31272 -2.77086 -11.8322 -7.46329 
-2.56032 -11.9964 -7.58009 -2.34992 -12.1636 -7.685 -2.14661 -12.3396 -7.74631 
-1.9459 -12.5189 -7.79159 -1.75772 -12.701 -7.7882 -1.57434 -12.8842 -7.76614 
-1.40746 -13.06 -7.69586 -1.24718 -13.2328 -7.60629 -1.10603 -13.3858 -7.47393 
-0.97284 -13.5305 -7.32374 -0.860376 -13.6445 -7.13979 -0.756902 -13.7451 -6.94119 
-0.674935 -13.8081 -6.71951 -0.602673 -13.8541 -6.48743 -0.551859 -13.8609 -6.24268 
-0.511108 -13.8494 -5.992 -0.49064 -13.8026 -5.73725 -0.480061 -13.7386 -5.48053 
-0.48725 -13.6472 -5.22557 -0.503437 -13.5418 -4.97151 -0.533594 -13.4186 -4.722 
-0.571094 -13.286 -4.47488 -0.617952 -13.1456 -4.23222 -0.669914 -13.0008 -3.992 
-0.726541 -12.8574 -3.75389 -0.785808 -12.7147 -3.51696 -0.845668 -12.581 -3.27845 
-0.905876 -12.4524 -3.03902 -0.963656 -12.3381 -2.79419 -1.01996 -12.2325 -2.54608 
-1.07202 -12.1434 -2.28988 -1.12139 -12.0646 -2.02857 -1.16585 -12.0015 -1.75844 
-1.2071 -11.9486 -1.48255 -1.24377 -11.9077 -1.19949 -1.27735 -11.8749 -0.911566 
-1.30741 -11.8494 -0.620212 -1.33501 -11.829 -0.326453 -1.36053 -11.8119 -0.0344328 
-1.38454 -11.7972 0.256328 -1.40792 -11.7844 0.539734 -1.43083 -11.773 0.817625 
-1.45436 -11.7657 1.08315 -1.47837 -11.7616 1.33908 -1.50399 -11.7672 1.57919 
-1.53091 -11.7805 1.80659 -1.56011 -11.8106 2.01697 -1.5912 -11.8546 2.2132 
-1.62494 -11.9217 2.39373 -1.66094 -12.0086 2.56075 -1.6996 -12.1217 2.71561 
-1.74062 -12.2581 2.85966 -1.78406 -12.4199 2.9965 -1.82972 -12.6051 3.12672 
-1.87741 -12.8113 3.25492 -1.92704 -13.0374 3.3812 -1.97833 -13.2782 3.50959 
-2.03125 -13.5335 3.64007 -2.08557 -13.7968 3.77479 -2.14134 -14.0683 3.91383 
-2.19837 -14.3429 4.05696 -2.25675 -14.6205 4.20438 -2.31631 -14.898 4.35384 
-2.37716 -15.1755 4.50553 -2.43896 -15.4518 4.65632 -2.50184 -15.7269 4.80609 
-2.5651 -16.0013 4.95227 -2.62881 -16.2748 5.09426 -2.69184 -16.5486 5.2311 
-2.75405 -16.8226 5.36174 -2.81396 -17.0977 5.48718 -2.87101 -17.374 5.60615 
-2.92366 -17.6517 5.7212 -2.97063 -17.931 5.83119 -3.01082 -18.2112 5.93927 
-3.04197 -18.4926 6.04481 -3.06401 -18.7739 6.15054 -3.07348 -19.0554 6.25652 
-3.07196 -19.3357 6.36434 -3.05474 -19.6143 6.4748 -3.02542 -19.8906 6.58814 
-2.97821 -20.1634 6.70574 -2.91876 -20.4328 6.82671 -2.84057 -20.6969 6.95282 
-2.75094 -20.9565 7.08241 -2.64317 -21.2092 7.21752 -2.52544 -21.4565 7.35597 
-2.39135 -21.6951 7.49993 -2.24901 -21.9276 7.64684 -2.09265 -22.1498 7.79878 
-1.92957 -22.3654 7.95292 -1.75462 -22.569 8.11094 -1.57399 -22.7655 8.26997 
-1.38293 -22.9488 8.43087 -1.18668 -23.1246 8.59135 -0.980548 -23.2861 8.751 
-0.769383 -23.44 8.90885 -0.548279 -23.5788 9.06313 -0.322291 -23.7101 9.21471 
-0.0862849 -23.8261 9.36075 0.154191 -23.935 9.50396 0.404194 -24.029 9.64116 
0.657877 -24.1167 9.77621 0.919714 -24.1907 9.9065 1.18414 -24.2595 10.0359 
1.45456 -24.3165 10.1631 1.72639 -24.3696 10.2907 2.00164 -24.4135 10.4192 
2.27729 -24.4549 10.5492 2.55395 -24.4899 10.6827 2.83033 -24.5234 10.8181 
3.10596 -24.5531 10.9584 3.381 -24.5819 11.1005 3.65442 -24.6082 11.2472 
3.92724 -24.6337 11.3951 4.19837 -24.6565 11.5463 4.46908 -24.6778 11.698 
4.73852 -24.6945 11.851 5.00775 -24.7088 12.004 5.27631 -24.7157 12.1565 
5.54481 -24.7194 12.3085 5.81311 -24.7126 12.4589 6.08142 -24.7022 12.6087 
6.34981 -24.68 12.7565 6.61825 -24.6548 12.9038 6.88689 -24.6189 13.049 
7.15563 -24.5814 13.1937 7.42473 -24.5376 13.3364 7.69399 -24.4941 13.4785 
7.96388 -24.4518 13.6182 8.23402 -24.4118 13.7572 8.50516 -24.3818 13.8931 
8.77659 -24.356 14.028 9.04928 -24.3486 14.1588 9.32221 -24.3465 14.2885 
9.59624 -24.3692 14.4133 9.8703 -24.3975 14.5372 10.1445 -24.4535 14.6565 
10.4185 -24.5146 14.7753 10.6906 -24.6026 14.8915 10.9618 -24.6947 15.0078 
11.228 -24.8095 15.1251 11.4927 -24.9272 15.2435 11.7481 -25.0615 15.3681 
12.0012 -25.1974 15.4946 12.24 -25.3435 15.6333 12.476 -25.4902 15.7746 
12.6923 -25.6413 15.9333 12.9054 -25.7925 16.0948 13.0943 -25.9447 16.2772 
13.2799 -26.0969 16.4622 13.4379 -26.2492 16.6686 13.5927 -26.4016 16.877 
13.7182 -26.5557 17.1037 13.8408 -26.7104 17.3318 13.9343 -26.8703 17.5723 
14.0251 -27.031 17.8134 14.088 -27.2015 18.0595 14.1488 -27.373 18.3055 
14.1835 -27.5581 18.5487 14.2164 -27.7444 18.7912 14.2255 -27.9469 19.0243 
14.2332 -28.1505 19.2565 14.2191 -28.3711 19.4744 14.204 -28.5926 19.6914 
14.1692 -28.83 19.8914 14.1337 -29.068 20.0907 14.0807 -29.3193 20.2723 
14.0272 -29.571 20.4533 13.9584 -29.8321 20.6174 13.8893 -30.0933 20.7811 
13.8072 -30.3595 20.9296 13.7248 -30.6258 21.0779 13.6318 -30.8923 21.2131 
13.5386 -31.1588 21.3481 13.4372 -31.4207 21.4722 13.3357 -31.6825 21.5963 

LINES 2 240
OFFSETS vtktypeint64
0 240 
CONNECTIVITY vtktypeint64
0 1 2 3 4 5 6 7 8 
9 10 11 12 13 14 15 16 17 
18 19 20 21 22 23 24 25 26 
27 28 29 30 31 32 33 34 35 
36 37 38 39 40 41 42 43 44 
45 46 47 48 49 50 51 52 53 
54 55 56 57 58 59 60 61 62 
63 64 65 66 67 68 69 70 71 
72 73 74 75 76 77 78 79 80 
81 82 83 84 85 86 87 88 89 
90 91 92 93 94 95 96 97 98 
99 100 101 102 103 104 105 106 107 
108 109 110 111 112 113 114 115 116 
117 118 119 120 121 122 123 124 125 
126 127 128 129 130 131 132 133 134 
135 136 137 138 139 140 141 142 143 
144 145 146 147 148 149 150 151 152 
153 154 155 156 157 158 159 160 161 
162 163 164 165 166 167 168 169 170 
171 172 173 174 175 176 177 178 179 
180 181 182 183 184 185 186 187 188 
189 190 191 192 193 194 195 196 197 
198 199 200 201 202 203 204 205 206 
207 208 209 210 211 212 213 214 215 
216 217 218 219 220 221 222 223 224 
225 226 227 228 229 230 231 232 233 
234 235 236 237 238 239 
CELL_DATA 1
FIELD FieldData 3
Length 1 1 double
70.290566457 
Tortuosity 1 1 double
0.73147231278 
ClusterLabel 1 1 int
3 
POINT_DATA 240
FIELD FieldData 6
Curvature 1 240 double
0 0.16910642394 0.33821284788 0.2793266533 0.2185083179 0.1698166416 0.12133225862 0.084164970787 0.047290366452 
0.05347294101 0.061153156574 0.11348726762 0.16777988285 0.24898165502 0.33161223199 0.42775750828 0.52474745328 0.57208611559 
0.61584630708 0.57186266299 0.52069997781 0.44193419339 0.36063601454 0.30365659383 0.24915408367 0.22163123963 0.19713415254 
0.18651497752 0.17759781058 0.17326994596 0.1695539883 0.16713772439 0.16490891631 0.16364032127 0.16252088554 0.16215734039 
0.161919777 0.16035347003 0.15855035727 0.15217821218 0.14493795094 0.13131923952 0.11641195232 0.098632468203 0.080237513322 
0.07785725247 0.079109190264 0.10487130654 0.13650565308 0.17143783007 0.20720314318 0.22858129573 0.24613307579 0.23985966009 
0.22692543699 0.19842406712 0.16535407809 0.1400435006 0.11712043437 0.12845131154 0.15081957047 0.19496208676 0.24644424035 
0.30442313178 0.36469064677 0.41993166236 0.47332385058 0.51211977558 0.54531480888 0.56591851292 0.58148568526 0.59160513143 
0.59945469171 0.60012572768 0.59768318684 0.57967348234 0.55463956985 0.51348659088 0.46477158072 0.40953644211 0.35112274088 
0.29493237304 0.23986774364 0.18911632696 0.14063211186 0.099487274606 0.062345734369 0.060827228289 0.079463859956 0.10964878424 
0.14660870686 0.17290825759 0.19272514974 0.19735753947 0.19242161261 0.17553570238 0.15084910856 0.1237596898 0.095045826004 
0.069654339004 0.046588515763 0.031072366328 0.021026995012 0.026358308438 0.043222135421 0.081207421929 0.13558548299 0.22086643315 
0.33096333971 0.45625037472 0.59415690106 0.66968573579 0.69160874178 0.63636926238 0.51254090706 0.38914339144 0.26614197037 
0.17031582506 0.10032846654 0.04994181472 0.018829191162 0.0081947963262 0.018385718836 0.023016185969 0.021798587966 0.019144093904 
0.01492666027 0.017132761504 0.026565339465 0.036612602158 0.047375134356 0.055955936498 0.061910582092 0.066917019792 0.070742670304 
0.076491036001 0.084716746262 0.095668966371 0.11025653295 0.12531255339 0.14101504017 0.15500384544 0.16654453425 0.17515717281 
0.17943873702 0.1810090517 0.17842596283 0.17422067208 0.16744101747 0.16049054513 0.15325917253 0.14683220543 0.14177638407 
0.13788035063 0.1360341749 0.13543059602 0.13710511137 0.13982917927 0.14454995688 0.14894810262 0.15270905042 0.15471097025 
0.1531046276 0.14903719732 0.13972376447 0.12873095516 0.1140162845 0.099160154349 0.083977881462 0.070237185935 0.059956276074 
0.05144757592 0.047369400036 0.043641710892 0.040827411433 0.037804941311 0.034216507199 0.031818741593 0.032800938202 0.035719157113 
0.04438090885 0.053538074689 0.064232732571 0.073571243417 0.078502276392 0.081296708898 0.076810873139 0.070067450839 0.055248815144 
0.040766639595 0.027549554197 0.022166654447 0.047794072889 0.073885316965 0.1019125289 0.1287431473 0.15029787605 0.16935076979 
0.17672843347 0.18176803351 0.17523421848 0.16744706714 0.15306340895 0.13916375874 0.12797993105 0.11888901646 0.12235558044 
0.12743263603 0.1428772314 0.15863198559 0.17653717424 0.19356807751 0.20404184038 0.21325693169 0.21220900874 0.21035258483 
0.20128702725 0.19227280938 0.18376265413 0.1756779556 0.17223073528 0.16912476975 0.17018969605 0.17121716544 0.17172492037 
0.171982245 0.16823268462 0.16428005094 0.15650287006 0.14860794426 0.1380284344 0.12743513432 0.116445365 0.10548586979 
0.095696973448 0.085931514982 0.077537172029 0.068923774083 0.034461887041 0 
Torsion 1 240 double
0 0 0 0.048093528723 0.096594629722 0.18673981592 0.27759686681 1.0666923982 1.8738458213 
1.6473306496 1.3848617877 0.8762565871 0.35685593304 0.27173808852 0.20967950822 0.19945666118 0.19247354747 0.2099184949 
0.22912402331 0.28053597929 0.33458300662 0.41807190072 0.50426188352 0.56310538157 0.61916358951 0.58983875101 0.55093824376 
0.48324102529 0.41201213469 0.36969642335 0.33123580258 0.31886417586 0.31025538482 0.30510068095 0.30048253431 0.27902335996 
0.25475734767 0.21029304387 0.16222904455 0.093295618714 0.020397001841 -0.11112717719 -0.25449490413 -0.6286042911 -1.0521583195 
-1.2214609877 -1.3330983989 -0.97695743134 -0.50874456046 -0.29348103094 -0.14212049292 -0.054187526108 0.016876405808 0.099086103507 
0.18441182175 0.37450562143 0.59534657546 0.97362509979 1.4003459534 1.2235187056 0.85221484735 0.55266841627 0.277309882 
0.1283425867 0.023899477843 -0.046657771151 -0.1047512556 -0.15144327786 -0.19376032044 -0.22043988177 -0.2408644506 -0.2373361882 
-0.22382757945 -0.19365598382 -0.15625706859 -0.11642753182 -0.07550125118 -0.038452126899 -0.0032219154752 0.029875419933 0.061932978284 
0.10340945893 0.14965501417 0.27335883569 0.43777789974 1.3333703507 2.6277846491 2.4060653285 1.3265335657 0.70688378225 
0.35703142673 0.18839387288 0.12995450924 0.10039420405 0.089031661725 0.089549708901 0.097823140894 0.10958871553 0.12371517535 
0.07628116336 -0.014245178884 -0.64449691789 -1.6658540169 -1.4492892174 -0.30428299418 0.20555832342 0.22243583363 0.20300440126 
0.15441578772 0.11833119656 0.092634562448 0.076903835862 0.069737561053 0.069167329314 0.074460246971 0.086472454135 0.10466207262 
0.14930534103 0.2191012602 6.0408302865 17.518626868 17.630897837 6.1850071647 0.41241955199 0.60658170833 1.2390753004 
2.3483504541 2.4146532873 1.3076122599 0.65370832538 0.52709118967 0.48466356721 0.54357517367 0.61407554803 0.69900721827 
0.72315812393 0.66899535215 0.58212444501 0.45164269074 0.33941203393 0.25236789159 0.1836712892 0.14118545813 0.11056033981 
0.097479192406 0.090019865545 0.091172689297 0.09262375981 0.094548134966 0.090817573373 0.077787782459 0.055040224701 0.01572829164 
-0.028569301116 -0.081678757521 -0.12728318199 -0.15912838125 -0.17664891673 -0.16691765283 -0.14783404216 -0.11027954664 -0.068626338134 
-0.018565513269 0.035142518321 0.096624858981 0.16600669991 0.25289554143 0.3540243479 0.48798418469 0.61574810571 0.72864182888 
0.77924819231 0.67413615641 0.53251422494 0.29574529288 0.025236118262 -0.33700434083 -0.63890754786 -0.76953081357 -0.8008086025 
-0.53736147697 -0.30779464852 -0.18337356965 -0.082158047602 -0.056360585209 -0.041903492836 -0.066087661274 -0.12814350615 -0.32566342445 
-0.89880099892 -2.8842609606 -4.0494077897 -1.9674818017 -0.26773086769 -0.16314537662 -0.076116484146 -0.066496230975 -0.062305035355 
-0.083449441648 -0.10993950842 -0.16289059457 -0.22445803339 -0.33137469682 -0.4425389105 -0.57753660054 -0.6868724743 -0.64223745033 
-0.58278357771 -0.42793336685 -0.2787470188 -0.16883011953 -0.063245460733 0.0098473944557 0.08225461182 0.14907124385 0.21613521843 
0.28540466413 0.35245675974 0.39773850914 0.43804161084 0.42407745262 0.40660410077 0.34624060456 0.28588396455 0.22562245443 
0.16625849158 0.121255285 0.076793870944 0.042536215916 0.0084777092325 -0.021040215217 -0.050596798262 -0.081264815924 -0.1121990606 
-0.1534274166 -0.1923397389 -0.09576408941 0 0 0 
FrenetTangent 3 240 double
-0.70697274684 -0.70720529094 -0.0070860205822 -0.70697274684 -0.70720529094 -0.0070860205822 -0.70697274684 -0.70720529094 -0.0070860205822 
-0.69106311872 -0.71294857223 0.079007504718 -0.67501866323 -0.71874052539 0.16583063616 -0.66225913586 -0.71437436658 0.21927352356 
-0.64955576112 -0.70983456483 0.27214580849 -0.64560197657 -0.70257504421 0.29811829638 -0.64187447453 -0.69524518603 0.32339509987 
-0.64882421622 -0.68793576249 0.32505852514 -0.6561453403 -0.68062704972 0.32590061553 -0.67440410247 -0.67334831449 0.30116747422 
-0.69314258561 -0.66607089407 0.27531261223 -0.71967584461 -0.65613585527 0.21702383983 -0.74662298551 -0.64605970398 0.15701291291 
-0.76944950683 -0.62723997397 0.058736299604 -0.79201848943 -0.60787377029 -0.041931919097 -0.78956095086 -0.57497327504 -0.16831587758 
-0.78529969905 -0.54109733536 -0.29655322271 -0.74777152203 -0.50199093591 -0.4145936496 -0.70752150568 -0.46245658975 -0.53179978318 
-0.65024528051 -0.43376940879 -0.61510799197 -0.59140701783 -0.4060773806 -0.69530629939 -0.53181715847 -0.39578026798 -0.74481517456 
-0.47215074761 -0.38725485973 -0.79119827422 -0.41670217127 -0.39357490436 -0.81720193871 -0.36172662311 -0.40155985958 -0.84092005906 
-0.31089498671 -0.41964906452 -0.85104328899 -0.26057156591 -0.4389774699 -0.85949922105 -0.21422214855 -0.4644975765 -0.85765085104 
-0.16840259832 -0.49084324327 -0.85442857408 -0.12741846841 -0.52081699131 -0.84250261754 -0.087131754904 -0.55131402031 -0.8293213226 
-0.053017127502 -0.58384298666 -0.80850678517 -0.019861270757 -0.61668759377 -0.78650650133 0.006231956262 -0.6502082181 -0.75802313885 
0.031148078327 -0.68384151196 -0.72845926326 0.049318076088 -0.71629839129 -0.6942393908 0.066285794269 -0.74854561259 -0.65918973672 
0.0783569557 -0.77718679506 -0.62258784416 0.089497771349 -0.80514283015 -0.5856910263 0.098951340183 -0.82719192817 -0.55169039036 
0.10806405108 -0.84804770557 -0.51827484169 0.11941191082 -0.86149693263 -0.492678063 0.13123873103 -0.87335904175 -0.46875673503 
0.14901179577 -0.87684509098 -0.45661004492 0.1681334933 -0.87843141528 -0.44713389125 0.1957518726 -0.87014810808 -0.45112154422 
0.22540591523 -0.85950020167 -0.45833490086 0.2636188374 -0.8368339441 -0.47702298515 0.30399400282 -0.8111314715 -0.498609948 
0.34915449475 -0.77336440424 -0.52495131541 0.39558767989 -0.7323886682 -0.5525571521 0.44048412321 -0.68554984659 -0.57566327148 
0.48495093978 -0.63707188277 -0.59751140536 0.52362147215 -0.5939201261 -0.60833168438 0.56059092111 -0.55233149544 -0.61591552773 
0.59180532843 -0.52534765167 -0.61022944876 0.62124895372 -0.50285758848 -0.60046031678 0.64671021074 -0.49851421245 -0.5761025491 
0.67088826021 -0.50001810227 -0.54704399881 0.6913322594 -0.51796191434 -0.50028770447 0.71051758996 -0.54144727322 -0.44756587843 
0.72322008686 -0.57449598833 -0.37315256324 0.73363885827 -0.61091361301 -0.29109792801 0.73284449522 -0.64436396807 -0.18708596017 
0.72792576087 -0.67672291362 -0.074997732055 0.70889964877 -0.69150935577 0.051074572298 0.68446024054 -0.69955286057 0.18251285939 
0.64764561874 -0.68064664061 0.31427473914 0.60588091151 -0.65096053076 0.44616605593 0.55551304652 -0.59333697476 0.56585594548 
0.50156053246 -0.52407281621 0.68046190701 0.44185843465 -0.43278979888 0.77345209284 0.37966254148 -0.33195643317 0.85706676151 
0.31471335058 -0.22124235801 0.91335036517 0.24852181802 -0.10606991396 0.95730165901 0.18406474359 0.0038164213487 0.97569571769 
0.12042136556 0.11122285379 0.98209996235 0.062748990233 0.20273901675 0.97246536126 0.0079874787174 0.28650867334 0.95501182286 
-0.038813257464 0.35175954939 0.93262345226 -0.081583221325 0.4076338277 0.90773643243 -0.11630438486 0.44695897278 0.88582014714 
-0.14679476875 0.47758521449 0.86546540179 -0.16988311308 0.49406710174 0.85239493598 -0.1889339813 0.50283388655 0.84329771356 
-0.20126665824 0.49882991111 0.84289301959 -0.20979825327 0.48760037394 0.84740646672 -0.21221167847 0.46455099541 0.85915898363 
-0.21103577739 0.43456730995 0.87515842147 -0.20466981237 0.39559968215 0.8941246488 -0.19514772738 0.35116884617 0.91489500487 
-0.18237368584 0.30373648936 0.93378053259 -0.1675504662 0.25441276325 0.95147836025 -0.15217416269 0.20905889505 0.96502575232 
-0.13643681832 0.16629646186 0.97586383227 -0.12238852537 0.13167627209 0.98326312187 -0.10948212634 0.10256069759 0.98833759547 
-0.099375343731 0.081527094145 0.99157537853 -0.091228292619 0.066150870443 0.99352747821 -0.086169205793 0.055636673409 0.9947019863 
-0.083347774248 0.048645684107 0.99531302224 -0.083669066087 0.040878084816 0.99562308203 -0.086347400465 0.032528028035 0.99570740972 
-0.092354435814 0.015470791209 0.99534381165 -0.10094494057 -0.0083442569957 0.9946325697 -0.11297053575 -0.050431778786 0.99090353228 
-0.12775461264 -0.10719265058 0.98475111363 -0.14445629811 -0.18763043546 0.96698267605 -0.16275107379 -0.28773827121 0.93956400736 
-0.17816789199 -0.39764421678 0.89196005876 -0.19111146548 -0.51597041296 0.82700938524 -0.19818050322 -0.61743770612 0.75406890836 
-0.20002773141 -0.70391930769 0.67402638404 -0.19882740844 -0.76798339737 0.60546316665 -0.19482530458 -0.81143783902 0.54745350562 
-0.19079434126 -0.84143265668 0.50471654979 -0.18673593779 -0.85862979906 0.4765011825 -0.18370085085 -0.869274634 0.45886759744 
-0.18167202514 -0.87347636661 0.45163943156 -0.1807895234 -0.87469666145 0.44967737519 -0.18107277483 -0.87288498566 0.45307068441 
-0.18232881118 -0.87026855477 0.45755072681 -0.1846079489 -0.86680574352 0.46317371273 -0.18748320944 -0.86413415595 0.46702036698 
-0.19100688427 -0.86232319765 0.468934871 -0.19445257365 -0.86224738992 0.46764254726 -0.19781052938 -0.86412362659 0.46274254229 
-0.20007928155 -0.86781658579 0.45468618166 -0.20108059684 -0.87362354941 0.44295697078 -0.19981398557 -0.88056866814 0.42946620571 
-0.1958174627 -0.88888378841 0.41385505133 -0.18848956095 -0.89738635469 0.39858657557 -0.17701314963 -0.9061223443 0.38374483166 
-0.16150407245 -0.91421112386 0.37113174775 -0.1407990604 -0.92146599814 0.36139020652 -0.11583016392 -0.92738911992 0.3547971792 
-0.0851760882 -0.93153657171 0.35240217044 -0.050601777366 -0.93368024183 0.35298559056 -0.010617542075 -0.93305869328 0.35767924256 
0.032266482851 -0.9298334972 0.36444573659 0.079293064398 -0.92288880467 0.37417343355 0.12757028936 -0.9131057812 0.38485782712 
0.17769742436 -0.8991243932 0.39695733443 0.22725277734 -0.88260830757 0.40924646875 0.27593220892 -0.86220928089 0.4218260955 
0.32268961008 -0.83999683181 0.43427026863 0.36639683253 -0.81490656023 0.44649948277 0.40769502828 -0.7887726495 0.4584783861 
0.44503171346 -0.76092253218 0.47004566721 0.48031694762 -0.73251891469 0.48115783084 0.51210539029 -0.70317183102 0.49149422602 
0.5426875683 -0.67343711617 0.50090343858 0.57113774364 -0.64301728577 0.50867390977 0.59926113156 -0.61216748834 0.51488158403 
0.62678540918 -0.58052941801 0.51822413059 0.65449237502 -0.54830837634 0.51952458794 0.68254689408 -0.51497826725 0.51694009507 
0.7106184845 -0.48102848331 0.51229968757 0.73872379088 -0.44585484153 0.50359884869 0.76607721359 -0.41036742223 0.49350361693 
0.79188831086 -0.37423635674 0.48054809205 0.81606564293 -0.33844572629 0.46743965339 0.83676047548 -0.30338076 0.45400526692 
0.85533437198 -0.26946306277 0.44172590207 0.86920781561 -0.23808796184 0.43200631487 0.8810173364 -0.2085063163 0.42422646628 
0.8880683684 -0.18305958181 0.42091879278 0.8934618006 -0.15968402123 0.41958242722 0.89487699327 -0.14127927799 0.42297720073 
0.89519775862 -0.12475228404 0.42773048399 0.89278245564 -0.11291966328 0.4358800416 0.88987230205 -0.10239389505 0.44448178304 
0.88567253778 -0.095273863702 0.45426194292 0.88152246662 -0.088583602986 0.4636976323 0.87750749861 -0.083061781165 0.47219679249 
0.87390862073 -0.076985284172 0.47991038791 0.87149090193 -0.069334225402 0.48539399298 0.86958461787 -0.060415102613 0.48999955896 
0.86919559018 -0.047734056568 0.49200027562 0.86914806551 -0.033526480395 0.4932568748 0.87016037783 -0.014581396925 0.49220414388 
0.87119129024 0.0054559281862 0.49067237603 0.87228265293 0.029043038631 0.48758373811 0.8732110219 0.052621680269 0.48425435695 
0.87358400486 0.076171465231 0.48010466547 0.87390889277 0.0983713065 0.47589992357 0.87406174839 0.11574250302 0.47149827055 
0.87447833294 0.13057627774 0.46713969377 0.87588653831 0.1358693465 0.46294308368 0.87779260328 0.13790608699 0.45870092111 
0.88166936257 0.12705319483 0.45427844662 0.88589346747 0.11284719487 0.44961845694 0.89156736272 0.084645614612 0.44396709949 
0.89705695363 0.053650009037 0.43789194138 0.90173392995 0.010335291852 0.42994820767 0.90560162842 -0.034534442232 0.42164244327 
0.90569269687 -0.08666092185 0.41164720225 0.90466671957 -0.13882887484 0.40176627965 0.89811136571 -0.19120212104 0.39245123324 
0.8905733705 -0.24249222278 0.38394011517 0.87786357872 -0.28808156425 0.37966019887 0.86446019585 -0.33211492449 0.37678519127 
0.84716499632 -0.36741750121 0.38179328252 0.8292668529 -0.40123484844 0.38853573838 0.80775104611 -0.42614081879 0.40568438191 
0.78547327371 -0.44983205011 0.42451354768 0.75829034768 -0.46570339897 0.45416107528 0.73010168704 -0.4806616743 0.4850153388 
0.69493993312 -0.48928930653 0.52423630467 0.65870073929 -0.4973473216 0.56384156198 0.61438074621 -0.50113320802 0.60632900507 
0.56927444777 -0.50476652846 0.64829779227 0.51775673645 -0.5071558494 0.68603753924 0.46596652484 -0.50983045268 0.72266205128 
0.41174651897 -0.51504882337 0.74934238521 0.35767384465 -0.5208401882 0.77475890902 0.30504769819 -0.5322573137 0.78776711522 
0.25276053293 -0.5442853751 0.79964191933 0.20416826277 -0.56297263791 0.7991626406 0.15593006059 -0.58210423252 0.79777673626 
0.11201935584 -0.60666654914 0.78530985209 0.068409374351 -0.63140636883 0.77219344631 0.028971928177 -0.65860904347 0.75006492811 
-0.010206459493 -0.6857416977 0.72755919484 -0.045239911102 -0.71175402545 0.69901802046 -0.080052851861 -0.73755840402 0.67034565215 
-0.11071283829 -0.75944640639 0.63920246485 -0.14119790836 -0.78110364166 0.60809927072 -0.16769488534 -0.7974993871 0.5779079209 
-0.19406709852 -0.81371062422 0.54783522983 -0.21685235239 -0.82461724742 0.52117397802 -0.23956158148 -0.83540535068 0.49463402005 
-0.25933118609 -0.84161068278 0.47278409031 -0.27906183609 -0.84775117144 0.45102435599 -0.2965136419 -0.8500983188 0.43454105445 
-0.31381879388 -0.85242574222 0.41819626805 -0.31381879388 -0.85242574222 0.41819626805 -0.31381879388 -0.85242574222 0.41819626805 

FrenetNormal 3 240 double
0.13133567625 -0.1411242853 0.98124149741 0.13133567625 -0.1411242853 0.98124149741 0.13133567625 -0.1411242853 0.98124149741 
0.17701124078 -0.063219820483 0.97790395745 0.22307388637 0.015344851658 0.97453813325 0.22171188037 0.091456804818 0.96777841468 
0.21953919658 0.16752683116 0.96096068082 0.058582756271 0.3314395173 0.91035210012 -0.1064801605 0.49762399636 0.85861099753 
-0.39198954872 0.44151276159 0.14875961503 -0.68168837943 0.37766950198 -0.58398255981 -0.5991552975 0.27501718557 -0.72831877748 
-0.50029625448 0.17066271754 -0.84684771633 -0.41590716993 0.16188020013 -0.8900701505 -0.33228640176 0.15817229957 -0.92929400921 
-0.22413836759 0.18608028632 -0.94962482155 -0.11445737931 0.21596426602 -0.96877481849 0.020898368891 0.25148682602 -0.95704707638 
0.15810455024 0.28741577017 -0.94309391164 0.29720290122 0.29666261604 -0.89533370593 0.43645606608 0.30372638114 -0.84480746959 
0.55865022549 0.25918515111 -0.77355534594 0.67927933853 0.20990951787 -0.70040176474 0.76952784185 0.10688767467 -0.60649980488 
0.85668202382 -0.0016083195408 -0.51048458424 0.89332340941 -0.1240383207 -0.39587047743 0.92429980849 -0.24803101423 -0.27917051423 
0.91408585044 -0.34079475871 -0.16588364888 0.89882024482 -0.42972853775 -0.053015371003 0.86389571306 -0.48715628019 0.048061400899 
0.82634999116 -0.54038321775 0.147565972 0.77374664571 -0.57614943002 0.23914237888 0.71897152764 -0.60939726845 0.32957530054 
0.64838657532 -0.63019062019 0.41255636155 0.57534572641 -0.64904929439 0.49437985199 0.49510260003 -0.65261339496 0.56385904988 
0.41365909406 -0.65362839991 0.63128086567 0.34385970441 -0.63853241174 0.6832434006 0.2761355038 -0.62056515747 0.73245081617 
0.23750635214 -0.59161753454 0.76841427362 0.20440525978 -0.56058364156 0.80186137903 0.22400396555 -0.52127136983 0.8217488725 
0.25424909519 -0.48028669834 0.83889705042 0.40159636885 -0.40155846145 0.79903347317 0.57403695908 -0.3147423177 0.74695309124 
0.75963790526 -0.10972014219 0.45859842887 0.94822367445 0.12211164876 0.11665578537 0.92280105932 0.26863188327 -0.11651960704 
0.8461056021 0.39471289071 -0.32363617886 0.78517787819 0.47086771622 -0.39201208801 0.72823358163 0.53440961155 -0.42533772447 
0.6906804827 0.59097844757 -0.41125106307 0.65828461717 0.64569274653 -0.38455474797 0.6428244969 0.68825234764 -0.32776155909 
0.63209910112 0.72741386117 -0.26255419043 0.65452826253 0.72990505178 -0.14941621548 0.68668756573 0.72163429978 -0.022211649566 
0.72441165531 0.56665449648 0.21360054523 0.76384798685 0.36653344663 0.48283047198 0.65459513128 0.089697365366 0.65866654012 
0.49743131541 -0.21185800379 0.80440903159 0.36283969719 -0.34135497104 0.85525903192 0.23585668492 -0.41285472416 0.87412279926 
0.13989583201 -0.40710464311 0.89792990071 0.054863239775 -0.37414155229 0.92347840395 -0.022343515729 -0.30028710322 0.94674195183 
-0.096671802552 -0.21139215456 0.96916505638 -0.16338693463 -0.095664913866 0.97241909778 -0.22718073989 0.030358438891 0.96831756843 
-0.27831208222 0.16652528273 0.9341875384 -0.32437843938 0.30674952299 0.88804610809 -0.35976630367 0.43638643995 0.8107703551 
-0.39070479594 0.56161197218 0.72052196765 -0.41647224561 0.66045766161 0.60748736033 -0.43999683343 0.74786149149 0.4845695733 
-0.46128821272 0.80248675341 0.35333615582 -0.48157192474 0.84232168587 0.21835056361 -0.4994229475 0.85333201502 0.090878363518 
-0.51613270863 0.85081969077 -0.033069035341 -0.53217377352 0.82954971967 -0.13860338107 -0.54788884899 0.79913539574 -0.23516136339 
-0.5679483317 0.75867077277 -0.30977357199 -0.59020751428 0.71311739078 -0.37327399644 -0.63287938721 0.65023666243 -0.41110352879 
-0.68628100763 0.57824796998 -0.4354393871 -0.79387693367 0.33949999857 -0.35339862625 -0.93103339005 0.0097924204678 -0.21333425494 
-0.7129746647 -0.3528679978 0.036391059501 -0.29393892862 -0.73417278615 0.34816138124 -0.053532322124 -0.87685378578 0.46072316838 
0.082078528353 -0.87954216269 0.45641594854 0.16572024924 -0.88549328615 0.42970507139 0.21775912105 -0.89342851224 0.38937034858 
0.25868456556 -0.9010600133 0.34361647483 0.29260702848 -0.90850012598 0.29444779364 0.32570911188 -0.91080254219 0.24867697501 
0.35827566975 -0.90975118432 0.20512420556 0.39279747446 -0.9027451994 0.16979397898 0.42864113619 -0.89171355115 0.14002265463 
0.46328122921 -0.87745260855 0.1185815488 0.49707882414 -0.86093115991 0.10297159594 0.36737347345 -0.89580221104 0.082105661075 
0.11918772738 -0.96791420402 0.057431043601 -0.10925605205 -0.9733192385 0.030618183452 -0.32289335651 -0.9286940541 0.0022016412965 
-0.38568006345 -0.92071806173 -0.021503896609 -0.33138869471 -0.9411862184 -0.041553132708 -0.28210082294 -0.95384388196 -0.080730645067 
-0.23683091089 -0.96022948287 -0.13526874291 -0.19474520545 -0.95236533224 -0.21389565038 -0.15530484089 -0.9326629265 -0.31253479971 
-0.11456135755 -0.89180759064 -0.42046073855 -0.072698006511 -0.83277395549 -0.53636751215 -0.032272722671 -0.76484791561 -0.63474170545 