# vtk DataFile Version 5.1
vtk output
ASCII
DATASET POLYDATA
POINTS 240 float
0 0 0 -0.202351 -0.176062 -0.000700867 -0.404702 -0.352124 -0.00140173 
-0.607511 -0.538658 0.00950131 -0.810324 -0.725282 0.0205027 -1.01258 -0.920431 0.0410465 
-1.21483 -1.11573 0.0617534 -1.41551 -1.31761 0.089916 -1.61616 -1.51967 0.118271 
-1.81426 -1.72636 0.151839 -2.01227 -1.93321 0.185588 -2.20678 -2.14265 0.221925 
-2.40113 -2.3522 0.258376 -2.59102 -2.56217 0.294133 -2.78067 -2.77216 0.329853 
-2.96492 -2.98026 0.360716 -3.14884 -3.18823 0.391276 -3.32645 -3.39192 0.411916 
-3.5036 -3.5953 0.431842 -3.6736 -3.79214 0.436236 -3.84301 -3.98845 0.439359 
-4.00449 -4.17643 0.421475 -4.16523 -4.36365 0.401664 -4.31734 -4.54163 0.35639 
-4.46856 -4.71868 0.308523 -4.61048 -4.88683 0.232628 -4.75134 -5.05399 0.153589 
-4.88222 -5.21411 0.0464396 -5.01187 -5.37336 -0.0641575 -5.13074 -5.52884 -0.200345 
-5.24818 -5.68381 -0.339944 -5.35389 -5.83923 -0.500377 -5.45791 -5.99471 -0.663815 
-5.54901 -6.15513 -0.841872 -5.6381 -6.31631 -1.0222 -5.71278 -6.48629 -1.21056 
-5.78505 -6.65773 -1.40025 -5.84112 -6.84045 -1.59208 -5.8943 -7.02517 -1.78429 
-5.92919 -7.22175 -1.97429 -5.96061 -7.42058 -2.16386 -5.97152 -7.62982 -2.34891 
-5.97828 -7.84117 -2.53303 -5.96242 -8.0597 -2.71227 -5.9417 -8.27977 -2.89046 
-5.89665 -8.50254 -3.0649 -5.84608 -8.72593 -3.2385 -5.77031 -8.94704 -3.41017 
-5.6885 -9.16761 -3.58138 -5.58181 -9.38126 -3.75215 -5.46885 -9.59316 -3.9228 
-5.33286 -9.79443 -4.09326 -5.19074 -9.99288 -4.26367 -5.0291 -10.1783 -4.43231 
-4.862 -10.3602 -4.60046 -4.68046 -10.5281 -4.76312 -4.4947 -10.6919 -4.92418 
-4.30094 -10.8422 -5.0741 -4.10472 -10.9884 -5.22061 -3.9078 -11.122 -5.34899 
-3.71065 -11.2515 -5.47152 -3.52025 -11.3698 -5.56851 -3.33212 -11.4843 -5.65689 
-3.15758 -11.5884 -5.71301 -2.98784 -11.6887 -5.75777 -2.83724 -11.7785 -5.76532 
-2.69368 -11.8644 -5.75919 -2.57305 -11.9392 -5.71333 -2.4612 -12.0096 -5.65223 
-2.374 -12.0676 -5.55165 -2.29665 -12.1207 -5.43528 -2.24356 -12.1601 -5.28238 
-2.20059 -12.1938 -5.11425 -2.17972 -12.2131 -4.91464 -2.16843 -12.2262 -4.70138 
-2.17572 -12.225 -4.46305 -2.1914 -12.2174 -4.21341 -2.22131 -12.1966 -3.94563 
-2.2579 -12.1697 -3.66933 -2.30415 -12.132 -3.38158 -2.35512 -12.089 -3.08823 
-2.41139 -12.0385 -2.7893 -2.47036 -11.9841 -2.48753 -2.53084 -11.9266 -2.18495 
-2.59212 -11.8674 -1.88194 -2.65177 -11.8098 -1.58173 -2.71053 -11.7533 -1.28304 
-2.76516 -11.7037 -0.989692 -2.81745 -11.6582 -0.699362 -2.86367 -11.6248 -0.416054 
-2.90632 -11.5987 -0.136865 -2.94146 -11.5895 0.134226 -2.97203 -11.5905 0.400393 
-2.99415 -11.612 0.657803 -3.01094 -11.6463 0.909696 -3.01888 -11.7032 1.15246 
-3.02105 -11.7749 1.38927 -3.01455 -11.8697 1.61686 -3.00218 -11.9801 1.8382 
-2.98188 -12.1125 2.05049 -2.95602 -12.2605 2.25644 -2.9234 -12.4283 2.4538 
-2.88589 -12.6105 2.64493 -2.84311 -12.8092 2.82823 -2.79638 -13.0203 3.00565 
-2.74595 -13.2443 3.17618 -2.69266 -13.4781 3.34136 -2.63719 -13.7211 3.5007 
-2.57997 -13.9713 3.65533 -2.52183 -14.2272 3.80511 -2.46294 -14.4878 3.95085 
-2.40413 -14.7512 4.09254 -2.34538 -15.0171 4.23076 -2.28742 -15.2839 4.36549 
-2.23015 -15.5515 4.49712 -2.17415 -15.8188 4.62556 -2.11931 -16.0859 4.75108 
-2.06606 -16.3521 4.87348 -2.0143 -16.6177 4.99291 -1.96431 -16.8827 5.10918 
-1.91607 -17.1471 5.22232 -1.86967 -17.4113 5.33223 -1.82514 -17.6753 5.43886 
-1.78236 -17.9397 5.54233 -1.74142 -18.2046 5.64246 -1.70189 -18.4705 5.7397 
-1.6639 -18.7373 5.8338 -1.62671 -19.0054 5.92554 -1.5904 -19.2749 6.01462 
-1.55393 -19.5456 6.10208 -1.51727 -19.8177 6.18765 -1.4792 -20.0906 6.27244 
-1.43942 -20.3646 6.35629 -1.39675 -20.6387 6.44017 -1.35048 -20.913 6.52406 
-1.29974 -21.1866 6.60859 -1.24323 -21.4592 6.69392 -1.18072 -21.73 6.78018 
-1.1102 -21.9983 6.86768 -1.03233 -22.2635 6.95608 -0.944324 -22.5246 7.04573 
-0.847946 -22.7814 7.13599 -0.739603 -23.0321 7.2271 -0.622256 -23.2773 7.31837 
-0.49159 -23.5145 7.40986 -0.351741 -23.7452 7.50106 -0.197828 -23.9658 7.59182 
-0.0350111 -24.179 7.68203 0.141933 -24.3803 7.77135 0.327078 -24.5733 7.86011 
0.525707 -24.7528 7.94796 0.731491 -24.9235 8.03554 0.949473 -25.0794 8.12267 
1.17334 -25.2263 8.21008 1.4076 -25.3574 8.29796 1.64639 -25.4797 8.38677 
1.89348 -25.5857 8.47728 2.14377 -25.6834 8.56936 2.40014 -25.7651 8.66442 
2.65853 -25.8392 8.76155 2.9209 -25.8981 8.86275 3.18429 -25.9504 8.96628 
3.44981 -25.9891 9.07459 3.71562 -26.0221 9.18523 3.98207 -26.0433 9.30084 
4.24832 -26.0601 9.41852 4.51415 -26.0669 9.5408 4.77952 -26.0702 9.66474 
5.04384 -26.0656 9.79247 5.30762 -26.0584 9.9213 5.57009 -26.045 10.0527 
5.83207 -26.0296 10.1847 6.09277 -26.0093 10.318 6.35308 -25.9875 10.4515 
6.61235 -25.9618 10.585 6.87135 -25.9349 10.7183 7.12961 -25.9047 10.8508 
7.38772 -25.8736 10.9828 7.64536 -25.8396 11.1135 7.9029 -25.8048 11.2437 
8.16013 -25.7674 11.3724 8.41726 -25.7293 11.5008 8.67409 -25.6887 11.6282 
8.93076 -25.6474 11.7556 9.18693 -25.6037 11.8829 9.44285 -25.5593 12.0106 
9.69793 -25.5126 12.1393 9.95263 -25.4651 12.2688 10.206 -25.4152 12.4008 
10.4589 -25.3647 12.5339 10.7098 -25.3119 12.671 10.9602 -25.2585 12.8094 
11.2081 -25.2031 12.9531 11.4554 -25.1474 13.0982 11.6998 -25.0905 13.2494 
11.9434 -25.0337 13.4021 12.184 -24.9773 13.5613 12.4238 -24.9216 13.7219 
12.6601 -24.8688 13.8888 12.8956 -24.8172 14.057 13.1274 -24.7719 14.2309 
13.3583 -24.7286 14.4058 13.5851 -24.6956 14.5854 13.811 -24.6653 14.7656 
14.0321 -24.6498 14.9493 14.2521 -24.6376 15.1334 14.4662 -24.6448 15.3195 
14.6792 -24.6556 15.5057 14.8846 -24.6895 15.6927 15.0886 -24.7273 15.8795 
15.2833 -24.7913 16.0657 15.4764 -24.8589 16.2515 15.6581 -24.9542 16.4353 
15.838 -25.0528 16.6188 16.0042 -25.1792 16.799 16.1686 -25.3086 16.9787 
16.3172 -25.4645 17.154 16.4639 -25.6229 17.3287 16.5932 -25.8056 17.4978 
16.7207 -25.9902 17.6663 16.8298 -26.1962 17.828 16.9373 -26.4037 17.9892 
17.0261 -26.6292 18.1429 17.1136 -26.8559 18.2959 17.1831 -27.0972 18.4408 
17.2517 -27.3392 18.5851 17.304 -27.5927 18.7209 17.3555 -27.8467 18.8561 
17.3931 -28.1091 18.9828 17.4303 -28.3718 19.1091 17.456 -28.6405 19.227 
17.4815 -28.9094 19.3446 17.4981 -29.1823 19.4542 17.5146 -29.4553 19.5636 
17.5244 -29.7308 19.6655 17.5341 -30.0063 19.7673 17.5386 -30.2833 19.8619 
17.5431 -30.5604 19.9565 17.5432 -30.8383 20.0444 17.5434 -31.1163 20.1323 

LINES 2 240
OFFSETS vtktypeint64
0 240 
CONNECTIVITY vtktypeint64
0 1 2 3 4 5 6 7 8 
9 10 11 12 13 14 15 16 17 
18 19 20 21 22 23 24 25 26 
27 28 29 30 31 32 33 34 35 
36 37 38 39 40 41 42 43 44 
45 46 47 48 49 50 51 52 53 
54 55 56 57 58 59 60 61 62 
63 64 65 66 67 68 69 70 71 
72 73 74 75 76 77 78 79 80 
81 82 83 84 85 86 87 88 89 
90 91 92 93 94 95 96 97 98 
99 100 101 102 103 104 105 106 107 
108 109 110 111 112 113 114 115 116 
117 118 119 120 121 122 123 124 125 
126 127 128 129 130 131 132 133 134 
135 136 137 138 139 140 141 142 143 
144 145 146 147 148 149 150 151 152 
153 154 155 156 157 158 159 160 161 
162 163 164 165 166 167 168 169 170 
171 172 173 174 175 176 177 178 179 
180 181 182 183 184 185 186 187 188 
189 190 191 192 193 194 195 196 197 
198 199 200 201 202 203 204 205 206 
207 208 209 210 211 212 213 214 215 
216 217 218 219 220 221 222 223 224 
225 226 227 228 229 230 231 232 233 
234 235 236 237 238 239 
CELL_DATA 1
FIELD FieldData 3
Length 1 1 double
66.343264707 
Tortuosity 1 1 double
0.61798206155 
ClusterLabel 1 1 int
3 
POINT_DATA 240
FIELD FieldData 6
Curvature 1 240 double
0 0.046316511936 0.092633023873 0.083537227902 0.073971836101 0.066138847265 0.058335472154 0.051501516638 0.044692632317 
0.038320823274 0.031964216848 0.027507970784 0.023135073858 0.027957382633 0.033267932417 0.048968074434 0.065317565965 0.089624645706 
0.11450524532 0.1463300601 0.17872303793 0.21386322854 0.24925545702 0.27715319154 0.30428759798 0.31179574161 0.31710280903 
0.30057004934 0.28135882028 0.25173996261 0.22073342112 0.1946373248 0.16924946576 0.15807624031 0.14911111328 0.15128733513 
0.15532044845 0.16197310393 0.1690926085 0.17419351013 0.17891087721 0.18118326275 0.18296171263 0.18386376775 0.18457802399 
0.18550470087 0.18647955562 0.18690350281 0.18719546173 0.18514185521 0.1824956848 0.17678850339 0.17026722332 0.16176927275 
0.15271870462 0.14506778447 0.13782763058 0.13890880309 0.14255038372 0.16591996483 0.19564634611 0.2622395251 0.34125971456 
0.49005570123 0.66343179829 0.92661659927 1.2228344868 1.4198238963 1.578737262 1.4544160562 1.2168010219 0.95695613075 
0.68784879934 0.5061993105 0.36248334375 0.27015447628 0.20101247068 0.15435093365 0.11823578927 0.09120796714 0.068610214608 
0.049170751814 0.031330423064 0.020924347694 0.014426020896 0.026376913068 0.048391015588 0.074595171586 0.10317001574 0.13655679328 
0.17276657174 0.21152187553 0.25182513391 0.28819203073 0.32207848054 0.34337589815 0.35645547531 0.35378890292 0.34047704632 
0.3170956014 0.28666544465 0.25418345562 0.22021463163 0.18894243432 0.15969270704 0.1345480189 0.1125893313 0.093912962867 
0.077872396186 0.064731313795 0.053999033739 0.045600631126 0.039207904441 0.034686515726 0.03182853854 0.030483917075 0.030530606515 
0.031571820628 0.033558648365 0.035852890951 0.038449424808 0.040650040359 0.042448027125 0.043151970212 0.042705281155 0.04087595587 
0.037542710478 0.033281584495 0.027976592849 0.024372163103 0.022746569023 0.025446451029 0.03335292462 0.043020694547 0.054881776894 
0.067140360428 0.079911108953 0.092589460069 0.10514461464 0.11741846367 0.12930411105 0.14068856299 0.15135702144 0.16122547165 
0.16991057631 0.17754322389 0.1835635968 0.18838991066 0.19132130474 0.19296521104 0.19249191521 0.19102119589 0.18785032289 
0.18399499464 0.17892993153 0.17341013361 0.16705665524 0.16025040233 0.15258277351 0.14453913165 0.13575286406 0.12683927359 
0.11766450801 0.10840605675 0.098969222835 0.089533717636 0.080101157148 0.070946400474 0.062432135925 0.054343720631 0.047277343545 
0.040793100481 0.035764192468 0.031396334907 0.028751214884 0.026488181074 0.025263944153 0.024165088484 0.023422153785 0.022561617185 
0.021352194948 0.020239019518 0.019424541072 0.019085677105 0.020292560194 0.022049222827 0.025679208353 0.029465093789 0.033808621213 
0.037987412428 0.041546795498 0.044861497288 0.047207669006 0.049292966721 0.050289399028 0.051450541428 0.053337905601 0.055735026071 
0.060511009261 0.066067715013 0.075488997439 0.085581349072 0.099205643898 0.11318486354 0.12915560576 0.14517661617 0.16149923565 
0.17756003328 0.19193535273 0.20562626113 0.21457191959 0.22291407236 0.2267299325 0.22992427292 0.22805083713 0.22577158876 
0.21987384487 0.21376407027 0.20557253954 0.19724945473 0.1874924304 0.17767250378 0.16708377138 0.156454219 0.14525828943 
0.13407362613 0.12306922316 0.11210352649 0.10186679861 0.09169288529 0.082951143745 0.074280771429 0.067662264474 0.061099855979 
0.056706587936 0.052338211365 0.049425985888 0.046343512255 0.023171756127 0 
Torsion 1 240 double
0 0 0 -0.043268934407 -0.086904554699 -0.11196064457 -0.13669913562 -0.19755357858 -0.25934205478 
-0.45014968041 -0.64544492863 -1.1581394142 -1.6847549189 -1.4239119872 -1.1212571032 -0.76076467419 -0.39665739865 -0.2635791822 
-0.14715170874 -0.092651934699 -0.043218972429 -0.010667120832 0.020336005015 0.049510711747 0.078499190606 0.11630726008 0.15510444253 
0.21721682745 0.28218862399 0.38784533777 0.49892670718 0.62477126175 0.75274512188 0.74906671589 0.72493747244 0.57743954401 
0.40938016808 0.26069409997 0.11546070058 0.009013177946 -0.090065028109 -0.1624582936 -0.229460662 -0.26809248135 -0.30064489733 
-0.30052891053 -0.29300359526 -0.26163862592 -0.2245620728 -0.17645556969 -0.1255625529 -0.064257847232 -0.00018407537284 0.08714450922 
0.18097443931 0.31337716844 0.45710017554 0.59005937398 0.71970663128 0.71094609868 0.65758750045 0.53780179657 0.39562493349 
0.27958502886 0.17275246188 0.099648922491 0.038951462221 0.0015094855682 -0.027008875278 -0.054837009755 -0.082389053685 -0.11269433871 
-0.14414680753 -0.16863747294 -0.19010856098 -0.20344831619 -0.21311905536 -0.21776372667 -0.22005048959 -0.22331897034 -0.22706603852 
-0.30007778529 -0.40816025539 -0.80028653514 -1.3417178943 -1.0893101019 -0.40389913601 -0.13187387885 -0.093737904294 -0.069954933726 
-0.054592392167 -0.044004965088 -0.036321323843 -0.03137280441 -0.028147786392 -0.02659238588 -0.026126874572 -0.027031456444 -0.028862298494 
-0.031838426498 -0.035616254671 -0.04032769568 -0.04571566773 -0.053100124049 -0.06198194357 -0.073190711092 -0.086205468108 -0.10190400493 
-0.11975769827 -0.14416248238 -0.17400971113 -0.2039631358 -0.23400782258 -0.2456803409 -0.2410220428 -0.2126519024 -0.16248216505 
-0.11246342639 -0.062588260243 -0.023060566167 0.0062921137107 0.03193207126 0.053796378983 0.082876857497 0.11954675701 0.18606900202 
0.28506221931 0.4949328078 0.82954043887 1.1574779101 1.4776537406 1.4053218521 0.86052696848 0.46952271608 0.27003132527 
0.128949986 0.063127751583 0.014691926465 -0.010562019591 -0.028129489539 -0.035089622459 -0.037529809666 -0.033512931568 -0.026267098091 
-0.014245101449 9.7862528158e-05 0.017996350932 0.037063313101 0.05798459233 0.079190054943 0.10086284134 0.12167532982 0.14102140141 
0.15826936943 0.17180906141 0.18263468827 0.1884845291 0.19190468698 0.19070252122 0.18722582002 0.17925691136 0.16881884262 
0.15331583014 0.13611005725 0.11527471609 0.090361388537 0.056410361412 0.016289612082 -0.038055774554 -0.097765174792 -0.17034820767 
-0.24755044114 -0.33630067606 -0.40511993016 -0.4219978403 -0.41322219036 -0.33470092393 -0.23904654032 -0.094756211179 0.06188371366 
0.25516077239 0.44426534168 0.62042080579 0.75235817385 0.7405867297 0.70043744427 0.5635932922 0.43950641078 0.36105130515 
0.29509668769 0.27614390578 0.26758761847 0.30018412233 0.33942616638 0.40640611735 0.47025238679 0.52028196955 0.5593580632 
0.54731787434 0.5244709677 0.44813080807 0.37122794776 0.29136350497 0.21522739782 0.16001139625 0.10844668358 0.07878970429 
0.050382271707 0.030018796067 0.010291624784 -0.0050238362887 -0.019452384704 -0.027229088189 -0.034489006996 -0.037535143043 -0.040191306015 
-0.039370209066 -0.038247465913 -0.034163105477 -0.029779582191 -0.022135183841 -0.0140410715 -0.0004504548387 0.01312941568 0.026560183469 
0.039934894859 0.05241270386 0.065224448186 0.084325307791 0.10323372683 0.11775450097 0.13189014606 0.1349533309 0.13769081837 
0.1278346744 0.11715552568 0.058330599285 0 0 0 
FrenetTangent 3 240 double
-0.74495233405 -0.66684881021 0.018938962998 -0.74495233405 -0.66684881021 0.018938962998 -0.74495233405 -0.66684881021 0.018938962998 
-0.73579605815 -0.67576521893 0.037663288696 -0.72656218669 -0.68475719044 0.056546295121 -0.71804318911 -0.6920868307 0.071312256288 
-0.70953641159 -0.69938805503 0.086007840612 -0.70187815714 -0.7055197068 0.096926540785 -0.69424184726 -0.71162111099 0.10774756292 
-0.68758548553 -0.71690569614 0.11468991274 -0.68096320895 -0.72216187019 0.12149735221 -0.67549375609 -0.72687061583 0.12373950093 
-0.67007486567 -0.73155535145 0.1257814176 -0.6660112225 -0.73588146356 0.12188100952 -0.66201953936 -0.74018853371 0.11766507979 
-0.65948977181 -0.74415884164 0.10543436454 -0.65705137399 -0.74810810193 0.092702725207 -0.65577555718 -0.75136460337 0.069406000136 
-0.65458352999 -0.75457117624 0.045347827443 -0.65337140033 -0.75602908523 0.0083251110068 -0.65215762593 -0.75734392172 -0.029758340827 
-0.64843096889 -0.75499596647 -0.081654116515 -0.64447377215 -0.75231197528 -0.13481707788 -0.6345200076 -0.74390492719 -0.19888125441 
-0.62395548151 -0.73491497517 -0.26405573989 -0.60479955381 -0.72005415894 -0.33227572054 -0.58468010443 -0.70453492803 -0.40083725204 
-0.55652632186 -0.68664378565 -0.46253381194 -0.52738719654 -0.66846174846 -0.52338844137 -0.49351105754 -0.65360099722 -0.57078595739 
-0.45900331672 -0.6391830841 -0.61638919162 -0.42297431076 -0.63249935853 -0.6472151771 -0.38672589156 -0.62693114078 -0.67590982863 
-0.35024194567 -0.63037772023 -0.69168236732 -0.31372141311 -0.63522465652 -0.7054475875 -0.27653420955 -0.64754629432 -0.70898158619 
-0.23923589414 -0.66111371571 -0.7108103813 -0.20014455515 -0.67883045643 -0.70513756023 -0.16073366739 -0.69728667981 -0.69812781747 
-0.11854584832 -0.71581204978 -0.68649696443 -0.075830412308 -0.73435055759 -0.67398810043 -0.029961303261 -0.74909479505 -0.65988449679 
0.01654491145 -0.76307251323 -0.64545872352 0.065836382486 -0.77035638413 -0.63212921881 0.11572469416 -0.77620585918 -0.6190346288 
0.16727148564 -0.7738207265 -0.60867860884 0.21919442717 -0.76956795082 -0.59894370786 0.27096995031 -0.75707234519 -0.5920995535 
0.32271015445 -0.74260189489 -0.58594797384 0.37216236388 -0.72145874262 -0.58152046914 0.42103655358 -0.69862985512 -0.57752852022 
0.46583301345 -0.67202060088 -0.57340932255 0.50954497069 -0.64440592995 -0.56925628214 0.5484143432 -0.61655997657 -0.56298664215 
0.58592987482 -0.58864936357 -0.55612526465 0.61906305519 -0.56383220224 -0.54515883519 0.65091011074 -0.53992290172 -0.53298766222 
0.67974905729 -0.52152637811 -0.51433423333 0.70766243185 -0.50482609355 -0.49368626416 0.7341495464 -0.49509767769 -0.46270201568 
0.76017708827 -0.48761575286 -0.4283871883 0.78540161355 -0.48743403794 -0.37659470576 0.81035545909 -0.48971306794 -0.31891087878 
0.8308231837 -0.49688060877 -0.23079918156 0.84971057026 -0.50577023864 -0.13196857551 0.84653063518 -0.50865994161 0.012711413683 
0.83523398411 -0.5093427749 0.17425554379 0.76963365479 -0.48088164205 0.3625001988 0.68319586754 -0.44123735939 0.56099040405 
0.55767693532 -0.37319913975 0.71336790655 0.41652554511 -0.29380334531 0.84730032795 0.29235004343 -0.21776264601 0.92047503925 
0.17524782863 -0.14311990301 0.96833403801 0.087975055502 -0.082752652085 0.98874182523 0.013640353452 -0.028577180862 0.99724306288 
-0.040079537838 0.014657550438 0.99751739197 -0.084497624272 0.052955606406 0.99407957939 -0.1163495394 0.083905554877 0.98898890224 
-0.14230621367 0.11140824304 0.98312280714 -0.16036310538 0.13326993681 0.97774727978 -0.17456885308 0.15238164582 0.97261090419 
-0.18345577634 0.16617940927 0.96880092337 -0.18964962393 0.17728656738 0.96566253483 -0.19193534099 0.18254311209 0.96427920341 
-0.19216678431 0.18472433438 0.96381840202 -0.18915410947 0.17985231909 0.96528811609 -0.18437191562 0.1711330833 0.96781083859 
-0.17645653678 0.15374917705 0.97194925196 -0.16676843485 0.13146289146 0.97700180622 -0.15369294021 0.098858225417 0.98238656687 
-0.13863017516 0.060200109515 0.98796622196 -0.11989914261 0.010459253383 0.99115227292 -0.098937406842 -0.046021106942 0.9928827538 
-0.074660830036 -0.11183348976 0.98836464163 -0.048295449289 -0.18352632511 0.97990905986 -0.020240018582 -0.25924257567 0.96227673826 
0.0089186391831 -0.33758522229 0.93865404483 0.037211266956 -0.41277238705 0.90658134148 0.064918409665 -0.48582626832 0.86879595536 
0.089646912982 -0.55065108464 0.82687762359 0.11229036872 -0.60971555548 0.78206622987 0.1312226632 -0.6594766645 0.73793067761 
0.14746571038 -0.70249620697 0.69428486553 0.16037812678 -0.73776531634 0.65424378948 0.17079257008 -0.76722160088 0.61690626544 
0.17864117675 -0.79117767009 0.58401780163 0.18449838782 -0.81086491545 0.5545823398 0.18853705178 -0.82689715264 0.52930436304 
0.1911153673 -0.83999430752 0.50736497279 0.19247039988 -0.85074214737 0.48880773444 0.19280916664 -0.85953824859 0.47306028384 
0.19230462355 -0.86692271735 0.45970832636 0.19107536107 -0.87309406447 0.44841499577 0.18922639519 -0.87850432842 0.43857055863 
0.18682658185 -0.883238074 0.43001402678 0.18391666547 -0.88767618239 0.4220676331 0.18053778341 -0.89184249532 0.41468217289 
0.17668974629 -0.89602994185 0.40723477494 0.17239562732 -0.90023748263 0.39972848538 0.16769419445 -0.90460637825 0.39176127173 
0.16259223624 -0.90913393947 0.38334081607 0.15725680895 -0.91378130913 0.37438757197 0.15168395547 -0.91855051788 0.36489250912 
0.1462216539 -0.92325423118 0.35511769886 0.14087562243 -0.92788906134 0.34504867149 0.13615582881 -0.93221060486 0.33519179436 
0.13211720618 -0.93619138046 0.32556567712 0.12932451621 -0.93963602466 0.31671107737 0.12793350046 -0.94247752102 0.3087244348 
0.12840978615 -0.94461754759 0.30196359374 0.13105893168 -0.94594131838 0.29662913989 0.13609868775 -0.94643640937 0.29272428304 
0.14401603058 -0.9459340154 0.29054023738 0.15467943716 -0.94446491297 0.2896839962 0.16876247031 -0.9417919849 0.2904812474 
0.18574644106 -0.93795772773 0.29225483225 0.20646815836 -0.93262714267 0.29528638547 0.23002140623 -0.92587804526 0.29878467279 
0.25735002819 -0.91723759806 0.30290527224 0.28721227008 -0.90687953356 0.30694879933 0.32057090745 -0.89415115718 0.31088596658 
0.35594210868 -0.87940014307 0.31430810348 0.39418840114 -0.8617596465 0.31699448272 0.4336963333 -0.84186087566 0.31893481003 
0.47507044082 -0.8186217408 0.31977160218 0.51678808223 -0.79303875076 0.31990546172 0.5590319883 -0.76386517406 0.31896248832 
0.60066309472 -0.73247073608 0.31762750592 0.64132171472 -0.69755188779 0.31567042228 0.68049654295 -0.66079260664 0.31379608032 
0.71723135806 -0.62100683589 0.31205780246 0.75183969088 -0.57997444137 0.31089638107 0.782823338 -0.53681711998 0.31071823776 
0.81135413035 -0.49309523138 0.31147943117 0.83554964449 -0.44837550305 0.31390084763 0.85725271029 -0.40378205389 0.31739417145 
0.87438628746 -0.35942011653 0.32285265874 0.88921592438 -0.315843162 0.32927384695 0.89966245543 -0.27375958946 0.33752651495 
0.90817836822 -0.23302277534 0.34644778755 0.91288130992 -0.19494580908 0.35668955421 0.91616045864 -0.15854155761 0.36721610857 
0.91651900637 -0.12556851595 0.3783268428 0.91599238755 -0.094354836239 0.38933576415 0.91357896635 -0.066891375414 0.4001276633 
0.91076114504 -0.041124673024 0.41050318102 0.90704708566 -0.019118354192 0.41995590749 0.90331341026 0.0014251144951 0.42876070721 
0.89953450904 0.018595900906 0.43607167581 0.89597455933 0.034632652833 0.44263380757 0.89294009323 0.047947722 0.44739873092 
0.89022037816 0.060444237777 0.45143786639 0.88828754065 0.070894370079 0.45366253221 0.88666811397 0.080807419252 0.45525236127 
0.88586545493 0.089320797242 0.45518776728 0.88529145295 0.097486663664 0.4546752702 0.88533911238 0.10470773301 0.45294503661 
0.88549456506 0.11170228518 0.4509994812 0.88595601151 0.11805382086 0.44844268964 0.88637996023 0.12427169656 0.4459480922 
0.88669266564 0.13009304769 0.44363800401 0.88683214367 0.13583603075 0.44166034533 0.88643401943 0.14133580254 0.44071436444 
0.88577854151 0.14679205478 0.44026716866 0.88428666411 0.15210686846 0.4414410245 0.88247659444 0.15740537047 0.4432135352 
0.8795823141 0.16264829204 0.44702590693 0.87634183354 0.16785406732 0.45145851821 0.87186302144 0.17292697321 0.45810967866 
0.86706920968 0.17786887912 0.46529634449 0.86109099922 0.18231822506 0.47449651054 0.85487478498 0.18649157887 0.48408943567 
0.84771647239 0.18957246377 0.49523703215 0.84044448302 0.19214867864 0.50661372495 0.83269801659 0.19261844463 0.51894664586 
0.82497006244 0.19232570828 0.53137135456 0.81732373059 0.18867102983 0.54420076394 0.80979190081 0.18402598133 0.55702336931 
0.80279441409 0.17475920598 0.56981422266 0.79595325703 0.16428359052 0.58251827132 0.78988593177 0.14782421647 0.59479263677 
0.7839173374 0.12999051449 0.60691354794 0.77846837921 0.10492350755 0.61822680501 0.77294392683 0.078438522613 0.62931302058 
0.76699586807 0.043997105583 0.63912528104 0.76071305621 0.0082476230052 0.64861960568 0.75242172573 -0.035350252854 0.65620631541 
0.74354888191 -0.079993371283 0.66334494592 0.73093254601 -0.13136523876 0.6675990664 0.71757159254 -0.18332765054 0.67130840353 
0.69904795727 -0.23938450291 0.67124057611 0.67974805803 -0.29552831514 0.67062862934 0.65462617907 -0.35232432631 0.66593578744 
0.62884983301 -0.40880053659 0.66076475558 0.5977370629 -0.4626691397 0.65169463628 0.56619061092 -0.51595678316 0.64226122039 
0.5307771622 -0.56406420313 0.62958840984 0.49515697394 -0.61150923612 0.616673913 0.45750697931 -0.65245083323 0.60138649617 
0.41984409197 -0.69276267955 0.58596293869 0.38204067417 -0.7262102423 0.56905544817 0.34437233664 -0.75912155192 0.55209189192 
0.30835498002 -0.78547865662 0.53444308774 0.27257354916 -0.81141952414 0.51678812917 0.24006558807 -0.83158510062 0.49904777843 
0.20783036215 -0.85145016765 0.48134222895 0.17995889884 -0.86650708351 0.46419349968 0.15234365598 -0.8813640138 0.44710194588 
0.12955389838 -0.89245454891 0.43108719677 0.1069751072 -0.90342411582 0.41512857527 0.089206350627 -0.91163560776 0.40044966336 
0.071582171408 -0.91978015582 0.38581608953 0.058114591148 -0.92600006744 0.37248598535 0.044727377133 -0.93218652195 0.35918499193 
0.034447657947 -0.93707930149 0.34700961468 0.024203826071 -0.94195703627 0.3348493791 0.01605940187 -0.94595465195 0.32357493107 
0.0079834182094 -0.94991867421 0.3123952263 0.0079834182094 -0.94991867421 0.3123952263 0.0079834182094 -0.94991867421 0.3123952263 

FrenetNormal 3 240 double
0.3768894131 -0.39726797246 0.83673922362 0.3768894131 -0.39726797246 0.83673922362 0.3768894131 -0.39726797246 0.83673922362 
0.40433901004 -0.39429586273 0.82468788998 0.43202123068 -0.39129856562 0.81253442639 0.46092572909 -0.39648912896 0.79315085643 
0.48985112115 -0.40181965573 0.77364369491 0.52494578283 -0.42088362326 0.73778763627 0.56019999458 -0.44030276597 0.70150876134 
0.61135433148 -0.48855987484 0.61148690576 0.6630617162 -0.5378200434 0.51959572912 0.69421215513 -0.60719172336 0.22398494929 
0.72446097363 -0.67744548714 -0.080560900845 0.54431893462 -0.56579750399 -0.44385434592 0.35300569964 -0.444491021 -0.81026713231 
0.22544231173 -0.32695706293 -0.89889569265 0.10186328926 -0.20965888768 -0.97016273886 0.062959440493 -0.14589224031 -0.98486439304 
0.030158306945 -0.085983721076 -0.99548926221 0.034348013774 -0.040664134002 -0.99757778573 0.041564243907 0.0034618131684 -0.99896788097 
0.071516836447 0.046181233859 -0.99493208722 0.10355533379 0.088771615423 -0.9903985055 0.15269840269 0.13101230224 -0.97721792693 
0.20358360387 0.173217372 -0.96315663572 0.26730815469 0.20814636117 -0.93760710378 0.33247263259 0.24225934131 -0.910769171 
0.40850459186 0.25606870296 -0.87168012445 0.48586935545 0.2673879982 -0.83108858281 0.5759617638 0.24011228308 -0.77302997747 
0.66775119145 0.20769056657 -0.71264243031 0.76182759671 0.11820679158 -0.6135866309 0.8562338545 0.020492911996 -0.50895367971 
0.90346104327 -0.10610097428 -0.36083790328 0.94335944461 -0.2371810752 -0.20596751323 0.93208934489 -0.32082789844 -0.070463085065 
0.91229116167 -0.39656917541 0.061813682786 0.89559058445 -0.41402266451 0.14438908137 0.87944205583 -0.42108823102 0.21810681018 
0.88347565669 -0.39037811711 0.25448772425 0.89134386215 -0.35249062392 0.2837746435 0.91120059133 -0.28794615876 0.28550672657 
0.93347924449 -0.21801644673 0.28167217605 0.95265727439 -0.12965862234 0.25723956716 0.97117088501 -0.037351916739 0.22839308861 
0.97409256188 0.060127394083 0.19126310005 0.97347792388 0.1587798731 0.15225437726 0.95661053017 0.24844204227 0.12012943354 
0.93584924706 0.33595028304 0.089653728566 0.90729588332 0.40714477933 0.075530997471 0.87677399395 0.4742179086 0.065539543988 
0.84751766248 0.52255341924 0.076096804667 0.81859791555 0.56590552067 0.092119148901 0.79728009811 0.58575095682 0.13514859382 
0.77808755127 0.59902463708 0.18572841098 0.76435387018 0.57476574375 0.27346897502 0.75222224752 0.53949185599 0.37211541042 
0.72154489111 0.44896612654 0.4982992721 0.68516115508 0.34143983041 0.63295618803 0.61072171525 0.21402941333 0.7402389639 
0.52401988197 0.080211890614 0.83870118353 0.42686202744 -0.0039533292942 0.89565112728 0.32617967137 -0.071381817918 0.93860816906 
0.21875447081 -0.082923749496 0.96614515346 0.10895395002 -0.074778371205 0.98825007219 -0.027739809786 -0.021492456763 0.98693958938 
-0.17432533566 0.048396873274 0.97701654508 -0.33593653567 0.14537829931 0.9060899737 -0.50331340133 0.25275552961 0.81175507216 
-0.62574251319 0.34499994935 0.66966558265 -0.73019252353 0.43119124486 0.50847425795 -0.77903320004 0.49057923022 0.36349634265 
-0.80470332078 0.53879916968 0.22527401461 -0.80226275213 0.57718740705 0.11970531531 -0.78762959531 0.6113112917 0.028299635703 
-0.7599469026 0.64483177886 -0.039992083511 -0.72637600466 0.67808000131 -0.097854332794 -0.68467300975 0.71219598186 -0.14095271038 
-0.639154957 0.74671905881 -0.17712482718 -0.58870819392 0.78001317031 -0.20285560148 -0.53585868456 0.81270816116 -0.22349622131 
-0.46801133387 0.8484150486 -0.23412043037 -0.39257013946 0.88564694697 -0.23967303904 -0.037143574295 0.37087318383 -0.075772652794 
0.46545478832 -0.43405740138 0.17719917949 0.57242843428 -0.76879993049 0.25530536789 0.46360678024 -0.84707624716 0.23803029599 
0.40811507952 -0.886577884 0.21433029943 0.38279690503 -0.90414121515 0.18699514813 0.36667761983 -0.91724142754 0.14966641371 
0.35595501635 -0.92772327693 0.1064747772 0.34974674746 -0.93365995333 0.052160437924 0.34628368204 -0.9368326732 -0.0089177070937 
0.34348730705 -0.93304311032 -0.079627202933 0.34111103836 -0.92486635557 -0.15640576915 0.33677364461 -0.90761422323 -0.23743276003 
0.331156072 -0.88443788606 -0.32123302811 0.32234205271 -0.85339150437 -0.40178536909 0.31136705537 -0.81702452921 -0.48014192838 
0.29737156512 -0.77726827927 -0.54985373133 0.28126172983 -0.735139537 -0.61351420483 0.26301097057 -0.69434114411 -0.66729047705 
0.24320881715 -0.65450677251 -0.71390428457 0.22168511001 -0.61883134236 -0.75217310727 0.19887023759 -0.58627511828 -0.78418319135 
0.17259579019 -0.55900695245 -0.81008540047 0.14363629952 -0.53584295124 -0.83124716933 0.1111657138 -0.51732088842 -0.84776689377 
0.075875612344 -0.50252644279 -0.86055891588 0.033283501632 -0.49175831046 -0.86897225452 -0.015374893693 -0.48433511534 -0.87374791766 
-0.073616044824 -0.47908488508 -0.8726536581 -0.14009237672 -0.4757020465 -0.86651493371 -0.20987495788 -0.47151553638 -0.85393417364 