# vtk DataFile Version 5.1
vtk output
ASCII
DATASET POLYDATA
POINTS 240 float
0 0 0 -0.0405817 -0.288689 0.134248 -0.0811633 -0.577377 0.268495 
-0.149223 -0.854297 0.348478 -0.217516 -1.13112 0.428001 -0.311846 -1.39307 0.464176 
-0.406621 -1.65477 0.499609 -0.525979 -1.89863 0.502425 -0.645973 -2.14204 0.504396 
-0.789028 -2.36493 0.484217 -0.932886 -2.5871 0.463268 -1.09813 -2.78664 0.43016 
-1.26432 -2.98519 0.396519 -1.44999 -3.15987 0.359776 -1.63669 -3.33329 0.322868 
-1.84069 -3.48288 0.290249 -2.04577 -3.63099 0.257898 -2.26567 -3.75682 0.234728 
-2.48663 -3.88104 0.21222 -2.71968 -3.98608 0.200604 -2.95372 -4.08955 0.189879 
-3.19685 -4.17837 0.188256 -3.44081 -4.26583 0.187468 -3.69062 -4.34427 0.190743 
-3.94103 -4.42178 0.19443 -4.19371 -4.49643 0.194953 -4.44664 -4.57077 0.19512 
-4.69779 -4.64832 0.184244 -4.94872 -4.72627 0.172013 -5.19324 -4.81278 0.141719 
-5.4369 -4.90042 0.109016 -5.6689 -5.00057 0.0532638 -5.89922 -5.10253 -0.00581274 
-6.11212 -5.21906 -0.0902739 -6.3223 -5.33784 -0.178678 -6.50908 -5.47107 -0.292254 
-6.69196 -5.6067 -0.410025 -6.84579 -5.75454 -0.550778 -6.99444 -5.90457 -0.695628 
-7.10934 -6.0629 -0.859958 -7.21783 -6.22282 -1.02799 -7.28947 -6.38619 -1.2113 
-7.35366 -6.55025 -1.39771 -7.37999 -6.7129 -1.59498 -7.39822 -6.87525 -1.79458 
-7.37993 -7.03229 -2.00068 -7.35336 -7.18813 -2.20826 -7.29372 -7.33654 -2.4182 
-7.22616 -7.48316 -2.6287 -7.13051 -7.62239 -2.83767 -7.02776 -7.75973 -3.04624 
-6.90269 -7.89181 -3.24962 -6.77167 -8.02248 -3.45162 -6.62402 -8.15171 -3.64502 
-6.47172 -8.28053 -3.83603 -6.30766 -8.41261 -4.01532 -6.14015 -8.54564 -4.19118 
-5.96458 -8.68655 -4.35252 -5.78653 -8.82989 -4.5094 -5.60294 -8.9848 -4.64937 
-5.41755 -9.14343 -4.78389 -5.22829 -9.31566 -4.89952 -5.03771 -9.49248 -5.00878 
-4.84459 -9.68278 -5.09763 -4.65057 -9.87784 -5.17927 -4.45566 -10.0839 -5.23933 
-4.26042 -10.294 -5.29145 -4.0667 -10.5106 -5.32107 -3.87356 -10.7296 -5.34205 
-3.68529 -10.9486 -5.3398 -3.49897 -11.1676 -5.32826 -3.32164 -11.3791 -5.29294 
-3.14805 -11.5874 -5.24771 -2.98786 -11.7804 -5.17842 -2.83349 -11.9668 -5.09869 
-2.69642 -12.1311 -4.99511 -2.56716 -12.2853 -4.88076 -2.45778 -12.4126 -4.74353 
-2.35774 -12.5273 -4.59555 -2.27815 -12.6132 -4.4266 -2.20853 -12.6851 -4.24744 
-2.15764 -12.7301 -4.05028 -2.11623 -12.7614 -3.84402 -2.08978 -12.7711 -3.62369 
-2.07119 -12.7694 -3.39596 -2.06248 -12.7545 -3.15877 -2.05915 -12.7323 -2.9164 
-2.06047 -12.7069 -2.66939 -2.06442 -12.6796 -2.41975 -2.06879 -12.6591 -2.17002 
-2.07341 -12.6426 -1.92022 -2.07599 -12.6414 -1.67413 -2.07733 -12.6495 -1.43028 
-2.0762 -12.6789 -1.19277 -2.0735 -12.7217 -0.959251 -2.06967 -12.7884 -0.733298 
-2.0651 -12.8707 -0.512281 -2.06172 -12.9762 -0.298663 -2.05916 -13.0972 -0.0900475 
-2.06014 -13.2381 0.112364 -2.06361 -13.3928 0.310433 -2.07202 -13.5623 0.503949 
-2.08401 -13.7426 0.694164 -2.10067 -13.9322 0.881256 -2.12083 -14.1288 1.06601 
-2.14334 -14.3299 1.24824 -2.16769 -14.5344 1.42853 -2.19025 -14.7399 1.60582 
-2.21138 -14.9462 1.7807 -2.22553 -15.1513 1.95112 -2.23389 -15.3555 2.11784 
-2.23005 -15.5578 2.27823 -2.21573 -15.7584 2.43318 -2.18511 -15.957 2.58016 
-2.13999 -16.1539 2.72006 -2.07647 -16.3491 2.8513 -1.99604 -16.5428 2.97459 
-1.8977 -16.735 3.08996 -1.78235 -16.9259 3.19781 -1.65214 -17.1153 3.29995 
-1.50732 -17.3033 3.39649 -1.35276 -17.4897 3.49069 -1.18829 -17.6744 3.58249 
-1.0204 -17.8574 3.67579 -0.848928 -18.0385 3.77067 -0.680555 -18.2178 3.8706 
-0.515554 -18.3953 3.97603 -0.359235 -18.5715 4.08893 -0.212682 -18.7463 4.21025 
-0.0785061 -18.9206 4.33977 0.0412671 -19.0945 4.47884 0.147427 -19.2691 4.62495 
0.2372 -19.4448 4.77953 0.314726 -19.6225 4.93832 0.377003 -19.8028 5.10234 
0.430701 -19.986 5.26667 0.473346 -20.1731 5.43138 0.512652 -20.3634 5.59228 
0.547505 -20.5579 5.74807 0.584767 -20.7547 5.89665 0.625355 -20.9547 6.03527 
0.673584 -21.155 6.16471 0.732726 -21.3558 6.28104 0.803422 -21.554 6.38801 
0.891205 -21.7486 6.48113 0.992664 -21.9373 6.56641 1.11508 -22.1172 6.63969 
1.25141 -22.2881 6.70793 1.40985 -22.445 6.7682 1.58086 -22.5908 6.82681 
1.77256 -22.7183 6.88273 1.97441 -22.8337 6.94021 2.1936 -22.9287 7.00036 
2.42006 -23.0122 7.06452 2.65937 -23.0754 7.13577 2.90313 -23.1289 7.21233 
3.15504 -23.1648 7.29863 3.40907 -23.1939 7.39028 3.66713 -23.21 7.49209 
3.92572 -23.2225 7.59814 4.18536 -23.2275 7.71256 4.4447 -23.2316 7.82931 
4.70345 -23.2337 7.95085 4.96171 -23.2367 8.07244 5.21894 -23.2416 8.19413 
5.47593 -23.2482 8.31362 5.73236 -23.2582 8.42825 5.98894 -23.2693 8.53886 
6.24583 -23.2829 8.64021 6.50317 -23.2962 8.73647 6.76157 -23.3086 8.82048 
7.02046 -23.3188 8.8992 7.28057 -23.3232 8.96467 7.54089 -23.3235 9.02557 
7.80175 -23.313 9.07453 8.06223 -23.297 9.12042 8.32165 -23.2662 9.15798 
8.57987 -23.2294 9.19456 8.83471 -23.1757 9.22837 9.08751 -23.1167 9.26353 
9.33426 -23.0419 9.30272 9.57824 -22.9633 9.34544 9.81359 -22.8726 9.39914 
10.0457 -22.7801 9.45805 10.2674 -22.6818 9.53393 10.4859 -22.5841 9.61593 
10.6933 -22.488 9.71885 10.8979 -22.3946 9.82794 11.0921 -22.3105 9.95908 
11.2843 -22.2305 10.0956 11.4686 -22.1662 10.2521 11.6517 -22.1068 10.4125 
11.8307 -22.0672 10.5883 12.0097 -22.0328 10.7663 12.1888 -22.0197 10.9532 
12.369 -22.0112 11.1406 12.5538 -22.0234 11.33 12.7403 -22.0394 11.5184 
12.9349 -22.0734 11.7026 13.1316 -22.1103 11.885 13.3384 -22.1618 12.0586 
13.5471 -22.2153 12.2303 13.7658 -22.28 12.3912 13.9859 -22.3462 12.5503 
14.2138 -22.4212 12.699 14.4423 -22.4975 12.8465 14.6744 -22.5816 12.9859 
14.9061 -22.667 13.1247 15.1358 -22.7607 13.2588 15.3641 -22.856 13.3927 
15.5839 -22.9617 13.5254 15.8016 -23.0692 13.6583 16.0042 -23.19 13.7926 
16.2041 -23.3127 13.9272 16.3831 -23.4517 14.0644 16.5592 -23.5928 14.202 
16.7098 -23.7524 14.3418 16.8575 -23.914 14.4816 16.9769 -24.0954 14.6221 
17.0936 -24.2786 14.7623 17.1809 -24.4814 14.9002 17.266 -24.6857 15.0378 
17.3225 -24.908 15.1699 17.3772 -25.1314 15.3013 17.4056 -25.3702 15.4244 
17.4326 -25.6097 15.5467 17.4366 -25.8613 15.6584 17.4395 -26.1133 15.7693 
17.4235 -26.3738 15.8681 17.4068 -26.6345 15.9664 17.375 -26.9004 16.0523 
17.3429 -27.1663 16.1378 17.2997 -27.4347 16.212 17.2562 -27.7031 16.2859 
17.2051 -27.9718 16.3502 17.1538 -28.2404 16.4144 17.0975 -28.5081 16.4715 
17.0411 -28.7756 16.5286 16.9818 -29.0414 16.5814 16.9226 -29.3071 16.6342 

LINES 2 240
OFFSETS vtktypeint64
0 240 
CONNECTIVITY vtktypeint64
0 1 2 3 4 5 6 7 8 
9 10 11 12 13 14 15 16 17 
18 19 20 21 22 23 24 25 26 
27 28 29 30 31 32 33 34 35 
36 37 38 39 40 41 42 43 44 
45 46 47 48 49 50 51 52 53 
54 55 56 57 58 59 60 61 62 
63 64 65 66 67 68 69 70 71 
72 73 74 75 76 77 78 79 80 
81 82 83 84 85 86 87 88 89 
90 91 92 93 94 95 96 97 98 
99 100 101 102 103 104 105 106 107 
108 109 110 111 112 113 114 115 116 
117 118 119 120 121 122 123 124 125 
126 127 128 129 130 131 132 133 134 
135 136 137 138 139 140 141 142 143 
144 145 146 147 148 149 150 151 152 
153 154 155 156 157 158 159 160 161 
162 163 164 165 166 167 168 169 170 
171 172 173 174 175 176 177 178 179 
180 181 182 183 184 185 186 187 188 
189 190 191 192 193 194 195 196 197 
198 199 200 201 202 203 204 205 206 
207 208 209 210 211 212 213 214 215 
216 217 218 219 220 221 222 223 224 
225 226 227 228 229 230 231 232 233 
234 235 236 237 238 239 
CELL_DATA 1
FIELD FieldData 3
Length 1 1 double
62.640208464 
Tortuosity 1 1 double
0.66114337971 
ClusterLabel 1 1 int
1 
POINT_DATA 240
FIELD FieldData 6
Curvature 1 240 double
0 0.15065016525 0.30130033049 0.30630873816 0.31008289365 0.302615994 0.29495693957 0.28274517528 0.2704156685 
0.26024869561 0.25015694129 0.24553708069 0.24115721542 0.24041142266 0.23985858949 0.23684822244 0.23368425953 0.22168066363 
0.20903997708 0.18517509823 0.16039187638 0.12731009046 0.09346696839 0.066337998677 0.039892877816 0.062555485619 0.090725502244 
0.12858429002 0.16763132332 0.2031160509 0.23812580438 0.26582305997 0.29246562836 0.31106794495 0.32842129038 0.33964703955 
0.34985152268 0.35633291825 0.36215079326 0.36521070715 0.36774660842 0.36607691708 0.36355761107 0.35445604003 0.34394398362 
0.32626612469 0.3069630322 0.28273882357 0.25733559752 0.23118891824 0.2048544192 0.18296778239 0.16226408768 0.15182842068 
0.14426338508 0.14777973346 0.15454822714 0.16567685024 0.17814705164 0.18803070286 0.19708091014 0.2007551284 0.20261721552 
0.20057060099 0.19714705745 0.1938545295 0.19061019119 0.19153536691 0.19406047245 0.20481380821 0.21885843608 0.24619283699 
0.27906464334 0.33094482246 0.39106959698 0.46843433564 0.5535780825 0.62386670269 0.68718625111 0.68813537705 0.65867892202 
0.5800809366 0.47660116365 0.37135834194 0.26518878947 0.17663316021 0.097685125409 0.074161268892 0.081995829032 0.1218089867 
0.18038292159 0.23565273198 0.28891327746 0.3283806183 0.35915635075 0.36672651548 0.35914860128 0.33433843926 0.29787830689 
0.25726840571 0.21375366636 0.17394555006 0.1368233925 0.10467865282 0.076266976534 0.057268153702 0.045574829071 0.054880278814 
0.081048380708 0.11593348193 0.15806039797 0.20191101019 0.24724292379 0.28414728631 0.31356049229 0.32464665635 0.31888376575 
0.29675625543 0.25906894276 0.215222647 0.16532001788 0.119398686 0.077526130978 0.064110757514 0.080624488792 0.10937590108 
0.15143847516 0.18978784916 0.22395987306 0.24787836615 0.25986547796 0.25890701213 0.24236590657 0.2175496411 0.18242845953 
0.15099262809 0.12430522856 0.117077938 0.13579745939 0.1656708628 0.21093662339 0.25663698371 0.30295820079 0.34417944477 
0.37785697856 0.40317235627 0.41567762255 0.41992413684 0.41106437078 0.39673128019 0.3733976115 0.34729270909 0.31646411282 
0.28458042792 0.25083193518 0.2171009399 0.18340202329 0.15074444597 0.12006795318 0.090712990346 0.063968049178 0.041419515184 
0.027478995904 0.023073927676 0.038994426165 0.055094554206 0.071592780171 0.087411316872 0.10166279222 0.11527109775 0.12733579575 
0.13866195704 0.14814177658 0.15651675486 0.16201244988 0.16642233911 0.16788019387 0.16898755114 0.16909994779 0.17045552655 
0.17549921226 0.18238662339 0.19499594099 0.20867371812 0.22582398876 0.24220947436 0.25598902575 0.26715057625 0.26894773898 
0.26809712106 0.25729084788 0.24520114338 0.22803118988 0.21131276242 0.1964789654 0.18280113119 0.17422004213 0.16616767887 
0.16058270271 0.15458208259 0.14652402488 0.13774375322 0.12516235546 0.11224742113 0.097460976009 0.083745350726 0.076454644444 
0.071808508016 0.084186790035 0.098211944498 0.12365541458 0.14944390596 0.17782005715 0.20579438964 0.2304923543 0.25422433636 
0.26934297354 0.28322729517 0.28499288227 0.28576023667 0.27564685461 0.26506455378 0.24875102343 0.23232489113 0.21433640674 
0.1964029954 0.17935075298 0.16239142464 0.14718197799 0.13203071688 0.11820608594 0.10441845281 0.091694506782 0.078995169498 
0.067247370191 0.055506979616 0.044199999838 0.032850011439 0.01642500572 0 
Torsion 1 240 double
0 0 0 -0.10096360767 -0.20278283913 -0.24594215234 -0.2880987319 -0.33885447869 -0.38983261773 
-0.43098322909 -0.47179201339 -0.47568500813 -0.47795888929 -0.43991486885 -0.39973007487 -0.34195175041 -0.28307383029 -0.22021026511 
-0.15705944624 -0.072172802729 0.01449222643 0.26881291457 0.53851485582 2.2198609343 4.0449855824 2.6343722169 0.8608723452 
0.45996269952 0.227389591 0.15975457945 0.11411131417 0.093058007511 0.075551329493 0.061082510479 0.047085591892 0.031952937799 
0.016630994455 0.0017845368459 -0.012977180731 -0.023595326721 -0.033426194108 -0.035519950783 -0.036050654787 -0.026909023045 -0.015694747929 
0.0077085659088 0.033876403993 0.0794608128 0.12969710834 0.21293555139 0.30451137906 0.42987611334 0.56422725895 0.63898185081 
0.69707504054 0.62649418809 0.51815030152 0.39838744166 0.27511105156 0.18660775366 0.10930911879 0.054315155832 0.0068396216013 
-0.029179501843 -0.061162844215 -0.086025438481 -0.10826890701 -0.12298159576 -0.13480456669 -0.13594832765 -0.13282040462 -0.12207278526 
-0.10815029243 -0.093804514023 -0.079275141879 -0.066122691056 -0.053591534001 -0.043588252604 -0.034770888183 -0.02726087899 -0.020388205472 
-0.006546932835 0.010822744419 0.071424705947 0.15475132972 0.83848955509 1.8497250177 1.8826996009 1.3621844761 0.8200265402 
0.26517148856 0.0094872763795 -0.064268722614 -0.11126410949 -0.14139664489 -0.16883991227 -0.19452768524 -0.22111587876 -0.2483128073 
-0.26912692333 -0.2854730706 -0.26515692334 -0.21827389597 0.0076527480269 0.3678621045 1.070726053 2.0395308788 1.8984028672 
0.86596515278 0.30080273847 0.12383826577 0.029348748324 0.0057361455504 -0.0013103397975 0.0063686125665 0.02156493385 0.043672384623 
0.08016505777 0.13033548334 0.24365051964 0.41905775651 1.1353865006 2.4018049131 2.5993011542 1.6725861459 0.99226978106 
0.57996597575 0.33506339907 0.27848720459 0.25382929581 0.26631266495 0.30714162945 0.38209029208 0.53591191129 0.78795268397 
1.1925231301 1.7936221938 1.9647437577 1.5625619885 1.191162198 0.86224153817 0.63399763007 0.54957765303 0.4931217497 
0.47802937207 0.46976451811 0.47195884934 0.47312079412 0.47264438647 0.46829738917 0.4575854222 0.44452329922 0.42745522852 
0.41195933172 0.3992421609 0.39246701856 0.3965855951 0.41439720185 0.45825896363 0.5808856235 0.85907295712 1.5927769977 
3.2608742834 3.8367147509 2.0843235797 0.83822632783 0.71418587028 0.62414324026 0.6124844904 0.604188884 0.60396482189 
0.60350172805 0.60244105486 0.60561743327 0.61983582493 0.64085317377 0.68035518747 0.72382336999 0.77855035429 0.82287148183 
0.83632190096 0.83458094054 0.78569431945 0.73184632312 0.66187385729 0.59753284011 0.55238046279 0.51552042989 0.50832147507 
0.50782996862 0.532558468 0.56197441213 0.60994482506 0.65393868889 0.68133478257 0.69552924491 0.65151651457 0.59822481056 
0.50163122943 0.40316190732 0.29540766732 0.18340388762 0.049034109481 -0.10373131984 -0.3597167919 -0.62234908949 -0.92486234022 
-1.15126246 -0.88768429939 -0.62916229514 -0.4056963084 -0.19820451815 -0.1105192016 -0.028185314863 0.01051383652 0.047322269841 
0.067271800438 0.08664387412 0.10034637081 0.11370396505 0.12330212244 0.13252806463 0.1372047098 0.1417914802 0.14513123797 
0.14823061518 0.14748390348 0.14641081133 0.13919088741 0.13183977406 0.12149754148 0.11085602632 0.091610136882 0.071854407653 
0.032384873047 -0.00636757324 -0.0031703529212 0 0 0 
FrenetTangent 3 240 double
-0.17723675683 -0.92058975768 0.34799659494 -0.17723675683 -0.92058975768 0.34799659494 -0.17723675683 -0.92058975768 0.34799659494 
-0.22992209788 -0.92904381673 0.27501208803 -0.28305392488 -0.93756952036 0.20140906836 -0.33605505127 -0.92812888458 0.13546502514 
-0.38905394347 -0.91838113188 0.069651904591 -0.44006365588 -0.89450931338 0.017790884703 -0.49102192398 -0.87027221732 -0.033709304996 
-0.53955328253 -0.83635656734 -0.068376414325 -0.58800022684 -0.80210427201 -0.10245802521 -0.63382543494 -0.76156320177 -0.1193546459 
-0.6795356546 -0.72074630807 -0.13549753895 -0.7215810863 -0.67607069522 -0.13587756481 -0.76343192749 -0.63119019463 -0.13542062427 
-0.79952369732 -0.58491687585 -0.12249097202 -0.83525552518 -0.53855650592 -0.10878177528 -0.86307101541 -0.49416094951 -0.088037480869 
-0.89031595879 -0.44990700127 -0.066786152388 -0.9089656656 -0.41171822533 -0.045472094982 -0.92691212578 -0.37402569076 -0.024152905209 
-0.93760491729 -0.34609056194 -0.0096251062765 -0.94763223461 -0.31905060795 0.004279629276 -0.95253512577 -0.30401611692 0.0063637554742 
-0.95691608463 -0.29020440452 0.0072439307196 -0.95719037521 -0.28900136459 -0.0062077713534 -0.95700410486 -0.2892123814 -0.02126678677 
-0.9515637705 -0.30124583262 -0.050817454546 -0.94547906979 -0.31472920504 -0.082145400441 -0.93116898214 -0.3379431491 -0.12586102504 
-0.91576217624 -0.36245450271 -0.17122834013 -0.8888699791 -0.39324304658 -0.22472774406 -0.86032123514 -0.42493695443 -0.27940004542 
-0.81848117312 -0.45854448845 -0.33684953043 -0.77457644034 -0.49244928478 -0.3947304226 -0.71763772465 -0.52392580582 -0.45061308329 
-0.65852667848 -0.55499761431 -0.5061627054 -0.5881541054 -0.58000463836 -0.55638154746 -0.51577452753 -0.60393080974 -0.60565034952 
-0.43483268463 -0.61910480354 -0.64742597661 -0.35226401138 -0.6326158836 -0.68777790046 -0.26486976667 -0.63588240933 -0.71903141556 
-0.17650065904 -0.63707932813 -0.74844686828 -0.088307873756 -0.62841816796 -0.76766712383 -0.00015287183016 -0.61764456231 -0.78470269427 
0.082426516243 -0.59981688533 -0.79158490385 0.1637413321 -0.58038931588 -0.79616428932 0.23545256254 -0.55857800139 -0.79206028126 
0.30486293396 -0.53619558133 -0.78587587683 0.363178224 -0.51647667817 -0.77319326698 0.41869054612 -0.49743066351 -0.75886900523 
0.46384176571 -0.48506319672 -0.73981724814 0.50623737293 -0.47447193947 -0.71950817845 0.54008326104 -0.47279744288 -0.69512496589 
0.5715389051 -0.47361580411 -0.66960274564 0.59618899291 -0.48357597656 -0.63963777033 0.6188417979 -0.49621907188 -0.608368943 
0.63578222123 -0.51623828311 -0.5720327861 0.65096498868 -0.53852706846 -0.53413745086 0.66107057371 -0.56479972185 -0.4912482789 
0.66954017774 -0.59235606605 -0.44674998179 0.67368676475 -0.61992291224 -0.39850710646 0.67637615501 -0.64749329842 -0.34900201376 
0.67592656818 -0.67192876123 -0.29762599225 0.67437120534 -0.69525987604 -0.24559089354 0.67095811068 -0.71393473183 -0.19290492621 
0.66686171237 -0.73089694064 -0.13997955892 0.66175064125 -0.74284450089 -0.086078138413 0.65625021893 -0.75286783552 -0.031802185849 
0.64977275735 -0.75758823121 0.025453238098 0.64290448006 -0.76018745131 0.083900450599 0.63387866755 -0.75615039554 0.14871508263 
0.62395388203 -0.74934822482 0.21618280612 0.6088655215 -0.73224727165 0.2937095937 0.59153753807 -0.7106793767 0.37559934882 
0.56379283262 -0.67208102703 0.46794726473 0.53134789895 -0.62579820388 0.56501410685 0.48363074504 -0.55700386235 0.66244004848 
0.42874884584 -0.47764856157 0.76003445655 0.36299977821 -0.38388156881 0.83840895924 0.29195296595 -0.2830888762 0.90741375805 
0.22462127509 -0.18914904325 0.94968495467 0.15917065834 -0.098679012661 0.97842015019 0.10721233734 -0.028982367282 0.99136150812 
0.062346120515 0.029794934589 0.99600097705 0.031122223607 0.066456534948 0.99678592145 0.0073395921082 0.091055025391 0.99546839792 
-0.0062900383404 0.095961345387 0.99532066284 -0.014175207668 0.08972604263 0.99583478174 -0.015515307609 0.065343808783 0.9972037167 
-0.013015633508 0.030315375364 0.99907414375 -0.0074580047188 -0.021065818029 0.99810029555 -4.08088891e-05 -0.082391257352 0.99539682051 
0.0066719319711 -0.15474116947 0.98508939433 0.0129407697 -0.23403800964 0.96999043731 0.015294482388 -0.31430115815 0.94586435008 
0.015092488454 -0.39519509126 0.91584555285 0.010006657578 -0.46745879935 0.88113392032 0.0016190777848 -0.53388798912 0.84324966675 
-0.01012340377 -0.58808733939 0.80691174339 -0.024214316558 -0.63372580201 0.77165625118 -0.038863993769 -0.66869465343 0.74159416879 
-0.053918572737 -0.69593190252 0.71529542685 -0.066458841176 -0.7160102212 0.69456213137 -0.077113376719 -0.73071934207 0.67800292073 
-0.082239736896 -0.74182730687 0.66543142711 -0.083075572908 -0.75014034457 0.65595487804 -0.075627895735 -0.75760823984 0.64813483215 
-0.061528306459 -0.76439746014 0.64164500849 -0.037000289332 -0.77166365978 0.63418034792 -0.0038086552224 -0.77932611918 0.62590582284 
0.040373700532 -0.78676305406 0.61390131766 0.094001207699 -0.7940061788 0.59869136085 0.15570700574 -0.79843806158 0.57794240324 
0.22459350677 -0.8003710626 0.55226988936 0.29452094965 -0.7972157445 0.52237857059 0.36540538745 -0.78938245558 0.48860867314 
0.42989099947 -0.77731005857 0.45535201218 0.48829248206 -0.76120703418 0.4225833466 0.53680684258 -0.74419009723 0.3953128438 
0.5755988664 -0.7262744796 0.37344886773 0.6045349464 -0.71038109646 0.35981036072 0.62344803267 -0.69654422298 0.3545367375 
0.63328185439 -0.68602666613 0.35800288454 0.63356679441 -0.6790001147 0.37066085892 0.62490644342 -0.67518606069 0.39086622217 
0.60651612678 -0.6748663021 0.41928102594 0.57927055876 -0.67672033887 0.45215189608 0.54206283296 -0.68101989539 0.49003584089 
0.4979188838 -0.68620712598 0.52748905408 0.4457036929 -0.69242728637 0.56444105231 0.39145320804 -0.69902514698 0.59613053782 
0.33475283229 -0.70607764674 0.62148551728 0.28220873541 -0.71417525558 0.63924985421 0.23484038203 -0.72357432102 0.64756169291 
0.19631195499 -0.73490890868 0.64860300625 0.16917343307 -0.74873734228 0.64027652731 0.15320111137 -0.76422224899 0.62606008538 
0.15211705665 -0.78191578649 0.60399035949 0.16278486091 -0.79919582102 0.57740808298 0.18967023058 -0.81590522143 0.54459848665 
0.22732738181 -0.82856058762 0.50879526413 0.2803727924 -0.83542447634 0.46871543278 0.34103143739 -0.83420560364 0.42804165784 
0.41295132492 -0.82103097967 0.38648934135 0.48719609162 -0.79763561235 0.34758258693 0.56500237533 -0.75858293605 0.31272860844 
0.6394813093 -0.71073682337 0.28327934573 0.7086798839 -0.64893590947 0.26240713196 0.7708615343 -0.58256675507 0.24785413853 
0.82150424267 -0.50868538298 0.24369275188 0.86428876123 -0.43498821964 0.24482940321 0.89367863808 -0.3616050485 0.25499680107 
0.91653115535 -0.29203575975 0.26840712307 0.92782926962 -0.22920728639 0.28754912491 0.93492807017 -0.17216206111 0.30776851219 
0.93432812891 -0.1257194573 0.32996310611 0.93190248893 -0.085421195462 0.35147879747 0.92600356849 -0.056812169574 0.37170291813 
0.92007737893 -0.033599580485 0.3900023484 0.91409733288 -0.021044954074 0.40450051515 0.90916191569 -0.012551655773 0.41622435034 
0.90636932691 -0.012389286926 0.42225724895 0.90505453414 -0.01453244816 0.4250018903 0.90688978023 -0.02159002878 0.42073735167 
0.91012833654 -0.02892910157 0.41310339889 0.9164769317 -0.036892021871 0.39800209583 0.92376701593 -0.043203386117 0.38003542908 
0.93322775552 -0.045706996124 0.35546250718 0.94290635421 -0.045099508796 0.32914986926 0.95310781473 -0.037025387863 0.29866191289 
0.96270731974 -0.025198757399 0.26801410661 0.970801936 -0.0039908531075 0.23696667555 0.9775880445 0.020571808036 0.20748709406 
0.98096410246 0.053877168853 0.18209342358 0.98265672149 0.089264527307 0.15979859504 0.97977249096 0.13031231683 0.14592874303 
0.97525513504 0.17168897339 0.13618116356 0.96610181031 0.213999188 0.13813551903 0.95564648799 0.25490430771 0.14457698507 
0.94132857283 0.29164097922 0.1643302125 0.92606660079 0.32551292725 0.18826819345 0.90787479708 0.35049435414 0.22519334051 
0.8890119413 0.37147323603 0.26531174497 0.8679681663 0.37944384664 0.31580823603 0.84649754694 0.38285945422 0.3677944195 
0.82357249491 0.37075431077 0.42485659188 0.80068625356 0.35441873389 0.48121303935 0.77793883503 0.32295122206 0.53504516311 
0.75598205636 0.28852023898 0.58624401141 0.73699808361 0.24294660399 0.627541744 0.71952837035 0.1961456578 0.66526880466 
0.70805260095 0.14448660484 0.68886195563 0.69844549222 0.093092518824 0.70894915373 0.69663801065 0.042804381769 0.71440280948 
0.69652483623 -0.006302521095 0.71701632649 0.70388201603 -0.050201255025 0.70710741364 0.71234031045 -0.092551137751 0.6952747794 
0.72593713975 -0.1276730482 0.67446477864 0.73987212623 -0.16131654289 0.6527348861 0.75548099078 -0.18764187962 0.6264515293 
0.77076667879 -0.21287807773 0.60019458299 0.78435143764 -0.23238196729 0.57407663929 0.79718620134 -0.25136363262 0.54871870445 
0.80581265895 -0.26741503981 0.52762526375 0.81345410417 -0.28354651891 0.50771622671 0.81518547505 -0.30015842955 0.49491361172 
0.81579111102 -0.31735220947 0.48337137683 0.80914982844 -0.33829177284 0.47994283886 0.80124243893 -0.36012363104 0.4775600249 
0.78455670809 -0.38814206664 0.48242756417 0.76647037447 -0.41709519405 0.48791631225 0.73787951998 -0.45305851003 0.49806412641 
0.70787329072 -0.4897047466 0.50828395402 0.66632631324 -0.53191941259 0.51909096829 0.62358840334 -0.57435646671 0.52944987475 
0.57023134603 -0.61877648173 0.53581315321 0.51617558996 -0.66292302676 0.54141811278 0.45525988249 -0.70438459365 0.53957775968 
0.39424469055 -0.74525840057 0.53695939366 0.33214511795 -0.77972562386 0.52586068683 0.27038996885 -0.81355352812 0.51418443277 
0.21284444019 -0.8395675331 0.49544926799 0.15583162654 -0.86505814735 0.476397396 0.10621023358 -0.88328671512 0.45295121161 
0.057126778707 -0.90115440368 0.42939374103 0.016650333253 -0.91324802483 0.40405569151 -0.023380696197 -0.92511845823 0.37873903663 
-0.055023057565 -0.93278552237 0.35382531402 -0.086337722099 -0.94032419505 0.3290061434 -0.11018089883 -0.94493554257 0.30634275812 
-0.1338022624 -0.94947900507 0.2837995874 -0.15104649762 -0.9520707735 0.26471258542 -0.16815775875 -0.95462968248 0.24573806676 
-0.18012735483 -0.95591802591 0.23111290313 -0.19202762732 -0.95719204764 0.21657246718 -0.19987247006 -0.95762824924 0.20698860045 
-0.20765138976 -0.95806078529 0.19748527041 -0.20765138976 -0.95806078529 0.19748527041 -0.20765138976 -0.95806078529 0.19748527041 

FrenetNormal 3 240 double
-0.56178627359 -0.19569181788 -0.80380401543 -0.56178627359 -0.19569181788 -0.80380401543 -0.56178627359 -0.19569181788 -0.80380401543 
-0.58147225073 -0.093299133628 -0.80126805598 -0.60132505818 0.0099612852388 -0.79871060535 -0.62220156704 0.11335998424 -0.766633924 
-0.64309557507 0.21676104701 -0.73405264041 -0.66542701671 0.31406014994 -0.66617854874 -0.68779563336 0.41120144356 -0.59739171203 
-0.70389537076 0.49421807952 -0.49153573633 -0.71977706018 0.57674342303 -0.38439039927 -0.71521160423 0.63501637739 -0.25404297857 
-0.70974934367 0.69222563048 -0.12267792263 -0.67791215481 0.72308466703 0.0022095809059 -0.64467452729 0.75254457705 0.12675314361 
-0.59407841728 0.76544625284 0.22244893998 -0.54239740211 0.77731303899 0.31634175095 -0.48728077334 0.78403168057 0.37608948505 
-0.43191653277 0.79037928471 0.43337631271 -0.38564387691 0.80116141385 0.45483370237 -0.34011507798 0.81230636777 0.47335959255 
-0.31663211695 0.84592909437 0.42337264433 -0.29517170985 0.88161400195 0.36710011459 -0.25813909965 0.80018275327 -0.1104841018 
-0.21952043172 0.70682300719 -0.63097969368 -0.069651151802 0.25531413085 -0.80306715087 0.092694832264 -0.23636100309 -0.93608079855 
0.16132676043 -0.35487407477 -0.91540356334 0.21846545531 -0.42762198786 -0.87587744626 0.27708494892 -0.44777505543 -0.84758438726 
0.33590188236 -0.46091547694 -0.82078906934 0.40145849653 -0.455165586 -0.79140242752 0.46798718004 -0.44669113076 -0.76164203705 
0.53614878809 -0.42425107104 -0.72521592596 0.60456405431 -0.39964159704 -0.68775436311 0.66854550055 -0.36201026438 -0.64380464065 
0.73178797678 -0.32220862196 -0.59877355825 0.78593567587 -0.27081667618 -0.54850195384 0.83846252359 -0.21735913178 -0.49729639502 
0.87877727595 -0.15529684533 -0.44171230523 0.91677173019 -0.091599657896 -0.38529629455 0.94085081968 -0.024453300843 -0.32495596552 
0.96211872436 0.043389858154 -0.26382284491 0.96986900221 0.10736427907 -0.19945735723 0.97472264573 0.17050968468 -0.13439921946 
0.96922899966 0.22192816395 -0.067239914601 0.96138854564 0.27068692796 0.00039594362185 0.94861413982 0.29899765437 0.071127802287 
0.93465764137 0.32240937176 0.14260141106 0.91942612091 0.31284675656 0.22286217218 0.90387248962 0.29495378365 0.30534284548 
0.87736881478 0.22450838633 0.40277638396 0.84795289431 0.14008628039 0.50418674828 0.777160903 0.005642457543 0.5998911266 
0.69480140801 -0.14278593132 0.69400028302 0.58150681532 -0.27112591046 0.74706983837 0.45913344397 -0.39357037805 0.78809516298 
0.35377745739 -0.45909565842 0.80758258649 0.25365758921 -0.50710734273 0.82044296351 0.1779888987 -0.51734965527 0.83433940102 
0.110198921 -0.5154218369 0.84856968024 0.059140610983 -0.49268026873 0.86639898749 0.013722188944 -0.46292282984 0.88544145025 
-0.01954072708 -0.42063027839 0.90524849126 -0.048521589848 -0.37392194864 0.92532487233 -0.068624021412 -0.31935388059 0.94322996722 
-0.085460823109 -0.26189487432 0.9603364281 -0.096605100979 -0.19882190815 0.97313617404 -0.10556503831 -0.13359474806 0.98428334331 
-0.11468567838 -0.065133931379 0.98895153027 -0.12387059953 0.0046203479413 0.99102812431 -0.14025373692 0.076064640634 0.98453982866 
-0.15963613107 0.14821310557 0.97448282898 -0.19024749276 0.22370708258 0.95209949427 -0.22572925002 0.30065212507 0.92436979737 
-0.27185703127 0.3822481842 0.8765324934 -0.32278850628 0.4659428728 0.81962224476 -0.37788719838 0.5467662872 0.73562640995 
-0.43494088121 0.62624268408 0.63892375695 -0.48298802046 0.68837583045 0.52430203873 -0.52664446972 0.74205414219 0.4009447762 
-0.55609150548 0.77291695581 0.28546995242 -0.57834390149 0.7922276185 0.17398623686 -0.60004936662 0.79184386272 0.088048569404 
-0.62146734242 0.78110791263 0.015538952879 -0.70223369478 0.69243894443 -0.023790931836 -0.8153718889 0.56126105727 -0.045022781019 
-0.60429357331 0.034300731228 -0.008538099437 -0.20977696934 -0.7165891326 0.06060198771 -0.0032840542678 -0.99335275103 0.064928271712 
0.092901629984 -0.99196230551 0.031230457869 0.12429721653 -0.9903509067 -0.019974165769 0.11629341934 -0.9886051444 -0.081824822391 
0.092631992634 -0.98029703658 -0.15462131877 0.059104114447 -0.96785375212 -0.23431519362 0.016461598155 -0.94487037722 -0.3142348426 
-0.032130751343 -0.91500666551 -0.39430187192 -0.088443397137 -0.87672715632 -0.46409368165 -0.14997539817 -0.8327580939 -0.52693886405 
-0.2169723685 -0.78450110723 -0.57442857728 -0.28779481734 -0.73324257357 -0.61116946208 -0.35442565862 -0.68296488766 -0.63435672194 
-0.41801910312 -0.63339796099 -0.64772251446 -0.43610651615 -0.60512167056 -0.6655343521 -0.42006440557 -0.59281335732 -0.6866807236 
-0.15759112036 -0.59038745012 -0.67684102783 0.29614218098 -0.59563146999 -0.64295244403 0.61662360436 -0.50934805913 -0.52431630867 
0.83009973179 -0.34956534785 -0.33762532132 0.93492247603 -0.24884708453 -0.2482693301 0.94947933269 -0.19719774722 -0.23977625874 
0.95422829527 -0.14939935902 -0.25422265586 0.95054859889 -0.10491038021 -0.28838265869 0.94111573536 -0.053468855816 -0.32742000509 