# vtk DataFile Version 5.1
vtk output
ASCII
DATASET POLYDATA
POINTS 240 float
0 0 0 -0.0900427 -0.36894 0.0661521 -0.180085 -0.73788 0.132304 
-0.297456 -1.07942 0.0870289 -0.415059 -1.42072 0.0408092 -0.555465 -1.74001 -0.0819872 
-0.696262 -2.05891 -0.206093 -0.855292 -2.36106 -0.372544 -1.01479 -2.66277 -0.54009 
-1.18774 -2.95271 -0.716937 -1.36116 -3.24223 -0.894108 -1.54289 -3.52418 -1.05052 
-1.72499 -3.80581 -1.20602 -1.91003 -4.0825 -1.31706 -2.09523 -4.35892 -1.42575 
-2.27818 -4.63059 -1.47712 -2.461 -4.90197 -1.52492 -2.63731 -5.16593 -1.51718 
-2.81316 -5.42936 -1.50543 -2.97996 -5.68052 -1.45548 -3.14601 -5.93067 -1.40241 
-3.30258 -6.16326 -1.34041 -3.45828 -6.39424 -1.27759 -3.60602 -6.60428 -1.23928 
-3.75295 -6.81219 -1.20347 -3.89488 -6.9996 -1.2202 -4.03625 -7.18471 -1.24283 
-4.1763 -7.35407 -1.33325 -4.31618 -7.52149 -1.43198 -4.45855 -7.68092 -1.59826 
-4.60124 -7.83929 -1.77355 -4.74962 -7.99808 -2.00309 -4.89882 -8.15693 -2.24044 
-5.05534 -8.3231 -2.51163 -5.21299 -8.49041 -2.78807 -5.37693 -8.66944 -3.07721 
-5.54191 -8.85043 -3.36847 -5.70875 -9.04518 -3.65552 -5.87592 -9.2424 -3.94183 
-6.03735 -9.45348 -4.21407 -6.19769 -9.66719 -4.48365 -6.34289 -9.89288 -4.73694 
-6.48503 -10.121 -4.98695 -6.60311 -10.3569 -5.22506 -6.71603 -10.5944 -5.46062 
-6.79861 -10.833 -5.69287 -6.8743 -11.0718 -5.92436 -6.91709 -11.3036 -6.16243 
-6.95198 -11.5338 -6.40208 -6.95456 -11.7492 -6.6565 -6.94898 -11.961 -6.91465 
-6.91316 -12.1536 -7.19159 -6.86931 -12.341 -7.47353 -6.79717 -12.5099 -7.7723 
-6.71711 -12.6736 -8.07579 -6.60973 -12.8252 -8.38767 -6.49433 -12.9732 -8.70203 
-6.35175 -13.1195 -9.01073 -6.20081 -13.2652 -9.31769 -6.02306 -13.4201 -9.60145 
-5.83667 -13.578 -9.87775 -5.62562 -13.7526 -10.1129 -5.40625 -13.9328 -10.3342 
-5.16788 -14.1314 -10.4989 -4.9228 -14.3364 -10.6437 -4.66906 -14.5547 -10.7223 
-4.41214 -14.7778 -10.7765 -4.16139 -15.004 -10.7615 -3.91301 -15.2312 -10.7201 
-3.68814 -15.4481 -10.614 -3.47267 -15.6608 -10.4821 -3.29697 -15.8497 -10.2959 
-3.13784 -16.0286 -10.0872 -3.02964 -16.1726 -9.83805 -2.94352 -16.3013 -9.57136 
-2.91127 -16.3888 -9.27871 -2.90333 -16.4575 -8.97435 -2.94299 -16.4844 -8.65647 
-3.00497 -16.4916 -8.33226 -3.10051 -16.4623 -8.00348 -3.2124 -16.4152 -7.67247 
-3.33938 -16.3407 -7.34206 -3.47402 -16.2525 -7.01195 -3.60503 -16.1472 -6.68474 
-3.73413 -16.0329 -6.35907 -3.84432 -15.9093 -6.03714 -3.94419 -15.7807 -5.71725 
-4.01569 -15.6467 -5.40156 -4.07113 -15.5096 -5.08823 -4.09544 -15.3673 -4.77945 
-4.10149 -15.222 -4.47334 -4.07994 -15.0698 -4.17163 -4.04161 -14.9135 -3.87261 
-3.98401 -14.7498 -3.57682 -3.91426 -14.5815 -3.28305 -3.83595 -14.4082 -2.99005 
-3.75205 -14.2317 -2.69754 -3.66993 -14.0565 -2.4025 -3.58901 -13.8823 -2.10575 
-3.5175 -13.7189 -1.8033 -3.45257 -13.563 -1.49686 -3.40082 -13.4286 -1.18282 
-3.35862 -13.3096 -0.863267 -3.32977 -13.2214 -0.536239 -3.31091 -13.1562 -0.203604 
-3.30307 -13.1279 0.134162 -3.30376 -13.1281 0.475912 -3.312 -13.167 0.818523 
-3.32631 -13.2369 1.16182 -3.34479 -13.3432 1.50031 -3.36675 -13.4798 1.83481 
-3.39038 -13.6479 2.15797 -3.41544 -13.8429 2.4714 -3.44096 -14.0631 2.76677 
-3.46689 -14.3057 3.04609 -3.49348 -14.5674 3.30122 -3.52069 -14.8466 3.5341 
-3.55007 -15.1397 3.73834 -3.58153 -15.4458 3.91535 -3.61745 -15.7612 4.06196 
-3.65775 -16.0856 4.17866 -3.70468 -16.4155 4.26634 -3.75835 -16.7509 4.32452 
-3.81962 -17.0887 4.35787 -3.88891 -17.429 4.36512 -3.96499 -17.7699 4.35348 
-4.04846 -18.1113 4.3213 -4.13617 -18.4525 4.27651 -4.22865 -18.7936 4.21753 
-4.32195 -19.1349 4.15127 -4.4162 -19.4765 4.07655 -4.50819 -19.8198 3.99822 
-4.59745 -20.1648 3.91554 -4.68261 -20.5128 3.83113 -4.76267 -20.8644 3.74456 
-4.83815 -21.2198 3.65691 -4.90772 -21.5799 3.56789 -4.97273 -21.9435 3.47814 
-5.03168 -22.3116 3.38742 -5.08531 -22.6814 3.29696 -5.13162 -23.0535 3.20688 
-5.17007 -23.424 3.11926 -5.19729 -23.7924 3.03517 -5.21223 -24.1549 2.95694 
-5.20899 -24.5087 2.88738 -5.18825 -24.8522 2.82767 -5.14071 -25.1797 2.78302 
-5.07149 -25.493 2.75179 -4.96787 -25.7838 2.74182 -4.84118 -26.0584 2.74753 
-4.67655 -26.3066 2.77902 -4.49111 -26.5393 2.82665 -4.27018 -26.7456 2.90178 
-4.0339 -26.9395 2.99176 -3.77049 -27.1117 3.10801 -3.49888 -27.2763 3.23658 
-3.21225 -27.4272 3.38777 -2.92427 -27.5753 3.54819 -2.63372 -27.7182 3.72619 
-2.34662 -27.8616 3.91033 -2.06633 -28.0061 4.10661 -1.79128 -28.1519 4.30634 
-1.52701 -28.3004 4.51315 -1.26694 -28.4485 4.72124 -1.01586 -28.5958 4.93204 
-0.76619 -28.7394 5.14252 -0.519638 -28.875 5.35229 -0.271453 -29.0037 5.56072 
-0.0195062 -29.1161 5.76607 0.235977 -29.219 5.96973 0.499947 -29.2992 6.16935 
0.767491 -29.3687 6.36767 1.04397 -29.4114 6.56275 1.32229 -29.4433 6.7576 
1.6054 -29.4472 6.95185 1.8876 -29.4409 7.14735 2.16736 -29.4072 7.34625 
2.44358 -29.3647 7.54785 2.70977 -29.2972 7.75712 2.97085 -29.2229 7.97007 
3.21681 -29.1287 8.19396 3.45766 -29.0306 8.42178 3.68266 -28.9202 8.66182 
3.90398 -28.809 8.90528 4.11331 -28.6951 9.15988 4.32122 -28.5833 9.41681 
4.5243 -28.4784 9.68165 4.72836 -28.3771 9.94734 4.93593 -28.2892 10.216 
5.14647 -28.2053 10.4839 5.36814 -28.1365 10.7488 5.59403 -28.0709 11.0113 
5.83661 -28.0178 11.2645 6.08381 -27.9666 11.5142 6.35026 -27.9231 11.7492 
6.62082 -27.8804 11.9804 6.9095 -27.8411 12.1939 7.20091 -27.8022 12.404 
7.50505 -27.7652 12.5977 7.80981 -27.7288 12.7893 8.11766 -27.6957 12.9704 
8.42368 -27.6638 13.1514 8.72011 -27.6381 13.3318 9.01247 -27.6141 13.5141 
9.28208 -27.5993 13.7071 9.54621 -27.5863 13.9035 9.77751 -27.5844 14.1202 
10.0031 -27.5844 14.3408 10.192 -27.5965 14.5862 10.3761 -27.6108 14.835 
10.5272 -27.6391 15.1069 10.6752 -27.6699 15.3808 10.7998 -27.7184 15.6701 
10.9228 -27.7699 15.9599 11.0336 -27.8446 16.2543 11.1438 -27.9227 16.5479 
11.2493 -28.0301 16.8349 11.3543 -28.141 17.1204 11.4549 -28.286 17.3904 
11.5546 -28.4343 17.6584 11.6437 -28.6194 17.9053 11.7312 -28.8074 18.1502 
11.7989 -29.032 18.3711 11.8646 -29.259 18.5903 11.9038 -29.5197 18.7854 
11.9413 -29.7822 18.9792 11.9526 -30.0725 19.1518 11.9629 -30.3638 19.3236 
11.9558 -30.6734 19.4812 11.9487 -30.9832 19.6386 11.9405 -31.2983 19.7927 
11.9331 -31.6131 19.9472 11.9462 -31.9168 20.1131 11.9606 -32.2197 20.2796 
12.0198 -32.4933 20.4743 12.0803 -32.766 20.6699 12.2114 -32.9899 20.9117 
12.3433 -33.2132 21.1541 12.5717 -33.3677 21.4613 12.8002 -33.5221 21.7686 

LINES 2 240
OFFSETS vtktypeint64
0 240 
CONNECTIVITY vtktypeint64
0 1 2 3 4 5 6 7 8 
9 10 11 12 13 14 15 16 17 
18 19 20 21 22 23 24 25 26 
27 28 29 30 31 32 33 34 35 
36 37 38 39 40 41 42 43 44 
45 46 47 48 49 50 51 52 53 
54 55 56 57 58 59 60 61 62 
63 64 65 66 67 68 69 70 71 
72 73 74 75 76 77 78 79 80 
81 82 83 84 85 86 87 88 89 
90 91 92 93 94 95 96 97 98 
99 100 101 102 103 104 105 106 107 
108 109 110 111 112 113 114 115 116 
117 118 119 120 121 122 123 124 125 
126 127 128 129 130 131 132 133 134 
135 136 137 138 139 140 141 142 143 
144 145 146 147 148 149 150 151 152 
153 154 155 156 157 158 159 160 161 
162 163 164 165 166 167 168 169 170 
171 172 173 174 175 176 177 178 179 
180 181 182 183 184 185 186 187 188 
189 190 191 192 193 194 195 196 197 
198 199 200 201 202 203 204 205 206 
207 208 209 210 211 212 213 214 215 
216 217 218 219 220 221 222 223 224 
225 226 227 228 229 230 231 232 233 
234 235 236 237 238 239 
CELL_DATA 1
FIELD FieldData 3
Length 1 1 double
82.519769851 
Tortuosity 1 1 double
0.96617904737 
ClusterLabel 1 1 int
1 
POINT_DATA 240
FIELD FieldData 6
Curvature 1 240 double
0 0.211801379 0.423602758 0.37086817779 0.31589176741 0.24653646654 0.17693537266 0.12492321299 0.073365939543 
0.074257852827 0.07697408565 0.11935973623 0.16348527356 0.20614144298 0.24871959287 0.26566565606 0.28100971383 0.25403003665 
0.2240000002 0.15645914239 0.085849217391 0.11461883388 0.1525058395 0.3075587217 0.4745451654 0.59009091901 0.69986762327 
0.62662077249 0.53092763667 0.39464870019 0.25295832363 0.16398503739 0.082615177646 0.047687012333 0.019973090815 0.032775577976 
0.052330799917 0.065972487829 0.078560278587 0.088281451886 0.097457967868 0.10725761823 0.11718315432 0.13051918992 0.14458604685 
0.16206598562 0.18032002541 0.19677789023 0.21280542146 0.2185754162 0.22175403329 0.21093738556 0.19639859293 0.17543726759 
0.15268039548 0.14142796636 0.13355184117 0.14865813982 0.17083595349 0.20583737716 0.24497085294 0.28480281376 0.32487021896 
0.35547385647 0.38274366671 0.39981879013 0.41314414368 0.42522591877 0.43683050678 0.456969822 0.4805230281 0.50996841685 
0.54186888171 0.55499643164 0.55998151245 0.52720451653 0.47738853478 0.40853210912 0.33074312954 0.26071237253 0.19446374903 
0.14814640218 0.11192084096 0.10592751015 0.11582547993 0.13778562839 0.16632514704 0.18830150182 0.20656448757 0.20945722525 
0.20333275074 0.18288402052 0.15372459426 0.11798105293 0.078088617176 0.05008411603 0.02983979442 0.046340604429 0.087683193561 
0.12863844564 0.16932256178 0.20704797117 0.24262939015 0.26942912518 0.28964259726 0.29769979024 0.29632225915 0.28700748343 
0.27131885975 0.25511867513 0.23849350142 0.22623017041 0.21771529795 0.2148659813 0.21705271426 0.22321736226 0.23303912569 
0.24278830161 0.25246845989 0.25687588936 0.25609846883 0.24776946348 0.23176088037 0.21038662155 0.18336915205 0.15505543971 
0.12533177901 0.097706901027 0.072443153608 0.053345619865 0.041423316579 0.036026704023 0.038485089569 0.040528202183 0.042054182468 
0.042444899408 0.041372873193 0.041481025466 0.043162749054 0.04858460915 0.059167857625 0.075881546964 0.10135300897 0.13538330457 
0.18207354153 0.23733824187 0.30573829037 0.37020668143 0.42843570307 0.46083821606 0.45077047037 0.41915465489 0.35080917499 
0.28309683849 0.21650354613 0.15987746475 0.12152460351 0.092888550868 0.082738134125 0.074943896073 0.071803110933 0.065460319288 
0.052549309169 0.042638602322 0.039123278764 0.045824354561 0.075167180278 0.10352626711 0.12961728928 0.15141325331 0.16290107781 
0.17063678405 0.16899219464 0.16675877025 0.16299080619 0.1600355232 0.15928971683 0.15797370575 0.15503904906 0.14983781199 
0.13791238649 0.12404883454 0.1041704074 0.085663864338 0.071615944525 0.062140476247 0.068245213198 0.075632750188 0.087608764244 
0.098845918669 0.10730496088 0.11493701357 0.11929556601 0.12252314478 0.12103013774 0.11761450549 0.10572184393 0.091946098889 
0.069382630965 0.049185122185 0.040699111167 0.040227503408 0.081936965431 0.12439109631 0.17102364685 0.21511731201 0.24397766488 
0.26785799482 0.25967942707 0.2483657715 0.21531550709 0.18367539821 0.1626114558 0.14480189943 0.15352810611 0.16324421472 
0.18178694885 0.2000616808 0.21570511856 0.23094411601 0.24177471407 0.25166310536 0.25003563635 0.24705817595 0.22534958509 
0.20253361755 0.16199962305 0.12098480296 0.070914434191 0.024740836272 0.067413613774 0.11124522003 0.18839315309 0.26546461867 
0.33957934192 0.41258895795 0.42094980102 0.42744440003 0.21372220002 0 
Torsion 1 240 double
0 0 0 -0.048887904375 -0.098190113024 -0.19025894684 -0.28305883407 -0.86519243358 -1.4599812153 
-1.3426179069 -1.200484091 -0.7420665934 -0.26977700449 -0.16928673597 -0.088538024288 -0.055303228343 -0.02503805213 0.011975981201 
0.04947641865 0.50539860614 0.99555530045 0.78047532284 0.50069473313 0.295979717 0.098910268557 0.062657171243 0.04443955256 
0.043652666318 0.045003511413 0.059832008182 0.076457525173 0.20316320878 0.3457458395 1.8201863217 3.501517344 2.1156003922 
0.21847544478 -0.17747419751 -0.3058876468 -0.40028396981 -0.48821703883 -0.54944698762 -0.60528236667 -0.61010992695 -0.60400724035 
-0.55097653709 -0.48730236613 -0.40416238911 -0.31635872938 -0.22375124297 -0.12993015823 -0.015672555347 0.10402029172 0.28919343518 
0.49267289806 0.64898215318 0.79144797776 0.68311876927 0.49762185831 0.3508756485 0.21661577573 0.14418241577 0.092589453371 
0.0670792822 0.050757367028 0.044844620332 0.042760533305 0.043117422232 0.044410964722 0.039980890893 0.033261370537 0.02097964218 
0.0063803271568 -0.010334596175 -0.02796713275 -0.050621415806 -0.075541608859 -0.11924316156 -0.17175572249 -0.29619504116 -0.45569865424 
-0.76414010972 -1.147993131 -1.0817181499 -0.77883742406 -0.50074757899 -0.23618003253 -0.083871062979 0.0049231854375 0.061987382863 
0.10043661704 0.12720736266 0.14687632471 0.14312322505 0.12461101803 -0.057508765375 -0.34642793891 -0.26901743888 0.056052558791 
0.1904275612 0.19131606693 0.18508811389 0.17370330668 0.16163853946 0.14906380223 0.13714893438 0.12574620395 0.11321056992 
0.099765179974 0.082495769447 0.062049480284 0.036953760248 0.0078624355546 -0.021730462577 -0.051769203766 -0.076780537758 -0.097169900618 
-0.11159312039 -0.12034361394 -0.12463054789 -0.12452831491 -0.11968315828 -0.11001468947 -0.091784757449 -0.064550527915 -0.015007906499 
0.058799983278 0.20854838391 0.44372985925 0.72887514757 1.0721601455 1.0845628897 0.69868143944 0.40872019783 0.23820676321 
0.13357571042 0.11383157269 0.1224950991 0.169035511 0.19189870119 0.18208732542 0.16040236454 0.12175513924 0.090647294051 
0.070691448628 0.057021632238 0.052981477345 0.052484988044 0.057612141964 0.067793903439 0.086287686226 0.11659822012 0.16705094339 
0.24500976493 0.37158401599 0.5311624138 0.751248414 0.86292258109 0.76834984616 0.61556665489 0.34781781237 0.021521244513 
-0.42487322147 -0.89312756077 -1.4079779458 -1.5217877711 -0.74680500458 -0.17169127841 -0.05738672865 0.042729541262 0.10879393953 
0.17693997 0.25029008095 0.31748051664 0.36861846526 0.40416784572 0.39733580647 0.3872125291 0.36774638222 0.3608188761 
0.39108933754 0.45657597451 0.63135419072 0.84609768845 1.1907283511 1.3995115625 1.1454071621 0.90646648879 0.72176530122 
0.5618747113 0.49527196852 0.42962380564 0.36775418817 0.30346628316 0.2290846563 0.15199747882 0.062981282735 -0.066476361592 
-0.3846607644 -0.78067884514 -1.5619736317 -2.059966488 -1.0668965528 -0.21108956324 -0.12548021243 -0.045322626706 0.0021243684796 
0.053289356766 0.12838892564 0.21578518685 0.38843851494 0.55997075917 0.72309487444 0.84288061995 0.60929196594 0.37837275188 
0.17125604404 -0.024923899137 -0.11372469843 -0.19566695764 -0.20285113004 -0.20692566356 -0.17299349976 -0.13857822484 -0.097459783008 
-0.055042438965 0.0081573404949 0.17156581896 2.2222381288 4.1039963978 2.1345145377 0.22818893295 0.13760566905 0.048948363571 
0.034761450287 0.020638805386 0.01027586091 0 0 0 
FrenetTangent 3 240 double
-0.2805084593 -0.95947378866 0.026926810879 -0.2805084593 -0.95947378866 0.026926810879 -0.2805084593 -0.95947378866 0.026926810879 
-0.31698257182 -0.93280259653 -0.10169864146 -0.35376578699 -0.90590537736 -0.23141414001 -0.37727481836 -0.86804394685 -0.30996207438 
-0.4005569406 -0.82999509393 -0.38763534954 -0.41875823595 -0.80370759646 -0.42033813086 -0.4368281306 -0.77772427198 -0.45187788217 
-0.45488421113 -0.76922759848 -0.4482799504 -0.47293981117 -0.76133915632 -0.44345983836 -0.49161395144 -0.76853140417 -0.40723233521 
-0.51031522067 -0.77638508579 -0.36962731491 -0.52607545932 -0.79139341816 -0.30295013406 -0.54167953705 -0.8067816435 -0.23472929866 
-0.54893248382 -0.81777900869 -0.14879284792 -0.55566348491 -0.82850194512 -0.06174917123 -0.55379786771 -0.82858777441 0.018589196327 
-0.55131267441 -0.82790696535 0.098444298359 -0.54833772584 -0.8219750188 0.14675657504 -0.54532270637 -0.81561343374 0.1924880751 
-0.55105552989 -0.81254323079 0.18976148271 -0.55759090781 -0.80977498949 0.18258919376 -0.57313917934 -0.80793941983 0.11193480832 
-0.58960543078 -0.8061988445 0.034814653787 -0.5961712988 -0.78311414321 -0.10140456925 -0.60162684345 -0.75763570818 -0.24425172521 
-0.58040976208 -0.70285137497 -0.3824586965 -0.55592150959 -0.64447292217 -0.52009658855 -0.5249671279 -0.59102387472 -0.60447647173 
-0.49315059565 -0.53823208132 -0.68175528707 -0.47220391157 -0.50850281747 -0.71863005927 -0.45282499406 -0.48209987999 -0.74967732525 
-0.44407620079 -0.47513698845 -0.75956100539 -0.43697868897 -0.47119390988 -0.76615713823 -0.43493541383 -0.48045612409 -0.76145864721 
-0.43373451148 -0.49191922043 -0.75487771889 -0.43127020591 -0.51205944206 -0.74239532968 -0.42858073937 -0.53374608205 -0.72886119496 
-0.41863770235 -0.56020712644 -0.71402098496 -0.40731648694 -0.58757530765 -0.69893262066 -0.38432897121 -0.61495970577 -0.687488736 
-0.35898462712 -0.64234738003 -0.67678110986 -0.3207045912 -0.66355782533 -0.67439519179 -0.2796526213 -0.68344457871 -0.67379249689 
-0.22824921626 -0.69069037696 -0.68400596567 -0.17449806305 -0.69506915447 -0.69667258498 -0.11586163797 -0.68278394307 -0.71840374498 
-0.056054783184 -0.66650631766 -0.74230661786 0.0026745993575 -0.63523588857 -0.76893363944 0.061131778383 -0.60017780381 -0.79624886702 
0.11477718643 -0.55872213254 -0.81841757096 0.16714286815 -0.5155649755 -0.83921751861 0.2148586581 -0.47787133143 -0.84976368677 
0.26127447831 -0.44170512109 -0.8574432069 0.30627656222 -0.42004181383 -0.85294154569 0.35086374525 -0.40263479335 -0.84486497257 
0.39756836364 -0.40320225286 -0.82250743815 0.44492450059 -0.4093003216 -0.7957557618 0.49514724747 -0.43155921489 -0.75025205716 
0.54629367978 -0.45902548497 -0.6987060323 0.59599441447 -0.49569865982 -0.62352270181 0.64520783535 -0.5354752857 -0.54037174022 
0.68394981446 -0.57362085639 -0.43404342198 0.71900299022 -0.6111918508 -0.31955035312 0.73495200483 -0.6373099655 -0.19048732709 
0.74387420155 -0.65921552674 -0.056065236353 0.72975882914 -0.66489516632 0.082153321968 0.70680345927 -0.66434858015 0.22182866436 
0.65932628695 -0.64557154949 0.35791669906 0.60204039365 -0.61950234104 0.49256981068 0.51918737119 -0.57204433049 0.61588780383 
0.42568137824 -0.51567431906 0.73448283095 0.31280169553 -0.43764543787 0.82712067256 0.19151896666 -0.3502223481 0.90849997586 
0.071857682075 -0.25323884486 0.95280018801 -0.04707197521 -0.15194149652 0.98036959074 -0.14300289901 -0.05913703449 0.98093815579 
-0.22814429353 0.029683110504 0.96883966118 -0.28519635895 0.10218766321 0.94991825061 -0.32855487643 0.16673836468 0.92767066851 
-0.34827186148 0.21720594916 0.91083534612 -0.35601845036 0.2605428415 0.89674040841 -0.34444805165 0.29466111515 0.89070145107 
-0.32272385177 0.32393370461 0.88889704751 -0.28462725215 0.34814531984 0.89185290157 -0.23760025267 0.36959640367 0.89740525978 
-0.17906132734 0.3887261633 0.90157602032 -0.11400907553 0.40654254214 0.90496508744 -0.046763178608 0.42332578465 0.90236869319 
0.021769656779 0.4395029205 0.89626082826 0.081811860014 0.45450438811 0.88532127847 0.136690841 0.46879092232 0.87144354193 
0.1769751071 0.48050209436 0.85833981925 0.20806270355 0.49059043543 0.84572383131 0.22436063848 0.4954110679 0.83915747216 
0.23100421103 0.49679305726 0.83654017625 0.22590423423 0.48910501693 0.84221859999 0.21286495646 0.47528512554 0.85350539759 
0.19206439137 0.44836734202 0.87176149578 0.16583092514 0.41228103401 0.89489610439 0.13601718521 0.36059790705 0.92017185133 
0.10360904403 0.29761273738 0.94699914778 0.071817345263 0.22087826332 0.96889394988 0.040487978307 0.13383181096 0.98708938123 
0.013181162324 0.040390282758 0.99490630342 -0.0110036738 -0.05801458788 0.99466826328 -0.029876614271 -0.15410121285 0.98372857417 
-0.044483941566 -0.2483262163 0.96419513666 -0.054744916207 -0.33557790179 0.93710529637 -0.061395074799 -0.41703636927 0.90373782918 
-0.06569387824 -0.49159704905 0.86535884396 -0.067971985848 -0.56022994253 0.82267308545 -0.069947413718 -0.62396630554 0.7751854931 
-0.071653792929 -0.68335019703 0.72342960401 -0.074893846353 -0.73893154212 0.66569830841 -0.079543890584 -0.79101699776 0.60247349393 
-0.087120763995 -0.83817505929 0.53294908869 -0.097480524169 -0.88064805757 0.45743490864 -0.11109175833 -0.91573712807 0.37827079159 
-0.12790027526 -0.94356533625 0.29551756983 -0.1467022701 -0.96298200884 0.2145506587 -0.16753153063 -0.97384457744 0.13540033467 
-0.18798550513 -0.97838702815 0.063160113544 -0.20804478225 -0.97628245833 -0.0018125855527 -0.22543705646 -0.9716432735 -0.057753835935 
-0.23992838012 -0.96424713901 -0.10387140526 -0.25033005402 -0.9573962486 -0.14172138899 -0.25613087194 -0.95115875779 -0.17027033892 
-0.25759384349 -0.94675781957 -0.19265704535 -0.25400913927 -0.94449396071 -0.20787314115 -0.24703465296 -0.94381340012 -0.21925025294 
-0.23597987339 -0.94503866153 -0.22600636544 -0.22322596014 -0.94695080215 -0.23084819143 -0.20835614457 -0.94971830177 -0.23330618894 
-0.19321200896 -0.95250592927 -0.23501243084 -0.17771442252 -0.95531949078 -0.23575006456 -0.16202410069 -0.95807447841 -0.23593268593 
-0.14607679833 -0.96075136753 -0.23537529085 -0.12833439313 -0.96368590606 -0.2335622368 -0.108114746 -0.96697600078 -0.23001637339 
-0.083149352071 -0.97069138991 -0.2238408755 -0.05140431985 -0.97501434245 -0.21390875695 -0.011222237661 -0.97879802339 -0.1993205681 
0.041439647608 -0.98178403173 -0.17784527529 0.10542140806 -0.98049166859 -0.1492434984 0.18674425388 -0.97264520445 -0.10972455441 
0.27679462074 -0.95374955766 -0.062151397038 0.380695184 -0.91731933838 -0.0017965531945 0.48136673704 -0.86754416239 0.062164901916 
0.57672836218 -0.79582394647 0.13205722889 0.65809834779 -0.72065952593 0.19841342999 0.71561894783 -0.63962430204 0.25874214382 
0.7600709019 -0.56612560415 0.31335094014 0.78142478402 -0.50594727776 0.35785011481 0.79510976006 -0.45599097047 0.39832549046 
0.79473507497 -0.42477503152 0.43142390123 0.7904171359 -0.40152065195 0.4620784155 0.77859739659 -0.39341265364 0.48808356568 
0.76522552374 -0.38951807482 0.51216359008 0.74878818718 -0.39394499949 0.53244149107 0.73314430914 -0.39860627348 0.55079521239 
0.71912803832 -0.40374826405 0.56520189848 0.70815527782 -0.40582050939 0.57772412504 0.70366999986 -0.40134935042 0.58622947731 
0.70323935856 -0.3919052052 0.59295944747 0.71179466881 -0.37143984721 0.59575478702 0.72333131716 -0.34581136512 0.59690942108 
0.74174160617 -0.30827901355 0.59428131747 0.76052932944 -0.266966392 0.59061787394 0.78022289491 -0.21658112251 0.58446961458 
0.79779984005 -0.16459403071 0.57861380669 0.81008523434 -0.10860238312 0.57348912747 0.81897467934 -0.052728353065 0.57010287664 
0.81901407468 0.0028391585695 0.57124707555 0.81545068112 0.057315097398 0.57478978616 0.80209220525 0.10882332266 0.58485345044 
0.78573474946 0.15825754959 0.59689878728 0.76086406036 0.20180429742 0.61456951718 0.73451842145 0.24206477936 0.63313348214 
0.70379709815 0.27257600582 0.6543473778 0.67376914995 0.29890136597 0.6753547705 0.64589305555 0.31223610655 0.69572129197 
0.6205840263 0.3213580345 0.71509906193 0.60361795882 0.31678832144 0.73126338949 0.59003109256 0.30898264327 0.74579845105 
0.58795854163 0.29015071365 0.75478193958 0.58902450861 0.26974208039 0.76155393116 0.60131671272 0.24369369951 0.76041556832 
0.61587542227 0.21782425872 0.75679968759 0.63895619229 0.19262763268 0.74386833963 0.66316895465 0.16880651421 0.72875416659 
0.69186252002 0.15043011321 0.70499964424 0.72055007347 0.13364507974 0.67992188119 0.74921253367 0.12350227594 0.64932102657 
0.77690521083 0.11434281799 0.61873879557 0.80032202644 0.10951902124 0.58823867782 0.82216314406 0.10481812906 0.55931877265 
0.8366510044 0.10069079152 0.5377731929 0.84924675284 0.096074239222 0.51915887208 0.85247654739 0.089036073894 0.51505428303 
0.85344582625 0.081249580201 0.51463264495 0.84251765404 0.069524516159 0.53359495942 0.82876535975 0.05703493808 0.55595640881 
0.79916660271 0.040255586786 0.59739078191 0.76660036299 0.022866908961 0.64050907005 0.71622922713 0.0018222719499 0.69373084832 
0.66429097422 -0.019670466624 0.74609551724 0.60226440535 -0.044047859006 0.79294254475 0.54112519286 -0.068915974346 0.83745826848 
0.48613831802 -0.097186435534 0.86581028597 0.43348083335 -0.12624077169 0.89195861946 0.39829377498 -0.1611741701 0.9015793229 
0.36518309252 -0.19715913252 0.90955883495 0.34900285971 -0.24171838606 0.90415632483 0.333698506 -0.28727471378 0.89748265626 
0.32620407437 -0.34172161962 0.87947449149 0.31830797346 -0.39679523404 0.8604634466 0.30646821056 -0.45802198738 0.83160594231 
0.29348132433 -0.51932050594 0.80200821859 0.26799079365 -0.58140126526 0.76434210311 0.24142990155 -0.64293174449 0.7262254675 
0.20178681433 -0.69773657821 0.68260247484 0.16183515988 -0.75155352538 0.63895085334 0.11760213519 -0.79166354658 0.59490200689 
0.073925005157 -0.83078106602 0.55135524461 0.039142189646 -0.85401855713 0.51584182922 0.0054108661106 -0.87654941091 0.48122025814 
-0.0085173585595 -0.88577192827 0.46339508848 -0.021253293479 -0.89447424839 0.44658997465 -0.0068050220982 -0.89131607155 0.45304213393 
0.0088091776998 -0.88751277007 0.46040747325 0.057943819478 -0.86516213484 0.49402673897 0.10798046464 -0.84185577155 0.52814283088 
0.19289457405 -0.78159458969 0.58146953583 0.27804008248 -0.72048083437 0.63466070819 0.37672243315 -0.60949153191 0.67992322432 
0.47457552037 -0.49943491266 0.72480538318 0.47457552037 -0.49943491266 0.72480538318 0.47457552037 -0.49943491266 0.72480538318 

FrenetNormal 3 240 double
-0.2879872136 0.057368033299 -0.95591436518 -0.2879872136 0.057368033299 -0.95591436518 -0.2879872136 0.057368033299 -0.95591436518 
-0.26925218485 0.19319076169 -0.93293205799 -0.25035838466 0.33016453016 -0.90975498548 -0.27288372071 0.42426174444 -0.85631244238 
-0.29611707617 0.51762602618 -0.80235254081 -0.46696460479 0.56931230144 -0.6261842832 -0.64162974133 0.61992069723 -0.44685546465 
-0.64790573162 0.30360673619 0.13713726017 -0.64832470813 -0.025469741612 0.73520525129 -0.48528923625 -0.13261800375 0.83764667785 
-0.31508470961 -0.23003257223 0.91835009719 -0.2280920782 -0.21058362269 0.94629570747 -0.14551777751 -0.1849295306 0.97144001815 
-0.080368752331 -0.12522569536 0.98475299486 -0.016308806873 -0.063393751173 0.9973265132 0.027675094032 0.0038568931736 0.99639835009 
0.070212072808 0.071498074468 0.99449709282 0.033200679779 0.15318280255 0.98311303343 -0.010319216398 0.23601654811 0.97095310842 
-0.14934750493 0.13248470442 0.094097314436 -0.29713803128 0.011855100261 -0.86208837578 -0.23349536227 0.031731023987 -0.96732237765 
-0.14831783077 0.065917695924 -0.98588537421 -0.049521785103 0.16387789455 -0.9743780482 0.050801570563 0.2689902644 -0.95949834956 
0.14928012841 0.36903417898 -0.90472876666 0.24753243746 0.46845649055 -0.84506702816 0.31532683511 0.52320666196 -0.78542219022 
0.37906017791 0.572000548 -0.72577960568 0.43644439515 0.57195364666 -0.69155488816 0.49291287312 0.56486240098 -0.66099620914 
0.46374316597 -0.050352178338 -0.24772708796 0.42127043976 -0.76003251822 0.22499219899 0.2400653925 -0.85136238058 0.40064379266 
0.035738291728 -0.83963383001 0.52678410411 0.077233380343 -0.83805401691 0.53321618217 0.1625383641 -0.83828288969 0.51831411963 
0.30114573731 -0.8170069889 0.46453509853 0.44988056452 -0.79164518114 0.40336945531 0.60326714048 -0.70906224182 0.29715064574 
0.75759346367 -0.61491947795 0.1818301864 0.85528906225 -0.46312688479 0.049197027233 0.94084950556 -0.29898075678 -0.087145996179 
0.95220210039 -0.12280564712 -0.1934791068 0.94672404917 0.056097685175 -0.29300584544 0.9034514573 0.20672609156 -0.34205304841 
0.8511239234 0.35058029695 -0.37900619595 0.80249910053 0.45423916613 -0.37245340558 0.7548096994 0.54774342406 -0.35490964142 
0.73783060116 0.59816640295 -0.30488432411 0.72901913667 0.63713159487 -0.24622029585 0.7698411917 0.60732357969 -0.14697714922 
0.82453928445 0.55828864642 -0.036389302823 0.87353966066 0.38546723631 0.1237103933 0.92086788093 0.17631718627 0.29834074098 
0.86742143628 -0.026655545956 0.4329199043 0.78296740243 -0.22772756501 0.55517562627 0.6872759611 -0.32081667441 0.63832399953 
0.58796357735 -0.37911129069 0.70887111599 0.49443206728 -0.37941998731 0.77427379828 0.40284916631 -0.36018286832 0.83794240162 
0.30441479644 -0.3117099661 0.89163939246 0.20356684094 -0.25293809479 0.94182365615 0.095232668309 -0.18010367387 0.97000524619 
-0.015855055455 -0.10209682091 0.99009389879 -0.12855385053 -0.01976421573 0.98196907635 -0.24187084738 0.06422827112 0.96301815302 
-0.3501023081 0.14894448966 0.91357986731 -0.45629955437 0.23395020088 0.85194663665 -0.54711227136 0.31957179227 0.75803231925 
-0.63151476781 0.4054500004 0.65066754906 -0.68827818844 0.48324056929 0.51598591251 -0.73305357619 0.55752324647 0.36945599658 
-0.74162246817 0.61529885869 0.21947131245 -0.73385428279 0.66562616112 0.067927769512 -0.69535958226 0.70528293172 -0.058820246292 
-0.6424499734 0.73993377381 -0.17393579257 -0.54863732678 0.78733190973 -0.24919942089 -0.43488444927 0.84094435139 -0.30503523921 
-0.19232047135 0.89014394742 -0.28465180261 0.1154643169 0.93710919123 -0.2256763382 0.4196205418 0.82276016137 -0.11038424114 
0.72186944495 0.62361773126 0.034510188469 0.86708739959 0.47144761865 0.092544492349 0.92665210959 0.34489877012 0.10320054583 
0.95624583424 0.27664509587 0.070639746493 0.96888229087 0.2413742176 0.013627306744 0.96892918119 0.22899910868 -0.057213723533 
0.96159019262 0.23005618445 -0.13616752692 0.94339441792 0.24355655961 -0.21218597491 0.91859654356 0.26462380603 -0.28641940948 
0.88832415224 0.2932584912 -0.34727484984 0.85460206531 0.32666169942 -0.39970032123 0.39959009008 0.062293522268 -0.13682201631 
-0.33043056225 -0.39645319812 0.33187958706 -0.61341149436 -0.59963824763 0.51274827672 -0.59416839028 -0.63004920978 0.49902570078 
-0.55676070182 -0.67896715506 0.47180619852 -0.5066378043 -0.74083998852 0.43513884783 -0.45602880549 -0.79919075279 0.38055146815 
-0.40506755936 -0.854989293 0.31297856023 -0.35522255415 -0.90010263197 0.23150752603 -0.30621472963 -0.93720207 0.13961289712 
-0.25838446497 -0.95978319136 0.042385393243 -0.21146812737 -0.97109636546 -0.058981058377 -0.16717411673 -0.96881162528 -0.1568384164 
-0.1249859141 -0.95560734788 -0.25187786592 -0.088490839946 -0.93289613242 -0.33923801265 -0.05672544175 -0.90228684533 -0.42021843089 
-0.034444114909 -0.86557332988 -0.49433358009 -0.020313161888 -0.82361399318 -0.56254888871 -0.017820884843 -0.77613283589 -0.62633692017 