# vtk DataFile Version 5.1
vtk output
ASCII
DATASET POLYDATA
POINTS 240 float
0 0 0 -0.245417 -0.205424 -0.0718586 -0.490835 -0.410849 -0.143717 
-0.754255 -0.645557 -0.169283 -1.01783 -0.880513 -0.194456 -1.29369 -1.13635 -0.17727 
-1.56977 -1.39254 -0.159358 -1.8525 -1.66129 -0.103249 -2.1354 -1.93036 -0.0461511 
-2.41934 -2.20372 0.0441798 -2.70331 -2.47723 0.135667 -2.98271 -2.74679 0.253712 
-3.26191 -3.01617 0.372923 -3.53103 -3.27357 0.509333 -3.7996 -3.53033 0.646656 
-4.05287 -3.76776 0.788547 -4.30518 -4.00399 0.930723 -4.53764 -4.21493 1.06175 
-4.76866 -4.42405 1.19197 -4.97646 -4.60431 1.2936 -5.18235 -4.78222 1.39289 
-5.36332 -4.93094 1.44682 -5.54201 -5.07698 1.49659 -5.6961 -5.19726 1.48789 
-5.84769 -5.31492 1.47324 -5.97708 -5.41379 1.3932 -6.10397 -5.51055 1.30583 
-6.21255 -5.59783 1.15325 -6.31888 -5.68394 0.992686 -6.41154 -5.77065 0.774165 
-6.50237 -5.85744 0.547917 -6.58399 -5.95409 0.276511 -6.66428 -6.05217 -0.00140861 
-6.73868 -6.16731 -0.308884 -6.81216 -6.28509 -0.62095 -6.8813 -6.42447 -0.946915 
-6.9497 -6.56745 -1.2752 -7.01323 -6.73388 -1.60399 -7.07588 -6.90449 -1.93288 
-7.13122 -7.09812 -2.25259 -7.18516 -7.29612 -2.57055 -7.22803 -7.51495 -2.8738 
-7.26867 -7.73799 -3.17407 -7.29401 -7.97858 -3.4578 -7.31607 -8.22293 -3.73799 
-7.31897 -8.48104 -4.00248 -7.31752 -8.74226 -4.26341 -7.29397 -9.0134 -4.51101 
-7.26513 -9.28691 -4.75542 -7.21248 -9.56657 -4.98917 -7.15382 -9.84779 -5.22024 
-7.07095 -10.1315 -5.44273 -6.98164 -10.4158 -5.66294 -6.86897 -10.6987 -5.87532 
-6.74977 -10.9813 -6.08552 -6.60918 -11.2585 -6.28681 -6.46231 -11.5341 -6.48549 
-6.29691 -11.8002 -6.67203 -6.1258 -12.0634 -6.85484 -5.93956 -12.3129 -7.02 
-5.74845 -12.558 -7.17948 -5.5458 -12.7858 -7.31386 -5.33926 -13.0077 -7.43977 
-5.12474 -13.2095 -7.53209 -4.90739 -13.4042 -7.61258 -4.68545 -13.577 -7.65152 
-4.46182 -13.7418 -7.67519 -4.23693 -13.8841 -7.6516 -4.01156 -14.0177 -7.60988 
-3.78848 -14.1294 -7.51871 -3.56632 -14.2323 -7.40775 -3.35039 -14.3147 -7.24926 
-3.13707 -14.3885 -7.07097 -2.9344 -14.4442 -6.85082 -2.73637 -14.4921 -6.61253 
-2.55361 -14.5246 -6.34079 -2.37774 -14.5503 -6.05396 -2.22144 -14.5631 -5.74348 
-2.07431 -14.57 -5.42189 -1.95001 -14.5662 -5.08652 -1.83684 -14.5571 -4.74442 
-1.74821 -14.5388 -4.39734 -1.67201 -14.5157 -4.04773 -1.62018 -14.4849 -3.7 
-1.58117 -14.4501 -3.35326 -1.56445 -14.4097 -3.01284 -1.55989 -14.3664 -2.67587 
-1.57394 -14.3212 -2.34716 -1.59852 -14.2749 -2.02312 -1.63697 -14.2312 -1.70704 
-1.68355 -14.189 -1.39562 -1.73887 -14.1544 -1.09027 -1.7995 -14.1243 -0.788595 
-1.86406 -14.1057 -0.490304 -1.93109 -14.0944 -0.194144 -1.99814 -14.0972 0.101201 
-2.06522 -14.1093 0.396013 -2.12968 -14.1364 0.691703 -2.19237 -14.1739 0.987987 
-2.25107 -14.2267 1.28543 -2.30696 -14.2904 1.58367 -2.35846 -14.3697 1.88171 
-2.40676 -14.4606 2.17959 -2.45075 -14.5681 2.47452 -2.49152 -14.6881 2.76725 
-2.5281 -14.8263 3.05353 -2.56145 -14.9786 3.33483 -2.59056 -15.1505 3.60628 
-2.61626 -15.338 3.86984 -2.63755 -15.5456 4.12096 -2.65515 -15.7698 4.36175 
-2.66823 -16.0132 4.5888 -2.67741 -16.273 4.80403 -2.68223 -16.5497 5.00559 
-2.68316 -16.8414 5.195 -2.68018 -17.1467 5.37204 -2.6736 -17.4644 5.53771 
-2.66376 -17.7919 5.69322 -2.65083 -18.1286 5.83907 -2.63523 -18.4713 5.97751 
-2.61702 -18.8199 6.10866 -2.59644 -19.1714 6.23536 -2.57346 -19.5259 6.35753 
-2.54789 -19.8808 6.47808 -2.51962 -20.2364 6.59692 -2.48803 -20.5909 6.71653 
-2.45283 -20.9445 6.83697 -2.41313 -21.2963 6.95985 -2.36836 -21.6462 7.08546 
-2.3177 -21.994 7.2142 -2.26016 -22.3394 7.34658 -2.19532 -22.6825 7.48173 
-2.12167 -23.0229 7.62021 -2.03943 -23.3605 7.76019 -1.94647 -23.6946 7.90204 
-1.8438 -24.0251 8.0435 -1.72863 -24.3509 8.18448 -1.60284 -24.6714 8.32306 
-1.46288 -24.9848 8.45844 -1.31161 -25.2909 8.58976 -1.14474 -25.5868 8.71548 
-0.966176 -25.873 8.83625 -0.770914 -26.1455 8.94994 -0.564036 -26.4063 9.05882 
-0.339974 -26.6498 9.16056 -0.10498 -26.8804 9.25872 0.146759 -27.0913 9.3514 
0.408013 -27.2892 9.44269 0.684365 -27.4666 9.53179 0.968133 -27.6322 9.6223 
1.26409 -27.7785 9.71512 1.56493 -27.9151 9.81221 1.87407 -28.0354 9.91658 
2.18547 -28.1486 10.0276 2.50089 -28.2493 10.1505 2.81632 -28.345 10.2816 
3.13182 -28.4318 10.4275 3.4458 -28.5151 10.5817 3.75691 -28.5916 10.7519 
4.06578 -28.6649 10.9295 4.37022 -28.7317 11.1219 4.67242 -28.7944 11.3199 
4.97001 -28.8487 11.5297 5.26582 -28.8976 11.743 5.55786 -28.935 11.964 
5.8488 -28.9654 12.1864 6.13731 -28.9805 12.4123 6.42534 -28.9878 12.638 
6.71228 -28.9768 12.8635 6.99915 -28.9579 13.0881 7.28588 -28.9199 13.3102 
7.5727 -28.8748 13.531 7.85975 -28.8122 13.7488 8.14685 -28.7444 13.9656 
8.43405 -28.6632 14.18 8.7211 -28.5796 14.3941 9.00776 -28.4892 14.6075 
9.29404 -28.3992 14.8213 9.57925 -28.3103 15.0363 9.86384 -28.2246 15.2525 
10.1466 -28.1483 15.4719 10.4285 -28.0775 15.6928 10.7077 -28.0235 15.9184 
10.9857 -27.9764 16.1458 11.26 -27.9515 16.3788 11.5328 -27.9342 16.6135 
11.8007 -27.9424 16.8541 12.0669 -27.9579 17.0962 12.3268 -27.9996 17.3437 
12.5846 -28.0482 17.5922 12.835 -28.1221 17.8448 13.0833 -28.2019 18.0979 
13.3234 -28.3053 18.3529 13.5615 -28.4138 18.6076 13.7912 -28.5439 18.861 
14.0191 -28.6786 19.1132 14.2393 -28.8337 19.3605 14.4581 -28.9929 19.6058 
14.6701 -29.1719 19.842 14.881 -29.3549 20.0757 15.086 -29.5577 20.297 
15.29 -29.7643 20.5155 15.4885 -29.9907 20.7194 15.686 -30.2206 20.9206 
15.8773 -30.4698 21.1067 16.0671 -30.722 21.2904 16.2487 -30.9921 21.4601 
16.4283 -31.2646 21.628 16.5959 -31.5526 21.7841 16.761 -31.8424 21.9389 
16.9091 -32.1446 22.0847 17.0541 -32.4482 22.2295 17.1761 -32.7611 22.3674 
17.2946 -33.0748 22.5046 17.385 -33.3952 22.6358 17.4718 -33.7161 22.7663 
17.5268 -34.0417 22.89 17.5785 -34.3678 23.0127 17.5979 -34.6974 23.1259 
17.6147 -35.0273 23.2379 17.6024 -35.3605 23.3363 17.5883 -35.6939 23.4332 
17.5518 -36.031 23.5116 17.5143 -36.3684 23.5884 17.4633 -36.71 23.6423 
17.4122 -37.0519 23.6945 17.3581 -37.3986 23.7203 17.3043 -37.7455 23.7447 
17.2575 -38.0975 23.741 17.2115 -38.4498 23.7362 17.1816 -38.8073 23.7035 
17.1526 -39.165 23.6699 17.1481 -39.5278 23.6102 17.1444 -39.8907 23.5499 
17.1725 -40.2584 23.4662 17.2013 -40.6261 23.3821 17.2691 -40.9982 23.2778 
17.3372 -41.3703 23.1734 17.4512 -41.7462 23.0522 17.5652 -42.1222 22.931 

LINES 2 240
OFFSETS vtktypeint64
0 240 
CONNECTIVITY vtktypeint64
0 1 2 3 4 5 6 7 8 
9 10 11 12 13 14 15 16 17 
18 19 20 21 22 23 24 25 26 
27 28 29 30 31 32 33 34 35 
36 37 38 39 40 41 42 43 44 
45 46 47 48 49 50 51 52 53 
54 55 56 57 58 59 60 61 62 
63 64 65 66 67 68 69 70 71 
72 73 74 75 76 77 78 79 80 
81 82 83 84 85 86 87 88 89 
90 91 92 93 94 95 96 97 98 
99 100 101 102 103 104 105 106 107 
108 109 110 111 112 113 114 115 116 
117 118 119 120 121 122 123 124 125 
126 127 128 129 130 131 132 133 134 
135 136 137 138 139 140 141 142 143 
144 145 146 147 148 149 150 151 152 
153 154 155 156 157 158 159 160 161 
162 163 164 165 166 167 168 169 170 
171 172 173 174 175 176 177 178 179 
180 181 182 183 184 185 186 187 188 
189 190 191 192 193 194 195 196 197 
198 199 200 201 202 203 204 205 206 
207 208 209 210 211 212 213 214 215 
216 217 218 219 220 221 222 223 224 
225 226 227 228 229 230 231 232 233 
234 235 236 237 238 239 
CELL_DATA 1
FIELD FieldData 3
Length 1 1 double
83.070579843 
Tortuosity 1 1 double
0.62644582405 
ClusterLabel 1 1 int
2 
POINT_DATA 240
FIELD FieldData 6
Curvature 1 240 double
0 0.11164364752 0.22328729503 0.19471407122 0.16495256883 0.14627322599 0.12778332178 0.11579692719 0.10397872682 
0.095223795259 0.086575412177 0.078319855957 0.070081528986 0.059682169946 0.04916806584 0.036618350872 0.023941410225 0.049793028986 
0.078421480857 0.16598807623 0.25837688334 0.45714707663 0.66567703013 0.90573940366 1.1490134126 1.0736878934 0.96263158608 
0.72250345327 0.46654575696 0.31939633332 0.18675467937 0.13185200372 0.088161680719 0.081081520156 0.079688375117 0.085790372068 
0.09314155935 0.099826563778 0.10639284255 0.11137946615 0.11606595527 0.11928120616 0.12219923721 0.12390901752 0.12535988696 
0.12568667138 0.12575850867 0.1248286765 0.12365886102 0.12169901462 0.11953958147 0.11717236581 0.11474988884 0.11308924476 
0.11164158622 0.11239677395 0.11379844916 0.11981837344 0.12725929743 0.14307375346 0.1615863476 0.19361058929 0.23018931892 
0.28293514712 0.34137620323 0.40451300256 0.4693769718 0.50614214588 0.53212522413 0.5139424641 0.47809336876 0.42459245889 
0.36373662631 0.31194185934 0.26407719311 0.22988114755 0.20185265034 0.18359983731 0.16993314773 0.16205148348 0.15699001908 
0.15427062432 0.1527370876 0.15058580427 0.14810980798 0.14286103067 0.13609982735 0.12678020764 0.11601306286 0.10728110612 
0.099743126367 0.099641607978 0.10406226204 0.11205341299 0.12229446607 0.13012193631 0.1363738733 0.13943752988 0.14034572927 
0.1410166753 0.14152154396 0.14431027445 0.14875397728 0.15626609921 0.16607953548 0.17634638683 0.18696514244 0.19513862962 
0.20134849217 0.20231782115 0.19893347608 0.19076779951 0.17849316618 0.16351087764 0.14612178446 0.12834488754 0.11021146138 
0.092946274555 0.076506626768 0.061377336797 0.047536565346 0.036057534387 0.026980273422 0.023197425394 0.024982839249 0.029425069185 
0.036757169245 0.043701136471 0.050208454259 0.056025102936 0.061038063921 0.065843211647 0.070398213784 0.075500574934 0.081284552968 
0.088145701993 0.09639474441 0.10570639863 0.1164348686 0.12781468702 0.1400933663 0.15206856584 0.16361022288 0.17323513929 
0.18002487686 0.18317913425 0.18076414542 0.17518243732 0.16457528343 0.15259874001 0.13837031159 0.12592037531 0.11650195971 
0.10929407136 0.10599316142 0.10334179216 0.1018812475 0.099629683707 0.095873254264 0.091618602144 0.086379960236 0.081981777392 
0.079307613139 0.078664591555 0.082351110923 0.086756699991 0.092755902989 0.097760006822 0.10046985425 0.10105292891 0.096531748935 
0.089902541005 0.078003263177 0.064528977802 0.046950127302 0.030835332126 0.018700937358 0.014890817707 0.034710898387 0.054237796709 
0.072894920702 0.090507878319 0.1048803196 0.1177910492 0.12595121585 0.13257838969 0.13398203253 0.13437339949 0.1311439335 
0.12743994226 0.12195173612 0.11653215134 0.11138419279 0.106720626 0.10407886835 0.10204590321 0.10269715954 0.10374561657 
0.10664767679 0.10942141587 0.1115599653 0.11323811459 0.11249310523 0.1113378707 0.10788081716 0.10439877119 0.1007667707 
0.097588893795 0.097334437511 0.097827693102 0.10350508436 0.10952976559 0.11815912159 0.12678084233 0.13534030625 0.14341357898 
0.147151647 0.15027479967 0.14736060162 0.14409983092 0.13706141838 0.13008346322 0.12384443158 0.11795385235 0.11689805052 
0.11609671285 0.11936680164 0.12269511586 0.12712000903 0.13150106482 0.13488262819 0.13820871923 0.13993998049 0.14164789568 
0.14245309602 0.14323024983 0.14236668252 0.14091827847 0.070459139234 0 
Torsion 1 240 double
0 0 0 0.026591792092 0.053408938354 0.058139571492 0.062492657398 0.067182547478 0.071881148012 
0.081041903566 0.090357864513 0.11734011613 0.14509720505 0.2754620282 0.41127504962 1.9247190772 3.5242650427 2.3378047914 
0.95055129938 0.59468943252 0.32321415318 0.24345564598 0.18128583347 0.15751194418 0.13764875078 0.1593379696 0.18568727203 
0.28159584561 0.38603527319 0.62158678864 0.87461991581 1.1390143813 1.4050475014 1.0910343906 0.68691701092 0.41927167604 
0.17437168197 0.056350706016 -0.039058167694 -0.096123945149 -0.14590453432 -0.17900005522 -0.20872485527 -0.22549088871 -0.2394800436 
-0.24179137504 -0.24145412798 -0.23142875678 -0.2190822725 -0.19973018391 -0.17860825843 -0.15045617882 -0.12043437735 -0.08136272721 
-0.039761011843 0.0097371218932 0.06155268276 0.11313856762 0.16465378294 0.19606690935 0.22100269601 0.21819960893 0.2060463397 
0.18307289016 0.15628778621 0.134637995 0.11487705445 0.10213366937 0.092083067201 0.089553926673 0.090033370802 0.096236249445 
0.10482389247 0.10962512969 0.11278407042 0.10847780074 0.10080308247 0.085794478966 0.067345287321 0.05136916279 0.036598658478 
0.034889153428 0.039792812561 0.062563617507 0.094726127303 0.15434800628 0.22894772298 0.35105552367 0.50004289819 0.66344772188 
0.83531078243 0.85197185353 0.77425333645 0.64506372106 0.4834402629 0.35778528178 0.25560972318 0.17046980702 0.096846944898 
0.03297858037 -0.024061635845 -0.061484333996 -0.084691439348 -0.088697683975 -0.078303283057 -0.063456777881 -0.045154908206 -0.02990484674 
-0.017105479745 -0.0076366570529 -0.00093474808949 0.0038932636356 0.0071108949215 0.010330165681 0.01355089375 0.019906275401 0.02914351599 
0.051007953791 0.084878579106 0.16736634978 0.29766098005 0.57977060487 1.0162683598 1.1121112232 0.84967911466 0.56599933727 
0.25920806043 0.050442885763 -0.048042923959 -0.12212199649 -0.16780050211 -0.19978324221 -0.21528033865 -0.2157444937 -0.19748838212 
-0.16945390295 -0.12882037322 -0.08723394527 -0.044376986352 -0.0046097110531 0.030893800852 0.063387450152 0.091581295729 0.11873240846 
0.14434114552 0.173541921 0.20824539362 0.25004675383 0.30311215303 0.36383498164 0.43715002749 0.49367204373 0.52156957769 
0.51272446704 0.43893886824 0.35024944583 0.2342363468 0.11748843651 -0.0006574074243 -0.12042792117 -0.2434071578 -0.35283469474 
-0.43446387333 -0.47497947106 -0.42785822537 -0.36937177335 -0.28569756675 -0.20991079796 -0.15230895526 -0.1009407777 -0.064533396459 
-0.028526471292 0.0064793136943 0.067749898523 0.19746814355 0.77152081864 2.5536077255 3.3886769104 1.5354377238 0.13551777626 
0.080444904961 0.034829684295 0.018565793178 0.0046587951008 -0.0015883005963 -0.0067068571251 -0.0079800209321 -0.0070318070171 0.0018621041346 
0.014280452344 0.039950683889 0.068059858746 0.10582318421 0.14191829883 0.17105044645 0.19424687323 0.19127216724 0.18307335592 
0.15049538644 0.11607896502 0.072562206534 0.028383094867 -0.019282086188 -0.068261484232 -0.12461509983 -0.18093678134 -0.23706685838 
-0.28792641166 -0.3048569682 -0.31363458493 -0.26588515241 -0.21598203671 -0.14992629719 -0.084501728577 -0.024223630488 0.035399982864 
0.089187773982 0.14379588962 0.20645810054 0.27019312169 0.3456217744 0.42023345744 0.4848599556 0.54513630155 0.5450542856 
0.54178659724 0.48754815049 0.43358257432 0.38475606096 0.33657199777 0.30303579865 0.2698133038 0.24560980654 0.22151906907 
0.20178837698 0.18086302292 0.0900499439 0 0 0 
FrenetTangent 3 240 double
-0.74849778578 -0.64760357274 -0.14269084506 -0.74849778578 -0.64760357274 -0.14269084506 -0.74849778578 -0.64760357274 -0.14269084506 
-0.74406659421 -0.66017102659 -0.077154670841 -0.73959785017 -0.67284498428 -0.011063105311 -0.73255099951 -0.67720960658 0.042564036203 
-0.72546007865 -0.68143218895 0.09597811064 -0.71776813966 -0.68049474151 0.14038705583 -0.71006065709 -0.67942384503 0.18456310975 
-0.70276324997 -0.67493892274 0.22167131971 -0.69548010633 -0.67033525173 0.25853369162 -0.68950288161 -0.66353859586 0.28865869243 
-0.68358293402 -0.65664575646 0.31848819451 -0.68018095891 -0.64881268561 0.34038098687 -0.67691268146 -0.64092969096 0.36185236101 
-0.67796542561 -0.63367519686 0.37238050279 -0.67928823361 -0.62645998405 0.38222469255 -0.68739153185 -0.62184489038 0.37501551589 
-0.69598351407 -0.61741719268 0.36657726778 -0.71350183055 -0.61735312689 0.32832494838 -0.73175048348 -0.61764608553 0.28763329587 
-0.75403676195 -0.6195530888 0.19235792551 -0.77669346479 -0.62160816955 0.092074874606 -0.77071829774 -0.60557110641 -0.080590385413 
-0.76182692173 -0.5876913249 -0.26062790747 -0.69047911892 -0.53546869302 -0.44124099597 -0.61212685703 -0.47939452651 -0.62191863398 
-0.52299507891 -0.42745785551 -0.72417745699 -0.43254128465 -0.3760286132 -0.81681887816 -0.3699383427 -0.35154315299 -0.85707846964 
-0.31104884773 -0.33065019707 -0.89035381718 -0.27496136144 -0.33051247095 -0.90222316616 -0.2421626264 -0.33336828759 -0.91100511152 
-0.22192794062 -0.34913589631 -0.91005658857 -0.20364495182 -0.3669092203 -0.90759653658 -0.19083846349 -0.3926646849 -0.89913471177 
-0.17894472523 -0.41975050627 -0.88967259149 -0.16767140553 -0.45144125617 -0.87561770467 -0.15650865547 -0.4839526864 -0.86074430501 
-0.14247414582 -0.51814255811 -0.84231439478 -0.12789400186 -0.55265133371 -0.82320874754 -0.10820878493 -0.58599983306 -0.80183235588 
-0.087492240125 -0.61911393317 -0.77999722798 -0.060868600757 -0.64852719474 -0.75739245549 -0.032979155412 -0.67714741948 -0.73462275916 
0.00016662404593 -0.70019534992 -0.71249416896 0.034504561756 -0.72197946103 -0.69051098429 0.07238152572 -0.73730981364 -0.67015733583 
0.11110638139 -0.75109395327 -0.65019409708 0.15129240997 -0.75861266148 -0.63221797639 0.19184757696 -0.76454852387 -0.61474386447 
0.23213348694 -0.76521936486 -0.59897456172 0.27234778602 -0.76448993421 -0.58365866565 0.31139896344 -0.75991121751 -0.56912251325 
0.35012496707 -0.75425635633 -0.5548043537 0.38778678763 -0.74617407322 -0.53964130835 0.42513629361 -0.73737939454 -0.5242303074 
0.46245394068 -0.72721171038 -0.50546649157 0.49976178501 -0.71662156299 -0.48567104039 0.53858390811 -0.70510297569 -0.458633483 
0.57789396548 -0.6932852244 -0.42926235806 0.61979693237 -0.6798327264 -0.38692749093 0.66257391371 -0.66582919017 -0.34022282306 
0.7063671282 -0.64722392703 -0.27356725463 0.75051833392 -0.62699760101 -0.19988352803 0.78785893101 -0.59668646236 -0.10233752272 
0.82269447667 -0.56266596733 0.0039854127047 0.83742326297 -0.51514666883 0.12533019013 0.84443666487 -0.46244759691 0.25243916275 
0.82605935399 -0.40216351188 0.37247104184 0.79752575799 -0.33884542161 0.48967208352 0.75356508583 -0.27918679522 0.58478029166 
0.70317646526 -0.22105294545 0.6706831525 0.64916137957 -0.1721432562 0.73580458276 0.59357336924 -0.12723440766 0.79191238049 
0.53926620857 -0.09057538386 0.83437353839 0.48553699225 -0.057638841958 0.87067706614 0.43338435223 -0.030111450345 0.89876971047 
0.38197134059 -0.0051216847942 0.92301033541 0.33120357378 0.017003198721 0.9418631264 0.28075036382 0.037731452243 0.95808934834 
0.2303733079 0.056945703294 0.97006882658 0.18003481099 0.075393370816 0.97989805483 0.13021975006 0.09207282031 0.98597872991 
0.080679828542 0.10782282187 0.99008901165 0.033170301358 0.12013303362 0.99119876818 -0.013231738008 0.13056699639 0.99067187459 
-0.05551698784 0.13520261967 0.98855041006 -0.095473001488 0.13655760349 0.98552675408 -0.12934678208 0.13023122192 0.98254873544 
-0.15965231928 0.11939843932 0.9795974907 -0.18264260913 0.10051189847 0.9776263214 -0.20118443776 0.076727801944 0.97625114392 
-0.21230484798 0.046534859994 0.97556282949 -0.21874874798 0.012303467505 0.97530733287 -0.21901221862 -0.025384940669 0.97469058776 
-0.21524124232 -0.065330011859 0.97383802767 -0.20755012027 -0.10609899796 0.97166321475 -0.19720875884 -0.14742499696 0.96859448444 
-0.18530150415 -0.18870417345 0.96356492608 -0.17229812417 -0.22995057418 0.95716278808 -0.15926606839 -0.27198128964 0.94811208829 
-0.14621323304 -0.31458034911 0.93714214084 -0.13357347285 -0.35928329619 0.92246393478 -0.12124351902 -0.40556415897 0.90500453476 
-0.10904731017 -0.45417508086 0.88266082387 -0.096954903382 -0.50459440685 0.85652630455 -0.084612408445 -0.55576052362 0.8250141404 
-0.07206908514 -0.60752633603 0.78918356451 -0.05927250356 -0.65719223656 0.74906035882 -0.046265522796 -0.70511359492 0.70537096837 
-0.033433614457 -0.74839771021 0.66008534061 -0.020752158981 -0.78769669473 0.61342794642 -0.0087766062147 -0.82143465105 0.56825350523 
0.0025714774775 -0.8502294712 0.52439724448 0.012911504196 -0.87402795951 0.48426160373 0.022324768857 -0.89323304597 0.44754653297 
0.030788028052 -0.90864597689 0.41555238373 0.03834800336 -0.92045325173 0.38804697953 0.04534669429 -0.92958591087 0.36538638517 
0.051793455583 -0.93608853122 0.34748985381 0.058294186359 -0.94068883223 0.33408094118 0.064849801355 -0.94335457118 0.32523570861 
0.072166090288 -0.94457459423 0.3201892729 0.080282398361 -0.94427412297 0.31913812352 0.089801110734 -0.94278468397 0.32090598865 
0.10084524533 -0.94000198179 0.32574015026 0.11371059956 -0.93623580228 0.33212417109 0.12862482589 -0.93136321076 0.34025178354 
0.14550925689 -0.92574129429 0.3485478789 0.16468628968 -0.91924743606 0.35704002711 0.18582833295 -0.91222208007 0.36449987237 
0.20933566663 -0.90455695828 0.37071713075 0.23480323236 -0.89642387806 0.37509141044 0.26271184177 -0.88770805715 0.37717066005 
0.29269366822 -0.87824493193 0.37709934683 0.32534675508 -0.86781893384 0.3742571161 0.36022950081 -0.85594854851 0.36938986345 
0.39808512504 -0.84215231353 0.36182258156 0.43809238197 -0.82589942055 0.35268977527 0.48106889201 -0.80625633955 0.34139654531 
0.52553822404 -0.78313399448 0.32931666558 0.57214015893 -0.75504127217 0.31611300049 0.61874469126 -0.72302466011 0.30324723788 
0.66535306565 -0.68520396114 0.29088128936 0.70984349862 -0.64432047326 0.28022199874 0.75108942559 -0.59874505341 0.27217716278 
0.78842799611 -0.55224219308 0.26713109923 0.8195657618 -0.50426752504 0.2668439571 0.84609279255 -0.45784178912 0.27026615237 
0.86503772581 -0.41396318601 0.27978814692 0.87969465461 -0.37326375828 0.29291561096 0.88704248492 -0.33798337948 0.31218876164 
0.8909603198 -0.30612938337 0.33414309605 0.88881583718 -0.28033131942 0.36083626682 0.88429355277 -0.25714858026 0.38874787722 
0.87541196509 -0.23876060319 0.41889329362 0.86534374364 -0.22156686815 0.44875466169 0.85301802378 -0.20664510576 0.47807564515 
0.84070764154 -0.19142542481 0.50595413419 0.82842755108 -0.17561735471 0.53098369676 0.817077135 -0.15839443915 0.55392440223 
0.80763374325 -0.13826927653 0.57258027259 0.79950065821 -0.11612158889 0.58894022301 0.79416059538 -0.089662729523 0.60040623879 
0.78991481515 -0.061259118538 0.60967622215 0.7880942018 -0.028545517475 0.61407932283 0.78679017086 0.0052479894947 0.61664646191 
0.78667714935 0.041531279529 0.6149806895 0.78651726033 0.077511730311 0.61216018844 0.7862448893 0.11276536689 0.60656833861 
0.78568865095 0.14623163706 0.6007282603 0.78442274431 0.17522949122 0.5942676108 0.78297889734 0.20128225805 0.58843622092 
0.78107132707 0.21965994879 0.58424471977 0.7792167975 0.23447190294 0.58123185828 0.77750647229 0.23958951073 0.58142342336 
0.77593853289 0.24099056762 0.58291676022 0.77477478544 0.23184141547 0.58810544925 0.77357760774 0.21919997248 0.59435261739 
0.77228125362 0.19619806664 0.60373994029 0.77058691601 0.17033331328 0.61367827384 0.76765745725 0.13558386075 0.62532664048 
0.76395539156 0.098950054258 0.63698141416 0.75774235335 0.056192097394 0.64865701074 0.75062312721 0.012693262427 0.65989921267 
0.74041614956 -0.03333004607 0.66966466247 0.7294599368 -0.079145558059 0.67877759388 0.71582376769 -0.12421779792 0.68555651722 
0.70179695395 -0.16857986391 0.69159988412 0.68630131643 -0.21027167614 0.69487755884 0.67082875649 -0.25119229112 0.69733942663 
0.65544754535 -0.28906025032 0.69657205863 0.64038790599 -0.3263901755 0.69488431804 0.62667047922 -0.36147439351 0.68935502228 
0.61337741393 -0.39631388633 0.68281359486 0.60195539701 -0.43007436356 0.67180958697 0.59086531161 -0.46376786063 0.65978543372 
0.58132423998 -0.49714878364 0.64300060214 0.57188584534 -0.53043134493 0.62536741314 0.56295570182 -0.56322701572 0.60353485486 
0.55384940014 -0.59574741986 0.58124068179 0.54381595018 -0.62681905213 0.55651695724 0.5333634335 -0.65745537206 0.53182489512 
0.52055948682 -0.68564910613 0.50731049447 0.50714763018 -0.71337129715 0.48325910561 0.49008831386 -0.73826422986 0.46198578756 
0.47227845984 -0.76275987619 0.44140029728 0.44963701941 -0.78469799152 0.42524269832 0.42611086162 -0.80636131517 0.40973257488 
0.39645066338 -0.82611941657 0.39871161503 0.36586358708 -0.84565383216 0.38809302724 0.32832492537 -0.86351060416 0.38049222989 
0.28999124041 -0.88110581686 0.37293505084 0.24517505811 -0.89656831526 0.36573352866 0.19992626772 -0.9117078965 0.35819556782 
0.15082005518 -0.9239681331 0.34765769568 0.1018358479 -0.9358991522 0.33653209083 0.054049510458 -0.94459785412 0.31963601941 
0.0069086552424 -0.95306577743 0.30208134374 -0.033196443653 -0.95901821399 0.27734788187 -0.072347276531 -0.9648687548 0.25204969006 
-0.099834858085 -0.96947390298 0.21984924337 -0.12629420219 -0.97404933719 0.1872662215 -0.13848675165 -0.97821248983 0.14937496905 
-0.14975543912 -0.98233889083 0.11130248557 -0.14624233479 -0.98587726565 0.070330305591 -0.14200995303 -0.98933012071 0.029358910795 
-0.12423117997 -0.99117235368 -0.01159769642 -0.10594526774 -0.99289174862 -0.052428700509 -0.076096582514 -0.99181043641 -0.090395953316 
-0.045929790217 -0.99059826702 -0.128182597 -0.0066174195301 -0.98562395364 -0.16077672837 0.032869858835 -0.98053483619 -0.19319991478 
0.079120234075 -0.97100662823 -0.21901322917 0.12544664237 -0.96139513333 -0.24469989923 0.17622098428 -0.94691135257 -0.26297787625 
0.22656865105 -0.93254928426 -0.28110225683 0.22656865105 -0.93254928426 -0.28110225683 0.22656865105 -0.93254928426 -0.28110225683 

FrenetNormal 3 240 double
0.025872852661 -0.24353077329 0.96954801735 0.025872852661 -0.24353077329 0.96954801735 0.025872852661 -0.24353077329 0.96954801735 
0.064660030101 -0.18714572394 0.9777138568 0.10377591244 -0.13028283519 0.98594889828 0.1293951775 -0.077949442804 0.98680192637 
0.15478373115 -0.025693477709 0.98752876619 0.1699881375 0.023656922091 0.98379782469 0.18492916073 0.072932177961 0.97995159574 
0.19029052105 0.12140446376 0.97293918974 0.19531867569 0.16984882017 0.96581665584 0.18637274259 0.22200390957 0.95552269862 
0.1768139109 0.27432175041 0.94508964388 0.12925830298 0.34890638496 0.92348164175 0.079685167122 0.42467332714 0.90128027959 
-0.21321011638 0.59347283526 0.62498990122 -0.5213130341 0.76808687876 0.33281895933 -0.53601101776 0.46287753517 -0.22377731025 
-0.52956269987 0.12308632584 -0.79943126109 -0.43959481753 0.036000219788 -0.88838736974 -0.34279351628 -0.030410014173 -0.93752274585 
-0.23595549052 -0.01233952187 -0.96500558118 -0.12819666435 0.01348149578 -0.99050194489 0.029793146955 0.092292262268 -0.97809328797 
0.19289907712 0.1765001328 -0.96182393451 0.35804277915 0.25770472496 -0.87305797391 0.52341501635 0.33857250085 -0.7761615527 
0.63639921651 0.35354570948 -0.66843906275 0.74295846872 0.36043750892 -0.55938884738 0.82699001506 0.26836811262 -0.46750062537 
0.90801786729 0.16310389022 -0.37790066914 0.90732838214 -0.10864970016 -0.23766078631 0.89485274257 -0.40441618014 -0.090117067904 
0.71872725927 -0.61504023257 0.060898647222 0.51718044102 -0.81243827683 0.21245370164 0.40754383378 -0.85873545124 0.28857833457 
0.31322559505 -0.87984914734 0.35213123059 0.29847766036 -0.86971682501 0.39124385782 0.29791057194 -0.85401590532 0.42600079358 
0.33675231212 -0.82472530949 0.45036642755 0.38308172974 -0.79285267518 0.47275771418 0.44828714918 -0.74618703018 0.48484039509 
0.51730590232 -0.69653289817 0.4948405294 0.58988287831 -0.63152947901 0.49334993389 0.66322233064 -0.56323692688 0.48939703914 
0.72736761119 -0.48387986379 0.47569437949 0.78942761567 -0.40201332398 0.45978043294 0.83542544782 -0.31665616719 0.43861283765 
0.87757505119 -0.23046271675 0.41618655568 0.9028575321 -0.14866413807 0.39443773266 0.92387884523 -0.067975842786 0.37286005717 
0.93146727838 0.0028715281803 0.3573195456 0.93548313706 0.07110163204 0.34338466275 0.92997357222 0.12472842859 0.34229861685 
0.92180098577 0.17427258008 0.34480471892 0.90648029549 0.20629288129 0.36615188755 0.88906179215 0.23317031339 0.39302849962 
0.86253582132 0.24266375863 0.44002442864 0.8332075528 0.24680828484 0.49321091673 0.78949101536 0.23951237646 0.55892905158 
0.74113825793 0.22853010582 0.6286851615 0.67726653262 0.22173051978 0.69537901553 0.60816369455 0.21634082742 0.76104064846 
0.52417511668 0.22787557043 0.81442946185 0.43494269866 0.24537233045 0.86349489562 0.32819294808 0.27997820789 0.89433261304 
0.21500004071 0.32087709403 0.91846588305 0.088082660351 0.36614162997 0.91638559708 -0.044101087552 0.41308135712 0.90424662102 
-0.17143855479 0.45010167419 0.86620195367 -0.29683750977 0.48315422725 0.81779500981 -0.40484369028 0.49700274811 0.75898486416 
-0.50560288143 0.50284958891 0.69584005111 -0.58757665764 0.49413701601 0.63400314224 -0.66140254304 0.47910951668 0.57273351711 
-0.72069414206 0.45720006411 0.51543147458 -0.77342758746 0.43218533994 0.45991968275 -0.81485106259 0.4080965533 0.40659347136 
-0.85096862572 0.38444215711 0.35429259401 -0.87777506076 0.36774066468 0.30202868135 -0.90004232085 0.35442871285 0.24978278896 
-0.91721900049 0.34186835597 0.19775394874 -0.93181817105 0.3296885535 0.14583500835 -0.94463936806 0.30931493691 0.095876369212 
-0.95652598922 0.28463431546 0.04694814484 -0.96918677235 0.23618173566 0.0038198011737 -0.98226982565 0.17476263311 -0.036144971198 
-0.98752244403 0.066898387571 -0.064535524262 -0.98834468475 -0.067244030967 -0.086377505876 -0.93317735756 -0.26191827183 -0.087951027013 
-0.8451628172 -0.49210451512 -0.077633718005 -0.67709240354 -0.68662070315 -0.055949135586 -0.46033936424 -0.85944564135 -0.027352022039 
-0.26583264809 -0.94874429009 -0.012675114005 -0.085344162973 -0.98540993452 -0.0067698423221 0.047921694099 -0.99409276103 -0.015138448813 
0.15036166898 -0.98450902583 -0.032824725778 0.2209407634 -0.97193332322 -0.058936149013 0.26998010765 -0.95733488206 -0.090743445782 
0.29426730605 -0.94617306192 -0.12870812177 0.30122800235 -0.93741687649 -0.17098296321 0.29322150159 -0.92971644576 -0.21744951889 
0.27436920584 -0.92278105467 -0.26695354865 0.25333696599 -0.91186800773 -0.31847598114 0.23066976804 -0.8979717189 -0.37151221567 
0.21420418624 -0.87769378875 -0.42515686311 0.20255179904 -0.85246294295 -0.47927371163 0.19622074918 -0.82103134041 -0.53295355263 
0.19416289444 -0.78462034232 -0.58628246333 0.19486018462 -0.74354162942 -0.63693122971 0.19784636443 -0.69858512268 -0.68535341466 
0.20136636913 -0.65192773114 -0.72894938839 0.20534512961 -0.60380864172 -0.76839783686 0.20944039097 -0.55715176856 -0.80215173344 