# vtk DataFile Version 5.1
vtk output
ASCII
DATASET POLYDATA
POINTS 240 float
0 0 0 -0.159194 -0.267456 -0.189114 -0.318389 -0.534911 -0.378227 
-0.52047 -0.792639 -0.469177 -0.722914 -1.05028 -0.559295 -0.957155 -1.29732 -0.568477 
-1.19194 -1.54417 -0.576276 -1.44778 -1.77941 -0.5203 -1.70417 -2.01435 -0.462674 
-1.97156 -2.23649 -0.358737 -2.23932 -2.45818 -0.25319 -2.50906 -2.66557 -0.119566 
-2.77889 -2.87232 0.0152891 -3.04315 -3.06311 0.158969 -3.30711 -3.25304 0.303118 
-3.55959 -3.42556 0.436215 -3.81135 -3.59699 0.56862 -4.0474 -3.75049 0.670738 
-4.28231 -3.90269 0.770674 -4.49894 -4.03806 0.823854 -4.71407 -4.17204 0.873208 
-4.90992 -4.29241 0.864505 -5.10399 -4.41152 0.850476 -5.27946 -4.52241 0.774385 
-5.45302 -4.63246 0.691973 -5.61013 -4.74138 0.551388 -5.76538 -4.85017 0.404279 
-5.90734 -4.96582 0.209975 -6.04766 -5.08231 0.0098818 -6.17805 -5.21356 -0.221375 
-6.30711 -5.34679 -0.456786 -6.42877 -5.50155 -0.705486 -6.54937 -5.65942 -0.956102 
-6.66355 -5.84354 -1.20354 -6.77674 -6.03174 -1.45048 -6.88273 -6.24821 -1.68173 
-6.98753 -6.46938 -1.91036 -7.08291 -6.71784 -2.11618 -7.1766 -6.97115 -2.31793 
-7.25785 -7.24801 -2.49527 -7.33673 -7.52934 -2.66797 -7.40001 -7.82849 -2.81931 
-7.46014 -8.13124 -2.96634 -7.5019 -8.44513 -3.09815 -7.53973 -8.76141 -3.2267 
-7.55714 -9.08238 -3.34748 -7.56993 -9.40442 -3.46651 -7.56123 -9.72585 -3.585 
-7.54739 -10.0471 -3.70335 -7.5121 -10.3643 -3.82703 -7.4714 -10.6803 -3.95205 
-7.41043 -10.9905 -4.08629 -7.34408 -11.2992 -4.22298 -7.25963 -11.6019 -4.37064 
-7.17013 -11.903 -4.52137 -7.06543 -12.199 -4.68273 -6.95628 -12.4935 -4.84721 
-6.83504 -12.7839 -5.02 -6.71007 -13.0731 -5.19536 -6.57581 -13.3588 -5.37477 
-6.43854 -13.6433 -5.55548 -6.29398 -13.9239 -5.73409 -6.14696 -14.2031 -5.91198 
-5.99364 -14.4766 -6.07984 -5.8381 -14.7481 -6.24417 -5.67645 -15.011 -6.38931 
-5.51254 -15.2706 -6.52739 -5.34245 -15.5183 -6.63678 -5.16999 -15.7613 -6.73516 
-4.99177 -15.9887 -6.79628 -4.81124 -16.2098 -6.8425 -4.62658 -16.4122 -6.8452 
-4.4402 -16.6069 -6.82976 -4.2528 -16.7807 -6.76784 -4.06495 -16.9455 -6.68575 
-3.88039 -17.0884 -6.55803 -3.6973 -17.2214 -6.40972 -3.52239 -17.3326 -6.22038 
-3.35131 -17.4335 -6.01179 -3.19311 -17.5132 -5.76969 -3.0412 -17.5826 -5.51124 
-2.90613 -17.6324 -5.22844 -2.7796 -17.6723 -4.93331 -2.67293 -17.6947 -4.62327 
-2.5767 -17.7081 -4.30538 -2.5023 -17.7068 -3.98094 -2.43982 -17.6976 -3.65292 
-2.40002 -17.6771 -3.3247 -2.37307 -17.65 -2.99637 -2.36842 -17.6148 -2.67172 
-2.37685 -17.5749 -2.34924 -2.40583 -17.5296 -2.03194 -2.44731 -17.4812 -1.71779 
-2.50635 -17.4299 -1.40843 -2.57647 -17.377 -1.1021 -2.66044 -17.3236 -0.799061 
-2.75346 -17.2701 -0.498174 -2.85667 -17.2188 -0.198905 -2.96677 -17.169 0.0992703 
-3.08419 -17.1248 0.396843 -3.20673 -17.0847 0.693993 -3.33483 -17.0541 0.990335 
-3.46695 -17.0306 1.28609 -3.60378 -17.0214 1.57944 -3.74413 -17.0229 1.87099 
-3.88843 -17.0429 2.1574 -4.03579 -17.0773 2.43982 -4.18559 -17.1337 2.71374 
-4.33732 -17.2078 2.98083 -4.48849 -17.3058 3.23611 -4.63919 -17.4238 3.48157 
-4.78479 -17.566 3.71257 -4.92602 -17.7291 3.93115 -5.05672 -17.9148 4.13375 
-5.17806 -18.1208 4.32217 -5.28371 -18.3465 4.4945 -5.37491 -18.5905 4.65207 
-5.44672 -18.8505 4.7949 -5.50011 -19.1256 4.92374 -5.53291 -19.4123 5.04046 
-5.54547 -19.7106 5.14529 -5.53913 -20.0165 5.24156 -5.51357 -20.3302 5.32914 
-5.4734 -20.648 5.41215 -5.41786 -20.9702 5.49037 -5.35366 -21.294 5.56787 
-5.28004 -21.6196 5.64458 -5.20408 -21.9453 5.72374 -5.1255 -22.271 5.80564 
-5.05001 -22.5964 5.89205 -4.97814 -22.9213 5.98368 -4.91298 -23.2462 6.0806 
-4.85591 -23.5709 6.18386 -4.80689 -23.8963 6.2919 -4.76788 -24.2227 6.40591 
-4.73594 -24.5507 6.52317 -4.7131 -24.8808 6.64465 -4.69452 -25.2134 6.76724 
-4.68159 -25.5492 6.89131 -4.66894 -25.8874 7.0142 -4.6567 -26.229 7.13546 
-4.64053 -26.5722 7.25356 -4.61875 -26.9177 7.36717 -4.58943 -27.2628 7.47647 
-4.54894 -27.6074 7.57938 -4.49859 -27.9488 7.67793 -4.43314 -28.2851 7.76977 
-4.35729 -28.6144 7.85845 -4.26493 -28.9324 7.9421 -4.16346 -29.2394 8.02495 
-4.04703 -29.5282 8.10651 -3.92432 -29.8022 8.19048 -3.79087 -30.0512 8.27855 
-3.65468 -30.2827 8.37245 -3.51363 -30.4834 8.47665 -3.37315 -30.6657 8.58961 
-3.23374 -30.8143 8.71864 -3.09709 -30.9455 8.85821 -2.9657 -31.0435 9.01785 
-2.83756 -31.1268 9.18822 -2.71582 -31.1812 9.3798 -2.59602 -31.2251 9.58068 
-2.48022 -31.2477 9.80061 -2.36367 -31.2643 10.027 -2.24554 -31.2686 10.2673 
-2.12339 -31.271 10.5106 -1.99229 -31.2694 10.7605 -1.85414 -31.2687 11.0098 
-1.69973 -31.2701 11.2576 -1.53627 -31.2735 11.5021 -1.35107 -31.2816 11.7382 
-1.1562 -31.2914 11.969 -0.937144 -31.3054 12.1867 -0.709172 -31.32 12.3985 
-0.457957 -31.3361 12.5953 -0.199615 -31.3514 12.7868 0.0781018 -31.365 12.9639 
0.360608 -31.377 13.137 0.65671 -31.385 13.2986 0.955246 -31.3913 13.4579 
1.261 -31.393 13.61 1.56724 -31.3936 13.7613 1.87495 -31.3911 13.9098 
2.18186 -31.3885 14.0587 2.48613 -31.3853 14.2085 2.78903 -31.3828 14.3593 
3.08727 -31.3824 14.5132 3.38423 -31.383 14.6681 3.67658 -31.3873 14.8267 
3.96817 -31.3925 14.9861 4.2569 -31.4011 15.1479 4.54557 -31.4102 15.3099 
4.83404 -31.4211 15.4723 5.12311 -31.4317 15.6343 5.41469 -31.4415 15.7941 
5.7073 -31.4505 15.9531 6.00443 -31.4559 16.1078 6.30267 -31.4601 16.2615 
6.60611 -31.4585 16.4099 6.91044 -31.4553 16.5574 7.21923 -31.4443 16.6999 
7.52847 -31.4315 16.8418 7.84008 -31.4093 16.9803 8.15161 -31.3851 17.1188 
8.46264 -31.35 17.2565 8.7731 -31.313 17.3945 9.08009 -31.264 17.5347 
9.38618 -31.213 17.6755 9.68649 -31.1499 17.821 9.9858 -31.0853 17.9673 
10.2781 -31.01 18.1195 10.5696 -30.9338 18.2725 10.8544 -30.8508 18.4313 
11.1385 -30.7676 18.5907 11.4175 -30.6839 18.7545 11.6961 -30.6011 18.9186 
11.9713 -30.5259 19.085 12.2462 -30.4525 19.2513 12.5194 -30.3961 19.4178 
12.7924 -30.3421 19.5841 13.064 -30.3141 19.7492 13.3354 -30.2887 19.9141 
13.6046 -30.2965 20.0775 13.8735 -30.3069 20.2409 14.1386 -30.3547 20.4039 
14.4034 -30.4048 20.5669 14.6624 -30.493 20.7315 14.9211 -30.583 20.8962 
15.1727 -30.7081 21.0647 15.4239 -30.8345 21.2336 15.6676 -30.9896 21.4088 
15.9111 -31.1454 21.5843 16.1474 -31.3212 21.7686 16.3835 -31.4972 21.9532 
16.6135 -31.6829 22.1488 16.8434 -31.8685 22.3446 17.0685 -32.0527 22.5538 
17.2936 -32.2368 22.7631 17.5153 -32.4079 22.9879 17.7371 -32.579 23.2126 

LINES 2 240
OFFSETS vtktypeint64
0 240 
CONNECTIVITY vtktypeint64
0 1 2 3 4 5 6 7 8 
9 10 11 12 13 14 15 16 17 
18 19 20 21 22 23 24 25 26 
27 28 29 30 31 32 33 34 35 
36 37 38 39 40 41 42 43 44 
45 46 47 48 49 50 51 52 53 
54 55 56 57 58 59 60 61 62 
63 64 65 66 67 68 69 70 71 
72 73 74 75 76 77 78 79 80 
81 82 83 84 85 86 87 88 89 
90 91 92 93 94 95 96 97 98 
99 100 101 102 103 104 105 106 107 
108 109 110 111 112 113 114 115 116 
117 118 119 120 121 122 123 124 125 
126 127 128 129 130 131 132 133 134 
135 136 137 138 139 140 141 142 143 
144 145 146 147 148 149 150 151 152 
153 154 155 156 157 158 159 160 161 
162 163 164 165 166 167 168 169 170 
171 172 173 174 175 176 177 178 179 
180 181 182 183 184 185 186 187 188 
189 190 191 192 193 194 195 196 197 
198 199 200 201 202 203 204 205 206 
207 208 209 210 211 212 213 214 215 
216 217 218 219 220 221 222 223 224 
225 226 227 228 229 230 231 232 233 
234 235 236 237 238 239 
CELL_DATA 1
FIELD FieldData 3
Length 1 1 double
77.238850803 
Tortuosity 1 1 double
0.76510983405 
ClusterLabel 1 1 int
1 
POINT_DATA 240
FIELD FieldData 6
Curvature 1 240 double
0 0.21648315924 0.43296631848 0.41255312303 0.39013233135 0.34020374355 0.28980493702 0.24300780107 0.19630381178 
0.16042523358 0.12492319143 0.096395697558 0.068174104929 0.052162641056 0.036799502603 0.071365890949 0.10905287472 0.18657313669 
0.26696426556 0.38990665768 0.51633051678 0.61706548078 0.71544366542 0.67612800822 0.62278797825 0.50083242724 0.37118167762 
0.27647332441 0.18605035945 0.14973508512 0.12063416954 0.12681821285 0.13809143292 0.15409277159 0.17082857527 0.18110692516 
0.19030903275 0.18995664055 0.1879014662 0.17797983748 0.16656358242 0.15264675656 0.13822476488 0.1275127343 0.11759569539 
0.11457502419 0.11311847763 0.11560434585 0.11903475094 0.12110800208 0.12283839328 0.12016964436 0.11633091138 0.10842931544 
0.099391865351 0.088359153753 0.076740876278 0.065705068398 0.054848481933 0.048692414667 0.044050959144 0.049277055021 0.057829291819 
0.076308434809 0.098284556117 0.13070219637 0.16696039531 0.21577462087 0.26940685665 0.33179315248 0.39768107233 0.45309985315 
0.50415649271 0.52038709011 0.52151241622 0.4920602141 0.44881083459 0.40057967431 0.3500113823 0.3078852352 0.26987463373 
0.24192453672 0.21906836601 0.20365575108 0.19215577443 0.18524718913 0.18084299911 0.17802512039 0.1761047599 0.17274974824 
0.16855307457 0.16058761844 0.15033033515 0.13686079061 0.12136708145 0.1061807603 0.091195095219 0.081978577419 0.076662328204 
0.07941597094 0.087818538042 0.10142790474 0.11881031462 0.13794669066 0.15839854132 0.179287662 0.20051615642 0.22053187977 
0.2395737112 0.25657357474 0.27187703419 0.28485486241 0.29583410128 0.30385521365 0.30924688023 0.30951136255 0.30506214322 
0.29392503149 0.27642894011 0.25324055929 0.22445476052 0.19302470239 0.15890556696 0.12530406124 0.092246959176 0.063898111698 
0.040670523592 0.033342110269 0.043900268578 0.05626824461 0.070742190356 0.080494281332 0.084562658233 0.083439962805 0.075852913157 
0.064769551147 0.049181325133 0.035529060893 0.024458079018 0.024289392968 0.039165875155 0.054703525291 0.071185701069 0.086286489818 
0.099343976922 0.11114332822 0.12101532253 0.13092535016 0.14089573502 0.15420624692 0.17300941221 0.20009342075 0.24129250301 
0.29244372921 0.3611847912 0.42845061047 0.4930118181 0.53218065808 0.5230420669 0.48789558876 0.40138353387 0.31226903036 
0.21781617073 0.13887959609 0.093017207891 0.071967131568 0.10590650318 0.13806730755 0.16612752632 0.18864826481 0.19787425063 
0.20199000637 0.19333018692 0.18184465908 0.16299516391 0.14327945947 0.12120874858 0.099334483057 0.078017868891 0.057408134159 
0.038895475081 0.023315317617 0.016836027236 0.014020409475 0.023111727735 0.03095270073 0.03453323801 0.03640604941 0.032170456696 
0.02687880461 0.017616369283 0.010957137575 0.014602253528 0.019461894165 0.029390855224 0.038507194601 0.044040611103 0.048924969442 
0.050780389682 0.052288014546 0.052074052301 0.052133641921 0.0536329782 0.055508153668 0.059492204589 0.06344729354 0.067228610665 
0.07042746018 0.069876674456 0.068497070252 0.061370991248 0.05376641548 0.042573113983 0.033002642899 0.036664481343 0.042165443819 
0.064065262237 0.08624201187 0.11113772253 0.13575384084 0.15732240259 0.17823101964 0.19107364593 0.20301301567 0.20241970078 
0.20112410547 0.18859202342 0.17564852143 0.15495661067 0.13424445292 0.11307066348 0.092054299879 0.075563928785 0.059430369184 
0.05709352062 0.055004853981 0.067434829996 0.079426627108 0.039713313554 0 
Torsion 1 240 double
0 0 0 -0.0054950911604 -0.01103675089 -0.0098760138257 -0.0086007058761 0.0026657390884 0.014190575527 
0.059963097452 0.10692684322 0.34157963909 0.58446441084 1.7869179618 3.0403220675 1.9198645409 0.65104066233 0.40245218257 
0.227394182 0.18066547132 0.1444364298 0.13946765899 0.13736680291 0.16745193737 0.20081527457 0.30444560516 0.41595634623 
0.69589305311 0.99648577466 1.1557072279 1.2960791786 0.96007855295 0.55537034413 0.3408105321 0.15578833509 0.063814252153 
-0.012651811776 -0.06876973432 -0.12126125543 -0.18183677168 -0.24394824701 -0.32584087351 -0.41172969216 -0.48622362629 -0.55827579945 
-0.55007563371 -0.52367390658 -0.45017910731 -0.36540159285 -0.29425829379 -0.22655942809 -0.17815101262 -0.13487303604 -0.09534634108 
-0.056868391518 0.0045653830515 0.072736193221 0.21831419636 0.38770979734 0.60260137775 0.83215277375 0.75664224977 0.57830186513 
0.41154505711 0.24886882721 0.16374839876 0.1071542421 0.081396698209 0.067471808059 0.06274261611 0.061691703442 0.062901423865 
0.065053074743 0.068717709384 0.073038577947 0.077375553499 0.081719796839 0.085279357795 0.088470796151 0.093112376218 0.098460900369 
0.10535935385 0.11304258169 0.12164656111 0.13073452534 0.13737689072 0.14268529309 0.14255214051 0.13934021342 0.13596307436 
0.13248901094 0.13978908 0.15364098637 0.19295207701 0.24830594129 0.35591893263 0.49764552082 0.60323780465 0.68440126301 
0.61943262085 0.45217150833 0.31080327181 0.18819798891 0.11687936313 0.084025730195 0.074218995857 0.082299406699 0.098956108578 
0.12249983205 0.14728146588 0.17309151756 0.19439945903 0.21183839955 0.22173956241 0.22494047847 0.22295496034 0.21620126884 
0.20869766598 0.20048103265 0.19658332079 0.19693254837 0.21094028904 0.238838043 0.32719332892 0.4791332605 1.0944447586 
2.2137744518 2.3240765636 1.2992226463 0.63487707662 0.39003212963 0.23987022282 0.20367864218 0.19553483731 0.22231845134 
0.32926793855 0.53950807006 1.1786075513 2.3895194988 2.55059892 1.262909455 0.45538547144 0.33381217567 0.26145500394 
0.26189668236 0.27963913403 0.32388489792 0.38029769566 0.45601904714 0.52340071888 0.57706825061 0.59671227361 0.55836167945 
0.50187070364 0.41331765795 0.33042524317 0.2579106517 0.19352657331 0.1446103003 0.088410436244 0.017825479892 -0.13429793989 
-0.45367974621 -1.1266599994 -2.553363258 -3.0480637997 -1.4772448071 -0.32226664864 -0.12603263544 0.027268704159 0.07753162714 
0.12134219628 0.14902188083 0.17484278893 0.19581961297 0.2163789138 0.23580307345 0.26247721506 0.30973195065 0.4159505569 
0.69709531281 1.0980078936 1.8706137241 2.21276801 1.1559547764 0.32420449749 0.25933539744 0.21956506095 0.26957107104 
0.50473775621 1.4361085797 2.0417823583 1.3582386675 0.75152968917 0.46552211951 0.2322051542 0.23120585352 0.23904202423 
0.28811039484 0.34141116796 0.41566233359 0.47974219413 0.49028887003 0.48938049947 0.42419659052 0.36005793114 0.30219076927 
0.25025896384 0.23653601552 0.23565218415 0.32378623023 0.46742355609 1.0273354802 1.5091090583 1.3537545848 1.1652469628 
0.68112376719 0.23192015781 0.12556339496 0.024917926069 -0.013474438637 -0.050343027682 -0.068587691976 -0.08647441502 -0.099394703229 
-0.11261838172 -0.13069630474 -0.14990816446 -0.19047583193 -0.23359402345 -0.33486416329 -0.44152697371 -0.70322906325 -0.95962590083 
-1.0108863291 -1.0524041895 -0.52398183276 0 0 0 
FrenetTangent 3 240 double
-0.51955955645 -0.75440260718 -0.40116651603 -0.51955955645 -0.75440260718 -0.40116651603 -0.51955955645 -0.75440260718 -0.40116651603 
-0.58297200922 -0.75108869972 -0.27474921039 -0.64692185567 -0.74774670831 -0.14726057164 -0.67934175639 -0.72357435564 -0.038716913401 
-0.71122268369 -0.69904592842 0.069502899021 -0.7227166213 -0.66982227473 0.14808455916 -0.73368330918 -0.64047719276 0.22589971537 
-0.73604013661 -0.61486694469 0.2773969995 -0.73809749064 -0.58938660388 0.32797887939 -0.73911357109 -0.57005922704 0.35717456779 
-0.74008398165 -0.55100171704 0.38543226535 -0.74472199815 -0.53839623644 0.39406351155 -0.74955475479 -0.52613334148 0.40165264529 
-0.76106476511 -0.52032897601 0.38678151139 -0.77299210379 -0.51492826864 0.37050661077 -0.79181664728 -0.51557609508 0.32303508798 
-0.81113828661 -0.51665985189 0.27331515998 -0.8289778354 -0.52036546918 0.17919158527 -0.84669612224 -0.52428560234 0.081434984908 
-0.83914187163 -0.52084148493 -0.059274795721 -0.8292690396 -0.51672174821 -0.20392523509 -0.77929666469 -0.49948477265 -0.34613866766 
-0.72524007708 -0.48091178203 -0.48810388658 -0.65773044472 -0.46288039313 -0.58311715787 -0.58871205968 -0.44490974461 -0.67286479017 
-0.53312060485 -0.44088823756 -0.71892180299 -0.47917584901 -0.43857747428 -0.75962053229 -0.4422630237 -0.45231211923 -0.77347880349 
-0.40762112246 -0.46818615195 -0.78375834694 -0.38438446767 -0.49740759971 -0.77673704251 -0.36279280035 -0.52855415542 -0.76722042349 
-0.34621088715 -0.56873705195 -0.74438207695 -0.33040718819 -0.61032365191 -0.71947433585 -0.31441697287 -0.65520535637 -0.68426014744 
-0.29839567149 -0.70063624492 -0.64732821782 -0.27891438518 -0.74316346445 -0.6049195352 -0.2588164679 -0.78517319841 -0.56153479759 
-0.23416641689 -0.81982320259 -0.51922169647 -0.20865146048 -0.85307485811 -0.47711220628 -0.1789754612 -0.8775111501 -0.44206545165 
-0.1484588472 -0.90016656058 -0.4084455123 -0.11463648783 -0.91467257691 -0.38533859724 -0.080105754456 -0.9274322945 -0.3644844731 
-0.04317500481 -0.93319054558 -0.35476479884 -0.0056999215765 -0.93736083517 -0.34757046373 0.032938196704 -0.93538127867 -0.34996546883 
0.071854958797 -0.93192832155 -0.35465792003 0.11007995816 -0.923198318 -0.36596199413 0.14813019641 -0.91313516589 -0.37893637297 
0.18331750739 -0.89933076852 -0.39493733708 0.21774340153 -0.88453135911 -0.41174324409 0.24764383935 -0.86825456979 -0.428357629 
0.27627909583 -0.85156474954 -0.44491847011 0.3000028929 -0.83574352376 -0.45897280579 0.32228528341 -0.82017721158 -0.47229153662 
0.34065435334 -0.80719677824 -0.48156540307 0.35781932464 -0.79501199992 -0.48959469586 0.37311128043 -0.78616070254 -0.49241901988 
0.387799709 -0.77838352678 -0.49356618729 0.40318205193 -0.77391359595 -0.48806239996 0.41879829857 -0.77055846678 -0.48031671777 
0.43771130935 -0.76987035183 -0.46363941016 0.45778568022 -0.77012175325 -0.44381573452 0.48311126525 -0.77160309319 -0.41140445579 
0.51036833135 -0.77353682431 -0.37436325409 0.54298259303 -0.77352782651 -0.3196860863 0.57765252279 -0.77277336295 -0.25824162919 
0.61356764724 -0.76404038216 -0.1748008495 0.64998084958 -0.75211599447 -0.082561540795 0.67760347249 -0.72477082223 0.028970349411 
0.70156335396 -0.69100032309 0.14854081524 0.70636567689 -0.64005119018 0.27194078882 0.70285869731 -0.58165108359 0.39700175371 
0.68010784409 -0.51490135372 0.50713930808 0.64867377958 -0.44438411091 0.61054312843 0.60684498042 -0.37624339544 0.69244980961 
0.56013963906 -0.30921759405 0.76427141313 0.51058954111 -0.24921699421 0.81859621445 0.45965262432 -0.19264118013 0.8643913247 
0.40877545027 -0.14310024598 0.89861669478 0.35792852571 -0.097121276352 0.92698396857 0.30719079296 -0.056789722542 0.9479630014 
0.25651045591 -0.019426682175 0.96505847168 0.20518093054 0.013361263591 0.97697904739 0.15349730244 0.04365370321 0.98607695335 
0.10094933171 0.069784040705 0.99094843583 0.047912325001 0.093559504629 0.99342865241 -0.00487356981 0.1132767312 0.99220302974 
-0.057512145642 0.13061312519 0.98880331471 -0.10755789736 0.14388546228 0.98262337006 -0.15602693171 0.15468641343 0.97475274522 
-0.19951749182 0.16136111126 0.96574676388 -0.23987093118 0.16543570427 0.95602535242 -0.27421378336 0.16529331147 0.94690411805 
-0.3046330578 0.16239816404 0.93817466595 -0.3298319919 0.15474290547 0.93098795938 -0.35150168184 0.14386954361 0.9248442357 
-0.36989208732 0.12733725152 0.91999173083 -0.38598699369 0.10684370826 0.9160430791 -0.40079289565 0.079686603287 0.91213804928 
-0.41466473645 0.047700830395 0.90826462952 -0.42823950231 0.008442079544 0.90261372865 -0.44159146197 -0.036271404777 0.89562971694 
-0.4540497677 -0.08805307783 0.88496045994 -0.46581449127 -0.1453205093 0.87143101256 -0.47452660459 -0.2084564313 0.85276507725 
-0.48078737937 -0.27630492902 0.82997438648 -0.4809715515 -0.3476324971 0.8015779558 -0.4761074691 -0.42185036978 0.76852444887 
-0.46244620235 -0.49628156106 0.73053258335 -0.44122485528 -0.57089607302 0.68829681593 -0.41000773609 -0.64195873764 0.64270123457 
-0.36990548612 -0.70986420462 0.59411915192 -0.32118547093 -0.77047340225 0.54451125083 -0.26454267159 -0.82437473936 0.49396025859 
-0.20349369984 -0.86856320804 0.44531625639 -0.13825525267 -0.90351649034 0.39848545781 -0.074235038695 -0.92910984421 0.35634036804 
-0.011412754031 -0.94549926843 0.31880289193 0.045496941775 -0.95539237682 0.2876620217 0.096393835353 -0.95867906232 0.2630261744 
0.13895949368 -0.9590091329 0.24505036005 0.17276299078 -0.95622966021 0.23407906311 0.19777449959 -0.95304323102 0.22892869611 
0.21322279306 -0.9494141474 0.23010986694 0.22061449381 -0.94643505022 0.23559913102 0.21894252774 -0.94418718776 0.24593500001 
0.21084613076 -0.94251600967 0.25858330586 0.19527403236 -0.94151588248 0.27392244732 0.17589195347 -0.94061910101 0.28934742732 
0.15192378698 -0.93984671719 0.30487573151 0.12747492873 -0.9390147919 0.31855004047 0.10242747322 -0.93810872064 0.32991560065 
0.080056719477 -0.93748143515 0.33831810601 0.061134793005 -0.93721335441 0.34290282918 0.047036071602 -0.93761534169 0.34441194331 
0.039368290291 -0.93891075299 0.3418202454 0.037407728824 -0.94082152445 0.33671660728 0.04332313074 -0.9435814929 0.32814649165 
0.054791861346 -0.9463157822 0.31801166694 0.074193918653 -0.94901338698 0.30564154352 0.098253711657 -0.9506727055 0.29297855886 
0.12920307205 -0.95079622558 0.2798823836 0.16345184561 -0.94886775997 0.26808863707 0.20275503935 -0.94379582691 0.25829010048 
0.24384243848 -0.93588352724 0.25170524525 0.287761294 -0.92346368927 0.25022036261 0.3320348502 -0.90748358218 0.25414689532 
0.376891692 -0.88564881032 0.26697219996 0.42068329486 -0.85898378868 0.28753551312 0.46265914953 -0.82408538674 0.32128861356 
0.50131148908 -0.78198470301 0.36424088124 0.53408970886 -0.72715440494 0.4234521422 0.55976701817 -0.66304225908 0.48940176043 
0.57242599159 -0.58191339226 0.56770503366 0.57571557073 -0.4949763235 0.6441161355 0.56118044858 -0.3969895047 0.71692749666 
0.541819889 -0.30313472716 0.78027121525 0.51292909049 -0.21744073107 0.82491633978 0.48681661053 -0.14219615114 0.86069450666 
0.46640324553 -0.088386271011 0.87828404245 0.45262134055 -0.04429061186 0.89043639064 0.45297491613 -0.020901581645 0.89099894423 
0.46008238074 -0.0039922763958 0.88767817891 0.48215792376 -0.0014434426904 0.87575113922 0.509115654 -0.0021440562321 0.86005922256 
0.54732953811 -0.010336450927 0.83568717287 0.58754847404 -0.019085579193 0.80789569398 0.63257953433 -0.02917086803 0.77189758502 
0.67678574074 -0.03801658604 0.73398045491 0.71892981244 -0.043763376984 0.69126577196 0.75854960236 -0.04760593514 0.64882653632 
0.79159096099 -0.046485947242 0.6071051331 0.82176457594 -0.043859893736 0.56743279379 0.84414151278 -0.037139224357 0.53333134699 
0.86405468972 -0.029829252809 0.50216485277 0.87697396764 -0.020846423491 0.47932983687 0.88805535533 -0.012201739876 0.45947265603 
0.89368433536 -0.0045602218431 0.44844971921 0.89804673794 0.002080174108 0.43988852542 0.89847838297 0.0056136394618 0.43896722377 
0.89812066487 0.0079556935641 0.43965534397 0.89519751658 0.0064256610986 0.44557408517 0.89191221828 0.0039951721449 0.45213409937 
0.88739292734 -0.0015035389163 0.46087919192 0.8829474754 -0.0072859715537 0.4693649164 0.87876613986 -0.014083254445 0.47692290119 
0.87504295285 -0.020495252923 0.48359562785 0.87304240433 -0.025458582009 0.48693978395 0.87167269686 -0.029587707229 0.4891921962 
0.87280006858 -0.030414775481 0.48712312235 0.87448053189 -0.030289248608 0.48408392797 0.87846955141 -0.026187672517 0.47699553486 
0.88272916204 -0.021263893386 0.46932624823 0.88818183351 -0.012714946309 0.45909574925 0.89358159185 -0.0035363564222 0.44878325039 
0.89873442225 0.0085805665777 0.43808808539 0.90358747888 0.021177926522 0.4277688126 0.90695665535 0.036153449343 0.4193102063 
0.9098729674 0.051523426055 0.4115602308 0.91040578256 0.068969475878 0.40753989102 0.9104262207 0.086741974527 0.40433789447 
0.90757165441 0.10634621381 0.40572771267 0.90423062019 0.12611232323 0.4078317505 0.89797077844 0.14684965348 0.41422110604 
0.89136156814 0.16743972357 0.42106696806 0.88250329777 0.18708180639 0.43085159055 0.87356412164 0.2061645633 0.44076948598 
0.86406399899 0.22136932726 0.45161140721 0.85480081167 0.23560030734 0.46234513741 0.84731463937 0.24252790832 0.47226743483 
0.84029298432 0.24817706223 0.48197088601 0.83705893134 0.24340195546 0.48988989864 0.83431541295 0.23718875278 0.49757712234 
0.83594582798 0.21815252824 0.50319756138 0.83785883653 0.1976724431 0.50862497055 0.84254639962 0.16301627207 0.51215717742 
0.84715048658 0.1271230606 0.51553741516 0.85084468362 0.077746108471 0.51726118949 0.85410107598 0.02756829029 0.51886901412 
0.85200652217 -0.032397890685 0.51905967573 0.84932394788 -0.092566563234 0.51917938444 0.83848258939 -0.15554480637 0.51831462169 
0.82717482051 -0.21819773848 0.51744815005 0.8084044854 -0.27564569416 0.51655433603 0.78943596737 -0.33248826056 0.51573989549 
0.7667350042 -0.37792932866 0.51642032224 0.74406366258 -0.42275043394 0.51723526472 0.72206769233 -0.45343638684 0.5211171658 
0.70020275947 -0.48362729968 0.52514529993 0.68210515148 -0.49958581038 0.53337763399 0.66413971566 -0.515191158 0.54173724133 
0.65128493707 -0.51714086614 0.55501808214 0.63851679301 -0.51886034482 0.56838566029 0.63081676957 -0.50711139988 0.58682737343 
0.62318145222 -0.49546118558 0.60511411419 0.62318145222 -0.49546118558 0.60511411419 0.62318145222 -0.49546118558 0.60511411419 

FrenetNormal 3 240 double
-0.53061558943 -0.083123185256 0.84352690077 -0.53061558943 -0.083123185256 0.84352690077 -0.53061558943 -0.083123185256 0.84352690077 
-0.44447893907 0.021627210474 0.88398663052 -0.3576123171 0.12726532142 0.92478923934 -0.27562530299 0.20895554482 0.93108241338 
-0.19372170098 0.29023640263 0.93678568255 -0.13202019625 0.34688802819 0.92474287391 -0.07084115955 0.40290269086 0.91224111499 
-0.039803498002 0.4493766163 0.89046905581 -0.0098142321118 0.49551869001 0.8683745514 -0.046511054434 0.57005839639 0.81385619579 
-0.086132705188 0.64584361298 0.75791574143 -0.3512165773 0.68159992919 0.27286523888 -0.62827189479 0.71523081706 -0.23496986799 
-0.55840673194 0.4077877097 -0.55580051877 -0.46685903906 0.079027477635 -0.86494339104 -0.38001256218 0.0082783634119 -0.91871096654 
-0.29350491168 -0.043875354931 -0.95407311524 -0.1897490528 -0.033490917604 -0.97526809411 -0.084581976878 -0.017989722087 -0.9953039409 
0.053450516338 0.026240020204 -0.98703162841 0.19449818545 0.073105408987 -0.97616223709 0.33613379679 0.11399819575 -0.92131513128 
0.47782929114 0.15428266193 -0.8619888138 0.59052343481 0.14549308116 -0.7817706544 0.69996509055 0.13119986895 -0.69920948468 
0.7847355809 0.0095877271117 -0.58856000276 0.86648036228 -0.12518617024 -0.47446572784 0.8149803031 -0.3758071833 -0.24708855449 
0.74571426517 -0.64187447844 -0.0046069946927 0.58184879015 -0.74415453313 0.18910495492 0.40433916554 -0.82281142814 0.37578282614 
0.3271679359 -0.81362839569 0.46954967379 0.26558325304 -0.79080032597 0.54888374108 0.2630546083 -0.75292917928 0.60008607761 
0.27036863658 -0.7125508531 0.64659979235 0.30834970202 -0.665854765 0.67585113289 0.35179618003 -0.61803273914 0.70202601071 
0.41928749149 -0.56587588959 0.70436187015 0.4913473213 -0.51289542354 0.70216831609 0.58729467674 -0.45192728691 0.65916924695 
0.68806779495 -0.38934547947 0.6079266394 0.79120228706 -0.30832886603 0.49623114892 0.89484278787 -0.22336193702 0.37158146923 
0.94886578873 -0.12474615801 0.2126031005 0.99163533599 -0.023034763539 0.045838843538 0.98176380479 0.067816746187 -0.088787120521 
0.95928034854 0.15606640852 -0.21571328524 0.92213432398 0.22726267914 -0.29591610406 0.88128407163 0.29415072447 -0.36431513023 
0.84342512802 0.34879150914 -0.40276610723 0.80636174526 0.40017504364 -0.43325217753 0.77679643564 0.44175281216 -0.44632669333 
0.74932736153 0.48058918373 -0.45453346272 0.73768879676 0.50828922062 -0.44336112425 0.73069614234 0.53272098537 -0.4265014389 
0.75741330041 0.53617143823 -0.36299050734 0.79450270848 0.53316610283 -0.28512534618 0.84712949059 0.46507283873 -0.1008088824 
0.90476275988 0.3760067976 0.11780855666 0.87254836332 0.24422965257 0.33391754071 0.8100482367 0.098055506222 0.54918097813 
0.74008858191 0.021972892355 0.66239155811 0.66750113879 -0.029418386207 0.73965169968 0.6106551066 -0.038070648123 0.78853640069 
0.55959901866 -0.031002811963 0.82698415805 0.50716317233 0.001030170523 0.85893122528 0.45419788384 0.04264280218 0.88838384164 
0.38569129284 0.10111316011 0.91187400554 0.31096818083 0.16632660855 0.93297918844 0.21838445505 0.24164861699 0.93749343405 
0.11835880687 0.32118252542 0.93509478912 0.0094741148191 0.39636547266 0.90829268081 -0.1032530541 0.469661256 0.87090593779 
-0.20957632989 0.52576619063 0.81487470162 -0.31301004416 0.57411427889 0.75043070634 -0.40144410801 0.60419926298 0.68011318068 
-0.48284129882 0.62571637105 0.60704017162 -0.55143301874 0.63263834421 0.53655829998 -0.61378207159 0.6324451891 0.46733960784 
-0.66748491095 0.62166393862 0.40263659432 -0.71680992069 0.60552162718 0.34022000036 -0.76096550773 0.58013540413 0.28135196994 
-0.80240383412 0.54989020188 0.22434921009 -0.83895238369 0.51226010197 0.16919059318 -0.87283378227 0.47060187606 0.11503787241 
-0.9006152517 0.42430039666 0.061870093574 -0.92494544543 0.37537181331 0.0092595845132 -0.94164433522 0.32750345817 -0.042011690193 
-0.95386619337 0.28025710359 -0.092497280746 -0.96103213189 0.23058619467 -0.13895242056 -0.96512352469 0.17944089461 -0.1829566106 
-0.96608566796 0.11701116155 -0.21912001051 -0.96507595538 0.047470689908 -0.25034263855 -0.95479427872 -0.057243451884 -0.26644080723 
-0.93846006995 -0.18491818391 -0.27266606494 -0.87709559019 -0.35471969988 -0.25171172744 -0.78528811033 -0.55300129514 -0.21238245235 
-0.66907045319 -0.70362226022 -0.17170192995 -0.53576567197 -0.82088078418 -0.13007553445 -0.43596557539 -0.88955576277 -0.11387790713 
-0.3604442358 -0.92302527371 -0.11610692342 -0.30384017684 -0.941803407 -0.13535023923 -0.26142407837 -0.94956300707 -0.16735427968 
-0.21740467121 -0.95231651115 -0.20630185995 -0.17214090509 -0.95118468699 -0.25063845618 -0.11709733207 -0.94526052694 -0.2962312492 
-0.054200277753 -0.93548797595 -0.34283280629 0.019618383044 -0.9181542314 -0.38642711264 0.10251037846 -0.8945388799 -0.42752308763 
0.19250369946 -0.86001061515 -0.46239233937 0.28859972215 -0.81610406557 -0.49191050084 0.38408759115 -0.7599224235 -0.51402564692 
0.47903487908 -0.6928295881 -0.52956033488 0.56603918231 -0.61614090578 -0.53793894278 0.64574106412 -0.53063023516 -0.53973857385 