# vtk DataFile Version 5.1
vtk output
ASCII
DATASET POLYDATA
POINTS 240 float
0 0 0 -0.253994 -0.172237 0.120283 -0.507989 -0.344473 0.240566 
-0.74303 -0.547517 0.35095 -0.97791 -0.750821 0.46125 -1.19416 -0.979639 0.558933 
-1.41009 -1.20889 0.6564 -1.60821 -1.45918 0.738703 -1.80586 -1.71002 0.820613 
-1.98641 -1.97827 0.884734 -2.16635 -2.24712 0.948237 -2.32945 -2.53034 0.991143 
-2.4918 -2.81418 1.03315 -2.63702 -3.10949 1.05152 -2.78133 -3.4054 1.06865 
-2.90766 -3.7096 1.05893 -3.03287 -4.01433 1.04754 -3.13887 -4.32357 1.00644 
-3.24349 -4.63314 0.963203 -3.32773 -4.94282 0.888849 -3.4103 -5.2525 0.811949 
-3.47167 -5.55778 0.704466 -3.5311 -5.86264 0.594177 -3.56936 -6.15922 0.455983 
-3.60546 -6.45495 0.314946 -3.62122 -6.73971 0.14999 -3.6347 -7.02324 -0.0176477 
-3.62909 -7.29434 -0.204881 -3.62115 -7.56391 -0.394518 -3.59571 -7.82075 -0.599463 
-3.56793 -8.07589 -0.80645 -3.52425 -8.31879 -1.02494 -3.47828 -8.55993 -1.2451 
-3.41784 -8.78979 -1.47354 -3.35515 -9.0179 -1.70328 -3.27946 -9.23612 -1.93854 
-3.2016 -9.45269 -2.17472 -3.11204 -9.66092 -2.41417 -3.0204 -9.86767 -2.65421 
-2.91833 -10.0678 -2.89561 -2.81427 -10.2666 -3.13728 -2.70092 -10.4605 -3.37872 
-2.58569 -10.6534 -3.62011 -2.46231 -10.8433 -3.85986 -2.33718 -11.0325 -4.09926 
-2.20494 -11.2206 -4.33571 -2.07108 -11.4083 -4.57148 -1.93112 -11.597 -4.80294 
-1.7897 -11.7859 -5.03338 -1.64314 -11.9778 -5.258 -1.49529 -12.1704 -5.48115 
-1.3433 -12.3684 -5.69662 -1.19022 -12.5679 -5.91003 -1.03412 -12.7753 -6.11321 
-0.877191 -12.9851 -6.31352 -0.718769 -13.2059 -6.49999 -0.55991 -13.43 -6.68241 
-0.401903 -13.6686 -6.84553 -0.244157 -13.9116 -7.00273 -0.0914365 -14.1727 -7.13205 
0.0596654 -14.4396 -7.25239 0.197808 -14.7264 -7.33162 0.331582 -15.0198 -7.39699 
0.438071 -15.3281 -7.40346 0.534948 -15.6416 -7.38918 0.586112 -15.9499 -7.30393 
0.620463 -16.2563 -7.19257 0.601237 -16.5307 -7.02181 0.561454 -16.7927 -6.82827 
0.476668 -17.0108 -6.60191 0.373881 -17.2114 -6.36244 0.238717 -17.3705 -6.11044 
0.0900611 -17.5124 -5.85322 -0.0814165 -17.6189 -5.59444 -0.262793 -17.7101 -5.33497 
-0.460724 -17.7707 -5.07969 -0.666125 -17.8176 -4.82629 -0.883506 -17.8376 -4.58027 
-1.10651 -17.845 -4.3377 -1.33777 -17.8284 -4.10417 -1.57306 -17.8001 -3.87507 
-1.81331 -17.7502 -3.65561 -2.05606 -17.6894 -3.44103 -2.30073 -17.6091 -3.23575 
-2.54642 -17.5187 -3.03536 -2.7912 -17.4111 -2.84293 -3.03548 -17.2942 -2.65485 
-3.27635 -17.1627 -2.47248 -3.51529 -17.0228 -2.29333 -3.74863 -16.871 -2.11686 
-3.97868 -16.7122 -1.94195 -4.20118 -16.5444 -1.76586 -4.41908 -16.3712 -1.58906 
-4.62722 -16.1926 -1.40621 -4.8292 -16.0107 -1.21956 -5.01837 -15.8286 -1.02075 
-5.19917 -15.6463 -0.814006 -5.36231 -15.4721 -0.587946 -5.5135 -15.3033 -0.348827 
-5.6401 -15.156 -0.0853005 -5.74949 -15.0237 0.195311 -5.82725 -14.9284 0.496808 
-5.8821 -14.8598 0.813438 -5.90417 -14.8357 1.13686 -5.90166 -14.845 1.46539 
-5.87211 -14.8947 1.78621 -5.82158 -14.9758 2.10106 -5.75193 -15.0878 2.40054 
-5.66693 -15.2247 2.6877 -5.56914 -15.3845 2.9571 -5.46074 -15.5633 3.21175 
-5.34415 -15.759 3.44855 -5.22052 -15.9695 3.67002 -5.09209 -16.193 3.87435 
-4.9594 -16.4281 4.06345 -4.82461 -16.6735 4.2365 -4.68787 -16.9283 4.39479 
-4.55127 -17.1911 4.53868 -4.41479 -17.4615 4.66889 -4.28021 -17.7382 4.78661 
-4.14752 -18.021 4.89205 -4.01811 -18.3088 4.98694 -3.89204 -18.6016 5.07111 
-3.77027 -18.8984 5.14671 -3.65301 -19.1994 5.2133 -3.54052 -19.5033 5.27355 
-3.43321 -19.8106 5.32693 -3.33048 -20.1199 5.37649 -3.23291 -20.4317 5.42176 
-3.13922 -20.7448 5.4657 -3.05004 -21.0595 5.50809 -2.96355 -21.3748 5.55149 
-2.88031 -21.6908 5.59611 -2.79829 -22.0066 5.64387 -2.71777 -22.3222 5.69554 
-2.63667 -22.6368 5.75214 -2.55484 -22.95 5.8151 -2.47045 -23.2611 5.88444 
-2.38266 -23.5693 5.96228 -2.29024 -23.8739 6.04756 -2.19141 -24.1736 6.1431 
-2.08595 -24.468 6.24668 -1.971 -24.7548 6.36173 -1.84776 -25.0342 6.48474 
-1.71225 -25.3028 6.61952 -1.56748 -25.5621 6.76144 -1.40855 -25.8071 6.91427 
-1.24032 -26.0413 7.07271 -1.05734 -26.2585 7.24005 -0.865896 -26.4644 7.41113 
-0.66052 -26.6517 7.58835 -0.447965 -26.828 7.76751 -0.223175 -26.9856 7.94998 
0.00744743 -27.1332 8.13296 0.248376 -27.263 8.31684 0.493892 -27.3839 8.50023 
0.747818 -27.4884 8.68273 1.00528 -27.5853 8.86414 1.26948 -27.6676 9.04348 
1.53638 -27.7433 9.22143 1.80864 -27.8059 9.39665 2.08294 -27.8628 9.57042 
2.3614 -27.9079 9.74121 2.64138 -27.948 9.91062 2.92457 -27.9771 10.0771 
3.20882 -28.0017 10.2423 3.49542 -28.0158 10.4048 3.78269 -28.0255 10.5664 
4.0715 -28.025 10.7256 4.36062 -28.0201 10.884 4.65048 -28.0047 11.0405 
4.94032 -27.985 11.1965 5.23011 -27.9546 11.3509 5.51956 -27.9199 11.505 
5.80814 -27.874 11.6579 6.09614 -27.8241 11.8104 6.38252 -27.7628 11.9621 
6.66813 -27.6978 12.1134 6.95155 -27.6219 12.264 7.23412 -27.5426 12.4143 
7.51416 -27.4533 12.5639 7.7934 -27.3613 12.7132 8.07012 -27.2607 12.8618 
8.34616 -27.158 13.0102 8.62 -27.0486 13.1579 8.89336 -26.9378 13.3054 
9.16511 -26.8225 13.4524 9.43661 -26.7064 13.5994 9.70725 -26.5881 13.7462 
9.97787 -26.4698 13.893 10.2484 -26.3517 14.04 10.5191 -26.2341 14.1873 
10.7905 -26.1191 14.3353 11.0621 -26.0053 14.4837 11.3349 -25.8966 14.6338 
11.6081 -25.7895 14.7844 11.8828 -25.6902 14.9375 12.1578 -25.5931 15.0914 
12.4344 -25.5067 15.2488 12.7112 -25.4231 15.4073 12.9892 -25.3536 15.5704 
13.2673 -25.2874 15.7347 13.5456 -25.2394 15.9049 13.8236 -25.1953 16.0763 
14.0998 -25.1738 16.255 14.3753 -25.157 16.435 14.6457 -25.1677 16.6232 
14.9146 -25.1834 16.8127 15.1736 -25.2314 17.0108 15.4302 -25.2846 17.21 
15.6706 -25.3738 17.4169 15.9078 -25.468 17.6247 16.1218 -25.5996 17.8379 
16.3321 -25.7355 18.0513 16.5126 -25.9074 18.2668 16.6893 -26.0829 18.482 
16.832 -26.2899 18.695 16.971 -26.4994 18.9074 17.075 -26.7342 19.114 
17.1758 -26.9707 19.3198 17.2431 -27.2262 19.5169 17.3078 -27.4827 19.7133 
17.342 -27.7527 19.8993 17.3743 -28.0233 20.0846 17.3796 -28.3031 20.2588 
17.3834 -28.5834 20.4323 17.3636 -28.8698 20.5944 17.3427 -29.1565 20.7559 
17.3012 -29.4471 20.906 17.2589 -29.7379 21.0555 17.1988 -30.0312 21.1937 
17.1381 -30.3246 21.3316 17.0623 -30.6194 21.4583 16.9861 -30.9143 21.5848 
16.8971 -31.21 21.7005 16.808 -31.5057 21.816 16.7081 -31.8019 21.9212 
16.6082 -32.0981 22.0263 16.4997 -32.3947 22.1214 16.3911 -32.6913 22.2164 

LINES 2 240
OFFSETS vtktypeint64
0 240 
CONNECTIVITY vtktypeint64
0 1 2 3 4 5 6 7 8 
9 10 11 12 13 14 15 16 17 
18 19 20 21 22 23 24 25 26 
27 28 29 30 31 32 33 34 35 
36 37 38 39 40 41 42 43 44 
45 46 47 48 49 50 51 52 53 
54 55 56 57 58 59 60 61 62 
63 64 65 66 67 68 69 70 71 
72 73 74 75 76 77 78 79 80 
81 82 83 84 85 86 87 88 89 
90 91 92 93 94 95 96 97 98 
99 100 101 102 103 104 105 106 107 
108 109 110 111 112 113 114 115 116 
117 118 119 120 121 122 123 124 125 
126 127 128 129 130 131 132 133 134 
135 136 137 138 139 140 141 142 143 
144 145 146 147 148 149 150 151 152 
153 154 155 156 157 158 159 160 161 
162 163 164 165 166 167 168 169 170 
171 172 173 174 175 176 177 178 179 
180 181 182 183 184 185 186 187 188 
189 190 191 192 193 194 195 196 197 
198 199 200 201 202 203 204 205 206 
207 208 209 210 211 212 213 214 215 
216 217 218 219 220 221 222 223 224 
225 226 227 228 229 230 231 232 233 
234 235 236 237 238 239 
CELL_DATA 1
FIELD FieldData 3
Length 1 1 double
78.778049581 
Tortuosity 1 1 double
0.84105194549 
ClusterLabel 1 1 int
3 
POINT_DATA 240
FIELD FieldData 6
Curvature 1 240 double
0 0.086571566906 0.17314313381 0.16650532809 0.15907761243 0.15369773016 0.14835285359 0.14593584219 0.14359455144 
0.14419650283 0.14490082785 0.14813415801 0.15147840945 0.15692858342 0.16249057629 0.16889698291 0.1753561654 0.18011224008 
0.18474556826 0.18653499566 0.18809174027 0.18558111503 0.1826973366 0.17682764114 0.1706538245 0.16326937079 0.1557491447 
0.14736937416 0.13888418779 0.13065912329 0.1224687417 0.11498288274 0.10759863763 0.10041450613 0.093261460243 0.086807941983 
0.080471011661 0.074593349824 0.068797537815 0.06369103719 0.058715505727 0.054311451658 0.050022847566 0.047001780353 0.044252328185 
0.043316608072 0.042792249869 0.044712048085 0.047217425442 0.052381237741 0.058216654658 0.066887582035 0.076312634534 0.088916437165 
0.10240892263 0.12068986661 0.14037611908 0.16764272959 0.19724175795 0.23826353819 0.28296598294 0.34205260849 0.40598783433 
0.47033837617 0.53483522251 0.55892639889 0.56815571965 0.5340583514 0.48333562574 0.42898934501 0.37319364225 0.32971412628 
0.29136635482 0.26394972432 0.24127431159 0.22415980761 0.20955449415 0.19799692971 0.18786917343 0.17883794474 0.17034127325 
0.16210854057 0.15400944778 0.14564702322 0.13714618067 0.12810167385 0.11876062289 0.10989906418 0.10130879715 0.094577003623 
0.088935514546 0.089210339936 0.093082924125 0.10661564623 0.12623557852 0.15736797405 0.19601544976 0.24433132811 0.29918359135 
0.35314325218 0.40647809133 0.43765306133 0.45277015514 0.44516581197 0.42052039107 0.38778355947 0.34876682704 0.31382889455 
0.28216636203 0.2555696234 0.23318139047 0.2145702742 0.19920511756 0.18594271316 0.17454942186 0.16348296861 0.15271699549 
0.14259462796 0.13308421329 0.12425555483 0.11609729 0.10840148454 0.10117597673 0.093494824592 0.085334460298 0.076444181009 
0.066759959093 0.057208704983 0.047807039653 0.039737647792 0.033218537786 0.030779775 0.033252541274 0.038753150692 0.048024281762 
0.058395697575 0.070184787961 0.082537042897 0.0956401839 0.10891986183 0.12244316073 0.13551387359 0.14793803495 0.15906411652 
0.16827012173 0.17542045882 0.17942168733 0.1810649867 0.17896635506 0.17519779832 0.16868314251 0.16153496889 0.15330693539 
0.14485105316 0.13599246157 0.1272979823 0.11890437564 0.11101196958 0.10407306709 0.097402130805 0.091260427748 0.085789260268 
0.081693550379 0.077926494112 0.074859988986 0.072307012619 0.070892127015 0.069775056931 0.069344617075 0.069148859484 0.069516339331 
0.069965662498 0.070619593965 0.07112617722 0.071248762104 0.071014885939 0.069811881296 0.068184541203 0.065352635963 0.062111080401 
0.057654228882 0.052866632537 0.04705258673 0.04101995358 0.034276911561 0.027410623787 0.020124387513 0.013020843893 0.0065707778453 
0.0029624756271 0.010039205409 0.017204968567 0.024723155507 0.032257685972 0.039860432899 0.047630048624 0.056135404054 0.064782982064 
0.07409426545 0.083655352858 0.094452970176 0.10551554351 0.11797262217 0.13064562545 0.14453020575 0.15846924245 0.17273501753 
0.18692009767 0.20058570417 0.21374099336 0.22335808251 0.23244954089 0.2375987686 0.24198403325 0.24014006071 0.2376452591 
0.22934723167 0.22074034915 0.20910107122 0.19740035483 0.18502995932 0.17272933082 0.16128141011 0.14996177167 0.14042204956 
0.13097534836 0.12301698155 0.11511734329 0.10832375931 0.10155615966 0.095381002638 0.089235933298 0.083955884725 0.078690845496 
0.07400616753 0.069329015909 0.06509215539 0.060636125107 0.030318062553 0 
Torsion 1 240 double
0 0 0 -0.065174088094 -0.13090049897 -0.14169086216 -0.1515421476 -0.1535656053 -0.15538661918 
-0.14955966885 -0.14346670237 -0.13371689301 -0.12380669581 -0.11153590406 -0.099139771002 -0.084482085278 -0.069683052512 -0.054716448541 
-0.039737767365 -0.026220590352 -0.012822990951 -0.001910749675 0.0087734770946 0.01778294267 0.026621830717 0.034932597549 0.043184135834 
0.051764450907 0.060385087661 0.069481807178 0.078642004397 0.088316278253 0.098064697778 0.10955687783 0.1213199333 0.13552631709 
0.15013992226 0.17112957889 0.19325556153 0.22422193044 0.25686797274 0.30387258576 0.35377792015 0.41021079293 0.46804242393 
0.50386743978 0.53470126456 0.5151187374 0.4834572926 0.42675791566 0.36373316641 0.3067524392 0.25137916466 0.21059722009 
0.17389457209 0.14837113684 0.12612855752 0.1115169454 0.09925332318 0.091870990754 0.086061518371 0.082253695042 0.079120584876 
0.077386381318 0.076144974407 0.078458114859 0.082078675032 0.087442316743 0.093474815323 0.094027072572 0.09238723329 0.085018041858 
0.075261620364 0.063235204877 0.050224213681 0.035089213044 0.018995817903 0.0013696415009 -0.016975617468 -0.036559859298 -0.056748105275 
-0.0807345324 -0.10664408922 -0.13886851767 -0.17441230172 -0.22189311546 -0.27588503631 -0.3521443652 -0.44100235915 -0.55753190737 
-0.69029543408 -0.7655621009 -0.80586446102 -0.74974783158 -0.63287403065 -0.51678108312 -0.40119785934 -0.31125470896 -0.2386456927 
-0.18366699534 -0.14102952121 -0.11142269724 -0.09125837338 -0.077059631034 -0.06733507482 -0.060939773652 -0.057128371923 -0.056398349223 
-0.058142767258 -0.062472003948 -0.068948628444 -0.076761007584 -0.085721300871 -0.0953665886 -0.10562076028 -0.1170602442 -0.12958945067 
-0.14257800276 -0.15600330969 -0.16947441571 -0.18299055748 -0.19654108977 -0.21012659546 -0.22884972902 -0.25297622983 -0.29422399376 
-0.35409488599 -0.45777147014 -0.61072945768 -0.8453575048 -1.175019803 -1.2879735112 -1.1400742869 -0.94041269638 -0.67629231013 
-0.48146994105 -0.37593540178 -0.29514352248 -0.24734185647 -0.20863781737 -0.18248850342 -0.16049767849 -0.14444755218 -0.13059975272 
-0.12000956172 -0.11080874431 -0.10373632902 -0.097798155373 -0.0936599739 -0.090132648084 -0.087609840461 -0.084845993391 -0.081671283627 
-0.077891125388 -0.073040872172 -0.067283029378 -0.059861272359 -0.051219319721 -0.040256019321 -0.027903977356 -0.012809170796 0.0036382889767 
0.022860422009 0.042209850605 0.061830619749 0.079574368585 0.093158234581 0.10410920313 0.10898988034 0.11125607295 0.10724750252 
0.10164275577 0.092047568177 0.081880193655 0.070221665305 0.05876749025 0.047868900719 0.037557509384 0.028913003255 0.020896397781 
0.014742564255 0.0092491855813 0.0058054943838 0.0039847082562 0.0074383636057 0.021252044646 0.070366553965 1.5760140873 8.2915682065 
12.180139065 5.4392528603 0.04859758152 0.0026063825364 -0.035880262227 -0.043043550244 -0.048685545643 -0.047620023584 -0.04675526825 
-0.0468274243 -0.047363851872 -0.050198423479 -0.053006307815 -0.055673732825 -0.057935424992 -0.057920505098 -0.057618211882 -0.055591678733 
-0.053390787122 -0.05006746291 -0.046723038691 -0.043232321096 -0.039677344966 -0.035640429824 -0.031561119813 -0.027136128566 -0.02264415577 
-0.01755493083 -0.012429662062 -0.0069505084324 -0.0014886423051 0.0037847900525 0.0090247437363 0.013855513631 0.01867758642 0.023378986866 
0.028110655915 0.033326622623 0.03857644574 0.044463897888 0.050391879834 0.057243941184 0.064138822671 0.072264783095 0.080466584474 
0.091600902821 0.10168994676 0.050630437626 0 0 0 
FrenetTangent 3 240 double
-0.74276963171 -0.57057698421 0.35033580932 -0.74276963171 -0.57057698421 0.35033580932 -0.74276963171 -0.57057698421 0.35033580932 
-0.71409810153 -0.61323231094 0.33316514779 -0.68518359228 -0.65624912348 0.31584897218 -0.65694584195 -0.69222507495 0.29441743979 
-0.62871966014 -0.72808066982 0.27291555942 -0.60145819902 -0.75813072625 0.24733111351 -0.57422168757 -0.78803063945 0.22164108401 
-0.54752508113 -0.81316376823 0.19162512625 -0.520847254 -0.83813109581 0.16145870142 -0.49394700808 -0.85883505643 0.12660891817 
-0.46703700696 -0.87935202728 0.091553724457 -0.43905882996 -0.89548700779 0.051451673966 -0.41102393566 -0.91138931625 0.01108164878 
-0.38117618485 -0.92218417305 -0.03427218463 -0.3512151305 -0.93265981411 -0.079937506054 -0.31914628978 -0.93697150744 -0.12925540946 
-0.28692553653 -0.94083895228 -0.17883656202 -0.25288794088 -0.937877933 -0.22949626802 -0.21870169449 -0.9343582212 -0.28024421931 
-0.18360489601 -0.92432747545 -0.32894064444 -0.14842456065 -0.91369938714 -0.37744885617 -0.11360640363 -0.89793887872 -0.42124916518 
-0.078825135142 -0.8816556238 -0.46456996557 -0.045359873682 -0.86208426705 -0.50190510689 -0.012042201795 -0.84214415121 -0.53856895934 
0.019373432957 -0.82071793053 -0.56898064499 0.050555799003 -0.7991094517 -0.59862555547 0.079572540381 -0.77749875694 -0.62237908575 
0.1083005318 -0.75588776672 -0.64534709867 0.13495891017 -0.73523469166 -0.66318916207 0.16131878666 -0.71471977743 -0.68029190582 
0.18569536708 -0.6958411 -0.69301003712 0.20976386268 -0.67721659527 -0.70504706358 0.23193017142 -0.660681504 -0.71338618612 
0.25377944902 -0.64449464831 -0.72110899134 0.27385769284 -0.63063869185 -0.7257534557 0.29362030687 -0.61719814318 -0.72984930485 
0.31173119888 -0.60625943212 -0.73133701703 0.32952826369 -0.5957960702 -0.73232918319 0.34574520172 -0.58798096559 -0.7310516061 
0.36164292222 -0.58070086244 -0.72931549502 0.37602115995 -0.57621787611 -0.72550393438 0.39007379423 -0.57233427196 -0.72124763454 
0.40269833345 -0.57140194721 -0.71494198549 0.41499897482 -0.5711389848 -0.7081715356 0.42590760597 -0.57404805183 -0.69918689355 
0.43648273468 -0.57771708424 -0.68967176797 0.44566110731 -0.58485639171 -0.67751984383 0.45448661525 -0.59287240025 -0.66470178112 
0.4617921064 -0.60480466927 -0.64843447925 0.46869333777 -0.61777849694 -0.63124982655 0.473676775 -0.63524039226 -0.60928181219 
0.47812405473 -0.65395701616 -0.58597651393 0.47974320183 -0.6778501383 -0.555649667 0.48053235348 -0.70326245013 -0.52326214818 
0.47650423805 -0.73444836112 -0.48000127176 0.47099388659 -0.76741076416 -0.43339474683 0.45645146747 -0.80536474856 -0.36979915791 
0.43899871543 -0.84492713141 -0.30072931502 0.40463588649 -0.88357342113 -0.20702525874 0.36457303162 -0.92191091543 -0.10501753501 
0.29854278141 -0.94211144566 0.022051718513 0.22336492601 -0.95592281811 0.15794946549 0.12613356516 -0.93108788534 0.29574750946 
0.020790570118 -0.89203821961 0.43424451324 -0.084380930703 -0.8204089613 0.54248614374 -0.1894866256 -0.73627823142 0.63911815427 
-0.27826442191 -0.64527263418 0.69987381474 -0.36051105878 -0.55151708999 0.74627893519 -0.42634097774 -0.46468039597 0.76970726315 
-0.48533059757 -0.3807265562 0.78356192755 -0.53287345783 -0.30487153223 0.78526740026 -0.57545145851 -0.23252924765 0.78170334404 
-0.61022274528 -0.1662980725 0.77153449565 -0.64147149042 -0.10282434916 0.75838543618 -0.66671984144 -0.043837455736 0.74153332797 
-0.68915319274 0.013044505141 0.72294398703 -0.70644603579 0.06641722776 0.70250991262 -0.72123288107 0.11807919673 0.68117653065 
-0.73132771611 0.16662068569 0.6595073173 -0.73904684977 0.21358218478 0.63766806275 -0.74237842835 0.2575001641 0.6169434618 
-0.74340372797 0.29981834455 0.59680476851 -0.74038707572 0.33885984942 0.5792448365 -0.73516572244 0.37611407668 0.56309150154 
-0.72635229133 0.40976432039 0.55085446524 -0.71550650038 0.44137546814 0.5408332295 -0.70144869581 0.46894854979 0.53598658545 
-0.68550650991 0.49415263266 0.53417570185 -0.66631555252 0.5145454179 0.53902590579 -0.64514899084 0.53201241405 0.54792677107 
-0.61989888724 0.54308217337 0.56536428818 -0.59207559284 0.55012079716 0.58818106534 -0.55815789213 0.54718816686 0.62158636897 
-0.52026189839 0.53774652349 0.66190362739 -0.47319742114 0.51191850241 0.71252595441 -0.41993453249 0.47501236682 0.77011508838 
-0.35530175595 0.41548769681 0.82995946627 -0.28271005789 0.3401300527 0.89138251491 -0.20264159917 0.24573314346 0.93895417176 
-0.11715519795 0.13753966527 0.97648858821 -0.034458579943 0.025800140914 0.99098915084 0.04614570066 -0.088598918079 0.98821432311 
0.11661474683 -0.19311087625 0.96818353885 0.17921764089 -0.28994926364 0.93476007192 0.23130062962 -0.37394482574 0.89385579116 
0.27493581558 -0.44762720994 0.84694419022 0.31059123844 -0.51126520062 0.79812062714 0.33961731965 -0.56655861822 0.74770866474 
0.3628313317 -0.61491719873 0.69754787163 0.3810505968 -0.65731615362 0.64760292711 0.39480971366 -0.69493613823 0.59869807052 
0.40460425431 -0.72830814926 0.55071773653 0.41073672014 -0.75809515553 0.50447233742 0.41350243978 -0.78458627031 0.45982195908 
0.41324771858 -0.80827596489 0.4175421173 0.41012110281 -0.82930201403 0.37751622832 0.40457293006 -0.8482130194 0.34010651183 
0.39664355962 -0.86504423172 0.30526936495 0.38684135293 -0.88026137621 0.27314015368 0.375134567 -0.89383709577 0.24376477522 
0.36221108927 -0.90604652171 0.21736025482 0.3480079874 -0.91681898369 0.19408025754 0.33347174913 -0.92630395919 0.17423210688 
0.31857315197 -0.9343885108 0.15811684201 0.30423415856 -0.94128167606 0.14567832528 0.29052471937 -0.94683453168 0.13737615021 
0.27814684381 -0.95128256594 0.13268269167 0.26731842411 -0.95444498989 0.13218846691 0.25843850488 -0.95650072407 0.13509563333 
0.25190400288 -0.95722433167 0.14209706692 0.24781423303 -0.95671331309 0.15215243671 0.24676884662 -0.9546648355 0.16601082138 
0.24859162394 -0.95110494442 0.18245845726 0.25410991992 -0.94559765522 0.20224224375 0.26278131357 -0.93815131086 0.22411217147 
0.27565683746 -0.92811955963 0.24876362081 0.29177469385 -0.91559559936 0.27489851434 0.31236696908 -0.89963239061 0.30308056084 
0.33593853478 -0.88064338088 0.33190982236 0.36376622974 -0.85733179833 0.36166367673 0.39382417924 -0.83075071008 0.39097874919 
0.42718104692 -0.79933347801 0.41964479008 0.46156573768 -0.76499179812 0.44673503193 0.4975249659 -0.72617011308 0.47141128379 
0.53315510316 -0.68545659481 0.49367115513 0.56826298739 -0.64174081947 0.51209633565 0.60201862489 -0.59749567418 0.52784959861 
0.63355056778 -0.55238000942 0.53920904158 0.66331733554 -0.50783352499 0.54819351631 0.69007528205 -0.46425723429 0.55312974972 
0.71507517587 -0.4219042994 0.55625322358 0.73696781379 -0.38171357476 0.55617275031 0.75729749822 -0.3430297397 0.55487994511 
0.77476176791 -0.30710853556 0.55136453137 0.79095109177 -0.27262446793 0.54714538641 0.80471490892 -0.24087446491 0.54158743571 
0.81745246552 -0.21036254969 0.53571264027 0.82816315758 -0.18229585787 0.52921207647 0.83805542783 -0.15515786398 0.52266331118 
0.84626888415 -0.12992489148 0.51601567104 0.85381142887 -0.10527483851 0.50949635258 0.85992387256 -0.081867324546 0.50325056186 
0.8654501734 -0.058755213394 0.49724480336 0.86967745496 -0.036297778739 0.49177100813 0.87337143645 -0.013890249674 0.48657903007 
0.87583586501 0.0084022192812 0.48203679718 0.87779223952 0.03077573422 0.47777618986 0.8785292843 0.053343759519 0.47419148395 
0.87878158614 0.076041125043 0.47084568417 0.87782203065 0.09906184113 0.46809714972 0.87641713501 0.12214003697 0.46552173379 
0.87385165597 0.14536802853 0.4633974752 0.87092292622 0.16845695182 0.46137364449 0.86700660858 0.19116778325 0.45962285209 
0.86285839954 0.21348088048 0.45791406221 0.85805191814 0.23466492578 0.45632450527 0.85317398359 0.25520454938 0.4547511991 
0.84808407137 0.27383238857 0.45322610349 0.84308368943 0.29162300713 0.45172579303 0.83836116007 0.30681535473 0.45030240203 
0.83386045269 0.32105271194 0.44893612469 0.83008066674 0.33218635037 0.44775546676 0.82660602514 0.34231553001 0.44667859662 
0.82417113466 0.3490221093 0.44595537378 0.82206806791 0.35472609676 0.44538904989 0.82115190909 0.35684389036 0.44538394149 
0.82054184761 0.35799434003 0.44558760389 0.82108271209 0.35550757658 0.4465762445 0.82186747205 0.35208894109 0.44782344165 
0.82361765164 0.34498164544 0.45009409177 0.82552394177 0.33696719794 0.45266657268 0.82808182373 0.3251663775 0.45649886907 
0.83069936064 0.31243346364 0.46066766948 0.83357992165 0.2955908652 0.46632014671 0.83641056051 0.277751712 0.47232072859 
0.83900822928 0.25526197001 0.4799457989 0.84140838026 0.23169171846 0.48791658946 0.84283081819 0.20277294463 0.49759869532 
0.84384435349 0.17267491897 0.50762135583 0.84270576963 0.13637030476 0.51943640919 0.84087596784 0.098837089834 0.53154678449 
0.83516766539 0.054410059821 0.54531424403 0.82844966605 0.0088231182351 0.55924476352 0.81567348531 -0.04372329279 0.57415364273 
0.80159621197 -0.09720601069 0.58900130725 0.77914315502 -0.15671620411 0.6034549023 0.75524869747 -0.21671453552 0.61755667818 
0.721360529 -0.28009729043 0.6292191745 0.68613556533 -0.34340193926 0.6402758516 0.64088463767 -0.4061207925 0.64678888445 
0.59466601878 -0.46822908356 0.6525712717 0.54055699442 -0.5253589445 0.65239608718 0.48604066741 -0.58151744042 0.65154310856 
0.42789255836 -0.62901459839 0.64464646583 0.36983322712 -0.67549059423 0.63725566192 0.31264553245 -0.71194063467 0.62501309364 
0.25582509755 -0.74754181593 0.6124797877 0.2030077941 -0.77389043205 0.59677744121 0.15063848153 -0.79962699553 0.5809386844 
0.1037446131 -0.81788291556 0.56343269032 0.05725656804 -0.8357374109 0.54587894529 0.016399322146 -0.84802213844 0.52766265596 
-0.024134383676 -0.86005790313 0.50943948405 -0.059491448319 -0.86811026198 0.491106191 -0.094599746479 -0.87601360594 0.4727840134 
-0.12502294252 -0.88111050304 0.45467117672 -0.15525650275 -0.88612232334 0.43657840756 -0.18116636624 -0.88919439285 0.41894317762 
-0.20693836933 -0.89222215834 0.40132925336 -0.2287468855 -0.89397618351 0.38432786733 -0.25046259578 -0.89571054316 0.36734359172 
-0.26858981112 -0.89668450305 0.35102091889 -0.28665975277 -0.89765235369 0.33471036094 -0.30137918386 -0.89826281342 0.31910852324 
-0.31597492224 -0.89886814323 0.30363779343 -0.31597492224 -0.89886814323 0.30363779343 -0.31597492224 -0.89886814323 0.30363779343 

FrenetNormal 3 240 double
0.50604534395 -0.82102420657 -0.26426759563 0.50604534395 -0.82102420657 -0.26426759563 0.50604534395 -0.82102420657 -0.26426759563 
0.52682450714 -0.78572783791 -0.31703643491 0.54777976493 -0.75013234749 -0.37025246774 0.55716903341 -0.70973803616 -0.42546604384 
0.56636059266 -0.66926169369 -0.48071376598 0.566564042 -0.62367188552 -0.53393278776 0.56653504021 -0.57794983254 -0.58709934315 
0.56203070906 -0.52765546035 -0.63324139124 0.55737071428 -0.47720205097 -0.67913910865 0.55202182866 -0.42297522765 -0.71557790785 
0.54664272853 -0.36858290371 -0.75160184223 0.54274225566 -0.31078772958 -0.77768318747 0.53892029397 -0.25281187314 -0.80323660763 
0.53851603068 -0.19218777909 -0.81801746921 0.53832537355 -0.13139817019 -0.83212504587 0.54271422071 -0.06970672075 -0.8347156875 
0.54743312224 -0.0079502737985 -0.83647627976 0.55604480353 0.052478257831 -0.82718204218 0.56497498499 0.11279814184 -0.81698331852 
0.57600777404 0.16935101698 -0.79738898173 0.58723346288 0.22555829498 -0.77693266208 0.59881843661 0.27589842856 -0.74960296397 
0.61044000416 0.32564098261 -0.72157319954 0.6221515393 0.36823745534 -0.68872141634 0.63387316426 0.41003249838 -0.65532884599 
0.64617542408 0.44408703673 -0.61856661233 0.65854889384 0.4771922679 -0.58139111808 0.67204355472 0.50246941729 -0.54178332254 
0.68568770775 0.52670282243 -0.50185122016 0.70095836834 0.5432558992 -0.45963076478 0.71646362137 0.55870123631 -0.41708025849 
0.73381669112 0.56632643923 -0.37201483183 0.75145680036 0.57273686401 -0.32655873792 0.7709089713 0.57068880736 -0.27790093161 
0.79066315252 0.5672310038 -0.22870950656 0.81230462393 0.55322819458 -0.17421526875 0.83428244408 0.53734607742 -0.11877597521 
0.85705794189 0.50654720317 -0.054607303844 0.87998499845 0.47291414507 0.011219949311 0.89879240368 0.41683133643 0.089802058454 
0.91676755611 0.35621322466 0.17096090618 0.91710290547 0.26461105984 0.26513940522 0.91365829702 0.16636945508 0.36210782954 
0.87205066064 0.04150199405 0.45801503218 0.82178749216 -0.089404320975 0.55368154537 0.73364877481 -0.21434890002 0.62291803263 
0.63643570721 -0.33786514649 0.68582232617 0.5321272527 -0.42711757772 0.71877562483 0.42602627939 -0.50771388719 0.74416235638 
0.33359105913 -0.55545461323 0.75569429889 0.24479034766 -0.59445715218 0.76354145709 0.17062464736 -0.61109475583 0.7698092221 
0.10055045555 -0.62147979692 0.77563543632 0.038980108435 -0.61569074376 0.78477322089 -0.02009454513 -0.60515494553 0.79488287938 
-0.077327562585 -0.57894601332 0.80910088064 -0.13399392278 -0.54791457833 0.82458298738 -0.19396854897 -0.49650833491 0.84192634663 
-0.255009172 -0.43853687543 0.85986944281 -0.3213238845 -0.35139198602 0.87174890089 -0.38941637997 -0.25441335619 0.881584436 
-0.45587031621 -0.1241302788 0.86794367681 -0.52174703273 0.017885047152 0.8460328594 -0.5693762512 0.17211301492 0.78468181547 
-0.61029374624 0.33083298888 0.70882402154 -0.62574283539 0.4644947976 0.60515773447 -0.63141916414 0.58854126383 0.49082074653 
-0.62033894089 0.67554726322 0.37622448524 -0.60255609684 0.74773707587 0.26152451462 -0.5770953781 0.79432191367 0.15989672677 
-0.54843554491 0.83023801195 0.063715681747 -0.51628498806 0.85223384664 -0.019471607049 -0.4826203824 0.86819197663 -0.097023049772 
-0.44563515458 0.87746292794 -0.16333153871 -0.40715159725 0.88371649374 -0.22456698753 -0.36460859454 0.88743590745 -0.27536030086 
-0.32016116066 0.88996645969 -0.32125483458 -0.27162179802 0.89177513092 -0.35745383646 -0.22108762012 0.89323188516 -0.38892626656 
-0.16580536953 0.89510350153 -0.41000124388 -0.1081190315 0.89718517468 -0.42581168815 -0.043593146535 0.9003213206 -0.42822292337 
0.024527884899 0.90401174067 -0.42359098459 0.101630952 0.90682428036 -0.40056182249 0.18363331129 0.90915797621 -0.3674978113 
0.27757253859 0.90290859441 -0.30557349034 0.37826552015 0.89180299762 -0.22732030989 0.48654601506 0.84770693912 -0.10482039414 
0.59927785113 0.78425647641 0.043637606325 0.68171637156 0.65539055722 0.21693876758 0.74573328111 0.48674496856 0.40534725634 
0.7561510129 0.29740281157 0.54290304969 0.73279392035 0.095018981395 0.64841467881 0.6990313977 -0.077621864949 0.69564842301 
0.65847644152 -0.2308471524 0.70483965901 0.62994088414 -0.36106545998 0.67757747688 0.60953111748 -0.47572975298 0.62567073039 
0.59969298406 -0.5739240233 0.54398275234 0.5972549939 -0.66058927775 0.4414479122 0.59409356142 -0.72648587098 0.31833817555 
0.59040789537 -0.7773327097 0.18031909359 0.57749100965 -0.80514695369 0.041045897233 0.55765070917 -0.81568675165 -0.099167884919 
0.53047367839 -0.80980726222 -0.22541212799 0.49760246887 -0.79118444527 -0.34081434073 0.46094942404 -0.76572221164 -0.43961592937 
0.42125945086 -0.73476771916 -0.52508671381 0.3790497894 -0.70263771594 -0.59760545997 0.33474684846 -0.66953113457 -0.65936405125 
0.28814777743 -0.63735148134 -0.71172852347 0.2395754696 -0.60596840698 -0.75601992462 0.18841020804 -0.57618212632 -0.793042106 