# vtk DataFile Version 5.1
vtk output
ASCII
DATASET POLYDATA
POINTS 240 float
0 0 0 -0.0243061 -0.369483 0.185012 -0.0486122 -0.738966 0.370023 
-0.142092 -1.05429 0.577124 -0.236158 -1.36916 0.784411 -0.383803 -1.64217 0.995301 
-0.532364 -1.91446 1.20625 -0.719092 -2.15695 1.40307 -0.906807 -2.39866 1.59953 
-1.11752 -2.62221 1.76567 -1.32904 -2.84513 1.93075 -1.54916 -3.0608 2.05201 
-1.76965 -3.27615 2.17134 -1.98623 -3.4939 2.23732 -2.2026 -3.71178 2.30047 
-2.40579 -3.93973 2.30581 -2.60816 -4.1683 2.30753 -2.79254 -4.41188 2.25263 
-2.97563 -4.65653 2.19364 -3.14049 -4.91778 2.0844 -3.30386 -5.18038 1.97106 
-3.45238 -5.45754 1.81753 -3.59953 -5.73603 1.66031 -3.73667 -6.02351 1.47428 
-3.87278 -6.31191 1.28532 -4.0026 -6.60091 1.07753 -4.13172 -6.88998 0.867623 
-4.25506 -7.16958 0.645563 -4.37769 -7.44802 0.422012 -4.49101 -7.70677 0.188908 
-4.60309 -7.9629 -0.0454684 -4.69894 -8.19069 -0.290262 -4.79245 -8.41439 -0.536559 
-4.86132 -8.60424 -0.796085 -4.92636 -8.78883 -1.05767 -4.95912 -8.93826 -1.33554 
-4.9865 -9.08184 -1.61613 -4.97664 -9.19351 -1.91499 -4.96014 -9.2995 -2.21712 
-4.90503 -9.38087 -2.53778 -4.84259 -9.45756 -2.86196 -4.74376 -9.51983 -3.20307 
-4.63758 -9.57919 -3.5476 -4.50011 -9.63574 -3.90571 -4.35593 -9.69169 -4.26672 
-4.18743 -9.75633 -4.6364 -4.01342 -9.82294 -5.00804 -3.82301 -9.90825 -5.38184 
-3.62867 -9.99802 -5.75616 -3.42607 -10.114 -6.12446 -3.22139 -10.2366 -6.49124 
-3.0164 -10.3897 -6.84197 -2.81133 -10.5509 -7.18842 -2.61342 -10.7432 -7.50709 
-2.41752 -10.9443 -7.81799 -2.23559 -11.174 -8.08826 -2.05776 -11.4121 -8.3466 
-1.89982 -11.6731 -8.55159 -1.748 -11.9411 -8.74017 -1.62082 -12.2238 -8.86462 
-1.50159 -12.5113 -8.96841 -1.4104 -12.8037 -9.00134 -1.32866 -13.0979 -9.0104 
-1.27692 -13.3864 -8.94766 -1.23576 -13.673 -8.85964 -1.22527 -13.9437 -8.70561 
-1.22607 -14.2085 -8.52731 -1.25717 -14.4477 -8.29515 -1.2999 -14.6771 -8.04232 
-1.37176 -14.8725 -7.75253 -1.45527 -15.0542 -7.44795 -1.56603 -15.1949 -7.12537 
-1.68813 -15.3183 -6.79528 -1.83467 -15.3953 -6.46513 -1.9918 -15.4521 -6.13496 
-2.16943 -15.4592 -5.819 -2.35631 -15.444 -5.50946 -2.55847 -15.3789 -5.22284 
-2.7678 -15.2906 -4.94697 -2.98619 -15.156 -4.69643 -3.20899 -14.9989 -4.45823 
-3.43412 -14.8029 -4.24187 -3.66042 -14.5872 -4.03655 -3.8825 -14.3434 -3.8451 
-4.10236 -14.085 -3.66094 -4.31218 -13.8118 -3.48033 -4.51653 -13.5306 -3.30167 
-4.70603 -13.249 -3.11618 -4.88713 -12.9672 -2.92682 -5.04956 -12.6986 -2.72234 
-5.20104 -12.4376 -2.50898 -5.33073 -12.2012 -2.27571 -5.44719 -11.9797 -2.03032 
-5.53932 -11.7907 -1.76432 -5.61613 -11.6222 -1.48531 -5.66673 -11.4904 -1.1887 
-5.70022 -11.3825 -0.880584 -5.70668 -11.312 -0.560437 -5.69488 -11.2667 -0.232155 
-5.65689 -11.2567 0.101525 -5.60057 -11.2713 0.438983 -5.52089 -11.3174 0.77561 
-5.42429 -11.3861 1.11164 -5.30912 -11.4817 1.44206 -5.18002 -11.5974 1.76828 
-5.03852 -11.7355 2.08602 -4.88739 -11.891 2.39719 -4.73054 -12.0651 2.69872 
-4.5691 -12.2541 2.99252 -4.40816 -12.4588 3.27659 -4.24764 -12.6765 3.55257 
-4.09262 -12.9079 3.81892 -3.94233 -13.151 4.077 -3.80088 -13.4065 4.325 
-3.66729 -13.6729 4.56404 -3.54403 -13.9509 4.79162 -3.43027 -14.2394 5.00866 
-3.32657 -14.5385 5.212 -3.23244 -14.8476 5.40229 -3.14668 -15.1663 5.57611 
-3.06915 -15.4942 5.73372 -2.99729 -15.83 5.8721 -2.9312 -16.1737 5.99091 
-2.86761 -16.5235 6.08833 -2.80667 -16.8795 6.16324 -2.74508 -17.2395 6.21576 
-2.68278 -17.6038 6.24393 -2.61703 -17.9702 6.25035 -2.54739 -18.3391 6.2323 
-2.47202 -18.7085 6.19507 -2.38999 -19.0784 6.13551 -2.30048 -19.4476 6.06108 
-2.20196 -19.8157 5.96875 -2.09459 -20.1816 5.86718 -1.97621 -20.5447 5.75412 
-1.84786 -20.9042 5.63804 -1.70666 -21.2588 5.51806 -1.55452 -21.6079 5.4011 
-1.38777 -21.9496 5.28815 -1.20926 -22.2838 5.18345 -1.01453 -22.6074 5.09014 
-0.807533 -22.9212 5.00912 -0.583029 -23.221 4.94566 -0.346312 -23.509 4.89718 
-0.0915297 -23.7794 4.87085 0.174697 -24.0363 4.86082 0.458455 -24.2727 4.87576 
0.752089 -24.4946 4.90712 1.0614 -24.6938 4.96453 1.37833 -24.8784 5.03749 
1.70779 -25.0388 5.13602 2.04218 -25.185 5.24853 2.38498 -25.3069 5.38484 
2.72988 -25.4151 5.53306 3.07852 -25.4994 5.70233 3.42662 -25.5711 5.88121 
3.77376 -25.6196 6.07768 4.11814 -25.6566 6.28139 4.45725 -25.6715 6.49888 
4.79193 -25.6757 6.72135 5.11786 -25.6588 6.95369 5.43838 -25.6318 7.18897 
5.7478 -25.5845 7.43032 6.05157 -25.5278 7.67286 6.34331 -25.4513 7.91795 
6.62995 -25.3662 8.16277 6.90529 -25.2619 8.40699 7.17679 -25.1497 8.64977 
7.43946 -25.0194 8.88923 7.70013 -24.8823 9.12639 7.956 -24.7291 9.35805 
8.21199 -24.5707 9.58693 8.46829 -24.3992 9.80885 8.72673 -24.2244 10.0279 
8.99073 -24.0408 10.2395 9.25838 -23.856 10.4485 9.53597 -23.668 10.6508 
9.81791 -23.4812 10.8513 10.1122 -23.2977 11.0469 10.4105 -23.1177 11.2418 
10.7209 -22.9481 11.4349 11.034 -22.7845 11.6285 11.3557 -22.639 11.8239 
11.678 -22.5015 12.0212 12.0023 -22.3899 12.2242 12.3244 -22.2881 12.43 
12.6393 -22.2194 12.6453 12.9491 -22.1616 12.864 13.2406 -22.1428 13.0948 
13.5243 -22.1355 13.3291 13.7786 -22.1714 13.5763 14.0229 -22.2186 13.8266 
14.2278 -22.3108 14.0886 14.4217 -22.4136 14.3526 14.5694 -22.5609 14.6249 
14.706 -22.7177 14.8977 14.7938 -22.9163 15.173 14.8714 -23.1228 15.4474 
14.9018 -23.3666 15.7175 14.9237 -23.6168 15.9852 14.9038 -23.8983 16.2416 
14.8775 -24.1845 16.4947 14.8171 -24.4957 16.7303 14.7523 -24.8101 16.9622 
14.6623 -25.1431 17.1726 14.5696 -25.4781 17.3793 14.4606 -25.8256 17.563 
14.3501 -26.1744 17.7433 14.2311 -26.5309 17.9018 14.1118 -26.888 18.0576 
13.9903 -27.2493 18.195 13.8692 -27.6108 18.3305 13.7511 -27.9739 18.4524 
13.6338 -28.3372 18.5733 13.5234 -28.7009 18.6859 13.414 -29.0646 18.7983 
13.3144 -29.4282 18.9077 13.2161 -29.7918 19.0173 13.1295 -30.1554 19.1284 
13.0442 -30.519 19.2399 12.9721 -30.8828 19.3561 12.9013 -31.2466 19.4729 
12.8447 -31.6107 19.5963 12.7892 -31.975 19.7203 12.7485 -32.3398 19.8515 
12.7088 -32.7046 19.9833 12.6841 -33.0699 20.1221 12.6601 -33.4352 20.2613 
12.6508 -33.8009 20.4067 12.6422 -34.1665 20.5523 12.6474 -34.5322 20.7026 
12.6531 -34.898 20.8529 12.6713 -35.2634 21.0062 12.6898 -35.6287 21.1595 
12.7193 -35.9935 21.3138 12.749 -36.3583 21.4681 12.7879 -36.7221 21.6213 
12.8269 -37.0858 21.7745 12.8733 -37.4482 21.9246 12.9197 -37.8105 22.0747 

LINES 2 240
OFFSETS vtktypeint64
0 240 
CONNECTIVITY vtktypeint64
0 1 2 3 4 5 6 7 8 
9 10 11 12 13 14 15 16 17 
18 19 20 21 22 23 24 25 26 
27 28 29 30 31 32 33 34 35 
36 37 38 39 40 41 42 43 44 
45 46 47 48 49 50 51 52 53 
54 55 56 57 58 59 60 61 62 
63 64 65 66 67 68 69 70 71 
72 73 74 75 76 77 78 79 80 
81 82 83 84 85 86 87 88 89 
90 91 92 93 94 95 96 97 98 
99 100 101 102 103 104 105 106 107 
108 109 110 111 112 113 114 115 116 
117 118 119 120 121 122 123 124 125 
126 127 128 129 130 131 132 133 134 
135 136 137 138 139 140 141 142 143 
144 145 146 147 148 149 150 151 152 
153 154 155 156 157 158 159 160 161 
162 163 164 165 166 167 168 169 170 
171 172 173 174 175 176 177 178 179 
180 181 182 183 184 185 186 187 188 
189 190 191 192 193 194 195 196 197 
198 199 200 201 202 203 204 205 206 
207 208 209 210 211 212 213 214 215 
216 217 218 219 220 221 222 223 224 
225 226 227 228 229 230 231 232 233 
234 235 236 237 238 239 
CELL_DATA 1
FIELD FieldData 3
Length 1 1 double
89.573278082 
Tortuosity 1 1 double
0.9622112598 
ClusterLabel 1 1 int
1 
POINT_DATA 240
FIELD FieldData 6
Curvature 1 240 double
0 0.13684020641 0.27368041283 0.25462641238 0.2342512746 0.20998859368 0.18565945904 0.17364318621 0.16194534945 
0.17462768041 0.1881580172 0.22276037249 0.25828693912 0.29463668757 0.33103014479 0.3395400885 0.34630731261 0.31701322255 
0.28512011885 0.23966391604 0.19309800511 0.15459494724 0.11683160066 0.094254826668 0.073224833221 0.067778274279 0.064079390235 
0.073555265742 0.084646913647 0.10763199095 0.13220285883 0.16716329863 0.20362223439 0.23988718158 0.27612199463 0.29132614164 
0.30302517765 0.28488349697 0.26142366877 0.22397203476 0.18386195765 0.14875078439 0.1146494907 0.094424279576 0.077172514721 
0.074181926634 0.074425832247 0.081355775053 0.089887580936 0.10059643452 0.1118552791 0.12574517409 0.14033481653 0.16074951392 
0.18279272129 0.21512517928 0.25047730865 0.30126430102 0.35680048199 0.42174068704 0.48971107763 0.53621665699 0.57548690673 
0.5658985462 0.53909862978 0.48800896639 0.4279851432 0.37720454545 0.32997076676 0.30117302811 0.27974970547 0.27380075477 
0.27429945904 0.28393700215 0.29753837898 0.30995426485 0.32183523407 0.32010244696 0.31198295933 0.28793001981 0.25610952248 
0.21757562398 0.17564253501 0.13843428187 0.1037095963 0.088542971224 0.084044379148 0.10166957972 0.1318121893 0.16931505193 
0.21113592969 0.25308478232 0.2951114575 0.32820851838 0.355678699 0.36770466922 0.3696490021 0.35849329374 0.33848121949 
0.31315087918 0.28409775262 0.25537733219 0.22689800315 0.20117137989 0.17750928596 0.15747588419 0.14025878081 0.12723320716 
0.1175735589 0.11221857427 0.11043977174 0.11139867854 0.1147103043 0.11904102172 0.12427759841 0.12943152322 0.13450946164 
0.13953573441 0.14451288248 0.1496376066 0.15490744717 0.16016732602 0.16541707431 0.16943164218 0.172147141 0.17215205839 
0.16920862405 0.16298416657 0.15306855805 0.14101479372 0.12647299354 0.11227045991 0.09847630268 0.088199335148 0.082302264221 
0.081800423986 0.088250130988 0.098499441998 0.11381489169 0.13065747199 0.14960749256 0.16821745647 0.18634162516 0.20201493038 
0.21406300003 0.22214882884 0.2241648419 0.22267726581 0.21562964607 0.20655589558 0.19415028565 0.1816911763 0.1691408748 
0.15728312256 0.14664941089 0.13711488037 0.12959551531 0.12314628369 0.11873291568 0.1150576797 0.11284025445 0.11100102759 
0.10993759232 0.10876152657 0.1073453801 0.10540357077 0.10229677887 0.098221928165 0.091915164099 0.08512529577 0.077175977211 
0.069547265005 0.062720068685 0.056973846497 0.054044708415 0.052347903387 0.054001503853 0.05650666797 0.061429174066 0.067207289486 
0.075523712569 0.084862848504 0.097375920881 0.11116817085 0.129117748 0.14846794829 0.17259064225 0.19789028978 0.22739980972 
0.25679215994 0.28574395201 0.31212954775 0.32835728304 0.34030277511 0.33437455632 0.32516760309 0.3015044116 0.27693206068 
0.24811696576 0.21998469228 0.19523238499 0.17142063412 0.15255918022 0.13441942844 0.12032922754 0.10663312724 0.095301630512 
0.084136834053 0.074045170541 0.064092741157 0.055105668397 0.046459514733 0.040370254284 0.034897192171 0.034448516491 0.034435110078 
0.038302854627 0.042211593155 0.046522818021 0.050715265098 0.053613034265 0.056364864919 0.057333002618 0.058202292266 0.0577000652 
0.057133909547 0.055544896513 0.053895474661 0.051108353404 0.048308970254 0.045230015947 0.04214753435 0.038963643178 0.035787386247 
0.032906319953 0.030036002194 0.02779447372 0.025464786718 0.012732393359 0 
Torsion 1 240 double
0 0 0 0.13280519364 0.26673585503 0.38662611995 0.5062763781 0.63791326546 0.76986015185 
0.72162401346 0.66712063942 0.5340470688 0.39752743692 0.30967057212 0.22439757107 0.17798390294 0.13399894312 0.10466599036 
0.076389038103 0.042257109614 0.0076461376154 -0.057706336676 -0.12587913228 -0.22712522233 -0.33173988866 -0.29649122396 -0.24555695203 
-0.10454502465 0.047514162372 0.10879879296 0.15798014936 0.16215932975 0.15984781168 0.1533395519 0.14617937107 0.14802120477 
0.15136337423 0.17092014023 0.19336663632 0.24620666725 0.30482146981 0.42095193393 0.54870172363 0.67470841898 0.80034159412 
0.7132077541 0.57781747765 0.4291373681 0.27727323604 0.18718527273 0.11270392046 0.067021231392 0.028997761254 0.0038711778765 
-0.017649824256 -0.030091298195 -0.039868127991 -0.042028155995 -0.041844552677 -0.036592858696 -0.029708113279 -0.020613651678 -0.010774341926 
0.0016519019889 0.014989452256 0.032883957632 0.052454584426 0.072446747934 0.092600663902 0.1017655058 0.10653471806 0.095849281709 
0.078724408428 0.054907232302 0.028187370604 0.0029688728044 -0.02157218031 -0.046031396981 -0.070452221248 -0.10431184181 -0.14277287556 
-0.21990492041 -0.31661722402 -0.56425091673 -0.89121508318 -1.0702894692 -1.1686967024 -0.94834206759 -0.54763532334 -0.31881883734 
-0.19084463618 -0.11126679263 -0.061119166547 -0.026411440454 -0.0014329664105 0.01558582007 0.02740869939 0.032281064903 0.032454491503 
0.024197215868 0.010038448668 -0.01347969703 -0.043780001061 -0.083583038351 -0.13051312559 -0.18238066316 -0.23808025176 -0.28049196935 
-0.31223312387 -0.30833437524 -0.27482709167 -0.2190602278 -0.14416403711 -0.071023793606 0.00055560795182 0.062467833438 0.11549249383 
0.15809669788 0.19079292707 0.21249231443 0.22337814068 0.22558387598 0.21896240017 0.20966122424 0.19754174302 0.18867829651 
0.18335650179 0.1865343861 0.1992744093 0.22806376436 0.27552870556 0.34795938921 0.4504414295 0.54081366451 0.61610576465 
0.61466977536 0.51437259393 0.40715432927 0.29070795367 0.19745184333 0.13619829904 0.088891230064 0.061507697252 0.040893689052 
0.030292936006 0.022513248284 0.019055192549 0.017025772827 0.017263536345 0.017658844252 0.018313225154 0.018032054016 0.0161561919 
0.013259519941 0.0085586259347 0.0017788498441 -0.0088122100677 -0.020898697823 -0.035830145867 -0.051634439322 -0.069162602466 -0.087556125954 
-0.10772474759 -0.12930585453 -0.15389778542 -0.18059428062 -0.21195494535 -0.24916680797 -0.2998689324 -0.35932145028 -0.43977491244 
-0.52548272344 -0.62432640655 -0.7073314763 -0.74906015969 -0.76616588163 -0.7163279271 -0.66205637245 -0.59519911423 -0.52958860992 
-0.46767680887 -0.40790088421 -0.35475354149 -0.30402304478 -0.26114729762 -0.22005309633 -0.18502934767 -0.1514830969 -0.12322174245 
-0.095999021444 -0.072681562154 -0.049813764068 -0.028725874908 -0.0079637935356 0.011438394465 0.030906097052 0.050662659409 0.070518434053 
0.090837199368 0.11053539537 0.12716177327 0.14315962187 0.15584942152 0.168056724 0.17755668121 0.18753631134 0.20039397895 
0.21620641586 0.25104018006 0.29281916229 0.38275165616 0.47915067343 0.6240486162 0.74996458574 0.72110446596 0.67845195039 
0.51281723906 0.35344615993 0.25557256057 0.16151387787 0.10903778667 0.058403782088 0.030284169575 0.0028508477936 -0.015060190086 
-0.032843590905 -0.048584798745 -0.064174681371 -0.076914605797 -0.089750977724 -0.10478635268 -0.12019097961 -0.14621160117 -0.17253669574 
-0.21063474641 -0.2460164059 -0.12248918099 0 0 0 
FrenetTangent 3 240 double
-0.14840145228 -0.85795732298 0.49181931733 -0.14840145228 -0.85795732298 0.49181931733 -0.14840145228 -0.85795732298 0.49181931733 
-0.23262219378 -0.81549133486 0.52047670209 -0.31755667038 -0.77266546548 0.54937694604 -0.38617383111 -0.73543827979 0.55127226315 
-0.45451206337 -0.69830679809 0.55270595758 -0.50720486742 -0.67592942428 0.53115568346 -0.55949304832 -0.65393362222 0.50901099637 
-0.59781385707 -0.64995875253 0.46556801342 -0.63564884418 -0.64661069787 0.42138422018 -0.65799080141 -0.66011622422 0.35504866958 
-0.67965323977 -0.67436094271 0.28774155067 -0.68053144741 -0.69883481017 0.19973735018 -0.68030606756 -0.72385181828 0.1106341896 
-0.65614935915 -0.74717760903 0.012231067402 -0.63049694271 -0.7703976987 -0.086753302398 -0.5889551569 -0.7826951097 -0.17547690995 
-0.54626819131 -0.79420530061 -0.2634610031 -0.50327679924 -0.79537111802 -0.32891912067 -0.46026049955 -0.79569057759 -0.39253420388 
-0.42728885175 -0.79085027166 -0.43505800674 -0.39523873164 -0.78553659275 -0.47564682975 -0.374759613 -0.77809964862 -0.50300078683 
-0.35545902227 -0.77044644599 -0.5290067483 -0.34409618175 -0.76064197113 -0.54990850635 -0.33362355621 -0.75059623208 -0.57023783037 
-0.32531560123 -0.73661509979 -0.59228545495 -0.31727312473 -0.72215132492 -0.6145438145 -0.30463697299 -0.70100384269 -0.64361476473 
-0.29138833123 -0.67896519948 -0.67359406038 -0.2665200531 -0.64686228945 -0.71214591407 -0.23997586588 -0.61330780248 -0.7519341944 
-0.19671368704 -0.56724984799 -0.79575005971 -0.15085453863 -0.51924960727 -0.84019156929 -0.090043789684 -0.46170656164 -0.87751121261 
-0.026741107309 -0.40257304852 -0.91364387823 0.040850347605 -0.34475715112 -0.93345081708 0.10920613822 -0.28717607634 -0.95034822046 
0.1702295916 -0.24265446969 -0.95232080342 0.22985990092 -0.20061416198 -0.95145767049 0.27742599174 -0.17643313568 -0.94308153269 
0.3225548667 -0.155860045 -0.93318761612 0.35644361055 -0.15199714633 -0.92126474686 0.38792375486 -0.15171500309 -0.90890710201 
0.41054329657 -0.16508905135 -0.89630742162 0.43115321707 -0.18156038017 -0.88365284657 0.44498867496 -0.20881329999 -0.87016838992 
0.45720108452 -0.23864930933 -0.85648510746 0.46413264975 -0.27705146317 -0.84019392716 0.46973010694 -0.31761769563 -0.8232439095 
0.47102377529 -0.365298727 -0.80112211605 0.47117281894 -0.41487199213 -0.77762485032 0.46732250353 -0.47095619761 -0.74525629471 
0.46235408774 -0.52886066599 -0.71040759354 0.45257258983 -0.59264469933 -0.66104979195 0.44137855695 -0.65815425716 -0.60743388481 
0.42263048762 -0.72643284958 -0.53114790877 0.40155809937 -0.79556345263 -0.44788652692 0.36811114706 -0.8565638182 -0.33449818415 
0.33067683521 -0.91494444059 -0.21140226508 0.2780456379 -0.94460297588 -0.064091980677 0.22029189491 -0.96457990879 0.091380449341 
0.15389520772 -0.94354353444 0.243114921 0.084453846989 -0.90805929049 0.39353261188 0.017731917123 -0.84514928041 0.51477554493 
-0.047989762311 -0.77215163222 0.62528753257 -0.1069114093 -0.69148534457 0.70479043836 -0.16322374151 -0.60787643946 0.77239451041 
-0.2152159306 -0.52426231706 0.81780158516 -0.26548006245 -0.44064610776 0.85432986099 -0.31452999671 -0.35553383222 0.87496348658 
-0.36307401531 -0.26979819576 0.88897434125 -0.4107819874 -0.17899407238 0.88837898313 -0.45812733692 -0.085991569143 0.8814484002 
-0.5008868732 0.012267601905 0.85874434899 -0.54157720109 0.11289868404 0.82892300113 -0.5714455318 0.21223274707 0.7853548643 
-0.59623687617 0.31095833201 0.73533761659 -0.60713166162 0.39863247497 0.68080445096 -0.61125187459 0.48091903996 0.62406977533 
-0.60452153382 0.54705554747 0.57471233998 -0.59229724178 0.60501481069 0.52909021616 -0.57446968641 0.64785197506 0.49834125935 
-0.55369682594 0.68274034389 0.4754102493 -0.5305243672 0.70510655435 0.4696979531 -0.50604303667 0.72064249662 0.47337768264 
-0.47949882283 0.72444097222 0.49376919181 -0.45178745132 0.72159851273 0.52361604999 -0.42014412267 0.70539952245 0.56747800283 
-0.38619404583 0.68136470077 0.61956214453 -0.34556019204 0.64132156572 0.67956792625 -0.3008618793 0.59154364551 0.74439092149 
-0.24814840704 0.52574138014 0.80687549095 -0.19038428632 0.44984158219 0.86788653184 -0.1270628324 0.36381492958 0.91600383908 
-0.060113674846 0.2711776913 0.95570440352 0.0069351919434 0.17793756786 0.97826752356 0.074051467796 0.084289860088 0.98924476569 
0.13628866717 -0.0027799004498 0.98626069259 0.195110513 -0.085245097925 0.97350369885 0.24641635877 -0.15888861942 0.95287494055 
0.29227582768 -0.22613962209 0.92654200505 0.32988386862 -0.28567585855 0.8975491895 0.36130333858 -0.33942602037 0.86656146391 
0.38472078647 -0.38772598353 0.83612449009 0.40192770978 -0.43179594177 0.8061149654 0.41186794408 -0.47253039342 0.77802994506 
0.4159728069 -0.5105863322 0.75149036003 0.41385802105 -0.54688952747 0.72676736325 0.40657614244 -0.58173659737 0.70355353208 
0.39442500594 -0.61579654116 0.68099054544 0.37808935092 -0.64918004845 0.65898687832 0.35859025587 -0.68217421587 0.63590443619 
0.33627921412 -0.7148223034 0.61186308295 0.31279166586 -0.7469888009 0.58502214298 0.28822249062 -0.77871254627 0.55560738939 
0.26447606815 -0.80947270137 0.52216245758 0.24151193517 -0.83931665589 0.48488555302 0.22105168498 -0.86743734299 0.44304048296 
0.20305358618 -0.8938634838 0.39670338348 0.18863740483 -0.91759074859 0.34605607858 0.17786385139 -0.93857339373 0.29102551393 
0.17104296503 -0.95580545801 0.23293098793 0.16837919405 -0.96909294588 0.17161401981 0.16939992369 -0.97794404909 0.10959792896 
0.17442835576 -0.98196961108 0.046821388838 0.18246578267 -0.98183462176 -0.013578092131 0.19388832878 -0.97701901221 -0.071303381551 
0.20762092497 -0.96938562832 -0.12390576603 0.22404157944 -0.95847337975 -0.17054695203 0.24240326691 -0.94646423057 -0.21048135402 
0.26310138299 -0.93313473805 -0.24234277525 0.28581881971 -0.91990312251 -0.26710748741 0.31105088213 -0.9067933915 -0.28303478828 
0.33863485772 -0.89400522737 -0.29211697036 0.36924918299 -0.88163138979 -0.29237948015 0.40250531735 -0.8688499327 -0.28619063809 
0.43928386383 -0.85552498293 -0.27139999356 0.47852904306 -0.84037714674 -0.25057305712 0.52117817547 -0.8227137273 -0.22141603783 
0.5652384313 -0.80159695485 -0.18692132911 0.61131457772 -0.77554682095 -0.14480134978 0.65675790417 -0.7449804617 -0.098729347651 
0.70126518442 -0.70773385247 -0.046811645138 0.74273356823 -0.66629582801 0.0068723111676 0.77954662133 -0.61843691214 0.063262017963 
0.81178666032 -0.56806029013 0.11906761501 0.83676952473 -0.51368817794 0.17394625527 0.85706911674 -0.45891100199 0.22662104988 
0.86966732748 -0.40346772121 0.27567174274 0.87849691035 -0.3491077195 0.32194319516 0.88090269575 -0.29659421618 0.36347730591 
0.88070091986 -0.24570960567 0.40237940369 0.87589043101 -0.19770396848 0.43662957159 0.86940755994 -0.15123679862 0.46865279908 
0.85985865479 -0.10759015217 0.4965933025 0.84926272111 -0.064994726136 0.52268606455 0.83667487947 -0.024399182812 0.5452636113 
0.82342564503 0.015666181676 0.56619284759 0.80887015982 0.054684442964 0.58386667072 0.79394677108 0.093519317507 0.59988726671 
0.77826870842 0.13197801411 0.61251662753 0.76256933834 0.17031593732 0.62332869364 0.74682454979 0.20839642251 0.63026705259 
0.73154911381 0.24607117259 0.63518816988 0.71731386462 0.28284672591 0.6356386435 0.70417584628 0.31853797079 0.63405281793 
0.69356755462 0.35172928234 0.62777219142 0.68465101789 0.38300791819 0.61976817711 0.67979469302 0.40969613238 0.60762803211 
0.67691161545 0.43382103564 0.59439724333 0.67896165615 0.45153766157 0.57843984511 0.68282102419 0.46631287041 0.5622384775 
0.69139560897 0.47342256801 0.54540131086 0.70123355454 0.47754279506 0.5291839769 0.71450626225 0.47353539902 0.51465181303 
0.72830631392 0.46672478928 0.50149068556 0.74360334195 0.45195666967 0.49222153241 0.75870197839 0.43462453441 0.48487424013 
0.77321205307 0.40968581935 0.48322846843 0.78684711269 0.38232543055 0.48383841539 0.79776660829 0.3474495026 0.49144886853 
0.807081775 0.31010818591 0.50145269829 0.81118287279 0.26475435581 0.51923500204 0.81274911982 0.21677996381 0.53926468506 
0.80567809758 0.15987624981 0.56695210479 0.79491374673 0.10028923093 0.59622175745 0.7709386436 0.0311042369 0.63115093559 
0.74219140879 -0.040281667293 0.66620661941 0.69550095889 -0.1199429937 0.70173796458 0.6439396306 -0.20029484674 0.73528187648 
0.57309774198 -0.28338003437 0.76095886503 0.49917551911 -0.36498747623 0.78291441478 0.41239624891 -0.44042693577 0.78933700264 
0.32547917727 -0.51290001019 0.79193201959 0.23795452652 -0.57229402295 0.77765092846 0.15254113527 -0.62868157134 0.76078538781 
0.076980288292 -0.67103895268 0.73185908269 0.0042685727993 -0.71121454702 0.70172891054 -0.054339941857 -0.74059029573 0.66563959659 
-0.11033483476 -0.76861984389 0.62926119265 -0.1525738237 -0.78956412595 0.59136126238 -0.19271245136 -0.80971439142 0.55367448396 
-0.22106571853 -0.82540934159 0.5171837243 -0.2478122334 -0.84061408207 0.48119566319 -0.26491823454 -0.85287756439 0.44822379338 
-0.28080956149 -0.86480685218 0.41595789541 -0.2888814234 -0.87458476263 0.38823669121 -0.29602488795 -0.88412264825 0.36135328756 
-0.29673146413 -0.89199636168 0.34027863439 -0.29672826997 -0.89969321867 0.32007419912 -0.29140179818 -0.90606365246 0.30639639815 
-0.28554334215 -0.91229074321 0.2935224641 -0.27534716846 -0.91734903686 0.28720313723 -0.26476003459 -0.92227878372 0.28153705439 
-0.25068683906 -0.92606232177 0.28169573077 -0.23634219145 -0.92972443909 0.28230827556 -0.21933237787 -0.93219442566 0.2873769829 
-0.20215129134 -0.93455289771 0.29270480921 -0.1831033296 -0.93569586146 0.30085703214 -0.16396849481 -0.93674799406 0.30910352568 
-0.14377187847 -0.93668996824 0.31850221552 -0.12355442675 -0.93656644143 0.32788942556 -0.10304788433 -0.9355340884 0.33711735329 
-0.082563371707 -0.93446200683 0.34627977418 -0.062431335869 -0.93275426851 0.35439408562 -0.042355336599 -0.93103151094 0.36241731456 
-0.023334692708 -0.92902589087 0.36872515622 -0.004387343345 -0.92702231516 0.37494523788 0.01288889079 -0.92506535091 0.37916439175 
0.030095921271 -0.92311963478 0.38331258034 0.045313346692 -0.92149730171 0.38542051705 0.060474532926 -0.91988997744 0.38747487083 
0.073461137246 -0.91886299362 0.38745735142 0.086410012217 -0.91784899843 0.38740484515 0.097151720338 -0.91759483766 0.38530560752 
0.107803162 -0.91734281269 0.38322401055 0.107803162 -0.91734281269 0.38322401055 0.107803162 -0.91734281269 0.38322401055 

FrenetNormal 3 240 double
-0.83859039774 0.37277241929 0.39724912617 -0.83859039774 0.37277241929 0.39724912617 -0.83859039774 0.37277241929 0.39724912617 
-0.85186871563 0.42260106148 0.28156289031 -0.86525956164 0.47285198031 0.16489626261 -0.87240113389 0.46083230362 0.004088432715 
-0.87943588095 0.44774817231 -0.15747394765 -0.8329760893 0.33776967189 -0.36490687923 -0.78513281821 0.22528528262 -0.57352611818 
-0.63517390441 0.06731342907 -0.72188323414 -0.48166314218 -0.092240597152 -0.86814427627 -0.31512112591 -0.1764914678 -0.91281215484 
-0.14800756342 -0.25743956847 -0.95302419291 -0.010923971177 -0.26229621137 -0.95531330451 0.12456510937 -0.26311259987 -0.95558880939 
0.23535804333 -0.2220427614 -0.93865443938 0.34460746812 -0.17835503373 -0.92064445218 0.42681859511 -0.12162521521 -0.89007819273 
0.50708101595 -0.063955426181 -0.85860697671 0.55580613004 -0.0094387747074 -0.82761506122 0.60195091902 0.044819892784 -0.79666236123 
0.61187873729 0.099891624479 -0.78254793619 0.61848389769 0.15503794922 -0.76997830703 0.56967686222 0.23148643696 -0.78263238812 
0.51522599198 0.31010458946 -0.79785555082 0.42114646186 0.39299537678 -0.80715668201 0.32262259605 0.47636533809 -0.81579366014 
0.29537263622 0.51548373795 -0.80332732116 0.2768638158 0.54917505952 -0.78827283951 0.32108792215 0.55972401156 -0.76158803484 
0.37367641873 0.56718731432 -0.73335252044 0.4366140015 0.57583121588 -0.68640364158 0.50104424094 0.58464539611 -0.63675571977 
0.55914039352 0.59905477039 -0.5652299878 0.61625261027 0.61433330103 -0.49030576104 0.66285101365 0.62578151982 -0.3972665915 
0.70769711481 0.6365913533 -0.30120826483 0.74358761064 0.62894710584 -0.19976794872 0.77788205801 0.61801401227 -0.097368466165 
0.81203226071 0.57259767864 -0.0008167895788 0.84615505692 0.52062952941 0.094623803874 0.88263733809 0.40028262335 0.18453794881 
0.91959628288 0.26612182702 0.2733356395 0.89782203858 0.021734504332 0.34342674155 0.8634621109 -0.24627278829 0.40950928889 
0.71518635543 -0.48346869918 0.41676920085 0.54107402046 -0.71367646164 0.41068789652 0.38961715311 -0.81610549398 0.39521329007 
0.2435881582 -0.88792087222 0.37748820497 0.1493799915 -0.90839565608 0.38208750501 0.068263402445 -0.91590018451 0.3923266497 
0.014547974912 -0.90496216616 0.42120495207 -0.031879909664 -0.88911921515 0.45504047723 -0.066287665091 -0.85987181164 0.50181963792 
-0.097334954305 -0.82687692678 0.5522174494 -0.12531273307 -0.77713587361 0.61092752222 -0.15238967725 -0.72248018408 0.67207706302 
-0.18340715992 -0.64394860307 0.73477497735 -0.21563711597 -0.5580705939 0.79794931431 -0.25329204076 -0.44078330362 0.84999264791 
-0.29269501103 -0.31337524497 0.89844932489 -0.33120871937 -0.15962110876 0.91567874007 -0.36942267649 0.0030137277455 0.92238211195 
-0.39743763603 0.16393452584 0.88782339823 -0.42185976686 0.32425151495 0.83872917709 -0.43703530102 0.45519183674 0.76238268339 
-0.44880978813 0.57532694757 0.67601236529 -0.45911060571 0.66212583 0.57999041779 -0.46884594543 0.73613290385 0.48026493808 
-0.47795576254 0.78569919155 0.3779075513 -0.48681537061 0.82548916477 0.27449740169 -0.48616721133 0.85098342006 0.17102218883 
-0.48155748231 0.87052112622 0.067519866269 -0.45896447425 0.88196066361 -0.034523121831 -0.42857148973 0.88988774226 -0.13593314559 
-0.37799311602 0.88950771181 -0.23318223191 -0.31830670084 0.88537935163 -0.32855382208 -0.24330843264 0.87103805529 -0.41242406573 
-0.161126826 0.85190550495 -0.49089861596 -0.069644842468 0.82788597914 -0.54683828965 0.026371074793 0.8014840528 -0.59179221103 
0.1353501772 0.78039299919 -0.6003001946 0.25089291766 0.76199099508 -0.59035453879 0.40945981097 0.73828530573 -0.48657823758 
0.59064196413 0.71179178184 -0.33348069968 0.70594710117 0.54090932974 -0.013843726042 0.78531932034 0.29126928044 0.39663293982 
0.73377511678 0.059958526174 0.62317734252 0.6081597793 -0.16098170589 0.74565480685 0.53474224848 -0.30861561666 0.77936851346 
0.4919474309 -0.41324315226 0.76100748223 0.47855773104 -0.50047048382 0.71563722224 0.48304952167 -0.57711661023 0.65384243126 
0.49837273676 -0.64287073136 0.57215031056 0.52052123301 -0.70176139711 0.47792014648 0.54127315844 -0.74604803571 0.3713948533 
0.56111343349 -0.78080148993 0.25684357307 0.57339109472 -0.7998643428 0.14142345858 0.58055600294 -0.80831946518 0.025415963173 
0.57763696305 -0.80674254612 -0.082095636785 0.56765915947 -0.79814319805 -0.18366010993 0.5461539029 -0.7881902823 -0.27266463027 
0.51629541953 -0.77725652041 -0.35256773553 0.47156297029 -0.7724771901 -0.4191760659 0.41567504666 -0.77231368346 -0.47581331508 
0.33954860431 -0.78013952648 -0.5179656373 0.24771465492 -0.79416605878 -0.54887592666 0.13676298374 -0.80729605521 -0.56265636563 
0.010459202649 -0.81970610617 -0.56268101565 -0.11472118455 -0.8188827362 -0.55086740485 -0.23896829068 -0.8070654473 -0.52921893123 
-0.33868380641 -0.78477362174 -0.51348720202 -0.41731748666 -0.75348024123 -0.50284017505 -0.46847939431 -0.72080390652 -0.5090732101 
-0.49522194854 -0.68689827921 -0.5303107447 -0.50062406906 -0.65284085108 -0.56591912482 -0.48640675857 -0.61864386413 -0.61473941131 