# vtk DataFile Version 5.1
vtk output
ASCII
DATASET POLYDATA
POINTS 240 float
0 0 0 -0.327733 -0.217465 0.250964 -0.655466 -0.434931 0.501928 
-0.935673 -0.678184 0.70583 -1.21548 -0.921657 0.909334 -1.45594 -1.18433 1.06167 
-1.69573 -1.44733 1.21313 -1.90416 -1.72309 1.3096 -2.11178 -1.99918 1.40464 
-2.29565 -2.28187 1.44162 -2.47869 -2.56479 1.47658 -2.64479 -2.84867 1.4518 
-2.81015 -3.13259 1.42439 -2.96414 -3.41256 1.33772 -3.11753 -3.69231 1.2479 
-3.26341 -3.96418 1.10194 -3.40882 -4.23556 0.952459 -3.54854 -4.49617 0.752757 
-3.68785 -4.75601 0.549435 -3.82127 -5.00328 0.304254 -3.95422 -5.24951 0.0556475 
-4.07929 -5.48227 -0.224894 -4.20365 -5.71378 -0.508365 -4.31678 -5.93166 -0.813411 
-4.42876 -6.14814 -1.12065 -4.52528 -6.35142 -1.43982 -4.62006 -6.55321 -1.76032 
-4.69488 -6.74268 -2.08481 -4.76725 -6.93063 -2.40979 -4.8156 -7.10751 -2.73315 
-4.86075 -7.28292 -3.0563 -4.8789 -7.44879 -3.37489 -4.89315 -7.61328 -3.69283 
-4.87898 -7.77007 -4.0058 -4.86039 -7.92566 -4.31799 -4.81375 -8.07576 -4.62676 
-4.76243 -8.22494 -4.93496 -4.68525 -8.37143 -5.24225 -4.60346 -8.51743 -5.54937 
-4.49967 -8.66443 -5.8577 -4.39169 -8.81161 -6.16625 -4.26685 -8.96447 -6.47637 
-4.1386 -9.11847 -6.78681 -3.99941 -9.28348 -7.09634 -3.85787 -9.45084 -7.40567 
-3.71164 -9.63436 -7.70819 -3.56435 -9.82154 -8.00916 -3.41858 -10.0287 -8.29416 
-3.27317 -10.2408 -8.57534 -3.13528 -10.4743 -8.82906 -2.99928 -10.7132 -9.07583 
-2.87641 -10.972 -9.28273 -2.75703 -11.2362 -9.47902 -2.6557 -11.5152 -9.62393 
-2.55941 -11.7984 -9.75447 -2.48498 -12.0886 -9.82487 -2.41697 -12.3809 -9.87762 
-2.37314 -12.6699 -9.86569 -2.33675 -12.9579 -9.83386 -2.32509 -13.2315 -9.73789 
-2.32139 -13.5004 -9.62126 -2.34116 -13.7441 -9.44615 -2.36884 -13.9791 -9.25132 
-2.41719 -14.1795 -9.00783 -2.47282 -14.3676 -8.74719 -2.54515 -14.5139 -8.4504 
-2.62362 -14.6448 -8.1403 -2.71404 -14.7297 -7.80743 -2.80906 -14.7969 -7.46582 
-2.91095 -14.8168 -7.11397 -3.01559 -14.8178 -6.75802 -3.12201 -14.7734 -6.40206 
-3.22917 -14.71 -6.04611 -3.33328 -14.6054 -5.69728 -3.43607 -14.4829 -5.35155 
-3.53143 -14.3254 -5.01665 -3.62344 -14.1522 -4.68664 -3.70437 -13.9519 -4.36801 
-3.78009 -13.7387 -4.05472 -3.84202 -13.507 -3.75086 -3.89724 -13.2663 -3.45161 
-3.93716 -13.0161 -3.15829 -3.96935 -12.7611 -2.86798 -3.98607 -12.5057 -2.57957 
-3.99466 -12.2502 -2.29216 -3.98902 -12.0032 -2.00306 -3.97561 -11.7609 -1.71304 
-3.95052 -11.5348 -1.41892 -3.91881 -11.318 -1.12247 -3.87914 -11.1238 -0.821086 
-3.8348 -10.943 -0.516797 -3.78709 -10.7895 -0.208292 -3.73734 -10.6528 0.102776 
-3.68932 -10.5463 0.416108 -3.6424 -10.4588 0.730865 -3.60231 -10.4026 1.0452 
-3.56668 -10.3668 1.35926 -3.54241 -10.3619 1.66996 -3.52582 -10.3779 1.97839 
-3.52388 -10.4232 2.28064 -3.53219 -10.4891 2.57855 -3.55663 -10.5822 2.86771 
-3.59274 -10.695 3.15052 -3.64433 -10.8326 3.42227 -3.70753 -10.9886 3.68572 
-3.7836 -11.1666 3.93594 -3.86968 -11.3615 4.17591 -3.96469 -11.5752 4.40047 
-4.0669 -11.804 4.61267 -4.1737 -12.048 4.80715 -4.28431 -12.3048 4.98693 
-4.39571 -12.5734 5.14663 -4.50778 -12.8521 5.2891 -4.61798 -13.1393 5.40943 
-4.7265 -13.434 5.51009 -4.83185 -13.7345 5.58746 -4.93426 -14.0402 5.64342 
-5.0333 -14.3496 5.67648 -5.12913 -14.6627 5.68776 -5.22196 -14.9784 5.67848 
-5.31186 -15.2967 5.649 -5.39924 -15.6176 5.60312 -5.48405 -15.9409 5.54058 
-5.56649 -16.2671 5.46704 -5.64644 -16.5962 5.38195 -5.72368 -16.929 5.29158 
-5.79797 -17.2656 5.19548 -5.86878 -17.6065 5.09912 -5.93568 -17.9523 5.00247 
-5.99804 -18.3029 4.90921 -6.05514 -18.6593 4.81991 -6.10662 -19.0209 4.73603 
-6.15135 -19.3888 4.65867 -6.18956 -19.7618 4.58733 -6.21966 -20.1413 4.52347 
-6.24267 -20.5255 4.46527 -6.25653 -20.9159 4.41435 -6.26305 -21.3105 4.36835 
-6.25978 -21.7105 4.32889 -6.24918 -22.1136 4.29368 -6.22846 -22.5208 4.26435 
-6.20044 -22.9294 4.23899 -6.162 -23.3402 4.21931 -6.11612 -23.7503 4.20378 
-6.05922 -24.1596 4.19438 -5.99437 -24.5656 4.18966 -5.91733 -24.9669 4.19211 
-5.83142 -25.3619 4.19995 -5.73143 -25.7473 4.21632 -5.62133 -26.1233 4.23878 
-5.49459 -26.4839 4.27123 -5.35644 -26.8323 4.3103 -5.19883 -27.1598 4.36065 
-5.02876 -27.4726 4.41793 -4.83669 -27.7596 4.48744 -4.63176 -28.0305 4.56391 
-4.40325 -28.272 4.65315 -4.16239 -28.4973 4.74916 -3.89801 -28.6918 4.85806 
-3.62275 -28.8711 4.97337 -3.32599 -29.0206 5.10134 -3.02071 -29.1572 5.23528 
-2.69794 -29.267 5.38146 -2.36958 -29.3666 5.53314 -2.0293 -29.4442 5.69654 
-1.68657 -29.5145 5.86502 -1.33839 -29.5683 6.04474 -0.990664 -29.617 6.22915 
-0.643987 -29.6543 6.42435 -0.300124 -29.6883 6.62385 0.0369853 -29.7144 6.83365 
0.369714 -29.738 7.04727 0.69149 -29.7554 7.27046 1.00822 -29.7701 7.49685 
1.31179 -29.7779 7.73159 1.61052 -29.7824 7.96871 1.89607 -29.7776 8.21229 
2.17767 -29.7684 8.45725 2.44808 -29.7464 8.70611 2.71588 -29.7189 8.95528 
2.97597 -29.6751 9.20536 3.23495 -29.6251 9.45477 3.49048 -29.5561 9.70208 
3.74631 -29.4809 9.94798 4.00308 -29.3857 10.1892 4.2613 -29.285 10.4287 
4.52443 -29.1656 10.6618 4.78981 -29.042 10.893 5.06323 -28.9033 11.1171 
5.33932 -28.7621 11.3395 5.62545 -28.6118 11.5552 5.91426 -28.461 11.7696 
6.21367 -28.3082 11.9785 6.51536 -28.157 12.1868 6.82655 -28.0122 12.3918 
7.13925 -27.8707 12.5967 7.45858 -27.7438 12.8012 7.77837 -27.6218 13.0063 
8.10028 -27.5223 13.214 8.42145 -27.4288 13.4229 8.73897 -27.3649 13.6378 
9.05457 -27.3076 13.8541 9.36011 -27.2857 14.0789 9.66276 -27.2708 14.3055 
9.94916 -27.2953 14.5419 10.232 -27.3267 14.78 10.4936 -27.3996 15.0281 
10.7513 -27.4789 15.2774 10.9844 -27.6 15.535 11.2137 -27.7269 15.7932 
11.4171 -27.8938 16.0563 11.6172 -28.0656 16.3193 11.7925 -28.2742 16.5826 
11.9651 -28.4867 16.8452 12.1158 -28.7318 17.1028 12.2646 -28.98 17.3592 
12.3954 -29.2559 17.6057 12.5249 -29.534 17.8508 12.6409 -29.8345 18.0823 
12.7559 -30.1366 18.3123 12.8607 -30.4561 18.5268 12.9649 -30.7766 18.7401 
13.061 -31.1098 18.9377 13.1566 -31.4437 19.1344 13.2445 -31.7863 19.3174 
13.332 -32.1294 19.4997 13.4109 -32.4783 19.671 13.4893 -32.8275 19.8419 
13.5573 -33.1805 20.005 13.6246 -33.5336 20.1679 13.6795 -33.8896 20.3255 
13.7338 -34.2457 20.483 13.7738 -34.6044 20.6367 13.8135 -34.9631 20.7902 
13.8376 -35.3246 20.9399 13.8615 -35.6862 21.0896 13.8698 -36.0511 21.2336 
13.878 -36.416 21.3776 13.8709 -36.7846 21.5131 13.8639 -37.1531 21.6486 

LINES 2 240
OFFSETS vtktypeint64
0 240 
CONNECTIVITY vtktypeint64
0 1 2 3 4 5 6 7 8 
9 10 11 12 13 14 15 16 17 
18 19 20 21 22 23 24 25 26 
27 28 29 30 31 32 33 34 35 
36 37 38 39 40 41 42 43 44 
45 46 47 48 49 50 51 52 53 
54 55 56 57 58 59 60 61 62 
63 64 65 66 67 68 69 70 71 
72 73 74 75 76 77 78 79 80 
81 82 83 84 85 86 87 88 89 
90 91 92 93 94 95 96 97 98 
99 100 101 102 103 104 105 106 107 
108 109 110 111 112 113 114 115 116 
117 118 119 120 121 122 123 124 125 
126 127 128 129 130 131 132 133 134 
135 136 137 138 139 140 141 142 143 
144 145 146 147 148 149 150 151 152 
153 154 155 156 157 158 159 160 161 
162 163 164 165 166 167 168 169 170 
171 172 173 174 175 176 177 178 179 
180 181 182 183 184 185 186 187 188 
189 190 191 192 193 194 195 196 197 
198 199 200 201 202 203 204 205 206 
207 208 209 210 211 212 213 214 215 
216 217 218 219 220 221 222 223 224 
225 226 227 228 229 230 231 232 233 
234 235 236 237 238 239 
CELL_DATA 1
FIELD FieldData 3
Length 1 1 double
87.928341017 
Tortuosity 1 1 double
0.94618295311 
ClusterLabel 1 1 int
2 
POINT_DATA 240
FIELD FieldData 6
Curvature 1 240 double
0 0.072736787338 0.14547357468 0.16160343441 0.17725357443 0.1963899446 0.21558590844 0.23619187892 0.25683431508 
0.27255531804 0.28810514072 0.29068102752 0.29268788204 0.27943861569 0.26537928983 0.24216832448 0.21838538167 0.1938005059 
0.16915783316 0.14875337652 0.12869568301 0.11440120178 0.10063545561 0.092948338065 0.0858803401 0.085104906522 0.0850351811 
0.090371791219 0.096371442489 0.10536869474 0.11476562712 0.12332140133 0.13175585465 0.13510368813 0.13766136707 0.13265925417 
0.12639717596 0.1140201233 0.10055327321 0.086241069775 0.0717682492 0.064536772579 0.058768193728 0.06464266741 0.073012080921 
0.088148289376 0.10481923483 0.12619612509 0.14870048129 0.17776796765 0.20849350795 0.24856735104 0.29112744487 0.34260431255 
0.39657404174 0.44869150839 0.50026537626 0.52819613606 0.54885209337 0.53694413352 0.5145433559 0.47638886746 0.43292413941 
0.3924468057 0.35302184953 0.32250991612 0.29527633589 0.27550945921 0.25860771296 0.24532798432 0.23349706273 0.22275902455 
0.21247635445 0.20093062378 0.1888370596 0.17495961188 0.16027724109 0.1447248354 0.12876426517 0.11382410227 0.099381387947 
0.08931319361 0.081459946102 0.080929526487 0.084248285636 0.093170702954 0.10514966109 0.1194184534 0.13498280978 0.15149499433 
0.16856323807 0.18598171066 0.20361316023 0.22129288073 0.23900301852 0.2559110218 0.27229540949 0.28556704283 0.29673427886 
0.30203000768 0.30321568145 0.29794137897 0.28798593427 0.27428092108 0.2577637315 0.24162949829 0.22579248495 0.21334038951 
0.20360648571 0.19829169366 0.19664816368 0.19820306534 0.20250661919 0.20727623504 0.21246012822 0.21458994618 0.2139119853 
0.20748805378 0.19560074034 0.17853816253 0.15638657477 0.1321014208 0.10564653847 0.080961833818 0.058138867756 0.043594009707 
0.038053409498 0.039615365916 0.049167698539 0.057725953245 0.065127462738 0.070340548221 0.072919419615 0.073914463934 0.072937195291 
0.071196199965 0.068471172181 0.065776997187 0.063123959248 0.061074862881 0.059859205883 0.059691341463 0.061020323583 0.063772580381 
0.068630097639 0.075269204538 0.084637555144 0.096182835695 0.11118280942 0.1284120292 0.14930712027 0.17150445758 0.1959215328 
0.21886584669 0.23920714052 0.25419930894 0.25938474743 0.25797975361 0.24403686419 0.22626933646 0.20094814806 0.17545435411 
0.14960649748 0.12571457525 0.10599188159 0.088977218871 0.077964138239 0.069441079563 0.066658904843 0.065213880017 0.066978014936 
0.068942946126 0.071409867993 0.073647948733 0.075289655626 0.077085545092 0.079300618427 0.081898943396 0.085585208491 0.089472611643 
0.093956724363 0.097781512887 0.09956012287 0.10012597647 0.096750371847 0.092287258498 0.084118559874 0.075552165384 0.065563243377 
0.056124579742 0.048754887584 0.043037926505 0.043863025948 0.046170001583 0.054662199585 0.063862854722 0.076187161778 0.088939706673 
0.10369069481 0.11870891323 0.13504992154 0.15127776829 0.16691002785 0.18188548407 0.19317554376 0.20337854094 0.20705916308 
0.20956336359 0.20449434986 0.19860119156 0.18699396425 0.17515296895 0.16155871366 0.14807709372 0.13551388503 0.12316902811 
0.11277114103 0.10259063571 0.094544424019 0.086593991439 0.079687551149 0.072815887919 0.066369277647 0.06001411053 0.054927717179 
0.04999825956 0.047579773636 0.045307269341 0.045784085739 0.046323687605 0.048294798161 0.050259816039 0.052049669416 0.053814808171 
0.05462431486 0.05544426968 0.056875440136 0.058050673556 0.029025336778 0 
Torsion 1 240 double
0 0 0 -0.10822718906 -0.21737155768 -0.22481760403 -0.23052521752 -0.22363447112 -0.21641790507 
-0.20043462855 -0.18414642296 -0.16476971683 -0.14525755014 -0.12459171692 -0.10386462707 -0.080588181273 -0.057152400725 -0.028083709881 
0.0013909564795 0.041200354002 0.081855320438 0.13536414336 0.19005221918 0.24200810003 0.29368570176 0.30397162194 0.30961548437 
0.27331493745 0.23187026486 0.18647557211 0.14055421001 0.109170842 0.079884300064 0.067443286823 0.057619054739 0.069729632709 
0.085496012354 0.14375483322 0.20958656441 0.36429162661 0.53588262171 0.67458598328 0.80664537848 0.66305886775 0.46040537717 
0.30930043315 0.16988691207 0.10001814519 0.046811142334 0.020235707933 0.00038824871967 -0.0095814407637 -0.01692406383 -0.020309781421 
-0.022589267375 -0.023304710258 -0.023561140501 -0.023579745263 -0.023525172954 -0.023689983219 -0.023925483426 -0.024402501504 -0.024960930102 
-0.026267662913 -0.027838002891 -0.030868501858 -0.034436070798 -0.039610806903 -0.045402246688 -0.05356599207 -0.06267865969 -0.074964778456 
-0.088573168533 -0.10723254151 -0.12808270226 -0.15791038149 -0.19178889223 -0.24360199673 -0.30382886128 -0.3967802416 -0.50568482336 
-0.61827024612 -0.73271938583 -0.73880259 -0.68792421266 -0.59635771857 -0.48259770626 -0.40147684758 -0.33882287846 -0.29820378388 
-0.2705118157 -0.25238403989 -0.24007232701 -0.22909283078 -0.21895281355 -0.20472469424 -0.18782795274 -0.16554321775 -0.1396158956 
-0.10958908991 -0.07669264575 -0.041189218631 -0.0037966734308 0.03399888325 0.072096698541 0.10492719825 0.13366963215 0.14917163576 
0.15404117263 0.14374980347 0.12086322006 0.09255282258 0.059581334883 0.03186256935 0.0088128901862 -0.0060288298883 -0.013324523058 
-0.013052390805 -0.0055846212637 0.012574928926 0.041248063421 0.10051405016 0.19089141207 0.41813098376 0.78931184506 1.0614222944 
1.2257719448 1.0744419135 0.56797224021 0.23470518369 0.10298299029 0.01054899775 -0.034593641902 -0.067632241535 -0.085597885673 
-0.096251772627 -0.097484741671 -0.0927477662 -0.080050864708 -0.064745268076 -0.04583967215 -0.029061192882 -0.015321451698 -0.0068474388674 
-0.0061623158941 -0.0082687625535 -0.01465165631 -0.020212084531 -0.024467295707 -0.027047389644 -0.026872846346 -0.025278545598 -0.021264203744 
-0.016345081507 -0.0098268125465 -0.002408861157 0.0066585080189 0.01740802425 0.031357722685 0.048744928287 0.072921210545 0.10349749373 
0.14720198393 0.19885295758 0.26744248807 0.33088557938 0.38292304874 0.40317522091 0.35014462457 0.27881756494 0.16357899337 
0.051734873414 -0.05162311753 -0.15145960449 -0.24211883866 -0.3237846002 -0.38099935806 -0.42338391329 -0.42366982879 -0.41494929669 
-0.37950963671 -0.34532400692 -0.31503019493 -0.29073866008 -0.28595452589 -0.29006189596 -0.32446624344 -0.37328365739 -0.47365550136 
-0.59066705592 -0.77024392226 -0.90608823118 -0.86882450031 -0.80410116867 -0.6247638512 -0.46103694065 -0.36613773328 -0.27897860273 
-0.22793983065 -0.18006291787 -0.14783720863 -0.11701412902 -0.09357331055 -0.070585239106 -0.050137581506 -0.029848634457 -0.010511950714 
0.008955185044 0.029262105649 0.049970734454 0.073464540117 0.097004352518 0.12088921546 0.14401983321 0.16100045171 0.17626355508 
0.1762121485 0.1739874496 0.15042497156 0.12515746965 0.081305207496 0.035710356452 -0.031182803264 -0.099180613194 -0.18250544483 
-0.26344569397 -0.30623262314 -0.34444234514 -0.29644799875 -0.24710447595 -0.16699973077 -0.087145260738 -0.014486201415 0.05769616804 
0.11144652931 0.16291868197 0.081115630683 0 0 0 
FrenetTangent 3 240 double
-0.68435350518 -0.51921844439 0.51193015828 -0.68435350518 -0.51921844439 0.51193015828 -0.68435350518 -0.51921844439 0.51193015828 
-0.66405734596 -0.57243390281 0.47613792683 -0.64358918539 -0.62610033969 0.44004237138 -0.62326751436 -0.67540634319 0.38680222723 
-0.60294834742 -0.72463780938 0.33326901319 -0.58314634265 -0.76436753621 0.2617055888 -0.56335771276 -0.8038515284 0.18967586586 
-0.54388180799 -0.827654489 0.1026161927 -0.52441678063 -0.85091202241 0.015033738654 -0.50488333056 -0.85410874704 -0.079025411752 
-0.4853468795 -0.85642561164 -0.17336862779 -0.46588199421 -0.83988762859 -0.26251167415 -0.44642090888 -0.82234850319 -0.35137860531 
-0.4276615045 -0.79288714445 -0.42622858464 -0.40894595517 -0.76268064612 -0.50020250448 -0.39129945279 -0.72887475129 -0.55765284631 
-0.37372999884 -0.69480944049 -0.61391229963 -0.35682799498 -0.66296732851 -0.65588912347 -0.33998060066 -0.63130711461 -0.69669736852 
-0.32267390939 -0.60451477223 -0.72703781658 -0.30532508079 -0.57816902357 -0.7564179163 -0.28593200117 -0.55722347027 -0.77876690369 
-0.2663307108 -0.53682793687 -0.80039975926 -0.24289837745 -0.52128157785 -0.8174357996 -0.21903639442 -0.50627905147 -0.83395630925 
-0.18972507827 -0.49505120287 -0.84720379256 -0.15974544767 -0.48428628645 -0.86004986698 -0.12343271182 -0.47592236198 -0.86990650239 
-0.086275561942 -0.46787856977 -0.87936454593 -0.043420235075 -0.46077900355 -0.88534073363 0.00025694424186 -0.45381562377 -0.89081473057 
0.046851014499 -0.44676362519 -0.89217029247 0.093898194027 -0.43969786058 -0.89288609747 0.13937669081 -0.43264597807 -0.88955558898 
0.18459374046 -0.42559640923 -0.8855506949 0.22383115172 -0.42016653328 -0.87854630342 0.26200288485 -0.41502531547 -0.87100734805 
0.29173249272 -0.41405312093 -0.86173380104 0.31985809679 -0.41387304082 -0.85213068161 0.33944370625 -0.42027632518 -0.84122104195 
0.35730406427 -0.42800958217 -0.8300474588 0.36794962885 -0.44394173222 -0.81667351867 0.37704916626 -0.46163078791 -0.80282807348 
0.38048118054 -0.488237123 -0.78466586237 0.38262777722 -0.51686593381 -0.76552459094 0.38005607634 -0.55434169452 -0.73888116642 
0.37635395002 -0.59393703697 -0.71044035105 0.36781233017 -0.64141343842 -0.6700981938 0.35804810143 -0.69088084426 -0.62674938175 
0.34202106405 -0.74533439315 -0.56572461574 0.32432838606 -0.80111404392 -0.49999879815 0.29790806845 -0.85459433225 -0.41062004888 
0.26904776557 -0.90743178807 -0.31462865206 0.22957593463 -0.94411662505 -0.19377018331 0.18698985089 -0.97606101953 -0.065613769554 
0.13600635894 -0.97609774662 0.075873024673 0.082439049078 -0.96631672989 0.22146147443 0.028025941629 -0.92102707483 0.35797328645 
-0.026659700598 -0.86429574742 0.49156040409 -0.074843682871 -0.78469581988 0.60003458341 -0.12083609437 -0.69738737544 0.70004372734 
-0.15788844044 -0.60223318449 0.77358945718 -0.19179144527 -0.50431515102 0.83781284796 -0.2176191606 -0.40659990332 0.88132001049 
-0.2404766545 -0.30895924348 0.9172074109 -0.25658365087 -0.21413793874 0.93795937582 -0.27010034003 -0.12039847957 0.95290355735 
-0.27758882223 -0.030556269353 0.95644209339 -0.28266602165 0.057727041287 0.95541837123 -0.28193836329 0.14073845871 0.94579553727 
-0.27879201418 0.22155325396 0.93258974007 -0.27002569192 0.29517615447 0.91371849277 -0.25882179094 0.36567967895 0.89238994183 
-0.24257678741 0.42700327219 0.86890537286 -0.22405714005 0.48418470134 0.84444796647 -0.20157881223 0.53101994308 0.82146623731 
-0.17724332568 0.57300141789 0.79917680115 -0.15034526857 0.60440888439 0.78136816198 -0.12219795832 0.63066152182 0.76574391133 
-0.092931483378 0.64667696563 0.75646590048 -0.063098342773 0.65750902025 0.7504011756 -0.033520673985 0.65854729329 0.75125903525 
-0.0040772916655 0.65443755294 0.75575568933 0.023757544859 0.64087054883 0.76654634643 0.050714992767 0.6221450372 0.78077009609 
0.074613066069 0.59425480617 0.79968750798 0.096780177422 0.56117927336 0.82126054455 0.11428637224 0.51930061667 0.84533262773 
0.12905816269 0.47225746064 0.87087081827 0.13751368841 0.41709988557 0.89634155719 0.14212824232 0.35700786649 0.92177127824 
0.13898495739 0.29009131023 0.94433374515 0.13095317127 0.21887436068 0.96508944919 0.11445699499 0.1428403816 0.98012893487 
0.092435452904 0.063661952678 0.99143700023 0.062747742354 -0.017431303867 0.99449076002 0.027877270026 -0.099819091766 0.9919641442 
-0.0118008472 -0.18050035382 0.97987748132 -0.054844315854 -0.25998704777 0.96109878551 -0.098350372311 -0.33452663894 0.93365673626 
-0.14219163732 -0.405481373 0.89993689465 -0.18242176783 -0.46998496105 0.86032886887 -0.21994354746 -0.5296501896 0.81630470496 
-0.25158300669 -0.58334009017 0.76934578391 -0.27865708292 -0.63239242278 0.72010914089 -0.29957267727 -0.67694328502 0.66955118717 
-0.31554282404 -0.71787933014 0.61793218092 -0.32628741493 -0.75567233026 0.56491624351 -0.33269077479 -0.79085418529 0.51073977866 
-0.33516912281 -0.82337696362 0.45416929689 -0.33427441378 -0.85361459791 0.39554145681 -0.33069128291 -0.88057316459 0.33395244482 
-0.32471844372 -0.90461700451 0.26973128002 -0.31709577615 -0.92420679554 0.20368188804 -0.30795633086 -0.93970173518 0.13595170656 
-0.29803524759 -0.95024958218 0.069608129341 -0.28737096754 -0.95609363618 0.0045829627305 -0.27659720213 -0.95818168364 -0.055126210588 
-0.26571577609 -0.95657632468 -0.1096079905 -0.25502116987 -0.95361460491 -0.15613585201 -0.2445165499 -0.94927353516 -0.19457498295 
-0.23403968402 -0.94574184068 -0.22447131011 -0.22359200781 -0.9430613857 -0.24538296435 -0.21269581154 -0.94217727572 -0.25874179119 
-0.20131175134 -0.94324708485 -0.26388526191 -0.18895418573 -0.94594054182 -0.26326909377 -0.17550142651 -0.95046060262 -0.25617333189 
-0.16078071636 -0.95579598028 -0.24541089006 -0.14458457239 -0.96208009026 -0.23038176608 -0.12719348566 -0.96830865793 -0.21372608796 
-0.10836404192 -0.97447036911 -0.1951125206 -0.088711216212 -0.98001841326 -0.1764567697 -0.068033046913 -0.98480226827 -0.15774848836 
-0.047018191109 -0.98878896431 -0.1398969491 -0.025569527693 -0.9917485517 -0.12314928908 -0.0041562578079 -0.99397576192 -0.10745457755 
0.017209820701 -0.99522646926 -0.093163797365 0.038472153802 -0.99588186454 -0.079600874712 0.05959131824 -0.9957157292 -0.067042395459 
0.080912284132 -0.99501841264 -0.054641647007 0.10252153782 -0.99356226577 -0.04246622827 0.12497855545 -0.99146644529 -0.029831063286 
0.14868955726 -0.9884244409 -0.016515856979 0.17414309384 -0.98437060821 -0.0022047903279 0.20226604538 -0.97876674068 0.013631849616 
0.23312582482 -0.97140037276 0.03088242319 0.26832883116 -0.96123699337 0.05037684796 0.3070387931 -0.94806888794 0.071542447465 
0.35151574871 -0.92995967748 0.095456200976 0.39945233512 -0.90719304502 0.12095349858 0.45328601949 -0.87648762508 0.14915001907 
0.50899330608 -0.839750881 0.1782507735 0.56801207566 -0.79235412219 0.20894970885 0.62571218133 -0.73931582568 0.23927105329 
0.6809947365 -0.67593471008 0.2689001477 0.73180508193 -0.60992155111 0.29695116519 0.77410732104 -0.53890109014 0.32199998755 
0.81086440984 -0.46928914637 0.34520518603 0.83666982679 -0.40245902407 0.36476922735 0.85788888133 -0.33969648226 0.38312663886 
0.86970001298 -0.28527769532 0.3990089123 0.8784506254 -0.23554773114 0.41456980604 0.88067749944 -0.19581236285 0.42944565356 
0.8809821961 -0.16009053144 0.44465603904 0.87702693208 -0.13326356558 0.46060783296 0.87176958715 -0.1092751628 0.47719622598 
0.86351022238 -0.091831224909 0.49525233358 0.85427623097 -0.075931803795 0.5139070622 0.84270313565 -0.063739222944 0.53399848128 
0.83044616924 -0.051819452757 0.55434552677 0.81647952512 -0.040581709231 0.57533163827 0.80223566898 -0.028544427081 0.59599598023 
0.78726938151 -0.014423498822 0.61582177128 0.77254652166 0.0012639679497 0.63464213129 0.75848548064 0.021210461304 0.65072897571 
0.7451548483 0.042973234466 0.66518123079 0.73389763416 0.069891898697 0.67499336132 0.72365438227 0.098253669805 0.68276953941 
0.71641921839 0.13089665798 0.68450572526 0.71021978346 0.16412226183 0.68417877844 0.70723467979 0.19915598325 0.67744900607 
0.70514235278 0.23364925687 0.66907114967 0.70595154992 0.26638607514 0.65533702021 0.70749264636 0.29758390123 0.64069655393 
0.71152762191 0.32353775399 0.62296782884 0.7161735071 0.34734806784 0.60514083677 0.72300456909 0.36349110792 0.58696235126 
0.7303058231 0.37730989425 0.56934984207 0.73937499908 0.38238948648 0.55386540383 0.74872057246 0.38520427455 0.53939007152 
0.75916021882 0.37905421286 0.52890911682 0.76961615053 0.37080038657 0.51966484379 0.78014005585 0.35376562973 0.51558237253 
0.79034476624 0.33479241492 0.51282026228 0.79914211721 0.30727236271 0.51587974377 0.807226952 0.27792449159 0.52022762421 
0.81198671129 0.24004679891 0.53058803313 0.81561380603 0.20044921906 0.54202416747 0.81363421133 0.15233819771 0.5587851427 
0.81012966948 0.1027404906 0.5761893702 0.79859909 0.045318121555 0.59697913598 0.78533244693 -0.013099457851 0.61778576015 
0.76232455809 -0.077101273199 0.63868697867 0.73775232428 -0.14138530869 0.65893345993 0.70379402064 -0.20736266506 0.67525151772 
0.66885383939 -0.27289192124 0.69045674527 0.62759282097 -0.33553653244 0.69849812819 0.58612975881 -0.39724249952 0.70533032359 
0.54326586007 -0.45244053407 0.70377881883 0.50084029894 -0.50658394287 0.70120771773 0.46170226984 -0.55281765862 0.69098964416 
0.42331825745 -0.59812802835 0.68005466374 0.3910823813 -0.63590957673 0.66327413525 0.35963520205 -0.6729530079 0.64608030323 
0.3352205702 -0.70341489387 0.62520118136 0.31143663868 -0.73330727995 0.60416734083 0.29384503769 -0.75760821256 0.58161444441 
0.27665145258 -0.78147295327 0.55910624946 0.2637962406 -0.80058320233 0.53708530042 0.25112110878 -0.8193603276 0.51525070158 
0.24064695655 -0.83406593986 0.49569371633 0.23017872232 -0.84853173445 0.47639158956 0.21979260019 -0.85967005885 0.46062562421 
0.20930293842 -0.87064913198 0.44510904461 0.19715664251 -0.87908018455 0.43358263699 0.18487529349 -0.8874102581 0.42224692141 
0.17005044441 -0.89383856015 0.4145025726 0.15511529844 -0.90020793231 0.40686035062 0.13766538321 -0.90523370316 0.40154662063 
0.12014977654 -0.91023092166 0.39625252598 0.10074554101 -0.91440725963 0.39152294777 0.081323251186 -0.91857596504 0.38675813904 
0.061202862186 -0.92244954462 0.38063108401 0.041087283591 -0.92632635868 0.37445262302 0.021253113763 -0.93039238965 0.36526691375 
0.0015856176309 -0.93442425229 0.35615839532 0.0015856176309 -0.93442425229 0.35615839532 0.0015856176309 -0.93442425229 0.35615839532 

FrenetNormal 3 240 double
0.31379162923 -0.84346940986 -0.43599789915 0.31379162923 -0.84346940986 -0.43599789915 0.31379162923 -0.84346940986 -0.43599789915 
0.3002642664 -0.78710136649 -0.52752034506 0.2866222649 -0.73025562785 -0.61981840491 0.26856779721 -0.64961340238 -0.70157869272 
0.25043790275 -0.56856439937 -0.78315884768 0.23436652161 -0.4677013877 -0.84384243877 0.21834837788 -0.36632594477 -0.90398560149 
0.20975438381 -0.25397777394 -0.93680769029 0.20141862103 -0.14124794301 -0.96867948087 0.20122029272 -0.028957395005 -0.97261522944 
0.20137886943 0.083313886199 -0.97532571302 0.20743913761 0.18354828579 -0.95541450568 0.21381276994 0.28314355893 -0.93430214661 
0.2250543886 0.36254296797 -0.90023603131 0.2366002564 0.4406801355 -0.86536030625 0.25548461665 0.49572547995 -0.82720488112 
0.27489787725 0.54910654887 -0.78881308122 0.30834516683 0.57878092425 -0.75278065553 0.34294069515 0.60651566107 -0.71694126954 
0.40076804524 0.60710131797 -0.68267639247 0.46072675513 0.6051962336 -0.64855596575 0.54458499907 0.56915603868 -0.60722393504 
0.63087745481 0.52963911953 -0.5651573891 0.71654915045 0.4617655711 -0.50739781358 0.80215122813 0.39071183995 -0.44787827213 
0.85951158838 0.32258912965 -0.3809638356 0.91340834177 0.25482588418 -0.31314247798 0.94145254867 0.21265122579 -0.24991380598 
0.96604974938 0.173888379 -0.18729749206 0.97695446211 0.15876028123 -0.13053806809 0.98588429676 0.14704104148 -0.074623387852 
0.98739703288 0.14793818597 -0.022229847714 0.98775759835 0.15079515714 0.029616719205 0.98381758936 0.15220814583 0.080116473253 
0.97916081795 0.15338047076 0.13039175849 0.97202304219 0.13043857326 0.18525334697 0.96444310725 0.10319909157 0.24093229643 
0.93919985928 0.0060558453041 0.31495716332 0.91060058184 -0.10436911623 0.39246775453 0.78107927036 -0.3074363268 0.4686388062 
0.63116966917 -0.52921914324 0.54453924382 0.43172409812 -0.66746555728 0.55759749939 0.22166367638 -0.78781131366 0.55718957308 
0.098317608192 -0.81830346144 0.55691831495 -0.0053612870228 -0.82841644025 0.55667805371 -0.062351439323 -0.81220938723 0.57729291195 
-0.10815574697 -0.78969649324 0.60290430923 -0.14013428037 -0.75099711828 0.64193082793 -0.16861998661 -0.70820852708 0.68434642993 
-0.19510570448 -0.64589163307 0.7329982391 -0.22105951055 -0.57838104151 0.78330861402 -0.24762141313 -0.48559245 0.83097885691 
-0.27435332119 -0.38573689078 0.87791099838 -0.29876925589 -0.25908653858 0.90838584346 -0.32250550275 -0.12457249714 0.93403082982 
-0.33755282233 0.0251516204 0.92865175 -0.34992662581 0.17955576135 0.91372680366 -0.34934353991 0.32574521133 0.86545837253 
-0.34458545632 0.46928770533 0.80644592963 -0.32879207851 0.58721406383 0.72691927854 -0.30927893859 0.69650576992 0.64047772582 
-0.28318565702 0.7781454632 0.54798266542 -0.25477437099 0.85004410652 0.45335511936 -0.22229223688 0.90002506664 0.36034066722 
-0.18831277933 0.94194435017 0.26791953698 -0.15085904284 0.96759534319 0.1796361321 -0.1120721528 0.98700385265 0.092940459049 
-0.069455432863 0.99369882939 0.011589375017 -0.025306780974 0.99530839306 -0.067623873406 0.023887513119 0.98638790543 -0.13965569515 
0.075184158129 0.97307989644 -0.20869525578 0.13324916331 0.95067999586 -0.26773096667 0.19424984278 0.92433662424 -0.3224276584 
0.26517267645 0.88904463896 -0.36284810549 0.34057257968 0.84971486459 -0.39682683244 0.43081400398 0.7969358093 -0.40938043134 
0.52801811716 0.73784721483 -0.41188273561 0.64236731801 0.64740236952 -0.37700904848 0.76507474909 0.54167135192 -0.32391456555 
0.8683247157 0.37434807179 -0.21309248951 0.96172280156 0.17583883596 -0.073041252416 0.95812462596 -0.044222500286 0.081430338707 
0.903541236 -0.27561250469 0.24348185951 0.79805645419 -0.44905921377 0.35051808836 0.66480727683 -0.59090048904 0.42754597615 
0.53972322371 -0.69050979896 0.4626781528 0.41925891193 -0.76622470744 0.47410617709 0.30980477143 -0.82309591949 0.46371291287 
0.20680993142 -0.86891216297 0.44051782605 0.11008233192 -0.90298032103 0.40327671622 0.017165892181 -0.92990437309 0.3574941059 
-0.070885819474 -0.94588890187 0.3009865375 -0.15587208604 -0.95498003243 0.23772077634 -0.23318991684 -0.95314086289 0.1661291841 
-0.3055019632 -0.94416663633 0.089102674356 -0.36557345937 -0.9259270562 0.0068329078222 -0.41736965402 -0.90142357508 -0.078981595696 
-0.45351742997 -0.8711154319 -0.16592737842 -0.47871131282 -0.83674402526 -0.25366505659 -0.4870782645 -0.8009728463 -0.33829454978 
-0.48325178779 -0.76418733957 -0.42067173501 -0.46320149964 -0.72979904695 -0.49689342448 -0.43098335293 -0.69720866491 -0.56849849212 
-0.38503844063 -0.66786196489 -0.63229742502 -0.32843991921 -0.64103274943 -0.69003786526 -0.26460540537 -0.61424655432 -0.73941201566 
-0.19496017034 -0.58749490586 -0.78206778179 -0.12793542555 -0.55627105236 -0.8180011364 -0.063087703426 -0.52133182851 -0.84834971836 