# vtk DataFile Version 5.1
vtk output
ASCII
DATASET POLYDATA
POINTS 240 float
0 0 0 -0.0451178 -0.2498 -0.111205 -0.0902357 -0.4996 -0.222411 
-0.160954 -0.78281 -0.238536 -0.231889 -1.0663 -0.253856 -0.329063 -1.37319 -0.200542 
-0.426685 -1.68048 -0.146054 -0.550958 -2.00116 -0.0485951 -0.67592 -2.32219 0.0499752 
-0.827272 -2.64637 0.167325 -0.979542 -2.97066 0.285327 -1.15639 -3.28743 0.400415 
-1.33433 -3.60388 0.515375 -1.53251 -3.90191 0.609246 -1.73177 -4.19896 0.701998 
-1.94374 -4.4673 0.759715 -2.15651 -4.73385 0.815242 -2.37136 -4.96354 0.826331 
-2.58637 -5.19059 0.834216 -2.79113 -5.37663 0.792909 -2.99506 -5.55933 0.747577 
-3.17699 -5.70258 0.653052 -3.3569 -5.84222 0.554013 -3.50637 -5.95048 0.410605 
-3.65273 -6.05553 0.262678 -3.76554 -6.14308 0.0797508 -3.87459 -6.22865 -0.107101 
-3.95282 -6.31407 -0.316036 -4.02727 -6.39946 -0.527679 -4.07824 -6.50203 -0.746748 
-4.12608 -6.60688 -0.966807 -4.1599 -6.74279 -1.18033 -4.1917 -6.88317 -1.39292 
-4.21831 -7.06251 -1.58824 -4.24411 -7.24791 -1.78088 -4.27056 -7.47321 -1.95078 
-4.29711 -7.70516 -2.1169 -4.32573 -7.97139 -2.26091 -4.35471 -8.24374 -2.40099 
-4.38249 -8.53983 -2.52502 -4.41005 -8.84044 -2.646 -4.4294 -9.15171 -2.7604 
-4.4471 -9.46514 -2.87348 -4.44745 -9.77634 -2.99017 -4.44408 -10.0871 -3.10763 
-4.41413 -10.385 -3.23705 -4.37815 -10.68 -3.36917 -4.3083 -10.9558 -3.51771 
-4.23035 -11.227 -3.67018 -4.11498 -11.4772 -3.8384 -3.99017 -11.7222 -4.01061 
-3.8291 -11.9488 -4.19236 -3.65839 -12.1706 -4.37665 -3.45725 -12.3792 -4.55937 
-3.24759 -12.5843 -4.74165 -3.01714 -12.7821 -4.90792 -2.78059 -12.9779 -5.0695 
-2.53538 -13.1707 -5.19981 -2.28751 -13.3626 -5.32049 -2.04419 -13.5524 -5.39649 
-1.80233 -13.7415 -5.45809 -1.57778 -13.926 -5.46571 -1.35906 -14.1089 -5.45514 
-1.16831 -14.2817 -5.38692 -0.98743 -14.451 -5.29839 -0.841498 -14.6034 -5.1546 
-0.708422 -14.7496 -4.99048 -0.612442 -14.8727 -4.77884 -0.530696 -14.9869 -4.54896 
-0.483247 -15.0734 -4.28294 -0.449516 -15.1489 -4.00245 -0.443463 -15.1955 -3.69858 
-0.448943 -15.2301 -3.38497 -0.473614 -15.2384 -3.05971 -0.506609 -15.2352 -2.72939 
-0.550469 -15.2114 -2.39637 -0.599232 -15.1784 -2.06214 -0.652022 -15.1326 -1.73039 
-0.706702 -15.0809 -1.39981 -0.760488 -15.0244 -1.07324 -0.81384 -14.9656 -0.748631 
-0.863033 -14.9085 -0.426799 -0.910121 -14.8524 -0.106374 -0.95084 -14.8022 0.213843 
-0.988212 -14.7551 0.53395 -1.01743 -14.7164 0.856181 -1.0422 -14.6823 1.17957 
-1.057 -14.6583 1.5059 -1.06616 -14.64 1.83388 -1.06344 -14.6342 2.16335 
-1.05377 -14.6359 2.49368 -1.03079 -14.6539 2.82178 -0.999722 -14.6818 3.14853 
-0.955144 -14.7307 3.46774 -0.902054 -14.793 3.78221 -0.837077 -14.8808 4.08343 
-0.764343 -14.9855 4.37601 -0.683291 -15.1189 4.65048 -0.596617 -15.2718 4.91271 
-0.506625 -15.454 5.15388 -0.414311 -15.6569 5.38029 -0.32424 -15.8869 5.5851 
-0.235796 -16.1367 5.77425 -0.15476 -16.4092 5.94358 -0.0792789 -16.6988 6.09805 
-0.01521 -17.0054 6.23619 0.0400018 -17.3251 6.36165 0.0814272 -17.6559 6.47505 
0.111782 -17.9954 6.57878 0.127772 -18.3409 6.67466 0.131829 -18.6914 6.764 
0.122679 -19.0439 6.84894 0.102181 -19.3984 6.9301 0.0712115 -19.7528 7.00923 
0.0309337 -20.107 7.08658 -0.0157553 -20.46 7.16318 -0.0683386 -20.8118 7.23909 
-0.122217 -21.1617 7.31457 -0.177328 -21.5099 7.38964 -0.227965 -21.8559 7.46392 
-0.274204 -22.1997 7.53743 -0.310031 -22.5408 7.60942 -0.33527 -22.8789 7.67988 
-0.344652 -23.2134 7.74812 -0.337357 -23.5438 7.81402 -0.309939 -23.8694 7.87731 
-0.260633 -24.1895 7.93777 -0.188782 -24.5036 7.99587 -0.0915669 -24.811 8.05131 
0.0283901 -25.1115 8.10537 0.174811 -25.404 8.15785 0.34193 -25.6892 8.21066 
0.533964 -25.9657 8.26387 0.742884 -26.2348 8.31959 0.972832 -26.4947 8.37842 
1.21489 -26.7469 8.44195 1.47255 -26.9893 8.51152 1.73756 -27.223 8.58754 
2.01235 -27.4452 8.67214 2.29053 -27.657 8.76407 2.57337 -27.8544 8.86613 
2.85695 -28.0388 8.9754 3.14157 -28.2045 9.09497 3.42563 -28.354 9.22068 
3.70884 -28.4798 9.3555 3.99125 -28.5869 9.49482 4.27243 -28.6653 9.64106 
4.55317 -28.724 9.79007 4.83321 -28.7512 9.94348 5.1133 -28.7593 10.0982 
5.39348 -28.736 10.2552 5.67406 -28.6962 10.4126 5.9553 -28.6285 10.571 
6.23705 -28.5484 10.7295 6.51969 -28.4462 10.8883 6.80265 -28.3359 11.0473 
7.0862 -28.2109 11.2067 7.36984 -28.0816 11.3663 7.65363 -27.9441 11.5263 
7.93727 -27.8051 11.6862 8.2206 -27.6628 11.8461 8.50369 -27.5202 12.0055 
8.78629 -27.3769 12.1638 9.06872 -27.2336 12.3208 9.35082 -27.0902 12.4752 
9.63306 -26.9465 12.6277 9.91564 -26.8021 12.7759 10.1988 -26.6573 12.9219 
10.4831 -26.5112 13.0625 10.7685 -26.3648 13.2008 11.0564 -26.2175 13.3336 
11.3456 -26.0706 13.4644 11.6381 -25.9245 13.5904 11.9321 -25.7799 13.7153 
12.23 -25.6393 13.8372 12.5292 -25.5016 13.9589 12.832 -25.3715 14.0803 
13.1355 -25.2458 14.2026 13.4413 -25.1322 14.3278 13.7473 -25.0241 14.455 
14.0537 -24.932 14.5883 14.3596 -24.8462 14.7248 14.6634 -24.7799 14.8706 
14.9661 -24.7204 15.0202 15.2646 -24.6827 15.1817 15.5614 -24.6518 15.3471 
15.8527 -24.6441 15.5257 16.1423 -24.6429 15.7079 16.4258 -24.6648 15.903 
16.7079 -24.6928 16.1009 16.9846 -24.7434 16.3094 17.2603 -24.7996 16.5195 
17.5318 -24.8773 16.7361 17.8025 -24.9599 16.9531 18.0694 -25.0632 17.1716 
18.3352 -25.171 17.3892 18.5961 -25.2992 17.6032 18.8551 -25.4317 17.8157 
19.1047 -25.5843 18.0207 19.3509 -25.7411 18.2239 19.58 -25.9181 18.418 
19.8038 -26.099 18.6105 19.9999 -26.2999 18.7945 20.1891 -26.5042 18.9773 
20.3393 -26.7274 19.1539 20.4814 -26.9533 19.3299 20.5754 -27.196 19.5022 
20.661 -27.441 19.6741 20.6936 -27.7001 19.8439 20.7188 -27.9609 20.0133 
20.6927 -28.2333 20.1798 20.6607 -28.507 20.3455 20.5854 -28.7905 20.5055 
20.5063 -29.0751 20.6643 20.3972 -29.3688 20.813 20.2864 -29.6634 20.9602 
20.1612 -29.967 21.0929 20.0361 -30.2715 21.2239 19.9117 -30.5851 21.3377 
19.7885 -30.8994 21.45 19.6779 -31.2225 21.5453 19.5688 -31.5461 21.6395 
19.4787 -31.8764 21.7204 19.3901 -32.2069 21.8009 19.3209 -32.5404 21.8752 
19.2526 -32.8737 21.9498 19.1981 -33.2044 22.0278 19.1438 -33.5346 22.1067 
19.0936 -33.855 22.2002 19.043 -34.1746 22.2947 18.9835 -34.476 22.4154 
18.9233 -34.7765 22.5373 18.8399 -35.0499 22.6962 18.7556 -35.3224 22.8564 
18.6333 -35.5586 23.0641 18.51 -35.794 23.2729 18.3338 -35.984 23.5394 
18.157 -36.1734 23.8066 17.9118 -36.308 24.1418 17.6666 -36.4426 24.477 

LINES 2 240
OFFSETS vtktypeint64
0 240 
CONNECTIVITY vtktypeint64
0 1 2 3 4 5 6 7 8 
9 10 11 12 13 14 15 16 17 
18 19 20 21 22 23 24 25 26 
27 28 29 30 31 32 33 34 35 
36 37 38 39 40 41 42 43 44 
45 46 47 48 49 50 51 52 53 
54 55 56 57 58 59 60 61 62 
63 64 65 66 67 68 69 70 71 
72 73 74 75 76 77 78 79 80 
81 82 83 84 85 86 87 88 89 
90 91 92 93 94 95 96 97 98 
99 100 101 102 103 104 105 106 107 
108 109 110 111 112 113 114 115 116 
117 118 119 120 121 122 123 124 125 
126 127 128 129 130 131 132 133 134 
135 136 137 138 139 140 141 142 143 
144 145 146 147 148 149 150 151 152 
153 154 155 156 157 158 159 160 161 
162 163 164 165 166 167 168 169 170 
171 172 173 174 175 176 177 178 179 
180 181 182 183 184 185 186 187 188 
189 190 191 192 193 194 195 196 197 
198 199 200 201 202 203 204 205 206 
207 208 209 210 211 212 213 214 215 
216 217 218 219 220 221 222 223 224 
225 226 227 228 229 230 231 232 233 
234 235 236 237 238 239 
CELL_DATA 1
FIELD FieldData 3
Length 1 1 double
79.25321079 
Tortuosity 1 1 double
0.67479318169 
ClusterLabel 1 1 int
1 
POINT_DATA 240
FIELD FieldData 6
Curvature 1 240 double
0 0.32776888181 0.65553776362 0.51649330994 0.37349281104 0.28034165916 0.18804263287 0.14549571655 0.10423549272 
0.098055938885 0.093096582262 0.10709023343 0.12191515687 0.14578683093 0.17013886342 0.20522537117 0.24098278363 0.29333138647 
0.34687575077 0.41484326358 0.48399085217 0.53398403541 0.58221993377 0.5630537914 0.53702262637 0.46374376181 0.38516608983 
0.33226111022 0.28250466834 0.28899850912 0.30299238759 0.32467898757 0.34747511468 0.34136402772 0.33076249974 0.29349338687 
0.25177967651 0.20338674094 0.1538034484 0.11537112481 0.079057485331 0.08302912027 0.095139194485 0.13026460252 0.1703218678 
0.20731004423 0.24360213866 0.26060326501 0.27298259693 0.26072874105 0.24225176404 0.21459749747 0.18450246238 0.16567351544 
0.14999422755 0.15795035741 0.17284296856 0.20888029734 0.25142369309 0.31364910538 0.38221650076 0.46529477468 0.55326435596 
0.6220554133 0.68409039971 0.68411114816 0.66132206196 0.59609370495 0.51458051148 0.43557158495 0.35756436521 0.29565748788 
0.24045908655 0.19706044106 0.15877976197 0.12614613205 0.096060560909 0.069004329766 0.043369270474 0.032064116708 0.027744791886 
0.037563175057 0.054539891391 0.068783049833 0.081589338101 0.092146071363 0.10147577462 0.11166271433 0.1223346694 0.13560504375 
0.15039982408 0.16897496224 0.18984896664 0.21317407893 0.23804372497 0.2610949584 0.2829591725 0.29701960047 0.30580422937 
0.30344298898 0.29327964008 0.27577861793 0.25296044125 0.22879538765 0.20362017634 0.18104716429 0.16049376956 0.14314664243 
0.12837424535 0.11542005277 0.10397636852 0.092479820092 0.080937841494 0.068051965374 0.053971513678 0.037975223686 0.020217598488 
0.016711935368 0.026757318157 0.044492968248 0.069790714519 0.096393499376 0.12432344212 0.15191079429 0.17913783568 0.2023772711 
0.22127931056 0.23266771897 0.23560329245 0.23093356302 0.21741402654 0.20046113198 0.17937549156 0.15967464357 0.14169825407 
0.12799868217 0.11980962526 0.11593616289 0.11781682657 0.12309399525 0.13305834081 0.14583017881 0.16261272028 0.18106462325 
0.20198579012 0.22084346472 0.23654004479 0.24612402926 0.24600759027 0.23841186699 0.21851687623 0.19506826339 0.16556234021 
0.13640283581 0.10785560647 0.081702251196 0.059937665055 0.040991253006 0.027406245326 0.016524991778 0.010983652641 0.0082386268269 
0.011229628341 0.014977929813 0.020340475931 0.025338037494 0.029526714369 0.032873594927 0.034279667314 0.035027424009 0.034195223045 
0.033815336857 0.034566237609 0.036757671836 0.042703223607 0.050032013716 0.061121483056 0.072530367475 0.08484597857 0.097288957028 
0.110109792 0.12229628605 0.13251413589 0.14155264702 0.14675830732 0.1503291974 0.14832975934 0.14518117716 0.13792219486 
0.13012166118 0.12028489427 0.11119416297 0.10505648928 0.10005292981 0.099783064532 0.10042823628 0.10510788945 0.11086817057 
0.12167138212 0.13397091748 0.15367725575 0.17499789615 0.20481486355 0.23499302496 0.2671978861 0.29721301344 0.31408973792 
0.32680853973 0.31276071434 0.29598189485 0.26026818299 0.22414181636 0.1849205389 0.1470453737 0.12014620084 0.095370861424 
0.089533036841 0.084880031317 0.091859794731 0.098493572134 0.10135610202 0.10343154019 0.095886968656 0.087924286655 0.07416032196 
0.06164848503 0.06917069233 0.078178851578 0.11517243916 0.15260996164 0.20016919968 0.24750988783 0.28856726693 0.32878824792 
0.33666850181 0.34389894016 0.31311516968 0.28140770104 0.14070385052 0 
Torsion 1 240 double
0 0 0 0.11557174117 0.23212290387 0.36904440025 0.50631410747 0.73330096777 0.96260809928 
0.89798471637 0.82313766339 0.62406504281 0.41954393243 0.33859013775 0.26419743948 0.24946904859 0.23846967692 0.24919514367 
0.26148636454 0.27941485559 0.29780457784 0.32961704275 0.36266095194 0.45059524527 0.54412022588 0.77856648062 1.0288169904 
1.2866075016 1.5453227299 1.2915091979 0.96935849786 0.70258340375 0.44379517589 0.3082010314 0.1917438319 0.099909047982 
0.012177999992 -0.15320249118 -0.33242149698 -0.94463510825 -1.6391176946 -1.3991032095 -0.97030143733 -0.59671382817 -0.23495782538 
-0.095040955135 -0.0054381149581 0.052960423643 0.10388293166 0.17325572264 0.24728963774 0.37895635095 0.52595093598 0.67049927473 
0.81436371667 0.74611147001 0.61560758649 0.46424046523 0.30645388619 0.20622324117 0.1245383971 0.071540877279 0.028213242031 
-0.0020763802803 -0.027773066217 -0.0508325844 -0.072922109846 -0.096930129141 -0.12167431468 -0.14336997604 -0.16384622774 -0.17737694285 
-0.18801368438 -0.19656045045 -0.20420072114 -0.23693434382 -0.28099057655 -0.60174743332 -1.0523144594 -1.3665998184 -1.6144478647 
-1.2011596459 -0.45311888796 -0.13822779023 -0.051017924188 -0.018651395821 -0.016199415279 -0.034862399612 -0.065472008807 -0.097715961806 
-0.13091872984 -0.15436250297 -0.17187175219 -0.18097087091 -0.18477045534 -0.1864534574 -0.18675480153 -0.18861993049 -0.1915422661 
-0.19885871604 -0.20925104602 -0.22438374309 -0.24295148878 -0.26421411487 -0.28749790125 -0.30675932863 -0.32289892514 -0.32725852757 
-0.32215843777 -0.3051701845 -0.2783056108 -0.24724726143 -0.21258488608 -0.17952802809 -0.14789829664 -0.084423000435 0.0083296698194 
0.039170906434 0.011145534015 -0.0036503183166 -0.0054371425622 -0.001825449814 0.007276260216 0.016510913516 0.025885386461 0.03647094443 
0.04837382295 0.062804150127 0.080077857041 0.10225566164 0.13014005264 0.16536956816 0.20944043727 0.25468403486 0.3013880113 
0.32281454063 0.31167205158 0.2676696559 0.1798540514 0.09085443088 0.00022086826988 -0.071582004078 -0.11648389034 -0.14433702828 
-0.14697222599 -0.14303477728 -0.1290285936 -0.11371323432 -0.096320270261 -0.079370331795 -0.063148924296 -0.04679892553 -0.030229737103 
-0.012151811185 0.0085927205296 0.026861996929 0.040593305251 0.011100978614 -0.10062167795 -0.45213968934 -1.2772535265 -1.5687168939 
-0.76551263101 -0.18560754212 -0.081682271548 -0.027703686331 -0.084417755135 -0.15366279076 -0.25179866657 -0.37207830284 -0.54550296423 
-0.69907750907 -0.80302676254 -0.84219675279 -0.71254805712 -0.58129384752 -0.44567464694 -0.32905548606 -0.26637192176 -0.20942607621 
-0.16950212962 -0.13166169842 -0.10028734952 -0.070211614187 -0.044356372951 -0.016450666453 0.01844181057 0.055795518035 0.10195285747 
0.14782719658 0.19263745445 0.23083140656 0.24283581499 0.23899831801 0.16903808544 0.091799512685 -0.017529923583 -0.12140002691 
-0.19979324321 -0.2674017199 -0.28162573557 -0.28805590847 -0.25346585628 -0.21754502573 -0.17415705 -0.13115744107 -0.090488033053 
-0.049533359943 -0.0067422928214 0.038737953718 0.10286317755 0.17498436059 0.30707523757 0.45067788793 0.68814576729 0.90225322485 
0.9080635881 0.89486272451 0.6950061792 0.50652458759 0.44202999126 0.3883516884 0.46687252792 0.56917397285 1.0014313178 
1.403220751 1.3175235949 1.2157476253 0.81115400068 0.41870822043 0.30323329148 0.19018302902 0.14684192815 0.10413256626 
0.085850444876 0.067307589497 0.033511795615 0 0 0 
FrenetTangent 3 240 double
-0.20714563557 -0.95188667399 -0.22583721026 -0.20714563557 -0.95188667399 -0.22583721026 -0.20714563557 -0.95188667399 -0.22583721026 
-0.24005822294 -0.95573328793 -0.082922848175 -0.27324973053 -0.95961250028 0.061202652569 -0.29908925616 -0.93961438429 0.14203363076 
-0.32480310689 -0.91920810885 0.2217826513 -0.3505662578 -0.89894580509 0.25819133809 -0.37633068371 -0.87868722475 0.29347915418 
-0.40544085378 -0.86252147473 0.3008560916 -0.43466739756 -0.84649808404 0.30726221585 -0.4680171346 -0.83279477248 0.29302663654 
-0.50154771344 -0.81919321878 0.27788571936 -0.53825216252 -0.80487018646 0.24432523028 -0.57512513568 -0.79050884555 0.20978671083 
-0.6122376526 -0.77208727142 0.1556807196 -0.649365141 -0.7534119327 0.10035176138 -0.68046737176 -0.72690822532 0.022134388959 
-0.71113534971 -0.6998403112 -0.0577325989 -0.72377524727 -0.66105024101 -0.16180993717 -0.73494012008 -0.62130108532 -0.26786812228 
-0.7123666486 -0.57019221219 -0.38678388615 -0.68669791617 -0.51804116314 -0.50687924441 -0.6247858099 -0.46767456029 -0.61120081185 
-0.55918224889 -0.41748970658 -0.7139157895 -0.47966131234 -0.39034956987 -0.77891612761 -0.39857954863 -0.36579388739 -0.83968678653 
-0.32816228764 -0.37519989487 -0.86383543149 -0.25905293737 -0.38877101527 -0.88349269737 -0.21014973176 -0.43278738503 -0.8740351196 
-0.16394067877 -0.48086312137 -0.86069556268 -0.13722818768 -0.54603170558 -0.82229302204 -0.1133277007 -0.61366560438 -0.78027562797 
-0.10347433042 -0.67971615852 -0.72046056157 -0.095803036531 -0.74552075621 -0.65788080821 -0.094284620624 -0.79593285902 -0.59250684516 
-0.093791684382 -0.84377954602 -0.52666718049 -0.091909260264 -0.87439847281 -0.4728660121 -0.089779204642 -0.9019471057 -0.4212103183 
-0.080761485469 -0.91716763048 -0.388851627 -0.070435110222 -0.93004581472 -0.36015936618 -0.049160258308 -0.93454137781 -0.35163722817 
-0.025673592926 -0.93734348208 -0.34718986245 0.011882740657 -0.93172127583 -0.36030052809 0.05245400314 -0.92429386017 -0.37717362902 
0.10744029054 -0.90525168735 -0.40533893147 0.16569596504 -0.8835752397 -0.43606535179 0.23262267694 -0.84879159267 -0.46740576561 
0.30162682487 -0.81086767913 -0.49889328203 0.36879206167 -0.76611284147 -0.51995256161 0.43549273143 -0.71963229666 -0.53837733925 
0.4929994842 -0.67783998657 -0.54127869905 0.54806104627 -0.63729454741 -0.54005149026 0.59329288942 -0.60947758525 -0.52327625542 
0.63577663911 -0.58521912204 -0.5021542606 0.67054483874 -0.57547725669 -0.46531361629 0.70304869216 -0.56999569724 -0.42385989007 
0.72841837229 -0.5765036495 -0.36375431967 0.75159292217 -0.58670068228 -0.29790972029 0.76394042377 -0.60307195574 -0.208054021 
0.7727992098 -0.62143270676 -0.11046141174 0.76109000669 -0.6349754614 0.014231189826 0.74244777353 -0.64689417232 0.14805862025 
0.69188060942 -0.63764598029 0.2973262909 0.63006716281 -0.62094126564 0.45203313707 0.54086074439 -0.57474694748 0.59037443853 
0.44157875012 -0.51770587861 0.7226962293 0.33971596415 -0.44391629485 0.81609038193 0.2368628744 -0.36369995537 0.89454718504 
0.15029842674 -0.2843162275 0.94015967028 0.070249435925 -0.20526554426 0.97263442836 0.0093524212732 -0.13512904931 0.98740638071 
-0.043564603311 -0.068706799476 0.99480216401 -0.081227776619 -0.012965951763 0.99496543281 -0.11227482166 0.038141998644 0.99199170739 
-0.13243051696 0.078389513723 0.98739269919 -0.14767182273 0.11373658847 0.98206033169 -0.15523001255 0.13830332028 0.97796038765 
-0.15918377761 0.15781260725 0.97443861759 -0.15748260667 0.1672926052 0.9732294825 -0.15302465444 0.17188332476 0.97314775695 
-0.14410976782 0.16825046804 0.97506453158 -0.13293820557 0.16045377523 0.97799320504 -0.11808641733 0.14693476555 0.98181330238 
-0.10130015132 0.13040787135 0.98610196869 -0.081352128422 0.11025521482 0.99013489543 -0.059679510855 0.08812486973 0.99402832788 
-0.035109851734 0.062691414347 0.99678492738 -0.0089010769956 0.035389093929 0.99889831877 0.01994301973 0.0032847597214 0.99886365099 
0.050333172021 -0.031636755909 0.99756878849 0.082589709988 -0.073689472173 0.99241291513 0.11598121222 -0.12007872936 0.98490912976 
0.14938271204 -0.17525049117 0.97086618085 0.18279051171 -0.23595643397 0.95270266314 0.21291864049 -0.30435332134 0.92510850139 
0.24090587299 -0.37777068642 0.8913582248 0.26162904174 -0.45399734664 0.84728348568 0.27744129416 -0.53212324864 0.79622882823 
0.28344373363 -0.60599348766 0.73819003105 0.28257930404 -0.67688476258 0.67526233605 0.2724231562 -0.7385174173 0.61176777997 
0.2555338792 -0.79344092695 0.547862455 0.23208020695 -0.83829999233 0.48897001861 0.20370323827 -0.87561072452 0.43383724867 
0.17178439821 -0.9047043195 0.38624384003 0.13711664306 -0.92742043485 0.34450187599 0.10132268922 -0.94426544 0.31023885405 
0.064624363696 -0.95639576574 0.28198164925 0.028760468368 -0.96457093627 0.25988130378 -0.0064102080309 -0.96946028555 0.24289588761 
-0.038928395277 -0.97192704274 0.23034469174 -0.069167099658 -0.97231188485 0.22160415394 -0.095017695194 -0.97164324754 0.21562001259 
-0.11696774954 -0.97003818408 0.21208600144 -0.13299016036 -0.96858993962 0.20990119211 -0.14356296345 -0.96728586745 0.20895677799 
-0.14693651677 -0.96695608807 0.2083170079 -0.14346488178 -0.96755268542 0.20796689934 -0.13176968641 -0.96922510344 0.20721003356 
-0.11198798998 -0.97195541176 0.20605318983 -0.083319610497 -0.97485336736 0.20405732611 -0.045613926209 -0.97792181172 0.20120822173 
0.00074297804981 -0.9791554466 0.19737343348 0.056198579176 -0.97845936806 0.1925019777 0.11817159722 -0.9734049979 0.18687808511 
0.18723373541 -0.96361002984 0.18043575249 0.25832750559 -0.9479910108 0.17406588977 0.33170686177 -0.92581993441 0.1677775557 
0.4019256848 -0.89889577585 0.16284062649 0.46846679654 -0.86644075805 0.1594762411 0.52860966178 -0.83218391847 0.1586263255 
0.58105093402 -0.79575821932 0.16080308652 0.62677657948 -0.76005952378 0.16609504769 0.66413936895 -0.7252661535 0.17526631473 
0.69627767819 -0.69189009389 0.18755332846 0.7216844456 -0.66034018459 0.20385486198 0.74381563675 -0.62920701655 0.22281632728 
0.76157939291 -0.59862950352 0.24532436832 0.7777904572 -0.56648340477 0.26969681866 0.79185880671 -0.53217265774 0.29664215385 
0.80552910689 -0.49398292813 0.32433036188 0.81863076516 -0.45025179485 0.35307981682 0.83149840584 -0.40085939196 0.38104475606 
0.8440198955 -0.34309302777 0.40784926581 0.85525691718 -0.27977076188 0.43204294212 0.86452624325 -0.2079373274 0.45223704377 
0.87107876301 -0.13349902775 0.46847006333 0.87331982925 -0.054926920308 0.47841701782 0.87257164949 0.021437402026 0.48464219856 
0.86690782071 0.094171144413 0.48474712911 0.85959575393 0.16099450756 0.48285148374 0.84947419055 0.21774336063 0.4775457658 
0.83938304511 0.2677026608 0.47205262328 0.82934566162 0.30566182095 0.46622821869 0.82027964174 0.33790226796 0.46113728895 
0.81299445516 0.35965840755 0.45739106309 0.80685723713 0.37748528388 0.45432817317 0.80290395929 0.38783697644 0.45256528821 
0.79988150958 0.39603505199 0.45092702747 0.7986974454 0.39997973391 0.44953489955 0.7981670029 0.40316761019 0.4476368293 
0.7989773228 0.40480306463 0.44470092866 0.8002427447 0.40651990021 0.44082867899 0.80247825246 0.40841020613 0.43496052744 
0.80503419444 0.41056560419 0.42814032721 0.80830028794 0.41330850374 0.41921018125 0.81183817666 0.41591379995 0.40971024929 
0.81600270437 0.418201844 0.39889664405 0.82044806779 0.41971673409 0.38811300682 0.82556743692 0.41937605467 0.3774012928 
0.83097628393 0.41763757499 0.36741305381 0.83710882562 0.41240459468 0.35923350235 0.84343982231 0.40541069488 0.35236168319 
0.85028800479 0.39382773214 0.34889789366 0.85712724806 0.38033414852 0.34711680568 0.86394218788 0.36164606437 0.34991056253 
0.87042079055 0.34105348123 0.35452088734 0.87594462972 0.3150545784 0.36428792124 0.88069808101 0.28733076673 0.37577867475 
0.88316604825 0.25448972557 0.39238312976 0.8844696327 0.22022253923 0.41031703341 0.88215961537 0.18152938512 0.43237681213 
0.8785150735 0.1419306332 0.45501086519 0.87053332691 0.099388688374 0.47951130987 0.86140734508 0.056643005052 0.50370711793 
0.84838248764 0.013203101668 0.52686490488 0.83480364361 -0.029865184248 0.54891441737 0.81924323216 -0.07160422307 0.56699971739 
0.80382731898 -0.11266770277 0.58350760716 0.7889547193 -0.1511910802 0.59408443433 0.77461515988 -0.18906976817 0.60308536376 
0.76238555149 -0.2243965604 0.60584836462 0.75059867622 -0.25946505571 0.6073171395 0.74065973051 -0.29345544215 0.60338392773 
0.73060710542 -0.32761065253 0.59867734636 0.72005325758 -0.36249258668 0.59056090811 0.70850903503 -0.39793110092 0.58231280798 
0.69234306386 -0.43596698891 0.57345028577 0.67417233675 -0.47478650312 0.56502141491 0.64607806778 -0.51748496714 0.55873911824 
0.61498110751 -0.5607996973 0.5531834375 0.56808050885 -0.60735793345 0.55145205109 0.51761845065 -0.65374811042 0.55019064681 
0.44717264725 -0.69919528872 0.55156636447 0.37378456054 -0.74318501655 0.55264906205 0.28274277386 -0.77843004157 0.55197363911 
0.19097346017 -0.81135128136 0.5502685092 0.094520691342 -0.82931315377 0.54193464068 -0.00017643896044 -0.84543607643 0.53249385844 
-0.082701142143 -0.84880894745 0.51537847446 -0.16229816441 -0.85160376567 0.49756685069 -0.21993757983 -0.8500631878 0.47453342857 
-0.27472006403 -0.84889561638 0.45117433752 -0.30620757064 -0.8507694821 0.42515979221 -0.33537604343 -0.85330312437 0.39903343168 
-0.34386646467 -0.86171977417 0.37191005215 -0.35062321539 -0.87060828959 0.34486394533 -0.34035847358 -0.88412966752 0.3185765161 
-0.32900437414 -0.89773376545 0.29262338619 -0.3057762765 -0.91223951143 0.27031411885 -0.28216312659 -0.92649758041 0.24864089498 
-0.25384378234 -0.9377284859 0.23474153575 -0.22579426047 -0.94856566187 0.22171868735 -0.20148852417 -0.95393984052 0.22085742663 
-0.17788237677 -0.95889600498 0.22097459231 -0.16546965185 -0.95716394252 0.23674658048 -0.15395392785 -0.95494528288 0.25346460466 
-0.15933172138 -0.94356237634 0.2879996402 -0.16560324949 -0.93150726807 0.32329574718 -0.19225192604 -0.9041259604 0.37594428313 
-0.21956685502 -0.87588617423 0.42896866148 -0.26603654108 -0.82296513138 0.49279850896 -0.31274994927 -0.76929264178 0.55650877605 
-0.36888727961 -0.68656421138 0.61559526759 -0.42492319552 -0.60354273004 0.67432127423 -0.47502636679 -0.50337776874 0.71195891373 
-0.524708503 -0.40405452981 0.74928027054 -0.524708503 -0.40405452981 0.74928027054 -0.524708503 -0.40405452981 0.74928027054 

FrenetNormal 3 240 double
-0.21753535794 -0.18024852838 0.95926473721 -0.21753535794 -0.18024852838 0.95926473721 -0.21753535794 -0.18024852838 0.95926473721 
-0.23088899532 -0.025365576928 0.95982554253 -0.24435579911 0.13082994191 0.96039110043 -0.31746458089 0.23789193867 0.9070523574 
-0.39159288366 0.34411404617 0.85279217332 -0.55387822247 0.41045421082 0.67960111351 -0.71844348462 0.4757629459 0.50333425519 
-0.8086622538 0.44398747361 0.18337138268 -0.89629505802 0.40883515933 -0.14158961205 -0.84316661232 0.35298951193 -0.34425897171 
-0.7838644276 0.2962362622 -0.54156466317 -0.70694993663 0.27905890553 -0.63843632462 -0.62910027896 0.26398292371 -0.72997520572 
-0.54305995282 0.27184690125 -0.78769765148 -0.4565077099 0.28114462625 -0.84330657003 -0.35044331738 0.30132519255 -0.87929734265 
-0.2429726438 0.32229010777 -0.91387419485 -0.11041556236 0.34647906659 -0.92139913983 0.024194043363 0.3709318108 -0.92671074695 
0.17627708213 0.38481298709 -0.8919446845 0.32996318814 0.39772429476 -0.85350177163 0.48075834394 0.37069369001 -0.77530915282 
0.6312590511 0.33959492752 -0.69306795284 0.75754862794 0.21663877126 -0.57585658352 0.88112293783 0.083380851204 -0.45472332606 
0.8839934613 -0.17944822765 -0.25910787729 0.87206069021 -0.45816810899 -0.054357820162 0.68465769303 -0.63151981617 0.14879733174 
0.4738586657 -0.79082243346 0.35173982961 0.31870112334 -0.79778628223 0.4768793907 0.17156879514 -0.78277819322 0.59079737438 
0.094541004528 -0.72575221883 0.67114755107 0.028403239167 -0.66219919428 0.74628331113 0.0064495411602 -0.5955100961 0.79893565758 
-0.0081401456212 -0.52829831899 0.84784076843 0.037355766856 -0.47700006334 0.87472058606 0.093560003953 -0.42853788082 0.8976751039 
0.33465260332 -0.37453957226 0.81157993583 0.61087399151 -0.31948939974 0.70476532744 0.78769448528 -0.15632769621 0.30852195594 
0.94443399028 0.028674720652 -0.14619187276 0.92592048296 0.13519197116 -0.31832116789 0.86985275872 0.22489097172 -0.42989663439 
0.84341442307 0.2977596288 -0.44142277941 0.82369615493 0.36681109456 -0.43025732575 0.81199819192 0.43286661397 -0.38194366857 
0.80222176034 0.49820435457 -0.32472992096 0.79782031798 0.54482307639 -0.23691020142 0.79477676764 0.58671278294 -0.14135844686 
0.7990704121 0.58235143227 -0.0017371784916 0.80531543817 0.5656892685 0.14960470525 0.77848548511 0.45670288609 0.35020978187 
0.7424087637 0.32190543181 0.56458736402 0.6313578442 0.15652476791 0.71680289422 0.49830362744 -0.017831403153 0.85077521353 
0.36722327981 -0.11084572454 0.91152872689 0.23675027653 -0.17883178449 0.94975337689 0.1203940789 -0.18192594922 0.96958071652 
0.0085866297729 -0.16411050327 0.98348003391 -0.10561389436 -0.10462200209 0.97992293059 -0.220621073 -0.031086403625 0.97048164052 
-0.33410199241 0.069212052438 0.92588994843 -0.44704525233 0.17893833334 0.86891572836 -0.53626201668 0.29047597447 0.77407517943 
-0.61675179414 0.40267986305 0.6653067854 -0.65835379725 0.49746530067 0.54466597893 -0.68503374741 0.58556691409 0.41946947932 
-0.6798005242 0.65510387845 0.30681385386 -0.66180203164 0.71721498318 0.19917457805 -0.62490294559 0.76658656365 0.11086182786 
-0.58012861224 0.81065000901 0.030601796663 -0.52550703767 0.8461651908 -0.031838026735 -0.46661437052 0.87797269202 -0.086548603379 
-0.39707378217 0.90562883475 -0.12510366657 -0.32272864401 0.93141180354 -0.15636904687 -0.17437299548 0.95519645267 -0.16248648089 
0.0087036332118 0.97804361851 -0.15680611295 0.35928697339 0.55896883604 -0.037022520067 0.79152983542 -0.075542896244 0.13838639497 
0.8647442531 -0.41325492984 0.19887979758 0.75617211668 -0.60068863499 0.20118813062 0.70892816258 -0.67927075452 0.18692041108 
0.69392081713 -0.70063601494 0.16393963826 0.69182913108 -0.70857267732 0.13574470196 0.69678235017 -0.70918464984 0.10470567647 
0.69418403801 -0.71548937235 0.069450638885 0.68731314895 -0.72501499288 0.031810226028 0.66786332743 -0.74228609501 -0.01089824318 
0.64103386551 -0.76410121301 -0.056579972115 0.60071526756 -0.78869551472 -0.10857073159 0.55219381661 -0.8149798606 -0.1643980637 
0.49426875177 -0.83474701807 -0.22675246459 0.430418122 -0.85040745409 -0.29321981295 0.35940199569 -0.85391085136 -0.36366784611 
0.28370839246 -0.84947840391 -0.43671438185 0.20230237822 -0.83092375668 -0.50770943263 0.11703445231 -0.80282170678 -0.57731756398 
0.027936101186 -0.76295443958 -0.63704072575 -0.063843547582 -0.71485152027 -0.6898444088 -0.15836918717 -0.66027296332 -0.72650962895 
-0.25488467517 -0.60100191532 -0.75148031075 -0.35315121332 -0.53931261805 -0.75690310515 -0.45273103907 -0.47580963383 -0.747664984 
-0.55031069449 -0.41107079354 -0.71796338447 -0.64633797891 -0.34537278137 -0.67237968231 -0.73207585264 -0.27932022566 -0.61091377492 
-0.80955101777 -0.21298296074 -0.53669397544 -0.87050648651 -0.14936078597 -0.45789950786 -0.91773789978 -0.087994224542 -0.37530454678 
-0.95033262706 -0.032905539371 -0.29935454577 -0.9703489523 0.016788095892 -0.22911505731 -0.98231878548 0.058458285369 -0.16938996364 