# vtk DataFile Version 5.1
vtk output
ASCII
DATASET POLYDATA
POINTS 240 float
0 0 0 -0.133681 -0.252026 0.0545197 -0.267363 -0.504051 0.109039 
-0.42101 -0.768169 0.163571 -0.574827 -1.03239 0.218103 -0.746432 -1.29866 0.269892 
-0.91834 -1.56497 0.321634 -1.1057 -1.82367 0.367782 -1.29346 -2.08217 0.413786 
-1.4938 -2.32423 0.450987 -1.69458 -2.56571 0.487881 -1.90398 -2.78355 0.512028 
-2.11375 -3.00036 0.535615 -2.32664 -3.18902 0.541504 -2.5397 -3.37618 0.546454 
-2.74877 -3.53428 0.527846 -2.9576 -3.69058 0.507765 -3.15443 -3.8209 0.45811 
-3.3504 -3.94935 0.406324 -3.52686 -4.05823 0.320185 -3.70172 -4.16551 0.231236 
-3.8518 -4.26156 0.106087 -3.99961 -4.35659 -0.022383 -4.12105 -4.44889 -0.184727 
-4.2398 -4.54091 -0.350521 -4.33458 -4.6374 -0.543605 -4.42667 -4.7344 -0.73975 
-4.50021 -4.84079 -0.953658 -4.57147 -4.94832 -1.16974 -4.63048 -5.06717 -1.39351 
-4.68785 -5.18752 -1.61829 -4.73768 -5.31775 -1.8427 -4.78641 -5.44939 -2.06704 
-4.82879 -5.58625 -2.28683 -4.87018 -5.72391 -2.50591 -4.90224 -5.86012 -2.72039 
-4.93274 -5.99608 -2.9341 -4.94752 -6.1242 -3.14597 -4.9595 -6.25093 -3.3575 
-4.94781 -6.3664 -3.57033 -4.93162 -6.47974 -3.78339 -4.88455 -6.58329 -3.99887 
-4.83124 -6.68487 -4.21484 -4.74256 -6.78322 -4.43093 -4.6463 -6.88087 -4.64705 
-4.51424 -6.98522 -4.8575 -4.37406 -7.09108 -5.06667 -4.202 -7.21371 -5.26203 
-4.0223 -7.34037 -5.45409 -3.81859 -7.49054 -5.62355 -3.6088 -7.64664 -5.7873 
-3.38585 -7.82689 -5.92075 -3.1594 -8.01356 -6.04613 -2.93236 -8.21786 -6.13578 
-2.70516 -8.42709 -6.21544 -2.49038 -8.64102 -6.25682 -2.27925 -8.85632 -6.28696 
-2.0926 -9.05962 -6.2791 -1.91348 -9.25923 -6.25956 -1.76863 -9.43017 -6.20461 
-1.63481 -9.59188 -6.13825 -1.54158 -9.71237 -6.04063 -1.46203 -9.81896 -5.93247 
-1.42504 -9.87909 -5.79787 -1.40303 -9.92286 -5.65395 -1.42093 -9.92356 -5.48829 
-1.4535 -9.90841 -5.31464 -1.5192 -9.86101 -5.12325 -1.59761 -9.80125 -4.92507 
-1.6995 -9.72429 -4.71226 -1.81078 -9.64046 -4.49361 -1.93471 -9.55454 -4.26269 
-2.0639 -9.46774 -4.02667 -2.19537 -9.39028 -3.7804 -2.32784 -9.31688 -3.5297 
-2.45401 -9.25867 -3.27087 -2.57734 -9.20732 -3.00835 -2.6883 -9.17165 -2.74012 
-2.79346 -9.14333 -2.46921 -2.88285 -9.1277 -2.1953 -2.96456 -9.11824 -1.91993 
-3.02956 -9.11745 -1.64436 -3.08611 -9.12105 -1.36868 -3.12692 -9.13033 -1.09524 
-3.15945 -9.14261 -0.822974 -3.17829 -9.15947 -0.554536 -3.18967 -9.17882 -0.288188 
-3.18968 -9.20315 -0.0260851 -3.18324 -9.2303 0.233615 -3.16731 -9.26312 0.48987 
-3.1458 -9.29926 0.744104 -3.11602 -9.34085 0.996587 -3.08122 -9.38578 1.24801 
-3.03888 -9.43467 1.49966 -2.9918 -9.48607 1.75145 -2.93777 -9.53936 2.00502 
-2.8792 -9.59387 2.25975 -2.81432 -9.6489 2.51665 -2.74517 -9.70428 2.77501 
-2.67044 -9.76072 3.03437 -2.5918 -9.81791 3.29443 -2.50833 -9.87907 3.55272 
-2.42135 -9.9431 3.80974 -2.33044 -10.0158 4.06111 -2.23659 -10.0949 4.30823 
-2.1403 -10.1876 4.54557 -2.04212 -10.291 4.77531 -1.9442 -10.412 4.99188 
-1.84648 -10.5471 5.19788 -1.75315 -10.7015 5.38886 -1.66347 -10.8721 5.56738 
-1.58335 -11.0611 5.73095 -1.51144 -11.2661 5.88166 -1.45421 -11.4867 6.01915 
-1.41003 -11.7211 6.14489 -1.38421 -11.9669 6.26027 -1.37529 -12.223 6.36614 
-1.38593 -12.4861 6.46499 -1.41515 -12.7557 6.55717 -1.46219 -13.0285 6.64556 
-1.52674 -13.3046 6.73025 -1.60485 -13.5815 6.81399 -1.69673 -13.8592 6.89677 
-1.79645 -14.1368 6.98093 -1.90439 -14.4141 7.06655 -2.01425 -14.6911 7.15538 
-2.12618 -14.9679 7.24771 -2.23496 -15.2447 7.3447 -2.3402 -15.5217 7.44693 
-2.43867 -15.7992 7.55485 -2.52924 -16.0773 7.66938 -2.61076 -16.3556 7.79015 
-2.68138 -16.6343 7.91843 -2.74156 -16.9124 8.05289 -2.78874 -17.1897 8.19505 
-2.82434 -17.4648 8.34261 -2.84502 -17.737 8.49713 -2.85276 -18.0048 8.65552 
-2.84327 -18.2666 8.81908 -2.8192 -18.5217 8.98442 -2.77504 -18.7674 9.15223 
-2.71472 -19.004 9.31948 -2.63131 -19.2276 9.48592 -2.53074 -19.4405 9.64965 
-2.4048 -19.6374 9.80935 -2.2618 -19.8226 9.96478 -2.09266 -19.99 10.1137 
-1.90788 -20.1456 10.2577 -1.69827 -20.2827 10.3939 -1.47563 -20.409 10.5255 
-1.23154 -20.5178 10.6495 -0.977758 -20.6174 10.77 -0.707466 -20.7015 10.8846 
-0.431042 -20.7785 10.9974 -0.143781 -20.8427 11.107 0.146351 -20.9016 11.2165 
0.441744 -20.9507 11.3259 0.737372 -20.9961 11.4369 1.03345 -21.0341 11.5509 
1.32788 -21.0692 11.6678 1.61908 -21.0986 11.7904 1.90751 -21.1254 11.9166 
2.19025 -21.1468 12.0504 2.4697 -21.1654 12.1882 2.74216 -21.1779 12.3344 
3.01134 -21.1871 12.4843 3.27324 -21.1886 12.6424 3.53225 -21.1861 12.8034 
3.7846 -21.1741 12.9712 4.0348 -21.1575 13.1408 4.27982 -21.1297 13.3146 
4.52366 -21.0971 13.4886 4.76455 -21.0523 13.6633 5.00537 -21.0027 13.8367 
5.24603 -20.9407 14.0068 5.48772 -20.8746 14.1744 5.73218 -20.7969 14.335 
5.97854 -20.716 14.4922 6.23026 -20.6255 14.6401 6.48432 -20.5328 14.7846 
6.74537 -20.4335 14.9192 7.0087 -20.3333 15.0513 7.27917 -20.2303 15.1752 
7.55134 -20.1279 15.2977 7.82906 -20.0273 15.4159 8.10747 -19.9288 15.5344 
8.38819 -19.8376 15.6535 8.66831 -19.7503 15.7742 8.94627 -19.6764 15.9006 
9.22231 -19.6079 16.0295 9.49115 -19.5596 16.1678 9.75698 -19.5181 16.3089 
10.0109 -19.5033 16.4611 10.2611 -19.4962 16.6156 10.4959 -19.5216 16.78 
10.7268 -19.5552 16.946 10.9407 -19.625 17.1187 11.151 -19.7027 17.2918 
11.3448 -19.8174 17.4673 11.5357 -19.9391 17.6425 11.7125 -20.0953 17.8158 
11.8874 -20.2568 17.9884 12.0515 -20.4469 18.157 12.2144 -20.6406 18.3248 
12.37 -20.8542 18.4888 12.5247 -21.0696 18.6526 12.6737 -21.2952 18.8152 
12.8218 -21.5209 18.9781 12.9633 -21.7479 19.1438 13.1033 -21.9741 19.3104 
13.2326 -22.1948 19.4833 13.3595 -22.4144 19.6573 13.4689 -22.6255 19.8395 
13.5751 -22.8355 20.0225 13.6555 -23.0376 20.2127 13.7322 -23.2392 20.4032 
13.7755 -23.4366 20.5968 13.8149 -23.6341 20.7902 13.816 -23.8329 20.9807 
13.8135 -24.0323 21.1703 13.7716 -24.2387 21.3507 13.7269 -24.4461 21.53 
13.6463 -24.665 21.6946 13.5638 -24.885 21.8579 13.4527 -25.1194 22.0033 
13.3405 -25.3547 22.1477 13.2099 -25.6052 22.2735 13.0789 -25.8564 22.3985 
12.9407 -26.1215 22.5066 12.8026 -26.3872 22.6142 12.6689 -26.6643 22.7086 
12.5357 -26.9417 22.8028 12.4178 -27.2271 22.8886 12.3006 -27.5126 22.9743 
12.2095 -27.8021 23.0572 12.1191 -28.0916 23.1402 12.0652 -28.381 23.2261 
12.0118 -28.6704 23.3121 12.0055 -28.9553 23.4071 11.9993 -29.2402 23.5021 

LINES 2 240
OFFSETS vtktypeint64
0 240 
CONNECTIVITY vtktypeint64
0 1 2 3 4 5 6 7 8 
9 10 11 12 13 14 15 16 17 
18 19 20 21 22 23 24 25 26 
27 28 29 30 31 32 33 34 35 
36 37 38 39 40 41 42 43 44 
45 46 47 48 49 50 51 52 53 
54 55 56 57 58 59 60 61 62 
63 64 65 66 67 68 69 70 71 
72 73 74 75 76 77 78 79 80 
81 82 83 84 85 86 87 88 89 
90 91 92 93 94 95 96 97 98 
99 100 101 102 103 104 105 106 107 
108 109 110 111 112 113 114 115 116 
117 118 119 120 121 122 123 124 125 
126 127 128 129 130 131 132 133 134 
135 136 137 138 139 140 141 142 143 
144 145 146 147 148 149 150 151 152 
153 154 155 156 157 158 159 160 161 
162 163 164 165 166 167 168 169 170 
171 172 173 174 175 176 177 178 179 
180 181 182 183 184 185 186 187 188 
189 190 191 192 193 194 195 196 197 
198 199 200 201 202 203 204 205 206 
207 208 209 210 211 212 213 214 215 
216 217 218 219 220 221 222 223 224 
225 226 227 228 229 230 231 232 233 
234 235 236 237 238 239 
CELL_DATA 1
FIELD FieldData 3
Length 1 1 double
68.148084887 
Tortuosity 1 1 double
0.73022583616 
ClusterLabel 1 1 int
1 
POINT_DATA 240
FIELD FieldData 6
Curvature 1 240 double
0 0.033631541437 0.067263082875 0.071334620153 0.075155648921 0.08194214004 0.088779322823 0.098715399008 0.10873161899 
0.12206691551 0.13551765817 0.15329910743 0.17127049997 0.19688876824 0.22291306532 0.26284363076 0.30364333797 0.35884896593 
0.41509285844 0.46029133135 0.50458608812 0.49815635365 0.48707299612 0.42987464024 0.36797938637 0.3014951696 0.23449630277 
0.18832495612 0.14470792798 0.12203821278 0.10216147264 0.089233071359 0.077306834336 0.075588480593 0.075455817456 0.10779293546 
0.14554168366 0.19636422093 0.24951674041 0.28816133791 0.32404943022 0.33130943427 0.33278598614 0.31931793021 0.30264745833 
0.29006822679 0.27841690542 0.2723026194 0.26751491476 0.26319740908 0.25899869051 0.25532136176 0.25178270052 0.25404444289 
0.25792780348 0.27923156782 0.30564784195 0.37878404048 0.46629560037 0.67779605982 0.92924849801 1.3186924757 1.7546504555 
1.7714251429 1.6405329885 1.2660871653 0.80205838331 0.51008446177 0.28413159132 0.16323847311 0.084369255804 0.076428771645 
0.098041926299 0.1216510589 0.14612591688 0.16155948318 0.17291344226 0.17733502225 0.17850437502 0.17625128128 0.17232974486 
0.16743817203 0.16205544153 0.15656194198 0.15101021766 0.1461810537 0.14174601358 0.13807450781 0.13483500176 0.12980270108 
0.12371862756 0.11460598823 0.10365165347 0.092686174635 0.081713673503 0.073390956082 0.066797958582 0.062084940458 0.058642894306 
0.061471662291 0.068690000172 0.08672626801 0.11260161553 0.14493992879 0.18212546637 0.21969579909 0.25756477877 0.28915930682 
0.31571526006 0.33234891089 0.34073941819 0.34136417089 0.33531522823 0.32486655946 0.31050702302 0.29307870396 0.27282908473 
0.24918387319 0.22231006567 0.19301180653 0.16132950328 0.12947400602 0.09744237927 0.070501845033 0.048915735684 0.043119962385 
0.054499642334 0.069077701634 0.087253937704 0.1028140371 0.11532990474 0.125546227 0.13299457796 0.13989791106 0.14612254267 
0.15385490317 0.16352991437 0.17618259423 0.19280549896 0.21266158758 0.23697946996 0.2622944013 0.28903368829 0.31156195072 
0.327861406 0.33534498945 0.32932340755 0.31493417308 0.28726583779 0.25641002418 0.22031257954 0.18526411739 0.15200369359 
0.12199877108 0.097747757828 0.077966346666 0.06637920601 0.0595862049 0.061913761948 0.065982443265 0.07348984501 0.080767218487 
0.087572739105 0.093448153793 0.097340974262 0.10036601101 0.1014678514 0.10186863661 0.10065310016 0.099290153851 0.097573423872 
0.096510148686 0.097080510481 0.098134657286 0.10044957715 0.10236136845 0.10317715396 0.10252931716 0.097726681546 0.091252655087 
0.079820169114 0.067896050256 0.054446174164 0.044743448967 0.047218964178 0.053983768971 0.075363930861 0.098183314713 0.12615068482 
0.15459828429 0.18485154619 0.2147744003 0.24338939029 0.27015135881 0.28917897687 0.30474714841 0.30506230572 0.30178968742 
0.28177411622 0.25954406991 0.22635237171 0.19280927312 0.15741669878 0.12272610307 0.091974387429 0.063890519831 0.051813740514 
0.04352847346 0.0596510666 0.076605613493 0.099328373076 0.12234320931 0.14754862044 0.17302812882 0.20074258406 0.22807488724 
0.25199966795 0.27461400205 0.28436213295 0.29236629637 0.28136121423 0.26925368685 0.24367182875 0.21786375896 0.18891700192 
0.1602898212 0.1367758617 0.11381249895 0.10121870835 0.089296050734 0.092675225273 0.096537957177 0.11430296333 0.13233991983 
0.16089229009 0.18958051751 0.22621638818 0.26144588228 0.13072294114 0 
Torsion 1 240 double
0 0 0 0.0050155584215 0.010073621575 0.027669037745 0.045478767642 0.077943061482 0.11078635267 
0.16235559577 0.21457617633 0.28642897616 0.35914283823 0.43410009092 0.5091764617 0.54120444123 0.5705418963 0.54272124841 
0.51078109761 0.46832333485 0.42500504021 0.40958637591 0.39672731072 0.42714460099 0.4619696682 0.55560431755 0.65583443406 
0.76323173162 0.87150802309 0.73837488852 0.57305383048 0.067451525592 -0.48722980529 -0.98713083278 -1.4785222986 -1.0302245701 
-0.42531197582 -0.1469696671 0.073171996686 0.19709223849 0.30273041012 0.40084792532 0.49744611598 0.56748574901 0.63183426256 
0.61108954581 0.57104533354 0.48347561915 0.38451958654 0.29633198495 0.21086482909 0.14081705251 0.07487017468 0.014093097858 
-0.045238658251 -0.098693361555 -0.15042327762 -0.17284553587 -0.18625005326 -0.15497207717 -0.10929640875 -0.064912443455 -0.020963883716 
0.01353080748 0.044695158619 0.11917465502 0.20958615887 0.45863966963 0.76856743884 2.1143293533 3.8744249257 3.1506387902 
1.3919019429 0.6872286171 0.43973946927 0.34479454186 0.31868054318 0.31058516504 0.31094296691 0.29547688633 0.27229666305 
0.21881271245 0.14998510246 0.062210576632 -0.035523225478 -0.11296779744 -0.1793455166 -0.18676136962 -0.16081721943 -0.0869804418 
0.01495334393 0.13860605421 0.2754662186 0.37605719962 0.45379362674 0.37393374495 0.19119849486 -0.14012893746 -0.57191305636 
-0.8107740148 -0.91458876092 -0.81635225735 -0.57170180472 -0.41366870948 -0.32059863229 -0.2735649956 -0.26226113364 -0.26901440094 
-0.29026809022 -0.31715695997 -0.34872736428 -0.3739156982 -0.39361944039 -0.39905025683 -0.39179402816 -0.37444077868 -0.34780478428 
-0.32474085286 -0.30507330919 -0.30490438484 -0.32390910282 -0.42258757653 -0.60229020861 -1.1411516021 -2.0577489344 -2.115563018 
-1.2392619889 -0.64013287836 -0.35282217609 -0.16795462767 -0.1022936583 -0.061063091684 -0.049239491361 -0.048367049525 -0.061131899391 
-0.077123259898 -0.09727185527 -0.11239968613 -0.12083316431 -0.1220560812 -0.1133284235 -0.10167176908 -0.085830833633 -0.069275611094 
-0.051663838901 -0.034502956785 -0.018032799897 0.0003904943621 0.021913332709 0.050128393555 0.089348442511 0.14245036608 0.21921457592 
0.33053270682 0.50292288424 0.67584528643 0.84974343402 0.89306665219 0.68797902906 0.48282682463 0.27754707215 0.1031936991 
-0.0077209469163 -0.10621005835 -0.17821316185 -0.247072209 -0.30896334749 -0.37162311971 -0.4360550197 -0.49824135235 -0.55503832339 
-0.5975578675 -0.60438384431 -0.59605631949 -0.54823785101 -0.49838793355 -0.44301501413 -0.39889503245 -0.38671887401 -0.39991660343 
-0.48839020015 -0.66535595347 -1.1169525376 -1.442960689 -1.3608064339 -1.1888621976 -0.7109669146 -0.30734759812 -0.16940770056 
-0.04797066706 0.011415597559 0.065032229957 0.095810734811 0.12341227042 0.13775341264 0.15075300057 0.15783755372 0.16315595614 
0.1602323219 0.1546568301 0.13595464346 0.10991157667 0.045232298525 -0.057184869922 -0.37135353397 -0.71490281581 -1.2347358044 
-1.5815214776 -0.81431505833 -0.11744595647 0.091751077982 0.28370788188 0.34636295665 0.40253270472 0.40582209666 0.40684259319 
0.38763210563 0.36861598638 0.35150821049 0.33559253334 0.33267073239 0.3313092084 0.34901773615 0.36912564057 0.42252489629 
0.47948066171 0.59334058227 0.70853649855 0.84889366751 0.98025653349 0.90654929164 0.82946602885 0.65532216389 0.48287957916 
0.37621982964 0.26908194723 0.13397329018 0 0 0 
FrenetTangent 3 240 double
-0.47846201938 -0.8591488867 0.1814863259 -0.47846201938 -0.8591488867 0.1814863259 -0.47846201938 -0.8591488867 0.1814863259 
-0.49687684737 -0.84971667773 0.17496396108 -0.51544773323 -0.84020453479 0.16838632198 -0.53680945606 -0.82793591471 0.16023548647 
-0.55821888551 -0.81562017536 0.15205775871 -0.5828587174 -0.79959504802 0.14115385543 -0.60758209418 -0.78347398823 0.13017944761 
-0.63518274231 -0.7628822012 0.11442068265 -0.66288346944 -0.74213491061 0.098495505256 -0.69178171834 -0.71679841011 0.074413259912 
-0.72073249013 -0.69126062848 0.049973248431 -0.74725854163 -0.66213441135 0.012550569824 -0.77365584692 -0.63281765782 -0.02556145394 
-0.79124358597 -0.60216689683 -0.082117033601 -0.80828072713 -0.57143276036 -0.13982533551 -0.80676799895 -0.54221547336 -0.21862496175 
-0.80391834326 -0.51310750883 -0.29894468344 -0.77244501906 -0.48808325386 -0.39281868744 -0.73862975835 -0.46339312057 -0.48780167818 
-0.67721025339 -0.44528599426 -0.57544657587 -0.61325824896 -0.42778281353 -0.66241825401 -0.54022477651 -0.41945613771 -0.72339171802 
-0.46626633973 -0.41206410591 -0.78171721579 -0.40316626172 -0.41469153993 -0.81293453901 -0.34128394358 -0.41844265237 -0.84111169313 
-0.29743549437 -0.43022778802 -0.85116791306 -0.25579874607 -0.44299822841 -0.85900175427 -0.22932720884 -0.45977161479 -0.85739101995 
-0.20487769977 -0.4770787273 -0.85452100888 -0.18846272028 -0.49326363554 -0.84891209416 -0.17320656717 -0.50928668739 -0.84290814526 
-0.15731433351 -0.51909206423 -0.83991611676 -0.14132329122 -0.52793158865 -0.83739195939 -0.11584298945 -0.52682908993 -0.84158981409 
-0.088781144441 -0.52406958736 -0.84690800414 -0.04525459638 -0.51033895004 -0.85732900936 0.0012062551949 -0.49465306098 -0.86865942719 
0.064991836385 -0.47169013557 -0.87649064481 0.1320691162 -0.44734457325 -0.88365701439 0.20818756763 -0.42511036472 -0.87717952458 
0.28613251837 -0.40330269232 -0.86794569953 0.36073328874 -0.39387873485 -0.8417179435 0.43461744903 -0.38710843057 -0.81184863083 
0.49679028737 -0.39676762832 -0.76812693592 0.5563069496 -0.41015310486 -0.72126346359 0.60111226787 -0.43671099681 -0.6649119291 
0.64239299332 -0.46642477995 -0.60628721306 0.66923050237 -0.50241954631 -0.54187579833 0.69241919884 -0.54000108737 -0.47600248079 
0.70355494295 -0.57720626197 -0.40717798097 0.71148511461 -0.61431133911 -0.33756859225 0.7107862754 -0.64665880268 -0.26583322849 
0.70767502455 -0.67767618072 -0.19350350612 0.69851485485 -0.70149155431 -0.11608233184 0.68757945898 -0.72319329615 -0.037166927115 
0.66953011582 -0.73427174413 0.055831146309 0.6492918658 -0.74208148632 0.15316234856 0.6105898186 -0.72647746921 0.2811178122 
0.56593832564 -0.70332901855 0.41894109339 0.46988648228 -0.61803635128 0.58697301511 0.35650867811 -0.51179619527 0.76518762466 
0.19438380776 -0.33889438203 0.87929023026 0.01508667546 -0.14250948499 0.97080792539 -0.12329075644 0.011953812899 0.9755563973 
-0.24661726406 0.15099767201 0.94838975262 -0.32198702122 0.22900304603 0.91481799726 -0.37895476948 0.28358667576 0.87878846688 
-0.4124845292 0.30475757665 0.85801201563 -0.43663909351 0.31256338602 0.84333679604 -0.44762127558 0.30205992237 0.84145943579 
-0.45311496506 0.28392759498 0.84491451692 -0.44821737347 0.25557172936 0.85588272675 -0.43881272022 0.222781558 0.87010964299 
-0.42017046302 0.18631283843 0.8869357916 -0.39736001866 0.14818428613 0.90493476457 -0.36733025552 0.1120409033 0.92202739384 
-0.33391365147 0.076828834551 0.93869482482 -0.29631262203 0.046886659209 0.95276887926 -0.25667168523 0.019513556904 0.96557866263 
-0.21592930996 -0.0025453338609 0.97542227719 -0.17462924431 -0.021913484605 0.98376403412 -0.13452470066 -0.038327035947 0.98936394191 
-0.095048572415 -0.053187528628 0.9935226213 -0.057998914571 -0.067976783899 0.9953386705 -0.022272786038 -0.082727182401 0.99587692141 
0.010749198445 -0.098863878503 0.99447820176 0.042241206688 -0.11578492719 0.99198356456 0.071275465783 -0.13311699121 0.9880538339 
0.098867845379 -0.1506901842 0.98328218175 0.12432432497 -0.16609957246 0.97788092158 0.14848194645 -0.1801931335 0.97209679166 
0.17071654803 -0.19019100709 0.9665573704 0.19173938366 -0.19760803653 0.96117214913 0.21102336688 -0.2014268257 0.95634615314 
0.2291722659 -0.20289676358 0.951885207 0.24595918733 -0.20376327607 0.9475001685 0.26182533518 -0.20422183901 0.94316644784 
0.27695223444 -0.20836175884 0.93788986736 0.29156165968 -0.2150786285 0.931953285 0.3059221629 -0.2295337966 0.92365738942 
0.32010228784 -0.24959642734 0.91365184658 0.33353327677 -0.27990697418 0.89935204344 0.3464024137 -0.3179034581 0.88183154509 
0.35618795649 -0.36593628067 0.85788040928 0.36358026203 -0.4217585004 0.82893833098 0.36399692215 -0.48383488313 0.79266993407 
0.35881192761 -0.55093354827 0.75051828132 0.34323796565 -0.6178340215 0.70306155297 0.31903316922 -0.68456984298 0.65119753107 
0.28384869882 -0.74503250355 0.59842725629 0.2392285711 -0.80010416646 0.54487817045 0.18638735274 -0.84551637481 0.49469532705 
0.12623849825 -0.88234240133 0.44750469916 0.062784737497 -0.90911803639 0.40605980469 -0.0037074048269 -0.92665379543 0.36989727805 
-0.068076242147 -0.93612490763 0.34002148184 -0.1304261993 -0.93792799495 0.3161232326 -0.18636291021 -0.93510392711 0.29803346414 
-0.23599326232 -0.92772982337 0.28565536843 -0.27699081042 -0.91925537108 0.27819713826 -0.30920923581 -0.90966192027 0.27574216118 
-0.33245434031 -0.90132161564 0.27729217359 -0.34626198663 -0.89429927512 0.28305433012 -0.35192234619 -0.88925385015 0.2919803961 
-0.3487207447 -0.88635875438 0.30434790742 -0.33886254116 -0.88485229874 0.31902195664 -0.3215156603 -0.88490806325 0.33629086098 
-0.29937210936 -0.88517217083 0.35496776535 -0.27164697871 -0.885678714 0.37528306974 -0.24083580462 -0.88537303896 0.3961601764 
-0.20630994862 -0.88408969387 0.41771352652 -0.16961253294 -0.88147552446 0.43911904752 -0.13021091087 -0.87720410213 0.46034047941 
-0.088435974767 -0.87136788732 0.48084436115 -0.04360311483 -0.86351549758 0.50042370711 0.0046713736586 -0.85370126262 0.51864559691 
0.057534700217 -0.84127123403 0.53505754518 0.11496135386 -0.8259509001 0.54913716895 0.17868539887 -0.80664194479 0.55999818491 
0.24689924237 -0.78300426631 0.56718291729 0.3215270837 -0.7531826976 0.56911581596 0.39813436585 -0.71803726734 0.56617232421 
0.47766957086 -0.67501695856 0.5560158383 0.55459806404 -0.62761462806 0.54125960946 0.62753329655 -0.5734994132 0.51945696591 
0.69398116912 -0.51818545416 0.49533878014 0.75013388351 -0.46096914025 0.46754592956 0.79894345787 -0.40592343108 0.44049863656 
0.83567764639 -0.3544471608 0.4146773716 0.86655176413 -0.30684338067 0.39173342519 0.88743712483 -0.26584043603 0.37369399904 
0.90440300199 -0.22877725984 0.35927526323 0.91444141983 -0.19867739534 0.35125588709 0.92195249206 -0.17171139849 0.34676871307 
0.92483009731 -0.15049082566 0.34875724293 0.92596332261 -0.13131821752 0.3537582547 0.92377797142 -0.11604173736 0.36449032961 
0.92027697825 -0.101663067 0.37745834672 0.91417759216 -0.089057570975 0.39484234969 0.90705535917 -0.07633310213 0.41355887519 
0.89783497871 -0.063364586466 0.43500878026 0.88793327397 -0.049507830129 0.45678018687 0.87657927274 -0.033757718672 0.47923689942 
0.86500359617 -0.016709356659 0.50098717182 0.85293663908 0.0032162092899 0.5211718201 0.84120708536 0.024436002819 0.53971908403 
0.83025543382 0.048639709937 0.55449126736 0.8202118387 0.07374835804 0.56690761107 0.812347579 0.10102886451 0.57366993969 
0.80579694635 0.12860937348 0.57770825767 0.80253038136 0.15693988874 0.57493654903 0.80068084487 0.18485238991 0.56948989137 
0.80252417056 0.21167552103 0.55707215445 0.80551843254 0.23734105071 0.54255232412 0.81164180255 0.25985935147 0.52231742731 
0.81837699761 0.28064878778 0.50108278246 0.82684898634 0.29653047986 0.4770101432 0.83539817262 0.31033965042 0.45333790168 
0.84417637829 0.31800034044 0.43085350679 0.85267377719 0.32353481175 0.41005218657 0.86029970683 0.32247067327 0.39447420148 
0.86746804873 0.31927853392 0.38143779528 0.87314923054 0.30917039178 0.37666152049 0.87824407751 0.29680225068 0.37470704278 
0.88134104282 0.27673337242 0.38236757734 0.88361458443 0.25409925223 0.39257720182 0.8829428028 0.22228945901 0.41190472488 
0.88104010851 0.18751412715 0.43301455776 0.87450918264 0.14158836997 0.46082587559 0.86626595155 0.092563221684 0.4891139034 
0.85124484569 0.031269650222 0.51928890823 0.83422794262 -0.032516749853 0.54831047584 0.80888075559 -0.10670799979 0.57251769682 
0.78185108971 -0.18174728613 0.59425978872 0.74740322165 -0.26052564208 0.60513290247 0.7123356625 -0.33809237119 0.61329213518 
0.67437621165 -0.41000484176 0.60878658967 0.63702968166 -0.47927654414 0.60256027276 0.60271710999 -0.53547644405 0.5878161374 
0.56972599128 -0.58873276136 0.57280487653 0.54368988811 -0.62649653875 0.55638769191 0.51893994876 -0.66176168045 0.54085897906 
0.50140681745 -0.68300669967 0.53031558003 0.48458836673 -0.70243000817 0.52125341485 0.47205799959 -0.71092305233 0.52107865271 
0.45942452167 -0.71828115057 0.52242279672 0.44612726813 -0.71833303444 0.53354489904 0.43187607557 -0.71787479841 0.54583266233 
0.41101090581 -0.71387973106 0.56620234168 0.38852325895 -0.70992369725 0.58707161481 0.35386703377 -0.70626041501 0.61168784132 
0.31728658572 -0.70303809671 0.63592973257 0.26501632051 -0.70341133044 0.6571193517 0.21109565255 -0.70434253759 0.67706154606 
0.14245889347 -0.71024900771 0.68588086966 0.073072461694 -0.71652935258 0.69294077449 -0.0036743929984 -0.72648046778 0.68272638587 
-0.079999469067 -0.73653088491 0.67091932556 -0.15172715814 -0.74766369322 0.64175214373 -0.22222198739 -0.75875954946 0.61171376293 
-0.27764853002 -0.76940376928 0.57102739476 -0.33167709483 -0.78003148062 0.53022195875 -0.36630871739 -0.79043013697 0.48776445632 
-0.39978192411 -0.80087290526 0.44562243786 -0.41472047729 -0.81202146452 0.40852816275 -0.42881317056 -0.82324158798 0.37188493478 
-0.42697550214 -0.83580950395 0.34373642815 -0.42451800514 -0.84844093819 0.31601699239 -0.40792841662 -0.86252058869 0.2980803727 
-0.39084841166 -0.87662746976 0.28049760409 -0.35966893414 -0.89151722974 0.27308805366 -0.32807561326 -0.9063754734 0.26594516846 
-0.2804803488 -0.92001508599 0.26911333843 -0.23256052295 -0.93355642498 0.27245218296 -0.16565385582 -0.94134875755 0.28577548873 
-0.099309429583 -0.94907560833 0.29898683394 -0.099309429583 -0.94907560833 0.29898683394 -0.099309429583 -0.94907560833 0.29898683394 

FrenetNormal 3 240 double
-0.85944488581 0.41579682274 -0.29743485076 -0.85944488581 0.41579682274 -0.29743485076 -0.85944488581 0.41579682274 -0.29743485076 
-0.84877675911 0.43442903534 -0.30061004715 -0.83801822456 0.45321914805 -0.30381215198 -0.82301593574 0.47296053458 -0.31342507433 
-0.80794110412 0.4927181822 -0.32314758331 -0.78563484997 0.51163191668 -0.3458422982 -0.76314157627 0.53052382582 -0.36887250117 
-0.72808032981 0.54434655143 -0.41249238338 -0.69258193648 0.55799295762 -0.45682842836 -0.63535405201 0.55867155046 -0.52530008745 
-0.57717311969 0.55878137957 -0.59483032611 -0.48539988677 0.53499532602 -0.67928539503 -0.39184299187 0.50994046454 -0.76453293281 
-0.26277352523 0.45916158131 -0.83388102004 -0.13148452285 0.40677494673 -0.90223539161 0.016195633206 0.34838385268 -0.92322873082 
0.16505713367 0.2895600048 -0.9408086623 0.30768511748 0.24307763707 -0.90690487209 0.44980308628 0.19760502681 -0.86878877738 
0.56903871203 0.15972948181 -0.79330838541 0.68617504024 0.12255091528 -0.71440007626 0.77064614688 0.073140654245 -0.61805703409 
0.85179024021 0.022484572468 -0.51993823207 0.8967754657 -0.065429088755 -0.4116224958 0.93770549106 -0.1575211701 -0.30216317811 
0.91748469251 -0.29829522535 -0.1702266795 0.88976426461 -0.44503971137 -0.035533545486 0.79233188202 -0.56764691733 0.092264579031 
0.68560457213 -0.68703581928 0.21914336895 0.6645840374 -0.70018143427 0.25930098303 0.65592505678 -0.69800349824 0.28695073521 
0.79508493396 -0.48015307359 0.14777647273 0.95720696381 -0.22880012643 -0.017312199807 0.9600997302 -0.00077913720696 -0.13103719099 
0.93645428602 0.22335319236 -0.23620156861 0.92547118774 0.29827880036 -0.22639592519 0.91674474516 0.34661311144 -0.19610057506 
0.92695315835 0.34510672043 -0.11695997017 0.94075919415 0.33413059601 -0.028538766888 0.94608730488 0.2792624686 0.089240248906 
0.94970270348 0.21552726988 0.21295013592 0.915665475 0.1053231119 0.34314612183 0.87355982644 -0.014838680199 0.47473198608 
0.78051349034 -0.14226432356 0.57836463714 0.67591359625 -0.27133743835 0.67565738418 0.55364646839 -0.35813467803 0.7358355929 
0.42714656577 -0.43480332263 0.78712177681 0.31451431999 -0.46520789792 0.81979482293 0.20538548226 -0.48392470834 0.84776560267 
0.11736977428 -0.47077722774 0.8701648016 0.034969260397 -0.44915520166 0.89108219712 -0.026883796574 -0.40407926815 0.91107038599 
-0.082992403223 -0.35244632825 0.93079879666 -0.12370597522 -0.28006872787 0.94808493844 -0.15990143922 -0.20160302063 0.9646543274 
-0.19525296987 -0.1043135332 0.96938994577 -0.23034482872 -0.0012321134107 0.97048440395 -0.28775583209 0.12139171939 0.93864969969 
-0.35235855982 0.25031255194 0.89620448753 -0.44175759859 0.39657290501 0.77119152273 -0.53951494446 0.54867804028 0.6183467312 
-0.59943322245 0.64826054794 0.38236777227 -0.6460218288 0.72934076633 0.11710291346 -0.65167267146 0.73029793411 -0.091276136738 
-0.64226594589 0.70178455454 -0.27873167112 -0.66419638164 0.62533011166 -0.39002204794 -0.6981515421 0.53047967936 -0.47208625963 
-0.75231423513 0.14991196021 -0.41049422868 -0.8145599412 -0.34494267369 -0.29143970067 -0.51285418089 -0.64631669844 -0.04359837908 
-0.059501976247 -0.86707380271 0.25790410651 0.17950740654 -0.90226492476 0.36323961599 0.32554881841 -0.85696959669 0.3834906539 
0.43741007019 -0.80961514125 0.37725380286 0.53384856679 -0.76133156736 0.35906509948 0.62082937885 -0.70228230071 0.33267581272 
0.70337325247 -0.63818246215 0.30243933869 0.77227495293 -0.56757984644 0.26812561989 0.83452609398 -0.49380712688 0.23182424426 
0.87787669605 -0.43223937635 0.19321633957 0.91165740497 -0.37685135699 0.15344057208 0.92809047974 -0.35264040476 0.11253242875 
0.9354049263 -0.34481739807 0.071029062236 0.92733738473 -0.36863813595 0.028864589691 0.91087966781 -0.40971909814 -0.013660486144 
0.8861526586 -0.45550380047 -0.05485649155 0.85674697085 -0.50394982947 -0.095300522899 0.83811731289 -0.52821961987 -0.13162412553 
0.82580959241 -0.53830601697 -0.16553040997 0.83706482968 -0.50853671922 -0.19279207143 0.86264889259 -0.45453085028 -0.21601308377 
0.89754640474 -0.35661683667 -0.22866231371 0.93831266571 -0.23103467709 -0.23464987255 0.95958981643 -0.11444562866 -0.2358293781 
0.96814490908 -0.0037270833427 -0.23387029331 0.96535730508 -0.0015609676369 -0.25092716603 0.95490139911 -0.07278240998 -0.28083989735 
0.88228157112 -0.2454002827 -0.31519390644 0.76614699771 -0.4889956567 -0.35265680999 0.62839045342 -0.65984389399 -0.37233768166 
0.47496581428 -0.77797681484 -0.37913302299 0.35307455344 -0.84357670728 -0.39356610103 0.25483332633 -0.86977682841 -0.4137274816 
0.16327849939 -0.87785056235 -0.44228718687 0.076913117369 -0.8718560555 -0.4773649949 -0.015834776081 -0.85258220881 -0.5131659314 
-0.11370801962 -0.82264464982 -0.54954756197 -0.21957316186 -0.77847000289 -0.57692464502 -0.33207772763 -0.72246762136 -0.59682102708 
-0.44492413288 -0.65219003636 -0.60092140467 -0.55806430642 -0.56964469836 -0.59144709093 -0.65977291843 -0.47711406008 -0.56684607175 
-0.7513201424 -0.37570759931 -0.52879909218 -0.82402533939 -0.27283057075 -0.48335837817 -0.87940802771 -0.16860156858 -0.43112019861 