# vtk DataFile Version 5.1
vtk output
ASCII
DATASET POLYDATA
POINTS 240 float
0 0 0 -0.260473 -0.159843 0.0263936 -0.520945 -0.319686 0.0527872 
-0.763302 -0.505097 0.0839496 -1.0055 -0.690724 0.115152 -1.22816 -0.898086 0.154007 
-1.45049 -1.10582 0.192993 -1.65361 -1.33054 0.241384 -1.85624 -1.5557 0.290018 
-2.04158 -1.79313 0.348282 -2.22632 -2.03099 0.406882 -2.39728 -2.27694 0.473395 
-2.56763 -2.52324 0.540256 -2.72821 -2.77472 0.611899 -2.88827 -3.02648 0.683795 
-3.0427 -3.28163 0.756036 -3.19678 -3.537 0.828299 -3.34907 -3.7949 0.895077 
-3.50124 -4.05299 0.96146 -3.65481 -4.31326 1.01443 -3.80849 -4.57372 1.06631 
-3.96586 -4.83545 1.09379 -4.12358 -5.0973 1.11903 -4.28508 -5.35716 1.10534 
-4.44696 -5.61682 1.08769 -4.60805 -5.86626 1.01524 -4.76906 -6.11456 0.936641 
-4.91891 -6.3402 0.79604 -5.06739 -6.56307 0.647836 -5.19443 -6.75591 0.447993 
-5.31861 -6.94474 0.241264 -5.41767 -7.10649 0.00121925 -5.51311 -7.26435 -0.243631 
-5.58437 -7.40264 -0.507539 -5.65187 -7.53789 -0.774407 -5.69743 -7.66078 -1.05154 
-5.73933 -7.78161 -1.33038 -5.76084 -7.89541 -1.61433 -5.77871 -8.00795 -1.89918 
-5.77732 -8.11731 -2.18571 -5.77227 -8.22606 -2.47256 -5.74824 -8.3343 -2.75851 
-5.72037 -8.44244 -3.04428 -5.67369 -8.55195 -3.32691 -5.62298 -8.66175 -3.60887 
-5.55323 -8.77417 -3.88551 -5.47916 -8.88717 -4.16095 -5.38589 -9.00345 -4.4289 
-5.28801 -9.12051 -4.69505 -5.17115 -9.24091 -4.95165 -5.04949 -9.36216 -5.20584 
-4.90981 -9.48636 -5.44886 -4.76533 -9.61134 -5.6889 -4.60468 -9.7386 -5.91695 
-4.43952 -9.8665 -6.14166 -4.26098 -9.99608 -6.35467 -4.07852 -10.1262 -6.56426 
-3.88614 -10.2577 -6.76371 -3.69071 -10.3897 -6.96003 -3.48897 -10.5234 -7.14854 
-3.2852 -10.6578 -7.33453 -3.07848 -10.7948 -7.51528 -2.87077 -10.9326 -7.69426 
-2.66303 -11.0741 -7.87028 -2.45527 -11.2169 -8.04526 -2.24981 -11.3646 -8.21885 
-2.0452 -11.5141 -8.39193 -1.84462 -11.6697 -8.56429 -1.64558 -11.8276 -8.73638 
-1.45175 -11.9928 -8.90746 -1.26 -12.1609 -9.07814 -1.07409 -12.3375 -9.24658 
-0.890629 -12.5176 -9.41409 -0.713306 -12.7075 -9.57701 -0.538646 -12.9018 -9.73795 
-0.370307 -13.1078 -9.8904 -0.20482 -13.3191 -10.039 -0.0461121 -13.5447 -10.1723 
0.109416 -13.7769 -10.2984 0.256293 -14.0263 -10.3964 0.398952 -14.2839 -10.4807 
0.525759 -14.557 -10.5114 0.644539 -14.838 -10.515 0.729228 -15.1103 -10.4339 
0.795999 -15.3781 -10.3083 0.817038 -15.5972 -10.1114 0.813133 -15.7897 -9.87563 
0.775361 -15.9319 -9.61268 0.718427 -16.0456 -9.33435 0.639806 -16.1259 -9.05104 
0.54846 -16.1867 -8.76481 0.44159 -16.2259 -8.48085 0.32528 -16.2521 -8.19826 
0.196781 -16.2638 -7.9204 0.0606034 -16.2665 -7.64552 -0.0856704 -16.2593 -7.37621 
-0.238534 -16.2456 -7.11054 -0.399656 -16.2253 -6.85039 -0.566359 -16.2006 -6.59397 
-0.739577 -16.1719 -6.34243 -0.917355 -16.1404 -6.0943 -1.09967 -16.1072 -5.84975 
-1.28527 -16.0728 -5.6078 -1.47327 -16.0387 -5.36768 -1.66307 -16.0048 -5.12893 
-1.8529 -15.9731 -4.8899 -2.04275 -15.9432 -4.65066 -2.22992 -15.9176 -4.40889 
-2.41494 -15.8953 -4.16511 -2.59425 -15.8792 -3.91679 -2.76882 -15.8682 -3.66471 
-2.93459 -15.8652 -3.40686 -3.09281 -15.8691 -3.14405 -3.23994 -15.8821 -2.87558 
-3.37722 -15.9034 -2.60208 -3.50241 -15.9344 -2.32419 -3.61649 -15.9744 -2.04226 
-3.7192 -16.0241 -1.75788 -3.81109 -16.0828 -1.47116 -3.8933 -16.1509 -1.18383 
-3.96599 -16.2279 -0.895908 -4.03106 -16.3137 -0.608845 -4.08838 -16.4083 -0.322656 
-4.1399 -16.5111 -0.0383793 -4.18531 -16.6224 0.243888 -4.22626 -16.7415 0.523528 
-4.26238 -16.8689 0.800312 -4.2949 -17.0034 1.07402 -4.32336 -17.1459 1.34427 
-4.34857 -17.2949 1.61119 -4.37001 -17.4514 1.87425 -4.38819 -17.6137 2.13391 
-4.40244 -17.7829 2.38947 -4.41313 -17.9572 2.64166 -4.41938 -18.1379 2.88965 
-4.42158 -18.3229 3.13432 -4.41855 -18.5135 3.37473 -4.41085 -18.708 3.61181 
-4.39692 -18.9076 3.84448 -4.37772 -19.1104 4.07374 -4.35125 -19.3178 4.29832 
-4.31888 -19.5281 4.51924 -4.2781 -19.7425 4.73493 -4.23095 -19.9594 4.94659 
-4.17438 -20.1799 5.15227 -4.1111 -20.4026 5.3534 -4.03754 -20.6285 5.54756 
-3.95715 -20.856 5.73665 -3.86593 -21.0863 5.9177 -3.7679 -21.3178 6.09321 
-3.65866 -21.5513 6.25958 -3.54282 -21.7854 6.42013 -3.41571 -22.0205 6.57076 
-3.28225 -22.2555 6.7156 -3.13756 -22.4902 6.85024 -2.98675 -22.7237 6.97958 
-2.82467 -22.9551 7.0992 -2.65653 -23.1842 7.21437 -2.47682 -23.4088 7.32106 
-2.29094 -23.6297 7.42439 -2.09288 -23.8431 7.52107 -1.88853 -24.0511 7.61558 
-1.67131 -24.2481 7.70565 -1.44792 -24.4381 7.79473 -1.21135 -24.6129 7.8817 
-0.969224 -24.7792 7.96872 -0.714801 -24.9268 8.05584 -0.456002 -25.0651 8.14375 
-0.187115 -25.1823 8.23347 0.0846703 -25.2907 8.32436 0.363412 -25.378 8.41808 
0.643704 -25.4578 8.51308 0.927869 -25.519 8.61127 1.21265 -25.5743 8.71067 
1.49904 -25.6144 8.81322 1.78552 -25.6503 8.91686 2.07224 -25.6747 9.02344 
2.3588 -25.6962 9.13094 2.64492 -25.7096 9.24106 2.9308 -25.7211 9.35197 
3.21597 -25.7269 9.46519 3.50089 -25.7315 9.57905 3.78506 -25.7322 9.69491 
4.06901 -25.7321 9.81129 4.35225 -25.729 9.92937 4.6353 -25.7252 10.0479 
4.91769 -25.7185 10.1678 5.19992 -25.7108 10.2881 5.48152 -25.6995 10.4095 
5.76294 -25.6869 10.5312 6.04369 -25.6694 10.6539 6.32423 -25.6502 10.7767 
6.60394 -25.6243 10.9003 6.88338 -25.5966 11.0239 7.1617 -25.5606 11.1481 
7.43967 -25.5226 11.2723 7.71614 -25.4755 11.3969 7.99221 -25.4264 11.5214 
8.26644 -25.3681 11.6462 8.54026 -25.3081 11.771 8.81205 -25.2398 11.896 
9.08346 -25.1702 12.0212 9.35293 -25.0944 12.1469 9.62213 -25.0179 12.2728 
9.88975 -24.938 12.4 10.1572 -24.858 12.5275 10.4236 -24.7782 12.6572 
10.69 -24.6992 12.7875 10.9558 -24.6245 12.9213 11.2216 -24.5511 13.0559 
11.4872 -24.4871 13.1957 11.7526 -24.425 13.3365 12.0172 -24.3774 13.4843 
12.2815 -24.3323 13.6333 12.5433 -24.3074 13.7913 12.8044 -24.2854 13.9505 
13.0597 -24.2889 14.1205 13.3138 -24.2955 14.2917 13.557 -24.3323 14.4749 
13.7986 -24.372 14.6592 14.0229 -24.4441 14.8555 14.2452 -24.5188 15.0527 
14.4437 -24.6252 15.2607 14.6402 -24.7336 15.4693 14.8084 -24.87 15.6864 
14.9747 -25.0079 15.9038 15.1108 -25.1687 16.1267 15.2454 -25.3304 16.3497 
15.3509 -25.51 16.5749 15.4553 -25.6901 16.8 15.5336 -25.8841 17.0244 
15.6111 -26.0785 17.2487 15.6666 -26.284 17.4696 15.7217 -26.4897 17.6905 
15.7596 -26.705 17.9058 15.7972 -26.9205 18.1209 15.8226 -27.1451 18.3284 
15.8479 -27.3699 18.5357 15.8658 -27.604 18.7333 15.8837 -27.8381 18.9309 

LINES 2 240
OFFSETS vtktypeint64
0 240 
CONNECTIVITY vtktypeint64
0 1 2 3 4 5 6 7 8 
9 10 11 12 13 14 15 16 17 
18 19 20 21 22 23 24 25 26 
27 28 29 30 31 32 33 34 35 
36 37 38 39 40 41 42 43 44 
45 46 47 48 49 50 51 52 53 
54 55 56 57 58 59 60 61 62 
63 64 65 66 67 68 69 70 71 
72 73 74 75 76 77 78 79 80 
81 82 83 84 85 86 87 88 89 
90 91 92 93 94 95 96 97 98 
99 100 101 102 103 104 105 106 107 
108 109 110 111 112 113 114 115 116 
117 118 119 120 121 122 123 124 125 
126 127 128 129 130 131 132 133 134 
135 136 137 138 139 140 141 142 143 
144 145 146 147 148 149 150 151 152 
153 154 155 156 157 158 159 160 161 
162 163 164 165 166 167 168 169 170 
171 172 173 174 175 176 177 178 179 
180 181 182 183 184 185 186 187 188 
189 190 191 192 193 194 195 196 197 
198 199 200 201 202 203 204 205 206 
207 208 209 210 211 212 213 214 215 
216 217 218 219 220 221 222 223 224 
225 226 227 228 229 230 231 232 233 
234 235 236 237 238 239 
CELL_DATA 1
FIELD FieldData 3
Length 1 1 double
73.304442388 
Tortuosity 1 1 double
0.96927550515 
ClusterLabel 1 1 int
2 
POINT_DATA 240
FIELD FieldData 6
Curvature 1 240 double
0 0.084448269751 0.1688965395 0.16635284207 0.16307192457 0.155921214 0.14870435313 0.13838979745 0.12799512897 
0.11364050998 0.099148153569 0.083556631316 0.067916900035 0.052889747579 0.037895121433 0.036398789086 0.035746100102 0.05543409614 
0.076588087496 0.10801293224 0.14027811954 0.18251820773 0.22567342443 0.2760812772 0.32722782438 0.36507477866 0.40143018982 
0.39740293326 0.38842308538 0.35093291493 0.30964136814 0.26952323857 0.22957435188 0.20015004232 0.17236061853 0.15559248561 
0.1406612345 0.13212232127 0.12472263658 0.12248182957 0.12122120932 0.12184719859 0.1228543211 0.1257075773 0.12895643359 
0.1326390859 0.13642012494 0.13943558702 0.14226762962 0.14317444897 0.14359489614 0.14119076709 0.13803542096 0.13147373056 
0.12395972886 0.1131724599 0.10142455816 0.088283849774 0.074714585497 0.061947753146 0.049439482193 0.041641940523 0.035432285127 
0.03619833707 0.039421740462 0.045190948901 0.051896545404 0.058388110155 0.064797546444 0.071022608338 0.077173920473 0.084552661837 
0.092442832044 0.10409471497 0.11737818413 0.13869733516 0.16364234262 0.20492651189 0.25387596695 0.33860662284 0.44078061414 
0.58072475275 0.73979301658 0.81865396786 0.85535466511 0.77312168685 0.62601579469 0.49929213247 0.38410052139 0.30585681087 
0.24928920201 0.2094340514 0.17974188215 0.15753402805 0.14004231774 0.1248583381 0.11118079375 0.098478625101 0.086435865378 
0.073720244206 0.06053362002 0.047217682769 0.0338080404 0.026141090612 0.022781160261 0.030304799805 0.046275389118 0.064212182548 
0.083727897466 0.10278647489 0.12146527654 0.13676456818 0.14915959339 0.15750091748 0.16223895168 0.16235892326 0.15823325662 
0.15226732592 0.14455163595 0.13645465401 0.12798273497 0.1205808976 0.11426727887 0.10890259417 0.1045359263 0.10077221367 
0.097664347098 0.094899605072 0.09252087816 0.090239824721 0.088072427686 0.086203246735 0.084693029591 0.083603852236 0.083038988579 
0.083228425984 0.084389751293 0.085938699179 0.088004477166 0.090722962707 0.094342184672 0.098055131311 0.10190197034 0.10584164326 
0.10991863298 0.11363534606 0.11680014599 0.11980586037 0.12255911289 0.12469589937 0.1258189417 0.12640372354 0.12607101594 
0.12532708615 0.12385634503 0.12262394282 0.12182849528 0.1220557695 0.12422870949 0.12775809586 0.13396646383 0.14122103963 
0.15062168275 0.1595916655 0.16764366166 0.17406479108 0.1768715672 0.17724509328 0.17200862624 0.16470865852 0.15245628918 
0.13950505387 0.12480665362 0.1102797278 0.09619967471 0.082621279809 0.070406768095 0.059044219971 0.050100149134 0.041821109731 
0.035514996913 0.029896575894 0.026412370805 0.023553088674 0.022724806156 0.02250951482 0.024382934176 0.026741937542 0.030837837558 
0.035148999164 0.04026954435 0.045331100478 0.050159158249 0.054638659823 0.057663318138 0.060145869809 0.060238224007 0.059804495979 
0.05691571756 0.05344891198 0.047120871953 0.04046090079 0.03205392365 0.024179159217 0.01929069942 0.016500863972 0.026302774616 
0.0367709771 0.051528433298 0.06649102951 0.082875929821 0.099390697176 0.11687946736 0.13435031084 0.15167498267 0.16892393943 
0.18549777025 0.20162979004 0.21342402878 0.22475441992 0.23102887223 0.23665632567 0.23437601526 0.23171794805 0.2238185053 
0.21564311528 0.20305256904 0.19040778941 0.17674161423 0.16307192891 0.1493222126 0.13562272919 0.12336744172 0.11118201703 
0.10169795302 0.092289671826 0.087314685016 0.082036812329 0.041018406164 0 
Torsion 1 240 double
0 0 0 0.088231399764 0.17721052326 0.16964705964 0.16043329539 0.13875818612 0.11676080069 
0.074091591738 0.030703362835 -0.082988851353 -0.19976457367 -0.69084016871 -1.2017900933 -1.3928635392 -1.5639447052 -0.98780219003 
-0.3578057159 -0.1918268266 -0.06381301243 -0.017944566839 0.020387606406 0.038617774662 0.054800516484 0.068035682416 0.08094027909 
0.10040541559 0.1206751466 0.1521484993 0.18511566823 0.22348107386 0.26262507133 0.29766529585 0.33206804108 0.34446524882 
0.35319486699 0.34186704781 0.32696463585 0.29522942055 0.26029597262 0.22636231853 0.192630643 0.16120769573 0.13027947594 
0.10495916598 0.080910753096 0.062553739387 0.045560290064 0.034693805631 0.025375186012 0.022633799637 0.021641677422 0.029308571522 
0.039396265881 0.065678426136 0.096713310077 0.16517357258 0.24514933617 0.42415974326 0.63508131324 0.86960347059 1.1120808821 
0.96185177233 0.67328286528 0.42782128992 0.19821528484 0.055859267531 -0.0530171033 -0.13168260087 -0.19826374914 -0.2469916195 
-0.28828062407 -0.31042550806 -0.32426691807 -0.31771170736 -0.30195314339 -0.27157594011 -0.23434060973 -0.18410608184 -0.12753444515 
-0.081384772613 -0.040512043946 -0.010570217526 0.013625878226 0.046258245416 0.083492215209 0.1263882546 0.17248783338 0.1996352779 
0.21566413699 0.22132962162 0.22069305421 0.21649666682 0.2100571052 0.20587480409 0.2031659925 0.20724175769 0.21590427901 
0.25821008081 0.32406617894 0.60215003769 1.0340221288 1.524969937 2.0602245332 1.7670423008 0.8308941716 0.33748733997 
0.19961518667 0.11164126051 0.065121246133 0.028758119 0.001123566844 -0.025086167918 -0.050029398331 -0.076754448657 -0.10511762374 
-0.13320017315 -0.16101589814 -0.1844345098 -0.20352929334 -0.21197312252 -0.20958547269 -0.19641338463 -0.17189904259 -0.14058465331 
-0.10187372142 -0.061502465538 -0.019263345168 0.02170994674 0.061210274621 0.096953920683 0.12817563492 0.15273260773 0.16899009121 
0.17658558317 0.17302043222 0.16396006184 0.1475727322 0.12823053584 0.10481062343 0.082547127826 0.061935656232 0.04382535473 
0.029414700654 0.01843219435 0.012701318674 0.010489027621 0.013860577383 0.021893842968 0.037593041242 0.059609029156 0.092392272141 
0.13077949081 0.17907141067 0.22791932923 0.2777865787 0.31893554205 0.34349849764 0.35524651708 0.3416850376 0.32103701542 
0.2858524954 0.25142640614 0.21861697192 0.18870063965 0.16519604683 0.14482158216 0.13166380187 0.12088125669 0.11579927575 
0.11232014609 0.11284814463 0.11481810571 0.12054590855 0.12784389372 0.13941081208 0.15066390317 0.16102612979 0.16702547313 
0.16008159607 0.13828640589 0.070400933617 -0.0064925129982 -0.11266187623 -0.20033193019 -0.22496730066 -0.23519685781 -0.19389792886 
-0.15339708673 -0.11589705107 -0.081322537985 -0.058328218432 -0.036867619514 -0.021808637156 -0.0067716939148 0.008168076857 0.024810078658 
0.04939582526 0.08084077467 0.14623877798 0.24837034705 0.54383647274 0.93499398148 1.8630864728 2.5069444848 1.44539562 
0.49960345923 0.29899508019 0.11685213862 0.062736230246 0.012247352824 -0.011038792437 -0.033266245686 -0.046861287141 -0.060004613953 
-0.069120151867 -0.078020009783 -0.084802282255 -0.091149649609 -0.09275655117 -0.093840986475 -0.088539723088 -0.08254804798 -0.066976910243 
-0.050986427937 -0.028286432521 -0.0052461377356 0.024203128528 0.05425518265 0.098050799963 0.14258781338 0.20843996487 0.27458145345 
0.35191064341 0.42435909372 0.21128427451 0 0 0 
FrenetTangent 3 240 double
-0.82048301829 -0.56388792442 0.094010772732 -0.82048301829 -0.56388792442 0.094010772732 -0.82048301829 -0.56388792442 0.094010772732 
-0.78969345742 -0.60244100144 0.10415094407 -0.75864296806 -0.64132079946 0.11437704907 -0.72640645225 -0.67346013548 0.12845587812 
-0.69414966249 -0.70548424993 0.1426005657 -0.66345867832 -0.73001086313 0.15845772236 -0.63280818912 -0.75434357543 0.17435916702 
-0.60633699462 -0.77159994521 0.18915693485 -0.58001116689 -0.78861018134 0.20391631391 -0.55963011233 -0.80000520813 0.2148416023 
-0.53950979344 -0.81115395381 0.22559872882 -0.52590535911 -0.81862389021 0.23028117054 -0.51264690094 -0.8258984916 0.23464106262 
-0.50583868635 -0.83115762846 0.23068689163 -0.49943361199 -0.83629079878 0.22621309169 -0.49877488871 -0.8406048362 0.21051225646 
-0.49853031687 -0.84485983702 0.19400226554 -0.50288816512 -0.84836923786 0.16194282275 -0.50762257501 -0.85181763507 0.12861115208 
-0.51461566363 -0.85231394488 0.074092549507 -0.52181597048 -0.85253942099 0.017630191707 -0.52575504276 -0.84387534074 -0.064551525805 
-0.52936195226 -0.83430584272 -0.14935280773 -0.52059360524 -0.80740554382 -0.25431902729 -0.51043737899 -0.77856160371 -0.36154673518 
-0.48229091685 -0.73176159099 -0.46657068686 -0.45193810502 -0.68275941842 -0.57132436656 -0.40950582471 -0.62917460194 -0.65235988947 
-0.36546294861 -0.57497876627 -0.73023299146 -0.31918826497 -0.52938686965 -0.78197431352 -0.27259168602 -0.48503592577 -0.82994662885 
-0.2285076736 -0.45274783744 -0.85981170788 -0.18481396279 -0.42233359074 -0.88686401232 -0.14397346866 -0.40207376277 -0.90302667733 
-0.10360851064 -0.38350633791 -0.91737440243 -0.065136015868 -0.37233121034 -0.92496464452 -0.027000791775 -0.3624735219 -0.9313505827 
0.010297073191 -0.35788802648 -0.93297542753 0.047435839924 -0.35430424775 -0.93369566463 0.084526114243 -0.35441811071 -0.93052747272 
0.12160659211 -0.35527897199 -0.9265737396 0.15905441886 -0.35870115946 -0.91900914408 0.19658096322 -0.36267220255 -0.91067079232 
0.23475248533 -0.36822764466 -0.89870939255 0.27307029106 -0.374142435 -0.88592627054 0.31167414582 -0.38070486249 -0.86956427103 
0.35034653317 -0.38742245305 -0.85234483212 0.38836914526 -0.39391550933 -0.83195032503 0.4262276036 -0.40035184116 -0.81075369544 
0.46207149242 -0.40594881852 -0.78734590391 0.49737959146 -0.41132256331 -0.7633500374 0.52915114271 -0.41569103003 -0.73870456682 
0.55993398167 -0.41977845127 -0.7138774865 0.58584101998 -0.42321790439 -0.69034994412 0.61031711679 -0.42646719295 -0.66720378787 
0.62922979754 -0.42984121736 -0.64704070308 0.64643065797 -0.43325362203 -0.62779548645 0.65811352585 -0.43763829228 -0.61241850523 
0.66801837389 -0.44233624809 -0.59828795542 0.67291572757 -0.44863882925 -0.58802906669 0.67612516178 -0.45548229535 -0.57907523225 
0.67511204907 -0.46426657001 -0.57320926886 0.67261144823 -0.47373453861 -0.56843107822 0.66678431253 -0.48525960779 -0.56544625069 
0.65973362377 -0.49754131168 -0.56312105096 0.65025979939 -0.51188351052 -0.56108884115 0.63985616715 -0.52701636441 -0.55916905769 
0.62788443894 -0.54422111999 -0.55598976937 0.61528547234 -0.56225463624 -0.5523066791 0.60182327334 -0.58257969117 -0.54567466607 
0.58800139416 -0.60385955388 -0.53781393523 0.57371341771 -0.62804038816 -0.5248067714 0.55922327859 -0.65347947517 -0.50956741975 
0.54418407022 -0.68289697397 -0.48549073973 0.5288971111 -0.71410960979 -0.4574264847 0.51185206136 -0.7504668315 -0.41319982512 
0.49398222837 -0.78923756264 -0.36139080292 0.46935889687 -0.8314471816 -0.27771842063 0.44144323483 -0.87533325836 -0.17851265031 
0.39284916754 -0.90227903613 -0.029060031775 0.33378502164 -0.92064744732 0.14583402889 0.24600139158 -0.87968585914 0.33920474521 
0.14312162241 -0.80753798924 0.54228754976 0.039812443831 -0.69413093633 0.69153575366 -0.063730958065 -0.55821887451 0.81141962995 
-0.14637866123 -0.43828112736 0.87761793453 -0.21720379801 -0.32738147929 0.91344150775 -0.27353568309 -0.24109377684 0.9276740092 
-0.32136486051 -0.16924508249 0.92923974854 -0.36195080052 -0.11265382497 0.92366503142 -0.39813206915 -0.0653407385 0.91374814484 
-0.43024371239 -0.027185186899 0.90129789933 -0.45979093416 0.0051998632791 0.88725129066 -0.48639583238 0.031435616544 0.87252439913 
-0.51108004717 0.053657245434 0.85735343406 -0.53305581626 0.071220920869 0.84266754887 -0.55320052347 0.085635557347 0.828309605 
-0.57047604163 0.096206818886 0.81543716416 -0.58574312745 0.10408771797 0.80360457545 -0.59778959628 0.10853519291 0.79418999936 
-0.60750228468 0.11049467936 0.78652760634 -0.61363285491 0.10923074671 0.78198369696 -0.61707683651 0.10554924975 0.77977865033 
-0.61642490988 0.098640830893 0.78114806447 -0.61259406941 0.089227935343 0.78529168699 -0.60406869025 0.076526998116 0.79299621414 
-0.59177345426 0.061185663787 0.80356025563 -0.57438551781 0.042628825016 0.81690580914 -0.55276672251 0.021400644094 0.83256215723 
-0.52654544189 -0.0024858746556 0.84925683083 -0.49636890045 -0.028656902475 0.8668438154 -0.46320591104 -0.056524476376 0.88338786973 
-0.42738830122 -0.08590009124 0.89900487494 -0.39100433685 -0.11586345782 0.91204523383 -0.3540996917 -0.14636717678 0.92271674047 
-0.3188526409 -0.17665616956 0.93034676115 -0.28518166342 -0.20674099646 0.93508487713 -0.25431433652 -0.23629643615 0.9371495631 
-0.2262039327 -0.26533131176 0.93658537622 -0.20103924912 -0.29376565064 0.93398039946 -0.17887021325 -0.32158927422 0.92930004314 
-0.15911177337 -0.34882982374 0.92315320856 -0.14188861547 -0.3754571402 0.91546404341 -0.12632510555 -0.40142094681 0.90676761591 
-0.11256682676 -0.42666304094 0.89697556972 -0.099673623058 -0.45113402306 0.88653652856 -0.087753628839 -0.47473750418 0.87536961803 
-0.076012542961 -0.49745248229 0.86384621757 -0.064479641333 -0.51913356602 0.85190799244 -0.052585387315 -0.53984951388 0.83983004391 
-0.040256172087 -0.55940372414 0.8275839098 -0.027172140374 -0.5779939923 0.81531083585 -0.01314814851 -0.59538387974 0.80300421418 
0.0019031295292 -0.61190259798 0.79064443855 0.018278026295 -0.62729884823 0.7782161761 0.035793247307 -0.64192643637 0.76561557827 
0.054828900647 -0.65552914173 0.75278519992 0.075025671974 -0.66847820839 0.73957291681 0.096824786124 -0.68052525365 0.72583360513 
0.11970772354 -0.69201661468 0.71145024048 0.14413897991 -0.70271414108 0.69614680016 0.16945478619 -0.71288294559 0.6799778684 
0.19607898918 -0.7222696823 0.66252873053 0.22330482183 -0.7310874548 0.64408616438 0.25145229991 -0.73903362253 0.62412175064 
0.27992019858 -0.74630387313 0.60316362812 0.30889659081 -0.7525014726 0.58062853294 0.33793960369 -0.75784788578 0.55727341 
0.36709217051 -0.76179457038 0.53256979695 0.39610825821 -0.76463538921 0.50747012558 0.42489171107 -0.76559120958 0.48169535478 
0.45352840417 -0.76510842014 0.45613482483 0.48190570791 -0.76208297151 0.43095295309 0.51030321481 -0.75724175232 0.40664875046 
0.53873776084 -0.74907162044 0.38395360787 0.567453173 -0.73868857312 0.36266357182 0.59670291583 -0.72409558913 0.34404666531 
0.62638295408 -0.70689728242 0.32716069873 0.65691282575 -0.68455346337 0.31369333852 0.68772810999 -0.65929421019 0.30207069415 
0.7191288559 -0.62805457932 0.29423208225 0.75019849822 -0.59397341185 0.28814681482 0.7805623671 -0.55383528478 0.28579893956 
0.80966783244 -0.51162055397 0.2848813592 0.83598440345 -0.46480362029 0.28713362156 0.86028847925 -0.41733407358 0.29031710455 
0.87995263552 -0.36835989127 0.29564756841 0.89742143155 -0.32037093676 0.30141216642 0.90962136299 -0.27474652894 0.3082186864 
0.92004771561 -0.2311965342 0.31510867158 0.92604012119 -0.19283257215 0.32220731975 0.93089889461 -0.15683449711 0.32921014892 
0.93280335394 -0.127002067 0.33596326793 0.93410761827 -0.099350356266 0.34254091052 0.93378010246 -0.077627476331 0.3486414766 
0.93319580101 -0.057636537745 0.35455078399 0.93188255968 -0.042562077829 0.35991716345 0.93049454521 -0.028705134012 0.36510101942 
0.92888470377 -0.018460154625 0.36974338899 0.92728254902 -0.0089576260048 0.37421491096 0.9257042495 -0.0017592549376 0.37815621621 
0.92415843462 0.0051653415521 0.38194750141 0.92271819482 0.011200170665 0.38525122143 0.9213045997 0.017380479358 0.38842504521 
0.91998179388 0.024056496251 0.39115625958 0.91865981075 0.031197675966 0.39377397607 0.91734077038 0.040002707315 0.39598571937 
0.91598161411 0.049437743352 0.39809417723 0.9144716221 0.061241597014 0.39981428178 0.91287249258 0.073672853853 0.40143880286 
0.91092052713 0.088587581603 0.40268497268 0.90884134269 0.10396318619 0.40384584128 0.90623115725 0.12126245064 0.40465066996 
0.90349136343 0.13872237565 0.40539413793 0.90018011451 0.15689066767 0.40586706093 0.89677889687 0.17488581021 0.40632781606 
0.89295782518 0.19207292179 0.40673178781 0.88912439487 0.20876153136 0.40719652338 0.88522978942 0.22298255595 0.40796203983 
0.88141282277 0.23643716937 0.40887459509 0.8780044814 0.24585803987 0.41056103876 0.87473590338 0.25433538376 0.41248401709 
0.87225155305 0.257518495 0.41573421766 0.86992206734 0.25963701179 0.41929814467 0.86852176935 0.25536796194 0.42474443033 
0.86722376921 0.24996095318 0.43056300448 0.86658431153 0.23722833392 0.43877818577 0.86591639786 0.22332989246 0.44739990263 
0.86505118936 0.2013484171 0.45884026614 0.86395349883 0.1782159668 0.47068858502 0.8611121931 0.14645120453 0.48559656917 
0.85778216287 0.11362629558 0.50086164763 0.85046714817 0.072157113653 0.51903841828 0.84239685291 0.029814977986 0.53746711288 
0.82759197262 -0.020310995198 0.55814212938 0.8118471649 -0.070961956081 0.57889915743 0.78687397873 -0.12676734164 0.6004613898 
0.76095743556 -0.18265115901 0.62191887944 0.72475830114 -0.2393898831 0.64223467343 0.68784130205 -0.29579682393 0.6622922558 
0.64215040153 -0.3481486359 0.67919391853 0.59610789133 -0.39994861412 0.69576231309 0.54518679704 -0.44409189898 0.7077066118 
0.49425446039 -0.48769340188 0.7193215622 0.44314224584 -0.52262639327 0.72566693966 0.39223081699 -0.55715065017 0.73174292609 
0.34510085228 -0.58397707395 0.73274538138 0.29824240444 -0.61055294886 0.73355496907 0.25757454111 -0.6314163095 0.72996717552 
0.21716956393 -0.65215611824 0.72624705965 0.18432256342 -0.6693438098 0.71872267678 0.15168634183 -0.68648966504 0.71110829556 
0.12720023806 -0.70201784951 0.70001397852 0.10285317493 -0.71754053356 0.68886378548 0.086639989653 -0.73274144245 0.67444484667 
0.070563049625 -0.74781461261 0.66014707542 0.070563049625 -0.74781461261 0.66014707542 0.070563049625 -0.74781461261 0.66014707542 

FrenetNormal 3 240 double
0.57159994985 -0.80662136855 0.15045087279 0.57159994985 -0.80662136855 0.15045087279 0.57159994985 -0.80662136855 0.15045087279 
0.60890863036 -0.76339652236 0.20118108934 0.64653348612 -0.71980536391 0.25234122298 0.67493478508 -0.67120639605 0.29778973608 
0.7031784164 -0.62252182461 0.34314061465 0.72298470997 -0.57507408465 0.37780860972 0.74257279653 -0.52765833171 0.41220032332 
0.75787664456 -0.49066865284 0.42785331867 0.77303147559 -0.45404162002 0.44285453252 0.79196970132 -0.44093443143 0.42106491809 
0.81107386541 -0.42885881496 0.39766167084 0.83258843963 -0.46935498804 0.2335601317 0.85423100023 -0.51264258358 0.061987886783 
0.58684020414 -0.4627806251 -0.38033047018 0.30138482326 -0.4070968195 -0.83957045915 0.10293106584 -0.29152194555 -0.92189419547 
-0.089252304312 -0.17163059821 -0.97705279647 -0.12578271599 -0.11321432521 -0.98383429149 -0.14957788562 -0.05982783102 -0.98665765966 
-0.12779241848 -0.0089123213074 -0.9901169502 -0.10182524155 0.041776492582 -0.99363458225 -0.049246104696 0.10636424695 -0.9893579732 
0.0060435095574 0.17236763415 -0.98428750627 0.080648979946 0.24983303683 -0.95823290377 0.15742071457 0.32858389919 -0.92982494027 
0.24271071868 0.39841922392 -0.87576893325 0.32904541622 0.46716113366 -0.81856741146 0.41281106142 0.50675437353 -0.74792553308 
0.49623416631 0.54246112408 -0.67549160715 0.57507097233 0.54308577098 -0.60247344727 0.65324629293 0.53865049909 -0.52937102287 
0.72563586866 0.5023547338 -0.45745353266 0.7971266879 0.46110976564 -0.3857201099 0.85542820748 0.39660827932 -0.3130298466 
0.91153151044 0.32823070664 -0.24018010988 0.94663379775 0.25231700851 -0.16825400851 0.9779933298 0.17506023851 -0.096492515422 
0.98949548622 0.10584881692 -0.029685676186 0.99722474127 0.038166011525 0.036179778819 0.99246186604 -0.014039718987 0.095500910859 
0.98517532812 -0.063118767705 0.15349995745 0.97202935179 -0.096103585037 0.20574351004 0.95762778151 -0.1256396385 0.25675374248 
0.94085646894 -0.14149117166 0.30373599784 0.92354768904 -0.15423899919 0.34980469138 0.90507483025 -0.15632444635 0.39284291038 
0.88632307756 -0.15585536487 0.43515507819 0.86639956599 -0.1484492833 0.47473909467 0.84618003112 -0.13929069643 0.51363389396 
0.82450586916 -0.12755095314 0.54964378978 0.80244483829 -0.11512473207 0.58488642404 0.77881795808 -0.10520382131 0.61708641169 
0.75475331353 -0.095983319883 0.64843576696 0.72818003366 -0.096974316073 0.67739205363 0.70087052386 -0.10096216482 0.70564602668 
0.66516766647 -0.12976507184 0.73304558102 0.62688224059 -0.16620338141 0.76018223729 0.55400876575 -0.25820454297 0.77974599943 
0.4699902529 -0.36810929018 0.79686960679 0.28443327004 -0.538632023 0.73616077592 0.064649836611 -0.72958778466 0.64921629173 
-0.1470247231 -0.81519931125 0.4872351925 -0.35584274775 -0.86370093683 0.29882074023 -0.46171095493 -0.85985249328 0.19349403462 
-0.52971256258 -0.83674885187 0.11872833927 -0.55901214302 -0.82258227946 0.10259199638 -0.57346094558 -0.81184504748 0.10895296316 
-0.56951396153 -0.80719396499 0.14695759162 -0.55820866284 -0.80497734229 0.19761968476 -0.53239028765 -0.79951677392 0.26644307586 
-0.50052479727 -0.79270456153 0.34283367446 -0.45891866987 -0.77439498361 0.42510176406 -0.41308768788 -0.75109859655 0.50991912687 
-0.36701760583 -0.71215859085 0.59046354906 -0.32083963716 -0.66615987917 0.66907993705 -0.28737465684 -0.60246775121 0.73841985686 
-0.25987379451 -0.5304750082 0.80340785332 -0.25634168902 -0.43096923289 0.85728209488 -0.26449435249 -0.31805085434 0.90573838093 
-0.30043833002 -0.16052895264 0.92345881881 -0.35045385898 0.019577011407 0.92561680194 -0.40070530886 0.21977248053 0.8605563253 
-0.45108076845 0.4305278177 0.76016306854 -0.48147692147 0.58874440045 0.61869583021 -0.50097527092 0.71830348079 0.45482460194 
-0.51777004472 0.78716035715 0.3068191559 -0.53303516389 0.82167256546 0.16779040245 -0.55215850746 0.82632406082 0.052000970721 
-0.57354534269 0.81345727125 -0.050154725603 -0.59523356912 0.78757096655 -0.13716106521 -0.61710507397 0.75376738913 -0.21495495817 
-0.63711070421 0.71346558635 -0.28259134593 -0.65594057785 0.66906901143 -0.34382711399 -0.67225149466 0.62137979903 -0.39712426781 
-0.68691809243 0.57154122607 -0.44523927068 -0.7004305745 0.51810949743 -0.48685484688 -0.71316280933 0.46224859314 -0.52407644449 
-0.72805983236 0.39393887621 -0.55579760447 -0.74447220713 0.31691499044 -0.58366845811 -0.7628175374 0.17322069335 -0.59768747643 
-0.78256356006 -0.018785496013 -0.60166893294 -0.56971623186 -0.35468580029 -0.39699868266 -0.18242389052 -0.79850669076 -0.035839652308 
0.12430709922 -0.92551504553 0.21444724241 0.36851286086 -0.80663904422 0.37868412141 0.51017155624 -0.72407451202 0.45846457525 
0.56948184994 -0.67066918985 0.47042396039 0.61508557775 -0.63506666394 0.46561641218 0.64930231235 -0.61425415339 0.44687941167 
0.67870536458 -0.60185739537 0.41904046567 0.70397165853 -0.59669292469 0.38337953529 0.72433672157 -0.59722582088 0.34159290378 