# vtk DataFile Version 5.1
vtk output
ASCII
DATASET POLYDATA
POINTS 240 float
0 0 0 -0.304504 -0.283163 0.114105 -0.609007 -0.566325 0.228209 
-0.886355 -0.853773 0.377159 -1.16347 -1.14126 0.526403 -1.41731 -1.42798 0.696403 
-1.67074 -1.71468 0.866757 -1.90463 -1.99582 1.04401 -2.13802 -2.27682 1.22143 
-2.35539 -2.54798 1.39218 -2.5722 -2.8188 1.5627 -2.77614 -3.07647 1.71341 
-2.97951 -3.33358 1.86325 -3.17253 -3.57571 1.98095 -3.36499 -3.81704 2.09695 
-3.54878 -4.04336 2.16993 -3.73203 -4.26873 2.24021 -3.90723 -4.48087 2.25893 
-4.08185 -4.69206 2.27393 -4.24782 -4.89338 2.23218 -4.4131 -5.09389 2.1858 
-4.56798 -5.28891 2.08146 -4.7219 -5.48342 1.97181 -4.86263 -5.67724 1.80732 
-5.00201 -5.871 1.63725 -5.1247 -6.06883 1.4193 -5.24551 -6.26711 1.19599 
-5.34602 -6.47375 0.934704 -5.44403 -6.68141 0.668761 -5.51866 -6.90081 0.376514 
-5.59018 -7.12178 0.0807585 -5.63631 -7.35666 -0.229194 -5.67878 -7.59355 -0.541195 
-5.69517 -7.84499 -0.856183 -5.70749 -8.09869 -1.17164 -5.69415 -8.36597 -1.48084 
-5.67653 -8.63552 -1.789 -5.63438 -8.9161 -2.08436 -5.58785 -9.19865 -2.37745 
-5.51809 -9.48845 -2.65421 -5.44392 -9.77963 -2.92788 -5.34758 -10.0734 -3.18472 
-5.24677 -10.3678 -3.43815 -5.12441 -10.6598 -3.67698 -4.99744 -10.9513 -3.91267 
-4.84921 -11.2358 -4.13814 -4.69617 -11.5188 -4.36128 -4.52213 -11.7911 -4.58002 
-4.34306 -12.0608 -4.7977 -4.14356 -12.3172 -5.0173 -3.9389 -12.5702 -5.23738 
-3.71493 -12.8087 -5.4652 -3.48583 -13.0433 -5.69508 -3.23925 -13.2635 -5.93695 
-2.98779 -13.4797 -6.18217 -2.72148 -13.6826 -6.44103 -2.45082 -13.8815 -6.7039 
-2.16875 -14.0691 -6.97866 -1.88317 -14.2532 -7.25708 -1.59048 -14.4278 -7.54176 
-1.29549 -14.5993 -7.82845 -0.998613 -14.7631 -8.11193 -0.701094 -14.9243 -8.39432 
-0.40784 -15.0788 -8.66088 -0.116087 -15.231 -8.92186 0.164373 -15.3766 -9.15266 
0.440679 -15.5198 -9.37235 0.698081 -15.6555 -9.54762 0.948229 -15.7883 -9.70585 
1.17182 -15.9119 -9.80771 1.38479 -16.0317 -9.88701 1.56431 -16.14 -9.90221 
1.7299 -16.2434 -9.8907 1.85676 -16.3329 -9.81293 1.96682 -16.4164 -9.70643 
2.03511 -16.4843 -9.53746 2.08455 -16.5451 -9.3403 2.09177 -16.5892 -9.08988 
2.07917 -16.6254 -8.81448 2.02634 -16.6444 -8.49925 1.95389 -16.6549 -8.1646 
1.84523 -16.6479 -7.80595 1.71824 -16.6321 -7.43515 1.56042 -16.5985 -7.05647 
1.38639 -16.5555 -6.67366 1.18778 -16.4939 -6.29749 0.975759 -16.4222 -5.92494 
0.745928 -16.3305 -5.57034 0.50602 -16.2276 -5.22591 0.255456 -16.1031 -4.90649 
-0.00135967 -15.966 -4.60176 -0.261387 -15.8061 -4.32439 -0.523367 -15.6324 -4.06367 
-0.780987 -15.4359 -3.82812 -1.03586 -15.225 -3.60842 -1.279 -14.9934 -3.40784 
-1.51448 -14.7483 -3.21975 -1.7315 -14.4871 -3.04215 -1.93604 -14.215 -2.87166 
-2.11657 -13.9343 -2.70206 -2.28028 -13.6476 -2.53309 -2.41608 -13.3617 -2.35617 
-2.53165 -13.0765 -2.17348 -2.61739 -12.8026 -1.97636 -2.68076 -12.5373 -1.76842 
-2.71454 -12.2936 -1.5432 -2.72535 -12.0668 -1.30456 -2.70881 -11.8703 -1.05 
-2.67031 -11.6982 -0.782652 -2.60836 -11.5627 -0.504822 -2.52693 -11.4574 -0.218283 
-2.42708 -11.3918 0.070149 -2.3114 -11.3603 0.360207 -2.18286 -11.3687 0.641934 
-2.0429 -11.4126 0.916253 -1.8957 -11.4942 1.17224 -1.74184 -11.6105 1.41136 
-1.58592 -11.7606 1.62418 -1.42806 -11.9428 1.81197 -1.27262 -12.154 1.96882 
-1.11957 -12.3935 2.09524 -0.972477 -12.6568 2.19002 -0.831447 -12.9441 2.25262 
-0.69886 -13.25 2.28651 -0.57515 -13.5756 2.29022 -0.461276 -13.9151 2.27086 
-0.358099 -14.2699 2.2264 -0.265132 -14.635 2.16594 -0.183651 -15.0115 2.08746 
-0.111888 -15.395 2.00033 -0.0514358 -15.7869 1.90311 0.000443419 -16.1834 1.80407 
0.0420028 -16.5857 1.70283 0.076558 -16.9909 1.60568 0.102391 -17.3998 1.51363 
0.123 -17.8104 1.43056 0.136878 -18.2231 1.35906 0.147368 -18.6365 1.30038 
0.153342 -19.0506 1.25882 0.157742 -19.4642 1.23291 0.159972 -19.8769 1.22862 
0.162424 -20.2878 1.24176 0.165192 -20.6959 1.27983 0.170022 -21.1005 1.33601 
0.1779 -21.4996 1.41898 0.189807 -21.8929 1.51958 0.207885 -22.2775 1.64718 
0.232132 -22.6538 1.79084 0.266167 -23.0171 1.95998 0.308636 -23.3696 2.14265 
0.364973 -23.7044 2.34757 0.431974 -24.026 2.56284 0.517149 -24.3251 2.79574 
0.614923 -24.6091 3.03546 0.734966 -24.8663 3.28724 0.868962 -25.1072 3.54237 
1.02854 -25.3181 3.80361 1.2026 -25.5125 4.06505 1.40421 -25.6754 4.32688 
1.61989 -25.8225 4.58641 1.86335 -25.9388 4.84139 2.11955 -26.0411 5.09233 
2.4019 -26.1151 5.33498 2.69496 -26.1777 5.57268 3.01086 -26.216 5.79984 
3.33499 -26.2456 6.02193 3.67738 -26.2559 6.2328 4.02542 -26.2601 6.43913 
4.38647 -26.2501 6.63501 4.75073 -26.2362 6.82733 5.1227 -26.2127 7.01111 
5.49584 -26.1867 7.19254 5.87187 -26.1546 7.36812 6.24753 -26.1209 7.54261 
6.62222 -26.0832 7.71424 6.99555 -26.0442 7.88588 7.36522 -26.0021 8.05755 
7.73309 -25.9587 8.23009 8.09586 -25.9118 8.40508 8.45683 -25.8634 8.58146 
8.81247 -25.8102 8.76201 9.16665 -25.7552 8.94417 9.51628 -25.6943 9.13138 
9.86495 -25.6313 9.32016 10.2105 -25.5616 9.51405 10.5558 -25.4901 9.70926 
10.8998 -25.4125 9.90898 11.244 -25.3339 10.1097 11.5887 -25.2518 10.3139 
11.9338 -25.1698 10.5187 12.2804 -25.0889 10.7259 12.6275 -25.0098 10.9334 
12.9761 -24.9381 11.1423 13.3247 -24.8701 11.3515 13.6734 -24.8172 11.5616 
14.0212 -24.7695 11.7719 14.3656 -24.7451 11.9834 14.7082 -24.7271 12.1952 
15.042 -24.7397 12.409 15.3728 -24.7596 12.6233 15.6881 -24.8155 12.8409 
15.9991 -24.879 13.0594 16.2872 -24.9818 13.2824 16.5699 -25.0918 13.5064 
16.8222 -25.242 13.7359 17.0684 -25.3987 13.9664 17.2781 -25.5942 14.2024 
17.4814 -25.7952 14.439 17.644 -26.0317 14.6802 17.8004 -26.2727 14.9216 
17.9145 -26.5448 15.165 18.023 -26.8204 15.4082 18.09 -27.1219 15.6498 
18.1524 -27.4259 15.8907 18.1767 -27.7507 16.1259 18.1972 -28.0772 16.3599 
18.1844 -28.4195 16.5839 18.1688 -28.7629 16.8065 18.1256 -29.1176 17.0152 
18.0804 -29.4731 17.2223 18.0135 -29.8362 17.4125 17.9453 -30.1998 17.601 
17.8609 -30.5684 17.7704 17.7756 -30.9373 17.9383 17.679 -31.3095 18.086 
17.582 -31.6818 18.2325 17.4776 -32.0565 18.3592 17.373 -32.4314 18.4848 
17.2643 -32.8082 18.5922 17.1555 -33.1852 18.6988 17.0451 -33.5642 18.7898 
16.9347 -33.9433 18.8804 16.8248 -34.3247 18.9586 16.715 -34.7062 19.0366 
16.6073 -35.0902 19.1061 16.4996 -35.4743 19.1755 16.3956 -35.8613 19.2399 
16.2916 -36.2483 19.3042 16.1922 -36.6384 19.3666 16.0928 -37.0284 19.4289 

LINES 2 240
OFFSETS vtktypeint64
0 240 
CONNECTIVITY vtktypeint64
0 1 2 3 4 5 6 7 8 
9 10 11 12 13 14 15 16 17 
18 19 20 21 22 23 24 25 26 
27 28 29 30 31 32 33 34 35 
36 37 38 39 40 41 42 43 44 
45 46 47 48 49 50 51 52 53 
54 55 56 57 58 59 60 61 62 
63 64 65 66 67 68 69 70 71 
72 73 74 75 76 77 78 79 80 
81 82 83 84 85 86 87 88 89 
90 91 92 93 94 95 96 97 98 
99 100 101 102 103 104 105 106 107 
108 109 110 111 112 113 114 115 116 
117 118 119 120 121 122 123 124 125 
126 127 128 129 130 131 132 133 134 
135 136 137 138 139 140 141 142 143 
144 145 146 147 148 149 150 151 152 
153 154 155 156 157 158 159 160 161 
162 163 164 165 166 167 168 169 170 
171 172 173 174 175 176 177 178 179 
180 181 182 183 184 185 186 187 188 
189 190 191 192 193 194 195 196 197 
198 199 200 201 202 203 204 205 206 
207 208 209 210 211 212 213 214 215 
216 217 218 219 220 221 222 223 224 
225 226 227 228 229 230 231 232 233 
234 235 236 237 238 239 
CELL_DATA 1
FIELD FieldData 3
Length 1 1 double
90.631022134 
Tortuosity 1 1 double
1.0227483608 
ClusterLabel 1 1 int
1 
POINT_DATA 240
FIELD FieldData 6
Curvature 1 240 double
0 0.060168039269 0.12033607854 0.10371754708 0.086448281975 0.069675725724 0.052911660222 0.037277963486 0.021673500425 
0.029328392391 0.037792305401 0.067741106948 0.098632228167 0.1447674252 0.19171204218 0.2532607578 0.31572222959 0.37230082389 
0.42845542701 0.44187186797 0.45179155021 0.41407480243 0.37198773997 0.31796631114 0.262729345 0.22030932662 0.17932672294 
0.15428398409 0.13119613433 0.11964773022 0.10963791886 0.10597231773 0.10322174693 0.10297869579 0.10312516228 0.10363070875 
0.10419610189 0.10414226375 0.10397806755 0.10294505914 0.10174697641 0.10013627626 0.098442219059 0.097286939071 0.096247111343 
0.096407287577 0.096839629657 0.097903204722 0.099118012689 0.09917835648 0.098947046165 0.096261542734 0.092923328369 0.087025831039 
0.080412835245 0.071994283915 0.063045841287 0.053721371615 0.044281201314 0.036070277487 0.02825544419 0.028448774969 0.031341486897 
0.045876891086 0.064513698231 0.098586922346 0.13833790902 0.21798620771 0.31294394008 0.52145341758 0.77538359315 1.1678587273 
1.6180609275 1.6708219595 1.5511988703 1.227088856 0.81071035119 0.55462978225 0.37375071412 0.27142784527 0.20740112357 
0.17080706573 0.14810296428 0.13640594908 0.13049470998 0.13018560228 0.1329322026 0.13845777066 0.1455556494 0.15272126155 
0.15992661063 0.16445095404 0.16734495617 0.16626669969 0.16268537614 0.15738487331 0.15096212845 0.14874888665 0.14938150607 
0.1591756837 0.17538295206 0.19970480157 0.22990678234 0.26341964657 0.29941567341 0.3322474461 0.36262337977 0.38502153406 
0.40101328978 0.41022970677 0.41381738081 0.41626853899 0.41774300386 0.42223534626 0.42941024645 0.43780704901 0.44732721341 
0.4509256612 0.44889362435 0.43451141771 0.40798487745 0.37243630894 0.32771279644 0.28238426198 0.23641941132 0.19493749629 
0.15833175687 0.12699260132 0.1015783526 0.081264686001 0.066886242226 0.058011010422 0.05576001525 0.057531859851 0.064313278509 
0.07249636841 0.0824854578 0.092498998392 0.10254514059 0.11194151066 0.1204411952 0.1279267222 0.13396345271 0.13907461825 
0.14281671894 0.14618527182 0.14898158121 0.1522034681 0.156100728 0.16114700527 0.16808277778 0.17632304466 0.18678688151 
0.19773913313 0.20955462944 0.22006861911 0.22819651325 0.23308978976 0.23182940347 0.22691703127 0.21479198688 0.20045071154 
0.18156332143 0.16222316627 0.14191790664 0.12218962827 0.10374006511 0.086276266682 0.071085203636 0.056822404028 0.044787436673 
0.03373519825 0.02513978216 0.018455986147 0.01675398791 0.016611702264 0.020709885225 0.02482900114 0.029007539635 0.03269330946 
0.034917198903 0.03652539637 0.036222825632 0.035158831134 0.031620209415 0.02743170697 0.021028796128 0.015054492276 0.010613282662 
0.0093171879063 0.019846725021 0.030926500732 0.044184304215 0.057746476445 0.072579057356 0.087655339893 0.10380612505 0.12007460302 
0.1368923141 0.15362369202 0.16992772087 0.18581602169 0.1995162803 0.21230428701 0.21997354693 0.22646795272 0.22591323378 
0.22431430495 0.21599327501 0.20705276188 0.19381716525 0.18042805935 0.16588763401 0.15151761189 0.13853703151 0.12581464106 
0.11539444409 0.10523232498 0.097604061304 0.090180953202 0.084994040893 0.079921053226 0.076240477855 0.072595072694 0.069437654188 
0.066248874153 0.062558309641 0.058826340558 0.054314585388 0.049770842115 0.044497770104 0.039220484773 0.033822066489 0.028461994536 
0.024584647361 0.020744509595 0.019081122257 0.017358776927 0.0086793884637 0 
Torsion 1 240 double
0 0 0 -0.033572679982 -0.067429874201 -0.15027836653 -0.23396431695 -1.084391393 -1.9546479809 
-1.4051932328 -0.80635722087 -0.45491008522 -0.11431333889 -0.038966285858 0.022296712658 0.048179194019 0.071850393058 0.086825251578 
0.10117334682 0.11890944756 0.13692274876 0.16728094512 0.19877170068 0.2444203478 0.2915110024 0.34221298551 0.39331997742 
0.42075298828 0.44528258638 0.42268495578 0.39380369468 0.3380548539 0.27843088145 0.22033652937 0.16247978823 0.11149431871 
0.06165406114 0.013639609889 -0.034049450136 -0.084936786502 -0.13643179537 -0.1897112992 -0.24335130706 -0.28694773756 -0.32839197291 
-0.34473301289 -0.35538054465 -0.34080580533 -0.32018823023 -0.29011690352 -0.25765726062 -0.22486244633 -0.19197849072 -0.15762206292 
-0.12285397624 -0.076872131568 -0.027599292707 0.070612720508 0.18388294122 0.49070219238 0.85988724225 0.92905062101 0.89708309938 
0.66273615577 0.35709646124 0.21332751286 0.12909722974 0.084781917106 0.055782814079 0.039030849169 0.027177739506 0.020526691644 
0.016043169531 0.015283943067 0.016140073752 0.018293825192 0.021033088436 0.018682929438 0.013945140252 0.0033083845781 -0.01020411726 
-0.027732111664 -0.04729326686 -0.067196495092 -0.087279530945 -0.10638255054 -0.12495101581 -0.14225875719 -0.15885319425 -0.17791899479 
-0.19843466191 -0.22690860617 -0.26022204329 -0.30943011804 -0.36865399184 -0.44707658762 -0.53803168247 -0.60687390888 -0.66076659041 
-0.64424748709 -0.57844013435 -0.49667011099 -0.40333293502 -0.32663125691 -0.2624062022 -0.21182524566 -0.17183373845 -0.13896312338 
-0.11181080051 -0.087635785966 -0.065934227577 -0.046866203422 -0.03006137275 -0.017591497275 -0.0089749153068 -0.0055307111843 -0.0068417576617 
-0.011745949218 -0.020066573799 -0.03074550613 -0.04374344108 -0.059719207863 -0.078723278207 -0.10277763715 -0.13214350651 -0.17185501836 
-0.22281968521 -0.29593988614 -0.39398506292 -0.51694991963 -0.66891222206 -0.74681357911 -0.73556750191 -0.66014766839 -0.50481334588 
-0.37782543672 -0.28736079092 -0.21860395158 -0.17879085418 -0.14931451149 -0.1341028903 -0.12478090069 -0.12387267051 -0.12691229082 
-0.13579144 -0.1468308561 -0.16117961727 -0.17493872724 -0.18776208639 -0.19698450174 -0.20028536504 -0.19932177479 -0.19108922959 
-0.1806692506 -0.16638310956 -0.15236013254 -0.13881962288 -0.1267862688 -0.11762018632 -0.1096622099 -0.10409024295 -0.09891172828 
-0.094540295203 -0.090130723761 -0.08563985738 -0.079686663382 -0.070492635207 -0.055792443479 -0.028397485782 0.015110637242 0.097290357048 
0.24243605269 0.54499668794 0.79103320629 0.88976445034 0.85914564099 0.47685637399 0.1650299305 0.053226986027 -0.038094820901 
-0.068655919785 -0.092053839068 -0.093221200964 -0.087093519245 -0.057256945777 0.0077535606443 0.19261598676 0.60703757235 1.842574613 
2.5329877973 1.1737352816 0.073468448041 -0.0016467272706 -0.0655722574 -0.082793181553 -0.09811389817 -0.10505642702 -0.11099781404 
-0.11226720587 -0.11288295188 -0.11026315111 -0.10683357115 -0.099141995399 -0.090912451211 -0.079664306344 -0.068091037262 -0.054567022891 
-0.040709471423 -0.024704774895 -0.0084896315818 0.0091846094379 0.027028671807 0.046146394298 0.065219930822 0.083933181763 0.10262046748 
0.12107622991 0.13923254582 0.15444884134 0.16878366722 0.1735104742 0.17767242388 0.17493056224 0.1718556768 0.16416008617 
0.15664348319 0.1519906825 0.14786185597 0.15360120945 0.16018601549 0.18604713973 0.21335161743 0.28215250715 0.35170337272 
0.45025330484 0.54256830014 0.27013949121 0 0 0 
FrenetTangent 3 240 double
-0.67921491234 -0.66639888796 0.30753800574 -0.67921491234 -0.66639888796 0.30753800574 -0.67921491234 -0.66639888796 0.30753800574 
-0.65401824734 -0.67303964583 0.34252889447 -0.62860805128 -0.67973668132 0.37781631615 -0.60961423985 -0.68399822812 0.39958945257 
-0.59073011021 -0.68821814264 0.42113157556 -0.57944741735 -0.69214304928 0.43007507836 -0.56836131336 -0.69606032642 0.43869275476 
-0.56537755811 -0.70129505686 0.43413441087 -0.56267562367 -0.70657561177 0.42911777063 -0.56795285458 -0.71433560994 0.40815152078 
-0.57358004888 -0.72220435563 0.38648572666 -0.58565631737 -0.73263902003 0.34355073418 -0.59807501458 -0.74320992791 0.29948640374 
-0.61194375394 -0.75360693825 0.22777017956 -0.62590312093 -0.76399308 0.15432571203 -0.63088531275 -0.76707662407 0.052750428681 
-0.63522050095 -0.7696338548 -0.050852300847 -0.61954951185 -0.75771281157 -0.16684775653 -0.60224165371 -0.7446071823 -0.28385716253 
-0.56511753995 -0.71990542733 -0.38704351519 -0.52617542108 -0.69413980763 -0.48896169781 -0.47814324421 -0.66801635091 -0.56301652224 
-0.42918522809 -0.64185644782 -0.63423341204 -0.38002667841 -0.62335076533 -0.68003698366 -0.33084563898 -0.60570350011 -0.72299046353 
-0.28459904979 -0.59762108469 -0.7477974437 -0.238712346 -0.59071171689 -0.77037890976 -0.19589851334 -0.59217271547 -0.78044350234 
-0.15349439682 -0.59474976289 -0.78883917845 -0.1135515072 -0.60352622217 -0.78816987228 -0.073963602233 -0.61319682739 -0.78619311674 
-0.036257372958 -0.62667482066 -0.77735875889 0.001156557181 -0.64074425286 -0.76745914243 0.037161963651 -0.65620886933 -0.75250030679 
0.072932616176 -0.67190601651 -0.73669826795 0.10778644567 -0.68666424512 -0.71770727812 0.14247688096 -0.70125514171 -0.69814796039 
0.17680886193 -0.71276163991 -0.67750526739 0.21107273658 -0.72368210242 -0.6566567331 0.24548565611 -0.72967414627 -0.63699098453 
0.27992868571 -0.73467054999 -0.61756418257 0.31466977241 -0.7333631992 -0.60144894188 0.34947472849 -0.73070504388 -0.58604332147 
0.38402351303 -0.72104074386 -0.57555225567 0.4185141968 -0.70978742134 -0.56617583113 0.45140201853 -0.69174844695 -0.56241942032 
0.48390582123 -0.67208374346 -0.56000947115 0.51301081142 -0.64705650099 -0.56274235865 0.54125715425 -0.62067451183 -0.5667744891 
0.5646554731 -0.59145402315 -0.57440409486 0.58676442387 -0.56147861437 -0.58299047596 0.60368958259 -0.53164434015 -0.59306561083 
0.61916550913 -0.5018495229 -0.60355695644 0.63037415837 -0.47486696575 -0.61342650373 0.64033045448 -0.4487097458 -0.62311356672 
0.64780695322 -0.42707932436 -0.6304564386 0.65452043738 -0.406841764 -0.63707802091 0.66079282245 -0.39192850736 -0.63995446961 
0.66692307558 -0.37873085969 -0.64162415303 0.67450817107 -0.37120287424 -0.63806681321 0.68258366285 -0.36558601089 -0.63274755544 
0.69383371801 -0.36589264085 -0.61995579634 0.70620208527 -0.36828595597 -0.60453167881 0.72331233947 -0.37727016839 -0.57713855337 
0.742166736 -0.38867861891 -0.54534303422 0.76648756283 -0.40798838707 -0.49119706194 0.79290597338 -0.43033005618 -0.428474753 
0.81853121015 -0.45995839047 -0.31875929406 0.8438391774 -0.49250139083 -0.19024657513 0.82627315524 -0.51154163038 0.018517577936 
0.79084297082 -0.5249557196 0.26071982856 0.65805686409 -0.47997287915 0.50139036737 0.48304409226 -0.40966124992 0.74139654924 
0.30769537443 -0.32355412555 0.87115568542 0.1321950712 -0.23031976558 0.95116920344 0.0036842724686 -0.15822640289 0.98040125606 
-0.10278206737 -0.096051038917 0.98580990517 -0.18264945949 -0.047939652028 0.97910629846 -0.24954986461 -0.0066844539644 0.96649796705 
-0.30440799702 0.028698763545 0.95034995637 -0.35316877617 0.061108826344 0.93240970303 -0.39640771524 0.092437290563 0.9119277449 
-0.43674414863 0.1231972222 0.89010976244 -0.47394266873 0.15589631393 0.86505972433 -0.50942959976 0.18965312936 0.83824674677 
-0.54158798068 0.22726659512 0.80739360339 -0.57186310299 0.26706211306 0.77425457671 -0.59672061753 0.31116700514 0.73719533729 
-0.61839980217 0.35780006338 0.69783623973 -0.63172015379 0.40735747795 0.65658890936 -0.63995743127 0.45869321732 0.61419332931 
-0.63773597546 0.51002068094 0.57408335399 -0.62892408496 0.56134292969 0.53541362275 -0.60964807158 0.60929396192 0.50412199564 
-0.5835413113 0.65504433893 0.47764663096 -0.54857415298 0.69463717312 0.46263468584 -0.5076168664 0.73006716145 0.45537265818 
-0.45950038014 0.756925595 0.46151931378 -0.40637245412 0.77778394021 0.47705204767 -0.34714348772 0.78707258285 0.50544405071 
-0.28349347757 0.78797738304 0.54315436473 -0.21487948867 0.77347033229 0.59018596162 -0.1425425157 0.74740439332 0.64420852067 
-0.067797446638 0.70308243546 0.70054783066 0.0088165925136 0.64459162713 0.75868521602 0.083571569414 0.56911058863 0.81034349225 
0.15683366299 0.47998588045 0.85679884753 0.2242231502 0.3795538377 0.8902250402 0.28673385672 0.26972800933 0.91282700548 
0.34157413422 0.15498989782 0.91991348364 0.38982263676 0.036030292988 0.91366634006 0.43015969766 -0.08358031614 0.89149569434 
0.463464366 -0.20376959575 0.85517082448 0.48825340492 -0.32110878426 0.80286891341 0.50521355873 -0.43582772773 0.73587843219 
0.51230276961 -0.54243251843 0.65499855748 0.51000649377 -0.64132221307 0.56091237419 0.49787794156 -0.72622930631 0.46020629951 
0.47608098426 -0.79738684152 0.35299066497 0.44769587227 -0.85307426597 0.24953622948 0.41261094196 -0.8930293744 0.14990674218 
0.37550751116 -0.92166537476 0.061085031043 0.33628117467 -0.93839679597 -0.016369881016 0.29814417197 -0.94945832785 -0.081558823859 
0.26119205864 -0.9543526117 -0.13340583527 0.22654038328 -0.95752062866 -0.17456811877 0.19447670062 -0.95874659538 -0.20371008338 
0.16490777867 -0.96016665285 -0.22426667236 0.138241851 -0.96181256138 -0.23483300608 0.11393401465 -0.96426833441 -0.23844532756 
0.092464621554 -0.96769894437 -0.23368707875 0.073192493381 -0.97183209029 -0.22305421041 0.056656581909 -0.97684009231 -0.20510577811 
0.042218910373 -0.98201823683 -0.18204215129 0.030484740291 -0.98741560341 -0.15238779307 0.020818820719 -0.99218917732 -0.11835637978 
0.013910568491 -0.99613102766 -0.078488893057 0.0091054418215 -0.99856723333 -0.035189744669 0.0072026284233 -0.99892564936 0.01284509682 
0.0075099693111 -0.99703007493 0.063070808562 0.010974673465 -0.9919145141 0.11642633495 0.016843607667 -0.98411957092 0.17057635581 
0.026268798816 -0.97236137469 0.22590156642 0.038395732882 -0.95783355758 0.28075084706 0.05466150716 -0.93906291702 0.33487104349 
0.07401931385 -0.91757917225 0.38754629272 0.09828404154 -0.89178984908 0.43792847355 0.12604167616 -0.86323996843 0.48614237727 
0.15954320218 -0.8301505044 0.53079066973 0.19672897103 -0.79403981894 0.57253951153 0.24019469923 -0.75277932423 0.60934610786 
0.28693987912 -0.70822961488 0.64227639589 0.33948129919 -0.65786640993 0.66835553438 0.39392062761 -0.60447474065 0.68946548773 
0.45183945465 -0.54553088679 0.70146526831 0.50938461114 -0.48490516044 0.70795347704 0.56621888221 -0.42107977422 0.70395625639 
0.62043749424 -0.35785084551 0.69519620493 0.66949017969 -0.29579992039 0.67702956261 0.71479945694 -0.23645109122 0.65603549292 
0.75242994811 -0.18264502299 0.6292415722 0.7864584648 -0.13255812801 0.60177010935 0.81280908849 -0.090398944426 0.57285441198 
0.83634375949 -0.051921105667 0.54482244005 0.85363767051 -0.021601923008 0.51874899478 0.86894433357 0.0057088825551 0.49438258907 
0.87966928609 0.026083707589 0.47395185789 0.88901384901 0.044338885249 0.45550896953 0.89504547687 0.05750690921 0.44183690395 
0.90007224434 0.069370605332 0.43011039785 0.90258686085 0.077973481852 0.42324779045 0.9043194464 0.085958068523 0.41808821515 
0.90401401191 0.092331354373 0.41736684473 0.90307785996 0.098626797655 0.41796452632 0.90042694489 0.10471060646 0.42214838056 
0.89728538331 0.11110188575 0.42717316008 0.89275101872 0.11836598451 0.43458508233 0.88789805936 0.1260795486 0.44233028868 
0.8820999355 0.13512652653 0.45106423785 0.87619891836 0.14447232756 0.45968654613 0.86997857726 0.15474551061 0.46796238268 
0.86389992431 0.16491415491 0.47582459469 0.85828175788 0.1747430483 0.48234252693 0.85302293506 0.18390672801 0.48836138588 
0.84898854235 0.19080375374 0.49267969879 0.84544159012 0.19647405589 0.49661052684 0.84363817504 0.19775646219 0.4991553513 
0.84232058599 0.19734057219 0.50153166069 0.84282970286 0.19053908804 0.50327435341 0.8436395255 0.18171933781 0.50511799837 
0.84563964181 0.16491061764 0.50736124593 0.84756705298 0.14592220095 0.50995428337 0.8491909992 0.11783592051 0.51400731334 
0.85020959752 0.087569795698 0.51857723384 0.84855916194 0.047692538908 0.52542617172 0.84566395666 0.0058521110084 0.53284153771 
0.83695982613 -0.04514978207 0.54290023486 0.82639406897 -0.097645202696 0.55340570272 0.80661325998 -0.15753358468 0.56612268555 
0.78455434252 -0.21819708328 0.57899044621 0.75050538045 -0.28294014297 0.59265177431 0.71418963084 -0.34756125719 0.60602932776 
0.66515468447 -0.41149812186 0.61781459015 0.61441024955 -0.47446209369 0.62889725147 0.55340888334 -0.53158870845 0.63576430632 
0.49162310183 -0.58723884559 0.64171274368 0.42478764687 -0.63338415807 0.64174758087 0.3580918325 -0.67802058491 0.64089350709 
0.29236419289 -0.71219540471 0.63387631718 0.22739031661 -0.74516223901 0.62616272646 0.16806966528 -0.7690691821 0.61322612961 
0.1097314546 -0.79217356083 0.5998129502 0.059403913911 -0.80873395322 0.58251378985 0.010021526646 -0.82482879541 0.5649140002 
-0.030933242564 -0.83677248159 0.54463359926 -0.071084197479 -0.84847671583 0.52416224984 -0.1033431575 -0.85782996733 0.50181613354 
-0.13496512561 -0.867070671 0.47934557914 -0.15964388189 -0.87508460329 0.45551864942 -0.18383767528 -0.88303779752 0.43162786005 
-0.20210414458 -0.89024863759 0.40695656387 -0.22000408314 -0.89741371074 0.38228285164 -0.23281840776 -0.90394376778 0.35757561672 
-0.24536094514 -0.91042731653 0.33293357141 -0.2535548868 -0.91616673269 0.30933455994 -0.26155251928 -0.92186085872 0.28585729512 
-0.26585299547 -0.92670202047 0.26467292564 -0.270017113 -0.93150626584 0.24363871279 -0.27107225322 -0.93546881773 0.22602807136 
-0.27203766243 -0.93940588891 0.20856574105 -0.27042330532 -0.9426103896 0.19536735523 -0.26875349057 -0.94580096452 0.18228349382 
-0.26493931425 -0.94845307628 0.17362790972 -0.26109690903 -0.95109847343 0.16503999687 -0.25560311399 -0.95335106515 0.16041085195 
-0.2501554853 -0.95558472753 0.15582060741 -0.2501554853 -0.95558472753 0.15582060741 -0.2501554853 -0.95558472753 0.15582060741 

FrenetNormal 3 240 double
0.5405333461 -0.17074475611 0.82381425699 0.5405333461 -0.17074475611 0.82381425699 0.5405333461 -0.17074475611 0.82381425699 
0.57804891232 -0.15469149679 0.7997684905 0.61588240707 -0.1385021929 0.77551894633 0.65627503123 -0.15493960007 0.73604778331 
0.69671140118 -0.17193472879 0.69631642167 0.75777985527 -0.33749920487 0.47913660017 0.81938189774 -0.50690599167 0.25736759437 
0.36955175181 -0.48008318466 -0.2974977573 -0.098067339809 -0.44643500047 -0.86394906883 -0.19550901611 -0.36079575718 -0.90382793035 
-0.27671484086 -0.27287620427 -0.92061150897 -0.26297185739 -0.22871673006 -0.93604626578 -0.24418734429 -0.18688079985 -0.95140940373 
-0.18959098442 -0.13889944542 -0.96894497858 -0.13275638413 -0.090534001979 -0.98661633074 -0.049335874057 -0.027679252547 -0.99265780729 
0.036000737619 0.03621977119 -0.9978610946 0.13580972734 0.10417857774 -0.97739372742 0.23680282071 0.17246954835 -0.95482603396 
0.33766807485 0.22221452957 -0.90638258081 0.43852160062 0.27025804387 -0.85556520475 0.53397998705 0.28213772311 -0.78832233328 
0.62888886856 0.29033404877 -0.71940649469 0.71795424916 0.25456667999 -0.63468766389 0.80636428386 0.21386880342 -0.5481965349 
0.87476209139 0.13306316319 -0.43937434672 0.94070556916 0.047338646285 -0.32781344373 0.96444567866 -0.050122126079 -0.20409090591 
0.98255867238 -0.14914773251 -0.078746816771 0.96486678266 -0.22446865995 0.032883585354 0.94201072707 -0.29637064331 0.14253605185 
0.90993892194 -0.33437980847 0.22712995217 0.87643554407 -0.36712406983 0.30783125969 0.85113779981 -0.37157542345 0.36606214104 
0.82720766115 -0.37131129245 0.42054795137 0.81815476203 -0.34798004796 0.45580065693 0.81175325214 -0.32053783276 0.48762568045 
0.82134565116 -0.27062861971 0.49905677941 0.83397689287 -0.21645067707 0.50661303272 0.85723874677 -0.13761584891 0.48799220799 
0.88264819909 -0.053799831749 0.46408308468 0.90219476162 0.051189532656 0.40957800167 0.92048499063 0.1607160429 0.34851664157 
0.91288930624 0.27536268534 0.26413103083 0.89942258994 0.39117059487 0.17445538387 0.85560432013 0.4912437819 0.082526296668 
0.80451432395 0.58754719166 -0.0099426772511 0.73676570333 0.65973129296 -0.086912238377 0.66480858811 0.72582209527 -0.15996615838 
0.59097525202 0.77188503165 -0.21385698054 0.51664292102 0.81262140793 -0.26265123413 0.45095743637 0.83981429738 -0.29381313783 
0.38768934962 0.86322083567 -0.32004556735 0.34295082428 0.87920926633 -0.328193339 0.30365032239 0.89302064367 -0.33103365669 
0.30204871561 0.90340493602 -0.30162370027 0.31204676885 0.91273474068 -0.26229058259 0.40835407498 0.87878644478 -0.11679921661 
0.53247214037 0.83089298314 0.062898696042 0.61717792631 0.55949264267 0.3272108814 0.68859867424 0.21275290483 0.62004473171 
0.64930760154 -0.012042463954 0.7341785642 0.57101577384 -0.19388015728 0.78536125404 0.50863051841 -0.27064741054 0.81442867737 
0.45209595625 -0.30876806515 0.8353617498 0.38860581602 -0.31068121038 0.86446328547 0.32244667491 -0.29870077642 0.89669923145 
0.22032398951 -0.25428251475 0.93268761494 0.1038158864 -0.19688912199 0.97017697342 -0.077593951477 -0.090413840366 0.96464244169 
-0.28604617884 0.036512228294 0.94118128903 -0.48571772228 0.17510635358 0.80511376481 -0.68158077632 0.3187613227 0.6202049228 
-0.78218427518 0.40531625751 0.42680862524 -0.83980480402 0.4661065427 0.22958262214 -0.85691910427 0.49498066275 0.083105110548 
-0.85503048246 0.50888176704 -0.039564466752 -0.84323262276 0.51558441605 -0.13205822867 -0.82660400961 0.5187778181 -0.2098412806 
-0.80345979183 0.52563893287 -0.27323034008 -0.77701653374 0.53435711737 -0.32933130213 -0.74260782969 0.54938110877 -0.37849388384 
-0.70401216046 0.56771969098 -0.42400936821 -0.65452837125 0.59194727989 -0.46527982953 -0.59910560751 0.61938705428 -0.50423482375 
-0.53147377287 0.64840012513 -0.53902668236 -0.45693417442 0.67830335056 -0.57146308267 -0.36954792207 0.70579354786 -0.59705019784 
-0.27462496609 0.73186810197 -0.61861906572 -0.16582454827 0.75325631709 -0.6268647504 -0.048585133384 0.77179473146 -0.62700849935 
0.083660938823 0.78229347248 -0.60197917852 0.22536326085 0.78772611798 -0.56108737536 0.37799921542 0.77258489218 -0.47641382262 
0.53777240235 0.74401350039 -0.36316051669 0.67631825936 0.66924579879 -0.20279006538 0.80051324544 0.56324678916 -0.010565769307 
0.8634923623 0.42043454771 0.16976463902 0.88362037071 0.25185304398 0.34176932593 0.8694243611 0.089341974571 0.45766590404 
0.83035587467 -0.068770229382 0.53290443229 0.78746558848 -0.21214971517 0.56461633154 0.74170895248 -0.34447966233 0.56368325903 
0.69681626871 -0.46458624931 0.53367376409 0.65259411503 -0.57520604927 0.48109749353 0.60620302672 -0.67170365851 0.40922023676 
0.55807021819 -0.75686072065 0.32184370319 0.50711090768 -0.82412531991 0.22364458922 0.45380342632 -0.87652541153 0.11645440845 
0.39865790816 -0.90988015378 0.0052733823851 0.34193282713 -0.92686779892 -0.10933727636 0.28306345066 -0.92561684246 -0.2233615287 