# vtk DataFile Version 5.1
vtk output
ASCII
DATASET POLYDATA
POINTS 240 float
0 0 0 -0.129977 -0.364207 -0.0299041 -0.259954 -0.728413 -0.0598083 
-0.394005 -1.07033 -0.0373221 -0.52809 -1.41207 -0.014392 -0.662512 -1.72911 0.0479072 
-0.79694 -2.04573 0.110879 -0.928114 -2.33543 0.200333 -1.0592 -2.62443 0.290472 
-1.18376 -2.88473 0.394219 -1.30809 -3.14403 0.49844 -1.42322 -3.37376 0.60335 
-1.53795 -3.60219 0.708291 -1.64178 -3.8017 0.801116 -1.74504 -3.99968 0.893298 
-1.83694 -4.17144 0.961246 -1.92813 -4.34156 1.02768 -2.00885 -4.4905 1.05955 
-2.08882 -4.63791 1.08893 -2.16019 -4.77124 1.07664 -2.23086 -4.90341 1.06094 
-2.29519 -5.02998 1.00093 -2.35894 -5.15604 0.936855 -2.41821 -5.28529 0.830984 
-2.47702 -5.41487 0.720856 -2.53214 -5.55569 0.576131 -2.58684 -5.69777 0.427524 
-2.6371 -5.85727 0.254657 -2.68681 -6.01891 0.0788148 -2.72956 -6.20129 -0.110053 
-2.77137 -6.38645 -0.300657 -2.80201 -6.59225 -0.494489 -2.83103 -6.80103 -0.688786 
-2.8434 -7.02691 -0.87966 -2.85319 -7.25544 -1.07 -2.84034 -7.49481 -1.25409 
-2.82371 -7.73598 -1.43714 -2.77888 -7.98025 -1.61454 -2.72901 -8.22506 -1.79093 
-2.64671 -8.46525 -1.96446 -2.55824 -8.70455 -2.13745 -2.43526 -8.9329 -2.31082 
-2.30532 -9.15903 -2.48426 -2.14148 -9.37025 -2.66005 -1.97038 -9.57827 -2.83633 
-1.76889 -9.77016 -3.0142 -1.5605 -9.95839 -3.19244 -1.32794 -10.1316 -3.36813 
-1.0896 -10.3013 -3.5432 -0.835629 -10.4586 -3.70829 -0.577715 -10.6129 -3.87086 
-0.314363 -10.7579 -4.01362 -0.0495647 -10.9004 -4.15111 0.209711 -11.0359 -4.25807 
0.467443 -11.1695 -4.3565 0.708947 -11.2967 -4.41463 0.945688 -11.422 -4.46093 
1.15685 -11.5398 -4.4599 1.36014 -11.6552 -4.44431 1.53091 -11.76 -4.3785 
1.6912 -11.8614 -4.29652 1.81518 -11.9483 -4.16613 1.92693 -12.0302 -4.01943 
2.00206 -12.0939 -3.83047 2.06429 -12.1512 -3.62661 2.09284 -12.1876 -3.38982 
2.10899 -12.2164 -3.1409 2.09692 -12.2237 -2.86993 2.07402 -12.2227 -2.59049 
2.02991 -12.2015 -2.2997 1.97732 -12.1723 -2.00438 1.91097 -12.1259 -1.70677 
1.8389 -12.0724 -1.40822 1.76005 -12.0057 -1.11382 1.67827 -11.9333 -0.821225 
1.59558 -11.8519 -0.536193 1.51247 -11.7666 -0.254575 1.43288 -11.6766 0.0189136 
1.35493 -11.5844 0.288589 1.28347 -11.4917 0.551867 1.21518 -11.3989 0.812025 
1.15505 -11.31 1.06893 1.09905 -11.2232 1.3242 1.05178 -11.145 1.57973 
1.0091 -11.0715 1.83539 0.97491 -11.0116 2.09414 0.945342 -10.9591 2.35456 
0.923523 -10.9249 2.61934 0.906087 -10.9009 2.88657 0.895648 -10.8988 3.15749 
0.889313 -10.9094 3.43057 0.889628 -10.9442 3.70478 0.893988 -10.9936 3.97966 
0.9053 -11.0679 4.25169 0.920993 -11.1577 4.52192 0.944507 -11.2715 4.78465 
0.973126 -11.401 5.04248 1.01059 -11.5524 5.28834 1.05404 -11.7187 5.52611 
1.1069 -11.9041 5.74845 1.16636 -12.103 5.95999 1.23477 -12.3178 6.15422 
1.30967 -12.5441 6.33591 1.39175 -12.783 6.50025 1.47922 -13.0315 6.65158 
1.5709 -13.2896 6.7872 1.66586 -13.5551 6.91063 1.76135 -13.8278 7.02122 
1.85725 -14.1061 7.12149 1.94995 -14.3894 7.21234 2.03998 -14.6771 7.29536 
2.12367 -14.9684 7.37232 2.20191 -15.263 7.44407 2.27177 -15.5605 7.51255 
2.33419 -15.8606 7.57814 2.38751 -16.1632 7.64242 2.43246 -16.4682 7.70549 
2.46882 -16.7756 7.76839 2.49703 -17.0851 7.83111 2.51821 -17.3969 7.8941 
2.53248 -17.7107 7.95734 2.54204 -18.0264 8.02087 2.5468 -18.3438 8.08468 
2.54967 -18.6622 8.1486 2.55057 -18.9817 8.21263 2.55274 -19.301 8.27658 
2.5563 -19.62 8.34043 2.56447 -19.9373 8.40406 2.57781 -20.2525 8.46744 
2.59904 -20.5639 8.53055 2.62945 -20.871 8.59334 2.67077 -21.1724 8.65584 
2.7252 -21.4671 8.71798 2.79294 -21.7545 8.7798 2.87726 -22.0328 8.84124 
2.97638 -22.3027 8.90233 3.09459 -22.5619 8.96296 3.22799 -22.8125 9.02318 
3.38166 -23.0515 9.08286 3.54973 -23.2825 9.14211 3.73768 -23.5024 9.20078 
3.93821 -23.7156 9.25909 4.15672 -23.919 9.31688 4.38529 -24.1173 9.37453 
4.62874 -24.3079 9.43194 4.87946 -24.4947 9.48956 5.14132 -24.6758 9.54748 
5.40781 -24.8539 9.60609 5.68165 -25.0273 9.66579 5.95794 -25.1976 9.72676 
6.23826 -25.3628 9.7898 6.51946 -25.5236 9.85467 6.80215 -25.6771 9.92265 
7.08472 -25.8241 9.99295 7.36709 -25.9596 10.0673 7.64879 -26.0861 10.1444 
7.92928 -26.1961 10.2265 8.20881 -26.2945 10.3114 8.48651 -26.3709 10.4017 
8.76305 -26.4339 10.4948 9.03727 -26.4703 10.5935 9.3101 -26.4922 10.695 
9.58009 -26.4846 10.8019 9.84845 -26.4628 10.9114 10.1133 -26.4109 11.026 
10.3764 -26.3462 11.1427 10.6354 -26.2532 11.264 10.8925 -26.1496 11.3872 
11.1451 -26.0217 11.5145 11.3959 -25.886 11.6433 11.6424 -25.7317 11.7756 
11.8874 -25.5727 11.909 12.1286 -25.4018 12.0452 12.3688 -25.2289 12.1822 
12.6064 -25.0508 12.3212 12.8436 -24.8731 12.4606 13.0798 -24.6962 12.6011 
13.3163 -24.5213 12.7417 13.5533 -24.3519 12.8824 13.7912 -24.1853 13.0228 
14.0311 -24.0271 13.1623 14.272 -23.8717 13.3012 14.516 -23.7252 13.4382 
14.761 -23.581 13.5746 15.009 -23.4443 13.7084 15.2578 -23.3089 13.8415 
15.5088 -23.1776 13.9719 15.7601 -23.0462 14.1015 16.0119 -22.9144 14.2286 
16.2634 -22.7814 14.3552 16.5134 -22.6432 14.4798 16.7626 -22.5027 14.604 
17.0084 -22.3531 14.727 17.2532 -22.2008 14.8498 17.4936 -22.0373 14.9718 
17.7329 -21.8713 15.0937 17.9678 -21.6944 15.2149 18.2021 -21.516 15.3359 
18.4334 -21.3301 15.4559 18.6647 -21.1441 15.5754 18.8959 -20.9572 15.6928 
19.1277 -20.7718 15.8095 19.3628 -20.5945 15.9226 19.599 -20.4204 16.0349 
19.8418 -20.2645 16.1423 20.086 -20.1133 16.2486 20.3391 -19.9904 16.349 
20.5935 -19.8732 16.4484 20.8574 -19.7931 16.5417 21.1223 -19.7192 16.6343 
21.3948 -19.6885 16.7214 21.6679 -19.6641 16.8081 21.9451 -19.6862 16.8911 
22.2222 -19.7139 16.974 22.498 -19.7882 17.0556 22.7731 -19.8674 17.1373 
23.0409 -19.9905 17.2203 23.3074 -20.1176 17.3036 23.5606 -20.2839 17.3903 
23.812 -20.4532 17.4775 24.0446 -20.6558 17.5696 24.2752 -20.8606 17.6622 
24.4825 -21.0924 17.7603 24.6878 -21.3258 17.8587 24.8664 -21.5801 17.9624 
25.0432 -21.8354 18.0664 25.191 -22.1062 18.1751 25.3371 -22.3776 18.2839 
25.4528 -22.6599 18.3965 25.5671 -22.9425 18.5091 25.6501 -23.232 18.6247 
25.7319 -23.5216 18.7403 25.782 -23.8148 18.8585 25.8313 -24.1079 18.9767 
25.8486 -24.4015 19.0972 25.8654 -24.695 19.2177 25.8504 -24.9858 19.3405 
25.8352 -25.2766 19.4632 25.7886 -25.5615 19.5882 25.7421 -25.8464 19.7133 

LINES 2 240
OFFSETS vtktypeint64
0 240 
CONNECTIVITY vtktypeint64
0 1 2 3 4 5 6 7 8 
9 10 11 12 13 14 15 16 17 
18 19 20 21 22 23 24 25 26 
27 28 29 30 31 32 33 34 35 
36 37 38 39 40 41 42 43 44 
45 46 47 48 49 50 51 52 53 
54 55 56 57 58 59 60 61 62 
63 64 65 66 67 68 69 70 71 
72 73 74 75 76 77 78 79 80 
81 82 83 84 85 86 87 88 89 
90 91 92 93 94 95 96 97 98 
99 100 101 102 103 104 105 106 107 
108 109 110 111 112 113 114 115 116 
117 118 119 120 121 122 123 124 125 
126 127 128 129 130 131 132 133 134 
135 136 137 138 139 140 141 142 143 
144 145 146 147 148 149 150 151 152 
153 154 155 156 157 158 159 160 161 
162 163 164 165 166 167 168 169 170 
171 172 173 174 175 176 177 178 179 
180 181 182 183 184 185 186 187 188 
189 190 191 192 193 194 195 196 197 
198 199 200 201 202 203 204 205 206 
207 208 209 210 211 212 213 214 215 
216 217 218 219 220 221 222 223 224 
225 226 227 228 229 230 231 232 233 
234 235 236 237 238 239 
CELL_DATA 1
FIELD FieldData 3
Length 1 1 double
71.285694172 
Tortuosity 1 1 double
0.71919832089 
ClusterLabel 1 1 int
1 
POINT_DATA 240
FIELD FieldData 6
Curvature 1 240 double
0 0.09421608132 0.18843216264 0.17951930213 0.16973246753 0.15741164887 0.14504751425 0.13063656815 0.11617268728 
0.097241993155 0.078155931612 0.053558422923 0.028719184096 0.078958868658 0.13318504473 0.27053567174 0.41308157694 0.63329733178 
0.85911091362 0.96638152968 1.0639531758 0.90615523945 0.72492890103 0.52937911572 0.33237046082 0.22932077401 0.13680854158 
0.11884937445 0.11003350779 0.11950367114 0.13141197182 0.14029074273 0.14873256223 0.15593022691 0.16293462482 0.17211670226 
0.1816617263 0.19327568231 0.20525835888 0.2142342446 0.22263884006 0.22209818392 0.21975040624 0.20766362918 0.19348992369 
0.1748352879 0.15516435865 0.13849421736 0.12254301486 0.1180596362 0.11647339198 0.13389033311 0.15636131289 0.20355620577 
0.25766316037 0.34960669933 0.45265445327 0.59896796521 0.75859401809 0.8867369165 1.0047352429 0.98177819156 0.91130809153 
0.77786690985 0.6222427335 0.49840333896 0.38625489864 0.30952545491 0.24638702149 0.20290515033 0.16728590406 0.1414716326 
0.11974276731 0.10225357796 0.086603284209 0.073500592688 0.061547429004 0.054364155857 0.049418609135 0.055792790846 0.067685340169 
0.087681965274 0.11178191989 0.13779295461 0.16480853145 0.18914242391 0.21201357943 0.22932034491 0.24347883708 0.25258862578 
0.25873650845 0.26160206593 0.26247161487 0.2624155095 0.26177611513 0.26142852354 0.26127141433 0.26006122784 0.25813910179 
0.25336938179 0.24660634604 0.23589446503 0.22232110194 0.20552491842 0.18631161955 0.16640633181 0.14596397808 0.12795591667 
0.11190266575 0.10069934527 0.093525197782 0.090326052737 0.09054292542 0.09109831408 0.091954605829 0.09066038861 0.087389090567 
0.081655644637 0.073581140061 0.063694731441 0.052026617177 0.039280845892 0.025439152215 0.016939403347 0.014057906779 0.020767289748 
0.037908857475 0.056274611726 0.076017575817 0.097129238156 0.11983356755 0.14317906885 0.16729635116 0.18987494293 0.21053742949 
0.22633295808 0.23585759853 0.23832819462 0.23139339822 0.21887324858 0.19864531145 0.17634855753 0.15109635108 0.12701388066 
0.10466164481 0.085164355505 0.070040601325 0.058581767795 0.052939003992 0.051035383259 0.055280575576 0.062649855928 0.075344286342 
0.090735269412 0.11089225253 0.13291156412 0.1583451446 0.18399555729 0.21005848003 0.23332582269 0.25107189471 0.26340499951 
0.26463458184 0.2606106344 0.2453883735 0.22720737823 0.20246918786 0.17702286403 0.14994389918 0.12347442072 0.098467709582 
0.074561621653 0.053407091757 0.034252457395 0.020309671998 0.013061209249 0.024012936196 0.034679922222 0.044538611439 0.052947768118 
0.057056644937 0.059433913676 0.056437226308 0.051943533522 0.042584573127 0.03330973826 0.024321553337 0.019418320655 0.029126647915 
0.039428741046 0.05196339385 0.063286926617 0.069816442569 0.074629616737 0.072278929545 0.068176712644 0.056351842025 0.043689607844 
0.027119677042 0.016487359974 0.035246230885 0.056030033866 0.087471374061 0.11949573165 0.15479146465 0.18989966134 0.22388264026 
0.25660956757 0.28125066275 0.30378372171 0.31170106291 0.31768280634 0.30914756642 0.29970688396 0.28288336231 0.26600633595 
0.24865222594 0.23161484983 0.21768722463 0.20409912844 0.19421189845 0.18458994686 0.17821028696 0.17200261213 0.16818123025 
0.16447323424 0.16257941218 0.16074970227 0.16012743771 0.15954095671 0.15977034074 0.16000756096 0.16047007152 0.16092569545 
0.16111503623 0.1613028467 0.16140113483 0.16082287066 0.080411435328 0 
Torsion 1 240 double
0 0 0 0.0055732730285 0.011193777184 0.018889031492 0.026619751614 0.053876037094 0.081637294093 
0.23224479844 0.38712521573 3.5890636474 6.9246449745 4.0751375485 0.89721833028 0.47158648283 0.21797259605 0.16417808541 
0.12478497125 0.128993013 0.13676842205 0.20235297979 0.27324112915 0.51514448899 0.77446606471 1.4152460081 2.0988063291 
1.7077903152 1.1849866376 0.68061545764 0.17870194402 -0.034228367443 -0.20547840937 -0.2945476986 -0.37085104567 -0.38987154117 
-0.39934489474 -0.36692248952 -0.32703351344 -0.27470818855 -0.2200199574 -0.16568966964 -0.11143169369 -0.050505809616 0.011848911913 
0.10165047393 0.19767709255 0.34185636156 0.49757220306 0.6019362439 0.69332719826 0.61533726152 0.49229921545 0.36377635569 
0.23372010717 0.14585719147 0.07037710171 0.02217779564 -0.017627423142 -0.041798306163 -0.060931458772 -0.079164384939 -0.09709386399 
-0.11820818916 -0.14044444877 -0.15922448849 -0.17673327492 -0.18984244653 -0.20126339386 -0.217584307 -0.23586520645 -0.26900579655 
-0.30833792442 -0.38496265474 -0.47776248973 -0.67663591605 -0.92337181649 -1.2530461633 -1.6216299048 -1.5197659333 -1.1885587017 
-0.90192439936 -0.63785866877 -0.47571487225 -0.36714542569 -0.28972833025 -0.22930342633 -0.17924864467 -0.13506116901 -0.093878779173 
-0.054459373021 -0.018091131817 0.016421671242 0.043471476428 0.065818570625 0.077608578303 0.082507154503 0.077476910044 0.06573422345 
0.046057336847 0.020826510237 -0.011369873894 -0.048613763475 -0.096884198974 -0.15342454391 -0.22964262347 -0.32113297469 -0.42808342545 
-0.54744880464 -0.62019178048 -0.65420229814 -0.61535271597 -0.51388898552 -0.4112849274 -0.30766724467 -0.22482870655 -0.16109357555 
-0.1101610723 -0.071401559365 -0.038969498747 -0.012759432903 0.02636358861 0.078618429447 0.14782315214 0.23485447471 0.22600137536 
0.11285293989 0.047628274507 0.036317850478 0.027209627985 0.02066396728 0.014970123695 0.010301615533 0.0060440538704 0.0022982369045 
-0.00091057575228 -0.0034274790107 -0.0049561178363 -0.0051670707512 -0.0036470074962 0.00026185807321 0.0083419537486 0.022380949575 0.047342363789 
0.0884598552 0.14797358767 0.23566879582 0.30559484 0.34732199354 0.32971852018 0.21454912702 0.11194921883 0.030774569127 
-0.028981131092 -0.050880083377 -0.064008939875 -0.06105928743 -0.055270551068 -0.044080630671 -0.033593631563 -0.024494902003 -0.016045075032 
-0.0089263302929 -0.0010242656765 0.0085475071004 0.018997454765 0.031393627855 0.044943612976 0.061153775837 0.083550411413 0.1207945815 
0.19402532045 0.35722248153 1.1149228771 3.4219347323 4.4861267835 2.1714024929 0.4251313595 0.29253370479 0.18994774172 
0.1763964638 0.17455619709 0.20906044788 0.28334853767 0.48693410423 0.91122596081 2.0875540649 2.7511652062 1.5808272115 
0.60655869729 0.36951142973 0.16817595167 0.10819964039 0.051258829744 0.0069879347966 -0.052488722815 -0.17900897036 -0.71892514737 
-3.1880223286 -4.8427036957 -2.4660267831 -0.44258161438 -0.27825088738 -0.13548782324 -0.11374331184 -0.094955239938 -0.093905805047 
-0.09369745307 -0.09890357235 -0.10458889227 -0.11359666995 -0.12282808041 -0.13373673679 -0.14421215383 -0.15115500401 -0.15733526519 
-0.15671577452 -0.15539281792 -0.14716310485 -0.13826878637 -0.12213026903 -0.10603482677 -0.090465857679 -0.075172291554 -0.063699941527 
-0.052428114172 -0.044364649573 -0.036745820584 -0.037500962269 -0.038393782369 -0.042425670333 -0.046405563325 -0.048890600888 -0.051416252475 
-0.055512312982 -0.059041293372 -0.029396086996 0 0 0 
FrenetTangent 3 240 double
-0.35033464266 -0.93657889646 -0.0092525060855 -0.35033464266 -0.93657889646 -0.0092525060855 -0.35033464266 -0.93657889646 -0.0092525060855 
-0.36247620386 -0.92802927762 0.054535768485 -0.37472065965 -0.91940720439 0.11886462165 -0.38288219383 -0.90603505081 0.17165439552 
-0.39097393448 -0.89258169927 0.22424692016 -0.39644250289 -0.87805563274 0.26456837598 -0.40184323063 -0.86350182358 0.30457247657 
-0.40620812746 -0.85095741941 0.33162931325 -0.41053699539 -0.83848290759 0.35823581031 -0.41558059891 -0.83100374053 0.36950454752 
-0.42065555048 -0.82374366755 0.38010057597 -0.42827051832 -0.82474527695 0.36900726945 -0.43602035428 -0.82618555975 0.35676231681 
-0.44683662951 -0.83774738834 0.30949754573 -0.45784455718 -0.84994181354 0.26004403599 -0.46568618903 -0.86412723736 0.15747531335 
-0.47329961937 -0.87845615658 0.051078467264 -0.46072998341 -0.8684667252 -0.098412235803 -0.44650900565 -0.85648761058 -0.2514287999 
-0.41020765485 -0.81570722416 -0.38252102028 -0.37188058175 -0.77228451921 -0.51160183299 -0.33276227154 -0.73429840483 -0.58525186302 
-0.29356337237 -0.69686601727 -0.65325616518 -0.26234922552 -0.68064018776 -0.68275989466 -0.23203056491 -0.66679266382 -0.7079458029 
-0.2064467801 -0.67017607614 -0.7124517103 -0.1814436876 -0.6756727165 -0.71442139118 -0.1561268034 -0.69085972729 -0.70520535926 
-0.13076808031 -0.70733878747 -0.69449789896 -0.10099084676 -0.7267358326 -0.67827896025 -0.070576328056 -0.74655374094 -0.66126509677 
-0.032922888008 -0.76366633818 -0.6431451855 0.0058550446761 -0.78035869292 -0.62485346098 0.053194534248 -0.78975477627 -0.60893951154 
0.10196094997 -0.79793481439 -0.59342185794 0.15852280325 -0.79527994247 -0.58220853736 0.21647394243 -0.79069409648 -0.57176232564 
0.2786873829 -0.7735565878 -0.56536683421 0.34171066062 -0.7540342632 -0.55974097963 0.40318739582 -0.72361520996 -0.55597361853 
0.4643516982 -0.69099479741 -0.55258171067 0.51852602312 -0.65299428812 -0.54818335631 0.57120249574 -0.61384090095 -0.54356933484 
0.61470022285 -0.5763425122 -0.53562150287 0.65611617262 -0.53921948391 -0.52691754892 0.68962079155 -0.50908782819 -0.5131082454 
0.72122998747 -0.48063118881 -0.49807578522 0.74766546566 -0.46170205508 -0.47580769831 0.77279389936 -0.44517987016 -0.45171166361 
0.79502120338 -0.43862082224 -0.416798144 0.81647693036 -0.4347115448 -0.37900763373 0.83531578599 -0.43976782871 -0.32415022231 
0.85342304317 -0.44733061364 -0.26452141918 0.86449995746 -0.46061254942 -0.17789852607 0.87351361894 -0.47557293164 -0.083353454377 
0.86090011855 -0.48670547573 0.047680782737 0.84163210681 -0.49666022348 0.18994245537 0.77792889106 -0.48382327044 0.35536760134 
0.69990766512 -0.46364232492 0.52825653317 0.58290164732 -0.41259632979 0.67316971485 0.45275468845 -0.35114638535 0.80865286838 
0.32636797581 -0.27949851786 0.88981256277 0.20130589537 -0.2042582002 0.95183558406 0.10199811677 -0.13616816716 0.97944276701 
0.012163184826 -0.070708123849 0.9943912508 -0.054958721711 -0.01492038242 0.99551551053 -0.11336516501 0.037155894336 0.99133512613 
-0.1561969342 0.081572098172 0.98287012667 -0.19279883374 0.12292427284 0.97269128119 -0.21871776149 0.15859178359 0.96200772816 
-0.240185451 0.19189068437 0.95111388032 -0.25368346857 0.22051794229 0.94138168437 -0.26372476098 0.24711894548 0.93215333744 
-0.26721171972 0.26909347013 0.92509087906 -0.26774123522 0.28898043737 0.91900571185 -0.26256920918 0.3033787301 0.91587883493 
-0.25472238587 0.31520208911 0.9141397979 -0.24206660902 0.31972124974 0.91595189222 -0.22706646731 0.32067961368 0.91949516306 
-0.20853628012 0.31224716505 0.92651062058 -0.18821872812 0.29905987463 0.9352841473 -0.16605176885 0.27509965424 0.94623686251 
-0.14291268526 0.2454767399 0.95833504859 -0.11962701788 0.20531538569 0.97009252318 -0.096261395703 0.15940579155 0.98166415516 
-0.073864741505 0.10522565507 0.98994306866 -0.052016319189 0.046366132798 0.99635899671 -0.031274349949 -0.017328788795 0.99725696643 
-0.011181499848 -0.083860477988 0.99491773394 0.0085543044924 -0.15187547226 0.98605014215 0.028072986411 -0.22079247639 0.97321260215 
0.048339039589 -0.28865200062 0.95374709029 0.069076039039 -0.35584516766 0.93010504823 0.091316713335 -0.42036588524 0.90008767591 
0.11453895315 -0.48314208719 0.86590862968 0.13908100552 -0.54187961624 0.82596419313 0.16451532552 -0.59788677488 0.78212202792 
0.18992753101 -0.6485377339 0.73400826565 0.21532425635 -0.6954393532 0.68290438546 0.23859055661 -0.73628194476 0.63012462743 
0.26031307057 -0.7727339365 0.57613046517 0.27789669723 -0.8035190691 0.52365681241 0.29237615841 -0.83005405735 0.47232354178 
0.30150827026 -0.85230204349 0.42520305291 0.30649020052 -0.87122280411 0.38135218572 0.30584563382 -0.88748459506 0.34311831089 
0.30068281957 -0.9016111528 0.30939505114 0.29036844867 -0.91421685336 0.28140742382 0.27577432303 -0.92555907258 0.25818478346 
0.25712797991 -0.9357985536 0.23990627154 0.2349992624 -0.94509036898 0.22587662002 0.21046068653 -0.95322270367 0.21548988947 
0.18378001432 -0.96032438885 0.20834131089 0.15668707898 -0.96615579044 0.20343089644 0.12921512754 -0.97081935068 0.20057814901 
0.10327145822 -0.97434824607 0.19878515257 0.078780909605 -0.97679827981 0.19799978821 0.057325403185 -0.97849020428 0.19751266444 
0.038854354921 -0.97943665462 0.1973188106 0.024397365319 -0.98003546195 0.19711534572 0.014022469273 -0.980280734 0.1969021069 
0.0082534578476 -0.98043036759 0.19669139968 0.0073285664551 -0.9804794159 0.19648335499 0.011443573216 -0.98041584795 0.19643396158 
0.021040574461 -0.98022978513 0.1965571362 0.036108890096 -0.97957078668 0.19700190861 0.057332434422 -0.97837973566 0.1978084785 
0.084399515805 -0.97593990134 0.19896181609 0.1182663494 -0.97204693737 0.20051866517 0.15791101982 -0.96569807388 0.20222716123 
0.20451049383 -0.95639303502 0.2041181953 0.25575390306 -0.94327201862 0.20576770764 0.31278032594 -0.92539903019 0.20711645707 
0.37180265037 -0.90302052462 0.20776457633 0.43339661718 -0.87483683351 0.20750996058 0.49336929698 -0.84311648323 0.20633892023 
0.55118026078 -0.8066805874 0.20394598043 0.60449232796 -0.76924008622 0.20090223544 0.65159591781 -0.73041322966 0.19696037931 
0.69328368192 -0.69322288752 0.19295690097 0.72723455213 -0.65837042312 0.18886539091 0.75648884497 -0.62655985164 0.18530330886 
0.77879611713 -0.59924874676 0.18252433909 0.79780240073 -0.57487661941 0.18070010583 0.81175185082 -0.5550067555 0.18033844765 
0.82380466605 -0.53694863578 0.18119429448 0.83284760423 -0.52176567535 0.18398226881 0.84120088156 -0.50675366263 0.18812465336 
0.84842004993 -0.49202276395 0.19449429028 0.85586852254 -0.47566755909 0.20225806078 0.86370785466 -0.45654365053 0.21239819536 
0.8722251476 -0.43409637356 0.22390758742 0.88194069687 -0.40577523615 0.23783706244 0.89210203214 -0.37277857413 0.25286442899 
0.90308064173 -0.33121011699 0.26990459667 0.91346285622 -0.28437956339 0.28743243712 0.92271046538 -0.22753819214 0.30588804528 
0.9297566432 -0.16629205125 0.3239979727 0.93245499411 -0.096346490321 0.34142518062 0.93177998021 -0.024589268414 0.35764256778 
0.92418524362 0.050884181149 0.37137827131 0.91346144584 0.12488502975 0.38350935024 0.89606780713 0.19574691312 0.39222004516 
0.87700654865 0.26276346853 0.3996554127 0.85424948416 0.32125794572 0.40426437902 0.83154141203 0.37505835051 0.4082281847 
0.80894629451 0.41803631061 0.41070453668 0.78764018585 0.45657593459 0.4130375174 0.76942769845 0.4844635519 0.4150264071 
0.75307595646 0.50862436145 0.41713212268 0.74137607799 0.52346815162 0.41952990298 0.73164619412 0.5352974339 0.42205317812 
0.72705023558 0.53927072595 0.42490350041 0.72422984995 0.54086499478 0.4277145846 0.72623680316 0.53599129422 0.43041899024 
0.72956314082 0.52942869382 0.43285116205 0.7366348279 0.51807179709 0.43451054108 0.74441915415 0.50582927711 0.43570123288 
0.75431764328 0.49095940812 0.43550148586 0.76428251069 0.47612288064 0.4347862754 0.77445337964 0.46138982677 0.43247135082 
0.78413164572 0.44761348335 0.42976556986 0.79220895248 0.43694644887 0.42578950568 0.79941402337 0.42794945558 0.42163449104 
0.80364703125 0.42464297304 0.41686971926 0.8068094393 0.42328381891 0.41215138915 0.80614239406 0.42889010871 0.40759917734 
0.80440549689 0.43619382731 0.40320968878 0.79864595641 0.4498798782 0.39943203957 0.79205054619 0.46459381918 0.39577844713 
0.78214648488 0.48337649173 0.39261591271 0.7718865125 0.50229194529 0.38949920016 0.76014099829 0.52176161518 0.38657374411 
0.74873868865 0.54047228705 0.38362004561 0.73884959911 0.55583646761 0.38054182356 0.73003427538 0.56973888595 0.37738933819 
0.72622985872 0.57681974733 0.3738902907 0.72400241762 0.58194946691 0.3703168141 0.7295810055 0.57742103467 0.36637491335 
0.73687919742 0.57054637089 0.36234225435 0.75322793688 0.55132312005 0.35783192034 0.77099396209 0.52938864174 0.35317720507 
0.79671253511 0.49224116485 0.34771235054 0.82303004028 0.45220929402 0.34205453409 0.85294113836 0.39487105949 0.33523894615 
0.88226509084 0.33499126758 0.32824293223 0.90780929362 0.25875020002 0.32008542608 0.93170445654 0.18099571052 0.31187374443 
0.94416627645 0.09274816224 0.30328644597 0.95458808529 0.0043622317943 0.2948679406 0.94970981114 -0.08506156488 0.28771538347 
0.94312029458 -0.17361043876 0.2809229212 0.92257757074 -0.2550253268 0.277066617 0.90092759762 -0.33519537618 0.27361411635 
0.86940465176 -0.40426561415 0.27376219736 0.83727029661 -0.47217086032 0.27424143039 0.79913301385 -0.52863800504 0.27797197411 
0.76067759715 -0.58418028786 0.28191866005 0.71875452057 -0.62964157605 0.2882212962 0.67665949352 -0.67442131325 0.29461798877 
0.63246284962 -0.71087098291 0.30216425986 0.58815735082 -0.74682565496 0.30972592131 0.54234149042 -0.77591223524 0.31750112387 
0.496444851 -0.80463199836 0.32525129921 0.4492557475 -0.82748268684 0.33260103887 0.40200174308 -0.85005373805 0.33990809395 
0.3535254382 -0.86735828737 0.34641125598 0.30499971187 -0.88443816611 0.35288252233 0.25534717624 -0.8963955554 0.35862656705 
0.20566466885 -0.90817109303 0.36435295479 0.15512047332 -0.91471839536 0.36957170442 0.10456840762 -0.92112713702 0.37477958187 
0.053712029059 -0.92217820004 0.37956706817 0.0028618682221 -0.92313591673 0.38435036647 -0.047624555716 -0.91863287394 0.38888866681 
-0.097686723991 -0.91416767185 0.39338883018 -0.097686723991 -0.91416767185 0.39338883018 -0.097686723991 -0.91416767185 0.39338883018 

FrenetNormal 3 240 double
-0.20669664795 0.067673933648 0.97606184969 -0.20669664795 0.067673933648 0.97606184969 -0.20669664795 0.067673933648 0.97606184969 
-0.18552587492 0.12957156943 0.97179440406 -0.16417568856 0.19199376145 0.96749079364 -0.14822542682 0.24391074824 0.95680071838 
-0.13236747148 0.29564815888 0.94600147277 -0.1281757798 0.33842517036 0.93111431342 -0.12428580184 0.38097044739 0.91612143216 
-0.15732064797 0.42220701129 0.89074681658 -0.19163983582 0.46339805473 0.8650110972 -0.51005168975 0.48077440545 0.51325964088 
-0.84092374835 0.4971062521 0.14720924874 -0.60228944521 0.15435170503 -0.36720437159 -0.33341586623 -0.20746937623 -0.88949568545 
-0.23836340037 -0.22064490692 -0.94169108325 -0.15417475408 -0.21203009069 -0.9645054863 -0.080183276174 -0.13559502714 -0.98127330331 
-0.0069267293279 -0.054272017837 -0.99760533033 0.082856421839 0.067325337686 -0.98199624785 0.17399174972 0.19221786699 -0.96377380187 
0.26360934475 0.29293423254 -0.90741078645 0.35308769823 0.39143260141 -0.84754863622 0.45533739073 0.41369488253 -0.77824757316 
0.55888786776 0.42819237692 -0.70798513936 0.72606216847 0.27862765138 -0.5582645634 0.90037185128 0.11066342453 -0.39963279394 
0.89368938479 -0.15194533413 -0.11576116726 0.86480976791 -0.42616144104 0.18347006454 0.80462807729 -0.49373497349 0.30567028262 
0.74027277684 -0.53375616269 0.40426636554 0.75251579589 -0.5009054722 0.42465225441 0.77580664949 -0.45754441445 0.43375782684 
0.82632436443 -0.37645255702 0.40474747039 0.88107149472 -0.28949960449 0.36981619296 0.92324714531 -0.17836593332 0.31207335002 
0.96332754928 -0.063202142373 0.25052857949 0.97138995016 0.053839438547 0.19104214918 0.97374617228 0.17121567511 0.13192255179 
0.95095611557 0.27414060409 0.093711584117 0.92338826589 0.37431978462 0.059473256084 0.88506513957 0.45477131411 0.049947878496 
0.84456923009 0.53123745955 0.04541501615 0.80561207568 0.5851121193 0.065043007112 0.76698465449 0.63414574641 0.089848323782 
0.73955361208 0.65376982063 0.14525418359 0.71466195454 0.66672368698 0.20760037277 0.69917859687 0.62770132005 0.31677946913 
0.68594931105 0.5762263139 0.4371789495 0.64527870433 0.44454052443 0.58249506365 0.59767555338 0.29259095813 0.73410590633 
0.51001083975 0.13957673662 0.82635198199 0.4116914552 -0.013720637879 0.90280955579 0.31484479157 -0.093019203991 0.93780818164 
0.21840985636 -0.1516299312 0.96121613387 0.11889139993 -0.15371485992 0.97584109552 0.018467997059 -0.13921069561 0.98788844036 
-0.10194682052 -0.084198991692 0.98122654062 -0.22851284262 -0.016723429438 0.96880795023 -0.3665645953 0.077754698541 0.90829756103 
-0.50831730562 0.18093365325 0.83229092555 -0.6190906922 0.28018818015 0.70781037618 -0.71942161009 0.3781198662 0.56699030527 
-0.76843086576 0.45298663811 0.42414914209 -0.7993608995 0.5197282698 0.28059600323 -0.79651452784 0.57094135435 0.16234473805 
-0.78124465074 0.61644278938 0.053399909172 -0.74883222291 0.65592971296 -0.03148622133 -0.70984183956 0.69310874261 -0.10714052571 
-0.659414688 0.72903051883 -0.16527216619 -0.60441282914 0.76444939366 -0.21639474111 -0.5335370536 0.80205939158 -0.25348752153 
-0.4560471461 0.84058235744 -0.28473455424 -0.35062711716 0.8790896854 -0.30034057195 -0.23309281867 0.91759023066 -0.30916253495 
-0.050495378694 0.93454154024 -0.28623625128 0.16145982025 0.94176941422 -0.24898453922 0.44137456359 0.79865083062 -0.13768302091 
0.75317156232 0.584999341 0.0083579126799 0.87338202386 0.25124544914 0.14264440376 0.90019404853 -0.1410583638 0.27120060412 
0.83516625361 -0.39643515358 0.32131256386 0.72363728423 -0.58248180505 0.33170592077 0.62785417528 -0.70213167972 0.314220044 
0.54034773658 -0.78688068453 0.28207969823 0.47009963757 -0.84582760621 0.23695432335 0.40926517839 -0.89070066437 0.18474620531 
0.3624339219 -0.92071011721 0.12490115342 0.32352553009 -0.94230989861 0.060735204747 0.29656025477 -0.95255346852 -0.0072530906067 
0.27660160779 -0.9561347277 -0.077483829344 0.2681038292 -0.9494643231 -0.14856626272 0.26657549761 -0.93655979863 -0.22016661851 
0.27358857516 -0.91420180972 -0.29055029295 0.28598391051 -0.8858868432 -0.36016729148 0.30100047156 -0.84941818277 -0.42723989927 
0.31772811048 -0.80762697215 -0.49265158532 0.33106428032 -0.76008972789 -0.55440903896 0.34210762599 -0.70866784117 -0.61369602562 
0.34452896419 -0.65561476555 -0.66842067411 0.34091489716 -0.60141985769 -0.71995168586 0.32544212207 -0.55036480189 -0.76631019935 
0.30137608026 -0.50158500122 -0.8089205257 0.26175784784 -0.46064309343 -0.84572854858 0.21047547247 -0.42557960529 -0.87818484388 
0.1352491126 -0.40191690441 -0.90145350657 0.041439361763 -0.38710257573 -0.91759146933 -0.086441535554 -0.38146961968 -0.9093691644 
-0.24168259596 -0.38320958408 -0.88158482633 -0.41027403637 -0.37895944044 -0.80752937425 -0.58995656171 -0.36973289934 -0.69503330439 
-0.73120848224 -0.34563070873 -0.56450965227 -0.83943410176 -0.30874475682 -0.41849354663 -0.91066270497 -0.26826911799 -0.29729858223 
-0.94900507147 -0.22460264635 -0.1981668545 -0.97338774455 -0.18403996931 -0.1243259692 -0.98493650592 -0.14633078085 -0.073736342251 