# vtk DataFile Version 5.1
vtk output
ASCII
DATASET POLYDATA
POINTS 240 float
0 0 0 -0.23688 -0.224461 -0.0784498 -0.47376 -0.448921 -0.1569 
-0.706965 -0.665644 -0.150231 -0.940139 -0.882301 -0.142841 -1.16978 -1.09207 -0.0712861 
-1.39936 -1.30171 0.00136517 -1.62555 -1.5053 0.117603 -1.85164 -1.70872 0.234969 
-2.07449 -1.90682 0.375842 -2.29722 -2.10474 0.517533 -2.51678 -2.29792 0.663489 
-2.73621 -2.4909 0.809631 -2.95247 -2.6795 0.942242 -3.16856 -2.86788 1.07413 
-3.38125 -3.05192 1.17701 -3.59373 -3.23569 1.27808 -3.80218 -3.41494 1.33799 
-4.01035 -3.59386 1.39495 -4.21326 -3.76794 1.40288 -4.41574 -3.94162 1.40681 
-4.61091 -4.11032 1.35859 -4.80541 -4.27855 1.30558 -4.98964 -4.44208 1.20212 
-5.17282 -4.60513 1.09352 -5.34188 -4.76435 0.940407 -5.50935 -4.92315 0.782297 
-5.65818 -5.07956 0.588651 -5.80471 -5.23567 0.390646 -5.92773 -5.3911 0.16758 
-6.04762 -5.54644 -0.0588274 -6.13924 -5.70261 -0.299948 -6.22678 -5.85891 -0.54319 
-6.28193 -6.01689 -0.792334 -6.33205 -6.17514 -1.0424 -6.34674 -6.33499 -1.292 
-6.35552 -6.49511 -1.54152 -6.32734 -6.65587 -1.78702 -6.29257 -6.81675 -2.0318 
-6.22113 -6.97685 -2.27157 -6.14272 -7.13682 -2.51039 -6.02993 -7.29483 -2.7451 
-5.9102 -7.45245 -2.97898 -5.76046 -7.60784 -3.21052 -5.6043 -7.76276 -3.44157 
-5.42452 -7.91644 -3.67189 -5.23939 -8.06984 -3.90205 -5.03883 -8.22428 -4.13206 
-4.83458 -8.37897 -4.36204 -4.62445 -8.5378 -4.59079 -4.41283 -8.69768 -4.81923 
-4.2057 -8.86487 -5.04346 -3.99976 -9.03401 -5.26657 -3.80866 -9.21282 -5.48069 
-3.62172 -9.39434 -5.69231 -3.45916 -9.58626 -5.88882 -3.30376 -9.78125 -6.0809 
-3.18051 -9.98528 -6.25113 -3.06715 -10.1921 -6.41462 -2.99112 -10.4043 -6.54976 
-2.92711 -10.6183 -6.67576 -2.90238 -10.8321 -6.76806 -2.8909 -11.0457 -6.849 
-2.91715 -11.2521 -6.89281 -2.9567 -11.4559 -6.92353 -3.02924 -11.645 -6.916 
-3.11392 -11.8286 -6.8944 -3.22434 -11.9904 -6.83575 -3.34463 -12.1438 -6.76289 
-3.48194 -12.2699 -6.6563 -3.62605 -12.385 -6.53622 -3.77834 -12.4696 -6.38726 
-3.93402 -12.5414 -6.22626 -4.09017 -12.582 -6.04214 -4.24651 -12.6091 -5.84798 
-4.39756 -12.6069 -5.63664 -4.54624 -12.5915 -5.41754 -4.68618 -12.551 -5.18678 
-4.82202 -12.4988 -4.95054 -4.94773 -12.427 -4.70717 -5.06849 -12.3457 -4.46033 
-5.17915 -12.251 -4.2096 -5.28469 -12.1495 -3.9569 -5.38082 -12.0403 -3.70213 
-5.472 -11.927 -3.44627 -5.5545 -11.8105 -3.18893 -5.63228 -11.6922 -2.93079 
-5.70173 -11.574 -2.67082 -5.76645 -11.4559 -2.40983 -5.82258 -11.34 -2.14628 
-5.87365 -11.2255 -1.88123 -5.91525 -11.1145 -1.61293 -5.95108 -11.0058 -1.34265 
-5.9761 -10.902 -1.0689 -5.9943 -10.8014 -0.792962 -6.00019 -10.7075 -0.514167 
-5.99804 -10.6178 -0.233504 -5.98223 -10.5368 0.0484567 -5.95717 -10.4617 0.331294 
-5.91762 -10.398 0.612969 -5.8679 -10.3423 0.89383 -5.80365 -10.301 1.17042 
-5.72886 -10.2702 1.44392 -5.64047 -10.2571 1.7098 -5.54189 -10.2574 1.96997 
-5.43167 -10.2784 2.21942 -5.31243 -10.3155 2.46054 -5.18443 -10.3755 2.68852 
-5.0494 -10.454 2.90595 -4.90913 -10.5564 3.10881 -4.76452 -10.6788 3.29956 
-4.61852 -10.8248 3.47541 -4.47132 -10.991 3.63847 -4.32645 -11.1792 3.78738 
-4.18364 -11.3868 3.92374 -4.04633 -11.6135 4.04762 -3.91407 -11.8577 4.16003 
-3.78959 -12.1174 4.26226 -3.67249 -12.3917 4.35479 -3.56432 -12.6777 4.43971 
-3.46494 -12.9751 4.51715 -3.37453 -13.2804 4.58956 -3.29323 -13.5937 4.65685 
-3.21994 -13.9117 4.72139 -3.15509 -14.2345 4.78305 -3.09661 -14.5595 4.84375 
-3.04505 -14.8866 4.9034 -2.9978 -15.2141 4.96324 -2.95541 -15.5418 5.0233 
-2.91517 -15.8687 5.084 -2.87741 -16.1948 5.14547 -2.83969 -16.5195 5.20741 
-2.80202 -16.8427 5.26993 -2.76246 -17.1645 5.33224 -2.72056 -17.4847 5.39429 
-2.67508 -17.8035 5.45511 -2.62499 -18.1207 5.51435 -2.56985 -18.4366 5.57127 
-2.50798 -18.751 5.62508 -2.43983 -19.0639 5.67563 -2.36301 -19.3749 5.72167 
-2.27889 -19.684 5.76393 -2.18435 -19.9904 5.80078 -2.08179 -20.2942 5.83392 
-1.96736 -20.594 5.86159 -1.84453 -20.8899 5.88635 -1.70882 -21.1799 5.90666 
-1.56471 -21.4647 5.92558 -1.40728 -21.7412 5.94228 -1.24188 -22.0109 5.95967 
-1.06339 -22.2695 5.9782 -0.877739 -22.5198 5.99982 -0.679896 -22.7561 6.02669 
-0.475977 -22.9826 6.05899 -0.261321 -23.1921 6.10088 -0.0417888 -23.3908 6.1501 
0.186681 -23.5696 6.21276 0.418866 -23.7369 6.28387 0.658116 -23.882 6.37107 
0.900077 -24.015 6.46689 1.14739 -24.1243 6.57972 1.39664 -24.2216 6.70036 
1.64983 -24.2943 6.83705 1.90438 -24.3555 6.97999 2.16183 -24.3921 7.13627 
2.42022 -24.4181 7.29681 2.68073 -24.4203 7.4668 2.94188 -24.4131 7.63899 
3.20452 -24.384 7.81627 3.4675 -24.3469 7.99399 3.73134 -24.2904 8.17273 
3.99521 -24.2274 8.35062 4.2592 -24.1481 8.52639 4.52287 -24.064 8.70061 
4.78575 -23.9673 8.87082 5.04795 -23.8672 9.03934 5.30831 -23.7582 9.20331 
5.56763 -23.6473 9.36589 5.82399 -23.5309 9.52456 6.07898 -23.4136 9.68241 
6.32991 -23.2938 9.83784 6.5792 -23.1737 9.99313 6.82342 -23.053 10.1479 
7.06585 -22.9323 10.3032 7.30243 -22.8118 10.4599 7.5372 -22.6912 10.6175 
7.76574 -22.5704 10.7782 7.9926 -22.4492 10.94 8.21346 -22.3265 11.1059 
8.433 -22.2031 11.2729 8.64758 -22.0768 11.4443 8.86141 -21.9496 11.6166 
9.07227 -21.8189 11.7926 9.28312 -21.6874 11.9692 9.49394 -21.553 12.1484 
9.70555 -21.4183 12.3278 9.92067 -21.2829 12.5081 10.1373 -21.1482 12.6882 
10.3611 -21.0169 12.8674 10.5869 -20.8873 13.046 10.8228 -20.7664 13.2221 
11.0608 -20.6483 13.3975 11.3101 -20.5449 13.5692 11.5613 -20.4453 13.7403 
11.823 -20.3665 13.9073 12.0858 -20.292 14.0738 12.3553 -20.2439 14.2371 
12.625 -20.2006 14.4001 12.8951 -20.188 14.5614 13.1642 -20.1803 14.7227 
13.4251 -20.2063 14.8845 13.6836 -20.2369 15.0467 13.9241 -20.3026 15.2115 
14.1613 -20.3727 15.3768 14.3706 -20.4776 15.5466 14.5758 -20.5864 15.7169 
14.7446 -20.7285 15.8924 14.9089 -20.8738 16.0683 15.0305 -21.0497 16.2486 
15.1479 -21.228 16.4293 15.2195 -21.4333 16.6127 15.2875 -21.6404 16.7961 
15.3104 -21.8702 16.9796 15.3303 -22.1013 17.1628 15.3091 -22.3508 17.343 
15.2858 -22.6011 17.5227 15.2284 -22.8656 17.6965 15.1697 -23.1307 17.8699 
15.0857 -23.4062 18.035 15.001 -23.682 18.1996 14.9007 -23.9652 18.3547 
14.8002 -24.2486 18.5094 14.6934 -24.5369 18.6541 14.5868 -24.8254 18.7985 
14.4822 -25.1171 18.933 14.3777 -25.409 19.0675 14.2818 -25.7032 19.1927 
14.186 -25.9975 19.3178 14.1033 -26.2939 19.4343 14.0206 -26.5903 19.5507 

LINES 2 240
OFFSETS vtktypeint64
0 240 
CONNECTIVITY vtktypeint64
0 1 2 3 4 5 6 7 8 
9 10 11 12 13 14 15 16 17 
18 19 20 21 22 23 24 25 26 
27 28 29 30 31 32 33 34 35 
36 37 38 39 40 41 42 43 44 
45 46 47 48 49 50 51 52 53 
54 55 56 57 58 59 60 61 62 
63 64 65 66 67 68 69 70 71 
72 73 74 75 76 77 78 79 80 
81 82 83 84 85 86 87 88 89 
90 91 92 93 94 95 96 97 98 
99 100 101 102 103 104 105 106 107 
108 109 110 111 112 113 114 115 116 
117 118 119 120 121 122 123 124 125 
126 127 128 129 130 131 132 133 134 
135 136 137 138 139 140 141 142 143 
144 145 146 147 148 149 150 151 152 
153 154 155 156 157 158 159 160 161 
162 163 164 165 166 167 168 169 170 
171 172 173 174 175 176 177 178 179 
180 181 182 183 184 185 186 187 188 
189 190 191 192 193 194 195 196 197 
198 199 200 201 202 203 204 205 206 
207 208 209 210 211 212 213 214 215 
216 217 218 219 220 221 222 223 224 
225 226 227 228 229 230 231 232 233 
234 235 236 237 238 239 
CELL_DATA 1
FIELD FieldData 3
Length 1 1 double
72.321672721 
Tortuosity 1 1 double
1.0168476803 
ClusterLabel 1 1 int
2 
POINT_DATA 240
FIELD FieldData 6
Curvature 1 240 double
0 0.1993736169 0.3987472338 0.36338765716 0.32603881618 0.27146960447 0.21660602746 0.16669600085 0.11691408332 
0.074666510941 0.032681002746 0.040411516543 0.05032255762 0.092790450675 0.13698702614 0.18813554153 0.23971855317 0.29194445717 
0.34421669574 0.37857923676 0.41147643889 0.41021685307 0.40582361698 0.3758976288 0.34337108254 0.30747683391 0.27120489904 
0.24548382576 0.22105672607 0.2105999099 0.20200579819 0.20474842489 0.20912615809 0.21920320281 0.23016557747 0.23975984082 
0.24912608562 0.25048181048 0.25040991792 0.23919055828 0.2258531799 0.20378828162 0.17996024801 0.15281009375 0.1249480565 
0.098285524033 0.071895044196 0.051751782339 0.03310524979 0.036954519338 0.046486938891 0.067165440108 0.090808324746 0.12012667808 
0.15103172158 0.19140574118 0.23455869943 0.29292139555 0.35596401102 0.43735960257 0.52466893086 0.61923319433 0.71624294157 
0.78599288557 0.84613994433 0.85325015818 0.84085256701 0.79271550442 0.73086445861 0.66397679035 0.59507447311 0.5334431737 
0.47484146505 0.42328788959 0.37479133577 0.33162095506 0.29085384759 0.25429129796 0.21970125694 0.18924344708 0.1608000999 
0.13716439763 0.11596294596 0.10035112706 0.087677448463 0.08115042352 0.077976118753 0.079383236051 0.083382473728 0.089363236779 
0.096506494717 0.104619152 0.11332130888 0.12247326459 0.13190865517 0.14201953188 0.15257135093 0.16456459462 0.17753232259 
0.19240980933 0.2086241272 0.22745902941 0.24819290578 0.27042897307 0.29379168356 0.31575402476 0.33662951219 0.35120715409 
0.36072743518 0.36086025703 0.35319426659 0.33797311455 0.31625924549 0.29149642833 0.26402343508 0.23711053995 0.21071257376 
0.18644156053 0.16419289602 0.14401805275 0.12588246701 0.10938799362 0.094562448032 0.080910834843 0.068493874693 0.056873250088 
0.046118815021 0.035886455945 0.026241432358 0.017839631771 0.010884490677 0.010205761659 0.017081973103 0.025392518871 0.035489216816 
0.045661681944 0.055931770173 0.065949991495 0.075632390275 0.084663360324 0.092795358724 0.10007356763 0.10613207727 0.11145441302 
0.1156878249 0.11971103889 0.12341224761 0.1277442815 0.13307740752 0.1398931877 0.14914711028 0.16020301305 0.17433047298 
0.1894288464 0.20624325296 0.22238094507 0.23727799402 0.24946632176 0.25650147257 0.25976644073 0.25558529818 0.24845663294 
0.23528176731 0.22089352302 0.20391886633 0.18704618424 0.17039949996 0.15449681173 0.14030944772 0.12690884504 0.11539646952 
0.10406198921 0.093172246899 0.082471329036 0.072262499117 0.06207004611 0.051922117829 0.042128809219 0.033342162899 0.026106864038 
0.023473895975 0.022670149252 0.027543296344 0.032626651795 0.038393184412 0.043631356466 0.04706918882 0.049737190685 0.049651568108 
0.048464518369 0.043136102502 0.036855514951 0.026805914487 0.017969180849 0.014194847878 0.014243370544 0.031147211244 0.048079173293 
0.065142368306 0.081915249267 0.097251075669 0.11216600788 0.12486570748 0.13718044949 0.14733515172 0.15744827285 0.16731190743 
0.17754937088 0.19019335765 0.2035593099 0.22193088949 0.24099618519 0.26526435167 0.28966840561 0.31518046498 0.3397728589 
0.35616490249 0.37078794376 0.36804259864 0.36365984023 0.34142927689 0.31841536611 0.28582720871 0.25319847366 0.22000672373 
0.18710183225 0.15878667586 0.13078351886 0.10865635045 0.086824092521 0.071715793412 0.056934976078 0.051569259772 0.046443014767 
0.05057632675 0.054761572647 0.061984952577 0.068858311199 0.0344291556 0 
Torsion 1 240 double
0 0 0 0.0038269362392 0.0076863041413 0.012701301376 0.017736052959 0.038977160138 0.060637397203 
0.4418844908 0.83563895331 0.60089746732 0.33859036954 0.19526751575 0.058262409424 0.040207240361 0.029586442376 0.031965050481 
0.035280552719 0.045684675971 0.056668777306 0.07694181312 0.098067044758 0.13313567625 0.16962446884 0.21960600928 0.27110075509 
0.3153923233 0.35880048294 0.3568122293 0.34877112056 0.29622402147 0.23725778916 0.17346529019 0.10892307989 0.06048217255 
0.0147248157 -0.013982604706 -0.039651422577 -0.051186590157 -0.060036364183 -0.054607886362 -0.046294913219 -0.012281792112 0.027238503559 
0.16427514049 0.32342888575 1.0913070284 2.0050253912 1.6108649039 0.8862929175 0.49940743044 0.20233218255 0.089220869824 
0.027540334664 -0.0035076681065 -0.025565688546 -0.039604404377 -0.051175641866 -0.060507091632 -0.069116832021 -0.077051995215 -0.084759772836 
-0.092778147957 -0.10090593811 -0.11014135871 -0.11978418361 -0.12781841017 -0.13523538388 -0.136589608 -0.13551873228 -0.12958403344 
-0.12162274163 -0.11377688486 -0.1059810963 -0.1029705694 -0.10211924593 -0.11202260607 -0.12697137332 -0.16058693135 -0.20330254987 
-0.27270687525 -0.35562446992 -0.44722898468 -0.54339970104 -0.56396848289 -0.54329984591 -0.45881023101 -0.3382113786 -0.24394840812 
-0.1651358217 -0.11552600387 -0.083674626394 -0.067829071533 -0.062069377495 -0.067659151823 -0.080657606889 -0.095925291909 -0.11272710422 
-0.12886462369 -0.14453713816 -0.15691652252 -0.1669095807 -0.17354714936 -0.17766810086 -0.18008439235 -0.18117766413 -0.18206940222 
-0.18279930267 -0.18497325942 -0.18834689371 -0.19323973537 -0.19943814585 -0.20593049666 -0.21268412778 -0.21906742983 -0.22511026807 
-0.23087355462 -0.23637103795 -0.24241252842 -0.24898895926 -0.25732364938 -0.26744639978 -0.28129110313 -0.29905027424 -0.32675604962 
-0.36528093841 -0.46286813117 -0.62690041592 -1.5498098992 -3.3557764862 -3.5094111789 -1.6741278504 -0.56551241699 -0.36180417349 
-0.21790068942 -0.1510533377 -0.093531629301 -0.04844411199 -0.0058425083264 0.033328534503 0.072897412617 0.11303462685 0.1542823405 
0.19717266788 0.23922501689 0.27999365436 0.31434790194 0.33852279165 0.35064785737 0.34295765696 0.32484276229 0.28895850239 
0.24963973523 0.20425067617 0.15984031287 0.11722422513 0.076779509391 0.040465696504 0.0053805639675 -0.027277924878 -0.059495793401 
-0.090809825369 -0.12090146615 -0.14838748363 -0.17307472828 -0.19155928717 -0.20572730939 -0.20994331651 -0.2091904419 -0.19651225111 
-0.18011230658 -0.15440797769 -0.12281297858 -0.07586653591 -0.014207844958 0.087449770998 0.24272857924 0.55022238492 0.83125366628 
1.0337794588 1.0806431029 0.6444173206 0.26926571742 0.092605196318 -0.058223686688 -0.12103365471 -0.17433242424 -0.19361036838 
-0.21252996771 -0.23010219055 -0.27429319651 -0.42385021897 -0.63411460171 -1.0977662274 -1.3611908694 -0.74179653828 -0.22713656135 
-0.20123690407 -0.18023079661 -0.18344776074 -0.18852731714 -0.20340999074 -0.21897126788 -0.23834026496 -0.25761565428 -0.27632939708 
-0.29308162992 -0.29720664243 -0.29854139589 -0.28053035326 -0.26098498621 -0.22993218599 -0.19861744639 -0.16516689334 -0.13226694637 
-0.10427657017 -0.076689031933 -0.053056630102 -0.029561334763 -0.0075605001871 0.014468609786 0.036843307948 0.059654266052 0.088518330859 
0.11840346029 0.16462562368 0.21316828134 0.30541358103 0.401642912 0.58870815615 0.77279383608 0.87121704479 0.96194757446 
0.75522784777 0.5473633026 0.2725268764 0 0 0 
FrenetTangent 3 240 double
-0.72480413985 -0.68018609683 -0.10957113 -0.72480413985 -0.68018609683 -0.10957113 -0.72480413985 -0.68018609683 -0.10957113 
-0.72717114437 -0.67620928387 0.0068332695742 -0.72955820825 -0.6721987691 0.12422414711 -0.71896672575 -0.65723097548 0.20892311298 
-0.70815338776 -0.64207587794 0.29306324275 -0.69665388724 -0.62742846018 0.34374044985 -0.68513664114 -0.61279417207 0.39355223654 
-0.67928098543 -0.60412719463 0.41597953959 -0.67362225459 -0.59566777582 0.43745433887 -0.67567029672 -0.59460416594 0.43577742343 
-0.6780563552 -0.59386493364 0.43308508191 -0.68779319163 -0.59984503244 0.40776955476 -0.69792033485 -0.60618190989 0.38125279652 
-0.71254102797 -0.61664329883 0.32999589734 -0.72744256796 -0.62736246973 0.27719273934 -0.74028288507 -0.63704108451 0.19846543128 
-0.75297464557 -0.64664470425 0.11786971602 -0.75414508704 -0.64847269575 0.017404166748 -0.75437287514 -0.64966449948 -0.084687096214 
-0.73672785159 -0.63972019812 -0.19038822935 -0.71744312056 -0.62875423573 -0.29642054324 -0.68269198491 -0.61063740761 -0.38874230066 
-0.6463655673 -0.59179225057 -0.47966761251 -0.60171907711 -0.57325867917 -0.5498242632 -0.55613949466 -0.55476005197 -0.61765171824 
-0.50698343956 -0.54171461542 -0.66687214869 -0.45738876047 -0.5293379664 -0.71381058556 -0.40490466354 -0.52392417378 -0.74685461982 
-0.35203531089 -0.519438762 -0.77804606706 -0.29475359897 -0.52081472663 -0.79885654908 -0.23683548907 -0.52303608209 -0.81816977649 
-0.17297738813 -0.52826584561 -0.82870232634 -0.10819657015 -0.53396293464 -0.83787088744 -0.037915530926 -0.53875590666 -0.83861827732 
0.033282211833 -0.5433981925 -0.83796213867 0.10632593203 -0.54347236591 -0.82941898272 0.1796986383 -0.54273242027 -0.81947021973 
0.24881996972 -0.53595698858 -0.8036892492 0.31713353992 -0.52803481454 -0.78680015923 0.37550597978 -0.51584404178 -0.76762397766 
0.43187011048 -0.50279092583 -0.74798575738 0.47550960072 -0.48936044374 -0.72957816698 0.51642238229 -0.47584909748 -0.71143428299 
0.54477268123 -0.46594865938 -0.69656861503 0.57027375731 -0.45686719014 -0.68244645999 0.58475325954 -0.45429290327 -0.67190308891 
0.59659217637 -0.45327762885 -0.66221713483 0.59884825243 -0.46048287212 -0.65514372854 0.59868340029 -0.46976487776 -0.64873033433 
0.58948448518 -0.48815182067 -0.64314997904 0.57788289375 -0.50896028946 -0.63779117666 0.55655244911 -0.53923386719 -0.63073620011 
0.53250211003 -0.57215360442 -0.62320702432 0.49656711527 -0.61424468683 -0.61034942047 0.45714423244 -0.65902735967 -0.59592803883 
0.40223992157 -0.71096004911 -0.5707859443 0.34257209437 -0.76509274366 -0.54234516888 0.26360065562 -0.81997581562 -0.49578649459 
0.17840916425 -0.87510067587 -0.44338983068 0.074362562218 -0.916929986 -0.36601094973 -0.036039695093 -0.95427765001 -0.28021109674 
-0.15333692712 -0.95958804791 -0.17116868834 -0.27306307069 -0.95361259071 -0.053938561559 -0.37808827273 -0.90792264052 0.070521537771 
-0.47770623191 -0.84762506073 0.19764093735 -0.54820879005 -0.76016298772 0.31306581768 -0.60753915941 -0.66227733012 0.4240032662 
-0.63855174083 -0.55600226749 0.51503927604 -0.65823720706 -0.44637144286 0.5981147104 -0.65770715643 -0.3405241837 0.66218948216 
-0.64875397377 -0.23625341016 0.71834731117 -0.62786416442 -0.14150423322 0.75931092351 -0.60179702301 -0.050884905417 0.7936842732 
-0.57038439931 0.027962803733 0.81707676322 -0.53655978969 0.10149892885 0.8355144751 -0.50202515948 0.16300147196 0.84700738663 
-0.46715743318 0.2188586309 0.85524224367 -0.43422439506 0.26360792665 0.86002467855 -0.40223451741 0.30294213909 0.86312405762 
-0.37303132474 0.3328038379 0.8653531878 -0.34523911179 0.35786932728 0.86714168562 -0.31980839458 0.37531009476 0.86958560177 
-0.29561897641 0.3887429956 0.87237403268 -0.27267920407 0.39623609311 0.87645337276 -0.25042105674 0.40048929789 0.88123684512 
-0.22806558503 0.40028916508 0.88728174299 -0.20565504822 0.39756938075 0.89404034213 -0.18193038279 0.39160480371 0.90161835166 
-0.1574347619 0.38373661496 0.90967708196 -0.13077460313 0.37320102907 0.91801648037 -0.10279817132 0.36104337737 0.92652655534 
-0.072221516375 0.34624939052 0.9347302808 -0.040006364655 0.32979415138 0.94274096409 -0.0051198709249 0.31035536658 0.94978459187 
0.031510415507 0.28896898946 0.95619694728 0.070599357075 0.2636849092 0.96094722225 0.11135048803 0.23576576203 0.9645738372 
0.15405073402 0.20269002248 0.96562844905 0.19811536054 0.16600466825 0.96488265872 0.24315999634 0.122789092 0.9602666395 
0.2889147838 0.074841470786 0.9528461066 0.33386797459 0.019438450171 0.93980841288 0.37821996786 -0.041556119998 0.92255784857 
0.4189033784 -0.10940595577 0.89793019418 0.4567395307 -0.18257629617 0.86757703707 0.48742801049 -0.25959549779 0.82930163326 
0.51237669265 -0.33970545158 0.78466442531 0.52772458558 -0.41864676413 0.73408537124 0.53509643823 -0.4966172055 0.67857001425 
0.53299114803 -0.56882341947 0.62125692788 0.52274143819 -0.63607600053 0.56239891782 0.50543543345 -0.69546205178 0.50593610985 
0.48185716657 -0.74785563207 0.45160237041 0.45439272932 -0.79267498025 0.40221728787 0.42335552255 -0.83053092148 0.35738177701 
0.39110591884 -0.86226902063 0.31825621596 0.35770354425 -0.88819015516 0.28455978752 0.32494976561 -0.90958583939 0.2562398117 
0.29283377297 -0.9265314975 0.23320668094 0.26257497948 -0.94027362345 0.21473301696 0.23420486311 -0.95075792008 0.20089609887 
0.20843199651 -0.95904575011 0.19061912043 0.18539072017 -0.9650235032 0.18408621646 0.16535917107 -0.96954842948 0.18005233212 
0.14860136036 -0.97249308802 0.17873667966 0.13502782187 -0.97453057546 0.17883674645 0.12503658965 -0.97554749543 0.18052949739 
0.11821912281 -0.97605241545 0.18257767783 0.11509476476 -0.97596155371 0.18503944896 0.11500504064 -0.97561704179 0.18690914891 
0.1185681166 -0.9749672102 0.18806617056 0.12494776259 -0.974170032 0.18790914457 0.13483483539 -0.97318936556 0.18611575737 
0.14725863879 -0.9719969962 0.18260236743 0.16295092198 -0.97053185577 0.17687282011 0.18088483587 -0.96861301518 0.16942417949 
0.20180759067 -0.96608924103 0.15968341447 0.22466802605 -0.96274047142 0.14865028106 0.25020246064 -0.95825320806 0.13583367929 
0.27732480464 -0.95254757373 0.12251633178 0.30671559068 -0.94510140945 0.10848363321 0.33732545225 -0.93611960644 0.09500339921 
0.36973852973 -0.92486633782 0.082340352393 0.40300791656 -0.91188082688 0.071384402054 0.43758909645 -0.89624166815 0.063043578232 
0.47267746944 -0.87874918955 0.057494589255 0.50857073582 -0.85831557292 0.056376120791 0.54460789063 -0.83586243518 0.058911340372 
0.58088166197 -0.81008830716 0.067454846961 0.61684638241 -0.78195521024 0.080142829503 0.65228431156 -0.74980114357 0.099895259693 
0.68671793133 -0.7148139449 0.12370090665 0.71937649268 -0.67481935011 0.15467037858 0.75007713143 -0.63166025521 0.18876635248 
0.77718824545 -0.58269957678 0.22859424666 0.80142561888 -0.53083100613 0.26972914387 0.82019587608 -0.47343034786 0.31335053465 
0.83573222093 -0.41425472343 0.35602434106 0.84488158892 -0.35157354084 0.39682666837 0.85132145097 -0.28873741222 0.43486555491 
0.85220335214 -0.22558344559 0.46723584503 0.85147072156 -0.16364942548 0.4960494823 0.84729658911 -0.10431581767 0.51728183325 
0.84255723078 -0.047002510725 0.53510747573 0.83656520973 0.0058333726914 0.54538311567 0.83066416935 0.056359667356 0.55294540539 
0.82497288997 0.10156107684 0.55425191543 0.81961994491 0.1445013848 0.55372402122 0.81507900223 0.18201504906 0.54879355681 
0.81087576321 0.21736644421 0.54291046896 0.80751678335 0.24731216655 0.53464582252 0.8043874002 0.27524950495 0.52622298907 
0.80185636001 0.29795287305 0.5173879107 0.79940594276 0.3188981436 0.50902465234 0.79717471912 0.33506358647 0.50194415467 
0.79487252988 0.3497605637 0.49576804271 0.79236888988 0.36028899335 0.49215921922 0.78963016993 0.36973535496 0.48965014404 
0.78619404609 0.37597158139 0.49040365556 0.78236826324 0.38158115455 0.49220729579 0.7773331938 0.38524594172 0.49726995615 
0.77181020045 0.38874104193 0.50312529212 0.76470145442 0.39168465953 0.51155682383 0.75714029169 0.39480824111 0.52036964088 
0.74803756097 0.39854503328 0.53048165243 0.73869574772 0.40259906639 0.54051297017 0.72849875463 0.40778784595 0.55025565237 
0.71847017127 0.41313344786 0.5595121636 0.7090748085 0.41906870183 0.56694067196 0.70033399147 0.42477835126 0.57364453912 
0.69418408472 0.42959498273 0.57748003487 0.68908859264 0.43370583325 0.58056482458 0.68839413577 0.4348708154 0.58051623256 
0.68896061869 0.43486726876 0.57982577834 0.69508669983 0.42971157245 0.57630529529 0.70238167558 0.42307651128 0.57231287974 
0.71513149286 0.40953774745 0.56611811248 0.72867357015 0.39437596118 0.55966342176 0.74613733452 0.37118021384 0.55192210997 
0.76384312281 0.34637416697 0.54416655477 0.78282272127 0.31309285946 0.53633603424 0.80144056318 0.27836626641 0.52877423833 
0.81802854888 0.2355300156 0.5227202861 0.83372648748 0.19149275981 0.51720486512 0.84408414351 0.14024947407 0.51492063161 
0.85312224319 0.088036593858 0.51338896 0.85366569883 0.029581949173 0.51670190556 0.85251771168 -0.029659949505 0.52084360663 
0.83964238786 -0.09436014253 0.53073134598 0.82472951879 -0.15964011447 0.54129534354 0.79453506026 -0.2292684283 0.55693127768 
0.76205731702 -0.29909340596 0.57283812253 0.71096202141 -0.37052195019 0.59095393163 0.65772147242 -0.44150592459 0.60873744622 
0.58535241414 -0.50852581802 0.62355800135 0.51160247359 -0.57440289333 0.63752614028 0.42429477982 -0.62905957242 0.64312510194 
0.3367725044 -0.68226201901 0.64773861191 0.246911289 -0.71961333114 0.64161069856 0.15778270851 -0.75574139368 0.63475849703 
0.077608554679 -0.7769186279 0.61905388435 -0.001451211896 -0.79735791065 0.60300964311 -0.065048855318 -0.80755811664 0.58225305552 
-0.12758900823 -0.81744466084 0.56143510597 -0.17320931291 -0.82231261663 0.53963536497 -0.21800138214 -0.8271161448 0.51790719842 
-0.24719501704 -0.83070628609 0.4975270171 -0.27579607001 -0.83433678971 0.477254541 -0.29088625508 -0.83888755436 0.45943774375 
-0.30557643003 -0.84350000473 0.44171535329 -0.30876631378 -0.84988591966 0.42670715824 -0.31170856333 -0.85631673363 0.41175957363 
-0.30507562395 -0.8644836441 0.39915559267 -0.29831111727 -0.87267032399 0.38657859765 -0.28384992422 -0.88201351523 0.37558027993 
-0.26951025381 -0.89127819225 0.36467438504 -0.26951025381 -0.89127819225 0.36467438504 -0.26951025381 -0.89127819225 0.36467438504 

FrenetNormal 3 240 double
-0.10538357789 -0.047712029701 0.99328639562 -0.10538357789 -0.047712029701 0.99328639562 -0.10538357789 -0.047712029701 0.99328639562 
-0.021413609506 0.033054121291 0.99223410306 0.063267968781 0.11450473119 0.99117289275 0.12326294044 0.17448104015 0.97306867418 
0.18283591882 0.23409026705 0.95467312214 0.21324843783 0.27583178696 0.93566781639 0.24290680702 0.31711121101 0.91664674115 
0.20838653749 0.38287083064 0.89651950673 0.17163396748 0.44948193533 0.87635379721 -0.10306974529 0.14464866759 0.031056207922 
-0.38820991169 -0.17647602 -0.8504313761 -0.3606613329 -0.20421457502 -0.90878785748 -0.3165098119 -0.21637510532 -0.92343826261 
-0.27039187535 -0.19155202859 -0.9417866182 -0.22415103784 -0.16441747642 -0.96036609569 -0.15930340037 -0.11910768837 -0.97652614101 
-0.093114732276 -0.072487973412 -0.99251181284 -0.0094225233073 -0.0157326091 -0.99452459638 0.075701793551 0.041852035614 -0.9953941436 
0.16875849455 0.095752097527 -0.9747662225 0.26254293721 0.14931412432 -0.95216605659 0.35465135519 0.18322954041 -0.9106604425 
0.44658906694 0.21514391282 -0.8672292735 0.53463152477 0.21589330506 -0.81023576954 0.62223713169 0.21314755934 -0.75172125606 
0.70355322759 0.17650634562 -0.67831220678 0.78409796836 0.13570814053 -0.60307646914 0.84578253893 0.077495127411 -0.51292447129 
0.90495242013 0.016960139887 -0.42078363875 0.93836078075 -0.028785701183 -0.32744632469 0.96805353744 -0.072398492285 -0.23393644119 
0.98153869929 -0.083879495367 -0.15140181318 0.99250617651 -0.090369152738 -0.070572079226 0.99503328654 -0.06844859221 -0.0010132192976 
0.9961536687 -0.041792995366 0.066667161626 0.98937476199 0.0025644197932 0.12515087664 0.98118806121 0.050076614454 0.18199558188 
0.96498371594 0.10327928975 0.22988111154 0.94725601821 0.15756315638 0.27606439783 0.92466746879 0.20637332254 0.3136428219 
0.90109692912 0.25407769063 0.34948288996 0.87824180154 0.28444796841 0.3816104802 0.85553997656 0.31110379827 0.41294253948 
0.83684896204 0.29156560634 0.45941958957 0.81906761586 0.26155041977 0.50933158604 0.70958412852 0.00671464204 0.61191931896 
0.57813033652 -0.30198440232 0.72712728041 0.19181908684 -0.56957910567 0.57725750522 -0.25887720478 -0.82678955445 0.36042072287 
-0.42736471697 -0.85792610795 0.259621083 -0.52079670271 -0.82893662547 0.18968238527 -0.56903621279 -0.80055207574 0.18231045932 
-0.6046412673 -0.77233664699 0.19243031902 -0.63469041983 -0.73680241853 0.22513437688 -0.66310903589 -0.69912028147 0.26446640595 
-0.6901027755 -0.64506468647 0.3171581028 -0.71665809157 -0.58597110443 0.37396046667 -0.737111471 -0.50197930613 0.43831310544 
-0.75559867084 -0.40996474927 0.50509861057 -0.75648162651 -0.28868028306 0.56951267099 -0.75143056729 -0.15752955528 0.63312736802 
-0.71608787907 -0.0066020254599 0.67850588605 -0.67007427608 0.15129233235 0.71746029556 -0.59285621942 0.30333258461 0.72676164147 
-0.50416066256 0.45321960265 0.72515611342 -0.39815191168 0.57453342933 0.69785147546 -0.28549972588 0.68488312444 0.66068555114 
-0.17214235288 0.76195760091 0.60914537682 -0.058502904987 0.82572198993 0.5518555025 0.045871543288 0.86294997832 0.48933108195 
0.14638557506 0.88912113311 0.42462560045 0.23420927776 0.8972452126 0.36087909337 0.31652874135 0.89754164499 0.29754852699 
0.38685322301 0.88658366889 0.23971730318 0.45176533478 0.87054748408 0.18436749005 0.50889696384 0.84675633637 0.13867907803 
0.56237848988 0.81932705792 0.097523175174 0.61501966938 0.78257188928 0.070670221067 0.66725117992 0.74127034918 0.050789954476 
0.72504581693 0.68122522543 0.050600104972 0.78565722682 0.61168967958 0.060380086906 0.84629210039 0.50657004767 0.092682525164 
0.90693930743 0.38274596027 0.13682369046 0.94029191573 0.23302282744 0.18722170792 0.95875656108 0.069172942567 0.24103255383 
0.95245217977 -0.065893806555 0.27452811401 0.93213374391 -0.18467536045 0.29652949938 0.91448023423 -0.26558490825 0.29987246695 
0.89839014791 -0.32427621248 0.29226916275 0.88694863211 -0.36824127485 0.27604805335 0.87833394974 -0.40325119014 0.25458638673 
0.87156550666 -0.43264072066 0.22760228208 0.86596044725 -0.45848863886 0.19713828497 0.85765437248 -0.48569194639 0.16332890765 
0.84758513492 -0.51378002196 0.12733574048 0.83104597548 -0.54649372542 0.088900078759 0.81013278434 -0.58233461395 0.048813153112 
0.78199500976 -0.62008832834 0.0053998013213 0.74880002678 -0.65918102085 -0.04034204877 0.7065694072 -0.69805051981 -0.089666976654 
0.65779122488 -0.73675828432 -0.14158833772 0.6005272783 -0.77039311753 -0.19741318078 0.53689900853 -0.80022325228 -0.25616563533 
0.46505039041 -0.82150056977 -0.3170584751 0.38682180044 -0.83613987982 -0.37961250936 0.30221285101 -0.83978726886 -0.44051078142 
0.21248027958 -0.83460781223 -0.50007942625 0.11968492126 -0.81875507943 -0.5529716177 0.024345093811 -0.79403531719 -0.60031721712 
-0.070691998835 -0.76188222364 -0.63691945905 -0.16546892876 -0.72334111099 -0.66428912816 -0.25720875216 -0.68132651021 -0.67957427939 
-0.3462489253 -0.63622436443 -0.68411763695 -0.43059992296 -0.59060658001 -0.67744604139 -0.51063990446 -0.5445147407 -0.66046392443 