# vtk DataFile Version 5.1
vtk output
ASCII
DATASET POLYDATA
POINTS 240 float
0 0 0 -0.278515 -0.221966 -0.146143 -0.55703 -0.443932 -0.292285 
-0.821541 -0.674977 -0.350436 -1.08593 -0.9061 -0.407841 -1.33899 -1.1422 -0.392874 
-1.59186 -1.37839 -0.376669 -1.83605 -1.61553 -0.303718 -2.08 -1.85269 -0.2293 
-2.31789 -2.08689 -0.114196 -2.55557 -2.32098 0.00232192 -2.78967 -2.54836 0.142555 
-3.02361 -2.77545 0.283829 -3.25618 -2.99246 0.43077 -3.48867 -3.20893 0.578012 
-3.72135 -3.41252 0.712304 -3.95404 -3.6153 0.845786 -4.18741 -3.80333 0.948451 
-4.42082 -3.99029 1.0489 -4.65396 -4.1618 1.10329 -4.88707 -4.33204 1.15392 
-5.11727 -4.48749 1.1479 -5.34719 -4.64159 1.13669 -5.56996 -4.78279 1.06426 
-5.792 -4.92269 0.985594 -6.00147 -5.05254 0.847496 -6.20954 -5.18128 0.702733 
-6.39903 -5.30322 0.505793 -6.58625 -5.42433 0.302455 -6.74902 -5.54183 0.0578764 
-6.90852 -5.65885 -0.192201 -7.03854 -5.775 -0.47107 -7.1643 -5.89102 -0.754091 
-7.25718 -6.00826 -1.05386 -7.34496 -6.12568 -1.35624 -7.39881 -6.2457 -1.66512 
-7.447 -6.36615 -1.97508 -7.46276 -6.48986 -2.28383 -7.47274 -6.61416 -2.59235 
-7.45394 -6.74179 -2.89473 -7.42968 -6.87006 -3.19593 -7.38141 -7.00124 -3.48873 
-7.32829 -7.13302 -3.77982 -7.25572 -7.26696 -4.06252 -7.17898 -7.40136 -4.34343 
-7.086 -7.53697 -4.61769 -6.98934 -7.67286 -4.89044 -6.87774 -7.80894 -5.15922 
-6.76258 -7.94508 -5.42704 -6.63225 -8.0806 -5.69369 -6.4981 -8.21596 -5.96003 
-6.34815 -8.35057 -6.22722 -6.194 -8.48498 -6.49463 -6.02455 -8.61967 -6.76314 
-5.85081 -8.75445 -7.03196 -5.66463 -8.89192 -7.29967 -5.47479 -9.03019 -7.56704 
-5.27834 -9.1747 -7.82808 -5.07985 -9.32113 -8.08716 -4.8831 -9.47752 -8.33173 
-4.6869 -9.63713 -8.57161 -4.50202 -9.80934 -8.78646 -4.32096 -9.98581 -8.99287 
-4.16031 -10.1751 -9.16271 -4.00684 -10.369 -9.31966 -3.88069 -10.5727 -9.42932 
-3.76458 -10.78 -9.5216 -3.67932 -10.9911 -9.55878 -3.60588 -11.2035 -9.57481 
-3.56302 -11.411 -9.53264 -3.53238 -11.6165 -9.46719 -3.52864 -11.8073 -9.34598 
-3.53611 -11.992 -9.20153 -3.56442 -12.1528 -9.00906 -3.60176 -12.3032 -8.79575 
-3.6527 -12.4225 -8.54608 -3.70978 -12.5278 -8.28 -3.77337 -12.5979 -7.99105 
-3.84001 -12.6516 -7.69136 -3.90733 -12.6701 -7.38179 -3.97499 -12.6714 -7.0674 
-4.03954 -12.6412 -6.75369 -4.10251 -12.5951 -6.44033 -4.16089 -12.5244 -6.13467 
-4.21686 -12.4408 -5.83306 -4.26895 -12.3413 -5.54238 -4.31893 -12.2331 -5.25767 
-4.36745 -12.1173 -4.98379 -4.41515 -11.9971 -4.71605 -4.46476 -11.8755 -4.45671 
-4.51549 -11.7532 -4.20229 -4.57147 -11.6328 -3.95264 -4.63063 -11.5137 -3.70588 
-4.69736 -11.3972 -3.45996 -4.76883 -11.2824 -3.21458 -4.84837 -11.169 -2.96651 
-4.93318 -11.0565 -2.71668 -5.02449 -10.9434 -2.46147 -5.12019 -10.8299 -2.20262 
-5.21894 -10.7143 -1.93668 -5.31983 -10.5973 -1.66577 -5.41912 -10.4781 -1.38706 
-5.51726 -10.3573 -1.10272 -5.60881 -10.2362 -0.810696 -5.69544 -10.1148 -0.512919 
-5.771 -9.99701 -0.208207 -5.83797 -9.88202 0.101887 -5.89059 -9.77623 0.417683 
-5.93169 -9.67782 0.738059 -5.95682 -9.59504 1.06239 -5.96868 -9.52522 1.39001 
-5.96472 -9.47713 1.7192 -5.94718 -9.44772 2.04972 -5.91556 -9.44478 2.37857 
-5.87143 -9.46536 2.70594 -5.81607 -9.51499 3.02744 -5.7504 -9.59132 3.34355 
-5.67692 -9.6968 3.64875 -5.59602 -9.82999 3.94359 -5.51083 -9.99009 4.22188 
-5.42142 -10.1767 4.48391 -5.33104 -10.386 4.72376 -5.23967 -10.6186 4.94107 
-5.15023 -10.8689 5.13124 -5.06282 -11.1376 5.29286 -4.97973 -11.4183 5.42387 
-4.90135 -11.712 5.52157 -4.82914 -12.0125 5.58727 -4.76384 -12.3206 5.61697 
-4.70595 -12.6311 5.61576 -4.65665 -12.9444 5.57857 -4.61537 -13.2569 5.51407 
-4.58374 -13.5686 5.41668 -4.56008 -13.8779 5.29776 -4.54635 -14.1843 5.15201 
-4.53996 -14.4882 4.99201 -4.54304 -14.7886 4.81366 -4.55238 -15.0872 4.62906 
-4.57006 -15.3831 4.43615 -4.59271 -15.6784 4.24486 -4.62221 -15.9728 4.05581 
-4.65536 -16.268 3.87527 -4.69375 -16.5643 3.70689 -4.73465 -16.8625 3.55239 
-4.77927 -17.1637 3.41839 -4.82537 -17.4677 3.30167 -4.87374 -17.776 3.2114 
-4.92257 -18.0874 3.13975 -4.97213 -18.4038 3.09763 -5.02094 -18.7234 3.0735 
-5.06851 -19.0481 3.07898 -5.11374 -19.3755 3.10023 -5.15499 -19.7076 3.1484 
-5.1919 -20.0416 3.20907 -5.22111 -20.3791 3.29187 -5.24361 -20.7175 3.38347 
-5.25379 -21.0576 3.49119 -5.25481 -21.3972 3.60413 -5.23839 -21.7358 3.72701 
-5.21064 -22.0722 3.8521 -5.16054 -22.404 3.98156 -5.09768 -22.7312 4.11107 
-5.00866 -23.0492 4.24067 -4.90645 -23.3602 4.36908 -4.77616 -23.6562 4.49499 
-4.63341 -23.9425 4.61944 -4.46307 -24.2073 4.74066 -4.28204 -24.4598 4.86098 
-4.07636 -24.684 4.97921 -3.86252 -24.8939 5.09774 -3.62908 -25.0694 5.21696 
-3.39035 -25.2295 5.33802 -3.13839 -25.3509 5.46366 -2.88393 -25.4571 5.59269 
-2.62295 -25.5234 5.73057 -2.36177 -25.5761 5.87309 -2.10005 -25.5915 6.02822 
-1.83969 -25.5963 6.18868 -1.58316 -25.5705 6.36425 -1.32869 -25.5377 6.54517 
-1.08034 -25.4843 6.74197 -0.834006 -25.4279 6.94355 -0.593946 -25.3623 7.15993 
-0.355331 -25.2974 7.38006 -0.12141 -25.2342 7.61238 0.111907 -25.1741 7.8472 
0.343167 -25.1245 8.09052 0.574698 -25.0791 8.33504 0.807194 -25.049 8.58386 
1.04068 -25.0231 8.8327 1.27789 -25.013 9.08163 1.51657 -25.0062 9.32961 
1.76109 -25.012 9.57382 2.00731 -25.0195 9.81637 2.26059 -25.0339 10.052 
2.51557 -25.0481 10.2854 2.77799 -25.0618 10.5093 3.04194 -25.0737 10.7309 
3.31303 -25.0775 10.9413 3.58542 -25.0783 11.1493 3.86424 -25.0641 11.3451 
4.14412 -25.046 11.5386 4.42961 -25.0079 11.7196 4.71595 -24.9657 11.8985 
5.00707 -24.9005 12.0653 5.29886 -24.8314 12.2303 5.59464 -24.7387 12.3847 
5.89087 -24.6428 12.5378 6.19006 -24.5256 12.6827 6.48945 -24.406 12.8268 
6.79026 -24.27 12.9662 7.09096 -24.1328 13.1056 7.39076 -23.9868 13.2448 
7.69007 -23.8408 13.3845 7.98531 -23.6956 13.5289 8.27963 -23.5519 13.6743 
8.5659 -23.4206 13.8289 8.85087 -23.2919 13.9848 9.12313 -23.1884 14.1534 
9.39378 -23.0883 14.3233 9.64705 -23.0256 14.5075 9.89853 -22.9669 14.6929 
10.128 -22.9561 14.8924 10.3556 -22.9493 15.0927 10.5572 -22.9976 15.3053 
10.7569 -23.0495 15.5185 10.9272 -23.159 15.7409 11.0959 -23.2716 15.9636 
11.2329 -23.4395 16.1922 11.3685 -23.6095 16.4208 11.4708 -23.8281 16.6522 
11.5719 -24.0479 16.8836 11.6389 -24.3059 17.1151 11.7051 -24.5645 17.3465 
11.7368 -24.8486 17.5759 11.7679 -25.1328 17.8052 11.7645 -25.4284 18.0308 
11.7608 -25.7239 18.2563 11.7226 -26.0161 18.4764 11.6843 -26.3083 18.6965 

LINES 2 240
OFFSETS vtktypeint64
0 240 
CONNECTIVITY vtktypeint64
0 1 2 3 4 5 6 7 8 
9 10 11 12 13 14 15 16 17 
18 19 20 21 22 23 24 25 26 
27 28 29 30 31 32 33 34 35 
36 37 38 39 40 41 42 43 44 
45 46 47 48 49 50 51 52 53 
54 55 56 57 58 59 60 61 62 
63 64 65 66 67 68 69 70 71 
72 73 74 75 76 77 78 79 80 
81 82 83 84 85 86 87 88 89 
90 91 92 93 94 95 96 97 98 
99 100 101 102 103 104 105 106 107 
108 109 110 111 112 113 114 115 116 
117 118 119 120 121 122 123 124 125 
126 127 128 129 130 131 132 133 134 
135 136 137 138 139 140 141 142 143 
144 145 146 147 148 149 150 151 152 
153 154 155 156 157 158 159 160 161 
162 163 164 165 166 167 168 169 170 
171 172 173 174 175 176 177 178 179 
180 181 182 183 184 185 186 187 188 
189 190 191 192 193 194 195 196 197 
198 199 200 201 202 203 204 205 206 
207 208 209 210 211 212 213 214 215 
216 217 218 219 220 221 222 223 224 
225 226 227 228 229 230 231 232 233 
234 235 236 237 238 239 
CELL_DATA 1
FIELD FieldData 3
Length 1 1 double
78.019481306 
Tortuosity 1 1 double
1.2729608205 
ClusterLabel 1 1 int
1 
POINT_DATA 240
FIELD FieldData 6
Curvature 1 240 double
0 0.15669171563 0.31338343127 0.30871940577 0.30268795875 0.27425855913 0.24544628852 0.20944934174 0.17326658437 
0.13879155439 0.10437592363 0.075057893802 0.045963442963 0.050639717171 0.057109127223 0.096995401354 0.13897022949 0.19545916448 
0.25299416123 0.31578882151 0.37901381791 0.41977072159 0.45846633236 0.45169170622 0.44028585226 0.40041567564 0.35735323853 
0.31577740291 0.27438388634 0.24626048515 0.21990643267 0.20516989657 0.1921089638 0.18541070068 0.17970081342 0.17555437684 
0.17166851536 0.16630163179 0.16067080368 0.15273302122 0.14435691745 0.13474871781 0.12489160992 0.11564018147 0.10651854147 
0.099715718065 0.093438811829 0.089692007247 0.086551372852 0.083802567634 0.081152750839 0.076566772252 0.071465857019 0.065143044851 
0.058478627087 0.05670201979 0.056359878608 0.067618639858 0.08244690955 0.1094405162 0.14035406477 0.18816464955 0.24167086451 
0.32492065364 0.41864829275 0.54949721715 0.69399994763 0.82071823317 0.94061225495 0.94717433213 0.90840363147 0.80511593893 
0.67494616642 0.56632108163 0.46704068067 0.39847581416 0.34377039613 0.30640628095 0.27717759179 0.25492204841 0.2360659136 
0.217440756 0.19893254889 0.17782893486 0.15536106849 0.1306550196 0.1047281439 0.081810868558 0.060596393431 0.055439444855 
0.059702911855 0.06809401711 0.078995172653 0.081653951321 0.079118903465 0.068897823029 0.053659471326 0.036279873825 0.017452673529 
0.017211092132 0.029979443964 0.045543565782 0.063133607882 0.080404762085 0.097436750366 0.11527391879 0.13373600315 0.15331309499 
0.17378557163 0.19437975526 0.21507504931 0.23372443393 0.25061561515 0.26371492413 0.27344368001 0.2796603556 0.28264818318 
0.28439864533 0.2849725961 0.28686990476 0.29006851534 0.29598288676 0.30465904886 0.31515836326 0.32757513096 0.33848889928 
0.34776782617 0.35057050632 0.34608740889 0.33319139952 0.3105058199 0.28206473356 0.24669572247 0.21016623779 0.17219163507 
0.13614328239 0.10257682881 0.076083623628 0.059021416318 0.057063789553 0.075950483941 0.099487930914 0.12966931015 0.15869507754 
0.18601150239 0.20851902656 0.22365972413 0.23179504482 0.22881313698 0.22041341814 0.20310441012 0.18447858564 0.16360818766 
0.14515625548 0.13097882097 0.12112451891 0.11919595964 0.12079175202 0.12909240848 0.1389450895 0.15186301901 0.16501405051 
0.17864323996 0.19207815558 0.20509896119 0.21807647191 0.23095803179 0.24415401515 0.25807491926 0.27184854097 0.28526868488 
0.29684127604 0.30379498534 0.30654483782 0.29833918464 0.28547130116 0.25992797906 0.23209271722 0.19775130386 0.16403267788 
0.13216165445 0.10379580906 0.086308102405 0.073214984526 0.074404280174 0.076612272901 0.082291381603 0.08673548023 0.08676204282 
0.085627065036 0.080124695448 0.074365336056 0.067588725352 0.062081387025 0.061871881222 0.063267700214 0.071741542171 0.080918574825 
0.093377164061 0.10545119862 0.1156216875 0.1248874532 0.1293915179 0.13276058648 0.12976106575 0.12564543437 0.11483313918 
0.10336168156 0.087646865792 0.071606843189 0.053312053172 0.036498926749 0.030798277287 0.028083857575 0.04971869582 0.072255760111 
0.10283767331 0.13411461008 0.1722154146 0.21079478509 0.25459052455 0.29787145224 0.33486023612 0.37011774648 0.38135383666 
0.39072303417 0.37022194891 0.34892858498 0.31271397283 0.27658873522 0.24250123698 0.20875787758 0.18490850938 0.1613200784 
0.14782121971 0.13449972045 0.13155374714 0.12809431849 0.064047159244 0 
Torsion 1 240 double
0 0 0 0.021075629337 0.042329865702 0.055626569851 0.068787247809 0.098024097188 0.12767670962 
0.22397702215 0.32259551554 1.0107311696 1.7247228394 1.5327163717 1.2926038081 0.82718969953 0.34769424434 0.24694581743 
0.17349447364 0.15084905045 0.13236047531 0.13038027639 0.1299146074 0.14095487274 0.15316703879 0.17439734415 0.19663902962 
0.21979022237 0.24305295846 0.25295783251 0.26108165828 0.24978522414 0.23568779098 0.21227382289 0.18741262606 0.16414646792 
0.14114614955 0.12164988178 0.10277809828 0.082245441714 0.061397219265 0.030524544167 -0.0023732728815 -0.048497055797 -0.097454974257 
-0.13905573794 -0.17898786858 -0.17579995252 -0.16228119193 -0.10438927075 -0.035287287941 0.071612843514 0.18856567408 0.38056691554 
0.59354943316 0.74452798381 0.87730971807 0.73876290643 0.51673038837 0.34534797049 0.19028614044 0.095846810073 0.02184203016 
-0.026921879429 -0.066794118792 -0.090646626844 -0.10860681993 -0.11970070892 -0.12815985332 -0.14002038057 -0.15324146097 -0.16770028799 
-0.18267484277 -0.18743640133 -0.18776822658 -0.17630569422 -0.15952131756 -0.13851523424 -0.11552859718 -0.092553414115 -0.069583814877 
-0.044540326066 -0.018446766585 0.024409835206 0.076077779749 0.20458780335 0.37501168826 0.83371558656 1.4555252819 1.4598970687 
1.1020386157 0.74189055934 0.38035017658 0.18718313369 0.10011435976 0.0877335129 0.1241072851 1.7318773346 4.4019997969 
3.9278983872 1.2528402671 0.035994208832 -0.12417644224 -0.21103770381 -0.24291692326 -0.2579221374 -0.25983110863 -0.25414317535 
-0.24235469754 -0.22787395347 -0.21115655742 -0.19443065614 -0.17769744568 -0.16151461719 -0.14582101712 -0.13034701255 -0.11507489418 
-0.09998979845 -0.085082527537 -0.070875840757 -0.057358061706 -0.045802258874 -0.036241686096 -0.029516843307 -0.025774406195 -0.024421519361 
-0.025667792477 -0.028981076994 -0.034619749336 -0.042852804833 -0.054104778911 -0.070755782916 -0.093905619239 -0.13378504071 -0.19449753047 
-0.33284737057 -0.57122995052 -0.97775706772 -1.6084769012 -1.6891100235 -1.0106234843 -0.52812430557 -0.32560707052 -0.18512646584 
-0.13640837693 -0.10356714802 -0.095047917433 -0.095286559756 -0.10942356562 -0.13349936078 -0.17391894278 -0.22720404511 -0.30241901161 
-0.37867053509 -0.45675411273 -0.49892960552 -0.4752736094 -0.4251250122 -0.32457585685 -0.22970874411 -0.14606366552 -0.07088441132 
-0.01307095074 0.040571054363 0.085321272794 0.1275673697 0.16426379186 0.19722959657 0.22159425551 0.24161224652 0.25119823448 
0.25801447343 0.25790633984 0.25855270188 0.26116532527 0.2687626519 0.28991214049 0.32252334348 0.38767102608 0.48060324683 
0.65596293075 0.84337097893 1.0681705024 1.1945424193 1.0010246149 0.81111414739 0.63349534601 0.48688413808 0.45118470676 
0.43489279487 0.49157315606 0.56643146704 0.71324416257 0.83656764026 0.86184916522 0.8508909603 0.68014849181 0.51719849579 
0.39061337135 0.27477371879 0.21212415203 0.15493658778 0.12649640512 0.10098794497 0.091929705509 0.085565055099 0.095361938986 
0.11142791291 0.16785115391 0.26101727341 0.60893401712 0.99027183015 1.6222676632 2.0874276521 1.1922338359 0.37616920091 
0.26567309815 0.16247140138 0.13088750882 0.10045157331 0.082528369753 0.064947789838 0.05155483225 0.038185189783 0.025139044641 
0.011863027589 -0.0050909400262 -0.02236995564 -0.045770708561 -0.069470535651 -0.099989253815 -0.1307569009 -0.16868125442 -0.20653350485 
-0.24159776896 -0.27376248576 -0.13630368489 0 0 0 
FrenetTangent 3 240 double
-0.73780024759 -0.61573839271 -0.27661711155 -0.73780024759 -0.61573839271 -0.27661711155 -0.73780024759 -0.61573839271 -0.27661711155 
-0.73924815142 -0.64213555487 -0.16917457455 -0.74070832562 -0.66875642181 -0.060821507582 -0.72949307301 -0.67637727079 0.033975382474 
-0.71806114645 -0.68367333313 0.12854054301 -0.7031737464 -0.67852423692 0.19969962856 -0.68819698066 -0.67305328315 0.27025338458 
-0.67721947694 -0.66243700665 0.3165926387 -0.66638107799 -0.65164176239 0.36208964927 -0.66370089815 -0.64052465388 0.38547816047 
-0.66137853494 -0.62939342851 0.40789700065 -0.66909764744 -0.62035949049 0.40904024829 -0.67734993564 -0.61143691287 0.40905381845 
-0.69568152782 -0.60515954617 0.38573826573 -0.71464307649 -0.59904750515 0.36096464283 -0.74056185137 -0.59405904912 0.30807801043 
-0.76698204796 -0.58915157218 0.25316521518 -0.7911160107 -0.58120460009 0.16641571298 -0.81506291795 -0.57300894203 0.077061389288 
-0.82153546843 -0.55659566993 -0.037159152192 -0.82640486692 -0.53942848829 -0.15366099806 -0.80394979787 -0.51385608095 -0.27232631397 
-0.7787116812 -0.48742758582 -0.39121198331 -0.73224471092 -0.45960625808 -0.49002070301 -0.68339693462 -0.43162872483 -0.58657780219 
-0.62597118555 -0.40925915608 -0.65744194096 -0.56749342096 -0.38757735658 -0.72515505629 -0.50772862008 -0.37387502309 -0.77247928226 
-0.44779221437 -0.36123661841 -0.81708498965 -0.38831183707 -0.35580853681 -0.8475233296 -0.32889723309 -0.35142040565 -0.87591829925 
-0.26995948657 -0.35245076742 -0.8939806781 -0.21109581498 -0.35432283683 -0.9104379943 -0.15336684481 -0.35969555268 -0.91855913276 
-0.095826991533 -0.36565170961 -0.92529090826 -0.041159599001 -0.37333348901 -0.92519015781 0.012995869836 -0.38132280508 -0.92387172948 
0.062287437974 -0.38952493258 -0.91759273912 0.11065486498 -0.39776749425 -0.91037124198 0.15308727591 -0.40498656864 -0.9004052728 
0.1943206937 -0.41199887793 -0.88988486483 0.23002215747 -0.41695106212 -0.87859618893 0.26453820251 -0.42146179093 -0.86714288419 
0.29505644278 -0.42309336216 -0.85613324748 0.32466796444 -0.42407192858 -0.84522423651 0.35198855382 -0.42187805249 -0.8350586801 
0.378760274 -0.41892411206 -0.82507124302 0.40406624517 -0.41356081569 -0.81546019053 0.42900192186 -0.40758883991 -0.80594422468 
0.45205680279 -0.40135953478 -0.79620024673 0.47461147208 -0.39506179099 -0.78639562726 0.49417521396 -0.39162215704 -0.77586697348 
0.51290278258 -0.38898156456 -0.7651359015 0.52759812335 -0.39248782541 -0.75315782895 0.54111009291 -0.39779805408 -0.74081378884 
0.54991415052 -0.41216041832 -0.7260569107 0.55726961984 -0.42930805505 -0.71055762086 0.55927504161 -0.45797704334 -0.68993147327 
0.55955655917 -0.49035846713 -0.66765333818 0.55303245709 -0.53626470103 -0.63469785999 0.54421432594 -0.58672985969 -0.59814327738 
0.52490028789 -0.65063593034 -0.54063203018 0.50188882809 -0.71927686771 -0.4757383216 0.46107677272 -0.79214456379 -0.37479033023 
0.41371737185 -0.86656692973 -0.26058099347 0.34281757195 -0.91485528101 -0.10552740222 0.26288482825 -0.95311546387 0.065198984346 
0.17324469289 -0.93396470595 0.24169739486 0.079721600862 -0.89184957171 0.42050461496 0.0018634422887 -0.80963267518 0.56226604094 
-0.069467660679 -0.71070671102 0.68859171937 -0.1188891148 -0.60538477025 0.77629326007 -0.1588075887 -0.49728867094 0.84724216273 
-0.18315480864 -0.39539478079 0.8942724842 -0.20047597495 -0.29629944843 0.93051027515 -0.20832199475 -0.20448861632 0.95262671323 
-0.21172288408 -0.11609520409 0.9681183191 -0.20962272679 -0.034618891161 0.97434959866 -0.20484080927 0.043485335857 0.97606646913 
-0.19751893736 0.11371413543 0.97160756194 -0.1889110126 0.17995537681 0.96402167873 -0.18050089443 0.23659151357 0.95335664572 
-0.17219475153 0.28817881329 0.94107308526 -0.16668268207 0.32914165252 0.92878750983 -0.16269465268 0.36430933148 0.91650083533 
-0.16356172785 0.38917636564 0.90630554625 -0.16717577007 0.4082154034 0.89729354103 -0.17644705786 0.41858712984 0.89076763902 
-0.18903726303 0.42387403365 0.8857002509 -0.205983228 0.42327053642 0.88207726839 -0.22557796582 0.41908503856 0.87933264066 
-0.24614982261 0.41242626801 0.87685136718 -0.2673373982 0.40420899687 0.87453604295 -0.28557943816 0.39651892307 0.87231946402 
-0.30189869791 0.38917299199 0.87016734382 -0.31253539167 0.38370043169 0.86893123725 -0.31933035066 0.37949437559 0.86831440749 
-0.31943516382 0.37664340495 0.86952584959 -0.31485687489 0.37474099415 0.87201708198 -0.30377717432 0.37239583346 0.87680886359 
-0.28798630589 0.36972983953 0.88326770986 -0.26642688092 0.36408439149 0.89205766354 -0.24054103855 0.35620435287 0.90259594779 
-0.20989785855 0.3425848379 0.91498510145 -0.17556241651 0.32451080397 0.92881075077 -0.13778747353 0.29824179911 0.94323500936 
-0.097250507071 0.26539198425 0.95813996932 -0.055085734335 0.22290591306 0.97139947833 -0.01156863023 0.17241433661 0.98329199732 
0.031247943673 0.11273581119 0.99059799434 0.073462499434 0.045162251509 0.99396244905 0.11258556599 -0.028869764724 0.99014687014 
0.14896064213 -0.10864263122 0.97994903912 0.18063307226 -0.19082631689 0.96141851028 0.20798210202 -0.27522640081 0.93522727538 
0.23025785362 -0.35846206156 0.90096173448 0.24770983255 -0.44059056584 0.8590189846 0.2605673531 -0.51945386787 0.80958787237 
0.26890698957 -0.59510638767 0.75279320383 0.27324150477 -0.66634431665 0.68856189487 0.27350301528 -0.73309283121 0.61676790074 
0.26998172867 -0.79398611928 0.53737554369 0.26248198304 -0.84872132431 0.44999180495 0.25114481346 -0.89523210971 0.35609964742 
0.23563360381 -0.93279703514 0.25512815719 0.21662413094 -0.95986944127 0.15164296522 0.19367911194 -0.97513776318 0.045329858791 
0.16851083243 -0.98024278478 -0.057181478782 0.14075548617 -0.97352142054 -0.15526893987 0.11261358548 -0.96049231633 -0.24417216938 
0.08400638781 -0.93987056213 -0.32202030533 0.056462605855 -0.91813517015 -0.38866040713 0.030243077436 -0.89501298394 -0.44134333431 
0.0056847472843 -0.87472203123 -0.48346220815 -0.016733192793 -0.85807901401 -0.51196970557 -0.037525340236 -0.8462505445 -0.53119251957 
-0.056149764166 -0.84084147195 -0.5380357557 -0.073413909539 -0.84058288947 -0.53639791122 -0.088800870503 -0.8474319833 -0.5230561755 
-0.10301155527 -0.85843219843 -0.50145562817 -0.11554184547 -0.87536258685 -0.46805677853 -0.12677831628 -0.8942085294 -0.42678424034 
-0.13610101257 -0.91588789576 -0.37386520452 -0.14367767088 -0.93647063042 -0.31491979784 -0.14857954759 -0.95537341865 -0.2467425039 
-0.15119356042 -0.97085222625 -0.17633832343 -0.15017683275 -0.98089732544 -0.10240017086 -0.14654014329 -0.98725769571 -0.030609956983 
-0.13859507223 -0.98755873398 0.037648091037 -0.12790889162 -0.98562426161 0.10096890247 -0.1125503652 -0.97987925974 0.15587396971 
-0.094311412552 -0.97350404251 0.20520724526 -0.070981474022 -0.9660149563 0.24469270293 -0.04453500516 -0.95864559651 0.27928097487 
-0.012374897356 -0.95149573518 0.30489107294 0.023074561408 -0.94424983084 0.32666620565 0.064781809804 -0.93682121052 0.34114555059 
0.10964137178 -0.92840191032 0.35284491877 0.16072675308 -0.91802601732 0.35905383285 0.21434497822 -0.90546241009 0.36349451651 
0.27315878043 -0.8884111839 0.36430806083 0.33342198677 -0.86801998921 0.36441323761 0.39677471243 -0.84050938801 0.36300847307 
0.46021894845 -0.80877366844 0.3620139606 0.52386599121 -0.76767417305 0.36192865541 0.58608796772 -0.72184144303 0.3632906866 
0.64502437483 -0.66509597765 0.36798963219 0.70082226418 -0.60370645355 0.37481662968 0.74908771092 -0.53117118855 0.38675095172 
0.79241281527 -0.45521585409 0.40085608171 0.82338706365 -0.37071034598 0.42038823155 0.84832677595 -0.28555933116 0.44140658978 
0.8575401215 -0.19872608672 0.46629809717 0.86141045697 -0.11488344591 0.49163936685 0.85075448383 -0.039171508753 0.51820342773 
0.83711131024 0.030888198359 0.54446778085 0.81498834184 0.084902865335 0.56988135059 0.79243475615 0.13252366003 0.59467345444 
0.76860367254 0.16117596697 0.61762187614 0.74595835703 0.18413224548 0.6397720955 0.72699301149 0.18941119439 0.65944513522 
0.70978082993 0.19036863009 0.67804775623 0.6982664313 0.17728114788 0.69317151647 0.6884293627 0.16151205066 0.70688692379 
0.68430764084 0.13660559865 0.71580349896 0.68152778263 0.11077170828 0.72312830173 0.6835476675 0.081620442243 0.72475945707 
0.68656838451 0.053101639669 0.72492602697 0.69335223039 0.026960899718 0.71958575557 0.70086878539 0.0025462610873 0.71314933456 
0.71128564732 -0.015035893151 0.70237398802 0.72222000716 -0.030307616767 0.69089472576 0.73531435822 -0.035935803871 0.67647738043 
0.7486796992 -0.039128597178 0.66163652206 0.7632398594 -0.031583517831 0.64492835622 0.77777908199 -0.021803056522 0.62791305281 
0.79222059577 -0.0015908127246 0.60946444075 0.80632134591 0.020383482776 0.59073341691 0.81873531596 0.051079934212 0.57060445477 
0.83053333731 0.082818794279 0.55026248732 0.83908952336 0.12004401557 0.52879943923 0.84691048383 0.15751165648 0.50732114615 
0.8506060119 0.19633954089 0.48575731167 0.85365336573 0.23466413249 0.46451816594 0.85281167409 0.26996896732 0.44522715266 
0.85156811416 0.30426257293 0.42662296838 0.84773752705 0.33204639053 0.4124402457 0.84377418598 0.35856452051 0.39923224292 
0.83889041751 0.37630721638 0.39278229801 0.83406316524 0.3926758669 0.38746555512 0.82965978446 0.39873917724 0.39064782745 
0.82537835581 0.40333671599 0.39498998933 0.82209130603 0.39598257859 0.40878971211 0.81884617244 0.38698838983 0.42368080587 
0.81597479152 0.36337040965 0.44830329088 0.81289343308 0.33788697873 0.47380007789 0.80775047703 0.2940882134 0.5078809208 
0.80196492549 0.24829053246 0.5423931002 0.78917508305 0.18070467136 0.5816068474 0.77524549816 0.11141467258 0.62055917615 
0.74738572773 0.021296324342 0.65631639061 0.71822129245 -0.069562101385 0.69111016079 0.67095463239 -0.1706891022 0.71253614161 
0.62282474417 -0.27135499726 0.73281467172 0.56088320527 -0.36464320043 0.73473399043 0.49875016587 -0.45685358458 0.73592135767 
0.4330105337 -0.52876504407 0.72332363898 0.36745917792 -0.59969347599 0.71050002049 0.30620052373 -0.64820887925 0.69252588628 
0.24516834426 -0.69608956727 0.67459445075 0.19064731305 -0.7257221921 0.65789060227 0.13625695958 -0.75500190955 0.64129926326 
0.086919479188 -0.77063587524 0.6290582903 0.037617893743 -0.78608694872 0.61690785262 -0.009583837229 -0.7908388281 0.61005372919 
-0.056388914999 -0.79555077573 0.60325720343 -0.056388914999 -0.79555077573 0.60325720343 -0.056388914999 -0.79555077573 0.60325720343 

FrenetNormal 3 240 double
-0.087975806267 -0.31858279439 0.94380361338 -0.087975806267 -0.31858279439 0.94380361338 -0.087975806267 -0.31858279439 0.94380361338 
-0.014578680538 -0.23738268286 0.96472934921 0.059440454731 -0.15549443479 0.98583242178 0.11636428504 -0.076008897038 0.98543741466 
0.17299588791 0.0034355687462 0.98467491899 0.20181928667 0.077223797044 0.97308976408 0.22992350774 0.15086574334 0.96122471281 
0.21341370533 0.2332499698 0.94475224393 0.19535211081 0.31593827557 0.92811951704 0.016511072975 0.48264969754 0.83239722283 
-0.16938169483 0.65304634391 0.73320608795 -0.42782771954 0.53040865281 0.1023321316 -0.69012612958 0.39221161636 -0.55677277103 
-0.61793524902 0.25628122774 -0.71373035439 -0.5248387878 0.1204925046 -0.8393037303 -0.44383279545 0.093712971117 -0.88640012703 
-0.36369818824 0.074789955806 -0.92784052527 -0.26740461297 0.090925623004 -0.95378554352 -0.16978894031 0.10992972786 -0.97846275796 
-0.052686424374 0.14324163397 -0.98049093032 0.066203875354 0.17786618239 -0.98044120891 0.18947057543 0.20741205141 -0.95072485362 
0.31318301998 0.23644064753 -0.91798689674 0.42382907132 0.24504391025 -0.86320565282 0.53300973277 0.25135648137 -0.80595226456 
0.62335705616 0.23198274652 -0.73797620907 0.71139463054 0.20945880433 -0.6686851095 0.77982274139 0.16667353274 -0.59326396618 
0.8456362571 0.12118675057 -0.51702548371 0.89049808826 0.070024692209 -0.43741876681 0.93233804184 0.018044084398 -0.35732624687 
0.95575310975 -0.026027839224 -0.27835914398 0.97630605949 -0.068871229381 -0.19956686316 0.9840266676 -0.099145221323 -0.1254784329 
0.98960855209 -0.12732431356 -0.052173977746 0.9870887177 -0.14480157471 0.014512980914 0.98312501261 -0.16037157883 0.080020583763 
0.97482892556 -0.16682878049 0.13699016373 0.96570968594 -0.17155454969 0.19233751935 0.956515653 -0.16473065492 0.23671980799 
0.9473065103 -0.1555734947 0.27888693158 0.94223419938 -0.12734586316 0.30711563638 0.93804835242 -0.095031702052 0.33235753715 
0.93679876844 -0.039472233242 0.34235753603 0.93621514101 0.021359367211 0.3489006087 0.93094648787 0.090008355648 0.34693036511 
0.92455538066 0.16053025996 0.34292047284 0.9133314561 0.20947429086 0.34632680892 0.90088660926 0.25296706953 0.35160671847 
0.89005076723 0.25014894135 0.3792426159 0.87964285202 0.23501408262 0.41282425477 0.85694368814 0.13705115918 0.47659601491 
0.8308082612 0.015932002579 0.54880802401 0.7120627053 -0.20579161695 0.60607237022 0.56613808982 -0.45704045931 0.65894990231 
0.37913445782 -0.6225698845 0.6409639645 0.17949112843 -0.76172410442 0.6011738821 0.051513398696 -0.8076539057 0.5780001419 
-0.053372082261 -0.82354472766 0.56018055641 -0.12161016316 -0.8062085085 0.57522480038 -0.17749518786 -0.77767216313 0.60134673966 
-0.22478328102 -0.72063473641 0.64902345249 -0.26904290965 -0.65355715604 0.70429332417 -0.31436064603 -0.54469635681 0.76454035149 
-0.36006757146 -0.4204670173 0.82661805674 -0.39885285188 -0.24892275138 0.8623758032 -0.43498215224 -0.059222757887 0.88803403059 
-0.44360361407 0.14075604689 0.86189692276 -0.44122194047 0.34484637619 0.81504168084 -0.40970439741 0.510197208 0.73605223237 
-0.36604690874 0.65940658254 0.64367353116 -0.30813186257 0.76462027842 0.54911936149 -0.24403281557 0.85075151127 0.45362161512 
-0.17887540431 0.90709438652 0.36444269306 -0.11324043843 0.9499961736 0.27811494783 -0.05402538832 0.97443914754 0.19736259495 
0.0021778494627 0.99022243137 0.11922585824 0.048546508493 0.99470927096 0.045789414908 0.090120810381 0.99368909398 -0.025355635404 
0.12043588754 0.98643902987 -0.090965647916 0.14505009143 0.97603459253 -0.15377310964 0.15314826877 0.96419648556 -0.21028490085 
0.15256494498 0.951604783 -0.26348742936 0.11155782179 0.94016500992 -0.31310950449 0.048501353488 0.929353562 -0.36077860505 
-0.15136149719 0.86194343084 -0.39683965632 -0.42862795894 0.76251036048 -0.42633299549 -0.67207529342 0.48305191571 -0.3602786345 
-0.89568207323 0.097978584634 -0.23816962275 -0.96802683201 -0.13362644822 -0.16199285044 -0.94838792936 -0.27190616458 -0.11374784536 
-0.93218803747 -0.34650805862 -0.098703774523 -0.91815519345 -0.3809842016 -0.10458084033 -0.9077753166 -0.40328064421 -0.11387262077 
-0.89978001553 -0.41762644908 -0.12539345104 -0.76791071915 -0.55383795234 -0.031010010766 -0.55229562313 -0.7724375334 0.13497068283 
-0.058849210506 -0.64388997848 0.25473180545 0.62907912374 -0.27233942837 0.34213922838 0.91719963201 -0.13336708864 0.37441038731 
0.91560432435 -0.16292968398 0.36672773175 0.90328071809 -0.22113464585 0.35999840833 0.8829108879 -0.30082138262 0.35398408401 
0.85307259286 -0.38568063859 0.34005382197 0.81588563855 -0.47455438707 0.31997984706 0.77209525764 -0.5584291019 0.28931501596 
0.72300212507 -0.63828944121 0.25014540639 0.67029322206 -0.70864128042 0.20059143743 0.61458044822 -0.77109375032 0.1424104622 
0.5573238812 -0.82177991923 0.0759260444 0.49874061691 -0.86235442324 0.0023058556452 0.43975834256 -0.89025315131 -0.075967197786 