# vtk DataFile Version 5.1
vtk output
ASCII
DATASET POLYDATA
POINTS 240 float
0 0 0 -0.23353 -0.146656 0.0898698 -0.46706 -0.293312 0.17974 
-0.713118 -0.480808 0.250882 -0.959283 -0.668649 0.321866 -1.2105 -0.891881 0.382026 
-1.46181 -1.11572 0.442002 -1.71102 -1.36956 0.498658 -1.96019 -1.62418 0.555228 
-2.2008 -1.90333 0.615141 -2.44112 -2.18334 0.675169 -2.66759 -2.48205 0.743711 
-2.89345 -2.78158 0.812626 -3.10181 -3.09321 0.892996 -3.30924 -3.40548 0.973973 
-3.49751 -3.72219 1.06646 -3.68458 -4.03919 1.15966 -3.85296 -4.35196 1.26105 
-4.01999 -4.66444 1.36304 -4.17064 -4.96361 1.46638 -4.31995 -5.2617 1.56983 
-4.4565 -5.53807 1.66463 -4.59187 -5.81245 1.75863 -4.71872 -6.05883 1.83168 
-4.84471 -6.30237 1.9026 -4.96623 -6.51513 1.93968 -5.08725 -6.72443 1.97296 
-5.20703 -6.9045 1.96126 -5.32667 -7.08098 1.94406 -5.44687 -7.23413 1.87508 
-5.56715 -7.38416 1.7992 -5.68825 -7.52008 1.67082 -5.80946 -7.65396 1.53486 
-5.93021 -7.78447 1.35216 -6.05089 -7.91445 1.16219 -6.16865 -8.05132 0.936449 
-6.28591 -8.18935 0.704742 -6.39703 -8.34229 0.45091 -6.50705 -8.49789 0.193135 
-6.60736 -8.67308 -0.0732078 -6.70583 -8.85199 -0.341179 -6.79128 -9.0516 -0.606698 
-6.87409 -9.25538 -0.871722 -6.9413 -9.47793 -1.12728 -7.00517 -9.70451 -1.38081 
-7.05192 -9.946 -1.62216 -7.09478 -10.1909 -1.86075 -7.12001 -10.446 -2.08802 
-7.14102 -10.7036 -2.31257 -7.14453 -10.9677 -2.5288 -7.14362 -11.2334 -2.74292 
-7.12559 -11.5031 -2.95228 -7.103 -11.7737 -3.16038 -7.06386 -12.0477 -3.36641 
-7.02009 -12.3226 -3.57187 -6.96083 -12.6018 -3.77608 -6.89702 -12.8824 -3.97993 
-6.81978 -13.1693 -4.1809 -6.73841 -13.4581 -4.38099 -6.64713 -13.7558 -4.57392 
-6.55265 -14.0564 -4.76455 -6.45329 -14.3674 -4.9414 -6.3523 -14.682 -5.11361 
-6.25261 -15.007 -5.26385 -6.1534 -15.3357 -5.40635 -6.06202 -15.672 -5.51827 
-5.97352 -16.0111 -5.61894 -5.89868 -16.3517 -5.68143 -5.82908 -16.693 -5.72926 
-5.77736 -17.026 -5.73367 -5.73278 -17.3559 -5.7207 -5.70825 -17.6655 -5.66244 
-5.69207 -17.9667 -5.58531 -5.6961 -18.2346 -5.46493 -5.7089 -18.4881 -5.3258 
-5.74041 -18.6962 -5.14926 -5.78036 -18.884 -4.95586 -5.83641 -19.0174 -4.7339 
-5.90001 -19.1253 -4.49855 -5.97636 -19.1746 -4.24511 -6.05892 -19.1954 -3.98286 
-6.15035 -19.1589 -3.71283 -6.24625 -19.0933 -3.43886 -6.34655 -18.9766 -3.16559 
-6.44916 -18.833 -2.89269 -6.5511 -18.6491 -2.62587 -6.65267 -18.443 -2.36238 
-6.74813 -18.2098 -2.10675 -6.84014 -17.9611 -1.85558 -6.92071 -17.6994 -1.61076 
-6.99457 -17.4301 -1.36966 -7.05263 -17.161 -1.13106 -7.10108 -16.8922 -0.893986 
-7.13122 -16.6352 -0.654517 -7.14982 -16.3856 -0.413541 -7.15008 -16.157 -0.165557 
-7.13837 -15.9421 0.0870004 -7.11079 -15.7546 0.349803 -7.07249 -15.5856 0.619531 
-7.02275 -15.4481 0.900584 -6.96502 -15.3327 1.18956 -6.9012 -15.2508 1.48846 
-6.83298 -15.1933 1.79455 -6.76384 -15.1697 2.10685 -6.694 -15.1715 2.42381 
-6.62733 -15.2064 2.7416 -6.56311 -15.267 3.06003 -6.5045 -15.3588 3.37311 
-6.4504 -15.4758 3.6819 -6.40263 -15.6216 3.97948 -6.3601 -15.7913 4.26775 
-6.3231 -15.9868 4.54019 -6.29084 -16.2044 4.79904 -6.26236 -16.444 5.03937 
-6.23724 -16.7033 5.26325 -6.21391 -16.9805 5.46809 -6.19224 -17.2743 5.65543 
-6.17076 -17.582 5.82517 -6.14947 -17.9029 5.97817 -6.12748 -18.2335 6.11641 
-6.10482 -18.5738 6.24014 -6.08131 -18.9203 6.35264 -6.05693 -19.2731 6.45372 
-6.03196 -19.6293 6.5471 -6.00635 -19.989 6.63239 -5.98038 -20.3498 6.71298 
-5.95402 -20.712 6.78846 -5.92717 -21.0738 6.86142 -5.89978 -21.4351 6.93157 
-5.87129 -21.7952 7.00059 -5.8415 -22.1539 7.06831 -5.80954 -22.5109 7.13565 
-5.77496 -22.8659 7.20252 -5.7369 -23.219 7.26934 -5.69451 -23.5699 7.33608 
-5.6474 -23.9192 7.40287 -5.59422 -24.2662 7.46974 -5.53544 -24.612 7.53676 
-5.46919 -24.9562 7.60398 -5.397 -25.2995 7.67154 -5.3166 -25.6417 7.73956 
-5.23046 -25.9835 7.80827 -5.13611 -26.3249 7.87795 -5.03663 -26.6663 7.94886 
-4.92953 -27.0077 8.02157 -4.81799 -27.3491 8.09619 -4.69963 -27.6907 8.17373 
-4.5773 -28.0319 8.25393 -4.44867 -28.3726 8.33836 -4.31607 -28.7116 8.42615 
-4.17695 -29.0481 8.51947 -4.03331 -29.3814 8.61662 -3.88198 -29.7091 8.72032 
-3.7251 -30.0311 8.82797 -3.55843 -30.3431 8.94259 -3.38495 -30.6468 9.06079 
-3.19897 -30.9352 9.18556 -3.00498 -31.2126 9.31311 -2.79574 -31.4689 9.44595 
-2.5777 -31.7118 9.58043 -2.34224 -31.928 9.71818 -2.09781 -32.1291 9.85635 
-1.83497 -32.299 9.99542 -1.56374 -32.4529 10.1338 -1.27465 -32.573 10.2709 
-0.97849 -32.6776 10.4065 -0.666672 -32.7477 10.5392 -0.349642 -32.8038 10.6703 
-0.0205978 -32.8275 10.7976 0.311545 -32.8396 10.9236 0.651125 -32.8237 11.0463 
0.991736 -32.7994 11.1684 1.33493 -32.7537 11.2887 1.67739 -32.7028 11.4094 
2.01797 -32.6387 11.5307 2.35653 -32.5727 11.6534 2.68964 -32.5017 11.7797 
3.02001 -32.4316 11.9084 3.34262 -32.3642 12.0437 3.66232 -32.2996 12.1821 
3.9734 -32.2431 12.3297 4.28185 -32.1901 12.4809 4.58214 -32.1479 12.6428 
4.8804 -32.1089 12.8083 5.17208 -32.08 12.9853 5.46248 -32.0533 13.1655 
5.74847 -32.0336 13.3566 6.03387 -32.0147 13.5504 6.31716 -31.9985 13.7539 
6.60035 -31.9821 13.9594 6.88315 -31.9648 14.1728 7.16606 -31.9471 14.3878 
7.44941 -31.9273 14.6089 7.73276 -31.9075 14.831 8.01612 -31.8879 15.0574 
8.29916 -31.8697 15.2846 8.58082 -31.8573 15.5145 8.86166 -31.848 15.7447 
9.13866 -31.8529 15.9761 9.41429 -31.8626 16.2074 9.6832 -31.8959 16.4382 
9.95018 -31.9353 16.6685 10.207 -32.0071 16.896 10.4614 -32.0858 17.1227 
10.7018 -32.2031 17.3444 10.9393 -32.3273 17.5649 11.1585 -32.493 17.7787 
11.3743 -32.665 17.9912 11.5672 -32.8771 18.1958 11.756 -33.0942 18.3993 
11.9169 -33.3464 18.5951 12.0734 -33.6021 18.7901 12.1968 -33.8846 18.9789 
12.3157 -34.1691 19.1672 12.397 -34.4698 19.3521 12.4738 -34.7711 19.537 
12.5098 -35.0776 19.7217 12.5415 -35.3835 19.9067 12.5308 -35.6843 20.0946 
12.5163 -35.9838 20.2831 12.46 -36.2698 20.4765 12.4004 -36.5543 20.6704 
12.3016 -36.8201 20.8695 12.2002 -37.0846 21.0689 12.0638 -37.3292 21.2715 
11.9255 -37.5727 21.4739 11.7577 -37.799 21.6749 11.5887 -38.0248 21.8755 
11.3962 -38.2398 22.0678 11.203 -38.4548 22.2594 10.9932 -38.6678 22.4346 
10.783 -38.8811 22.6089 10.563 -39.1031 22.7577 10.3429 -39.3256 22.9056 
10.1201 -39.5682 23.0188 9.89739 -39.8113 23.1312 9.6791 -40.0864 23.1995 
9.46091 -40.3619 23.2673 9.25448 -40.6814 23.2813 9.04806 -41.0009 23.2953 

LINES 2 240
OFFSETS vtktypeint64
0 240 
CONNECTIVITY vtktypeint64
0 1 2 3 4 5 6 7 8 
9 10 11 12 13 14 15 16 17 
18 19 20 21 22 23 24 25 26 
27 28 29 30 31 32 33 34 35 
36 37 38 39 40 41 42 43 44 
45 46 47 48 49 50 51 52 53 
54 55 56 57 58 59 60 61 62 
63 64 65 66 67 68 69 70 71 
72 73 74 75 76 77 78 79 80 
81 82 83 84 85 86 87 88 89 
90 91 92 93 94 95 96 97 98 
99 100 101 102 103 104 105 106 107 
108 109 110 111 112 113 114 115 116 
117 118 119 120 121 122 123 124 125 
126 127 128 129 130 131 132 133 134 
135 136 137 138 139 140 141 142 143 
144 145 146 147 148 149 150 151 152 
153 154 155 156 157 158 159 160 161 
162 163 164 165 166 167 168 169 170 
171 172 173 174 175 176 177 178 179 
180 181 182 183 184 185 186 187 188 
189 190 191 192 193 194 195 196 197 
198 199 200 201 202 203 204 205 206 
207 208 209 210 211 212 213 214 215 
216 217 218 219 220 221 222 223 224 
225 226 227 228 229 230 231 232 233 
234 235 236 237 238 239 
CELL_DATA 1
FIELD FieldData 3
Length 1 1 double
81.997320612 
Tortuosity 1 1 double
0.70768016546 
ClusterLabel 1 1 int
1 
POINT_DATA 240
FIELD FieldData 6
Curvature 1 240 double
0 0.10269793484 0.20539586968 0.17087767805 0.1351966379 0.11747154868 0.10005339879 0.09379854462 0.087832396375 
0.087065820339 0.086480098988 0.086435529541 0.086414694827 0.084232548529 0.081935642324 0.075909116239 0.069649488911 0.058173123714 
0.046320777409 0.02889281681 0.011008669588 0.041761281036 0.076975980436 0.15103245102 0.22904502793 0.35594640431 0.4883306367 
0.60670542654 0.7233620772 0.69508241809 0.64747791768 0.5190516348 0.37896836407 0.27647894865 0.17982935541 0.13673532498 
0.10256722168 0.10041805435 0.10397523205 0.1121770906 0.12126143851 0.12700888504 0.13208221008 0.13263004576 0.13220813373 
0.1279998333 0.12293276436 0.11681705065 0.11045009912 0.10482893371 0.099396177421 0.0950800373 0.091060869563 0.086568277818 
0.081943330974 0.076983196081 0.071924690782 0.070205090739 0.06951284616 0.075578448265 0.083821578747 0.098091471308 0.11439285671 
0.13446747717 0.15587130545 0.18043255592 0.20615515709 0.23551228325 0.26626405272 0.30271534778 0.34144645306 0.3879248883 
0.43763137769 0.49286249779 0.55048984326 0.5988060969 0.64292100421 0.65348596076 0.64831143423 0.60746064709 0.54921768292 
0.481051221 0.40786020327 0.34152771968 0.27880036301 0.22773601346 0.18303330418 0.14798913314 0.11840966139 0.10269239397 
0.09510761976 0.10396453017 0.12281976232 0.14974424448 0.18175345953 0.21344438925 0.2449275494 0.26928287021 0.28881937006 
0.29924552476 0.30329443786 0.30117054486 0.29457360397 0.28693981074 0.27852837825 0.27158186781 0.26577231179 0.26129064871 
0.25787532391 0.25456338536 0.25133733693 0.24591394899 0.23860222239 0.22826250433 0.21523123831 0.19978976197 0.18213244713 
0.16325223512 0.14320926841 0.12369476876 0.1046999284 0.087019009689 0.07067428249 0.056097472396 0.043380023394 0.032493597721 
0.02359881146 0.017252143715 0.0137721093 0.013576469715 0.017202671388 0.021934958282 0.027998644052 0.034044503633 0.040068164562 
0.045375897586 0.049761185039 0.052978937377 0.05463997623 0.055052998888 0.053743759197 0.051764737708 0.048828885076 0.046019960044 
0.043398782088 0.041904381648 0.042136108466 0.043833635777 0.04785732474 0.053014995632 0.06003743681 0.068526933961 0.079517094702 
0.091720272048 0.10606738572 0.12172346226 0.13977930405 0.15837854857 0.17801158363 0.19674555772 0.21370388643 0.22772487758 
0.23572056094 0.23979769234 0.23552212089 0.22775677616 0.21225733929 0.19488053418 0.17317535232 0.15114597723 0.1283385384 
0.10590555036 0.084408689311 0.064855044455 0.050365538776 0.040825299483 0.044740878174 0.051208767621 0.064921926311 0.077391017632 
0.086169375754 0.092756676457 0.092544143787 0.090299688157 0.081451482905 0.071907380434 0.059992072626 0.04883231605 0.040375108114 
0.032668265369 0.02778279574 0.023125451333 0.019371102593 0.017727720331 0.024895328585 0.034105178995 0.052319460729 0.071320025345 
0.093989910077 0.11685646729 0.1406965533 0.16381915925 0.18316555437 0.20121648703 0.21199843581 0.22118563367 0.22080432599 
0.21949263865 0.21219163217 0.2046854213 0.19575645991 0.18715678261 0.18102673591 0.17555105783 0.1754110008 0.17570743271 
0.17989589108 0.18414992294 0.18904776728 0.19359565435 0.19432900728 0.19446954088 0.18736450487 0.17976347103 0.16528046713 
0.15067261004 0.13406710185 0.1178815512 0.109605201 0.10212696577 0.11284575198 0.12399846289 0.14762650876 0.17128469903 
0.19610847259 0.22074524248 0.23444229761 0.24698649306 0.12349324653 0 
Torsion 1 240 double
0 0 0 0.21931279414 0.44048417128 0.47795993521 0.51229560318 0.47553960726 0.43694503382 
0.36867239945 0.29936748469 0.24713065665 0.19564242891 0.16319273119 0.13175392887 0.10391997839 0.07631133116 -0.010500984492 
-0.1015802312 -4.4198032208 -9.0838834256 -5.1952054375 -0.52187073438 -0.0017106647808 0.095440877335 0.11756125785 0.13126692865 
0.13996363439 0.14804603309 0.18120102558 0.21769903057 0.32081112237 0.43353101514 0.69969481364 0.98969455866 1.1958605099 
1.3880541622 1.0652447066 0.65065251896 0.40916313859 0.20056329162 0.095062732105 0.010390311466 -0.04812036635 -0.10102495642 
-0.14770566604 -0.1929747739 -0.22788299605 -0.26030892266 -0.25793416221 -0.24676764923 -0.18339909505 -0.10614701929 0.0012114042332 
0.11698665616 0.26240530462 0.41652364553 0.52579667114 0.62127113818 0.57860649312 0.49143035639 0.38755984282 0.27806201122 
0.20222628017 0.13824878908 0.094341236576 0.057815730442 0.03190784067 0.010074152526 -0.0052032692396 -0.017858184453 -0.024819247459 
-0.029407872043 -0.029245820452 -0.027023234616 -0.022981287415 -0.018118408867 -0.014781405803 -0.012160245559 -0.014032038951 -0.018094147239 
-0.03025766505 -0.046523162365 -0.078208279081 -0.11799858035 -0.19211195761 -0.28494701268 -0.45986646302 -0.68122840015 -0.86249288849 
-1.0202335402 -0.9392403542 -0.71307118582 -0.54319618117 -0.40879421121 -0.32711352679 -0.279848126 -0.25034081361 -0.23283896945 
-0.21800695307 -0.20504381614 -0.18803949496 -0.16810677941 -0.14166799198 -0.11034965066 -0.076205668711 -0.039868652256 -0.0062843492212 
0.025089441521 0.050270893991 0.070307942358 0.084279214563 0.093037710379 0.097310091745 0.097594815821 0.094506175564 0.088316216484 
0.079751481798 0.068928763749 0.056466550849 0.042392168013 0.0306820187 0.021376174667 0.029084709406 0.054687676992 0.16666382626 
0.3725897521 0.67922790663 1.0991673184 1.1010167502 0.616361478 0.28181093777 0.12794201937 0.031670338519 0.0071235195095 
-0.0041148546625 0.0017941904754 0.012666689715 0.030157127757 0.053122242482 0.083642411033 0.12027633384 0.16564419131 0.20901473985 
0.24943093561 0.26301468344 0.23549340466 0.18650407564 0.10344588427 0.028299935423 -0.033834770175 -0.0821495084 -0.10690748406 
-0.12332087762 -0.1249857075 -0.12289786512 -0.1139301236 -0.10391994513 -0.091926593936 -0.079946442617 -0.067992361052 -0.056000850119 
-0.043932560998 -0.031606324971 -0.018730254748 -0.0051742536704 0.0098886211929 0.027847278844 0.052482324587 0.084554238848 0.13447463755 
0.21290759311 0.36262194081 0.600074108 1.0661763502 1.3345346204 1.0652764667 0.78554684585 0.47609176959 0.2203401213 
0.12390864266 0.036525696839 -0.022775595398 -0.085007074847 -0.15676166274 -0.23904982101 -0.35723014502 -0.46193958696 -0.51846471993 
-0.51014256525 -0.25799460898 0.10390467354 0.90023628915 1.4576966295 1.0181290384 0.61367921944 0.3640668504 0.14961278057 
0.099230773674 0.053939606653 0.033848097002 0.014507712647 -0.00087938066796 -0.016522439801 -0.033601751581 -0.05171571708 -0.076037604896 
-0.10148377996 -0.13416755414 -0.16727616059 -0.20333027079 -0.23826345508 -0.26478969498 -0.28822941273 -0.28650210363 -0.28226216019 
-0.2556178939 -0.22772478309 -0.18757028976 -0.14706466268 -0.10273167758 -0.057583318219 -0.0024692734825 0.054987556327 0.14495052902 
0.23914039684 0.40096058664 0.5629207843 0.72751779672 0.88024340484 0.76230099497 0.64312488083 0.48847976918 0.33579278052 
0.25881988116 0.18160808628 0.090420903717 0 0 0 
FrenetTangent 3 240 double
-0.79089329189 -0.55150112364 0.26520616786 -0.79089329189 -0.55150112364 0.26520616786 -0.79089329189 -0.55150112364 0.26520616786 
-0.77319053398 -0.58770456911 0.23240252464 -0.7553377527 -0.62421482345 0.19932088445 -0.7343592614 -0.65254440698 0.18272108234 
-0.71332733917 -0.68073414999 0.16640302106 -0.69042880041 -0.70413745211 0.16250874427 -0.66748198709 -0.72741696697 0.15893577226 
-0.64306603861 -0.74722609113 0.16459074088 -0.61859898978 -0.76691450604 0.17056668136 -0.59332416899 -0.78323866051 0.18285714817 
-0.5680139196 -0.7994152597 0.19542456789 -0.5432883645 -0.8118861874 0.21131584383 -0.51859385513 -0.82416035378 0.22738360772 
-0.49660229014 -0.83260990873 0.2435912669 -0.47477965918 -0.84082042546 0.25980766953 -0.45820479757 -0.84572613241 0.27267327591 
-0.44200815358 -0.85039365486 0.28529738346 -0.43372587145 -0.85294435029 0.29031766675 -0.42609112801 -0.85532185078 0.29471581897 
-0.42905429396 -0.85698841132 0.28521759824 -0.43298974517 -0.85858974801 0.27444448091 -0.44963033233 -0.85953991487 0.2393570882 
-0.46756496111 -0.86042375888 0.20179324152 -0.49603824208 -0.85487860899 0.12517484401 -0.52569342796 -0.84861245044 0.044176496878 
-0.55028584742 -0.82019435172 -0.079645935977 -0.57425736156 -0.78905950563 -0.20872037935 -0.57102029296 -0.73129044389 -0.34261324048 
-0.56415541333 -0.6699701534 -0.47714855732 -0.53560414653 -0.61124475053 -0.57205749597 -0.50392503542 -0.5528936103 -0.66125109161 
-0.4696307171 -0.51886157021 -0.71147925856 -0.434930153 -0.4886072544 -0.75565454339 -0.40435268439 -0.48156680283 -0.77679180533 
-0.37446239837 -0.47839532864 -0.79408939679 -0.34769048892 -0.49108443388 -0.79814232569 -0.32147432975 -0.50660017704 -0.79983481967 
-0.29595792633 -0.53129544783 -0.79293377282 -0.27057447649 -0.55773482886 -0.78439995322 -0.24409666022 -0.58779735281 -0.77009812645 
-0.21739775983 -0.61859182484 -0.75463104572 -0.18891937372 -0.64839000627 -0.73612148204 -0.16005966925 -0.67797469686 -0.71695995774 
-0.12970037821 -0.70318988695 -0.69774993546 -0.099000974763 -0.7274140563 -0.67852891365 -0.067501285304 -0.74572862692 -0.66168353834 
-0.035809860654 -0.76262735617 -0.64540732835 -0.004049078029 -0.77369964247 -0.63258996993 0.027729226611 -0.7832999853 -0.62064642665 
0.058817832509 -0.78841609969 -0.61150513902 0.08972300789 -0.79233960013 -0.60310913216 0.11888198357 -0.79406196215 -0.59538975235 
0.14755277438 -0.79516895213 -0.5878595371 0.17312877671 -0.79661356563 -0.57858304338 0.19779652588 -0.7981572643 -0.56879405489 
0.21796610168 -0.80245504187 -0.55495910383 0.23675162412 -0.80760022835 -0.53987924122 0.24986908249 -0.81710479182 -0.51881719194 
0.26116016467 -0.82801404343 -0.49582754917 0.26596249073 -0.84354499618 -0.46515718599 0.26857759563 -0.86063382574 -0.43189781593 
0.26414352781 -0.88106677879 -0.38920337199 0.2572262287 -0.90267777535 -0.34318520883 0.24300022019 -0.92460064104 -0.2860954008 
0.22608595076 -0.94663821721 -0.22493326361 0.20200874703 -0.9641890985 -0.15154357869 0.17518297548 -0.98001834106 -0.073461927777 
0.14168483785 -0.98487978384 0.017083814571 0.10551775379 -0.98535410672 0.11261519349 0.063527917806 -0.96657778271 0.21892738672 
0.019111935192 -0.93978035583 0.3297315859 -0.029303264092 -0.88419067663 0.44518843878 -0.079453063378 -0.81611279161 0.56266331013 
-0.12934465979 -0.71322165841 0.67064760251 -0.17911975003 -0.59462210834 0.77434956048 -0.22162393453 -0.44969406769 0.84940549963 
-0.26071707683 -0.2924143895 0.91102256576 -0.28734958274 -0.13380997093 0.93611844703 -0.30790752842 0.02544025858 0.94341025068 
-0.31689308238 0.16468791035 0.92559996033 -0.3200191975 0.29380767466 0.89507974897 -0.315459629 0.3976605196 0.85637047733 
-0.30686014988 0.48823203513 0.81335669965 -0.2933487689 0.55791097359 0.77341367951 -0.27715816872 0.61619396091 0.73514561803 
-0.25693194231 0.65915332311 0.70532438327 -0.23442240104 0.69344273952 0.68028227416 -0.2077086356 0.71581016721 0.66593655145 
-0.17852839197 0.7311833615 0.6578660421 -0.14494062922 0.73539905339 0.66102540507 -0.10867261836 0.7328297776 0.67101374445 
-0.068845796005 0.71762618572 0.69115587742 -0.026776434902 0.69446124397 0.71769629129 0.01607631407 0.65674642906 0.75083036757 
0.059440441234 0.60953378027 0.78826864014 0.099059327399 0.54828492021 0.82640314469 0.13614621965 0.47754679057 0.86500834127 
0.16540730459 0.39720494282 0.89850741888 0.18919032442 0.31014049241 0.92843221319 0.20389868479 0.21969093092 0.95013260767 
0.21203120498 0.12678839038 0.96587329212 0.21266408593 0.035014948682 0.97300478029 0.20767223746 -0.055911668881 0.97367937123 
0.19794911055 -0.143971777 0.96633150936 0.18455394664 -0.22980713153 0.95275726621 0.16913362563 -0.31230891145 0.93160436213 
0.15208704209 -0.39213372995 0.90436556369 0.13524831428 -0.46802127238 0.87002119294 0.11858226662 -0.54063784701 0.82977373135 
0.10375267128 -0.60795766871 0.7837836779 0.090501277145 -0.67072559334 0.73285858456 0.079908972051 -0.72672312154 0.67895099498 
0.071680301657 -0.77670251958 0.62239229765 0.066001643221 -0.81946841581 0.566297989 0.062667350618 -0.85560254425 0.51063061832 
0.061087426479 -0.88533950846 0.45845775662 0.061175590389 -0.90899392306 0.40960754281 0.062022956469 -0.92788046719 0.36593311299 
0.063616871348 -0.94207860535 0.32734820411 0.06523256613 -0.953185919 0.29421191635 0.066870409968 -0.96115002131 0.26661659922 
0.068290487288 -0.9672833841 0.24382769328 0.069481534307 -0.97149131397 0.22609380601 0.070708504403 -0.97465315833 0.21207147944 
0.071974548722 -0.97667715529 0.20208628907 0.073841442437 -0.97808531725 0.1946174109 0.076384291724 -0.97880066484 0.18997938396 
0.08017440484 -0.97910579525 0.18682287169 0.085415879502 -0.97893358205 0.18539030376 0.092404659704 -0.97841468967 0.18468113218 
0.10149667805 -0.97747849828 0.18484271548 0.11247140601 -0.9761709621 0.18524152638 0.12579064026 -0.97440099655 0.18593575277 
0.14067410661 -0.9722012945 0.18663812008 0.15757302583 -0.96944789347 0.18735097665 0.1753279128 -0.96624920174 0.18807111928 
0.1942240901 -0.96245678908 0.18880097665 0.21310865639 -0.9583010226 0.18971265678 0.23197719951 -0.95364382784 0.19087525232 
0.25012987562 -0.94876984642 0.19250142334 0.26725988456 -0.94358616979 0.19478984502 0.28338072933 -0.93829050248 0.19783142005 
0.29800885208 -0.93282918231 0.20198703441 0.31185027342 -0.92719711663 0.20712991596 0.32448653515 -0.92130348338 0.21378520682 
0.33704862293 -0.9149395811 0.22157893197 0.34949299988 -0.90782938234 0.23117930288 0.36276791276 -0.89978325634 0.24187682512 
0.37740859584 -0.89019804999 0.25437855178 0.39382831619 -0.87904066828 0.26778036876 0.4132804864 -0.86520344222 0.28271643059 
0.4352783058 -0.84900240555 0.29816674555 0.46177541213 -0.82862347106 0.314525973 0.49113190778 -0.80498391892 0.33079715125 
0.52573061718 -0.77536656776 0.34690690595 0.56283636876 -0.74158011934 0.36216642746 0.60471161522 -0.69986221761 0.37580843216 
0.64778427511 -0.65353029496 0.38774219787 0.69322182652 -0.598085681 0.39630219157 0.73774898763 -0.53869252187 0.40252231812 
0.78040868148 -0.47119978288 0.40394271718 0.82010705963 -0.40176525044 0.40307626448 0.85349315958 -0.32819163192 0.39733520672 
0.88295875342 -0.25534423371 0.39015394012 0.90373565805 -0.18410629671 0.37978085936 0.92099146094 -0.11582817842 0.3691924795 
0.93012916818 -0.054374086584 0.35810771562 0.93688950364 0.0030053117555 0.34792775373 0.93794414685 0.050605445715 0.33991931661 
0.93777364237 0.093872531991 0.33353098588 0.93454026869 0.12630699906 0.3311929211 0.93084555377 0.15461710166 0.33083156633 
0.92594855562 0.17217886052 0.33562163763 0.92090419587 0.18600866841 0.34241213064 0.91545919675 0.18969223461 0.35464127018 
0.90980895882 0.19025418061 0.36856747248 0.90357610747 0.18195475311 0.38731114328 0.89692011417 0.17157521815 0.40708308461 
0.88900879973 0.1550246977 0.42990556186 0.88061456794 0.13778200773 0.45287353253 0.87072162718 0.11839120542 0.47629303446 
0.86058684672 0.099707063224 0.49910503176 0.84966608719 0.083319566371 0.519942639 0.83891393523 0.06850860162 0.53976290509 
0.82873629792 0.059069524032 0.55611667541 0.8189905346 0.051238196249 0.57144381508 0.81078955129 0.049157665844 0.58309877583 
0.80304972287 0.047966543428 0.59394606466 0.79704383683 0.050119595048 0.60175650704 0.7913832117 0.052100094291 0.609081458 
0.78708924429 0.05339757371 0.61448467211 0.78300304863 0.053436206022 0.6197021033 0.77978407418 0.048220519971 0.62414409274 
0.77659485668 0.040868985175 0.62859008104 0.77353684032 0.024100299096 0.63305370069 0.7702338341 0.0047009724136 0.6374803028 
0.76578754187 -0.026974677079 0.6417341564 0.76068970136 -0.061333763011 0.64565031051 0.75236669679 -0.10897585932 0.64789485214 
0.74289216124 -0.15875499757 0.64941200784 0.72735693625 -0.219781725 0.64710081652 0.71030555394 -0.28185450283 0.64383454426 
0.68474684438 -0.34979678565 0.63520920676 0.65767471934 -0.41749198562 0.62577410536 0.6215221014 -0.4837046885 0.61148042064 
0.58417778696 -0.5487054044 0.59687012724 0.53916192629 -0.60590395406 0.58022166546 0.49332624572 -0.66150585648 0.56381506071 
0.44180648055 -0.70603767137 0.54908533136 0.38973952173 -0.74896840484 0.53499115648 0.33356861051 -0.77989102766 0.52566364013 
0.27697139515 -0.80935838445 0.51711883013 0.21689816135 -0.82695972595 0.51495608739 0.15648607647 -0.84323686897 0.5134991058 
0.093052569529 -0.84770657562 0.51833516103 0.02946289498 -0.85097368391 0.52363582446 -0.035660061527 -0.8424334628 0.53349809559 
-0.1006665775 -0.8329231555 0.54347289825 -0.16440389165 -0.81283890874 0.5546742945 -0.22773454073 -0.7921878819 0.56564699455 
-0.28609483886 -0.76460954303 0.57382451882 -0.34387474244 -0.73697213896 0.58154416167 -0.39360167161 -0.70851520525 0.58291069997 
-0.44274569659 -0.68043807204 0.58372561286 -0.48256325439 -0.65843774689 0.57571451919 -0.52188574926 -0.63704953154 0.56715943561 
-0.55188455924 -0.62718938398 0.54835920884 -0.58146990076 -0.61796949444 0.52904747284 -0.60162816171 -0.62334748757 0.49807332644 
-0.62140408523 -0.62924143618 0.46663127858 -0.63018780769 -0.64996910473 0.42173706399 -0.63859798186 -0.67099356044 0.37646587698 
-0.63256428882 -0.70349378573 0.31661842356 -0.6262215426 -0.73606019538 0.25655586867 -0.60179918596 -0.77249838984 0.18390987775 
-0.5775820592 -0.80863038099 0.11187435733 -0.5775820592 -0.80863038099 0.11187435733 -0.5775820592 -0.80863038099 0.11187435733 

FrenetNormal 3 240 double
0.24386985829 -0.68152020884 -0.68996934508 0.24386985829 -0.68152020884 -0.68996934508 0.24386985829 -0.68152020884 -0.68996934508 
0.34455090856 -0.69697373137 -0.6158207779 0.44608518808 -0.71255821595 -0.54104383303 0.53856847966 -0.71977182573 -0.40549175164 
0.63089705351 -0.72684234363 -0.26890077902 0.68629954921 -0.69801410711 -0.10853733709 0.74074706014 -0.66825745454 0.052440910086 
0.7575866437 -0.61282040265 0.17771707623 0.77311812543 -0.55649011948 0.30175143085 0.77392219358 -0.49763355082 0.37962706113 
0.77408032253 -0.43866618017 0.45547818596 0.77143391727 -0.38573726524 0.50133425322 0.76863859869 -0.33312897629 0.54559766256 
0.76585007509 -0.28944545581 0.57199403416 0.76306197618 -0.24631973337 0.59727371589 0.76734818114 -0.22192720591 0.6011355089 
0.77214424584 -0.19888481863 0.60345367029 0.76108720877 -0.34389423586 0.13343528871 0.74873309975 -0.5026533462 -0.37522881003 
0.20100749946 -0.30622907018 -0.6335957589 -0.3958347514 -0.077219162396 -0.8689996665 -0.43280074754 -0.024279044818 -0.90019975865 
-0.41274231032 0.010728038573 -0.91060131403 -0.35299340485 0.068852268006 -0.92871312192 -0.28879323191 0.12956907457 -0.94768963104 
-0.19038188461 0.21968162935 -0.94670888699 -0.087774827246 0.31339932307 -0.94328055529 0.032365325868 0.3981005607 -0.90370248705 
0.15484322508 0.48159960418 -0.85930445394 0.27681158035 0.50926153548 -0.80352094107 0.39870644369 0.52887003714 -0.7460952917 
0.54345862294 0.44710822258 -0.68548701766 0.69176145321 0.34959956279 -0.62438435532 0.80355802485 0.078483206761 -0.46792292861 
0.90927022007 -0.2215677653 -0.29556837451 0.84653854668 -0.43368263053 -0.10158777636 0.75378717394 -0.63012571435 0.096246968255 
0.68837121661 -0.68720127219 0.20358143442 0.6281489882 -0.71779700009 0.29372084769 0.61351107163 -0.70819180188 0.34608352015 
0.60808210693 -0.69046520445 0.39081452779 0.6281224131 -0.65552453321 0.4161962419 0.65362042015 -0.61689513188 0.43743167883 
0.69580127404 -0.56393193888 0.4389811046 0.74176586638 -0.50771778282 0.43606566186 0.79284228915 -0.43840449923 0.41318284176 
0.84514342129 -0.36595288301 0.38551617084 0.88935102564 -0.28482059647 0.34263426986 0.93151394928 -0.20149529848 0.29590852129 
0.95269067885 -0.13358243331 0.26385578961 0.96828597384 -0.06976861943 0.23570545605 0.96724599952 -0.041571589596 0.24857407059 
0.96155530474 -0.023331940249 0.27291034804 0.92999899631 -0.051097293339 0.34861311285 0.89085169256 -0.092364114534 0.43939082503 
0.77841222055 -0.17855668579 0.56394092359 0.64342131216 -0.27857256475 0.69888252566 0.46616535921 -0.35463425188 0.78332587455 
0.27529066969 -0.42297736609 0.85149756407 0.12499753481 -0.44414806254 0.87713568669 -0.011616424349 -0.44941794401 0.88843665192 
-0.10463050603 -0.42654369343 0.89466588698 -0.18228553996 -0.39375503269 0.89910848981 -0.23578700303 -0.34250384229 0.90665329667 
-0.28040439405 -0.28446183639 0.91533914409 -0.31043259416 -0.21018426393 0.92348185957 -0.33486261636 -0.12967676478 0.93141616396 
-0.34933483383 -0.034102449576 0.93120746065 -0.3598239294 0.067498592052 0.92774155427 -0.36136103503 0.1816743141 0.90696007445 
-0.35916814485 0.30108948634 0.87896377237 -0.34785340145 0.42615979864 0.82350022603 -0.33258219159 0.55368294279 0.75612317616 
-0.30685510018 0.67190882682 0.65538097256 -0.27641011099 0.78593960566 0.53958376055 -0.23641189762 0.87041555915 0.39913349011 
-0.19193192475 0.94102628592 0.24711758731 -0.14303535591 0.97327181921 0.095214862088 -0.091985696543 0.98681432067 -0.056632689062 
-0.040317587543 0.97344562535 -0.18700325607 0.011663660509 0.94645100761 -0.30649940072 0.067753720169 0.90979357366 -0.39749996609 
0.12600353978 0.86805696709 -0.47352208594 0.20386012257 0.82523039934 -0.5178997433 0.29241130347 0.78180930731 -0.54501678476 
0.42911972213 0.71987799831 -0.51604953797 0.593074999 0.64747380339 -0.45535039125 0.75610326801 0.48763723753 -0.28785357561 
0.9185876924 0.27650701404 -0.057702127524 0.94583230733 0.052409645152 0.14841213128 0.89083649759 -0.17957314998 0.33990918038 
0.80950472619 -0.35010588263 0.44386580407 0.71157769129 -0.48191665809 0.4926599679 0.62152872825 -0.58970233181 0.50241329577 
0.53662239545 -0.681804953 0.48668163351 0.45248792055 -0.76140850278 0.45089677074 0.36887526507 -0.8325619761 0.40155481468 
0.28442647521 -0.88944632791 0.34083405147 0.19939239129 -0.93634229466 0.27214812325 0.11818077582 -0.96761769443 0.19837503736 
0.039739065018 -0.98757384276 0.12091560533 -0.028670926976 -0.99454304686 0.042058100392 -0.089557129866 -0.99177204281 -0.037847959226 
-0.13616291378 -0.98026069513 -0.1181544656 -0.17168538745 -0.9619657972 -0.19877176648 -0.19294113969 -0.93745061316 -0.27924015049 
-0.20274028229 -0.90794035091 -0.35958894973 -0.20106537712 -0.87261343354 -0.43815911507 -0.18985818612 -0.83245421809 -0.51525164609 
-0.17171965938 -0.78683241606 -0.58758941225 -0.14762451599 -0.73651620367 -0.65584105235 -0.12052982813 -0.68285243491 -0.71670830747 