# vtk DataFile Version 5.1
vtk output
ASCII
DATASET POLYDATA
POINTS 240 float
0 0 0 -0.0907038 -0.269587 0.0558791 -0.181408 -0.539173 0.111758 
-0.312135 -0.817827 0.195858 -0.443202 -1.09656 0.280196 -0.606376 -1.3787 0.381104 
-0.770099 -1.6609 0.482295 -0.958151 -1.94096 0.588562 -1.14683 -2.22096 0.694961 
-1.35223 -2.49337 0.795097 -1.55821 -2.76551 0.895015 -1.77352 -3.02491 0.977599 
-1.98923 -3.28374 1.05942 -2.2072 -3.52529 1.11352 -2.42529 -3.76592 1.16614 
-2.63914 -3.9859 1.18206 -2.85272 -4.2046 1.19568 -3.0565 -4.40105 1.16602 
-3.25957 -4.59589 1.13324 -3.44868 -4.76897 1.0538 -3.63666 -4.94027 0.970539 
-3.80828 -5.09235 0.840765 -3.9784 -5.24266 0.706722 -4.13176 -5.37802 0.529796 
-4.28342 -5.51185 0.348503 -4.41983 -5.63621 0.131054 -4.55453 -5.75951 -0.09045 
-4.67655 -5.8792 -0.339619 -4.79703 -5.99845 -0.59218 -4.9075 -6.11969 -0.863368 
-5.01664 -6.2412 -1.13704 -5.11776 -6.3695 -1.42045 -5.21772 -6.49878 -1.70527 
-5.31008 -6.63839 -1.99183 -5.40127 -6.77962 -2.27866 -5.48351 -6.93326 -2.56057 
-5.56425 -7.08898 -2.84167 -5.63312 -7.25771 -3.11273 -5.69987 -7.42875 -3.382 
-5.7505 -7.61181 -3.63782 -5.79808 -7.79715 -3.89109 -5.82449 -7.99188 -4.12941 
-5.84663 -8.18849 -4.36471 -5.84245 -8.3906 -4.58548 -5.83264 -8.59388 -4.80315 
-5.79234 -8.79834 -5.00842 -5.74513 -9.00306 -5.21087 -5.66548 -9.20547 -5.4043 
-5.57806 -9.40732 -5.59556 -5.45926 -9.60534 -5.78159 -5.33254 -9.80239 -5.96631 
-5.1783 -9.99627 -6.1493 -5.01675 -10.1893 -6.33184 -4.83363 -10.3814 -6.51545 
-4.64449 -10.5733 -6.69936 -4.4415 -10.7674 -6.88589 -4.23444 -10.9623 -7.07319 
-4.0226 -11.1628 -7.26247 -3.80929 -11.365 -7.45236 -3.60057 -11.5747 -7.64052 
-3.39333 -11.7868 -7.82812 -3.19891 -12.0054 -8.007 -3.0088 -12.2263 -8.18293 
-2.83744 -12.4496 -8.34055 -2.67268 -12.6737 -8.49172 -2.53019 -12.8937 -8.61411 
-2.3959 -13.1121 -8.72591 -2.2853 -13.3192 -8.79949 -2.18379 -13.5218 -8.8584 
-2.10559 -13.7062 -8.87258 -2.03672 -13.8834 -8.86887 -1.98953 -14.0379 -8.8181 
-1.95136 -14.183 -8.74773 -1.93243 -14.3037 -8.63213 -1.92184 -14.4139 -8.49691 
-1.92745 -14.5009 -8.32162 -1.94038 -14.5774 -8.12825 -1.96594 -14.6342 -7.90219 
-1.99744 -14.6818 -7.66079 -2.03756 -14.7146 -7.395 -2.08188 -14.7402 -7.11732 
-2.13066 -14.7561 -6.82327 -2.1817 -14.7672 -6.52094 -2.23341 -14.7731 -6.20911 
-2.28547 -14.7763 -5.8923 -2.33548 -14.7778 -5.57119 -2.38437 -14.7785 -5.24773 
-2.43001 -14.7801 -4.92356 -2.47379 -14.7823 -4.59899 -2.51465 -14.7873 -4.27608 
-2.5538 -14.794 -3.95413 -2.59162 -14.8053 -3.63532 -2.62863 -14.8193 -3.31842 
-2.66655 -14.8394 -3.00556 -2.70504 -14.8633 -2.69525 -2.74653 -14.8948 -2.38962 
-2.78997 -14.9312 -2.08704 -2.83756 -14.9768 -1.78964 -2.88795 -15.0286 -1.49576 
-2.94222 -15.091 -1.20753 -2.9992 -15.1609 -0.923263 -3.0581 -15.2429 -0.645062 
-3.11838 -15.3337 -0.371257 -3.17724 -15.4378 -0.103815 -3.23502 -15.5518 0.158856 
-3.28731 -15.6798 0.415065 -3.33534 -15.8186 0.666258 -3.37404 -15.9713 0.91116 
-3.40526 -16.1352 1.15101 -3.42455 -16.3119 1.38503 -3.43394 -16.4994 1.61422 
-3.43073 -16.6982 1.83831 -3.41669 -16.9067 2.05802 -3.39149 -17.1244 2.27353 
-3.35635 -17.3502 2.4853 -3.31327 -17.5831 2.69381 -3.26288 -17.8224 2.89933 
-3.20889 -18.0668 3.10248 -3.15147 -18.3159 3.3034 -3.09493 -18.5684 3.50267 
-3.03927 -18.8242 3.70032 -2.98816 -19.0822 3.89675 -2.94167 -19.3426 4.09193 
-2.90176 -19.6045 4.28593 -2.86879 -19.8681 4.47868 -2.84259 -20.1331 4.66999 
-2.82378 -20.3995 4.85972 -2.8104 -20.667 5.04758 -2.80313 -20.9359 5.23334 
-2.79875 -21.2056 5.41679 -2.79772 -21.4764 5.59753 -2.79602 -21.7476 5.7756 
-2.79353 -22.0193 5.95045 -2.78629 -22.2906 6.12241 -2.77314 -22.5614 6.29076 
-2.75134 -22.8309 6.45614 -2.7184 -23.0986 6.61768 -2.67379 -23.3639 6.7762 
-2.61361 -23.6259 6.9307 -2.53994 -23.8848 7.08214 -2.44767 -24.1392 7.22935 
-2.34137 -24.39 7.37344 -2.21503 -24.6354 7.51308 -2.07532 -24.8769 7.64958 
-1.91584 -25.1128 7.78144 -1.74468 -25.345 7.91026 -1.55562 -25.5717 8.0344 
-1.35722 -25.7952 8.15578 -1.144 -26.0136 8.27278 -0.923999 -26.2295 8.38752 
-0.692839 -26.4411 8.49858 -0.457269 -26.6506 8.60815 -0.214183 -26.8565 8.71519 
0.0313571 -27.0607 8.82167 0.281233 -27.2619 8.92716 0.53211 -27.4615 9.03309 
0.784822 -27.658 9.13981 1.03757 -27.8527 9.24791 1.29038 -28.0438 9.35862 
1.54265 -28.2326 9.47147 1.79385 -28.4165 9.58854 2.04429 -28.5971 9.70823 
2.29315 -28.7709 9.83329 2.54131 -28.9403 9.9611 2.78797 -29.1001 10.0948 
3.03426 -29.2541 10.231 3.27973 -29.3953 10.3727 3.52537 -29.5296 10.5164 
3.77143 -29.6479 10.6646 4.01834 -29.7585 10.814 4.26727 -29.8504 10.9662 
4.51772 -29.9344 11.1188 4.77194 -29.9983 11.2723 5.02822 -30.0545 11.4255 
5.28985 -30.0906 11.5777 5.55386 -30.1201 11.7292 5.82434 -30.1311 11.8783 
6.09721 -30.137 12.0265 6.37682 -30.1282 12.1718 6.65848 -30.116 12.3163 
6.9462 -30.0938 12.4583 7.23534 -30.0699 12.6 7.5289 -30.0408 12.7403 
7.8231 -30.0111 12.8808 8.11936 -29.9795 13.0216 8.41541 -29.9478 13.1631 
8.71076 -29.9155 13.3066 9.00514 -29.8827 13.451 9.29605 -29.8483 13.5989 
9.58539 -29.8128 13.7479 9.86881 -29.7731 13.9011 10.1503 -29.7315 14.0555 
10.4241 -29.6823 14.2144 10.6958 -29.6307 14.3744 10.959 -29.5689 14.5389 
11.2201 -29.5047 14.7045 11.4726 -29.4292 14.8744 11.7234 -29.3516 15.0452 
11.9662 -29.2638 15.2205 12.2076 -29.1747 15.3968 12.4423 -29.0788 15.5781 
12.676 -28.9827 15.7604 12.9049 -28.8852 15.9485 13.1332 -28.7887 16.1378 
13.3586 -28.6978 16.3338 13.5837 -28.6089 16.5311 13.8075 -28.5325 16.7358 
14.0313 -28.4589 16.9416 14.2549 -28.4037 17.1546 14.4784 -28.3519 17.3685 
14.7018 -28.3232 17.5887 14.9252 -28.2982 17.8094 15.1478 -28.3002 18.0347 
15.3702 -28.3058 18.2602 15.5899 -28.3413 18.4878 15.8088 -28.3804 18.7153 
16.0217 -28.4513 18.9418 16.2334 -28.5255 19.168 16.4342 -28.6326 19.3901 
16.6334 -28.7426 19.6116 16.8166 -28.8854 19.8266 16.9981 -29.0308 20.0409 
17.1593 -29.2075 20.2471 17.3188 -29.3864 20.4527 17.4554 -29.594 20.6497 
17.5905 -29.8033 20.8463 17.7016 -30.0376 21.0345 17.8114 -30.2731 21.2224 
17.8977 -30.529 21.4029 17.983 -30.7856 21.5832 18.0466 -31.0573 21.7575 
18.1095 -31.3293 21.9317 18.1534 -31.6108 22.1014 18.1969 -31.8923 22.2711 
18.2247 -32.1771 22.438 18.2523 -32.4619 22.6048 18.2679 -32.7438 22.7706 
18.2835 -33.0256 22.9364 18.2907 -33.2982 23.1029 18.298 -33.5709 23.2693 

LINES 2 240
OFFSETS vtktypeint64
0 240 
CONNECTIVITY vtktypeint64
0 1 2 3 4 5 6 7 8 
9 10 11 12 13 14 15 16 17 
18 19 20 21 22 23 24 25 26 
27 28 29 30 31 32 33 34 35 
36 37 38 39 40 41 42 43 44 
45 46 47 48 49 50 51 52 53 
54 55 56 57 58 59 60 61 62 
63 64 65 66 67 68 69 70 71 
72 73 74 75 76 77 78 79 80 
81 82 83 84 85 86 87 88 89 
90 91 92 93 94 95 96 97 98 
99 100 101 102 103 104 105 106 107 
108 109 110 111 112 113 114 115 116 
117 118 119 120 121 122 123 124 125 
126 127 128 129 130 131 132 133 134 
135 136 137 138 139 140 141 142 143 
144 145 146 147 148 149 150 151 152 
153 154 155 156 157 158 159 160 161 
162 163 164 165 166 167 168 169 170 
171 172 173 174 175 176 177 178 179 
180 181 182 183 184 185 186 187 188 
189 190 191 192 193 194 195 196 197 
198 199 200 201 202 203 204 205 206 
207 208 209 210 211 212 213 214 215 
216 217 218 219 220 221 222 223 224 
225 226 227 228 229 230 231 232 233 
234 235 236 237 238 239 
CELL_DATA 1
FIELD FieldData 3
Length 1 1 double
74.308658261 
Tortuosity 1 1 double
0.66023090371 
ClusterLabel 1 1 int
1 
POINT_DATA 240
FIELD FieldData 6
Curvature 1 240 double
0 0.10927767326 0.21855534653 0.17759341423 0.13535826493 0.11387436706 0.092745191438 0.085893662256 0.07941138255 
0.085438668166 0.091901069097 0.10989251348 0.12838961766 0.15882128579 0.18988664757 0.23226852242 0.27535767933 0.32001926958 
0.36479418836 0.38818954348 0.40983566157 0.39277637696 0.37216613797 0.32521992757 0.27559134971 0.22580708816 0.17600536676 
0.13864256287 0.1028052866 0.082982633057 0.065295262548 0.064182638292 0.065460602439 0.073846221375 0.083335942027 0.094399126386 
0.1057245547 0.1180518921 0.13055778757 0.14467483565 0.15909800273 0.17565865953 0.19265113242 0.20957379202 0.22648149162 
0.23635526321 0.24463371091 0.23866210106 0.22927641491 0.20715415329 0.1818142305 0.15163581076 0.12017055673 0.089682359171 
0.059467317181 0.037592650268 0.018165702127 0.026638770317 0.043696458915 0.061102574547 0.078620961112 0.097606204419 0.11708589382 
0.14762421698 0.18205819523 0.24722348804 0.32369225289 0.46920591272 0.64121354388 0.89318840039 1.177150147 1.3158399013 
1.3939996588 1.2303012234 0.96170043916 0.72215050885 0.49570889066 0.34761051237 0.23626575279 0.1643458141 0.1116454756 
0.076703116456 0.050752139267 0.035723735865 0.02643668535 0.023807447395 0.024809743564 0.026560702886 0.028735247939 0.031752014547 
0.035262884467 0.041417345196 0.049179394929 0.058996022842 0.070107316456 0.081384727667 0.092770576754 0.10309170792 0.1126930298 
0.12124667833 0.12906695553 0.13723327557 0.14565035129 0.15519635465 0.16558905376 0.17544790017 0.18489241315 0.19054876852 
0.19316311854 0.19000216095 0.18204325551 0.16906369301 0.15176950335 0.13188065496 0.10968544327 0.087760688548 0.066084579743 
0.049790795514 0.038614631374 0.036944436157 0.044621777045 0.052615019048 0.060929516421 0.065927766186 0.067438238294 0.065746596709 
0.060571954265 0.053200056942 0.043356247881 0.035433528562 0.029746259128 0.033575187054 0.048858796987 0.067333971108 0.089783545916 
0.11172780348 0.1330209792 0.15182046814 0.16729504139 0.17889780973 0.18515748731 0.18712451114 0.18295917243 0.1754323419 
0.16293330471 0.14883433874 0.13228441804 0.11567771518 0.098980901493 0.083073815915 0.068465394332 0.055048106823 0.043661161484 
0.034216191059 0.028203548391 0.025046644291 0.027125260899 0.030670930012 0.037007577063 0.043760184213 0.051334312558 0.05925655508 
0.067892877964 0.076997576359 0.087100654134 0.097597342921 0.10896635882 0.12014293231 0.13087581914 0.1405739128 0.14778850286 
0.15320372652 0.15412053423 0.15274479616 0.14539454486 0.13591687643 0.12065529269 0.10448609264 0.085740433422 0.067319272479 
0.049860789761 0.033500687767 0.02054935354 0.010939596929 0.012189967573 0.014936259763 0.022779766108 0.030893259081 0.039972473452 
0.049222515404 0.05911486906 0.068658579612 0.076822244542 0.084053865566 0.087395216375 0.089558296733 0.086526275558 0.082449878889 
0.073499729915 0.064453287877 0.054930195169 0.047612712215 0.051903701648 0.057872824708 0.073258142003 0.088547228705 0.10325893186 
0.11750261019 0.12873337872 0.13958118855 0.14777381808 0.15570635285 0.16168817686 0.16758452044 0.17278386965 0.17804657016 
0.18387415292 0.18970519529 0.19557020465 0.20119832588 0.20424436642 0.20687905635 0.20448612783 0.2017047054 0.19353293002 
0.18509890218 0.17246883512 0.15973455735 0.14503764463 0.13034603619 0.11577536527 0.1012580359 0.088274276236 0.075361212331 
0.065181717767 0.055095452266 0.050463086926 0.045677725809 0.022838862904 0 
Torsion 1 240 double
0 0 0 0.1752223421 0.35192961929 0.45205412959 0.55086953275 0.60698376113 0.66199364878 
0.59350247673 0.52071561565 0.4265813477 0.33151078997 0.27186612115 0.21410247297 0.18238475968 0.15229491731 0.13644996005 
0.12163166118 0.11604682592 0.11121745586 0.11581227682 0.12127170245 0.14271407749 0.16578434552 0.22485712612 0.28796757167 
0.4400303521 0.60300238115 0.8156611565 1.0349448314 0.86561069635 0.64022591568 0.40675699726 0.17203229046 0.042306240711 
-0.069920032865 -0.14247185634 -0.20795298574 -0.25100396485 -0.28979321541 -0.30349175443 -0.31212146284 -0.29796554604 -0.27892699527 
-0.24929021619 -0.21724971521 -0.18632975965 -0.15567826809 -0.12895438523 -0.10322274035 -0.071353658263 -0.037852279052 0.086655062534 
0.23660493124 2.0285831029 4.3024608851 3.0314685791 0.66974701521 -0.025713444919 -0.18426754937 -0.27585439364 -0.34486800414 
-0.38021651093 -0.40370571983 -0.39105819523 -0.36511899853 -0.3146740627 -0.25482576185 -0.19877964325 -0.14425439757 -0.11244713585 
-0.09010570079 -0.079679743178 -0.074421944459 -0.073076137225 -0.07349549688 -0.09067972202 -0.11572894578 -0.18626934655 -0.27898669609 
-0.50681906211 -0.80306409469 -1.1501790961 -1.5240334401 -1.4395310821 -1.1050159776 -0.93530163229 -0.85882982184 -0.81196144655 
-0.78246041988 -0.67260221368 -0.51387815505 -0.36278520526 -0.21650089939 -0.097497301729 0.0036980558415 0.094305587953 0.17775515356 
0.25256915069 0.32133824989 0.36792338647 0.39843318782 0.40081652709 0.38210501981 0.34907797341 0.30494035934 0.26028051529 
0.21520130475 0.17235892203 0.13137482703 0.087429442244 0.040939199055 -0.02559190888 -0.10993711881 -0.28936633919 -0.55621150465 
-0.96336231577 -1.5039184949 -1.4641043765 -0.85359279875 -0.43629494738 -0.21548563126 -0.061142268367 0.023297247184 0.11089621262 
0.20193177267 0.38970871839 0.68631972299 1.1699263643 1.8711279283 1.8798315558 1.0549728522 0.51048672391 0.31514380249 
0.18051083564 0.12410031024 0.081284791397 0.056595947949 0.036327266793 0.022158409597 0.0098209703844 9.9842577121e-05 -0.0081299464869 
-0.014153796993 -0.017759208525 -0.017659777371 -0.011792872058 0.0032267639854 0.032881811773 0.086603981096 0.18160754151 0.34697710946 
0.55647506505 0.84396738017 0.94632906964 0.7092846121 0.46993548768 0.22620187502 0.029944495274 -0.072547324489 -0.15619040378 
-0.20116940005 -0.23622874282 -0.25014356104 -0.25787197019 -0.25188995926 -0.24341328951 -0.22918504528 -0.21498623936 -0.20085808538 
-0.1876040493 -0.17653530792 -0.16658294943 -0.15953995242 -0.15404645448 -0.15276565716 -0.15187462135 -0.15209000528 -0.14259844837 
-0.10430963368 0.12178150212 0.93070742754 1.4187295463 0.86381429328 0.346291482 -0.043820046367 -0.34666324948 -0.33735436608 
-0.31833124827 -0.26278260907 -0.20772869746 -0.15463308257 -0.10201544236 -0.051392826913 0.0032254030076 0.075460660393 0.16471009609 
0.33335903058 0.54331744187 0.95775776337 1.2824944661 1.1351068594 0.96295128058 0.65181985861 0.37073183237 0.26990418046 
0.17739319246 0.13842072841 0.10140953501 0.077996484696 0.05476882693 0.032931613253 0.011071136656 -0.010979022219 -0.032500805904 
-0.049311244138 -0.065232707802 -0.072426057509 -0.07911616696 -0.08032095762 -0.081461461517 -0.081816238307 -0.082278295643 -0.084228870562 
-0.086406924698 -0.092224646311 -0.098433545463 -0.11200962162 -0.12627897137 -0.15635495896 -0.18770312941 -0.25562655727 -0.32566682902 
-0.47755839818 -0.62165116645 -0.30951408288 0 0 0 
FrenetTangent 3 240 double
-0.36483768242 -0.90204383149 0.23067377737 -0.36483768242 -0.90204383149 0.23067377737 -0.36483768242 -0.90204383149 0.23067377737 
-0.40513778334 -0.8761212246 0.2555147002 -0.44577941054 -0.84997893462 0.28056613932 -0.47604126074 -0.8295220907 0.28960366812 
-0.50612567885 -0.8091624339 0.29836745486 -0.53090029121 -0.79395417698 0.29483237694 -0.55553758101 -0.77887914593 0.29097922493 
-0.57770260019 -0.76779400165 0.27547339323 -0.59978162735 -0.75684763604 0.25956225092 -0.62069147094 -0.74850617138 0.23040072928 
-0.64155003455 -0.74027895676 0.20065805064 -0.66079414237 -0.7326995959 0.15441426673 -0.67995252688 -0.72515463436 0.10729431794 
-0.69434011845 -0.71504015642 0.040255283784 -0.70842953545 -0.7047650837 -0.028028693207 -0.71125461552 -0.68731637546 -0.11579246633 
-0.71326785148 -0.66935064844 -0.20496018873 -0.69715552646 -0.64084498887 -0.30364969781 -0.67956020099 -0.61147697118 -0.40311826215 
-0.64434339648 -0.57455244899 -0.49381377541 -0.60750994252 -0.5369346695 -0.5837044216 -0.56339373991 -0.50096280682 -0.65121530073 
-0.51853577586 -0.46515858382 -0.71644675914 -0.47735672885 -0.43880695936 -0.75875460645 -0.43659027067 -0.41351543941 -0.79849158149 
-0.40405058875 -0.40008800639 -0.82164244754 -0.3725198511 -0.38811560291 -0.84275916815 -0.3487794181 -0.38712295919 -0.85316839178 
-0.3260776924 -0.38759428344 -0.86214994914 -0.3084657404 -0.3971331002 -0.86413781614 -0.29158789038 -0.40797972838 -0.86511697781 
-0.27630314027 -0.42584617666 -0.86122650311 -0.26126586199 -0.44480308243 -0.85657958004 -0.24436577384 -0.46883619893 -0.84823084983 
-0.22715521738 -0.49371535054 -0.83926515177 -0.20482430142 -0.52156583336 -0.82736921122 -0.18158084614 -0.54994586036 -0.81495104925 
-0.15018806436 -0.57856914016 -0.80038062124 -0.11724691055 -0.60723863799 -0.78540126268 -0.073882255671 -0.63261721547 -0.76905463199 
-0.028411843004 -0.65733096056 -0.7524317847 0.027710249586 -0.67469659157 -0.73494218071 0.086114845016 -0.6904876267 -0.71726684315 
0.15150558385 -0.69562438096 -0.69889078567 0.21848080882 -0.69834470038 -0.68035580202 0.28463066976 -0.69041585392 -0.66154573896 
0.35058278724 -0.6799356448 -0.64266977146 0.40758723174 -0.6632546316 -0.62486160303 0.46233121148 -0.64500709948 -0.60732319436 
0.50409965634 -0.62674212226 -0.59258322144 0.54241716107 -0.60847250539 -0.57858751335 0.56775583118 -0.59500838852 -0.56828078753 
0.58946600989 -0.58288774476 -0.55900539008 0.59997200648 -0.57820840976 -0.55283497629 0.60718981919 -0.57571293712 -0.54757580771 
0.60556378689 -0.58127294642 -0.54343455682 0.60121657151 -0.58931156556 -0.5396372806 0.59068597095 -0.60456786917 -0.53395607324 
0.57816294628 -0.6221498711 -0.5276678214 0.56219015786 -0.64567041473 -0.51573299041 0.54505452771 -0.67119271398 -0.50189481813 
0.52649200888 -0.7019684867 -0.47745311261 0.50742683608 -0.73459491483 -0.44927607151 0.4871273328 -0.77219990468 -0.40230363302 
0.46637382291 -0.81163608964 -0.34841794491 0.44087199537 -0.8520476835 -0.26077799368 0.41354813898 -0.89283356216 -0.16018582521 
0.37096561096 -0.91256947144 -0.0088883222951 0.32227961429 -0.92388539296 0.1626913144 0.25144044236 -0.87205953886 0.35631859845 
0.17137078074 -0.79392461158 0.55913240223 0.093897760192 -0.67431533397 0.70695690079 0.0175509936 -0.53671718152 0.83093061637 
-0.037609225878 -0.41819825916 0.89949841747 -0.083209661902 -0.3082882577 0.94306598888 -0.11314631566 -0.22744261868 0.96478255521 
-0.13573452835 -0.16023211265 0.97624803274 -0.14942560965 -0.11276308074 0.98162425241 -0.15877933941 -0.074918017443 0.98403195887 
-0.16268019802 -0.049133305785 0.98527858203 -0.16382010923 -0.029455101285 0.9859373149 -0.16144944814 -0.017226767232 0.98669129137 
-0.15723348622 -0.0089143907226 0.98749533178 -0.1511819307 -0.0054356338499 0.98846802592 -0.1441291423 -0.0045933967795 0.989532713 
-0.13701512429 -0.0072488742172 0.99051000116 -0.12986646322 -0.011883321706 0.99143783994 -0.12442517968 -0.019445560841 0.99199205057 
-0.11998555762 -0.028725437742 0.99232706602 -0.11861458782 -0.040807045585 0.99201858681 -0.11910969034 -0.054592408732 0.99131879326 
-0.12314393804 -0.071287567356 0.9896574606 -0.12940833202 -0.089816295733 0.98739022657 -0.13847781199 -0.11141839205 0.98377770805 
-0.14937838974 -0.13502671466 0.9792870177 -0.16121237874 -0.16180090571 0.97311403834 -0.17367740633 -0.19071540219 0.96580373684 
-0.18440795433 -0.22272352453 0.95668521224 -0.19392436662 -0.25689718496 0.94630093149 -0.19892254675 -0.29381273837 0.93418398158 
-0.2006466456 -0.33271517075 0.9208114743 -0.19577897955 -0.37350338998 0.90576263913 -0.18596748982 -0.41570594934 0.88945655804 
-0.16890480146 -0.45815767666 0.87141130079 -0.14621431715 -0.50080278805 0.85201623516 -0.11760960928 -0.54141675924 0.83096928758 
-0.084255600689 -0.58039966328 0.80859582876 -0.048210456175 -0.61533659007 0.78524095794 -0.0099295987429 -0.64691224344 0.76107076023 
0.027122077853 -0.6737286734 0.73721137366 0.063117427168 -0.69645514574 0.71361909043 0.094696262715 -0.71515338395 0.6917263029 
0.12234930825 -0.73027096962 0.67134417822 0.14381291447 -0.74279067515 0.65354664257 0.15958622971 -0.75292200703 0.63812526134 
0.16876991307 -0.76174206234 0.62540893554 0.1716880448 -0.7693153301 0.61526462963 0.16872643695 -0.77632809469 0.60723101991 
0.15998308519 -0.78278969784 0.60127292812 0.14703929628 -0.78894599731 0.59639335736 0.12982387639 -0.79479181847 0.59261058763 
0.11080354732 -0.80035670109 0.58889463394 0.089884951684 -0.80562611387 0.58524895229 0.069654016205 -0.81066415306 0.58108581914 
0.050171061945 -0.81545052272 0.57635984401 0.033497858178 -0.82013733512 0.5710335392 0.019985623715 -0.8247121456 0.5650318635 
0.011042815648 -0.82927885664 0.55867489643 0.0074171582939 -0.83383614289 0.55190449937 0.0097120915088 -0.83825247884 0.54509629992 
0.019133661519 -0.84249915238 0.53824259758 0.035097390449 -0.84609754255 0.53145625203 0.059207958788 -0.84888863644 0.52475378473 
0.089423863179 -0.85017873813 0.51784948862 0.12750625825 -0.84953486911 0.51068514383 0.17011650047 -0.84651345201 0.50278592335 
0.21876387221 -0.84032197083 0.49390686862 0.26950318434 -0.83133712819 0.48386679359 0.32312937421 -0.81849744675 0.47222451057 
0.37614961653 -0.80329086059 0.45943777364 0.42830421949 -0.78470298196 0.44501610256 0.47770035705 -0.76494421016 0.42996372237 
0.52301626454 -0.74345349223 0.41397841827 0.56453630351 -0.72217643291 0.39813608977 0.60024139498 -0.70122668041 0.38251278771 
0.63216953786 -0.68146163222 0.36774555792 0.65810382756 -0.66357665826 0.35433687758 0.68086873109 -0.64721784557 0.34228525963 
0.69842175512 -0.63336872029 0.33246525536 0.71356888776 -0.620891685 0.32428249607 0.72461506913 -0.61075343947 0.31889049527 
0.73396375607 -0.60154729149 0.31524575522 0.74031222032 -0.59398857175 0.31468919694 0.74557198959 -0.58678432367 0.31585490474 
0.74883581806 -0.5802299403 0.32017810036 0.75152740917 -0.57341702098 0.32607087998 0.75313035358 -0.56611225279 0.33494969744 
0.75462028665 -0.55793529815 0.34512226628 0.75588702234 -0.54803577526 0.35784999409 0.75746518387 -0.53666179386 0.37147285475 
0.75968216764 -0.52226328219 0.38693188536 0.76256352376 -0.50585333053 0.40276435042 0.76686104199 -0.48515583574 0.41939282048 
0.77202163287 -0.46208332613 0.43575251732 0.77909497934 -0.43374727015 0.45151655457 0.78696796254 -0.40303502582 0.46630300331 
0.79668455266 -0.36684434723 0.47883556738 0.806853687 -0.32879444603 0.48977615131 0.81810892748 -0.28628241057 0.49689598291 
0.82932770979 -0.24292688325 0.50211915798 0.84045534671 -0.19746262627 0.50260069174 0.85112403791 -0.15251261652 0.50135402087 
0.86059668878 -0.10890276625 0.49560354402 0.86941058505 -0.067186337108 0.48879309815 0.87643349226 -0.030617646668 0.47910086155 
0.88284680079 0.003207570818 0.46925962019 0.88752963563 0.029244865078 0.45899539756 0.8917368164 0.052536154113 0.44934765846 
0.89453289009 0.06768096098 0.44152882047 0.89690747787 0.080756447025 0.43475333668 0.89797400595 0.087409902932 0.43121584869 
0.89858717502 0.093013728261 0.42881989293 0.89772692733 0.095206254208 0.43013391688 0.89636592322 0.097403544354 0.43245973753 
0.89329863799 0.099617068069 0.43823316179 0.88971004436 0.10267094199 0.44476434613 0.88425677072 0.10873068398 0.45400598005 
0.87829088357 0.1160625253 0.46368851563 0.87039756962 0.12817746013 0.47502884149 0.86202627748 0.14150385028 0.48649477343 
0.8517629883 0.15962558441 0.49845789609 0.84111098062 0.17844757536 0.51031776291 0.82883649573 0.20019237738 0.52174664882 
0.81635576123 0.22187991065 0.53299204352 0.8029656535 0.24331494075 0.54342840874 0.78963488083 0.26391322227 0.55375994022 
0.77658100511 0.28060667711 0.56360224763 0.76386599295 0.2958050995 0.57351464051 0.75282835542 0.30360311124 0.58377395646 
0.7423076635 0.30950412093 0.594242493 0.73450773799 0.3054209093 0.60581219051 0.72721305697 0.29939088953 0.61757086513 
0.72275335892 0.28243711289 0.6303899113 0.71862239162 0.26380206215 0.64321470185 0.71646380877 0.23507936676 0.6560739587 
0.7144015685 0.20507900749 0.668709749 0.71295953362 0.16685368699 0.67990697331 0.71140665202 0.12772549493 0.69071066632 
0.70908523317 0.082337393441 0.6987858756 0.70648032412 0.036351353229 0.70639140837 0.70174923853 -0.014119227414 0.7104743673 
0.6965781605 -0.064960837776 0.7141015544 0.68781945186 -0.11882776739 0.71401244823 0.67847364261 -0.1729205264 0.71352819814 
0.66389285296 -0.2290269309 0.7095205814 0.64862044243 -0.28522465179 0.70516971638 0.62655757232 -0.34231893361 0.69744877742 
0.60381406673 -0.39929588948 0.68942125493 0.57365163429 -0.45499399252 0.678051972 0.54296965643 -0.5103232849 0.66644215233 
0.50593767893 -0.56114489134 0.65189243919 0.46864046083 -0.61142422946 0.63721547809 0.42766302958 -0.65417959468 0.62077295176 
0.38666910069 -0.69636222012 0.604330561 0.34541120966 -0.72938100917 0.58789033951 0.30430416605 -0.76191331153 0.57154867645 
0.26603808234 -0.78528344781 0.55706319712 0.22798654533 -0.80830257458 0.54272424977 0.19482667303 -0.82331868428 0.53172623159 
0.16186867674 -0.83810952139 0.52087868598 0.13471461557 -0.84642377173 0.51435722681 0.10771398339 -0.8546034857 0.50796441269 
0.086645938853 -0.85758112708 0.50654587351 0.06567619468 -0.86048174291 0.5052221019 0.050457021799 -0.85887636377 0.50944223284 
0.035365741128 -0.85728447522 0.51362690049 0.035365741128 -0.85728447522 0.51362690049 0.035365741128 -0.85728447522 0.51362690049 

FrenetNormal 3 240 double
-0.72832197758 0.43083646286 0.53284804517 -0.72832197758 0.43083646286 0.53284804517 -0.72832197758 0.43083646286 0.53284804517 
-0.74967226832 0.47709671331 0.44747588869 -0.77120349372 0.52374899979 0.36138023936 -0.80217815503 0.53579676024 0.21648516514 
-0.83331424259 0.54725299033 0.070584972536 -0.826972924 0.50304307386 -0.13422273299 -0.81966236214 0.45739351568 -0.34055390868 
-0.74338365214 0.37522099545 -0.51346138461 -0.66470605004 0.29177811133 -0.68520629708 -0.56834078352 0.23251988344 -0.77610608987 
-0.47119974224 0.17432238609 -0.86346004409 -0.38275035664 0.15441797672 -0.90552244735 -0.29476247488 0.13654682866 -0.94517998949 
-0.20860924489 0.14840996009 -0.96258729798 -0.12257068063 0.16213148398 -0.97860396686 -0.030575141912 0.19593138675 -0.97510755983 
0.061849728301 0.2311783799 -0.970204805 0.15809123546 0.27440843695 -0.94208973371 0.25464501292 0.31829165378 -0.91207547289 
0.34455555725 0.35470151389 -0.86229204332 0.43385663065 0.39042574494 -0.81069492855 0.50958811109 0.40551376383 -0.75284074589 
0.58393750337 0.4184999463 -0.69434926929 0.65118726084 0.39811667567 -0.6399803752 0.71764079759 0.37399103646 -0.58607382682 
0.78942726539 0.28446254893 -0.52690182744 0.86186777191 0.18691295736 -0.4670840652 0.89612987286 -0.035124945131 -0.35079728289 
0.92530151973 -0.27376128908 -0.22698129789 0.8259181666 -0.48226968504 -0.073105871871 0.70799322694 -0.6864327039 0.085105050454 
0.62747307016 -0.75135135692 0.17025371689 0.55276336509 -0.79463981719 0.24405290668 0.54510720563 -0.7897708399 0.27948488742 
0.54862663711 -0.77687562302 0.30852233332 0.58853503422 -0.73958007884 0.32053560223 0.63492859353 -0.69793596147 0.3295148594 
0.69589012011 -0.63260104702 0.32673286777 0.75961956047 -0.56276488113 0.32171623886 0.81796207813 -0.47200730063 0.30973049639 
0.87521632858 -0.37702317171 0.29633685219 0.9127015241 -0.27177321445 0.28394735299 0.94595049355 -0.16432343682 0.2717730277 
0.95638151891 -0.059839049308 0.2668976342 0.96163734045 0.0439727755 0.26367766851 0.9498569176 0.13432712697 0.26847867691 
0.93399489454 0.22145729213 0.27520137702 0.91062646056 0.29078943176 0.28531922435 0.88536167013 0.3556252281 0.29629479308 
0.86117743023 0.40175260823 0.30767148174 0.83728057079 0.44290434574 0.31915485123 0.82105798957 0.45120366174 0.34786562207 
0.8069809055 0.45031842979 0.38139265565 0.55317037944 0.049411240719 0.54420451928 0.22900329975 -0.46889369664 0.74495867001 
-0.12043411371 -0.66674567518 0.58124779525 -0.47764701448 -0.76599674331 0.30539383572 -0.56189615858 -0.782863094 0.26480512182 
-0.5581903144 -0.77318325797 0.30002409817 -0.5253501052 -0.75730171962 0.37550603376 -0.48268932352 -0.73932971982 0.46455975337 
-0.42770307321 -0.70070466933 0.55871610651 -0.36837489645 -0.65480411234 0.65466997828 -0.31861953188 -0.58481990031 0.73694890918 
-0.27238520169 -0.50597733241 0.81419797677 -0.25306821551 -0.39800131644 0.87282390513 -0.24407997762 -0.27884618668 0.92430374518 
-0.2630521513 -0.11607172589 0.9415175818 -0.29320848959 0.064150467308 0.94502501704 -0.32619239036 0.26529697638 0.87946972376 
-0.36035444215 0.47516195039 0.78513829361 -0.37145649725 0.63216114147 0.65231564918 -0.37255662609 0.76623059537 0.50279802025 
-0.36053098883 0.84428321836 0.3774564688 -0.34258274981 0.89705995422 0.26302363524 -0.31836943568 0.92775731709 0.18138247039 
-0.29121695051 0.94809645559 0.11512505135 -0.24436232131 0.96489276384 0.073669638144 -0.18790289688 0.97996194233 0.044305202782 
-0.060024538012 0.98528051705 0.039380851146 0.10401530665 0.98566207719 0.046831225447 0.38229693108 0.83550597596 0.077541283999 
0.72062872179 0.606221104 0.12047758684 0.8765853609 0.26924497162 0.13549278505 0.93306464458 -0.12647184826 0.13527828983 
0.86425930319 -0.417746357 0.11644959914 0.72456923973 -0.64992850551 0.087089192577 0.5254527751 -0.81214973862 0.049924323817 
0.2914728218 -0.9333272347 0.0081808372308 0.075949275954 -0.97776301538 -0.031223745494 -0.12835077887 -0.97553153669 -0.069206021817 
-0.26468448845 -0.95417086429 -0.10169434242 -0.35819009007 -0.9207561794 -0.13072071833 -0.40445949162 -0.90010766833 -0.15887572347 
-0.41989415146 -0.88779263183 -0.18646191714 -0.40324490372 -0.88846832904 -0.21453367703 -0.3649051269 -0.89792649412 -0.24293370704 
-0.29713964731 -0.91198048023 -0.26960367976 -0.20877617579 -0.92925154108 -0.29506261237 -0.099843860528 -0.93664342199 -0.31587226029 
0.023993413976 -0.93687647686 -0.33331286134 0.1488620962 -0.91857277631 -0.34664648154 0.27450433421 -0.8863665092 -0.35689986612 
0.38484555934 -0.84046896728 -0.36732160247 0.4833113715 -0.78394536134 -0.37787399991 0.56297881837 -0.72311949943 -0.39147400067 
0.62755060828 -0.6588387956 -0.40752131926 0.67625236504 -0.59718441745 -0.42644824305 0.71176978658 -0.53771190985 -0.44776745424 
0.73433648969 -0.48619701174 -0.47134418423 0.74577366914 -0.44152068428 -0.49686096946 0.74214727201 -0.41187915111 -0.52742478455 