# vtk DataFile Version 5.1
vtk output
ASCII
DATASET POLYDATA
POINTS 240 float
0 0 0 -0.0994929 -0.288291 0.157954 -0.198986 -0.576582 0.315908 
-0.330463 -0.837815 0.445402 -0.462211 -1.09882 0.574656 -0.622938 -1.33822 0.681017 
-0.78416 -1.57726 0.786987 -0.97135 -1.80007 0.875564 -1.15921 -2.02246 0.963691 
-1.36993 -2.23381 1.03988 -1.58145 -2.44478 1.11564 -1.81243 -2.64961 1.18484 
-2.04427 -2.85417 1.25375 -2.2917 -3.05681 1.32125 -2.53997 -3.25934 1.38868 
-2.79929 -3.46297 1.45932 -3.0593 -3.66667 1.53016 -3.32508 -3.87265 1.60769 
-3.59127 -4.0788 1.68571 -3.85717 -4.28611 1.77197 -4.12306 -4.4935 1.85891 
-4.38206 -4.69842 1.95283 -4.64042 -4.90311 2.0474 -4.88511 -5.09957 2.14423 
-5.12841 -5.2952 2.24129 -5.35161 -5.47572 2.3323 -5.57255 -5.65455 2.42263 
-5.76806 -5.8118 2.49583 -5.96044 -5.96641 2.56694 -6.12386 -6.09507 2.60872 
-6.28342 -6.22027 2.6466 -6.41293 -6.31877 2.64409 -6.53812 -6.41343 2.63575 
-6.63503 -6.48508 2.57942 -6.72754 -6.55316 2.51562 -6.79595 -6.60583 2.40089 
-6.86033 -6.65594 2.27767 -6.90629 -6.70061 2.10567 -6.94896 -6.74431 1.92498 
-6.9792 -6.793 1.70251 -7.00707 -6.84263 1.4721 -7.02737 -6.90589 1.2101 
-7.04614 -6.9719 0.941729 -7.05999 -7.05696 0.653284 -7.07278 -7.1461 0.360537 
-7.08075 -7.25611 0.058882 -7.08763 -7.37084 -0.244793 -7.08746 -7.50521 -0.547809 
-7.0856 -7.64429 -0.850666 -7.07302 -7.79986 -1.14556 -7.05773 -7.9596 -1.43845 
-7.02764 -8.13202 -1.71853 -6.99362 -8.30782 -1.9952 -6.94145 -8.49285 -2.25648 
-6.88422 -8.68048 -2.51346 -6.80718 -8.87484 -2.75437 -6.72432 -9.07119 -2.99056 
-6.62218 -9.27288 -3.21138 -6.51412 -9.47621 -3.42747 -6.38962 -9.68438 -3.6297 
-6.25983 -9.89412 -3.82747 -6.11845 -10.1088 -4.01302 -5.97315 -10.3252 -4.19446 
-5.82244 -10.5468 -4.36482 -5.66983 -10.7703 -4.53128 -5.51852 -10.9996 -4.68663 
-5.3677 -11.2311 -4.83788 -5.2246 -11.4688 -4.97642 -5.08447 -11.709 -5.11008 
-4.95733 -11.9559 -5.2279 -4.83539 -12.2054 -5.33937 -4.72993 -12.4619 -5.43084 
-4.63134 -12.7213 -5.51397 -4.55056 -12.9872 -5.57283 -4.47751 -13.256 -5.62117 
-4.42138 -13.5302 -5.64195 -4.3729 -13.8068 -5.65029 -4.33866 -14.0864 -5.62944 
-4.3111 -14.3675 -5.59488 -4.29393 -14.6483 -5.53132 -4.28184 -14.9289 -5.45363 
-4.27599 -15.205 -5.34871 -4.27332 -15.4787 -5.22999 -4.27337 -15.7436 -5.0868 
-4.27487 -16.0037 -4.93075 -4.27694 -16.2512 -4.75348 -4.27932 -16.4918 -4.56463 
-4.28185 -16.7173 -4.35808 -4.28447 -16.9342 -4.1415 -4.28841 -17.1357 -3.91094 
-4.29312 -17.328 -3.67217 -4.30124 -17.5067 -3.42341 -4.31144 -17.6771 -3.16857 
-4.32703 -17.8375 -2.908 -4.34601 -17.9917 -2.6438 -4.37119 -18.141 -2.37827 
-4.40041 -18.2871 -2.11186 -4.43477 -18.4336 -1.84839 -4.4726 -18.5806 -1.58691 
-4.51262 -18.733 -1.33229 -4.55417 -18.8894 -1.08246 -4.59368 -19.0553 -0.842812 
-4.63171 -19.2283 -0.610531 -4.6633 -19.4136 -0.390949 -4.69006 -19.6082 -0.180893 
-4.70693 -19.8163 0.0148239 -4.71612 -20.0351 0.199411 -4.7137 -20.2674 0.369 
-4.70195 -20.5105 0.526546 -4.67869 -20.7659 0.669493 -4.64587 -21.0315 0.800313 
-4.60307 -21.307 0.918035 -4.55171 -21.5911 1.0245 -4.49253 -21.8822 1.12042 
-4.4264 -22.1796 1.20696 -4.35449 -22.4809 1.28637 -4.27724 -22.7858 1.35922 
-4.1956 -23.0913 1.42883 -4.10976 -23.3974 1.49537 -4.02016 -23.7013 1.56256 
-3.92687 -24.0032 1.63041 -3.82996 -24.3009 1.70227 -3.72936 -24.5943 1.77821 
-3.62519 -24.8826 1.86051 -3.51727 -25.1655 1.94949 -3.40618 -25.4432 2.04588 
-3.29164 -25.7155 2.15032 -3.17491 -25.9837 2.2619 -3.05573 -26.2473 2.38152 
-2.93588 -26.5086 2.5069 -2.81526 -26.7671 2.639 -2.69575 -27.0252 2.77481 
-2.57756 -27.2829 2.91509 -2.462 -27.5419 3.05682 -2.3497 -27.8023 3.20036 
-2.2408 -28.065 3.34334 -2.13628 -28.3307 3.48559 -2.03483 -28.5986 3.62585 
-1.93749 -28.8695 3.76345 -1.84172 -29.1417 3.89837 -1.74812 -29.4158 4.02957 
-1.65363 -29.6895 4.15811 -1.55786 -29.9626 4.28285 -1.45823 -30.2332 4.40551 
-1.35289 -30.5001 4.52508 -1.24085 -30.7623 4.64346 -1.11852 -31.0173 4.76002 
-0.987316 -31.2658 4.8763 -0.842016 -31.5042 4.99215 -0.686679 -31.7351 5.10846 
-0.514839 -31.9537 5.22552 -0.332906 -32.1647 5.34341 -0.133769 -32.3625 5.46272 
0.074592 -32.5531 5.5828 0.299256 -32.7307 5.70426 0.531685 -32.9019 5.82607 
0.77835 -33.0613 5.94851 1.03107 -33.2154 6.07065 1.29532 -33.3593 6.19219 
1.56394 -33.4988 6.31275 1.84119 -33.6295 6.43134 2.12126 -33.7567 6.54851 
2.4071 -33.8765 6.66277 2.69439 -33.9931 6.77564 2.98472 -34.1031 6.88556 
3.27523 -34.2102 6.99476 3.5661 -34.3108 7.10238 3.85593 -34.4085 7.21057 
4.14337 -34.4992 7.32006 4.42862 -34.5868 7.43182 4.70861 -34.6666 7.54902 
4.98539 -34.743 7.67028 5.25415 -34.8108 7.80166 5.51891 -34.875 7.93855 
5.77327 -34.9297 8.0898 6.02323 -34.9808 8.24736 6.26122 -35.0219 8.42209 
6.49486 -35.0595 8.60313 6.71612 -35.0871 8.80208 6.93351 -35.1113 9.00658 
7.13941 -35.1259 9.22754 7.34228 -35.1377 9.45274 7.53578 -35.1405 9.69114 
7.72732 -35.1411 9.93226 7.91247 -35.1343 10.1822 8.09674 -35.1259 10.4335 
8.27799 -35.1119 10.6889 8.45925 -35.0973 10.9446 8.64056 -35.0802 11.2007 
8.82247 -35.0633 11.4562 9.00664 -35.0474 11.7095 9.19162 -35.0329 11.9619 
9.3798 -35.0236 12.2107 9.56866 -35.0165 12.4585 9.76037 -35.019 12.7024 
9.95242 -35.0247 12.9455 10.146 -35.044 13.1848 10.3395 -35.067 13.4233 
10.5328 -35.1074 13.6578 10.7257 -35.1521 13.8913 10.917 -35.2173 14.1198 
11.1077 -35.2869 14.3469 11.2959 -35.3796 14.5671 11.4835 -35.4767 14.7855 
11.6686 -35.5983 14.9944 11.8533 -35.724 15.2013 12.0357 -35.8741 15.3964 
12.2179 -36.0276 15.5896 12.3983 -36.2037 15.7701 12.5785 -36.3825 15.9489 
12.7569 -36.5801 16.1162 12.9349 -36.7796 16.2824 13.1106 -36.9927 16.4407 
13.2857 -37.2066 16.5987 13.4567 -37.428 16.7544 13.627 -37.6495 16.9106 
13.7909 -37.8719 17.0713 13.9539 -38.0938 17.2331 14.1078 -38.311 17.4061 
14.2607 -38.5273 17.5806 14.4019 -38.7347 17.7713 14.5419 -38.9412 17.9636 
14.668 -39.1368 18.1746 14.7928 -39.3316 18.387 14.9016 -39.5162 18.6172 
15.0092 -39.7002 18.8484 15.0988 -39.8775 19.0931 15.1874 -40.0547 19.3382 
15.2561 -40.231 19.5896 15.3237 -40.4076 19.8408 15.3695 -40.5912 20.0885 
15.4144 -40.7754 20.3356 15.4351 -40.976 20.5677 15.455 -41.1772 20.7991 
15.4484 -41.4048 21.0031 15.4412 -41.6331 21.2064 15.405 -41.8982 21.3692 
15.3685 -42.1637 21.5315 15.3004 -42.4769 21.6403 15.2323 -42.7901 21.7491 

LINES 2 240
OFFSETS vtktypeint64
0 240 
CONNECTIVITY vtktypeint64
0 1 2 3 4 5 6 7 8 
9 10 11 12 13 14 15 16 17 
18 19 20 21 22 23 24 25 26 
27 28 29 30 31 32 33 34 35 
36 37 38 39 40 41 42 43 44 
45 46 47 48 49 50 51 52 53 
54 55 56 57 58 59 60 61 62 
63 64 65 66 67 68 69 70 71 
72 73 74 75 76 77 78 79 80 
81 82 83 84 85 86 87 88 89 
90 91 92 93 94 95 96 97 98 
99 100 101 102 103 104 105 106 107 
108 109 110 111 112 113 114 115 116 
117 118 119 120 121 122 123 124 125 
126 127 128 129 130 131 132 133 134 
135 136 137 138 139 140 141 142 143 
144 145 146 147 148 149 150 151 152 
153 154 155 156 157 158 159 160 161 
162 163 164 165 166 167 168 169 170 
171 172 173 174 175 176 177 178 179 
180 181 182 183 184 185 186 187 188 
189 190 191 192 193 194 195 196 197 
198 199 200 201 202 203 204 205 206 
207 208 209 210 211 212 213 214 215 
216 217 218 219 220 221 222 223 224 
225 226 227 228 229 230 231 232 233 
234 235 236 237 238 239 
CELL_DATA 1
FIELD FieldData 3
Length 1 1 double
72.887295119 
Tortuosity 1 1 double
0.44735102599 
ClusterLabel 1 1 int
1 
POINT_DATA 240
FIELD FieldData 6
Curvature 1 240 double
0 0.10247063596 0.20494127192 0.20898872034 0.21220207395 0.20259361755 0.1927659849 0.17334589168 0.15367771758 
0.13018919421 0.10656778913 0.08442905643 0.062355353224 0.046245380602 0.030452066241 0.027508475916 0.025367993343 0.030076717773 
0.035279078744 0.037852442495 0.040210706474 0.037626314985 0.034588468866 0.023843796094 0.012314168755 0.028171758665 0.047100812191 
0.11958897586 0.19864570964 0.40680886005 0.63218619934 1.0847746919 1.570134024 1.7038379588 1.7829158124 1.366189222 
0.86682855756 0.56600024602 0.30055393798 0.19689221591 0.12396956518 0.10806448701 0.10367811036 0.10527163274 0.10814656206 
0.1102167148 0.11210434089 0.11512147857 0.11840922841 0.12434529066 0.13095040025 0.13932561225 0.14817159617 0.15543410226 
0.16225391563 0.16368836626 0.16354233 0.15669493979 0.14778559452 0.13459216019 0.12001829717 0.10638298167 0.09306403049 
0.08782410289 0.085430194958 0.093878267808 0.10631419566 0.12619102115 0.14892307482 0.17552139969 0.20366623305 0.23120837912 
0.25849940548 0.27838126503 0.29504951006 0.30013040841 0.29998286983 0.29104052249 0.27797221547 0.26311058972 0.2473747211 
0.23446434091 0.22298458779 0.21454315124 0.20769877852 0.20175125776 0.19629292896 0.18854364818 0.17949817087 0.16716225901 
0.15289595889 0.13569184574 0.11670122468 0.097440209283 0.078008808422 0.06463197894 0.055207439107 0.06034712268 0.075333041795 
0.097541577192 0.12480594399 0.15307883789 0.18208254855 0.20695125272 0.22871870202 0.24223168048 0.24933820395 0.2466800169 
0.23618047141 0.21947807283 0.19762253476 0.17383430597 0.14838517111 0.12377567355 0.099912520261 0.07853381963 0.059439212572 
0.04765539866 0.04282283069 0.046315330127 0.057994145847 0.07000601824 0.082356592335 0.091324249209 0.096734010386 0.097688702095 
0.093797528768 0.086252684636 0.074597460849 0.062236066766 0.04905294725 0.040338310279 0.037002402298 0.037575080367 0.043015054271 
0.046735959428 0.048241910623 0.046998101772 0.042087946196 0.037581542587 0.033632316692 0.037150878452 0.051337708292 0.069241984327 
0.092644982857 0.11566291866 0.13809097112 0.15748795237 0.17207475541 0.18202641039 0.18435582192 0.18266328354 0.17411514869 
0.16338318038 0.14879141339 0.13408556377 0.11917056265 0.10522069042 0.093106917021 0.081988728326 0.072836819416 0.064441422114 
0.057597843495 0.051208493126 0.045787366135 0.042295682441 0.043080062272 0.047271976515 0.059320150653 0.07343016757 0.092488607154 
0.11194411682 0.13239230167 0.15107936436 0.16517683595 0.17632862542 0.17947184164 0.17941331635 0.17026597645 0.1590528543 
0.14171124482 0.12359710542 0.1030854594 0.082843853373 0.063479877321 0.044867495234 0.028816099988 0.016793109194 0.019179411245 
0.023513364139 0.035170484208 0.046805236713 0.058351450944 0.069884824055 0.081364599448 0.092851329075 0.10436872056 0.11583856278 
0.12708650842 0.13800428035 0.14728769243 0.15613786299 0.16270781506 0.16835273202 0.16880717419 0.16826301308 0.16172723218 
0.15418810883 0.14018996839 0.12542799931 0.10537015157 0.085323363941 0.065359527153 0.047292076645 0.044687468106 0.044292881946 
0.063604328667 0.082861366691 0.10158421023 0.11965608686 0.13063242413 0.14082955342 0.14150302973 0.14158841185 0.13351398705 
0.12547275317 0.1179625738 0.11112778066 0.11701276141 0.12376583059 0.15031131614 0.17726772392 0.21603814588 0.25477293597 
0.29212996043 0.32908714915 0.34265394685 0.3546167515 0.17730837575 0 
Torsion 1 240 double
0 0 0 -0.016399173215 -0.032937322475 -0.040493268315 -0.047895672217 -0.063039711896 -0.078383966293 
-0.11545211497 -0.15327587737 -0.26957445143 -0.38931490319 -0.82774751354 -1.2831018314 -1.2569076016 -1.2006165875 -0.7918577124 
-0.35769574824 -0.22289000393 -0.11257704123 -0.08843882985 -0.072206558956 -0.72483832433 -1.4455951304 -0.86264823733 -0.13349158355 
0.02997982411 0.12407473932 0.15217665563 0.17147950541 0.1643742942 0.15346022804 0.17167394814 0.19441237291 0.33063374165 
0.48576893439 0.88498333872 1.3276970085 1.6602075192 1.9717794298 1.457109806 0.77552270049 0.40979964753 0.11176174869 
-0.037183150899 -0.15231314344 -0.21204886565 -0.25851304392 -0.26364777587 -0.25834138454 -0.22902810975 -0.19333002552 -0.15240439204 
-0.11001729318 -0.067103185703 -0.024034412658 0.028175816386 0.083198801122 0.16921692941 0.26522238173 0.41476664619 0.58235770126 
0.66495947998 0.71762185454 0.59534717137 0.40872782329 0.2537677245 0.1109559423 0.022084308465 -0.045211266031 -0.086402023201 
-0.11671577315 -0.13796482633 -0.15528220379 -0.17129431384 -0.18671746178 -0.20154191055 -0.21608548811 -0.22259802598 -0.225195432 
-0.21038428472 -0.18675868007 -0.14764529065 -0.10039088617 -0.047322981372 0.0089159236069 0.065976089962 0.12350091736 0.18673088353 
0.25330786446 0.34693112945 0.45700145909 0.67343298056 0.95688662291 1.3452567693 1.8021140781 1.685380269 1.1808665492 
0.81986367793 0.55931840054 0.39072963187 0.28877601445 0.21332169718 0.15774185501 0.11362079907 0.078393129469 0.050810372343 
0.029366711599 0.015771709496 0.0086971314949 0.016704059924 0.037671657943 0.097033718309 0.19052418965 0.41960041743 0.77332806644 
1.0648534503 1.2972356968 1.1749895458 0.70402547051 0.39899453788 0.26270917402 0.18147345785 0.15813478494 0.15957943455 
0.18798138234 0.25581261806 0.36800180269 0.58921681602 0.93729824819 1.1754128364 1.2811599272 1.1772350168 0.81220912371 
0.57812565446 0.5127564621 0.56724253379 0.78153562422 1.1289761453 1.6601601208 1.7162038325 1.0934757388 0.63004487442 
0.40224116178 0.23765020005 0.16989579289 0.1169019888 0.087332619998 0.061784988311 0.042850879874 0.023919345667 0.0049921993506 
-0.015674500705 -0.03941576086 -0.063795204844 -0.089344652519 -0.1108081081 -0.12449821288 -0.12403823259 -0.095631834277 -0.039185303925 
0.074779445997 0.23497067568 0.49369729644 0.71858929307 0.86849644705 0.90413429393 0.67631790501 0.47195050788 0.32386069103 
0.20161143846 0.14396359659 0.093782951133 0.063062272088 0.034433742959 0.01149324642 -0.010862801391 -0.031559768936 -0.054476385955 
-0.083977963076 -0.11884870151 -0.17038235438 -0.24031273665 -0.3700324895 -0.68358702524 -1.623541562 -2.2514219762 -1.7630372602 
-1.2886407907 -0.86684012806 -0.51371084566 -0.43240577689 -0.35468469169 -0.29192284233 -0.22958159677 -0.16909483167 -0.11026453453 
-0.059164421173 -0.010421911601 0.026650459238 0.060411516187 0.076744605291 0.090356593349 0.088700181094 0.084753002716 0.067061227589 
0.046485039495 0.0073404429295 -0.040830578155 -0.15158480923 -0.30599401853 -0.78781556441 -1.234105469 -1.3906758367 -1.4709739348 
-0.87117762992 -0.31460131977 -0.18236677646 -0.055980334425 0.0066618037983 0.069692917019 0.13747816909 0.20895653655 0.33167687999 
0.45782559227 0.63882820608 0.81124827076 0.82203032681 0.82491404137 0.64771557017 0.47269418294 0.36026395991 0.24929378794 
0.19477892352 0.13999885041 0.069704068982 0 0 0 
FrenetTangent 3 240 double
-0.34952946693 -0.83027988465 0.43412494158 -0.34952946693 -0.83027988465 0.43412494158 -0.34952946693 -0.83027988465 0.43412494158 
-0.40822180047 -0.81507067047 0.40546639836 -0.46741152666 -0.79973256465 0.37656498614 -0.51912107316 -0.77823243578 0.34766867995 
-0.57070275334 -0.75662697317 0.31877246105 -0.61127248883 -0.73296802261 0.29372629814 -0.65155743264 -0.70925596459 0.26877970565 
-0.68027971293 -0.68766498538 0.25046604365 -0.70859981361 -0.66614778282 0.23238309227 -0.72678862615 -0.6494256519 0.22211313997 
-0.74453308393 -0.63291383114 0.21218586308 -0.75425525425 -0.62196978944 0.2098762701 -0.7635514624 -0.61132138202 0.20797115592 
-0.7668594796 -0.6055544202 0.21252548366 -0.76979323485 -0.60009254874 0.21748352653 -0.76856307759 -0.59803158407 0.22707808309 
-0.76703281853 -0.59621572981 0.2370068028 -0.76308419013 -0.59617608589 0.24920984884 -0.75893769515 -0.59628176826 0.26159897614 
-0.75420230576 -0.59691420476 0.2733357987 -0.74941288936 -0.59759496731 0.28501277678 -0.74607896717 -0.59824378625 0.29225656357 
-0.74289328975 -0.59888935168 0.29904882161 -0.74351100337 -0.5997483622 0.29575650504 -0.74455526553 -0.60063131049 0.29133320814 
-0.75179335222 -0.60253834255 0.2663309913 -0.75979105891 -0.6045709698 0.23880494467 -0.77308962555 -0.60669457131 0.16802803232 
-0.7870949735 -0.60883030271 0.091484337879 -0.78246523667 -0.59586614504 -0.065388009492 -0.77514774723 -0.58072411874 -0.23384622027 
-0.68984161542 -0.51709140122 -0.44311601014 -0.59242074304 -0.44592614915 -0.65872546279 -0.46775469275 -0.36908484184 -0.78173917354 
-0.33854777948 -0.29129752532 -0.88932026064 -0.25394252942 -0.25368279508 -0.92934951458 -0.17728609062 -0.22322753566 -0.95733982796 
-0.13394894769 -0.22111165755 -0.96529564889 -0.096942470981 -0.22438026187 -0.96944491625 -0.075569014839 -0.24198823771 -0.96694379126 
-0.05735374467 -0.26249305626 -0.96309915266 -0.044729495305 -0.28956135927 -0.95559821778 -0.033303321826 -0.31803612323 -0.94731379083 
-0.021629328077 -0.34875498934 -0.93631650533 -0.0098991276684 -0.37998282708 -0.92470393232 0.0057638601486 -0.4109931552 -0.9108536413 
0.022369078282 -0.44195137164 -0.89646723035 0.045067611581 -0.47124065228 -0.87991251889 0.069305508712 -0.50010830704 -0.86281002624 
0.10017976945 -0.52629655873 -0.84316574207 0.13281902052 -0.55177220322 -0.8228454495 0.17059823369 -0.57372828042 -0.79954832895 
0.20981442551 -0.59470039257 -0.77541897692 0.25061758552 -0.61173383526 -0.74858277101 0.29188648621 -0.62761136408 -0.72095216235 
0.33023053856 -0.64011005988 -0.69204943405 0.36767463757 -0.65156911477 -0.66275528434 0.39848797 -0.66132415414 -0.63422481944 
0.42716472208 -0.67053012184 -0.60594043075 0.44732984887 -0.68022797253 -0.57983200911 0.46462588848 -0.69009162648 -0.55445705951 
0.47305036989 -0.70248940256 -0.53109148379 0.47834964329 -0.71577988075 -0.50843375568 0.47510552504 -0.73301615954 -0.48592928258 
0.46871900987 -0.75170376729 -0.46348117914 0.45424818055 -0.77478516081 -0.4380073817 0.4366752307 -0.79955254191 -0.41137256213 
0.4115649417 -0.82768086638 -0.37790646602 0.38343971705 -0.85715356822 -0.34170785927 0.34901743447 -0.88678253576 -0.29566796244 
0.31197137776 -0.91647661401 -0.24552752806 0.2714696483 -0.94129975276 -0.18541102906 0.22946907283 -0.96401019486 -0.12096756226 
0.18846656418 -0.97748263048 -0.050340969836 0.14791440276 -0.98678669732 0.023075569523 0.11263155172 -0.98586468781 0.097006997906 
0.079820722846 -0.98014525975 0.17117997916 0.054353379139 -0.96623037249 0.24179437451 0.032465984451 -0.94832019887 0.31067395922 
0.01746092482 -0.92473623926 0.3747340238 0.0059405917999 -0.89827947661 0.43635382502 -0.00075179490444 -0.86774710711 0.49336559902 
-0.0049064149554 -0.83507243144 0.54795520486 -0.0069547549493 -0.7993338226 0.59814073795 -0.0078542149121 -0.76192397749 0.64592404955 
-0.0093855373903 -0.72297775843 0.68878190014 -0.011274361029 -0.68316227518 0.72885297674 -0.015851633662 -0.64444404195 0.76310083419 
-0.022006129706 -0.60636952874 0.79393240307 -0.03154138323 -0.5726549278 0.81838776371 -0.043132502788 -0.54159162487 0.83896570042 
-0.057144966056 -0.51779026603 0.8532373944 -0.072683207552 -0.49856492675 0.86353529159 -0.088330464028 -0.48836323272 0.86802828028 
-0.10404888306 -0.4840519738 0.86873195371 -0.11691692955 -0.48924877266 0.86411491173 -0.12785796362 -0.50087355426 0.85590076637 
-0.13315122408 -0.52123556439 0.84246852027 -0.134491043 -0.54771363451 0.82538360364 -0.12838244301 -0.58084001679 0.80264831105 
-0.11687643801 -0.6187840166 0.77581854312 -0.097961248876 -0.65973687358 0.74295208702 -0.07348917164 -0.70294637344 0.70555811479 
-0.043944335892 -0.74474053435 0.66286295829 -0.010462433835 -0.78543622324 0.61605344982 0.024209633539 -0.82120039994 0.56662473912 
0.059837439727 -0.85300442293 0.51509272965 0.093205094888 -0.87878229265 0.46472437465 0.12469508612 -0.89955381967 0.41532274798 
0.15239221681 -0.91529913171 0.37023544158 0.17682985798 -0.92672504026 0.32885575417 0.19780153097 -0.93473588198 0.293552927 
0.21569234336 -0.93971110874 0.26365175336 0.23141693512 -0.94246590325 0.24048808708 0.24515000147 -0.94317933261 0.2235185808 
0.25813187656 -0.94221039872 0.21324961357 0.27039950422 -0.93964184075 0.20935165067 0.28284490033 -0.93544248511 0.21153989124 
0.29546510209 -0.92963951177 0.21971289855 0.30842569581 -0.92210251426 0.23272648749 0.32173245083 -0.91280210235 0.25066270181 
0.33471603617 -0.90200327151 0.2714804116 0.34735973614 -0.88962851732 0.29532865973 0.35856503485 -0.87667611089 0.3197043938 
0.36820575676 -0.86309538099 0.34465388451 0.37541165994 -0.85039280166 0.3680306324 0.37987839207 -0.83867814171 0.38963804461 
0.38144918523 -0.82920087947 0.40831341942 0.37965015853 -0.82232713456 0.42357696888 0.3752285017 -0.81823240412 0.43544872376 
0.36764997529 -0.81748278368 0.44323776294 0.35835868551 -0.81909455176 0.44783659316 0.3469345206 -0.82364691687 0.44846271036 
0.33526691862 -0.82944513088 0.4466130522 0.32328565734 -0.83684857329 0.44157345272 0.31288203431 -0.84417625626 0.43513514753 
0.30458192894 -0.85140292666 0.42683190139 0.2996325949 -0.85742453122 0.41830446094 0.2993073253 -0.86178314491 0.40946763235 
0.30366493443 -0.86402792723 0.4014113094 0.31471237034 -0.86325295043 0.39446999452 0.33095234449 -0.85955069514 0.38887338283 
0.35487294815 -0.85151850708 0.38526581127 0.38335151028 -0.83986530645 0.38298563809 0.41881247688 -0.82266502273 0.38273892626 
0.45698935942 -0.80165983099 0.38328836901 0.49947628246 -0.77461641566 0.3851012745 0.54218709575 -0.74456812378 0.38697576873 
0.58526608415 -0.70957847937 0.38895154225 0.6264813133 -0.6733002408 0.39040260023 0.66451968011 -0.63482553488 0.39095925675 
0.69976520435 -0.59692177348 0.39071026497 0.73007454172 -0.5600271233 0.38903733668 0.75772478046 -0.52491995513 0.38653288749 
0.78050000504 -0.4930898373 0.38250398331 0.80124572469 -0.46337528977 0.37779111414 0.81813043497 -0.43768548572 0.37177704327 
0.83358070155 -0.41387795422 0.36538083235 0.84619794179 -0.39378791098 0.35822989483 0.85776380307 -0.37507049558 0.35121260034 
0.86717298956 -0.35916872703 0.34446944537 0.87568978561 -0.34405807844 0.33861810528 0.88230438103 -0.33063376449 0.33466773898 
0.88800719559 -0.31744737071 0.33253087411 0.89168930663 -0.30478825949 0.33441312052 0.89428391825 -0.29188141869 0.33898085457 
0.89437123954 -0.27840342362 0.3497401296 0.89300769877 -0.26437814476 0.36369644424 0.88816208906 -0.2490393848 0.38532565397 
0.8814282312 -0.23292732067 0.40999053361 0.86997375294 -0.21488199613 0.44224458803 0.85635831103 -0.19609322011 0.47651255905 
0.83711126687 -0.17536696445 0.51602891881 0.81600558222 -0.15419358911 0.55589987695 0.78984671872 -0.13180460714 0.59673489944 
0.76283340837 -0.10939898312 0.63631887236 0.73339457147 -0.086946117115 0.67235147871 0.70440988523 -0.064947216378 0.70620757863 
0.67677251262 -0.044295079261 0.73360670944 0.65063574101 -0.024419773952 0.7586893472 0.62915600697 -0.0069553259813 0.77658286856 
0.60966726365 0.0095417207815 0.79248507195 0.59664924013 0.022894713618 0.80191549199 0.58555815821 0.035059225984 0.80984835725 
0.58103295139 0.043174101186 0.81267844326 0.57800148156 0.049845435276 0.81450939418 0.58031299401 0.051353333854 0.81276651575 
0.58350539282 0.05125626317 0.81046700992 0.59000992436 0.045124508058 0.80607458507 0.59674595799 0.037292689929 0.8014952336 
0.60439835407 0.02273145569 0.79617596429 0.61176645201 0.0065329770387 0.79087933605 0.61794791419 -0.016499217425 0.78567720963 
0.62357873242 -0.040974634468 0.78047254972 0.62678171145 -0.071813351068 0.77525671946 0.62940683145 -0.10386655589 0.76979521681 
0.62933527598 -0.14158737243 0.76318724299 0.62879903028 -0.18022054125 0.7559909851 0.62596256797 -0.22336985387 0.74588272101 
0.62282990107 -0.26702736609 0.73489252593 0.61813826261 -0.31335961297 0.7192605888 0.61327625416 -0.35966458009 0.70270402727 
0.60745828074 -0.40581647739 0.68095929551 0.60153665154 -0.45136899632 0.6586035818 0.59499308773 -0.49332524499 0.6325819764 
0.58837178267 -0.53427998099 0.60652867144 0.58125001831 -0.56878747922 0.58027130058 0.57406986327 -0.60210968211 0.55465113129 
0.56648486614 -0.62721383741 0.53344889277 0.55881130062 -0.65119189869 0.51340147386 0.55047347224 -0.66672425494 0.5020152019 
0.54198529332 -0.68127600389 0.49202242222 0.5322711791 -0.68783203191 0.49339196423 0.52230835861 -0.69355061118 0.49609613176 
0.5101279071 -0.6918019391 0.5107007101 0.49758868775 -0.68935931583 0.52631975863 0.48152702053 -0.68010335347 0.55189905981 
0.46506850535 -0.67034430036 0.5779960742 0.44428434748 -0.65510155811 0.6097361626 0.42314375203 -0.6396658469 0.64147384112 
0.39764669736 -0.62187162629 0.67318206557 0.37190351403 -0.60425862448 0.7045071418 0.34274529568 -0.58916003344 0.73051603642 
0.31343238086 -0.57456111217 0.75596786771 0.28164432273 -0.56795690721 0.77250668569 0.24973475545 -0.56202301638 0.78844197373 
0.21553676604 -0.5687133752 0.79301078132 0.18119968956 -0.57609146236 0.79694154177 0.1436914279 -0.59914975558 0.78632482744 
0.10602919493 -0.62275497172 0.77501554032 0.063940287017 -0.6620842221 0.74379478564 0.021750227793 -0.70167454124 0.71188367897 
-0.024351015289 -0.75135951936 0.65327896184 -0.070442997417 -0.80098860915 0.59418535611 -0.11599321374 -0.84734823134 0.50649176719 
-0.16116065514 -0.89331827687 0.41953509919 -0.16116065514 -0.89331827687 0.41953509919 -0.16116065514 -0.89331827687 0.41953509919 

FrenetNormal 3 240 double
-0.89858037005 0.16586661298 -0.40625310493 -0.89858037005 0.16586661298 -0.40625310493 -0.89858037005 0.16586661298 -0.40625310493 
-0.87354109017 0.22570181523 -0.42576976227 -0.84828961301 0.28604409547 -0.44545181501 -0.81857520571 0.3418299486 -0.45708959566 
-0.788784509 0.39753791409 -0.46858986739 -0.76038035931 0.44648172332 -0.46826078071 -0.7320120686 0.49525059747 -0.46762576235 
-0.71057668251 0.53960075393 -0.44843770165 -0.68938244092 0.58379721587 -0.42860431774 -0.67747662959 0.6338188437 -0.36343305929 
-0.66597820555 0.68409596128 -0.29627329758 -0.62538789837 0.7362028916 -0.064372610734 -0.58325288943 0.78840698013 0.17627538187 
-0.32261931897 0.59626372904 0.53540527606 -0.048329588405 0.38884876922 0.9019402891 0.10912837323 0.21805019114 0.94317036298 
0.25816602719 0.04989063156 0.96095503583 0.31107848108 -0.0017818016941 0.94825237929 0.35612614587 -0.043923470067 0.93305530489 
0.37824819767 -0.054905614543 0.92378046496 0.39826698224 -0.063029087102 0.9150489493 0.43897348715 -0.11363399034 0.88809591688 
0.4817870747 -0.16856570596 0.85928698924 0.13352404701 -0.13470290056 0.047849705996 -0.25859804033 -0.090881831131 -0.85135898161 
-0.28126193655 -0.071856430956 -0.95650584236 -0.25861492255 -0.055872009087 -0.96426776207 -0.19196968895 -0.02616547133 -0.97777718717 
-0.11945802607 0.0053706818792 -0.99205294631 0.020070123821 0.081420568214 -0.9818187436 0.16926411319 0.16389070452 -0.96804945023 
0.35500659617 0.26481898051 -0.86169521051 0.54642651506 0.36861454034 -0.74095884319 0.67338181626 0.39931633622 -0.59160671284 
0.7895930145 0.41783583812 -0.43748528864 0.87235620244 0.31977742448 -0.32632432864 0.94915835883 0.20094274866 -0.222819689 
0.9198670501 -0.1056352445 -0.10468157057 0.870417983 -0.44788446795 0.016236908832 0.68372544807 -0.65868495283 0.11163011299 
0.46930696004 -0.84293013699 0.20186669589 0.37741958161 -0.88786732151 0.25138964223 0.31178886952 -0.90295279182 0.29218823787 
0.32426211791 -0.88782332175 0.32320399723 0.35444966662 -0.8658409786 0.35200096898 0.41837273267 -0.82305485143 0.37403539538 
0.49037826642 -0.77528448433 0.39444962862 0.56373890986 -0.71034844253 0.40932243617 0.63744189681 -0.64107580923 0.42279530459 
0.69173852578 -0.56821772605 0.43687922043 0.74087388934 -0.49440606577 0.45112564888 0.76776774843 -0.42852956704 0.47131907328 
0.78844355251 -0.36487150056 0.4931750987 0.79101935394 -0.31457279906 0.52189010763 0.78828319806 -0.26819478076 0.5526180791 
0.76986125274 -0.23997998917 0.58932911922 0.74661291065 -0.21735388271 0.62788110354 0.70134536551 -0.22314900256 0.67332025443 
0.64898274383 -0.23810207311 0.72097860344 0.54752805081 -0.29604460245 0.76957274605 0.42952546858 -0.36847796059 0.81848232471 
0.24202813961 -0.45988463605 0.82379643807 0.030049706685 -0.55797509375 0.81375305796 -0.14780881715 -0.60272063357 0.76488441548 
-0.31311748937 -0.62784505416 0.70173521672 -0.40763263242 -0.61722436923 0.66910226668 -0.4749828166 -0.59288753916 0.64817903997 
-0.50930010278 -0.55326584678 0.65708718866 -0.53040422977 -0.50753020948 0.67792788749 -0.53684200125 -0.44835558434 0.71103926737 
-0.53716879128 -0.38358138094 0.74926343101 -0.52735310739 -0.30717451756 0.78737948379 -0.51313827819 -0.22572216312 0.8254486451 
-0.48783291662 -0.13817877223 0.85671244296 -0.45752329046 -0.047886986852 0.88490552805 -0.41535270142 0.041446202853 0.90353982559 
-0.36761771003 0.13032968101 0.91768975367 -0.31049613107 0.21310556992 0.92143232405 -0.24879859066 0.29290400908 0.92010130756 
-0.1875206589 0.36439133284 0.90797010098 -0.12645518722 0.43167049689 0.89037044373 -0.078486478586 0.49151865989 0.86438289382 
-0.037401965914 0.54746078387 0.83398632342 -0.017564672684 0.59814452804 0.79913477854 -0.0093167718778 0.64596006505 0.76185324758 
-0.024390844174 0.68852044618 0.72237381214 -0.052660243357 0.72810751544 0.68165082548 -0.10519655255 0.75846378163 0.63836593036 
-0.17196944895 0.78340464334 0.59357804895 -0.26819896853 0.78808678875 0.54120706888 -0.38234129951 0.78044944454 0.48422474504 
-0.5353044917 0.71392442591 0.39771492823 -0.71273014438 0.6102921056 0.29259874598 -0.82959212052 0.32607029517 0.099710922348 
-0.90691947446 -0.076036321306 -0.1504722783 -0.74692718788 -0.40546266435 -0.3314612415 -0.42649345418 -0.68575304788 -0.46567100192 
-0.17407547454 -0.80931656598 -0.52854782774 0.030731477272 -0.82317127826 -0.54149159934 0.17806094942 -0.80602999476 -0.55489084087 
0.28374007399 -0.76642784473 -0.56862013306 0.36228190457 -0.71777716608 -0.58963401138 0.42047076464 -0.66234009096 -0.61611132928 
0.46098951583 -0.60325757 -0.64721369368 0.48779415267 -0.54134574779 -0.6819056464 0.50320109989 -0.4793434458 -0.7162045111 
0.50945535695 -0.41726848581 -0.75018771422 0.50866928853 -0.35886844279 -0.7806300293 0.50203433432 -0.30352140774 -0.80813068354 
0.49662078534 -0.252719945 -0.82918964175 0.49225688147 -0.20582483347 -0.84471276742 0.50244794146 -0.16014219541 -0.84846245017 