# vtk DataFile Version 5.1
vtk output
ASCII
DATASET POLYDATA
POINTS 240 float
0 0 0 -0.138607 -0.325685 0.369237 -0.277214 -0.651369 0.738473 
-0.399018 -0.962928 1.00163 -0.520679 -1.27437 1.26388 -0.629861 -1.57198 1.42853 
-0.738829 -1.86936 1.59151 -0.839458 -2.15327 1.66542 -0.93987 -2.43684 1.73702 
-1.03565 -2.70746 1.72848 -1.13126 -2.97764 1.71714 -1.22518 -3.23571 1.63528 
-1.31903 -3.49326 1.55032 -1.41305 -3.73992 1.40528 -1.50708 -3.986 1.25706 
-1.60207 -4.22267 1.05975 -1.69711 -4.45876 0.859383 -1.79297 -4.68692 0.620825 
-1.88889 -4.9145 0.379515 -1.98487 -5.1353 0.110013 -2.08085 -5.35554 -0.161794 
-2.17572 -5.56966 -0.453301 -2.27049 -5.78322 -0.746615 -2.36258 -5.99093 -1.0529 
-2.45439 -6.19804 -1.3605 -2.54147 -6.39939 -1.67602 -2.62801 -6.60011 -1.99243 
-2.70715 -6.79523 -2.31311 -2.78538 -6.98967 -2.6343 -2.85294 -7.17884 -2.95722 
-2.91907 -7.36731 -3.28037 -2.9709 -7.55098 -3.6035 -3.02067 -7.73396 -3.92663 
-3.05254 -7.91277 -4.24859 -3.08164 -8.09093 -4.57037 -3.08975 -8.26569 -4.89024 
-3.09436 -8.43989 -5.20979 -3.07586 -8.61168 -5.52702 -3.05324 -8.78303 -5.84383 
-3.00665 -8.95324 -6.15817 -2.95551 -9.12323 -6.47204 -2.88108 -9.29377 -6.78343 
-2.80194 -9.46443 -7.09433 -2.70185 -9.63786 -7.40268 -2.59728 -9.81189 -7.71049 
-2.47589 -9.99155 -8.01524 -2.35069 -10.1725 -8.3193 -2.21453 -10.3623 -8.61888 
-2.07574 -10.5543 -8.91738 -1.93318 -10.7586 -9.20849 -1.78967 -10.966 -9.49775 
-1.6501 -11.1883 -9.77492 -1.51159 -11.4146 -10.0489 -1.38422 -11.657 -10.3041 
-1.25997 -11.904 -10.5542 -1.15251 -12.166 -10.7773 -1.04999 -12.4324 -10.9925 
-0.967723 -12.7101 -11.1719 -0.891687 -12.9912 -11.3403 -0.836983 -13.2772 -11.4644 
-0.789153 -13.5648 -11.5742 -0.761741 -13.849 -11.6329 -0.741211 -14.1322 -11.6745 
-0.73889 -14.4032 -11.6615 -0.742985 -14.6699 -11.6293 -0.762612 -14.9159 -11.5429 
-0.787954 -15.1543 -11.4366 -0.826388 -15.3647 -11.281 -0.869846 -15.5643 -11.1064 
-0.924642 -15.7302 -10.8909 -0.983973 -15.8826 -10.6592 -1.05365 -15.9972 -10.3976 
-1.12764 -16.096 -10.1235 -1.21142 -16.1544 -9.83117 -1.29946 -16.1954 -9.53092 
-1.39662 -16.1953 -9.2229 -1.4979 -16.1766 -8.91138 -1.60702 -16.1179 -8.60013 
-1.71981 -16.0404 -8.28901 -1.83825 -15.9261 -7.98294 -1.95945 -15.7938 -7.67932 
-2.08337 -15.6304 -7.38223 -2.20868 -15.4512 -7.08843 -2.33338 -15.2487 -6.79979 
-2.45777 -15.0338 -6.51386 -2.5783 -14.8053 -6.22983 -2.69672 -14.5694 -5.94684 
-2.80855 -14.3306 -5.66171 -2.91665 -14.0901 -5.37538 -3.01634 -13.8581 -5.08325 
-3.1111 -13.6309 -4.78773 -3.19678 -13.4228 -4.48409 -3.27694 -13.2263 -4.17553 
-3.34851 -13.0583 -3.85858 -3.41467 -12.9082 -3.53636 -3.47371 -12.7939 -3.20786 
-3.52808 -12.7028 -2.87527 -3.57734 -12.652 -2.54081 -3.62315 -12.6285 -2.20509 
-3.66581 -12.6468 -1.87371 -3.70628 -12.6944 -1.54537 -3.74492 -12.7826 -1.22862 
-3.78222 -12.9002 -0.920258 -3.8178 -13.0546 -0.630784 -3.85207 -13.2367 -0.355473 
-3.88339 -13.4501 -0.105364 -3.91242 -13.6878 0.125184 -3.93625 -13.9504 0.32618 
-3.95592 -14.233 0.503445 -3.96785 -14.5337 0.649567 -3.97335 -14.8497 0.769817 
-3.96903 -15.1774 0.860584 -3.95627 -15.5154 0.926014 -3.93268 -15.8598 0.966956 
-3.89947 -16.2097 0.986131 -3.85577 -16.5613 0.988686 -3.80243 -16.9145 0.975961 
-3.74021 -17.2661 0.956259 -3.66953 -17.616 0.929923 -3.59242 -17.9619 0.906484 
-3.50899 -18.304 0.885895 -3.42194 -18.641 0.876647 -3.33119 -18.9729 0.878932 
-3.23945 -19.3 0.898155 -3.14665 -19.622 0.93519 -3.0549 -19.9403 0.991049 
-2.96429 -20.2547 1.06738 -2.87597 -20.5675 1.16068 -2.79024 -20.8784 1.27306 
-2.70722 -21.1902 1.39751 -2.62734 -21.503 1.53602 -2.54985 -21.8191 1.67999 
-2.47524 -22.1393 1.83055 -2.40217 -22.4647 1.97985 -2.33101 -22.7969 2.12757 
-2.26021 -23.1354 2.26858 -2.18988 -23.4821 2.40095 -2.11858 -23.835 2.52349 
-2.04599 -24.1963 2.63292 -1.97107 -24.5621 2.73214 -1.89294 -24.9343 2.81725 
-1.81118 -25.3083 2.89433 -1.72421 -25.6847 2.95993 -1.63241 -26.0592 3.02158 
-1.53346 -26.4305 3.07739 -1.42863 -26.7955 3.13435 -1.31482 -27.1507 3.19305 
-1.19439 -27.4952 3.25796 -1.06344 -27.8228 3.33275 -0.92544 -28.1362 3.4179 
-0.775847 -28.4263 3.52009 -0.619173 -28.6999 3.63522 -0.450427 -28.9456 3.77241 
-0.274927 -29.174 3.92322 -0.0874897 -29.3722 4.09813 0.106104 -29.5544 4.28552 
0.310984 -29.707 4.49581 0.521294 -29.846 4.71595 0.741932 -29.9592 4.95484 
0.96728 -30.0623 5.2 1.20193 -30.1454 5.45756 1.44067 -30.2223 5.71752 
1.68779 -30.2861 5.98238 1.93851 -30.3469 6.24603 2.19686 -30.4012 6.50708 
2.45839 -30.4547 6.76408 2.72694 -30.5067 7.01208 2.99826 -30.5588 7.25426 
3.27596 -30.6114 7.48304 3.55596 -30.664 7.70549 3.8415 -30.7165 7.91273 
4.12876 -30.768 8.11429 4.42032 -30.8168 8.30166 4.71286 -30.8632 8.48496 
5.00799 -30.9036 8.65763 5.30328 -30.9405 8.8284 5.59901 -30.9681 8.994 
5.89409 -30.9918 9.15999 6.18731 -31.0044 9.32709 6.47922 -31.0132 9.49655 
6.76723 -31.0107 9.673 7.05353 -31.0052 9.85312 7.33454 -30.9901 10.0446 
7.61376 -30.9731 10.2403 7.88717 -30.9495 10.4496 8.15895 -30.9252 10.663 
8.42522 -30.8986 10.8901 8.6902 -30.8726 11.1206 8.95056 -30.8488 11.3633 
9.21001 -30.827 11.6086 9.46606 -30.8121 11.8633 9.72157 -30.8 12.1196 
9.97497 -30.7988 12.3823 10.2282 -30.8009 12.6459 10.4805 -30.8167 12.9126 
10.7329 -30.836 13.1795 10.9857 -30.8704 13.4466 11.2388 -30.9081 13.7133 
11.4932 -30.9608 13.9776 11.748 -31.0165 14.241 12.0048 -31.0864 14.4997 
12.262 -31.1589 14.7572 12.521 -31.2446 15.008 12.7803 -31.3325 15.2573 
13.0405 -31.4331 15.4983 13.3005 -31.5358 15.7377 13.5597 -31.6515 15.9672 
13.8183 -31.7696 16.195 14.0735 -31.9027 16.4115 14.3277 -32.0384 16.6262 
14.5754 -32.1921 16.8282 14.8218 -32.3487 17.0284 15.0588 -32.5271 17.2149 
15.2942 -32.7086 17.3996 15.5174 -32.9153 17.5704 15.739 -33.125 17.7397 
15.9463 -33.3619 17.896 16.1519 -33.6015 18.0512 16.3415 -33.8683 18.1959 
16.5297 -34.1373 18.34 16.7011 -34.4311 18.4776 16.8711 -34.7266 18.6151 
17.0242 -35.0424 18.751 17.176 -35.3592 18.8872 17.3112 -35.6904 19.027 
17.4453 -36.022 19.1674 17.563 -36.3615 19.3159 17.6799 -36.7011 19.4649 
17.7809 -37.0423 19.6247 17.8811 -37.3833 19.7849 17.9653 -37.7207 19.9558 
18.049 -38.0578 20.127 18.1162 -38.3881 20.3055 18.183 -38.7182 20.4841 
18.2323 -39.0402 20.6635 18.2814 -39.3622 20.8428 18.3118 -39.6771 21.0141 
18.342 -39.992 21.1852 18.3525 -40.3026 21.3379 18.363 -40.6132 21.4907 

LINES 2 240
OFFSETS vtktypeint64
0 240 
CONNECTIVITY vtktypeint64
0 1 2 3 4 5 6 7 8 
9 10 11 12 13 14 15 16 17 
18 19 20 21 22 23 24 25 26 
27 28 29 30 31 32 33 34 35 
36 37 38 39 40 41 42 43 44 
45 46 47 48 49 50 51 52 53 
54 55 56 57 58 59 60 61 62 
63 64 65 66 67 68 69 70 71 
72 73 74 75 76 77 78 79 80 
81 82 83 84 85 86 87 88 89 
90 91 92 93 94 95 96 97 98 
99 100 101 102 103 104 105 106 107 
108 109 110 111 112 113 114 115 116 
117 118 119 120 121 122 123 124 125 
126 127 128 129 130 131 132 133 134 
135 136 137 138 139 140 141 142 143 
144 145 146 147 148 149 150 151 152 
153 154 155 156 157 158 159 160 161 
162 163 164 165 166 167 168 169 170 
171 172 173 174 175 176 177 178 179 
180 181 182 183 184 185 186 187 188 
189 190 191 192 193 194 195 196 197 
198 199 200 201 202 203 204 205 206 
207 208 209 210 211 212 213 214 215 
216 217 218 219 220 221 222 223 224 
225 226 227 228 229 230 231 232 233 
234 235 236 237 238 239 
CELL_DATA 1
FIELD FieldData 3
Length 1 1 double
84.831464524 
Tortuosity 1 1 double
0.71438501619 
ClusterLabel 1 1 int
3 
POINT_DATA 240
FIELD FieldData 6
Curvature 1 240 double
0 0.076104714118 0.15220942824 0.19831361571 0.24416356144 0.30431753989 0.36471603172 0.41350859435 0.46200100365 
0.46178759084 0.45988006248 0.41334757486 0.36485785219 0.30829405908 0.25130155427 0.20692327487 0.16333338457 0.13404855929 
0.10579472969 0.087889559091 0.07083109695 0.06045766708 0.050697542922 0.04540223221 0.040561671014 0.039390071458 0.038629944235 
0.041367124848 0.044533220572 0.050465871865 0.056767397233 0.064662690066 0.072787853206 0.081064682395 0.089365071359 0.096199926684 
0.1027905264 0.10640701873 0.10949347211 0.10859847355 0.10694699913 0.10144213452 0.095158807248 0.086588963162 0.077529151187 
0.069743122294 0.062245992657 0.061476180263 0.062318120959 0.07115387714 0.082009123548 0.097480281918 0.11417907645 0.13439328842 
0.15559030527 0.18134806845 0.20844431154 0.24322986753 0.28038136596 0.32784440736 0.37863005705 0.43540403254 0.49419654481 
0.53996654996 0.58114908102 0.58808707833 0.58242938507 0.54979526356 0.5068097219 0.46122267239 0.41459501974 0.37785888108 
0.34524420659 0.32148383598 0.30156388633 0.28477460234 0.26939793577 0.25188060564 0.23335901359 0.21106541932 0.18693297397 
0.16051757312 0.13294624544 0.10591894481 0.079177607101 0.059555449726 0.043816481623 0.047645682441 0.062546347254 0.084655923664 
0.11099472821 0.13917866014 0.16848462898 0.1974647571 0.22623956093 0.25212032418 0.27611192204 0.2951988213 0.31096986797 
0.32129249912 0.32780123941 0.33083438647 0.33134898772 0.3302831822 0.3280320716 0.32461509834 0.32029327644 0.31336817784 
0.30435256916 0.29071910536 0.27324926961 0.25099883433 0.22464007131 0.19548237061 0.1638367253 0.13262524037 0.10181290289 
0.079906344758 0.066467576839 0.070174477027 0.090741284186 0.11388757478 0.13965706887 0.1586669082 0.17056745545 0.17208442351 
0.16230697208 0.14466553067 0.11817710051 0.08995354732 0.059710941873 0.041189591445 0.036777159097 0.042425276046 0.060601624198 
0.075158766121 0.08505270002 0.09031960425 0.089417135588 0.085129856445 0.076171538837 0.067042350895 0.057669062474 0.054816099209 
0.06160778357 0.075887251602 0.10163736696 0.1310663304 0.16633346579 0.20171236707 0.23727506118 0.2669592038 0.28662308821 
0.29580832605 0.28647316528 0.269296674 0.23774441014 0.20440551717 0.16766767124 0.13331523238 0.10367397244 0.078891457706 
0.064075599819 0.055001685787 0.058167178393 0.062814387686 0.070745401529 0.077434411229 0.081259911373 0.083348984309 0.081270631942 
0.078068154258 0.072055363284 0.066541909804 0.062329760099 0.060119329771 0.063351074 0.067663689169 0.075044583131 0.081705887316 
0.086232408495 0.089393805242 0.088318608922 0.086169468231 0.080530008336 0.07472500653 0.068355935991 0.062695435713 0.059569436752 
0.05731549269 0.058340475045 0.059687956139 0.06231199474 0.064761334498 0.066481496475 0.067871381653 0.067805046406 0.06758464129 
0.066645243456 0.065733606327 0.064959384685 0.064338497897 0.064524636655 0.065031584927 0.06733863103 0.070186148639 0.076276495283 
0.082806445605 0.092166344605 0.1018061132 0.11338631096 0.12476057059 0.13459029419 0.143759931 0.14754732164 0.15053604582 
0.1464033275 0.14170790723 0.13148777685 0.12110546746 0.10895540676 0.096992124477 0.087311689446 0.077958190658 0.073140932255 
0.06855212695 0.067618571205 0.066730896595 0.066707316674 0.066631371654 0.06536150236 0.064076985436 0.06237134911 0.060794098373 
0.064181090364 0.067749668521 0.081941037335 0.095611422283 0.047805711142 0 
Torsion 1 240 double
0 0 0 -0.029526009898 -0.059302240219 -0.059678435589 -0.059552066259 -0.057587217909 -0.055574822689 
-0.052929750359 -0.050262671869 -0.046124207901 -0.041921209482 -0.034613975007 -0.027141913839 -0.016196984544 -0.0050350009922 0.010482619547 
0.026314159869 0.052425720611 0.079378373934 0.12663759951 0.17575981336 0.2409132749 0.3076995487 0.34465237692 0.37825939815 
0.34850469426 0.31097921275 0.25833613193 0.20367737121 0.16449392035 0.12754248532 0.10591108253 0.086659490564 0.077838219924 
0.070755336171 0.072341679316 0.075473033194 0.089363960188 0.10529920607 0.1413316421 0.18142411654 0.26316602667 0.35383281588 
0.49114963636 0.63904687629 0.66290891817 0.65705419384 0.52272293117 0.35593443776 0.23511736261 0.12652672847 0.058083146599 
0.00086347180596 -0.037696119176 -0.070779381214 -0.091259891797 -0.1078626327 -0.11240124123 -0.11305251822 -0.1046741807 -0.093252152889 
-0.077319851774 -0.059798704382 -0.040051355823 -0.019485174651 0.003666779722 0.027810949393 0.050536789234 0.072695297143 0.084437074709 
0.091838547965 0.086137784546 0.07475412329 0.055920632752 0.033725633877 0.0094667405614 -0.01576039953 -0.044878382521 -0.075893151426 
-0.12544233264 -0.18437602642 -0.33756237562 -0.54029178728 -1.0460072231 -1.7169877631 -1.5447030787 -0.8953078069 -0.53076332459 
-0.33333130544 -0.2286097139 -0.18026608511 -0.15099066793 -0.13373083616 -0.12121623397 -0.11179921219 -0.10168600492 -0.091102137039 
-0.077363811137 -0.061417364622 -0.041780155352 -0.019468480317 0.0041035850145 0.028620943068 0.050674409808 0.070815602695 0.087210606507 
0.10059730697 0.11298891702 0.12455383657 0.14171894941 0.16369672835 0.20891911985 0.27480338916 0.44242969585 0.70359303692 
1.0567947836 1.497508457 1.4337595934 0.87395590183 0.50494814163 0.32997014213 0.21886204768 0.17492747405 0.15206349531 
0.15211840925 0.17994476299 0.23901398651 0.49062648651 0.9662893446 1.2927577648 1.4396402876 1.2494994583 0.63966917171 
0.27039581616 0.21107081414 0.18632240592 0.20767612276 0.26856051856 0.38399725132 0.58389459981 0.90444997079 1.0509037623 
0.93983230101 0.76558940141 0.49457323465 0.29140883702 0.19592224693 0.12173932338 0.082589095935 0.050038836928 0.028738524119 
0.0083750098086 -0.01033276762 -0.032609113952 -0.061427836607 -0.1023608616 -0.1663406081 -0.26695812235 -0.43993522788 -0.63788312053 
-0.88705314064 -0.97362566098 -0.71360877393 -0.46630378428 -0.24717110779 -0.060937371752 0.049446029355 0.15747057094 0.25983384968 
0.37659627479 0.52935656581 0.68254333463 0.83684153042 0.92856861676 0.85018049925 0.75473585514 0.61087268387 0.48580925 
0.4165183704 0.36140315917 0.35028140151 0.35088285236 0.38958473083 0.43612536071 0.50937581024 0.57230668205 0.59832521823 
0.60398755075 0.53311055754 0.46165846927 0.38792996304 0.32057826064 0.27984278286 0.24268174151 0.22128071533 0.2000469712 
0.17959387664 0.1572278627 0.12539289782 0.090528395544 0.039718959618 -0.010648751196 -0.058537893322 -0.10238012103 -0.1219408622 
-0.13799159595 -0.13144665694 -0.12443336519 -0.11417282782 -0.10454826004 -0.099693464292 -0.095967514037 -0.10144599627 -0.10823629944 
-0.12672367268 -0.146424348 -0.17803744375 -0.21133324297 -0.26297051005 -0.31474039184 -0.36813112011 -0.41767095178 -0.41377959322 
-0.40565209804 -0.32974641708 -0.2524679832 -0.14933603609 -0.045334553283 0.078492343125 0.2037749722 0.37090991553 0.53592046679 
0.61878785792 0.69440258238 0.34573630684 0 0 0 
FrenetTangent 3 240 double
-0.27864573511 -0.68211054146 0.67607822294 -0.27864573511 -0.68211054146 0.67607822294 -0.27864573511 -0.68211054146 0.67607822294 
-0.28750502861 -0.73189135154 0.61227433264 -0.29643940087 -0.7820940329 0.54792973141 -0.30656426064 -0.83018131824 0.45299064731 
-0.31670947063 -0.87823244296 0.3575285806 -0.32424894074 -0.9077433057 0.23230210293 -0.33172102103 -0.9367746789 0.10630585601 
-0.33248034764 -0.93286676262 -0.028485894033 -0.33300618717 -0.92781313193 -0.16358357462 -0.32712365593 -0.89513400536 -0.2783544288 
-0.3209600558 -0.86124323423 -0.3922337555 -0.31223721802 -0.81830394339 -0.47381337289 -0.30337849151 -0.77488420018 -0.55367796147 
-0.29485059249 -0.73556421319 -0.60645053497 -0.28634337019 -0.69650046096 -0.65752985753 -0.27900785391 -0.66555751597 -0.6907856819 
-0.2717567849 -0.63519985439 -0.72275692983 -0.26542253134 -0.61232580789 -0.74407865885 -0.25916328994 -0.59006405717 -0.7645290636 
-0.25310846607 -0.57341332278 -0.77887489694 -0.24707239609 -0.55727736052 -0.79266067785 -0.24026886281 -0.54506228913 -0.8030506741 
-0.23338716197 -0.53324656773 -0.8130948034 -0.22456932779 -0.52420288035 -0.82131503934 -0.21553435717 -0.5154700753 -0.82933072649 
-0.20327312552 -0.50880778435 -0.83638887302 -0.19061622034 -0.50239942439 -0.84332958533 -0.17353730888 -0.49757935775 -0.84966431879 
-0.15586879658 -0.49297106355 -0.85591825508 -0.13295127966 -0.4895368607 -0.86144195752 -0.10927669477 -0.48627199794 -0.86686033778 
-0.080199530249 -0.48375804887 -0.87099932349 -0.050283130062 -0.48136074658 -0.87493956831 -0.015763307268 -0.47932483755 -0.87679210701 
0.019523752628 -0.47734916073 -0.8782966947 0.057591369793 -0.47554545274 -0.87696616015 0.096154531818 -0.47377239266 -0.87513035629 
0.13485320329 -0.47239758676 -0.87014419531 0.17357762156 -0.47109844916 -0.86455946649 0.20949667441 -0.47096620396 -0.85615413653 
0.24484898677 -0.4710696946 -0.84717898815 0.27480904427 -0.47361649398 -0.83619462814 0.30361361858 -0.47668685953 -0.82477972277 
0.32523625671 -0.48371277731 -0.81217750143 0.3452300021 -0.49163583065 -0.79930599192 0.35717260021 -0.5048687752 -0.78552147369 
0.36718627761 -0.51937388118 -0.77151821379 0.36904194266 -0.54009877449 -0.75589195991 0.36883663618 -0.5623949825 -0.73985568649 
0.36092219687 -0.5911097595 -0.72037319838 0.35095745629 -0.62153160274 -0.69997416381 0.33410869352 -0.65776744439 -0.67321633011 
0.3153353654 -0.69562870496 -0.64468076762 0.29066026873 -0.73772721892 -0.60592949565 0.26425313128 -0.78106927464 -0.56418013504 
0.23290090411 -0.82565338512 -0.50747193698 0.20002711087 -0.8706196663 -0.4461610197 0.16301787577 -0.91117371304 -0.36472684874 
0.1246761094 -0.95030603978 -0.27680851825 0.083306429695 -0.97478305864 -0.16613937634 0.040916105043 -0.99432008608 -0.04780142158 
-0.0017856702329 -0.98595806311 0.086498051394 -0.04459716107 -0.96776796557 0.22642033192 -0.083399173985 -0.91616170706 0.36272171812 
-0.1207264364 -0.85226444681 0.49769128112 -0.15148576094 -0.7656613916 0.6097016745 -0.17972483024 -0.67034564762 0.71290215395 
-0.20271453545 -0.56833781015 0.78837433409 -0.22360449503 -0.46365313529 0.8527551945 -0.24191324227 -0.36089268369 0.89466714559 
-0.25914648437 -0.25893399178 0.92721705113 -0.27515565687 -0.16097463145 0.9431970684 -0.29063390761 -0.064749920969 0.95199014616 
-0.30445990382 0.026722850156 0.94820822176 -0.31754037053 0.11605145352 0.938752211 -0.32754670522 0.19854741211 0.92037147664 
-0.3361108545 0.2778379324 0.8978038349 -0.34048756288 0.34743993612 0.87110705383 -0.34282289381 0.41231878801 0.84239731734 
-0.34094776596 0.4656649376 0.81501224657 -0.33694076025 0.51317174426 0.78829789261 -0.32957904782 0.54893026906 0.76741228255 
-0.32045396391 0.57851341495 0.74959049941 -0.30905793187 0.59695853757 0.74015367491 -0.29642320083 0.60932837477 0.73529046422 
-0.28244280862 0.61083283924 0.73947588871 -0.26770105547 0.6061897902 0.74878093574 -0.25234145183 0.59010740852 0.76616319842 
-0.2366193759 0.5673139517 0.78828409429 -0.2209367488 0.53182210964 0.81590669098 -0.20527811087 0.48860827655 0.84687491657 
-0.19036687691 0.43176408029 0.87896394464 -0.17592660985 0.36633088805 0.91175923182 -0.16297274546 0.28828437535 0.93987033116 
-0.15098917171 0.20200416733 0.96492369676 -0.14098523016 0.10687417884 0.97978197014 -0.13231963151 0.0057612401559 0.9877477868 
-0.12543241282 -0.098418761854 0.98230634343 -0.11979006011 -0.20474570819 0.96747981805 -0.11483195099 -0.30849509287 0.93905044068 
-0.11036967056 -0.41037667924 0.90076392418 -0.10487186192 -0.5057194645 0.85067544896 -0.098597407109 -0.59615814892 0.79173550471 
-0.089576048087 -0.67751543218 0.72371898535 -0.078422763407 -0.75182446378 0.64865795994 -0.063561338358 -0.81526865758 0.56817515386 
-0.045722164224 -0.86998805739 0.48333849359 -0.024489129567 -0.91306665699 0.39814420564 -0.00043658001383 -0.94647443795 0.31265281162 
0.02554290879 -0.9695282385 0.23261379611 0.053178361012 -0.98368408715 0.15726041838 0.080939525367 -0.99090517396 0.092093643348 
0.10881243384 -0.99196202803 0.03598162628 0.13546258389 -0.99009769837 -0.0074279318934 0.16098858506 -0.98554776432 -0.039159423017 
0.18452583648 -0.98093756792 -0.057540633429 0.20617214552 -0.97627007289 -0.063228134312 0.22524338438 -0.97242497258 -0.056065668206 
0.24178247088 -0.9693885604 -0.036267401227 0.25497643016 -0.96621002422 -0.0055281537005 0.26476856514 -0.96288695516 0.036337514722 
0.27056034869 -0.95776825883 0.084718442309 0.27214486609 -0.95076105794 0.13995162523 0.27003258545 -0.94166053046 0.19501201712 
0.26389922625 -0.93028305124 0.24988446087 0.25562374092 -0.91876851329 0.29848144945 0.24493836369 -0.90709978427 0.34001855097 
0.23402614533 -0.89787360593 0.3722980098 0.22284996639 -0.89148966838 0.39380493897 0.21277383139 -0.88872606205 0.40600094179 
0.20402182338 -0.89032026183 0.40698934808 0.19695601915 -0.89486459389 0.4002167115 0.19199001585 -0.90308267558 0.38377938002 
0.18885811259 -0.91245362308 0.3621127537 0.1880893767 -0.92330999383 0.33370838212 0.189181065 -0.93346955626 0.30339346438 
0.1927533189 -0.9427000409 0.27053115175 0.19826889316 -0.95017542122 0.23922047181 0.20646624954 -0.95522875755 0.21005104496 
0.21683033132 -0.95829036124 0.18525326494 0.23028973511 -0.95850663258 0.16670069465 0.24626506657 -0.95668098729 0.15441081567 
0.26596187438 -0.95183500699 0.1513845009 0.2884983974 -0.94435870022 0.15573724197 0.31538512245 -0.93285295715 0.17139406857 
0.34501788135 -0.91717338418 0.19474702238 0.37900847657 -0.89487012463 0.23031339546 0.41459213399 -0.86622032596 0.27241833533 
0.45279549372 -0.82713399631 0.32527558502 0.49011356827 -0.78065047974 0.3810977823 0.525922634 -0.7215581218 0.44197386751 
0.5582799611 -0.65756780949 0.5005990899 0.58453654086 -0.58492064759 0.55524604311 0.60686187835 -0.51274945127 0.60403407193 
0.62197993834 -0.44145085852 0.64208073936 0.63480646389 -0.37500746379 0.6739728895 0.64327348489 -0.31780078723 0.69415644576 
0.65140226301 -0.26688688838 0.70962061317 0.65886301141 -0.22840122547 0.71576398761 0.66717041862 -0.19556666101 0.7185569057 
0.67721456184 -0.1743240934 0.71447709285 0.68845461351 -0.15726058506 0.70787246575 0.70224383845 -0.14910507152 0.69588599775 
0.71699877785 -0.14336225856 0.68193276394 0.73389394932 -0.14296651175 0.6636207518 0.75118992329 -0.14319159881 0.6440302696 
0.76940996974 -0.1448480528 0.62149220364 0.78734715188 -0.1456399656 0.59870414953 0.80460545968 -0.14435697953 0.57531612385 
0.82095983244 -0.14130670759 0.55293578483 0.8350543676 -0.13383822097 0.53307466246 0.84776809439 -0.1244213756 0.51536139981 
0.85688335093 -0.1099269892 0.50324558975 0.86429724377 -0.093974459065 0.49393171598 0.86708555407 -0.07405760064 0.49223560652 
0.86806039487 -0.053579194705 0.49328987089 0.86388732225 -0.031506718418 0.50215164812 0.85809180135 -0.0098706636733 0.51305058303 
0.84748301724 0.010470673828 0.52999308573 0.83577782202 0.029563339649 0.54791832374 0.82066997162 0.044780817498 0.56889342996 
0.80518213319 0.058263333457 0.58988156067 0.78845933366 0.066107223276 0.610912021 0.77200328694 0.072058511766 0.63133549685 
0.7564561757 0.071560936471 0.6496907293 0.74157086124 0.069275813084 0.6671602452 0.72905274294 0.060596767672 0.68146162114 
0.71730646896 0.050433933544 0.6948154142 0.70846232969 0.034692053841 0.70460629568 0.70031300854 0.017896198158 0.71348474894 
0.69491400915 -0.0030716457774 0.71875150719 0.69008344457 -0.024626990128 0.7231692491 0.68762547742 -0.048634510128 0.72404327067 
0.68561882676 -0.072774513441 0.72416933482 0.68560207151 -0.097498647726 0.72099758667 0.68591926931 -0.12204343579 0.71723324646 
0.68779491465 -0.1457512748 0.71070347664 0.68987706058 -0.16918849274 0.70375107834 0.69298138443 -0.19128613638 0.69470666907 
0.69614877136 -0.21320413288 0.68538540054 0.69964806923 -0.23417661807 0.67460697809 0.70303364168 -0.25520925311 0.66365781798 
0.70578108809 -0.27657939568 0.65175062989 0.70823698284 -0.2983397565 0.63968237554 0.70894356756 -0.32244142682 0.62664772365 
0.70917927452 -0.3471986725 0.61339222576 0.7063837059 -0.37617618449 0.59871503167 0.70294522662 -0.40589560677 0.58373301797 
0.69504923348 -0.44075894039 0.5666375882 0.68637641182 -0.47620103214 0.54921127496 0.67187737623 -0.51598380989 0.52930333575 
0.65660050609 -0.55593015638 0.50918356435 0.63498129271 -0.5972102172 0.4873365459 0.61276868321 -0.6381780814 0.46554253823 
0.58526495825 -0.67636219242 0.44422120987 0.5574663302 -0.71392301852 0.42326060735 0.52677228985 -0.74536432004 0.40584167662 
0.49607184867 -0.7761100682 0.38898236625 0.46530163849 -0.79927428471 0.37822291796 0.43468724443 -0.82183565049 0.36807318505 
0.40597726974 -0.8370288407 0.36537552912 0.37746054156 -0.85176620751 0.36320527145 0.35162510878 -0.86017902469 0.36835266446 
0.32594925732 -0.86827786895 0.37386299145 0.30282670689 -0.87135314656 0.38518026204 0.27979999515 -0.87424284909 0.39666809038 
0.25857824549 -0.87363755417 0.41136808946 0.2373865917 -0.87296518916 0.4260597045 0.21688112409 -0.87076362614 0.44056016345 
0.19635723355 -0.86859355234 0.45492029124 0.17530368402 -0.8673287936 0.46524589795 0.15420641642 -0.86615453629 0.47536328689 
0.13141871677 -0.8684796674 0.47742958876 0.10858673004 -0.8708972688 0.47929088133 0.083163949184 -0.87872438225 0.46915913021 
0.057954805139 -0.88648572164 0.45911251986 0.057954805139 -0.88648572164 0.45911251986 0.057954805139 -0.88648572164 0.45911251986 

FrenetNormal 3 240 double
-0.10893868306 -0.67696714211 -0.72790648564 -0.10893868306 -0.67696714211 -0.72790648564 -0.10893868306 -0.67696714211 -0.72790648564 
-0.10727684611 -0.61044112219 -0.78007770027 -0.1056009258 -0.54335132244 -0.83269104383 -0.093369638566 -0.4471835368 -0.88273180244 
-0.080957917709 -0.35051869157 -0.93272858523 -0.057739938971 -0.22594371084 -0.96349277435 -0.034242488045 -0.10064691627 -0.99375956881 
-0.0056190795228 0.032233194522 -0.99006004616 0.023182623177 0.16537707283 -0.98517908639 0.049030143112 0.27804207268 -0.95175783651 
0.074748093628 0.3898088761 -0.91708481953 0.094346317598 0.46950071043 -0.87303116218 0.11361960033 0.54748944906 -0.82847941773 
0.12935629203 0.59804907523 -0.78826613345 0.14487194678 0.64689438186 -0.74832400293 0.16162216407 0.67650296244 -0.7170757172 
0.17846135883 0.70472511232 -0.68645401487 0.20333614078 0.71868670203 -0.66396484281 0.22886837987 0.73148151863 -0.6421410596 
0.27489528133 0.72836733635 -0.62556940107 0.32280242704 0.72379361289 -0.60947958885 0.40343080935 0.69256903021 -0.5907954067 
0.4873919102 0.65863000816 -0.57184698316 0.59120202623 0.58696115705 -0.53628307188 0.69723820004 0.51106092323 -0.49885574141 
0.77966603666 0.41974599409 -0.4448112519 0.85919851117 0.32654058344 -0.38872880892 0.90254758326 0.25485801612 -0.33356532054 
0.94107220169 0.18604516126 -0.27852435943 0.96049302676 0.14357613444 -0.22981853084 0.97715849702 0.10490669821 -0.18202642329 
0.985733812 0.084383765231 -0.13762710709 0.99305240383 0.066679706545 -0.093754826445 0.99607903829 0.058185807914 -0.049715223301 
0.99839034653 0.051226935958 -0.0056477330737 0.99704460496 0.046957609111 0.040014402066 0.99504711195 0.043167607135 0.085960731348 
0.98903466484 0.034399932046 0.13460249491 0.98225937646 0.024686499067 0.18375639099 0.96941572665 -0.00033640682085 0.2373905821 
0.95534614524 -0.028452135518 0.29192988332 0.92401454447 -0.092964660259 0.35629209251 0.88898393955 -0.16527649844 0.42275921055 
0.79337870677 -0.29731717431 0.4946738673 0.6840348986 -0.44290459689 0.56782404829 0.47865310684 -0.58764286062 0.59538208491 
0.25026221484 -0.73217768006 0.61201700361 0.05673088571 -0.78458998885 0.58848989362 -0.12799381702 -0.81372924232 0.55481658691 
-0.23294326168 -0.80286133626 0.5421338256 -0.31667588239 -0.78135322821 0.53503365616 -0.35907032191 -0.74932563028 0.55393044201 
-0.38990785055 -0.7143570997 0.58009519385 -0.40095557023 -0.66907294321 0.62227187573 -0.4061954112 -0.62076137475 0.66914771099 
-0.39988951946 -0.55700363731 0.72272705169 -0.39003109458 -0.48849323248 0.77836900944 -0.37448848313 -0.39923885086 0.8300365006 
-0.35711430046 -0.30330029894 0.88042333031 -0.33727683096 -0.18464873922 0.91430337368 -0.31660904005 -0.058341109451 0.94261933177 
-0.29388304338 0.083105833054 0.94120200304 -0.27043199696 0.22988594255 0.92931044827 -0.2461853454 0.3718290289 0.88256089091 
-0.22164605747 0.51199298031 0.82298999927 -0.20067421961 0.62814712188 0.73896595343 -0.18107128702 0.73508819689 0.64555872052 
-0.16949065819 0.81354269899 0.54290287702 -0.16111895086 0.88060257193 0.43654758929 -0.15882695747 0.92433179743 0.32991600494 
-0.15906817823 0.95833991983 0.223169297 -0.15823920697 0.97521422398 0.12027776364 -0.15694605605 0.98465699251 0.019058354192 
-0.14776363408 0.98223677451 -0.075126833947 -0.13502141907 0.97446374551 -0.16613804418 -0.11197401086 0.95934388379 -0.24680465333 
-0.084092067572 0.94077735982 -0.32261823975 -0.045686350971 0.91932121342 -0.38452489986 -0.0021502948822 0.89645637608 -0.4396519334 
0.057365644161 0.87477445067 -0.47578829765 0.12497266318 0.85369146801 -0.50230913315 0.23702064265 0.82799102657 -0.49027041008 
0.37242861415 0.79986345936 -0.4579632011 0.59105403868 0.6230116077 -0.2541304961 0.85507080123 0.36503741907 0.043261570366 
0.83690630512 0.022017812502 0.29985117325 0.6590866232 -0.36911959631 0.53335517174 0.51741060575 -0.57710233438 0.61465357821 
0.39693887145 -0.67763433228 0.60665803737 0.31517902273 -0.75043914231 0.57444054094 0.25696018552 -0.80638282457 0.52749347692 
0.21213903502 -0.85491560726 0.46587606483 0.17576026243 -0.89877850802 0.39501432381 0.1449126584 -0.93450855996 0.31175864094 
0.1176756783 -0.9649296689 0.22041246825 0.094207018353 -0.98323731024 0.12080366401 0.073285955132 -0.99335556501 0.01560885533 
0.057472774839 -0.98897709319 -0.091748838923 0.045235112597 -0.97445091274 -0.20062055308 0.04043912918 -0.94598611388 -0.30582845386 
0.041035666651 -0.90742086691 -0.40838141741 0.050637035761 -0.85705017516 -0.50326659893 0.0669920286 -0.79782539984 -0.59240094391 
0.091215928075 -0.72908097032 -0.67124459641 0.12154703867 -0.65294815248 -0.74210144281 0.15637677954 -0.57019322261 -0.80066732827 
0.19481905683 -0.48212053611 -0.84936319965 0.23494758451 -0.39204456847 -0.88461199169 0.27647699711 -0.3003043365 -0.90868936396 
0.32043331666 -0.21211199339 -0.91919516195 0.36647525935 -0.12696861729 -0.91803788829 0.42272398926 -0.049205628278 -0.90042124199 