# vtk DataFile Version 5.1
vtk output
ASCII
DATASET POLYDATA
POINTS 240 float
0 0 0 0.00227734 -0.34572 -0.257506 0.00455468 -0.69144 -0.515011 
-0.0513611 -1.02228 -0.716032 -0.10777 -1.35299 -0.916575 -0.215761 -1.66971 -1.0653 
-0.324633 -1.98618 -1.21314 -0.478315 -2.28969 -1.31397 -0.633156 -2.59286 -1.41359 
-0.825404 -2.88448 -1.4716 -1.01895 -3.17569 -1.52816 -1.24122 -3.45749 -1.54961 
-1.46476 -3.73888 -1.56952 -1.70663 -4.01399 -1.56238 -1.94948 -4.28876 -1.55381 
-2.19862 -4.56125 -1.52797 -2.44816 -4.83359 -1.50105 -2.69111 -5.10795 -1.46816 
-2.93359 -5.38246 -1.43484 -3.15734 -5.66263 -1.40773 -3.37956 -5.94326 -1.38113 
-3.57353 -6.2315 -1.37306 -3.76491 -6.52043 -1.36669 -3.92282 -6.81645 -1.39026 
-4.07733 -7.11319 -1.41688 -4.19826 -7.41402 -1.48267 -4.31541 -7.7153 -1.55286 
-4.40338 -8.01581 -1.66789 -4.48777 -8.31623 -1.78842 -4.55008 -8.61038 -1.95474 
-4.60943 -8.9037 -2.12717 -4.65383 -9.18576 -2.34128 -4.69608 -9.4662 -2.56139 
-4.72797 -9.7317 -2.81466 -4.75826 -9.99488 -3.07308 -4.77863 -10.2409 -3.35336 
-4.79735 -10.484 -3.63727 -4.80221 -10.709 -3.93106 -4.80459 -10.9309 -4.22662 
-4.78612 -11.1348 -4.52146 -4.76368 -11.3353 -4.81616 -4.71265 -11.5192 -5.10253 
-4.65585 -11.6998 -5.38722 -4.56469 -11.8667 -5.65972 -4.46616 -12.0305 -5.92962 
-4.33158 -12.1854 -6.18725 -4.18882 -12.3382 -6.44211 -4.01344 -12.4885 -6.68765 
-3.83025 -12.6381 -6.93096 -3.62274 -12.7923 -7.16946 -3.40909 -12.9477 -7.40674 
-3.18283 -13.1144 -7.6432 -2.95322 -13.2842 -7.87945 -2.72413 -13.4702 -8.11603 
-2.49519 -13.6607 -8.35271 -2.27929 -13.8696 -8.58602 -2.06721 -14.0838 -8.81833 
-1.8786 -14.3156 -9.03776 -1.69721 -14.5527 -9.25323 -1.54678 -14.8036 -9.44145 
-1.40633 -15.0588 -9.62088 -1.30118 -15.3212 -9.75659 -1.20793 -15.586 -9.87757 
-1.15135 -15.8491 -9.94031 -1.10769 -16.1117 -9.98254 -1.09945 -16.3624 -9.95794 
-1.10423 -16.6087 -9.90875 -1.14104 -16.8327 -9.79249 -1.19013 -17.0481 -9.6505 
-1.26608 -17.2317 -9.44977 -1.35279 -17.4026 -9.22553 -1.4599 -17.5348 -8.95748 
-1.57552 -17.6507 -8.67118 -1.70427 -17.7238 -8.35921 -1.8387 -17.7783 -8.03611 
-1.97879 -17.7888 -7.70514 -2.12144 -17.7795 -7.37064 -2.263 -17.7274 -7.04272 
-2.40405 -17.6554 -6.7179 -2.53889 -17.5439 -6.40896 -2.6707 -17.4133 -6.10776 
-2.79326 -17.2483 -5.82587 -2.91113 -17.0659 -5.55376 -3.01854 -16.8554 -5.29895 
-3.12046 -16.6301 -5.05323 -3.21166 -16.3847 -4.81866 -3.297 -16.1281 -4.59017 
-3.37118 -15.8599 -4.36454 -3.43903 -15.585 -4.14052 -3.49432 -15.3075 -3.91122 
-3.54224 -15.0285 -3.67883 -3.57518 -14.7557 -3.43523 -3.599 -14.4868 -3.18481 
-3.60505 -14.2329 -2.92078 -3.59991 -13.9885 -2.64816 -3.57519 -13.7676 -2.36345 
-3.53768 -13.5621 -2.07084 -3.48107 -13.3881 -1.77119 -3.41154 -13.2355 -1.46677 
-3.32657 -13.1216 -1.16286 -3.23078 -13.0348 -0.859312 -3.12608 -12.9921 -0.564958 
-3.01492 -12.9812 -0.277267 -2.90297 -13.017 -0.00700511 -2.79043 -13.0878 0.250185 
-2.68495 -13.2041 0.483805 -2.58493 -13.3557 0.699131 -2.49785 -13.5479 0.8883 
-2.42118 -13.7728 1.05646 -2.36046 -14.0304 1.2003 -2.31301 -14.315 1.32393 
-2.28159 -14.6225 1.42929 -2.26395 -14.9497 1.51895 -2.26003 -15.2896 1.5992 
-2.2683 -15.6409 1.6711 -2.28643 -15.9965 1.74292 -2.31362 -16.3559 1.81467 
-2.34619 -16.7135 1.89359 -2.38387 -17.0692 1.97932 -2.42262 -17.4199 2.07558 
-2.46244 -17.7655 2.1822 -2.4998 -18.1058 2.29826 -2.53467 -18.4406 2.42393 
-2.56472 -18.7717 2.55433 -2.58971 -19.0988 2.68971 -2.60881 -19.425 2.82328 
-2.62151 -19.7502 2.95486 -2.62847 -20.0772 3.07828 -2.62896 -20.4062 3.1925 
-2.62472 -20.7394 3.29416 -2.61499 -21.0772 3.38119 -2.60196 -21.4204 3.45421 
-2.58496 -21.7699 3.51037 -2.56593 -22.1247 3.55416 -2.54439 -22.4861 3.58254 
-2.52142 -22.852 3.60266 -2.49664 -23.2235 3.61216 -2.47001 -23.5974 3.61894 
-2.44094 -23.9747 3.62209 -2.40846 -24.3519 3.62827 -2.3713 -24.729 3.6386 
-2.32822 -25.103 3.65677 -2.2767 -25.4725 3.68614 -2.21622 -25.8355 3.72649 
-2.1425 -26.1891 3.78308 -2.05688 -26.5329 3.85177 -1.953 -26.8618 3.93897 
-1.83493 -27.1782 4.03741 -1.69433 -27.475 4.15369 -1.53839 -27.7573 4.27884 
-1.3572 -28.0159 4.41858 -1.16085 -28.2593 4.56404 -0.938664 -28.4768 4.71922 
-0.702767 -28.6795 4.87687 -0.442641 -28.856 5.0389 -0.171213 -29.0191 5.20077 
0.120936 -29.1578 5.36235 0.42146 -29.2855 5.52214 0.73792 -29.3923 5.67852 
1.0598 -29.4909 5.83257 1.39237 -29.573 5.98201 1.72776 -29.6493 6.12946 
2.06892 -29.7139 6.27283 2.4109 -29.7748 6.41506 2.75464 -29.8277 6.55487 
3.09794 -29.8781 6.69453 3.44024 -29.9229 6.83382 3.78147 -29.9655 6.97371 
4.12022 -30.0028 7.11499 4.45775 -30.0373 7.25727 4.79232 -30.0652 7.40198 
5.12577 -30.0894 7.54778 5.45639 -30.1042 7.69629 5.78604 -30.1143 7.84577 
6.11316 -30.1119 7.99775 6.43938 -30.104 8.15052 6.76319 -30.0811 8.30545 
7.08607 -30.0524 8.46108 7.40635 -30.0076 8.61868 7.72562 -29.9576 8.77701 
8.04188 -29.8918 8.93748 8.35704 -29.8217 9.09877 8.66877 -29.7382 9.26263 
8.97941 -29.6515 9.42741 9.28648 -29.5544 9.5952 9.5926 -29.4553 9.76392 
9.89549 -29.3493 9.93579 10.1977 -29.2422 10.1084 10.4977 -29.1311 10.2837 
10.7974 -29.0195 10.4595 11.0964 -28.9062 10.6369 11.3957 -28.793 10.8144 
11.6962 -28.6803 10.992 11.9976 -28.5685 11.1691 12.3024 -28.46 11.3446 
12.6084 -28.3534 11.5194 12.9196 -28.255 11.6912 13.232 -28.1597 11.8623 
13.5502 -28.0792 12.0299 13.8693 -28.0034 12.197 14.1928 -27.9503 12.3616 
14.5163 -27.9031 12.5262 14.8401 -27.8868 12.6905 15.1626 -27.877 12.8554 
15.4782 -27.9041 13.0234 15.7909 -27.938 13.1927 16.0872 -28.012 13.3694 
16.3791 -28.0922 13.5478 16.6431 -28.2118 13.7375 16.9015 -28.3367 13.9293 
17.1213 -28.4971 14.1352 17.3348 -28.6614 14.3433 17.5011 -28.855 14.5669 
17.661 -29.0511 14.7925 17.7692 -29.2686 15.0335 17.8717 -29.4876 15.276 
17.9232 -29.7195 15.5323 17.9701 -29.952 15.7897 17.9713 -30.1896 16.0586 
17.9692 -30.427 16.3283 17.9308 -30.6627 16.6068 17.8902 -30.8978 16.8858 
17.8238 -31.1263 17.1711 17.7564 -31.3542 17.4567 17.674 -31.5727 17.7462 
17.5912 -31.7908 18.0357 17.5031 -31.9999 18.3261 17.4152 -32.2088 18.6163 
17.331 -32.4122 18.9039 17.2473 -32.6157 19.1911 17.1757 -32.8201 19.471 
17.1049 -33.0249 19.7505 17.0552 -33.2392 20.0172 17.0063 -33.454 20.2835 
16.9879 -33.6885 20.5309 16.9702 -33.9235 20.7778 16.993 -34.189 20.9994 
17.0161 -34.4548 21.2208 17.0898 -34.7622 21.4101 17.1635 -35.0695 21.5995 

LINES 2 240
OFFSETS vtktypeint64
0 240 
CONNECTIVITY vtktypeint64
0 1 2 3 4 5 6 7 8 
9 10 11 12 13 14 15 16 17 
18 19 20 21 22 23 24 25 26 
27 28 29 30 31 32 33 34 35 
36 37 38 39 40 41 42 43 44 
45 46 47 48 49 50 51 52 53 
54 55 56 57 58 59 60 61 62 
63 64 65 66 67 68 69 70 71 
72 73 74 75 76 77 78 79 80 
81 82 83 84 85 86 87 88 89 
90 91 92 93 94 95 96 97 98 
99 100 101 102 103 104 105 106 107 
108 109 110 111 112 113 114 115 116 
117 118 119 120 121 122 123 124 125 
126 127 128 129 130 131 132 133 134 
135 136 137 138 139 140 141 142 143 
144 145 146 147 148 149 150 151 152 
153 154 155 156 157 158 159 160 161 
162 163 164 165 166 167 168 169 170 
171 172 173 174 175 176 177 178 179 
180 181 182 183 184 185 186 187 188 
189 190 191 192 193 194 195 196 197 
198 199 200 201 202 203 204 205 206 
207 208 209 210 211 212 213 214 215 
216 217 218 219 220 221 222 223 224 
225 226 227 228 229 230 231 232 233 
234 235 236 237 238 239 
CELL_DATA 1
FIELD FieldData 3
Length 1 1 double
84.422197065 
Tortuosity 1 1 double
0.89200235114 
ClusterLabel 1 1 int
3 
POINT_DATA 240
FIELD FieldData 6
Curvature 1 240 double
0 0.10778710596 0.21557421192 0.23350353501 0.25067135146 0.25504450537 0.25919894711 0.24795862233 0.23632015703 
0.2130608997 0.18939744091 0.16049082258 0.1313542411 0.10202632765 0.07268825498 0.053860747693 0.035690150741 0.05418510075 
0.075322612702 0.10750134924 0.14058345869 0.17383771604 0.20710776676 0.23233591943 0.25674498988 0.2649158515 0.27126560558 
0.26111353576 0.24893765733 0.22824982815 0.2064270722 0.18417266602 0.16185600261 0.1434757972 0.12570708042 0.11501692016 
0.10550651933 0.10847478625 0.11366697417 0.13160300019 0.15196035544 0.17530760208 0.19925886718 0.21037044643 0.21873066443 
0.20529750137 0.18692150961 0.1552032391 0.12028838097 0.090632066914 0.062304227154 0.059615860749 0.063746503217 0.078958318493 
0.09726809606 0.1171810693 0.13756454563 0.16554931153 0.19587293577 0.2468366327 0.30445101972 0.39717552963 0.50173491243 
0.62464108095 0.75401032172 0.80818600271 0.8347042824 0.76601905021 0.66080223788 0.55539051761 0.44990083415 0.37747250875 
0.31881974919 0.28399523953 0.2595058744 0.24856860523 0.24374630619 0.24434696901 0.24749173741 0.24825944943 0.24786834647 
0.23775297914 0.22271393363 0.19808710012 0.16842053188 0.1381524598 0.1075562947 0.091438007146 0.083511150311 0.092071487435 
0.11030431168 0.13131057228 0.15400338201 0.17575926502 0.19692475585 0.2182238523 0.23961016352 0.26389831305 0.29014826876 
0.32345590717 0.36170392347 0.40820314911 0.46068151195 0.50890283789 0.55393138614 0.56941602878 0.56197107304 0.5215955334 
0.45477573698 0.38118365286 0.30196536048 0.23242465955 0.17120063877 0.12338044894 0.087474775488 0.06912529633 0.06691618934 
0.070832310088 0.080572417865 0.085022666194 0.084271219401 0.077853016819 0.065672011742 0.057034580251 0.052124010634 0.058559978472 
0.077337794067 0.096012313938 0.11457062612 0.12685393375 0.13183541791 0.12978891227 0.1192827893 0.10427463643 0.08366018218 
0.062147485108 0.039477436701 0.028861218927 0.03431677533 0.047689753895 0.071988775043 0.096719224107 0.12206599877 0.14713474213 
0.17179223086 0.19478120896 0.21521417077 0.23236318434 0.24430071484 0.25159964821 0.2512706663 0.24685006722 0.23545512072 
0.22153807878 0.20316337978 0.18382890076 0.16273482501 0.14193794199 0.12170645002 0.10222894275 0.0842405553 0.067559410022 
0.053559787158 0.041462748201 0.033421217046 0.027984852016 0.028322098398 0.029975042438 0.034661400521 0.040084148018 0.047274230109 
0.054577936329 0.062165702873 0.06942920459 0.075847652517 0.081276734587 0.084015978236 0.085592315686 0.083867500056 0.081122887489 
0.075352877341 0.069179371489 0.061753637591 0.054206368026 0.046264107542 0.038481162887 0.031241072167 0.024034753266 0.016949233567 
0.010645784842 0.0072829229813 0.0064460872641 0.015608105032 0.025161124836 0.03634615314 0.047943282994 0.061357406041 0.07512074145 
0.090513734554 0.10611763419 0.12276552113 0.13936769449 0.15572927003 0.17204805352 0.18812672611 0.20419443052 0.22019632585 
0.23602551591 0.25074291575 0.26485722806 0.27479013341 0.28345367512 0.2825969895 0.28018782942 0.26512003143 0.24923288408 
0.22603987144 0.20254953248 0.17613998958 0.15006886579 0.12768651035 0.10559080622 0.086998618023 0.068603528378 0.052943181087 
0.037507780687 0.02567153055 0.015268844807 0.031864955138 0.048994167141 0.078278097275 0.10775319555 0.14272437783 0.17764415212 
0.21057615072 0.24322893139 0.25954746308 0.27457518699 0.13728759349 0 
Torsion 1 240 double
0 0 0 -0.0081727794028 -0.016414819648 -0.019799030566 -0.023100201666 -0.030445513351 -0.037895414879 
-0.055258723238 -0.072966845748 -0.12037175428 -0.16907915342 -0.37006666477 -0.5791398458 -1.5252738537 -2.5174741634 -1.6724338858 
-0.69497987214 -0.46203471256 -0.29000391377 -0.25005694993 -0.22222776911 -0.21806702848 -0.21631696231 -0.21881803885 -0.22179587906 
-0.21965893537 -0.21689470686 -0.19808937555 -0.17714523053 -0.12610114484 -0.070715721544 0.03272072339 0.1436214047 0.28889250675 
0.43989201227 0.48001460773 0.50037696179 0.41941345712 0.31919803929 0.25087684769 0.18899893411 0.16505652164 0.14924314513 
0.16655650735 0.19138315053 0.30311099655 0.43565892242 0.88547820157 1.4154502437 1.2303179742 0.8549983879 0.50241944632 
0.15619810436 -0.013795775399 -0.13207072603 -0.19838309709 -0.24870698213 -0.25804289586 -0.2541715744 -0.22615106675 -0.18999038398 
-0.15397223317 -0.11800429247 -0.092741943339 -0.071417283054 -0.054380164062 -0.038988264402 -0.024419804469 -0.010180720427 -0.0024260688837 
0.0026267357851 0.0003015428424 -0.0052237454498 -0.012885228377 -0.021510604006 -0.02934217228 -0.036801337104 -0.046519499117 -0.05733892226 
-0.07985995287 -0.10830584802 -0.17596709798 -0.26424154726 -0.47819227886 -0.76069370989 -0.93895052872 -1.0582268433 -0.87719988545 
-0.51999500784 -0.30723171079 -0.18230451002 -0.11685628283 -0.088887956799 -0.082898091818 -0.091255277803 -0.10753869028 -0.1291806784 
-0.14725960273 -0.1628443824 -0.16813741147 -0.16597265026 -0.15841464234 -0.1468116994 -0.13840002654 -0.13246516031 -0.13531536068 
-0.14522023574 -0.17243074728 -0.21401824914 -0.30673174683 -0.44338164718 -0.73297409691 -1.1585154794 -1.2815510188 -1.1264763474 
-0.90038102312 -0.60675786494 -0.45460398085 -0.44156154962 -0.56627765679 -0.83108719282 -1.1201289507 -1.4346563211 -1.3450857587 
-0.81597007643 -0.46350350049 -0.30976716921 -0.20355120439 -0.15263166598 -0.10952858063 -0.075834188758 -0.022388506925 0.055653120901 
0.43332262369 1.1970511192 1.4404403918 0.99004403389 0.57776776402 0.21809721567 -0.015470923422 -0.068892763579 -0.10774604554 
-0.12505000182 -0.13830189462 -0.14534637103 -0.15039079561 -0.15226122488 -0.15301703747 -0.15193992484 -0.1496264461 -0.14520552512 
-0.13949649197 -0.13151079544 -0.12186222881 -0.10916506699 -0.093261952201 -0.071259707379 -0.041721183112 0.0027014930586 0.069783017102 
0.18334422909 0.32081619211 0.50925580865 0.59013997591 0.43265801235 0.26392140526 0.069236592278 -0.080415141559 -0.12198748544 
-0.14616915778 -0.1268741513 -0.10459598201 -0.074543509668 -0.044956433444 -0.016634652913 0.011528268947 0.039240237158 0.067222445273 
0.096006365108 0.12460896353 0.15264884033 0.17894503642 0.19957427021 0.21501592021 0.21278135876 0.22184257021 0.27130789241 
0.35941427151 0.59281102453 0.68241292347 0.2028268583 -0.18857601153 -0.21190989211 -0.231481079 -0.23446220731 -0.23685528211 
-0.2365041072 -0.23601909326 -0.23487157616 -0.23418469905 -0.23592224293 -0.23753490296 -0.23844682576 -0.23820495208 -0.23104029947 
-0.22286488997 -0.20818273303 -0.19320859559 -0.17621006 -0.15955620368 -0.14548744197 -0.13245040915 -0.12782593502 -0.12428763514 
-0.13043438896 -0.1377853114 -0.15695898038 -0.17709018166 -0.20765848512 -0.2395966547 -0.28827763235 -0.34363146264 -0.49157112329 
-0.72816263102 -2.3831836921 -3.868887029 -2.1657732284 -0.5266800523 -0.34725711532 -0.17232424623 -0.1264808287 -0.081326018971 
-0.062797377745 -0.04420708667 -0.022010279439 0 0 0 
FrenetTangent 3 240 double
-0.066117563326 -0.82620934696 -0.55946991235 -0.066117563326 -0.82620934696 -0.55946991235 -0.066117563326 -0.82620934696 -0.55946991235 
-0.14179405709 -0.84243708429 -0.51156463662 -0.21811187707 -0.85880234482 -0.46325338399 -0.2919307531 -0.86132740513 -0.40490490096 
-0.36570691215 -0.86361588082 -0.34638484136 -0.42852460976 -0.85285183755 -0.2848088365 -0.49105889889 -0.84175022914 -0.22315379858 
-0.53752667216 -0.8232167566 -0.16634534059 -0.5834356101 -0.80442478444 -0.10970545929 -0.61260304172 -0.78575616974 -0.063579208532 
-0.64103619676 -0.76709296546 -0.017914081919 -0.65462266071 -0.75494316779 0.014540927883 -0.66742080478 -0.74313921472 0.046294515553 
-0.66744636352 -0.74172777718 0.063838909203 -0.66667363567 -0.74096587186 0.080495228228 -0.65411420881 -0.7517259999 0.082019823566 
-0.64070529012 -0.76331654477 0.082453844225 -0.61541164774 -0.78448345287 0.066057049107 -0.58914561888 -0.80643388161 0.048283187244 
-0.55107074929 -0.83217257651 0.011880677509 -0.51191249981 -0.85825881876 -0.026230882489 -0.46350229617 -0.8787730373 -0.082197969078 
-0.41414976388 -0.89871973489 -0.13998367412 -0.3621657906 -0.90402648467 -0.20939303077 -0.30988670245 -0.90769137113 -0.28010597451 
-0.26337326199 -0.89401758405 -0.35195277073 -0.21756692927 -0.87821735588 -0.42393862433 -0.1824935825 -0.85012586419 -0.4879027191 
-0.14885130053 -0.82039553737 -0.55079724604 -0.12504569201 -0.78628662245 -0.60168723697 -0.10265883446 -0.75154618041 -0.65084580443 
-0.085107353386 -0.71845135802 -0.68845449984 -0.068306998759 -0.68561216588 -0.72426904035 -0.049898508475 -0.65729822139 -0.75083776861 
-0.031221995582 -0.62973848485 -0.77586552816 -0.0047256121718 -0.60702126773 -0.79372324916 0.023164411528 -0.58516707387 -0.8103031415 
0.063561176945 -0.5667476849 -0.82010983143 0.10633422329 -0.54898090886 -0.82862961289 0.16237585331 -0.5324512944 -0.82854817131 
0.22109800528 -0.51617161158 -0.82672910891 0.28675458228 -0.4999730374 -0.8142052 0.3538971075 -0.48379184364 -0.79938739541 
0.4157494757 -0.46950391186 -0.77610277481 0.47640201447 -0.4556453797 -0.75089784542 0.52178078159 -0.44758274455 -0.72456753258 
0.5635002076 -0.44090870972 -0.69796759663 0.58742454149 -0.44296590809 -0.67671928061 0.60685327317 -0.44722889168 -0.65682295278 
0.61085721815 -0.46059838914 -0.64369166057 0.61075882625 -0.47638983176 -0.63235957996 0.59875409905 -0.50024100324 -0.62476598117 
0.58342071897 -0.52634543225 -0.61821754935 0.55925956855 -0.55977040709 -0.60985093366 0.53250765944 -0.59534380298 -0.60095072053 
0.49881778027 -0.63845753846 -0.58306375407 0.46299314109 -0.68389137843 -0.56241163275 0.41976365318 -0.7371368178 -0.5230290801 
0.37414815847 -0.79289932809 -0.47761116624 0.31724035239 -0.85173883996 -0.39942132486 0.25652614923 -0.91161554337 -0.31018476634 
0.18012470967 -0.95290979299 -0.17626919311 0.098197084567 -0.98765795093 -0.026614421523 0.0094203709604 -0.96846326823 0.1471277217 
-0.081875547613 -0.92942754069 0.32972958782 -0.15756434499 -0.841098778 0.48337298262 -0.2272643633 -0.73385524599 0.62590440588 
-0.27540490574 -0.61779345866 0.72259584197 -0.31492165784 -0.49820436919 0.80095128319 -0.34094135545 -0.38833794618 0.84917919315 
-0.36133728037 -0.28252263419 0.88485396508 -0.37445443755 -0.18544666564 0.90399933853 -0.38441453885 -0.092161255698 0.91597533432 
-0.38930136086 -0.0028174376638 0.9173050691 -0.39189902025 0.084747857192 0.91383100318 -0.38944771314 0.17093671156 0.90123211361 
-0.38462775508 0.25647982841 0.88435244257 -0.37434181015 0.33912600483 0.85907433615 -0.36139119662 0.42035992279 0.82970199249 
-0.34359289791 0.49366180595 0.79521298966 -0.32334007506 0.56294746895 0.75813327334 -0.30024214838 0.61944995783 0.72273495425 
-0.27564871841 0.66923308595 0.68822044652 -0.2500307916 0.70511886896 0.66225597002 -0.22385404834 0.7334242819 0.64095514692 
-0.19685901506 0.74945912495 0.63152134758 -0.16940100191 0.75855140872 0.62880178537 -0.13995211215 0.75714882762 0.63724409192 
-0.10933524144 0.74958925913 0.6522346948 -0.075379704961 0.73233348076 0.67510521696 -0.039393898748 0.70918135857 0.70276758192 
0.00030089291826 0.67625055194 0.73409618666 0.0423328535 0.63715783458 0.76773502467 0.086956355433 0.58759064041 0.80107447526 
0.13327155797 0.53118594055 0.83421849241 0.17967560943 0.46291120383 0.86376419348 0.22613972777 0.38661165345 0.89087723016 
0.2690419334 0.29626565138 0.91098952622 0.30945080014 0.19608713312 0.92620130384 0.3412698723 0.080309319635 0.92905026888 
0.36686445564 -0.046772330973 0.92294067409 0.37759501101 -0.18463707275 0.89691798812 0.37717754541 -0.3305891329 0.85596048376 
0.35886970068 -0.4703821093 0.79315768398 0.32667678559 -0.6053949013 0.71340032655 0.28320146512 -0.71620219351 0.62493884121 
0.23066603123 -0.80757173587 0.5294876774 0.17776137503 -0.87364660517 0.44303162223 0.12454998028 -0.91870743839 0.36404842654 
0.076785879668 -0.94841851697 0.30185827129 0.033703047456 -0.96493840016 0.25409963517 -0.0029860118891 -0.97437311201 0.2227249306 
-0.033991717575 -0.97750989378 0.20591372075 -0.059062984826 -0.97739908283 0.20210301827 -0.078678397387 -0.97430258179 0.21024439516 
-0.092759107014 -0.96926438892 0.2266589538 -0.10157731221 -0.96237999726 0.25093981641 -0.10528784045 -0.95453582992 0.27762545772 
-0.10397581969 -0.94574788316 0.30667579809 -0.098502318207 -0.93778229716 0.33224803951 -0.088796802428 -0.93065301024 0.35428323113 
-0.076437765994 -0.92631225016 0.36864868277 -0.061287957837 -0.92490425109 0.37494768374 -0.045161702978 -0.92697633033 0.37189460852 
-0.0279733482 -0.9328337579 0.35866909954 -0.011342857457 -0.94093490328 0.33695466452 0.0046600362463 -0.9515602312 0.30569018771 
0.01896966477 -0.96210743822 0.26929507577 0.031308948359 -0.97256374093 0.22692977021 0.041600108686 -0.98127853363 0.18438505914 
0.049425935457 -0.9878970643 0.14162439698 0.055815294901 -0.99270224879 0.10318241883 0.060415845975 -0.99524930408 0.070118424525 
0.064905316541 -0.99681346527 0.043963413986 0.069251664146 -0.9971112052 0.026710363293 0.075089453154 -0.99700990543 0.017056491545 
0.0829158307 -0.99637655273 0.017534858393 0.093802565618 -0.99509444126 0.025117431779 0.10891259371 -0.99291704267 0.042503810186 
0.12840499333 -0.98897029987 0.065775996218 0.15415792371 -0.98249592246 0.097456478859 0.18503662812 -0.97253117727 0.13311958705 
0.2234972066 -0.95740359638 0.1746736622 0.26673872653 -0.93707402253 0.21753321665 0.31730424187 -0.90877543818 0.26239265429 
0.37090711242 -0.87452887673 0.30542043193 0.42933013361 -0.83084313424 0.3455414448 0.48802307065 -0.78223925436 0.38118840085 
0.5471598693 -0.72554777078 0.40947801903 0.60388680984 -0.66659772406 0.43219799512 0.65650603768 -0.60379785382 0.4454242631 
0.70521405157 -0.5417477548 0.45381517317 0.74700922223 -0.4810228328 0.45365986926 0.78468960365 -0.42327170363 0.45047748099 
0.81482620482 -0.37097252797 0.44174543806 0.84147728996 -0.32261540273 0.43193502704 0.86149739338 -0.28175778804 0.4200730865 
0.87890346593 -0.24478844605 0.40862871567 0.89114682753 -0.21549844265 0.39800904503 0.90155565624 -0.18940776958 0.38866806442 
0.90820134057 -0.16987982538 0.38195003771 0.91361370346 -0.15249316915 0.37677721819 0.91639714433 -0.13967083727 0.37489812981 
0.91840864223 -0.12773629058 0.37437055583 0.91870934758 -0.1177692678 0.37683822998 0.91859704752 -0.10750621687 0.38019004628 
0.91753254052 -0.096560656614 0.38558030142 0.91629539736 -0.084421011745 0.39132965274 0.91464392741 -0.069415563814 0.39794083489 
0.91289127716 -0.052788339626 0.40448773282 0.91088567617 -0.032106674796 0.41087392021 0.90867773625 -0.0099394438931 0.41696910398 
0.90594248881 0.016099262231 0.42230591469 0.9028362855 0.043040173238 0.42733350018 0.89872154592 0.072433953774 0.4315203796 
0.89415518945 0.10187040512 0.43553403091 0.88830682372 0.1314279865 0.4390559379 0.88209988763 0.16020043973 0.442602306 
0.87482919278 0.18664367944 0.44622124203 0.86742322829 0.21179349949 0.44999360275 0.85959746144 0.23292925853 0.45424210908 
0.85189075125 0.25262774888 0.45862309487 0.84457097521 0.26765511594 0.46343463888 0.83758827344 0.28138599576 0.46819912376 
0.83175412107 0.29069921532 0.472803259 0.82640770047 0.29899045073 0.47711360348 0.82280585892 0.30362612741 0.48037308102 
0.81980668941 0.30741536475 0.48312748529 0.81907356677 0.30802199023 0.48398281406 0.81902111524 0.30774449593 0.48423999555 
0.82166298681 0.30396736085 0.48212951071 0.82497390037 0.29898476441 0.47955265187 0.83107733699 0.28897067709 0.47502918848 
0.83768885921 0.27729950787 0.47034533443 0.84654057702 0.25832211393 0.46495430339 0.85553670846 0.23733327515 0.45977788923 
0.86520677018 0.20695769385 0.45560302053 0.87444044881 0.17445071626 0.45203079775 0.88151403113 0.13139332704 0.4514416723 
0.88743398665 0.086449390773 0.45176418641 0.88728222218 0.031576259498 0.45688480345 0.88528116882 -0.024607730654 0.46308976982 
0.87290354997 -0.088147095621 0.47537914082 0.85814448173 -0.15223455282 0.48874650884 0.82909671717 -0.2196105634 0.50858185893 
0.79742263176 -0.28670370193 0.52922728431 0.74884160585 -0.35197585157 0.55508756934 0.69781749927 -0.41614541696 0.58123318599 
0.62985470002 -0.47267039824 0.60935710191 0.56020480119 -0.52742932276 0.63714718289 0.47790165541 -0.56894282167 0.66243350177 
0.39519203291 -0.6084422137 0.68695430128 0.30916806174 -0.6315188882 0.70523317367 0.22392981451 -0.65289016621 0.72276048686 
0.14569760562 -0.6590549922 0.73358639712 0.068893804993 -0.66412164718 0.74396632782 0.0061143762868 -0.65840625948 0.74996755021 
-0.055182448275 -0.65216607071 0.75582978828 -0.10031888767 -0.64020555017 0.76017709726 -0.14423046097 -0.62811015243 0.76454046673 
-0.17317144876 -0.61436625559 0.76910013098 -0.20117519134 -0.60074751206 0.77367959074 -0.21617465659 -0.58886527085 0.77853371324 
-0.23045386827 -0.57729946871 0.78333190337 -0.23320902292 -0.57079669184 0.78723517557 -0.23536835686 -0.56474750682 0.79098243015 
-0.22630640074 -0.56724096847 0.79179135296 -0.21670134965 -0.57024166363 0.79234155137 -0.19471373337 -0.58480728274 0.78699283334 
-0.17222317144 -0.59981262465 0.78128454175 -0.13527292217 -0.6274599971 0.76523851048 -0.097928332498 -0.65535079938 0.74877526031 
-0.045335914085 -0.69265422181 0.71617954575 0.0074533599254 -0.72996392108 0.68324007004 0.071758686346 -0.76764081557 0.63019056681 
0.13552363187 -0.80500109751 0.57758685772 0.13552363187 -0.80500109751 0.57758685772 0.13552363187 -0.80500109751 0.57758685772 

FrenetNormal 3 240 double
-0.84416330102 -0.25262449235 0.47283103438 -0.84416330102 -0.25262449235 0.47283103438 -0.84416330102 -0.25262449235 0.47283103438 
-0.82802389949 -0.17848741708 0.52343973986 -0.81174772337 -0.10372206151 0.57447733268 -0.78023123547 -0.025938659945 0.61771296739 
-0.74845422943 0.051896332151 0.66081523529 -0.70456220801 0.12250874453 0.69323624232 -0.66035686722 0.19293436606 0.72538100984 
-0.60868738259 0.24582818322 0.75032391906 -0.55675827557 0.29811219849 0.77501632886 -0.49669021271 0.32225924778 0.8027838665 
-0.4362651781 0.34517221962 0.83068627817 -0.33388491671 0.30632291112 0.88263895345 -0.22927694417 0.2641941895 0.93586863387 
0.14675427434 -0.063406894554 0.82792417721 0.53974944572 -0.40885000126 0.70990633698 0.63622281523 -0.52490102386 0.23931946176 
0.71132524406 -0.62441928365 -0.25667779436 0.6909424185 -0.57645169335 -0.41188493848 0.66274716304 -0.51641707894 -0.53920925525 
0.6510018372 -0.43973058243 -0.61014724051 0.64076567921 -0.36151639032 -0.67591216783 0.62933574203 -0.26430822668 -0.72258256934 
0.61778421623 -0.16516549187 -0.76730815803 0.59371598182 -0.053893423243 -0.79415447507 0.5682440044 0.058738944506 -0.81899564016 
0.5273629291 0.16911365496 -0.82425237931 0.48459205878 0.27921148292 -0.8271072549 0.43509347226 0.37298042098 -0.81267610136 
0.38469785692 0.46457217372 -0.79594014394 0.34821544594 0.53212069928 -0.76776422618 0.31373974712 0.5962014517 -0.73793831413 
0.32523307294 0.6328481014 -0.70062953835 0.34386721811 0.6652331429 -0.66215837598 0.43807015478 0.65522228697 -0.60277254945 
0.54486789004 0.63814544812 -0.53990094557 0.67505890576 0.56370473434 -0.43508381464 0.80941902097 0.47904075572 -0.32279124326 
0.88070443565 0.39807804222 -0.20670156737 0.94000565722 0.3178185691 -0.089890441633 0.95550735093 0.2774402575 0.0090096496651 
0.96216065518 0.24511874621 0.10429135017 0.94963897253 0.23097781509 0.19262338423 0.93300836411 0.22073272257 0.27946620406 
0.90562426533 0.20506541613 0.36105749066 0.8758012306 0.18816832921 0.44145770788 0.83536251483 0.12806223821 0.5223132761 
0.79238045882 0.057603989977 0.60327793883 0.64500763395 -0.17221626509 0.67128991506 0.47126240432 -0.44229639557 0.73602963364 
0.12046966704 -0.64751718758 0.57848611425 -0.27741017334 -0.83548815552 0.36182471242 -0.44669111815 -0.84804354666 0.25112590606 
-0.55206269432 -0.81155802386 0.17005105112 -0.58700596509 -0.78693770611 0.18400888452 -0.60128005929 -0.7657995681 0.22585674601 
-0.59073068707 -0.74068005089 0.30574133076 -0.5725433252 -0.71433549393 0.39732952265 -0.54684345962 -0.66369470306 0.49665654765 
-0.5187228984 -0.60522512571 0.59847719664 -0.49851758244 -0.50854251425 0.68865428554 -0.48098032669 -0.39897910479 0.7749065789 
-0.46902455436 -0.24240141204 0.83130009349 -0.45903498642 -0.069261869499 0.87717517465 -0.43704081799 0.12747530765 0.86706985103 
-0.41063116432 0.33289207455 0.83637403371 -0.36957984189 0.50477764337 0.75787645218 -0.3229102047 0.66379658969 0.66103633321 
-0.27656246223 0.77182758841 0.55447802336 -0.23034347766 0.85946340811 0.44403243714 -0.18995029336 0.91395420511 0.34169609358 
-0.15198452585 0.954634576 0.24273860113 -0.11573895351 0.97732048815 0.15254641869 -0.080239489912 0.99220157482 0.066156057448 
-0.041934499895 0.99549339325 -0.014739254952 -0.0023636016155 0.9935559077 -0.093155094095 0.040583939423 0.98128651652 -0.16858315794 
0.085115584472 0.96417005851 -0.24260954943 0.13203013954 0.93696271725 -0.31234033299 0.18010636325 0.90483607041 -0.37997700768 
0.23214522551 0.86524438258 -0.43682659764 0.28619048705 0.82187292716 -0.48821437254 0.35608547029 0.77427118288 -0.51563947332 
0.43431171751 0.72444582522 -0.53046880949 0.5605654672 0.64951280894 -0.47941957957 0.71301603643 0.56088470614 -0.39243658632 
0.8328144717 0.36330301377 -0.17101233298 0.9341386733 0.10407652729 0.12647737013 0.90722684613 -0.10895167358 0.32807529753 
0.80508321543 -0.29487688022 0.4734167165 0.73290356254 -0.41481729484 0.53174303631 0.67894524751 -0.49463182242 0.53715476879 
0.64248223047 -0.561514911 0.51699716119 0.61704364779 -0.6202494216 0.48072736669 0.589029378 -0.67775494353 0.43319247202 
0.55933375692 -0.73445820899 0.37830397031 0.51732367179 -0.79002471176 0.3157749068 0.4669883152 -0.84482269892 0.24808039307 
0.40162275847 -0.89283757624 0.17173810897 0.32573606163 -0.93610427666 0.089342385615 0.23847980412 -0.96268759281 -0.0044027434517 
0.14298473453 -0.97718150006 -0.10637207956 0.043389875159 -0.9645418 -0.21683682213 -0.059279826543 -0.93155189446 -0.33367311956 
-0.15715396345 -0.86923793447 -0.44439327385 -0.25130616948 -0.78416500682 -0.55036657077 -0.33469910494 -0.68497708722 -0.63330821872 
-0.40945202009 -0.57445440134 -0.6977547546 -0.47899688951 -0.46963337675 -0.73381526331 -0.54421507479 -0.36954911693 -0.74629353407 
-0.62211081276 -0.28018811618 -0.72153225774 -0.71090132257 -0.20004241617 -0.66476824565 -0.81638857662 -0.11189928718 -0.49677392045 