# vtk DataFile Version 5.1
vtk output
ASCII
DATASET POLYDATA
POINTS 240 float
0 0 0 -0.0566916 -0.398972 -0.257537 -0.113383 -0.797944 -0.515074 
-0.2041 -1.16925 -0.664383 -0.295104 -1.54033 -0.812774 -0.413749 -1.88448 -0.874913 
-0.532865 -2.22817 -0.935578 -0.673327 -2.54573 -0.931628 -0.81434 -2.8626 -0.926006 
-0.970463 -3.15428 -0.877047 -1.12711 -3.44508 -0.82658 -1.2927 -3.71194 -0.753529 
-1.45867 -3.97775 -0.679487 -1.62754 -4.22138 -0.602646 -1.79656 -4.46383 -0.525656 
-1.96267 -4.68657 -0.463852 -2.12859 -4.90808 -0.402998 -2.28625 -5.11315 -0.372372 
-2.4433 -5.31704 -0.343926 -2.58743 -5.50854 -0.356585 -2.73049 -5.69903 -0.372608 
-2.85679 -5.8818 -0.435642 -2.98154 -6.06385 -0.502989 -3.08655 -6.24306 -0.618073 
-3.18955 -6.42198 -0.738019 -3.27064 -6.60264 -0.901707 -3.34927 -6.78349 -1.0703 
-3.40447 -6.96974 -1.275 -3.45681 -7.15666 -1.48413 -3.48472 -7.35126 -1.71961 
-3.50938 -7.54689 -1.95861 -3.50895 -7.75086 -2.21373 -3.5049 -7.95604 -2.47117 
-3.47541 -8.1687 -2.73546 -3.44196 -8.38254 -3.00081 -3.38303 -8.60184 -3.26571 
-3.31986 -8.82204 -3.53053 -3.23155 -9.04504 -3.79007 -3.13877 -9.26853 -4.04866 
-3.02168 -9.49209 -4.2997 -2.89998 -9.71567 -4.54929 -2.7553 -9.93713 -4.79116 
-2.60599 -10.1582 -5.03146 -2.4356 -10.3758 -5.26524 -2.2607 -10.5928 -5.49763 
-2.06725 -10.8063 -5.72517 -1.8696 -11.0191 -5.9516 -1.65654 -11.2292 -6.17445 
-1.43979 -11.4388 -6.39643 -1.21136 -11.647 -6.61493 -0.979981 -11.8549 -6.83253 
-0.74114 -12.0627 -7.04505 -0.500314 -12.2705 -7.25622 -0.256635 -12.4786 -7.45879 
-0.012158 -12.6866 -7.65896 0.230333 -12.8941 -7.84521 0.472242 -13.1015 -8.02737 
0.707229 -13.3061 -8.18886 0.940086 -13.5098 -8.34399 1.16116 -13.7078 -8.47102 
1.37843 -13.9038 -8.58899 1.57935 -14.0905 -8.67171 1.77477 -14.2741 -8.74255 
1.94986 -14.4452 -8.7723 2.1178 -14.6118 -8.78759 2.26233 -14.7633 -8.75833 
2.39825 -14.9093 -8.71269 2.50879 -15.0391 -8.62215 2.60958 -15.1626 -8.51438 
2.68417 -15.27 -8.36465 2.74827 -15.371 -8.19814 2.78638 -15.457 -7.99568 
2.81365 -15.5368 -7.77826 2.81581 -15.6036 -7.53317 2.80708 -15.6647 -7.27609 
2.77441 -15.715 -7.00084 2.73093 -15.7603 -6.7174 2.66464 -15.7965 -6.42547 
2.58764 -15.8284 -6.12954 2.48875 -15.8522 -5.83398 2.37918 -15.8721 -5.5386 
2.24851 -15.8843 -5.25088 2.10715 -15.8926 -4.96704 1.9457 -15.8926 -4.69606 
1.77367 -15.8883 -4.43185 1.58309 -15.8741 -4.18343 1.38238 -15.8545 -3.94362 
1.16547 -15.8229 -3.72026 0.939386 -15.7844 -3.5062 0.700288 -15.731 -3.30715 
0.453554 -15.669 -3.11691 0.19769 -15.5895 -2.93854 -0.0637257 -15.4993 -2.7674 
-0.329989 -15.3897 -2.60384 -0.599306 -15.2677 -2.44507 -0.869067 -15.1255 -2.28897 
-1.13912 -14.9701 -2.13462 -1.40531 -14.7951 -1.97804 -1.6689 -14.607 -1.81996 
-1.92448 -14.402 -1.65528 -2.17447 -14.1851 -1.48599 -2.41245 -13.9556 -1.30678 
-2.64173 -13.7169 -1.12038 -2.85506 -13.4713 -0.922119 -3.05643 -13.2204 -0.71497 
-3.23797 -12.9692 -0.495636 -3.40413 -12.7178 -0.266846 -3.54675 -12.4731 -0.0271732 
-3.67048 -12.2339 0.221239 -3.76745 -12.0084 0.477745 -3.8422 -11.7945 0.740974 
-3.88792 -11.6007 1.00835 -3.90869 -11.4243 1.27928 -3.89954 -11.2734 1.54971 
-3.8638 -11.1452 1.81968 -3.79906 -11.0463 2.0843 -3.70767 -10.9744 2.34401 
-3.59024 -10.9339 2.5939 -3.44806 -10.9234 2.83444 -3.28469 -10.9446 3.06152 
-3.10051 -10.997 3.27537 -2.90164 -11.0798 3.47337 -2.68782 -11.1936 3.65526 
-2.4668 -11.335 3.82041 -2.23823 -11.5055 3.96797 -2.01026 -11.7 4.09948 
-1.78296 -11.9205 4.21355 -1.56353 -12.1609 4.31368 -1.35297 -12.4237 4.39814 
-1.15624 -12.7021 4.47191 -0.975588 -12.9987 4.53324 -0.812758 -13.3069 4.58784 
-0.671377 -13.629 4.63435 -0.549474 -13.9589 4.67832 -0.451828 -14.2987 4.71912 
-0.372865 -14.6429 4.76128 -0.317973 -14.993 4.80521 -0.278761 -15.3447 4.85369 
-0.260454 -15.6985 4.90826 -0.253082 -16.0516 4.96958 -0.260802 -16.4034 5.0402 
-0.273631 -16.7523 5.11864 -0.293758 -17.0969 5.20825 -0.312818 -17.4367 5.30571 
-0.330296 -17.7694 5.41478 -0.340879 -18.0957 5.53094 -0.340896 -18.4123 5.65797 
-0.329161 -18.7212 5.79086 -0.298776 -19.018 5.93305 -0.253228 -19.306 6.07976 
-0.182744 -19.5798 6.2339 -0.0953657 -19.844 6.39137 0.0208098 -20.0921 6.55451 
0.153944 -20.3301 6.72009 0.317051 -20.5505 6.89 0.49574 -20.7607 7.06182 
0.702995 -20.9522 7.23714 0.923396 -21.1336 7.41411 1.16881 -21.2957 7.59421 
1.42434 -21.4479 7.77583 1.69985 -21.5805 7.96047 1.98231 -21.7036 8.14653 
2.27905 -21.8073 8.33549 2.57981 -21.9019 8.52566 2.88914 -21.9772 8.71841 
3.20004 -22.0438 8.91202 3.51443 -22.0912 9.10755 3.82857 -22.1303 9.3035 
4.1421 -22.1501 9.50041 4.45414 -22.1618 9.69727 4.76263 -22.154 9.89398 
5.06899 -22.1384 10.0902 5.37001 -22.1032 10.2852 5.66871 -22.0607 10.4793 
5.96135 -21.9989 10.6714 6.25185 -21.9305 10.8625 6.53648 -21.844 11.0509 
6.81938 -21.7521 11.2385 7.0974 -21.6446 11.4233 7.3743 -21.5332 11.6073 
7.64788 -21.4102 11.7888 7.92104 -21.2851 11.9695 8.1929 -21.1538 12.148 
8.46506 -21.0224 12.3258 8.73818 -20.8911 12.5016 9.01225 -20.7619 12.6769 
9.28955 -20.6395 12.8501 9.56831 -20.521 13.0226 9.85231 -20.4161 13.1928 
10.1381 -20.3164 13.3623 10.4307 -20.2364 13.5289 10.7253 -20.1625 13.6946 
11.0275 -20.1127 13.8569 11.3314 -20.0696 14.0183 11.6431 -20.0537 14.1757 
11.9562 -20.0444 14.3321 12.2762 -20.0637 14.4846 12.5971 -20.0892 14.6362 
12.9229 -20.1433 14.7844 13.2491 -20.2028 14.9322 13.5772 -20.2897 15.0777 
13.9049 -20.3812 15.2233 14.2306 -20.4977 15.3686 14.555 -20.6181 15.5144 
14.8724 -20.7605 15.6625 15.1877 -20.9061 15.8115 15.49 -21.0707 15.9657 
15.7893 -21.2378 16.1211 16.0693 -21.4211 16.2844 16.3454 -21.6063 16.4491 
16.5952 -21.8052 16.6238 16.8406 -22.0058 16.8 17.053 -22.2181 16.987 
17.2605 -22.4318 17.1754 17.4289 -22.6559 17.3743 17.5924 -22.8812 17.5742 
17.7122 -23.116 17.7828 17.8272 -23.3517 17.9919 17.8956 -23.5963 18.2063 
17.9597 -23.8417 18.4207 17.9765 -24.0953 18.6361 17.9895 -24.3494 18.8511 
17.9566 -24.6107 19.0621 17.9206 -24.8724 19.2725 17.842 -25.1404 19.474 
17.761 -25.4086 19.6746 17.6422 -25.6815 19.862 17.5217 -25.9546 20.0486 
17.369 -26.231 20.2192 17.2151 -26.5075 20.3889 17.0349 -26.7859 20.5411 
16.8541 -27.0642 20.6927 16.6529 -27.343 20.827 16.4512 -27.6218 20.9609 
16.2346 -27.9 21.0792 16.0177 -28.1782 21.1973 15.7905 -28.4552 21.3028 
15.5632 -28.7321 21.4082 15.3296 -29.0074 21.5048 15.096 -29.2827 21.6014 

LINES 2 240
OFFSETS vtktypeint64
0 240 
CONNECTIVITY vtktypeint64
0 1 2 3 4 5 6 7 8 
9 10 11 12 13 14 15 16 17 
18 19 20 21 22 23 24 25 26 
27 28 29 30 31 32 33 34 35 
36 37 38 39 40 41 42 43 44 
45 46 47 48 49 50 51 52 53 
54 55 56 57 58 59 60 61 62 
63 64 65 66 67 68 69 70 71 
72 73 74 75 76 77 78 79 80 
81 82 83 84 85 86 87 88 89 
90 91 92 93 94 95 96 97 98 
99 100 101 102 103 104 105 106 107 
108 109 110 111 112 113 114 115 116 
117 118 119 120 121 122 123 124 125 
126 127 128 129 130 131 132 133 134 
135 136 137 138 139 140 141 142 143 
144 145 146 147 148 149 150 151 152 
153 154 155 156 157 158 159 160 161 
162 163 164 165 166 167 168 169 170 
171 172 173 174 175 176 177 178 179 
180 181 182 183 184 185 186 187 188 
189 190 191 192 193 194 195 196 197 
198 199 200 201 202 203 204 205 206 
207 208 209 210 211 212 213 214 215 
216 217 218 219 220 221 222 223 224 
225 226 227 228 229 230 231 232 233 
234 235 236 237 238 239 
CELL_DATA 1
FIELD FieldData 3
Length 1 1 double
80.315221999 
Tortuosity 1 1 double
1.0387047827 
ClusterLabel 1 1 int
1 
POINT_DATA 240
FIELD FieldData 6
Curvature 1 240 double
0 0.122331433 0.244662866 0.2672509447 0.28899374073 0.28526708586 0.28110505577 0.25505121761 0.228431212 
0.19275652968 0.15676690208 0.12222843956 0.087753624638 0.085933286716 0.085846814829 0.13806549863 0.19355325466 0.2718339017 
0.35175727961 0.42310780756 0.4937569205 0.50780480384 0.51665991382 0.46829614708 0.41410453179 0.35046611031 0.28576823394 
0.23939831141 0.19527615681 0.17026318611 0.14779810659 0.13726882445 0.12846105155 0.12515297552 0.12269922132 0.12191028006 
0.12139880763 0.12047740729 0.11948295049 0.11689446306 0.11400310981 0.10901392147 0.10360092807 0.09615402855 0.088271292006 
0.079297844938 0.070077020225 0.061176976807 0.052353787241 0.04580427546 0.039829166488 0.03839948649 0.038178697176 0.043191122519 
0.049666597121 0.061254127382 0.074341934848 0.095394274285 0.11889723894 0.15789946829 0.20189590515 0.27579801239 0.35978068269 
0.48794904684 0.63168282588 0.77811920381 0.9255496411 0.95538164823 0.94008867636 0.82892794261 0.67942010412 0.54750560667 
0.42292166798 0.33846400925 0.27141052013 0.23017294005 0.20058400185 0.18515052311 0.1763578772 0.17503116221 0.17734408854 
0.18286240393 0.19000370113 0.19663697407 0.20300320862 0.20601631098 0.20720043214 0.20401356896 0.19835364884 0.18968995003 
0.1792640344 0.16839050827 0.15724478658 0.14740914535 0.13839903427 0.1314466993 0.12583763484 0.12198154115 0.11931055445 
0.11839499253 0.11870822795 0.12096139954 0.12462032196 0.13063775025 0.13842405794 0.14937391998 0.16277907794 0.18057344378 
0.20189247654 0.22915558792 0.26135685694 0.300029917 0.34426467249 0.39067372745 0.43901549304 0.47785506924 0.50795876164 
0.51833975762 0.50996802585 0.48621967332 0.44735097703 0.40577183554 0.36143630908 0.32207082141 0.28793244351 0.26007545939 
0.23905086852 0.22283351185 0.21202429367 0.2038945762 0.19888282317 0.19433356494 0.1903410134 0.18486138189 0.17752991495 
0.16814882153 0.15612686322 0.14275364723 0.12757875434 0.11323261407 0.10003015243 0.091453348481 0.089484626955 0.094236299461 
0.10892855481 0.12763429854 0.15248836491 0.17799007348 0.20451956206 0.22823477968 0.24732208507 0.26078243181 0.26465137177 
0.2629159652 0.25127520198 0.23678019924 0.21705242406 0.19728787402 0.17745336207 0.15902546551 0.14337563436 0.12955736729 
0.11949615474 0.11095294443 0.10564547576 0.10156840691 0.10021817007 0.099631789434 0.10080652169 0.10217715287 0.10401794146 
0.10565442681 0.10678015403 0.10701563945 0.10493110079 0.10160177079 0.094888164323 0.08694404813 0.07550687206 0.063140160646 
0.048015827716 0.033569881968 0.021229275754 0.015244368547 0.029915483113 0.045359453786 0.063436860084 0.081081961182 0.097180739832 
0.11237220856 0.12415219196 0.13477356015 0.14080874311 0.14564811891 0.14549629963 0.1444236147 0.13929074934 0.13372514094 
0.12614006493 0.11857776552 0.11112821025 0.10414670438 0.099628616356 0.095804942369 0.095877702688 0.096733670861 0.10228888616 
0.10851934731 0.11909670362 0.13012257971 0.14425819298 0.158601326 0.17450085718 0.19022816545 0.20455119469 0.21831634059 
0.22710702672 0.23518158882 0.23622511513 0.23663563034 0.23014632455 0.22326743676 0.21162699127 0.19987669946 0.18660228986 
0.17334346321 0.1603339639 0.14737162916 0.1352975603 0.12326102571 0.11208027254 0.10091921214 0.090324318833 0.079739082331 
0.069527242449 0.059319827472 0.049371269432 0.039341014341 0.01967050717 6.9388939039e-18 
Torsion 1 240 double
0 0 0 0.019664255315 0.039495156862 0.053535539972 0.067476939861 0.10080286507 0.13463011421 
0.23880818548 0.34543324188 0.84760298998 1.3671211895 1.6226489229 1.8641594635 1.2496205282 0.58157850066 0.40868136419 
0.27147034598 0.230251809 0.1968872023 0.19679790814 0.19976139494 0.22576327246 0.25411165273 0.29784667699 0.34330730619 
0.37987368085 0.41534925071 0.40514935979 0.38885940743 0.32866144092 0.26213058775 0.19212193837 0.1215730488 0.067762410617 
0.016741480993 -0.017103842534 -0.047888166954 -0.064848136086 -0.079181477714 -0.08022493806 -0.078583573905 -0.063752432426 -0.046094910091 
-0.01013046887 0.029986057048 0.10775360441 0.19454170899 0.31662074994 0.44761539585 0.48211622946 0.49095381512 0.38884327477 
0.25571497877 0.1588307236 0.072583306512 0.029143657349 -0.0011243709115 -0.012207620364 -0.017109107756 -0.013629061109 -0.0073237782694 
0.0021320127975 0.01269764199 0.022303610421 0.031556600181 0.043249115291 0.055877727338 0.076552712364 0.10044624658 0.13033419566 
0.16271981759 0.18943026625 0.21367919397 0.21787636404 0.2130257898 0.18782244315 0.15307088229 0.1095982217 0.061874025006 
0.016160086368 -0.028536000088 -0.069710854347 -0.1090348045 -0.14940909606 -0.19035630111 -0.23378183428 -0.27860957942 -0.32430843254 
-0.37051833568 -0.41091869583 -0.44778622579 -0.47147220184 -0.48685199325 -0.48679288314 -0.47665560121 -0.45773254553 -0.43286981181 
-0.40304201758 -0.36973868101 -0.33417491387 -0.29697315357 -0.25998028429 -0.22314408327 -0.18920830017 -0.15752358771 -0.1304348343 
-0.10703677526 -0.088503978147 -0.074013090945 -0.063859341641 -0.057432820219 -0.054433409709 -0.054480320011 -0.057510291848 -0.063282755741 
-0.07238623013 -0.084656894827 -0.10090030748 -0.12105025561 -0.14519374407 -0.17339845997 -0.20326921463 -0.23489218247 -0.26268860542 
-0.28632282164 -0.30247644672 -0.31021440677 -0.31181669915 -0.30627930552 -0.29949208044 -0.29120042862 -0.28742609986 -0.28927711678 
-0.30118140237 -0.32603893798 -0.37219186913 -0.44673866099 -0.55551497187 -0.71152801899 -0.83105518817 -0.89845967458 -0.86735347068 
-0.69053353738 -0.52832408172 -0.38849663436 -0.27449683357 -0.20148438495 -0.14058185048 -0.099593397061 -0.063526276494 -0.035847791474 
-0.0096053114164 0.01409911336 0.037569905835 0.060612372424 0.082949894418 0.1039463023 0.12294020974 0.1379791788 0.14857055627 
0.15003866895 0.14621120486 0.13109580082 0.11291288106 0.087931683195 0.063241013079 0.039220170823 0.01743295919 0.0010064610518 
-0.012906245491 -0.020534473045 -0.027093664415 -0.030866882701 -0.035789199173 -0.04383562634 -0.056934068566 -0.084373714832 -0.14387934242 
-0.29851404795 -0.90024139752 -2.8894976424 -3.9351746693 -1.9142192375 -0.32122612815 -0.1864750064 -0.075632519216 -0.050309378748 
-0.029120811793 -0.02347824124 -0.019398194857 -0.021503139976 -0.025220279849 -0.035666580432 -0.047825691992 -0.06753674286 -0.08870343248 
-0.11666310294 -0.14625046754 -0.18389491806 -0.22102696653 -0.25546216208 -0.28506090348 -0.28752176322 -0.28456468946 -0.24910001458 
-0.21205277925 -0.16481781101 -0.11879042376 -0.081135598028 -0.044646174795 -0.016897270287 0.0099844241767 0.029795021351 0.048926144589 
0.061998625223 0.074750907415 0.084359423076 0.093860551581 0.10219116009 0.11030168798 0.1157223417 0.12077629564 0.12074229008 
0.12050126763 0.11694797488 0.1132352647 0.10652019304 0.09963138345 0.088781349326 0.077869486109 0.065180036454 0.052474858152 
0.039161505525 0.025853731772 0.012872322148 0 0 0 
FrenetTangent 3 240 double
-0.16727973842 -0.87215019645 -0.4597515894 -0.16727973842 -0.87215019645 -0.4597515894 -0.16727973842 -0.87215019645 -0.4597515894 
-0.21875997785 -0.89761391001 -0.36615192084 -0.27067649049 -0.92329341775 -0.27175903475 -0.31745048545 -0.92565599112 -0.17575391039 
-0.36413657412 -0.92761998442 -0.079721226404 -0.4007820965 -0.9118035688 0.00031114142856 -0.43716794906 -0.89552731502 0.079929707981 
-0.46434982741 -0.87305355873 0.13428374291 -0.49121156753 -0.85036423715 0.18775901152 -0.51227338127 -0.83079376873 0.21423843422 
-0.53308081228 -0.81136009212 0.23953382859 -0.55064236799 -0.7999150432 0.23768012037 -0.56803157635 -0.7888941692 0.23438486689 
-0.58188113462 -0.78698074682 0.20172224573 -0.59550946476 -0.78563654017 0.16722416408 -0.60059433283 -0.79018098575 0.099956397796 
-0.60506345588 -0.79514983869 0.030326852436 -0.5910912559 -0.79706915572 -0.06875515249 -0.5756102204 -0.79873896527 -0.17024690411 
-0.5352350929 -0.78773849138 -0.28050095516 -0.49257610374 -0.77557560618 -0.39155888688 -0.43341405704 -0.75248499393 -0.48330347725 
-0.37257114337 -0.72828137245 -0.57308096804 -0.31031916892 -0.70398642434 -0.63282046359 -0.24790916897 -0.67968123398 -0.68919121202 
-0.19162913209 -0.66228503444 -0.72142986088 -0.13610088314 -0.64573616396 -0.75070891263 -0.086828790152 -0.63678616868 -0.76448297865 
-0.038390851287 -0.62884935677 -0.77618971325 0.0060758564986 -0.62635637998 -0.77828475813 0.049969790571 -0.62464857171 -0.77899350162 
0.091971900243 -0.62564399326 -0.77352904639 0.13368013428 -0.62705933401 -0.76710564768 0.17463219408 -0.62866379497 -0.75664772873 
0.21545822484 -0.63029977597 -0.74551738974 0.25563130023 -0.63016805917 -0.73196231159 0.29568800733 -0.62972130713 -0.71797510171 
0.3343019963 -0.62640374492 -0.70297690609 0.37264186884 -0.62254072879 -0.68778662318 0.40822822199 -0.61578789505 -0.67281741449 
0.44325830861 -0.60845125977 -0.65789286726 0.47420725561 -0.59932251666 -0.64404041207 0.50428167269 -0.58980975044 -0.63041769089 
0.52947040332 -0.58024601526 -0.61821116354 0.55355104012 -0.57067072012 -0.6063258348 0.57275780728 -0.56276235895 -0.59562719953 
0.59079687651 -0.55525336738 -0.58521287624 0.60468680399 -0.55067396613 -0.57518984712 0.61752852724 -0.54683467192 -0.56526567126 
0.62742291538 -0.54647397453 -0.55453695276 0.63653343779 -0.54703843586 -0.54359426016 0.64404047892 -0.5511639247 -0.53025375721 
0.65109923497 -0.55628496961 -0.51624289867 0.65781964384 -0.56485575801 -0.49769921353 0.66444075518 -0.57443897113 -0.47782524233 
0.67166436444 -0.58738399036 -0.45028762944 0.67907335767 -0.60136341147 -0.42039197296 0.68712870707 -0.6186534978 -0.37770861029 
0.69539232679 -0.63701035402 -0.33090476451 0.70204732866 -0.65743958897 -0.26291792316 0.70816009979 -0.67856737853 -0.18779074623 
0.70443275079 -0.69558847336 -0.080706182779 0.69723899584 -0.71116289163 0.037636096382 0.66305687035 -0.70643658008 0.18730582462 
0.61894798789 -0.69424333343 0.34849829276 0.54019016421 -0.6488896266 0.5041935801 0.44813681658 -0.59081155714 0.65777948412 
0.34667713849 -0.51808240596 0.76668263186 0.24145492822 -0.43949282208 0.8577126771 0.14967594917 -0.37005052177 0.91029765112 
0.063498316473 -0.30441958962 0.94686384546 -0.0083325527033 -0.25256042941 0.96447002184 -0.073940729267 -0.20667456787 0.97385257597 
-0.1312324968 -0.17077388065 0.9747329659 -0.1847717383 -0.1393786989 0.97177701344 -0.23507604078 -0.11371887473 0.96389076534 
-0.28386271754 -0.090749712126 0.95369153902 -0.33240908792 -0.070321804891 0.93907887018 -0.38083830893 -0.051132759648 0.92231464811 
-0.42992597258 -0.031983625368 0.90061726542 -0.47934702491 -0.012854699169 0.87642207988 -0.52828624625 0.0082296602848 0.84698977791 
-0.57697219747 0.03034187568 0.8148046327 -0.62248540808 0.055748741709 0.77828787268 -0.6662680329 0.082952689901 0.73940841366 
-0.70377751001 0.11400545499 0.69871484801 -0.73773770617 0.14723584016 0.65699487992 -0.76328460407 0.18386806607 0.61692468996 
-0.78389570031 0.22249603853 0.57782236983 -0.79557018267 0.26320322903 0.54349644056 -0.80181023767 0.30517480889 0.51207507329 
-0.7999380679 0.34735702877 0.48734822812 -0.79295408526 0.38967198072 0.46683984895 -0.77940120712 0.43026750231 0.45359563019 
-0.76156029999 0.46974061798 0.44509329392 -0.73886092491 0.50587842692 0.44342807941 -0.71287695179 0.5397613806 0.4463851444 
-0.68347464054 0.56924104515 0.4552570225 -0.6516794926 0.5956384073 0.46826926979 -0.61728725139 0.61714774935 0.48615609248 
-0.58101305853 0.63511504784 0.5075752162 -0.54218898215 0.64800000799 0.53295139522 -0.50145249312 0.65707321437 0.56129536571 
-0.45739402603 0.66077799531 0.59283331315 -0.41075730731 0.66031623709 0.62685016808 -0.35930128418 0.65365831901 0.66323056729 
-0.30397521357 0.64202469678 0.70150896417 -0.24188953287 0.62239732177 0.7406925575 -0.1741881761 0.59612898291 0.78062816017 
-0.098173417862 0.55897598165 0.81835933302 -0.015014330245 0.51246897364 0.85419607398 0.075508841127 0.45216859505 0.88204568485 
0.17257786473 0.37960744261 0.90279562453 0.27078912653 0.29371622432 0.90843326712 0.37005051055 0.19556994548 0.90017734626 
0.46011340458 0.090984273276 0.87414927611 0.54143019337 -0.019724100821 0.8312230968 0.60639776647 -0.12715735915 0.77633355272 
0.65528861081 -0.23137008696 0.70968003329 0.6880860729 -0.32691251473 0.64023824725 0.70451738355 -0.41363768822 0.56796093585 
0.70879631113 -0.49178079067 0.4989818504 0.70029428409 -0.56089792185 0.43347158879 0.68308874917 -0.62363677922 0.37355228205 
0.65641624078 -0.67943786508 0.31971436482 0.62312374708 -0.73063474238 0.27191854147 0.58238376993 -0.77665188506 0.23092007375 
0.53649471243 -0.81871108494 0.19596535592 0.4846139978 -0.85616467866 0.16804336525 0.42934962973 -0.88944672187 0.1460898964 
0.37001234547 -0.91770745426 0.13132075937 0.3098891657 -0.94138292796 0.12223086891 0.2487873236 -0.95934845687 0.12021324777 
0.19002907253 -0.97287491397 0.1231593356 0.13429044835 -0.98068179778 0.13250097153 0.083731990546 -0.98501001515 0.14569354764 
0.040080421245 -0.98470001062 0.16402071064 0.0035340960679 -0.9822778545 0.18498080337 -0.023206992219 -0.97694092921 0.20957433911 
-0.041862110325 -0.97060452375 0.23573567702 -0.048965842461 -0.96284028946 0.26413673231 -0.047603331762 -0.95444876542 0.2932436991 
-0.033717836869 -0.94512937529 0.32339482666 -0.011431462987 -0.93462197145 0.35341233936 0.023724342539 -0.9222946317 0.38322516546 
0.066406751421 -0.90741390239 0.41187846781 0.12103355259 -0.88848105485 0.4386916564 0.1808550255 -0.86548914451 0.46317722494 
0.2492188475 -0.8358223309 0.4838351516 0.31895268769 -0.80164472338 0.50133520958 0.39102178615 -0.75977826261 0.51345253686 
0.4605067761 -0.71469546244 0.52258299639 0.52542450448 -0.66392796938 0.52643434084 0.58548102672 -0.61217111611 0.52844327126 
0.63662533769 -0.55860043578 0.52707444263 0.68268514181 -0.50581614896 0.52518501571 0.71907198168 -0.45452792788 0.52230518227 
0.75128540789 -0.40480000858 0.51976838906 0.77525634212 -0.35815368531 0.51790910032 0.79619448891 -0.31302201291 0.51671991123 
0.81091153329 -0.27099731666 0.51690528549 0.82353909878 -0.23004517371 0.51770431413 0.83171277509 -0.19137926278 0.51981139552 
0.83845686073 -0.15323430422 0.52227846914 0.84203266437 -0.11624388877 0.52554336341 0.84458375632 -0.079277450093 0.52885181717 
0.84477231857 -0.04236629118 0.53226069979 0.84415703137 -0.0052530463416 0.53539907502 0.8416125055 0.03234520472 0.53788823251 
0.8383984387 0.070063302904 0.5398664605 0.83351051961 0.10808101889 0.54056736473 0.82809852415 0.14578688339 0.54066860564 
0.8213207539 0.18268004399 0.5392070876 0.81429261318 0.21853997368 0.53723719313 0.80658377771 0.25159080683 0.53388515022 
0.79904977017 0.28286957469 0.53024422567 0.79201204835 0.30911796367 0.52578325005 0.78562505225 0.33301932586 0.52129291172 
0.78116854243 0.34995784188 0.51671546398 0.77774193482 0.3642108452 0.51229503463 0.7775115754 0.37012949878 0.5083619037 
0.77847114541 0.37325287077 0.50461500795 0.78329798602 0.36729157762 0.50147337655 0.78920573334 0.35858466435 0.49839642577 
0.79879657012 0.34052230471 0.49553986822 0.80910515883 0.31993004933 0.49252425288 0.82198109093 0.29028855155 0.48893970007 
0.83502239614 0.25857375842 0.48498043794 0.84868550424 0.21906337484 0.47961226879 0.86193946905 0.17816320187 0.47377503782 
0.87357390831 0.13176177918 0.46608110384 0.88438545027 0.084775411755 0.45800263902 0.89176229047 0.035347535886 0.44831917589 
0.89814582082 -0.013926947063 0.43852826544 0.90014975778 -0.062525106685 0.42826361 0.90120712821 -0.11048398571 0.4182538277 
0.89784718814 -0.15545955532 0.40943345338 0.89369652165 -0.19960391899 0.40117296302 0.88563175934 -0.23963381331 0.39568389822 
0.87689943782 -0.27888803273 0.39097226838 0.86465364678 -0.31405975266 0.39035240143 0.85175961738 -0.34864556551 0.39063018853 
0.83522825052 -0.37994378866 0.39594481222 0.81796168729 -0.41087467536 0.40216810303 0.79628394576 -0.43960154343 0.41384339659 
0.77368727271 -0.46815925664 0.4263340065 0.74517497805 -0.49562803547 0.44407321535 0.71552344432 -0.52304166098 0.4624127533 
0.6779731864 -0.55007289013 0.484914573 0.63911041397 -0.57704020438 0.50768319869 0.59040378274 -0.60352815684 0.53245286937 
0.54038180762 -0.62983044022 0.55704313256 0.47963472073 -0.65461880647 0.58017053468 0.41785062916 -0.67904163577 0.60265468624 
0.34681991249 -0.7002050939 0.61940318713 0.27527232533 -0.72086158408 0.63521079552 0.1986500097 -0.73654057082 0.64178055024 
0.12208138759 -0.75169879116 0.64737373975 0.046098024665 -0.76118065788 0.64232236834 -0.029404412876 -0.77025165526 0.63647572752 
-0.099028873518 -0.77430091643 0.62090912727 -0.16799419658 -0.77809030732 0.60482725668 -0.22781398567 -0.77827399808 0.58159601032 
-0.28700015953 -0.7783185377 0.5581108235 -0.33604848965 -0.776136659 0.53056258926 -0.38457745508 -0.7738943387 0.50294737975 
-0.42332505224 -0.77051370144 0.4740708026 -0.46169037579 -0.76711492833 0.44524051147 -0.49133986114 -0.76330265792 0.41746554149 
-0.52073173879 -0.75949069678 0.38979317682 -0.54271739479 -0.75568762752 0.3650707146 -0.56454444809 -0.75189252267 0.34046113847 
-0.58023886374 -0.74840537547 0.32021649146 -0.59584652176 -0.74492824368 0.30006241771 -0.60637885878 -0.74203701384 0.28520688009 
-0.61682268877 -0.73917008005 0.27047617893 -0.61682268877 -0.73917008005 0.27047617893 -0.61682268877 -0.73917008005 0.27047617893 

FrenetNormal 3 240 double
-0.47926235658 -0.33558352421 0.81098168404 -0.47926235658 -0.33558352421 0.81098168404 -0.47926235658 -0.33558352421 0.81098168404 
-0.4665647671 -0.23150136802 0.84627042866 -0.45375957092 -0.12653715965 0.88185823045 -0.43653970748 -0.01981544552 0.89282691404 
-0.41924437965 0.086936311446 0.90337475802 -0.41130141548 0.18107228262 0.88818016956 -0.40360032278 0.27488198348 0.87231982854 
-0.42948669459 0.3551606472 0.82452578993 -0.45654132603 0.43496866614 0.77562101401 -0.573903812 0.50771468705 0.59967791556 
-0.69522716879 0.58015097121 0.41816296085 -0.66934418173 0.42070483851 -0.13226724445 -0.63564492864 0.2489463651 -0.70228587013 
-0.42938842073 0.10099990171 -0.84963159841 -0.2123470844 -0.045458311049 -0.9705602706 -0.087598314598 -0.058146932654 -0.98734821635 
0.0304987387 -0.061194502644 -0.99663052416 0.13663089733 -0.016438190825 -0.98355785094 0.24178411003 0.032229347687 -0.96865613382 
0.34404398026 0.095642904325 -0.92506279994 0.44603840621 0.16040930666 -0.87883720764 0.53691289015 0.20939429178 -0.80755376982 
0.62665478739 0.25677191032 -0.73371814403 0.70481261874 0.26944344969 -0.64545594065 0.7816713025 0.2782227185 -0.55557580334 
0.84651275083 0.24890492506 -0.45346023099 0.90988038727 0.2149148504 -0.3498440864 0.94908317131 0.15737541389 -0.23894619943 
0.98506397502 0.096696062482 -0.12707741347 0.99258734346 0.044143294615 -0.027785874626 0.99600627412 -0.0072373698552 0.069691638197 
0.98685115265 -0.030335947009 0.1418739763 0.97574278037 -0.049041190211 0.21012696688 0.96471317646 -0.040367826409 0.25619310064 
0.95369670061 -0.02713136144 0.29856142494 0.94450486296 0.0049948424327 0.32555968516 0.93563820835 0.040487534426 0.34981872604 
0.92614236026 0.085801958715 0.36397215077 0.9165269654 0.13298251214 0.37620550842 0.90449929103 0.18157314202 0.38261480991 
0.89198428745 0.23044863582 0.3878475344 0.8773488529 0.27091934342 0.39388171701 0.86225904028 0.30958902539 0.40008764064 
0.84715380159 0.3323699121 0.41359089812 0.83204506422 0.35154715451 0.42874922101 0.81643709561 0.33836694069 0.46538326327 
0.80070951952 0.31743441964 0.50716252995 0.76743006284 0.23488234117 0.58185177149 0.72971644685 0.13676321662 0.66485511193 
0.64662004865 -0.0067358626374 0.73823970317 0.55145376156 -0.16230407878 0.80906611641 0.45580513873 -0.27225580641 0.83667899638 
0.36002166934 -0.36945453726 0.8522106735 0.30270012353 -0.40600566375 0.86088905459 0.25666631615 -0.42475803678 0.86755614229 
0.22576075706 -0.4164807806 0.88003688526 0.19951004359 -0.39988671542 0.89430644525 0.16924250793 -0.36912467596 0.91248079308 
0.1376806629 -0.33379740035 0.93191335032 0.090746816157 -0.28364591554 0.9515852819 0.038631395801 -0.22849750628 0.97133790146 
-0.037391951341 -0.1516778281 0.9809066898 -0.12183740906 -0.067223952903 0.98688799213 -0.2280374217 0.040299256589 0.95923534438 
-0.34223910972 0.15630773847 0.91921158855 -0.45045621651 0.27078159764 0.83110867746 -0.55637691422 0.38466658997 0.72455678818 
-0.6324171784 0.46480681814 0.60006259303 -0.69650526917 0.53144914064 0.46839147553 -0.74032181864 0.56231130901 0.35033078347 
-0.77569189258 0.57826507982 0.23794110199 -0.8050119506 0.56881004449 0.14201622078 -0.83170790534 0.54833432218 0.053232698722 
-0.85380838123 0.51337037434 -0.024996419863 -0.8738352874 0.47186905644 -0.09846318566 -0.88450007502 0.43042117159 -0.1649324727 
-0.89077275764 0.38899835409 -0.22811899193 -0.88623237814 0.35892214065 -0.28682672846 -0.87642063086 0.33437739668 -0.34335105843 
-0.85578153296 0.32722696396 -0.39690201048 -0.82966023222 0.32888377744 -0.44894745472 -0.79313469541 0.34472720417 -0.49804627573 
-0.75114026528 0.36802769684 -0.54559623067 -0.69733165839 0.40426117585 -0.58669336946 -0.63707895511 0.44754901105 -0.62427079035 
-0.56323613333 0.5019705218 -0.64920973258 -0.48170416558 0.56269134897 -0.66699795664 -0.38528100889 0.62947199159 -0.66425245364 
-0.28012168802 0.69980772595 -0.64946049743 -0.161721914 0.76495319223 -0.60710746556 -0.035270513076 0.82694241442 -0.54799432011 
0.095412873187 0.86759757567 -0.46170070948 0.22876298993 0.89480935606 -0.35827968245 0.35195936167 0.89026614044 -0.23969882839 
0.46852759429 0.86499396909 -0.11122197613 0.56449479025 0.81095971705 0.015392365405 0.6465345248 0.73748067807 0.14074754477 
0.7065154498 0.64708055377 0.25154711766 0.75105520811 0.54483566975 0.35215776602 0.77915557525 0.43879642206 0.43224050633 
0.79534334009 0.3300076355 0.49744795096 0.8034779492 0.22605844633 0.54250959175 0.80557269151 0.12573895523 0.57246187966 
0.80649195515 0.033264462093 0.58514177532 0.80649890698 -0.053121375893 0.58441623222 0.80794386684 -0.13360485941 0.56936508116 
0.81054359072 -0.20934857343 0.5428100328 0.81339350605 -0.28214560548 0.50271145738 0.81645127274 -0.35249462483 0.45136133639 
0.81536394447 -0.42169911727 0.3858511542 0.8107144252 -0.4899200319 0.3081721694 0.7954945397 -0.55522289352 0.21652649618 