# vtk DataFile Version 5.1
vtk output
ASCII
DATASET POLYDATA
POINTS 240 float
0 0 0 -0.29109 -0.408146 -0.0607164 -0.58218 -0.816291 -0.121433 
-0.835696 -1.18863 -0.0823587 -1.08889 -1.56067 -0.042439 -1.30869 -1.90009 0.0715854 
-1.52791 -2.23896 0.186877 -1.71785 -2.54845 0.350929 -1.90704 -2.85718 0.516242 
-2.07107 -3.13995 0.705309 -2.23422 -3.42183 0.895202 -2.37635 -3.68153 1.08448 
-2.51756 -3.94026 1.27373 -2.64175 -4.18111 1.43957 -2.76504 -4.42102 1.60418 
-2.87494 -4.64781 1.72582 -2.98401 -4.87378 1.84478 -3.08258 -5.09181 1.90643 
-3.18039 -5.30926 1.96395 -3.26945 -5.52421 1.95676 -3.35779 -5.73895 1.94427 
-3.43769 -5.95667 1.86738 -3.51681 -6.17467 1.78458 -3.58633 -6.40085 1.64452 
-3.65487 -6.62786 1.49863 -3.71125 -6.86738 1.30755 -3.76626 -7.1083 1.1114 
-3.80546 -7.36447 0.884459 -3.84272 -7.62252 0.653745 -3.86014 -7.89653 0.40624 
-3.87492 -8.17267 0.156497 -3.86632 -8.46341 -0.0985835 -3.85434 -8.75626 -0.354433 
-3.81666 -9.06051 -0.607841 -3.775 -9.36654 -0.86087 -3.707 -9.67954 -1.10759 
-3.63461 -9.99369 -1.35326 -3.53681 -10.3098 -1.59224 -3.43449 -10.6262 -1.83003 
-3.3088 -10.9397 -2.06341 -3.17868 -11.2526 -2.29596 -3.0277 -11.5584 -2.52786 
-2.87251 -11.8628 -2.75963 -2.69878 -12.1573 -2.99477 -2.52108 -12.4497 -3.23062 
-2.32664 -12.7311 -3.47293 -2.1284 -13.0099 -3.71671 -1.91457 -13.2785 -3.96811 
-1.69701 -13.5445 -4.22134 -1.46461 -13.8026 -4.48085 -1.22847 -14.0587 -4.74195 
-0.978427 -14.3103 -5.00521 -0.724693 -14.5607 -5.26904 -0.45892 -14.8107 -5.52833 
-0.189782 -15.0605 -5.78634 0.0878748 -15.3139 -6.03107 0.368031 -15.5683 -6.2719 
0.651035 -15.8289 -6.48951 0.934915 -16.0914 -6.69996 1.21379 -16.3611 -6.87706 
1.49105 -16.6333 -7.04342 1.75376 -16.9114 -7.16725 2.01157 -17.1915 -7.27675 
2.24452 -17.474 -7.33664 2.4687 -17.7574 -7.37905 2.65817 -18.0372 -7.36795 
2.83488 -18.3159 -7.33716 2.96864 -18.5836 -7.25283 3.08593 -18.8471 -7.14796 
3.15463 -19.0917 -6.99373 3.20391 -19.3286 -6.81976 3.20215 -19.539 -6.60452 
3.17912 -19.7382 -6.37208 3.10604 -19.9043 -6.10939 3.01123 -20.0561 -5.83358 
2.87075 -20.1699 -5.53996 2.70965 -20.2668 -5.23831 2.51047 -20.3229 -4.93109 
2.29343 -20.3599 -4.62127 2.04859 -20.3549 -4.31644 1.79019 -20.3295 -4.01405 
1.5161 -20.2622 -3.72454 1.23408 -20.1737 -3.44154 0.949211 -20.0443 -3.1762 
0.662845 -19.8932 -2.92013 0.385884 -19.7028 -2.68357 0.114055 -19.491 -2.45764 
-0.137942 -19.2422 -2.25065 -0.378718 -18.9725 -2.05438 -0.592014 -18.6695 -1.87468 
-0.789188 -18.3469 -1.70469 -0.954545 -17.9962 -1.54755 -1.10055 -17.6286 -1.39821 
-1.21375 -17.2402 -1.25705 -1.30626 -16.8388 -1.12103 -1.36793 -16.4263 -0.987947 
-1.40947 -16.0065 -0.85677 -1.42448 -15.5873 -0.723125 -1.42156 -15.1685 -0.587812 
-1.39797 -14.7635 -0.445052 -1.35989 -14.3681 -0.297077 -1.30758 -14.0001 -0.137744 
-1.24495 -13.652 0.0298203 -1.17417 -13.344 0.210927 -1.09729 -13.0662 0.402191 
-1.01718 -12.8389 0.606949 -0.934572 -12.6508 0.82218 -0.851947 -12.5199 1.04849 
-0.769307 -12.4348 1.28371 -0.687985 -12.4089 1.52552 -0.607757 -12.4322 1.77282 
-0.528547 -12.512 2.02082 -0.450212 -12.6402 2.26942 -0.371534 -12.8178 2.51222 
-0.292551 -13.0391 2.74986 -0.211584 -13.2996 2.97534 -0.128791 -13.596 3.18964 
-0.0428605 -13.9197 3.38608 0.0460529 -14.2695 3.56553 0.138181 -14.635 3.72239 
0.233469 -15.016 3.85704 0.330696 -15.4029 3.96558 0.429893 -15.7957 4.04757 
0.528492 -16.1871 4.10146 0.626465 -16.5769 4.1258 0.720448 -16.9612 4.12202 
0.810093 -17.3393 4.08764 0.892076 -17.7105 4.02748 0.965441 -18.0739 3.9383 
1.02781 -18.4316 3.82814 1.07739 -18.7826 3.69357 1.11354 -19.1303 3.54497 
1.13351 -19.4741 3.37948 1.1389 -19.8178 3.20835 1.12613 -20.1612 3.03021 
1.09915 -20.5072 2.85526 1.05386 -20.8565 2.68441 0.996278 -21.21 2.5249 
0.92231 -21.5691 2.38052 0.839412 -21.9328 2.25407 0.74419 -22.3027 2.15235 
0.644557 -22.676 2.07298 0.538624 -23.0542 2.02552 0.433536 -23.4335 2.00248 
0.329698 -23.8143 2.01554 0.232143 -24.193 2.05292 0.144213 -24.5685 2.12757 
0.0675787 -24.9383 2.22474 0.00886968 -25.2992 2.35767 -0.0345298 -25.6512 2.51015 
-0.0527535 -25.9886 2.69478 -0.0530826 -26.3144 2.89532 -0.0229095 -26.6207 3.12297 
0.0261251 -26.914 3.36268 0.108496 -27.1841 3.62369 0.209148 -27.4407 3.89304 
0.343314 -27.6724 4.17767 0.493905 -27.8911 4.46736 0.675743 -28.085 4.76667 
0.871289 -28.267 5.06841 1.09391 -28.4256 5.37496 1.32712 -28.5739 5.68205 
1.58208 -28.7013 5.99026 1.84458 -28.8201 6.29783 2.12312 -28.9205 6.60405 
2.4065 -29.0139 6.909 2.70059 -29.0917 7.21117 2.99738 -29.1636 7.51182 
3.30038 -29.2222 7.80897 3.60455 -29.2759 8.10451 3.91156 -29.3179 8.39617 
4.21884 -29.3557 8.68612 4.52684 -29.3828 8.97177 4.83477 -29.4057 9.25548 
5.14257 -29.4182 9.53411 5.45043 -29.4265 9.81042 5.75847 -29.4239 10.0804 
6.06702 -29.4172 10.3476 6.37699 -29.399 10.607 6.68806 -29.3766 10.8632 
7.00237 -29.3424 11.11 7.31835 -29.3044 11.3535 7.63951 -29.2549 11.5866 
7.96275 -29.2026 11.8166 8.29276 -29.141 12.0363 8.62499 -29.0777 12.2534 
8.9648 -29.0088 12.4618 9.30665 -28.9398 12.6684 9.6558 -28.8705 12.869 
10.0065 -28.8027 13.0689 10.363 -28.7409 13.2666 10.7203 -28.6823 13.4647 
11.0807 -28.6362 13.6648 11.4409 -28.5944 13.8663 11.8004 -28.5712 14.0737 
12.1587 -28.5534 14.2832 12.5115 -28.5591 14.5022 12.862 -28.5708 14.7236 
13.202 -28.6098 14.9567 13.5387 -28.6548 15.1923 13.8593 -28.7296 15.4406 
14.176 -28.8103 15.6912 14.4714 -28.9219 15.9542 14.7622 -29.039 16.2192 
15.0272 -29.1866 16.4953 15.2872 -29.3392 16.7727 15.5177 -29.5211 17.0588 
15.7432 -29.7072 17.3458 15.9365 -29.9205 17.6382 16.125 -30.1374 17.931 
16.2799 -30.3788 18.2255 16.4304 -30.6231 18.5198 16.547 -30.8889 18.8118 
16.6596 -31.157 19.1031 16.7388 -31.4437 19.3882 16.8143 -31.732 19.6722 
16.8575 -32.0359 19.9464 16.8975 -32.341 20.2192 16.9062 -32.6589 20.4794 
16.9123 -32.9777 20.7382 16.8885 -33.3069 20.982 16.8625 -33.6368 21.2246 
16.8088 -33.9749 21.4511 16.7534 -34.3135 21.6763 16.6734 -34.6589 21.8852 
16.5921 -35.0047 22.093 16.4904 -35.3562 22.2847 16.3878 -35.7079 22.4755 
16.2696 -36.0647 22.6506 16.1509 -36.4216 22.8251 16.0217 -36.7829 22.9842 
15.8923 -37.1444 23.1427 15.7571 -37.5096 23.2854 15.6219 -37.8749 23.4278 
15.4846 -38.2432 23.5531 15.3473 -38.6115 23.6781 15.2105 -38.9818 23.7836 
15.0736 -39.3522 23.8888 14.9387 -39.7235 23.9708 14.8038 -40.0949 24.0528 

LINES 2 240
OFFSETS vtktypeint64
0 240 
CONNECTIVITY vtktypeint64
0 1 2 3 4 5 6 7 8 
9 10 11 12 13 14 15 16 17 
18 19 20 21 22 23 24 25 26 
27 28 29 30 31 32 33 34 35 
36 37 38 39 40 41 42 43 44 
45 46 47 48 49 50 51 52 53 
54 55 56 57 58 59 60 61 62 
63 64 65 66 67 68 69 70 71 
72 73 74 75 76 77 78 79 80 
81 82 83 84 85 86 87 88 89 
90 91 92 93 94 95 96 97 98 
99 100 101 102 103 104 105 106 107 
108 109 110 111 112 113 114 115 116 
117 118 119 120 121 122 123 124 125 
126 127 128 129 130 131 132 133 134 
135 136 137 138 139 140 141 142 143 
144 145 146 147 148 149 150 151 152 
153 154 155 156 157 158 159 160 161 
162 163 164 165 166 167 168 169 170 
171 172 173 174 175 176 177 178 179 
180 181 182 183 184 185 186 187 188 
189 190 191 192 193 194 195 196 197 
198 199 200 201 202 203 204 205 206 
207 208 209 210 211 212 213 214 215 
216 217 218 219 220 221 222 223 224 
225 226 227 228 229 230 231 232 233 
234 235 236 237 238 239 
CELL_DATA 1
FIELD FieldData 3
Length 1 1 double
93.317768229 
Tortuosity 1 1 double
0.90274524238 
ClusterLabel 1 1 int
1 
POINT_DATA 240
FIELD FieldData 6
Curvature 1 240 double
0 0.10990788759 0.21981577517 0.2204153251 0.22008853318 0.20326071762 0.18615083327 0.15934023941 0.13227876513 
0.09976474179 0.067061064566 0.05652180331 0.046954665561 0.10994975066 0.17679769715 0.28290184361 0.39145950257 0.50151862016 
0.61168595098 0.61928789826 0.61849813233 0.52372436408 0.42032821029 0.32548543814 0.23151384375 0.17778221569 0.12856348105 
0.11013393034 0.095480411619 0.094271710561 0.094855651857 0.09686830635 0.099087025247 0.099128905818 0.098832636747 0.09622727194 
0.093237057843 0.08920845018 0.084994782278 0.08152368799 0.078193682689 0.076379421203 0.074871370589 0.073783253697 0.072785122603 
0.070316042118 0.067513344245 0.062550104432 0.057069234779 0.050950196507 0.044669936689 0.04163547761 0.039464263408 0.043942601363 
0.0502799539 0.061492116393 0.074134929634 0.090740121141 0.10856450596 0.13170612726 0.1565610803 0.19002346795 0.22638723804 
0.27398900909 0.32554962137 0.38506572744 0.44750799214 0.49917004908 0.54669551466 0.55982837596 0.55920419554 0.5288644549 
0.48614323083 0.43783950809 0.38711446064 0.34433546468 0.3051418822 0.27537535485 0.25003139658 0.23212410565 0.21784219003 
0.20948307259 0.20412284029 0.20303929685 0.20420375654 0.20738751261 0.21167270307 0.21406355202 0.21538260247 0.21165205996 
0.20495908958 0.19358017333 0.17935169542 0.16362093918 0.14694354182 0.13259032716 0.11975428732 0.11310515313 0.11063871572 
0.11852775399 0.13366562524 0.16396437952 0.20524928091 0.27026204033 0.35307069327 0.4622198768 0.59181245721 0.69809718251 
0.78566499386 0.78675048507 0.71598912569 0.61596245859 0.49078591766 0.38901178493 0.30803979283 0.24883344397 0.20963744456 
0.18280686545 0.16773357121 0.15958733656 0.15825271052 0.16077957879 0.16723339044 0.17487980601 0.18378051191 0.1903287044 
0.19431802265 0.19314245985 0.18615640587 0.17477810509 0.1582888262 0.14202913714 0.12604580622 0.11569230917 0.11234954866 
0.11471119961 0.12442276534 0.13569356283 0.149043336 0.16141918259 0.17245101048 0.18208135011 0.18970956367 0.1966433684 
0.20255002673 0.20863799094 0.21500370033 0.22169667494 0.22890900523 0.2355112837 0.24111036584 0.24463727287 0.24463206326 
0.24171045864 0.23363429541 0.22310218196 0.20806749311 0.19205907726 0.17419820516 0.15653660866 0.1392685815 0.12288827302 
0.10832892595 0.094781198799 0.083389819398 0.072972814917 0.064715235931 0.057334818992 0.051976747881 0.047451803436 0.044926362991 
0.043163656634 0.043307785499 0.044032980322 0.04627246825 0.048880962482 0.052492692604 0.056171074983 0.060038663768 0.063421146862 
0.065364483075 0.066299550887 0.064105509873 0.061003099057 0.054948486385 0.048488695577 0.040648297785 0.034076348727 0.032041543212 
0.032151276021 0.040324472929 0.049143268347 0.060517557866 0.071843558053 0.082968002769 0.093805052203 0.10337494972 0.11263486423 
0.12044819138 0.12790875204 0.13362311856 0.13894803785 0.14222323491 0.14519737312 0.14648223664 0.14745621083 0.146564849 
0.14545932483 0.14297513064 0.14039818271 0.13717814216 0.13394494447 0.13061306828 0.12733197073 0.12446491436 0.12165549871 
0.11936004616 0.11706259811 0.11474555788 0.11233850308 0.10895028936 0.10545086225 0.10059216029 0.095624204323 0.089140348903 
0.082637318232 0.075827483564 0.0690735538 0.063372499734 0.057773954934 0.05451262141 0.051362130623 0.05139836855 0.051517099786 
0.054825572292 0.058172468361 0.063767142922 0.069024783313 0.034512391656 0 
Torsion 1 240 double
0 0 0 -0.0098428862465 -0.019769186783 -0.031212607811 -0.042681962522 -0.083328755711 -0.12473013783 
-0.43493349526 -0.75448648663 -1.5689185258 -2.4050557863 -1.404379612 -0.30617352089 -0.14739433048 -0.047329321364 -0.0099102883995 
0.022993719257 0.05168461813 0.080030808103 0.13438830554 0.19113216146 0.30578489372 0.42633575229 0.585904697 0.74984950185 
0.7202296202 0.66687067323 0.49419787292 0.30561655883 0.18580917869 0.07592111596 0.0073230603939 -0.054861013476 -0.10615866017 
-0.15564190233 -0.20166862315 -0.24707933027 -0.27371543096 -0.29678435642 -0.28258862131 -0.26086467195 -0.2112407884 -0.15563834752 
-0.088399074318 -0.018520519563 0.070916701869 0.16503985386 0.31108327408 0.47024339363 0.601829717 0.72608258392 0.64747552095 
0.5121549292 0.39496025645 0.28308514689 0.21768737144 0.16659031419 0.13589419298 0.11177170673 0.094934303881 0.080552547117 
0.069641681673 0.059953516581 0.053143665845 0.047392505448 0.043824482317 0.041094174651 0.039549018823 0.038477923732 0.036336181964 
0.033748337414 0.026601883634 0.017478201754 0.0017707022161 -0.016907544315 -0.041118307109 -0.067924571361 -0.096892183169 -0.12691345191 
-0.15208843008 -0.17480959023 -0.18699951414 -0.19365378823 -0.19126513239 -0.18394396931 -0.17509758834 -0.16538825515 -0.16061111482 
-0.15872752762 -0.16631995632 -0.17967482711 -0.20877604663 -0.24779962288 -0.30670032865 -0.37857638287 -0.44115851358 -0.49745742841 
-0.49265355398 -0.44507772706 -0.3725696737 -0.28199478958 -0.20322245264 -0.13330202609 -0.07861812793 -0.035759595099 -0.0033975325651 
0.020535546246 0.043890458499 0.066765047765 0.092701450139 0.12126909815 0.14506301049 0.16461360224 0.17150383982 0.16675471954 
0.14802016347 0.11598797995 0.077602891581 0.032970780107 -0.0091250881753 -0.048641726093 -0.083792548941 -0.1143517387 -0.14442879021 
-0.17398141066 -0.21088383378 -0.25605478492 -0.32047545316 -0.40729579223 -0.51456725562 -0.64645581309 -0.72578304918 -0.7396565643 
-0.69296216051 -0.56822832275 -0.46053053199 -0.37554747057 -0.31104407793 -0.27480262822 -0.24813958735 -0.2351599877 -0.22480890163 
-0.21834582525 -0.21065989057 -0.20110064102 -0.18949308072 -0.17463494031 -0.15909400984 -0.14243026903 -0.1265390145 -0.11196449793 
-0.098614262189 -0.087427871644 -0.076847727114 -0.067379033613 -0.057740278007 -0.047777989616 -0.037208543516 -0.025439960939 -0.012486630126 
0.0028969534761 0.01897106365 0.036517085727 0.0533972901 0.068801898479 0.080268369575 0.082655246378 0.077066251556 0.052335164834 
0.021893273938 -0.022825627394 -0.064767623537 -0.09947283646 -0.12757046842 -0.13770373963 -0.14483951699 -0.14346627955 -0.14365107149 
-0.14845801728 -0.15772985735 -0.18085826589 -0.21561266632 -0.28815154033 -0.39707397838 -0.62997004202 -0.84392284471 -0.99011706017 
-1.0403556303 -0.72980097371 -0.45597252634 -0.32751865691 -0.21435729035 -0.16502550099 -0.12060194005 -0.097819204474 -0.076967980574 
-0.065130477841 -0.053805104082 -0.045014768739 -0.036496014934 -0.029406637644 -0.022379820836 -0.015704037846 -0.0089562836806 -0.0017767024592 
0.0054597338948 0.013062175164 0.020549783454 0.027241216415 0.033418345821 0.035738198556 0.03778950286 0.037651104568 0.037340673593 
0.035496284537 0.033614532339 0.031365942015 0.029584507254 0.032895068131 0.036720482215 0.0468385466 0.057526109987 0.076115472033 
0.095388761677 0.12560489288 0.15613761154 0.19263272715 0.22815689059 0.24154334457 0.25334776489 0.21966871731 0.18556736745 
0.13513699643 0.084838259991 0.042240146325 0 0 0 
FrenetTangent 3 240 double
-0.57202689145 -0.81994361235 -0.0218565329 -0.57202689145 -0.81994361235 -0.0218565329 -0.57202689145 -0.81994361235 -0.0218565329 
-0.55845725181 -0.81969018712 0.077264619968 -0.54477261522 -0.81943461423 0.17722578261 -0.52315405725 -0.80707141386 0.25978505062 
-0.50139987669 -0.79450124549 0.34204685035 -0.47869345787 -0.77905931005 0.39983125193 -0.4559624122 -0.76354310477 0.45698261735 
-0.43759449824 -0.75364362332 0.48900545687 -0.41937834538 -0.74393950617 0.52015426072 -0.40831681345 -0.74589686096 0.52608879213 
-0.39756908069 -0.74836568381 0.5309174344 -0.39462780794 -0.76615875906 0.50618115586 -0.39210103749 -0.78476551142 0.47987505852 
-0.39465641698 -0.81707520547 0.41316658282 -0.39752943084 -0.85024133337 0.34393295848 -0.39589068792 -0.88116624744 0.22594703308 
-0.39392677335 -0.91192963259 0.10444742832 -0.37525217449 -0.91392558271 -0.041171528025 -0.35521033783 -0.91356783359 -0.18876388587 
-0.32139184005 -0.8859522602 -0.30935097179 -0.2863094284 -0.85583596899 -0.42746050984 -0.24936286728 -0.82437038833 -0.50108519122 
-0.21222643907 -0.79276738004 -0.57017900756 -0.17744301429 -0.77297020666 -0.60696405559 -0.14292347775 -0.75449705216 -0.64012569035 
-0.10947617605 -0.74763801506 -0.65405254839 -0.076160374862 -0.74220335085 -0.66562042438 -0.042119155663 -0.74417961287 -0.66577336765 
-0.0079812140625 -0.74714399839 -0.6644043199 0.027555510106 -0.75306883374 -0.65630800621 0.063293981761 -0.75942065705 -0.64724141377 
0.09989099802 -0.76507840023 -0.63494068033 0.13662138043 -0.77062832513 -0.62213755606 0.17297384175 -0.77298473937 -0.60918438477 
0.20926331621 -0.77480890183 -0.59620620564 0.24388776328 -0.7721373208 -0.58570592249 0.27821547279 -0.76866451817 -0.57564724457 
0.30997102484 -0.76039061275 -0.56978635355 0.34123786697 -0.75120449781 -0.56472304204 0.36949782223 -0.73767288425 -0.56423245547 
0.39715032559 -0.72326339217 -0.56466565172 0.42172652485 -0.70562495027 -0.56862330548 0.44564351609 -0.68729459054 -0.57333620012 
0.46672078526 -0.66755045919 -0.57940559083 0.48715399375 -0.64748567862 -0.58578264044 0.50526502984 -0.62839334119 -0.59090018762 
0.52281971213 -0.60953398492 -0.59571597901 0.53875067981 -0.59407501981 -0.59697890887 0.55427144589 -0.57947510089 -0.59734427371 
0.56875074043 -0.57024296384 -0.59249930181 0.58295304785 -0.56243842836 -0.58626860205 0.59625866617 -0.56125666822 -0.57367647573 
0.60931359722 -0.56192643668 -0.55930588606 0.62102817729 -0.56971211766 -0.53757953316 0.63234939348 -0.57958616427 -0.51369442367 
0.64115060187 -0.59655035795 -0.48110354878 0.64917642324 -0.61569613534 -0.44583397686 0.65257916624 -0.64131682716 -0.39974395714 
0.65449225066 -0.6690238803 -0.35016734867 0.64820840367 -0.70149321937 -0.28666540167 0.63916154609 -0.73556782335 -0.21846952034 
0.6161347673 -0.77004272695 -0.1330043663 0.58818324354 -0.80465864519 -0.041455718468 0.53876920267 -0.83019280051 0.067494172625 
0.48146090262 -0.85238653727 0.18284452101 0.39849104443 -0.85145530872 0.30569201759 0.30567430928 -0.84165054696 0.43141632686 
0.19551754059 -0.80047617576 0.54332930007 0.078424758471 -0.74675396077 0.64971773888 -0.037333262583 -0.67022644056 0.7257431648 
-0.15253513319 -0.58419670983 0.78911733536 -0.25323636491 -0.49150120559 0.82303404897 -0.34764816289 -0.39591452247 0.84417403427 
-0.42506115851 -0.30333308784 0.84574010128 -0.49480396282 -0.21210767996 0.83847403444 -0.54968309883 -0.12602974548 0.82041571835 
-0.59758915589 -0.042366675071 0.79729437175 -0.63277456286 0.037421278592 0.7688465266 -0.66175865292 0.11532011284 0.73780201341 
-0.67889469841 0.19137892861 0.70446067218 -0.69003173398 0.26650608947 0.66995638006 -0.68905527263 0.3410522957 0.63468234718 
-0.68171146032 0.41529312835 0.59900370699 -0.6616504652 0.48838332369 0.56330234292 -0.63465282489 0.56084589868 0.52758858401 
-0.59547316415 0.62930683506 0.49259285788 -0.54940104447 0.69550368645 0.45800338715 -0.49437383667 0.75364772284 0.42559757428 
-0.43409297718 0.80706744112 0.39447284068 -0.37039957168 0.8498690265 0.36762982156 -0.30463096929 0.88621363917 0.34339054773 
-0.24077772541 0.91230241592 0.32538078803 -0.17813141976 0.93192861113 0.31129647559 -0.1203889239 0.94342702007 0.30478098052 
-0.065847526086 0.94961979073 0.30320624122 -0.016711463 0.94952693115 0.31019892789 0.028770289286 0.94518463141 0.32298367718 
0.069823354191 0.9346282864 0.34565087825 0.10777633793 0.9197221097 0.37523579557 0.14281514216 0.89565055748 0.41671921402 
0.1757422221 0.86493742879 0.46682473475 0.20690211217 0.81702461801 0.530488912 0.23673660983 0.75621204568 0.60432208164 
0.26365804661 0.66379556928 0.6868417989 0.28831860032 0.54685068973 0.77610331431 0.30432349798 0.39138436027 0.85030269708 
0.31337764154 0.20498413924 0.9124067309 0.31066918669 0.011640950717 0.93350241014 0.29818872699 -0.18747024156 0.92052961019 
0.2821500012 -0.35584690211 0.8799205599 0.26305339048 -0.49781107447 0.81556160697 0.24749274129 -0.60909111771 0.74700583566 
0.23507516901 -0.69309637952 0.67471955912 0.2270951618 -0.7591296579 0.60568888313 0.22319485151 -0.80864030636 0.53965125927 
0.22239635936 -0.84866368751 0.47613567241 0.22454713692 -0.87966638826 0.41501808795 0.22802899309 -0.90530876952 0.35391600365 
0.23281974323 -0.92568016994 0.29282916119 0.23695117037 -0.94223347427 0.22958574143 0.24041209955 -0.954903969 0.16414919223 
0.24100246863 -0.96381417743 0.095830485805 0.23857380037 -0.96876960198 0.024480545066 0.23125060804 -0.9695985017 -0.047970994333 
0.21860354742 -0.96593890074 -0.12162076385 0.20022639274 -0.95877099583 -0.19208258104 0.17540288224 -0.94765624899 -0.25895795186 
0.14582089842 -0.93535172727 -0.31791483569 0.11070178202 -0.92166274022 -0.36765748014 0.072960001162 -0.90971335565 -0.40665767369 
0.032061309386 -0.89985793704 -0.4327271393 -0.0092543093251 -0.8935460815 -0.44751371416 -0.05108912007 -0.89164696489 -0.44824989676 
-0.091479612501 -0.89328152674 -0.43847528243 -0.13000915634 -0.89946909737 -0.41515791052 -0.16541056308 -0.9077774092 -0.38274218974 
-0.19664112036 -0.91891337595 -0.33819533714 -0.22316347618 -0.93016394396 -0.28657266366 -0.24318851401 -0.94157266171 -0.22518535734 
-0.25725560473 -0.95129059952 -0.15925680063 -0.26281134243 -0.95859313742 -0.086840743341 -0.26173239215 -0.96301170404 -0.012435941191 
-0.25083963253 -0.96316439648 0.064910546067 -0.23323542786 -0.95972216871 0.1421420911 -0.20534986055 -0.95077282914 0.21919755443 
-0.17121971283 -0.93767209407 0.29446170351 -0.12717968752 -0.91798327488 0.36688311478 -0.078060800222 -0.89373100108 0.43590490952 
-0.020590006538 -0.86197437969 0.49933622376 0.039871694497 -0.8258536548 0.55777408065 0.10543153306 -0.78229411713 0.6077003625 
0.17124339513 -0.73564388251 0.65162425844 0.23750069408 -0.68353102073 0.68493928625 0.30151742457 -0.63044745366 0.71246098712 
0.36142644621 -0.57558426024 0.72936158861 0.41769477881 -0.52176938524 0.74185108536 0.4670369225 -0.46994887209 0.74594872434 
0.51252456089 -0.42036180899 0.74743117532 0.55039955132 -0.37518580977 0.74374862998 0.58491753207 -0.33254334806 0.73896289572 
0.61254933912 -0.29509788639 0.73191420984 0.6375511612 -0.25991255203 0.72473700296 0.65694696267 -0.22954485748 0.71728584343 
0.67441254529 -0.20095025599 0.7101778436 0.68760034561 -0.17628521211 0.70383035988 0.69946174024 -0.15286888687 0.69793594108 
0.7082650329 -0.13233155183 0.69308608865 0.71626254531 -0.11253304992 0.6885599701 0.72232618515 -0.094507747511 0.68481081288 
0.7280496945 -0.076735285496 0.681096595 0.73292287758 -0.059594924473 0.67746972547 0.7378497123 -0.042331158824 0.67350864112 
0.74291636641 -0.02474579324 0.66867657267 0.74830865702 -0.0068603320149 0.66315878119 0.75458627189 0.011841014235 0.6557766802 
0.76128637185 0.030806561855 0.64748336885 0.7691857843 0.050522100459 0.63660339579 0.77741862971 0.070198512569 0.62481393242 
0.78664065958 0.089758849413 0.61032631446 0.79597528454 0.10869111821 0.59524980486 0.80565934258 0.1256742103 0.57834570051 
0.81522324438 0.14140074729 0.56143157449 0.82439663838 0.15304348022 0.54448487801 0.83328866663 0.16295028716 0.52817069914 
0.84122196715 0.16694208705 0.51401176541 0.84875842825 0.16894000309 0.50101177976 0.85487542528 0.16380594993 0.49215726217 
0.86046724623 0.15669399695 0.48472316085 0.86408440512 0.14214514066 0.48262982464 0.86699760853 0.12581287229 0.48195232114 
0.86712432149 0.10242126443 0.48687915544 0.86632382445 0.077532861342 0.49303084884 0.86165323343 0.046396965169 0.5042949976 
0.85585959816 0.014110367191 0.51643897732 0.84511435868 -0.023249779655 0.53246221169 0.83312229873 -0.061392299129 0.5489606107 
0.8153117432 -0.10318589087 0.56767644474 0.79622268347 -0.14539053049 0.58649013712 0.7708050279 -0.18962985711 0.60578822829 
0.74421786336 -0.23391969659 0.62484062963 0.71147538841 -0.27847539321 0.64259992666 0.67778016233 -0.32279122003 0.65985933145 
0.6387389438 -0.3657611108 0.67431378534 0.59903354684 -0.4082873172 0.68811482866 0.55534307935 -0.44815141742 0.69799540853 
0.5113091001 -0.48746092434 0.70716257148 0.46506376384 -0.52320023692 0.71173711311 0.41874070876 -0.55838100844 0.71562073869 
0.37187880318 -0.58968922864 0.71471401309 0.32511431815 -0.62049612961 0.71319194481 0.27908048724 -0.64754313631 0.70705480643 
0.23321914413 -0.67415456458 0.70041428005 0.18876423993 -0.69721435332 0.68966920537 0.14449482664 -0.7199037572 0.67852532906 
0.10187937386 -0.73929056277 0.66382547158 0.059453091302 -0.75835380083 0.64882312774 0.018884116365 -0.77424019424 0.63085091783 
-0.021460129813 -0.78983449708 0.61268012151 -0.059354832528 -0.80224501258 0.59234473341 -0.096957906306 -0.81441411277 0.57190761624 
-0.13099662642 -0.82363258133 0.55022714377 -0.16468254565 -0.83268134719 0.52853072093 -0.19347335276 -0.83937548812 0.50661298674 
-0.22189697551 -0.84597858045 0.48473597048 -0.24444564851 -0.85112489516 0.46351044121 -0.26666867279 -0.85624672777 0.44233623519 
-0.28275864628 -0.86090748109 0.42212861694 -0.29859867935 -0.86558181633 0.40195154407 -0.30874007104 -0.87056581932 0.38247090561 
-0.31872239211 -0.87557341057 0.36298414189 -0.32413143268 -0.88125916428 0.34332127703 -0.32946084652 -0.88696357953 0.32361377147 
-0.33171135984 -0.89338957437 0.30218015888 -0.33393116968 -0.89982359926 0.28068654482 -0.33435482571 -0.90672738245 0.25568284471 
-0.3347749216 -0.91357315066 0.23088925973 -0.3347749216 -0.91357315066 0.23088925973 -0.3347749216 -0.91357315066 0.23088925973 

FrenetNormal 3 240 double
0.072963963855 -0.077407603185 0.9943260647 0.072963963855 -0.077407603185 0.9943260647 0.072963963855 -0.077407603185 0.9943260647 
0.13467073929 0.0011582031337 0.98567318411 0.1969004535 0.08038982137 0.97694697401 0.25227051208 0.14323371349 0.95301149467 
0.3075233116 0.20579747354 0.92881602783 0.36103581827 0.23932856927 0.89860032489 0.41450331736 0.27210882023 0.86822892619 
0.51331615087 0.23201407079 0.81732119274 0.6137062134 0.18938453873 0.765699152 0.5218933785 -0.21795871274 0.10247038323 
0.42165059196 -0.64129817997 -0.58758324203 0.20747782734 -0.5906498202 -0.73452126484 -0.012744316647 -0.51483396519 -0.85262129105 
-0.028412841058 -0.43844513864 -0.89426956756 -0.031296764246 -0.36202050136 -0.93113960971 0.012528000924 -0.251673587 -0.95954656706 
0.059719158048 -0.13888182384 -0.98734357235 0.12747623648 -0.008173271641 -0.98043364768 0.1969159812 0.12400119966 -0.9706840651 
0.27128087428 0.22504912432 -0.92642315788 0.34609761584 0.3232414025 -0.87899607408 0.44004328704 0.36103083275 -0.81317466492 
0.53593727514 0.39266812108 -0.74547975966 0.66928089741 0.34170784526 -0.63135560409 0.80682447864 0.28148429122 -0.5120244298 
0.89814853249 0.15408884968 -0.32665489372 0.98380415374 0.018455346476 -0.13318631327 0.98409182998 -0.068819593068 0.014749371464 
0.97299711355 -0.14964672412 0.15661400344 0.95626076636 -0.16635573185 0.23104138211 0.93871072242 -0.17381693332 0.29574223386 
0.93435711516 -0.14583871079 0.32272610389 0.93205343981 -0.11235533501 0.34385102529 0.93791578488 -0.055515005655 0.33675414687 
0.94513913336 0.005218149296 0.32495363515 0.95048971806 0.085449010239 0.2831162464 0.95550654289 0.16915470987 0.23592575086 
0.9429293804 0.26317424437 0.16172395688 0.92700936033 0.35915340749 0.082390016202 0.88681532042 0.44479043406 -0.00078016126594 
0.84171743812 0.52833814011 -0.084725336065 0.7900633327 0.58851863979 -0.14435555836 0.73700432233 0.64369188096 -0.19877543368 
0.70128866911 0.67791496645 -0.21614788747 0.66950656081 0.70738647023 -0.22511783328 0.66909266241 0.71695975228 -0.19033035434 
0.6761940643 0.72176575203 -0.14505932572 0.71663320054 0.68109025473 -0.031125984323 0.76549450126 0.62892469502 0.10015362557 
0.78043901693 0.46337113495 0.30309456267 0.78636311105 0.2676611918 0.52509436339 0.68955511167 0.050791825761 0.66739977749 
0.56402631195 -0.17199307786 0.78742504049 0.44311968524 -0.30038269221 0.83047242707 0.32356956583 -0.40106934123 0.85092848035 
0.22681901938 -0.44907812669 0.85921026312 0.13708372615 -0.48087833873 0.8637461165 0.057520638541 -0.48378084928 0.87008755003 
-0.018764738373 -0.47737187823 0.8770107816 -0.09500859185 -0.44924966762 0.88455026843 -0.17123844866 -0.41380838749 0.89229748175 
-0.25030009896 -0.35486720176 0.89507758011 -0.33035931287 -0.2876476402 0.89610789935 -0.411489213 -0.19541108211 0.88105933824 
-0.49301292876 -0.09397287012 0.86009670619 -0.56552424784 0.026233953407 0.8102675467 -0.63457732168 0.15364268601 0.74936169646 
-0.68029222801 0.28031027264 0.65777932856 -0.71667186734 0.40668140087 0.5539263536 -0.72514192041 0.51172839573 0.4352816195 
-0.7219829792 0.60789033501 0.31047365243 -0.6980244192 0.67796981697 0.19009935022 -0.6650443378 0.73673642588 0.07164808338 
-0.61859818473 0.777347486 -0.032098326521 -0.56607587738 0.80976640825 -0.12920961805 -0.50250534241 0.83352505153 -0.20863641045 
-0.43375168832 0.85322084789 -0.27976677116 -0.35305043237 0.86940766416 -0.33287788612 -0.26652472051 0.88388385264 -0.37720461876 
-0.16796859601 0.89330541192 -0.40455079732 -0.063321123347 0.90016766528 -0.42329922697 0.0477645296 0.89537840757 -0.42929000713 
0.16223435423 0.88446463762 -0.42857484333 0.27423162452 0.85747299173 -0.42133507996 0.3848802288 0.82171159534 -0.4105364441 
0.48611296858 0.77103068859 -0.39738963563 0.58201831135 0.71190847993 -0.38291425582 0.66584692587 0.64280811103 -0.36482229002 
0.74259052647 0.56785388811 -0.34460859379 0.80765954512 0.48839367042 -0.31525048413 0.86562915581 0.40619332078 -0.28033158251 
0.91305592545 0.3218500005 -0.22662084661 0.95383926101 0.23615631516 -0.16106868089 0.97734231896 0.14520435981 -0.063124169292 
0.98956519569 0.05081992264 0.055965345864 0.9594947718 -0.049522774963 0.20350629018 0.90083169398 -0.15389359229 0.37028200351 
0.79993232568 -0.24969968644 0.51328520285 0.66946755406 -0.33951047437 0.6396476424 0.54703853641 -0.41912664592 0.71307687501 
0.4304325289 -0.49135541432 0.74814871128 0.33651157882 -0.5680847742 0.74360642275 0.25960442183 -0.6481895777 0.70935354062 
0.19208820874 -0.73470491942 0.63630805756 0.13186048942 -0.82619560424 0.53315488421 0.071892147401 -0.90124210399 0.38910091468 
0.012132093217 -0.96308342481 0.21220236638 -0.039719057762 -0.98265272362 0.025474520764 -0.084999735311 -0.96710372724 -0.16941920263 
-0.11176302802 -0.92362599699 -0.33766855629 -0.12261294312 -0.85614701107 -0.48302040471 -0.11592768599 -0.78367141202 -0.6005472621 