# vtk DataFile Version 5.1
vtk output
ASCII
DATASET POLYDATA
POINTS 240 float
0 0 0 -0.0630893 -0.231902 0.2466 -0.126179 -0.463805 0.4932 
-0.219064 -0.688721 0.707392 -0.312201 -0.913577 0.92131 -0.432848 -1.13202 1.10669 
-0.553965 -1.35036 1.29159 -0.700387 -1.56286 1.45179 -0.847464 -1.7752 1.61135 
-1.01782 -1.98227 1.75005 -1.18898 -2.18916 1.88803 -1.38167 -2.39134 2.00902 
-1.57529 -2.59332 2.12927 -1.78894 -2.79112 2.23654 -2.00365 -2.98871 2.34311 
-2.23689 -3.18261 2.44082 -2.47128 -3.37628 2.53797 -2.72222 -3.56663 2.63037 
-2.97435 -3.75674 2.72242 -3.23996 -3.94361 2.81351 -3.50667 -4.13022 2.90452 
-3.78217 -4.31316 2.99736 -4.05847 -4.49577 3.09037 -4.33702 -4.67351 3.18612 
-4.6158 -4.85076 3.28216 -4.88867 -5.02103 3.37914 -5.16088 -5.19051 3.47624 
-5.41813 -5.34996 3.56933 -5.67355 -5.50818 3.66194 -5.9053 -5.65277 3.74264 
-6.13388 -5.79555 3.82176 -6.33181 -5.92116 3.87904 -6.52531 -6.0443 3.93318 
-6.68431 -6.14761 3.95515 -6.83794 -6.24783 3.97212 -6.95734 -6.32717 3.94799 
-7.07104 -6.40303 3.91701 -7.15504 -6.45895 3.83909 -7.23375 -6.51133 3.75279 
-7.29064 -6.54665 3.61781 -7.34339 -6.57873 3.47357 -7.3836 -6.59801 3.28322 
-7.42129 -6.6147 3.08354 -7.45487 -6.6234 2.84396 -7.48758 -6.63038 2.59583 
-7.52189 -6.63415 2.31649 -7.55655 -6.63719 2.03006 -7.5947 -6.64151 1.72243 
-7.63367 -6.64615 1.40972 -7.67422 -6.65637 1.08598 -7.71518 -6.66799 0.759443 
-7.75293 -6.68932 0.431328 -7.78982 -6.71323 0.102792 -7.81717 -6.75079 -0.219238 
-7.84184 -6.79216 -0.53945 -7.85041 -6.85058 -0.846834 -7.85426 -6.914 -1.15045 
-7.83652 -6.99687 -1.43689 -7.81213 -7.08574 -1.71804 -7.76255 -7.19505 -1.97963 
-7.70486 -7.31095 -2.23492 -7.62067 -7.44668 -2.47006 -7.52755 -7.5891 -2.6984 
-7.40885 -7.74925 -2.90744 -7.28114 -7.91564 -3.10968 -7.13061 -8.0967 -3.29429 
-6.9717 -8.28314 -3.47242 -6.79412 -8.4809 -3.63475 -6.60937 -8.683 -3.79102 
-6.41092 -8.89354 -3.93275 -6.207 -9.10746 -4.06865 -5.99471 -9.32785 -4.19019 
-5.77894 -9.55093 -4.30573 -5.56007 -9.7795 -4.40583 -5.33986 -10.0105 -4.49924 
-5.12145 -10.2465 -4.5751 -4.90384 -10.4849 -4.64304 -4.69231 -10.7281 -4.69082 
-4.48363 -10.9735 -4.72913 -4.28464 -11.2228 -4.74476 -4.09037 -11.474 -4.74933 
-3.90872 -11.727 -4.72934 -3.73346 -11.9809 -4.69692 -3.57314 -12.2339 -4.63907 
-3.42069 -12.4862 -4.56787 -3.28495 -12.7338 -4.47153 -3.15834 -12.9788 -4.36148 
-3.04968 -13.2153 -4.22773 -2.95118 -13.4471 -4.08058 -2.87122 -13.6673 -3.9122 
-2.80213 -13.8808 -3.73138 -2.75141 -14.0813 -3.53264 -2.71187 -14.2738 -3.32299 
-2.68967 -14.4535 -3.09926 -2.6784 -14.6252 -2.86665 -2.68262 -14.786 -2.62394 
-2.69697 -14.9397 -2.37465 -2.72426 -15.0857 -2.11901 -2.76031 -15.2264 -1.85908 
-2.80632 -15.3632 -1.5959 -2.85931 -15.4971 -1.33046 -2.9192 -15.6304 -1.06404 
-2.98408 -15.7634 -0.796903 -3.05303 -15.8984 -0.530166 -3.12502 -16.035 -0.263728 
-3.19884 -16.1755 0.0015968 -3.27405 -16.3191 0.266059 -3.3496 -16.4674 0.529057 
-3.42541 -16.6196 0.790879 -3.50084 -16.7766 1.0509 -3.57596 -16.9377 1.30943 
-3.65049 -17.1037 1.56557 -3.72451 -17.2738 1.81967 -3.79778 -17.4487 2.07043 
-3.87039 -17.6279 2.31822 -3.94169 -17.812 2.56132 -4.01178 -18.0006 2.80012 
-4.07925 -18.1947 3.03268 -4.14424 -18.3942 3.25928 -4.20458 -18.5999 3.47803 
-4.26035 -18.8119 3.68905 -4.30905 -19.031 3.89078 -4.35055 -19.2573 4.08307 
-4.38268 -19.491 4.265 -4.40494 -19.7327 4.43604 -4.41614 -19.9817 4.59611 
-4.41531 -20.2388 4.74424 -4.40269 -20.5026 4.88123 -4.3768 -20.7738 5.00569 
-4.33939 -21.0507 5.11926 -4.28858 -21.334 5.22018 -4.2274 -21.6215 5.31086 
-4.15373 -21.914 5.38923 -4.07148 -22.2093 5.45842 -3.97854 -22.5081 5.51618 
-3.87914 -22.8085 5.56621 -3.77143 -23.1109 5.60629 -3.65947 -23.414 5.64051 
-3.54183 -23.7179 5.66691 -3.42198 -24.0219 5.6897 -3.29909 -24.3258 5.70748 
-3.17572 -24.6293 5.72418 -3.05166 -24.9322 5.73934 -2.92844 -25.2343 5.75611 
-2.80645 -25.5353 5.77526 -2.68612 -25.835 5.79869 -2.56836 -26.1331 5.82867 
-2.45265 -26.4295 5.86532 -2.34017 -26.7232 5.91255 -2.22962 -27.0147 5.96831 
-2.12224 -27.3023 6.03809 -2.01625 -27.5868 6.1175 -1.91262 -27.8659 6.21333 
-1.80943 -28.1409 6.319 -1.70701 -28.4086 6.44206 -1.60377 -28.6712 6.57427 
-1.49903 -28.9244 6.72325 -1.39201 -29.1718 6.87991 -1.28068 -29.4078 7.05116 
-1.1656 -29.6372 7.22808 -1.04311 -29.8537 7.41619 -0.915566 -30.0635 7.6077 
-0.777627 -30.2593 7.80618 -0.633647 -30.4486 8.0058 -0.476792 -30.6242 8.20786 
-0.313399 -30.794 8.40906 -0.135514 -30.9513 8.60837 0.0488879 -31.104 8.80529 
0.248313 -31.2463 8.99672 0.453755 -31.3856 9.18481 0.673635 -31.5173 9.36488 
0.898671 -31.6473 9.54128 1.1366 -31.7727 9.70849 1.37862 -31.8974 9.87222 
1.63134 -32.0202 10.0269 1.88706 -32.1427 10.1787 2.15096 -32.2648 10.3226 
2.41685 -32.3867 10.4645 2.68838 -32.5084 10.6005 2.961 -32.6296 10.7354 
3.23686 -32.7492 10.8669 3.51303 -32.8676 10.9982 3.79013 -32.9821 11.1288 
4.06681 -33.0943 11.2601 4.34214 -33.1995 11.3934 4.61635 -33.3017 11.5281 
4.88678 -33.3935 11.6676 5.15541 -33.4817 11.8092 5.41766 -33.5571 11.9581 
5.67749 -33.6286 12.1097 5.92827 -33.686 12.271 6.17615 -33.74 12.4353 
6.41254 -33.7802 12.6116 6.64577 -33.8176 12.7911 6.86579 -33.8435 12.9842 
7.08269 -33.8675 13.1805 7.2858 -33.8835 13.3913 7.48615 -33.8986 13.6052 
7.6736 -33.9097 13.8334 7.85892 -33.9208 14.0644 8.03372 -33.9318 14.3086 
8.20719 -33.9433 14.5548 8.37369 -33.9575 14.8117 8.53967 -33.9726 15.07 
8.70273 -33.9923 15.3355 8.8659 -34.013 15.6014 9.02977 -34.0397 15.8699 
9.19407 -34.0677 16.1381 9.36118 -34.1034 16.404 9.52864 -34.1407 16.6688 
9.69857 -34.1885 16.9265 9.86839 -34.2383 17.1826 10.0374 -34.3027 17.4276 
10.2057 -34.3694 17.6709 10.3672 -34.4557 17.9005 10.5272 -34.5447 18.1285 
10.6733 -34.6578 18.3423 10.8172 -34.7737 18.5547 10.94 -34.9168 18.7542 
11.0605 -35.0626 18.9528 11.1548 -35.2361 19.1417 11.2469 -35.4117 19.3301 
11.3118 -35.6124 19.5131 11.3749 -35.8145 19.696 11.4138 -36.0361 19.8781 
11.4517 -36.2585 20.0605 11.4732 -36.4923 20.2465 11.4945 -36.7262 20.4329 
11.5111 -36.9625 20.6264 11.5282 -37.1984 20.8202 11.5551 -37.4269 21.0231 
11.5829 -37.6549 21.2265 11.6371 -37.8658 21.44 11.6924 -38.076 21.6537 
11.7917 -38.2598 21.8777 11.8921 -38.443 22.1019 12.0545 -38.5906 22.3362 
12.2176 -38.7377 22.5706 12.4612 -38.8399 22.8148 12.7048 -38.9421 23.0589 

LINES 2 240
OFFSETS vtktypeint64
0 240 
CONNECTIVITY vtktypeint64
0 1 2 3 4 5 6 7 8 
9 10 11 12 13 14 15 16 17 
18 19 20 21 22 23 24 25 26 
27 28 29 30 31 32 33 34 35 
36 37 38 39 40 41 42 43 44 
45 46 47 48 49 50 51 52 53 
54 55 56 57 58 59 60 61 62 
63 64 65 66 67 68 69 70 71 
72 73 74 75 76 77 78 79 80 
81 82 83 84 85 86 87 88 89 
90 91 92 93 94 95 96 97 98 
99 100 101 102 103 104 105 106 107 
108 109 110 111 112 113 114 115 116 
117 118 119 120 121 122 123 124 125 
126 127 128 129 130 131 132 133 134 
135 136 137 138 139 140 141 142 143 
144 145 146 147 148 149 150 151 152 
153 154 155 156 157 158 159 160 161 
162 163 164 165 166 167 168 169 170 
171 172 173 174 175 176 177 178 179 
180 181 182 183 184 185 186 187 188 
189 190 191 192 193 194 195 196 197 
198 199 200 201 202 203 204 205 206 
207 208 209 210 211 212 213 214 215 
216 217 218 219 220 221 222 223 224 
225 226 227 228 229 230 231 232 233 
234 235 236 237 238 239 
CELL_DATA 1
FIELD FieldData 3
Length 1 1 double
72.45990097 
Tortuosity 1 1 double
0.54148648626 
ClusterLabel 1 1 int
3 
POINT_DATA 240
FIELD FieldData 6
Curvature 1 240 double
0 0.089383994362 0.17876798872 0.18545841216 0.19144804263 0.19132327134 0.19109398036 0.18495286122 0.17865884997 
0.16809567652 0.15738401046 0.14436381635 0.131242371 0.11744095069 0.1036034255 0.090398490697 0.077233092787 0.065819964138 
0.054533125165 0.046148258487 0.038000825905 0.033016948099 0.028323304677 0.024785383489 0.021365174751 0.015338534598 0.0090195843808 
0.014965537691 0.022415677284 0.05912177372 0.099728664403 0.20425609274 0.3180028294 0.61529373744 0.94109636142 1.4328222782 
1.9522020771 1.8276444928 1.5883257907 1.1393689295 0.65058081813 0.40334382976 0.20490504806 0.11563860403 0.049766232356 
0.026003071624 0.01179045358 0.018196745013 0.029542983508 0.042608505437 0.056108372654 0.07514130834 0.095645804789 0.12259402647 
0.15134371971 0.18470912571 0.21942914306 0.25175088835 0.28333470376 0.30155322088 0.31546514188 0.310679983 0.29959243765 
0.27660865743 0.24943415812 0.22095351892 0.19199246045 0.1679324474 0.14575306806 0.13030601962 0.11755190356 0.11179346972 
0.10894990347 0.11242571355 0.11864245793 0.12924535282 0.1418273644 0.15638598268 0.17187189794 0.18743902644 0.2030457464 
0.21763200082 0.23170156383 0.24430018341 0.25612561476 0.26615994715 0.27521731646 0.28127452644 0.28563427783 0.2850496772 
0.28156439005 0.27159328557 0.25767810299 0.23863371905 0.21635723562 0.19159861916 0.16521972142 0.13930822281 0.11371271233 
0.091256953233 0.070999020096 0.056080342954 0.045030691897 0.04011823132 0.039808663603 0.041142975695 0.043753134802 0.045845335774 
0.047521600667 0.048935816964 0.05013233135 0.052065956641 0.054633036616 0.058701573669 0.064104739236 0.071838183684 0.081713981295 
0.093595611223 0.10738442597 0.1229216461 0.14017813152 0.15695330621 0.17323901238 0.18709869347 0.19840686541 0.20542517707 
0.20777732492 0.20608271056 0.19983548872 0.1908083649 0.17854644606 0.16503341982 0.15001443096 0.13464426641 0.11883678875 
0.10304008775 0.087257272081 0.071447591089 0.05560208967 0.039590582525 0.023349987476 0.015073402984 0.01817397643 0.026970212172 
0.044191281729 0.061247065072 0.078049644003 0.094061353206 0.10881798654 0.12208937204 0.13291835001 0.14183822581 0.14750395021 
0.15137668533 0.15208041613 0.15181024707 0.14975459493 0.14761896239 0.14533117201 0.14369866208 0.14336033104 0.14334889847 
0.14400802684 0.14459403812 0.14502419455 0.14472279488 0.14280010875 0.13988419363 0.13467833389 0.12857895704 0.12033513912 
0.11154284266 0.10137934986 0.091000495343 0.080060395135 0.06912362276 0.058195897933 0.047507829638 0.037500076662 0.029340431138 
0.026663504389 0.02685739545 0.03596072109 0.046118409039 0.059702774489 0.073358663203 0.087258260815 0.10097734654 0.11405075511 
0.12653918904 0.13682811836 0.14606552085 0.15114062963 0.15502075216 0.15391310599 0.15156004964 0.14371586659 0.13491976184 
0.1216813558 0.10791561929 0.091539597018 0.075343448082 0.060094000933 0.046220189824 0.040065225386 0.035829208357 0.043106875781 
0.050966585648 0.062573193731 0.074515669736 0.08878682999 0.1038078972 0.12445326658 0.14585838927 0.17345842363 0.20120064727 
0.23021072535 0.25793935177 0.27308645267 0.28596284179 0.27408847234 0.26057123781 0.22697454123 0.19276444817 0.15004347892 
0.10770195747 0.071431600959 0.038189828304 0.06198638501 0.086818950208 0.13527250903 0.18386893823 0.23657289112 0.28897439113 
0.32968104702 0.36972486003 0.37099236504 0.37069169063 0.18534584532 0 
Torsion 1 240 double
0 0 0 -0.016533731039 -0.033207578442 -0.038509607472 -0.043617246443 -0.052013835951 -0.060495484525 
-0.074204225786 -0.088094778966 -0.10898605024 -0.13018437056 -0.16041637626 -0.19112804667 -0.23775289272 -0.28537231226 -0.35841399789 
-0.43328791892 -0.51992154472 -0.60751732818 -0.62455435309 -0.63511809739 -0.55371667703 -0.46294843434 -0.328940941 -0.19008418591 
-0.25267059813 -0.33996230446 -0.29807790506 -0.23897002489 -0.2109782677 -0.18747441286 -0.16017336117 -0.13228245365 -0.11054880025 
-0.089841355865 -0.10009864921 -0.11587441067 -0.17230011497 -0.23644930842 -0.33244114994 -0.43486584967 -0.70101060107 -1.0022382207 
-1.5673582839 -2.1923302416 -1.648074379 -0.82369101771 -0.56503299205 -0.44929505116 -0.35210267431 -0.25984262831 -0.19974244502 
-0.14863319108 -0.11676025778 -0.090532766398 -0.074876313036 -0.062472486755 -0.055543446905 -0.050378504905 -0.047019368091 -0.044268929653 
-0.03863787502 -0.031992057865 -0.014577582044 0.0067977797219 0.047122641748 0.094718823642 0.15404172799 0.21805532132 0.25566212265 
0.28226609398 0.26558736063 0.23013540597 0.18378327551 0.13251277304 0.090770121347 0.053497325572 0.026919715975 0.0055560096416 
-0.0098715042834 -0.022293351166 -0.028912514263 -0.032481548704 -0.030753165901 -0.026135282783 -0.017674532239 -0.0070395277567 0.0073905886253 
0.024047170655 0.043151496135 0.063744314254 0.088355178546 0.11549796234 0.1536357532 0.19895084033 0.26978841851 0.35788063852 
0.50366416975 0.68983161884 0.90997791216 1.1547465564 1.1411296683 0.93372363112 0.70494874974 0.45958909377 0.28089244854 
0.15572822101 0.06932593626 0.01512588089 -0.0033322413441 0.0089253602101 0.042278671065 0.09438372352 0.13751022458 0.17238225098 
0.19029104614 0.19207086733 0.18431564794 0.16718430531 0.14844003964 0.12805551323 0.1084767453 0.089745413004 0.07232243477 
0.056322578497 0.040991046707 0.026411379964 0.012252196817 -0.0014176963248 -0.014554931779 -0.027051005201 -0.038197578285 -0.047663641515 
-0.055535307525 -0.06135265404 -0.06251163792 -0.05745947162 0.011780904681 0.16960101078 0.22422306815 0.13141934161 0.043015243566 
-0.038881070668 -0.093194446131 -0.10525310688 -0.11628703324 -0.12569475067 -0.13703996284 -0.15157127747 -0.16879585611 -0.19061122564 
-0.21578604233 -0.24689848656 -0.27970260577 -0.31560812909 -0.34914637427 -0.37818101715 -0.40020555098 -0.40838511945 -0.41078633073 
-0.40133450162 -0.3890506056 -0.37072993539 -0.35317270912 -0.33730743968 -0.32221231192 -0.3088927886 -0.29526771156 -0.2809093056 
-0.26358022099 -0.23882443977 -0.20814067461 -0.16200822401 -0.099602030373 0.0070484021465 0.18059488521 0.54403983435 0.89956028537 
1.231571392 1.3657994459 0.88621802574 0.4861579015 0.34454198895 0.22889960914 0.20175963715 0.18175218604 0.18725721342 
0.19467229246 0.2092691658 0.22383027819 0.23824983682 0.25232307366 0.26495079352 0.27749041179 0.28964158215 0.30277039511 
0.32046154023 0.3457099858 0.40836706855 0.49984037662 0.74297802849 0.98342225365 1.2087533623 1.3278050899 0.80918053092 
0.32643675828 0.074675547624 -0.15866054341 -0.26424913836 -0.35896380396 -0.37212399937 -0.38063607139 -0.3512480603 -0.32162347579 
-0.28988944498 -0.25911748318 -0.23779128997 -0.21802165356 -0.2152184863 -0.21463112499 -0.24112583633 -0.27531114593 -0.41620350641 
-0.64481119031 -2.2768640488 -3.7507958439 -2.2467809443 -0.79388987668 -0.50662217706 -0.22698248534 -0.16664802065 -0.10723842406 
-0.083590394018 -0.059834874206 -0.029791203191 0 0 0 
FrenetTangent 3 240 double
-0.23416463927 -0.68462462381 0.69025795627 -0.23416463927 -0.68462462381 0.69025795627 -0.23416463927 -0.68462462381 0.69025795627 
-0.28552177051 -0.69199191311 0.66025858559 -0.33731413167 -0.69942163706 0.63000498295 -0.38672410716 -0.700897154 0.5963054986 
-0.4360933581 -0.70227088963 0.56254711029 -0.48054099592 -0.69797665651 0.52792075299 -0.52486135065 -0.693535838 0.49327194822 
-0.5628582254 -0.6845290811 0.46044304409 -0.60063515302 -0.67536350896 0.42767744086 -0.63183530277 -0.66307407126 0.3989752775 
-0.66274699736 -0.65064762191 0.37045133519 -0.68752683677 -0.63654920389 0.34755565483 -0.71198109095 -0.62236200878 0.32495882023 
-0.73098629005 -0.60784869375 0.30881731624 -0.74965092321 -0.59331499623 0.29307927041 -0.76353846345 -0.5796230205 0.2839008113 
-0.77708170869 -0.5659917094 0.2751951152 -0.78647039504 -0.55412123648 0.27237595287 -0.79551916293 -0.54239483213 0.27003841604 
-0.8010785063 -0.53303190904 0.27209008092 -0.80631771897 -0.5238858191 0.27454442485 -0.80888261844 -0.51742680472 0.27912707507 
-0.81117513415 -0.51124147397 0.28392649722 -0.81186877165 -0.50792251934 0.28785405635 -0.8123830957 -0.50492502745 0.29168383645 
-0.81272654429 -0.5050596043 0.29049396488 -0.81304903645 -0.50557830279 0.28868847566 -0.81499834065 -0.50974225993 0.27511170834 
-0.81716455311 -0.51439225156 0.25996543729 -0.82235802816 -0.52293269696 0.21963313309 -0.82798812761 -0.53203426549 0.17566822797 
-0.8311480149 -0.54027649094 0.077760289241 -0.83392417991 -0.5483852262 -0.028527149849 -0.79497816664 -0.52609600105 -0.21810097044 
-0.74907845699 -0.49874044916 -0.42155585461 -0.6279903476 -0.41374508918 -0.61099275443 -0.49350232539 -0.31847728815 -0.79793139962 
-0.37994675799 -0.23323418951 -0.88232803181 -0.27036835701 -0.14989578433 -0.94724168153 -0.21182143396 -0.10120306876 -0.96990487261 
-0.16358390039 -0.059509482398 -0.9840326175 -0.14275262419 -0.038392205528 -0.98876175002 -0.12779411741 -0.021684137834 -0.99147689418 
-0.12379481068 -0.016208943584 -0.99217009455 -0.1222810957 -0.013281411353 -0.99240470972 -0.12280817864 -0.017743312396 -0.99225229321 
-0.12382420276 -0.023975598495 -0.99200715036 -0.12156936724 -0.03658393058 -0.99180541578 -0.11848820928 -0.05080305323 -0.99161464749 
-0.10846723382 -0.071839145784 -0.99117895047 -0.096600562216 -0.094688262248 -0.99067811284 -0.074955302082 -0.12528889578 -0.98847261408 
-0.050576243004 -0.1580566201 -0.9857905434 -0.014628347628 -0.19873929674 -0.97824706732 0.024714749706 -0.24174483982 -0.96927687444 
0.074918550169 -0.29038002845 -0.95105463901 0.12846410544 -0.34074741571 -0.92998562125 0.1880915432 -0.39114501902 -0.89684481893 
0.24967869864 -0.44155235863 -0.85981421936 0.30970119872 -0.48542719343 -0.81309006227 0.36919628688 -0.52710006033 -0.76309841389 
0.42110072115 -0.55906230139 -0.71017856785 0.47033117507 -0.5876037538 -0.65622719763 0.51024027731 -0.60775903749 -0.60535860371 
0.54672083639 -0.62482975339 -0.55562390453 0.57502066237 -0.63695494805 -0.51115559825 0.60018136982 -0.6471824427 -0.46870811715 
0.61889550403 -0.655812894 -0.43052025526 0.63503100894 -0.66380452796 -0.39403624107 0.64595419014 -0.67262735068 -0.35931280669 
0.6547055698 -0.68179650205 -0.32532294724 0.6588110167 -0.69311081058 -0.29029969766 0.66090136022 -0.70535554872 -0.25482823067 
0.65837405178 -0.71985379141 -0.21593954264 0.65376316867 -0.73536885932 -0.1755089378 0.64428752076 -0.75200221587 -0.13016824446 
0.63252963753 -0.76916020167 -0.082524052814 0.61568254769 -0.78532687934 -0.029628928791 0.59635446963 -0.80101029431 0.025826024764 
0.57189346943 -0.81325493088 0.085742088211 0.5448335213 -0.82375841382 0.14791694148 0.51293751196 -0.82860253023 0.21292455704 
0.47849947044 -0.8304718514 0.27942118868 0.43973743076 -0.82519284995 0.34656921963 0.39861684664 -0.81601476344 0.41407255929 
0.35395210912 -0.79929090837 0.4795257552 0.30728212692 -0.77829773689 0.54381900135 0.25843763284 -0.75082312574 0.60306790793 
0.20831742514 -0.71954607 0.65935746862 0.15808890486 -0.68464066837 0.70798296693 0.10779451881 -0.64752884018 0.75194788676 
0.059753195226 -0.61070931896 0.78720805833 0.013131609621 -0.57407399117 0.81698304607 -0.029403304581 -0.54127879671 0.83891838771 
-0.069270530507 -0.51099035596 0.8557361826 -0.10411881923 -0.48670535758 0.86663663641 -0.13557402366 -0.46647902448 0.87353663429 
-0.16187729314 -0.45266894507 0.87657491275 -0.18457420817 -0.44335024324 0.87690998761 -0.20250847465 -0.43946269859 0.87503088517 
-0.21699154653 -0.43951077509 0.87154730642 -0.2274607182 -0.44345523421 0.86689071316 -0.23491946473 -0.4503219803 0.86135435902 
-0.23944794028 -0.45945383335 0.85523746299 -0.24170217568 -0.47034367986 0.84866999713 -0.24228024923 -0.48219256128 0.84179621787 
-0.24151231401 -0.49481157679 0.83467645967 -0.24013047605 -0.50780115504 0.82721419815 -0.23823862657 -0.52109858541 0.81946739541 
-0.23624731174 -0.53480177287 0.81114311795 -0.23417051887 -0.54885365785 0.80232257315 -0.23177509632 -0.56380125073 0.79254032301 
-0.22909644738 -0.57954502842 0.78190322369 -0.225155707 -0.59693592598 0.7697619994 -0.22005465676 -0.61584111118 0.75623795056 
-0.21234543527 -0.63691133538 0.74062550375 -0.20215631326 -0.66004012125 0.72302736709 -0.1880892284 -0.68524168261 0.70275400291 
-0.17020881339 -0.71248147318 0.67984999834 -0.14781844072 -0.74080735531 0.65385150292 -0.12084167045 -0.77023773732 0.62470606764 
-0.089822015964 -0.79901115495 0.59251827984 -0.054550362563 -0.82709362727 0.55713077644 -0.016839673222 -0.85271438667 0.51945517159 
0.02352400258 -0.87565749341 0.47929075465 0.064152270404 -0.89509452469 0.43820076212 0.10507820425 -0.91058722106 0.39606949706 
0.14436081923 -0.92263844057 0.35447825423 0.18173120861 -0.93068503246 0.31351540091 0.21629608339 -0.93613004965 0.27424099339 
0.24748394985 -0.93844354173 0.23699897432 0.27544548526 -0.93922490467 0.20219833877 0.29938932538 -0.93809833323 0.17043791668 
0.3201936089 -0.93637342612 0.14160732581 0.33695269449 -0.9338775865 0.1165517098 0.35091708391 -0.93144539562 0.094808923315 
0.36115521178 -0.92909806969 0.077483242864 0.36905006328 -0.92717980319 0.063835336095 0.3737111934 -0.92585363868 0.055262757007 
0.37653052311 -0.92501547522 0.050697300449 0.37671870941 -0.92487445613 0.051856304647 0.37556722815 -0.92497465223 0.057244176089 
0.37243415531 -0.92543164582 0.068887246997 0.36844991628 -0.92559722443 0.084734856769 0.36316176308 -0.9253163801 0.10702346225 
0.35754579761 -0.9240026723 0.13307264284 0.35140960833 -0.92104985511 0.16508969263 0.34551071888 -0.91632501556 0.19989799154 
0.34000205582 -0.90868618366 0.23929634455 0.33536966254 -0.89879443693 0.28008408772 0.33223091095 -0.88506249445 0.32324010957 
0.33062399639 -0.86904435309 0.36623015398 0.33172451472 -0.84898548815 0.40892684291 0.33492736633 -0.82701552943 0.45010979301 
0.34198449563 -0.80154189878 0.48851755524 0.35149590909 -0.77473661797 0.52446596453 0.36567644853 -0.74539795392 0.55573560481 
0.38234953812 -0.71531816957 0.58397669245 0.40394541425 -0.68377467264 0.60623638863 0.42768233661 -0.65208286356 0.62513725841 
0.45581114865 -0.62008682445 0.63714822789 0.48534071148 -0.58857756483 0.64571585705 0.51785608516 -0.55810591413 0.64694373452 
0.55078761748 -0.52872764075 0.64501923035 0.58464144728 -0.50177252789 0.63610836689 0.61790503735 -0.47642102421 0.62473943648 
0.64980779689 -0.45476673061 0.60770329613 0.68036154956 -0.43494856603 0.58922784461 0.70767768575 -0.41953711113 0.56729804624 
0.73329003633 -0.40583214468 0.5450271053 0.75464292289 -0.39639339935 0.52190330789 0.77434267811 -0.38818835609 0.49936519648 
0.78973427286 -0.38319841522 0.47835341823 0.8037779324 -0.37881952442 0.45853514038 0.81415689313 -0.37610192602 0.4419616917 
0.82357855136 -0.37333805498 0.42692003692 0.83028270572 -0.37044282936 0.41622670032 0.83638307415 -0.36689934612 0.40720943703 
0.84069221098 -0.36143269865 0.40316452451 0.8446021868 -0.35491636645 0.40079166169 0.84727338707 -0.34514239198 0.4036079186 
0.84953822016 -0.33410587729 0.40807093104 0.85048235992 -0.31896610687 0.41788589894 0.85081121575 -0.302601 0.42926480525 
0.84904354853 -0.2820606726 0.4459726869 0.84633280548 -0.26058923619 0.4640600446 0.84024875269 -0.23578729448 0.48708168203 
0.8328874564 -0.21057713372 0.51120253317 0.82072372451 -0.18383206931 0.53945642786 0.8071442443 -0.15739530842 0.56834801582 
0.78796076032 -0.13217891566 0.59976380631 0.76758412622 -0.10794130264 0.63122412927 0.7422273873 -0.087789031116 0.66287032696 
0.71625394656 -0.069032498899 0.6939779467 0.68756141139 -0.056429908156 0.72271092728 0.65902197163 -0.045261093292 0.75047331662 
0.63119697708 -0.040783232531 0.77370628015 0.60422944601 -0.037429712552 0.79577771857 0.58150635915 -0.039641679444 0.81209960769 
0.56005204611 -0.042562207331 0.82730109709 0.54527549 -0.049212003607 0.83660574582 0.53182699452 -0.05629886225 0.84495697616 
0.52583039481 -0.065838126393 0.84795846994 0.52092208484 -0.075786858105 0.85020788839 0.52254351328 -0.088192395233 0.8479448549 
0.5247871902 -0.10121104283 0.84514046254 0.53103659173 -0.11817658908 0.83885107255 0.53733244269 -0.1360766073 0.83221769675 
0.54395034297 -0.16045563117 0.82319935266 0.54998644063 -0.18607282376 0.81399963232 0.55165901865 -0.2209762818 0.80343959013 
0.55214548096 -0.25720880141 0.7927633998 0.5429605383 -0.30427828459 0.78114015537 0.53215254078 -0.35235401346 0.76933522501 
0.50687230414 -0.4094020997 0.75591026168 0.47995818028 -0.46663822505 0.74222445167 0.43700225449 -0.52572055269 0.72597760152 
0.39310330328 -0.58399386704 0.70957582713 0.33892537503 -0.6334489366 0.69148537859 0.28484915479 -0.68159613391 0.67356651164 
0.23201603254 -0.7137582259 0.6577447531 0.18005535464 -0.74475609417 0.64239574931 0.14019984204 -0.75960035827 0.63360621782 
0.10152721813 -0.77365937445 0.62537857075 0.0817808132 -0.77515442375 0.62614107464 0.063231741339 -0.77613116326 0.62737768817 
0.06723244228 -0.76734640188 0.63754336674 0.072356038125 -0.75810356483 0.64800398624 0.10308163777 -0.73841660246 0.66518925907 
0.13477091459 -0.71820062928 0.68241117618 0.19416591 -0.68277559511 0.70068661637 0.25417111753 -0.6467811315 0.71871410551 
0.33777119336 -0.58876872994 0.72715415464 0.42148271211 -0.53037592589 0.73522610044 0.51171364203 -0.44972957687 0.7217640015 
0.60118632885 -0.36976092827 0.70841502944 0.60118632885 -0.36976092827 0.70841502944 0.60118632885 -0.36976092827 0.70841502944 

FrenetNormal 3 240 double
-0.86850208008 -0.17174909226 -0.46497998473 -0.86850208008 -0.17174909226 -0.46497998473 -0.86850208008 -0.17174909226 -0.46497998473 
-0.8555530074 -0.1231777432 -0.49907248949 -0.8424941968 -0.074194772531 -0.53345391379 -0.82425065466 -0.023694149872 -0.56240378492 
-0.80591848463 0.026832415557 -0.59126080899 -0.78493477858 0.077612913038 -0.61187334489 -0.76388249833 0.12839997773 -0.63227266126 
-0.74318620452 0.17907702106 -0.64225842486 -0.72250229284 0.22975023756 -0.65188197793 -0.70533653578 0.28228129514 -0.64785758507 
-0.68832508374 0.33489383698 -0.64323459809 -0.67626144595 0.39135772007 -0.62096650983 -0.66446052397 0.44802609915 -0.59776151353 
-0.65677783619 0.51134434056 -0.54807549642 -0.64935253805 0.57507819837 -0.49673441551 -0.63887479338 0.64494119209 -0.40132967176 
-0.62817705257 0.71524592534 -0.30274916853 -0.59250773827 0.7722935304 -0.13938869645 -0.55479529524 0.82825646133 0.029271954901 
-0.46872934381 0.82239212253 0.23135156143 -0.37822729069 0.81085555716 0.43649712715 -0.2703566862 0.73843694379 0.58557471897 
-0.16071706259 0.65981738108 0.72894168382 -0.07665979658 0.57704080666 0.80212646519 0.0045284199851 0.49379802531 0.86744034748 
-0.037836220497 0.10830509765 0.076084475853 -0.095353569861 -0.31425624419 -0.82033466749 -0.11697575041 -0.31955872915 -0.93871571571 
-0.13381190844 -0.26922669986 -0.95335835125 -0.11994019839 -0.21749794215 -0.96701710989 -0.10163946891 -0.16556773322 -0.98053396322 
-0.033044314284 -0.091526971187 -0.98932001494 0.043363566574 -0.014051560125 -0.99737118487 0.19127661006 0.10606167317 -0.95299572935 
0.35110718064 0.23328121016 -0.89988250292 0.4990037532 0.35272658459 -0.75175034397 0.64477347461 0.4707864647 -0.58668411785 
0.700652479 0.53725498116 -0.44376518511 0.73945224716 0.59392113851 -0.30505423811 0.72739237773 0.6424920645 -0.22596612779 
0.70505783404 0.68942759022 -0.15892303497 0.62472650744 0.76158028472 -0.11994490111 0.53196729878 0.83913665826 -0.086980687031 
0.046400817675 0.19707404395 -0.012192376424 -0.52825597264 -0.60820112429 0.072081811746 -0.39622287163 -0.85829011742 0.06479390519 
-0.094878650825 -0.9753657561 0.035569246773 0.11216316863 -0.97654773213 0.02243190931 0.29538122354 -0.94845130917 0.013358737141 
0.41243589712 -0.90419096124 0.020474687932 0.51189392672 -0.8556316971 0.031896256531 0.5734836954 -0.81396327737 0.059710104256 
0.62448663845 -0.77422133027 0.092106739693 0.65609893493 -0.73853374877 0.14023759642 0.68202049817 -0.70403603544 0.19298610506 
0.69467048894 -0.66685576222 0.25833221652 0.70323691894 -0.62885008595 0.32755451346 0.70018442581 -0.58393261634 0.40152061202 
0.69338805745 -0.53678801333 0.47701526887 0.67720493287 -0.48432090368 0.54708978235 0.65785773315 -0.43005969066 0.61533728121 
0.63333806606 -0.376358335 0.67181148938 0.60699627978 -0.32285420181 0.72413828833 0.57748041863 -0.27746143172 0.76530399635 
0.54679708167 -0.23505215152 0.80236447554 0.50887137474 -0.20941024379 0.83339584537 0.46816661888 -0.19020232782 0.86211371976 
0.41112569354 -0.19495158731 0.88796365211 0.34755030041 -0.20928371697 0.91266640764 0.26575797662 -0.24088897848 0.92869459623 
0.17637526505 -0.27969137825 0.94110838193 0.086454052795 -0.31221841495 0.94169130727 -0.003700726031 -0.34202360742 0.93714277511 
-0.080073636207 -0.35221470732 0.93005125673 -0.15022789833 -0.35355554595 0.92181229335 -0.20771143592 -0.33665068492 0.91680127035 
-0.25925068297 -0.31118611295 0.91330458976 -0.30360025573 -0.27239506898 0.91119986399 -0.34444486225 -0.22710736992 0.9097737162 
-0.38156777739 -0.17283455963 0.90571045862 -0.41680629183 -0.11401232594 0.90031195558 -0.4483094489 -0.048899461097 0.88968746598 
-0.4778491489 0.019520017557 0.87631598343 -0.50561716555 0.089562515943 0.85479331327 -0.53241880948 0.16049029782 0.82882454078 
-0.55730371497 0.22967118635 0.79418657175 -0.58110415004 0.29786370101 0.75464366256 -0.60388994996 0.36003441389 0.70703491883 
-0.62608049726 0.4186723364 0.65469421884 -0.64823853402 0.46739234146 0.59673175921 -0.67037680085 0.51008118052 0.53535066197 
-0.69339602344 0.54040054327 0.47187591294 -0.71697036884 0.5629254415 0.40708187649 -0.74488439596 0.56932082363 0.34124254257 
-0.77563127087 0.56518721607 0.27472086169 -0.81430197835 0.53615892861 0.20333325907 -0.85832964306 0.49030043502 0.12865601922 
-0.90423788701 0.39524740417 0.037283884273 -0.95146253644 0.26575819724 -0.065774677245 -0.93896885168 0.054289609059 -0.18974656149 
-0.8832010117 -0.21658432785 -0.32887302742 -0.7152789977 -0.46092668887 -0.42346549374 -0.46324135318 -0.68537036798 -0.48465746036 
-0.25789727597 -0.80773195815 -0.50616454804 -0.08879298234 -0.8508656584 -0.49687143117 0.021746567165 -0.86878891392 -0.49139764101 
0.085256852451 -0.86646741835 -0.48899088592 0.11832236062 -0.86110530774 -0.49425828553 0.12609528471 -0.85321714771 -0.50590113674 
0.12697775245 -0.84458513143 -0.51986822082 0.12193873426 -0.8353138637 -0.53583269254 0.12946543553 -0.82529534508 -0.54924141037 