# vtk DataFile Version 5.1
vtk output
ASCII
DATASET POLYDATA
POINTS 240 float
0 0 0 -0.15071 -0.149202 0.299717 -0.301419 -0.298404 0.599434 
-0.48777 -0.476044 0.858325 -0.674423 -0.653924 1.11687 -0.887979 -0.85545 1.33472 
-1.102 -1.05738 1.55187 -1.33435 -1.27824 1.72847 -1.56718 -1.4996 1.90401 
-1.81003 -1.73528 2.03914 -2.05323 -1.97146 2.17286 -2.29856 -2.21756 2.2663 
-2.54398 -2.4641 2.35797 -2.78438 -2.71644 2.40948 -3.02452 -2.9691 2.45886 
-3.2536 -3.22393 2.46826 -3.482 -3.4789 2.47517 -3.69488 -3.73308 2.44255 
-3.90664 -3.9872 2.40708 -4.10033 -4.23832 2.33302 -4.29255 -4.4892 2.2558 
-4.4662 -4.73576 2.14167 -4.63815 -4.98193 2.02416 -4.79303 -5.22329 1.87233 
-4.94618 -5.46416 1.71701 -5.08527 -5.70039 1.53093 -5.22279 -5.93609 1.3414 
-5.35004 -6.16762 1.12547 -5.47604 -6.39863 0.906298 -5.59545 -6.62577 0.665619 
-5.71399 -6.8524 0.422071 -5.82864 -7.07487 0.16208 -5.94274 -7.29675 -0.100282 
-6.05398 -7.51324 -0.374208 -6.16479 -7.7289 -0.64993 -6.27174 -7.93699 -0.932778 
-6.37804 -8.14383 -1.21681 -6.47729 -8.34029 -1.50415 -6.57527 -8.53489 -1.79207 
-6.66112 -8.7163 -2.08009 -6.74465 -8.89519 -2.36813 -6.80971 -9.05882 -2.65369 
-6.87104 -9.21936 -2.93875 -6.90725 -9.36413 -3.21931 -6.93807 -9.50553 -3.49891 
-6.9379 -9.63281 -3.77249 -6.93069 -9.75689 -4.04471 -6.88846 -9.87078 -4.30987 
-6.83782 -9.98224 -4.57333 -6.75078 -10.0894 -4.82907 -6.65453 -10.1955 -5.08286 
-6.52363 -10.3041 -5.32862 -6.38351 -10.4135 -5.57224 -6.21371 -10.5325 -5.80769 
-6.03561 -10.6541 -6.04086 -5.83558 -10.7909 -6.26561 -5.62911 -10.9323 -6.48789 
-5.41038 -11.0924 -6.70095 -5.18789 -11.2583 -6.91116 -4.96372 -11.4441 -7.11033 
-4.73901 -11.6363 -7.30594 -4.52295 -11.8469 -7.48733 -4.30981 -12.0636 -7.66392 
-4.11439 -12.2952 -7.82175 -3.9252 -12.532 -7.97296 -3.76073 -12.7782 -8.09983 
-3.60534 -13.028 -8.21776 -3.47924 -13.281 -8.30554 -3.36438 -13.5352 -8.38176 
-3.281 -13.7861 -8.42284 -3.21021 -14.0357 -8.44985 -3.17117 -14.2758 -8.43859 
-3.14536 -14.5119 -8.41138 -3.15024 -14.7332 -8.34547 -3.16843 -14.9482 -8.26277 
-3.21547 -15.1441 -8.14381 -3.27554 -15.3314 -8.00848 -3.36215 -15.4968 -7.84185 
-3.46122 -15.6517 -7.66052 -3.58409 -15.7828 -7.45452 -3.71857 -15.9021 -7.23648 
-3.87352 -15.9964 -7.00092 -4.03884 -16.0779 -6.7565 -4.22065 -16.1338 -6.50122 
-4.41113 -16.1762 -6.24024 -4.61348 -16.1931 -5.9738 -4.82231 -16.196 -5.70437 
-5.03803 -16.1739 -5.4332 -5.25763 -16.1376 -5.16105 -5.47908 -16.0777 -4.88913 
-5.70161 -16.004 -4.61736 -5.92125 -15.9091 -4.34623 -6.13913 -15.8013 -4.07549 
-6.34984 -15.6758 -3.8046 -6.55605 -15.5392 -3.53362 -6.75138 -15.3895 -3.26096 
-6.93963 -15.2313 -2.9872 -7.11381 -15.0657 -2.71002 -7.27848 -14.8951 -2.43052 
-7.42634 -14.7232 -2.14612 -7.56243 -14.5505 -1.85827 -7.67937 -14.3828 -1.56476 
-7.78244 -14.2188 -1.26714 -7.86453 -14.0659 -0.96409 -7.93089 -13.9212 -0.656973 
-7.97514 -13.7928 -0.345803 -8.00224 -13.6771 -0.0314872 -8.00701 -13.582 0.284488 
-7.99386 -13.5036 0.601797 -7.95926 -13.4492 0.917621 -7.90686 -13.4147 1.23221 
-7.83507 -13.4064 1.54178 -7.74662 -13.4208 1.84703 -7.64188 -13.4624 2.14371 
-7.52266 -13.5284 2.43278 -7.39102 -13.6215 2.71006 -7.24796 -13.7397 2.97649 
-7.0967 -13.8837 3.2284 -6.93766 -14.0523 3.46651 -6.77456 -14.2444 3.68794 
-6.60747 -14.4595 3.89297 -6.43997 -14.6946 4.07975 -6.27205 -14.9502 4.24798 
-6.10657 -15.2219 4.39696 -5.94367 -15.5108 4.5257 -5.78515 -15.8119 4.63474 
-5.63142 -16.1263 4.72236 -5.48307 -16.4493 4.79047 -5.34078 -16.7818 4.83665 
-5.204 -17.1195 4.86426 -5.07364 -17.4633 4.87026 -4.94817 -17.8096 4.85949 
-4.82859 -18.159 4.82852 -4.71268 -18.5088 4.7835 -4.60137 -18.8591 4.72096 
-4.49206 -19.2081 4.64796 -4.38535 -19.5555 4.56149 -4.27868 -19.9002 4.4689 
-4.17205 -20.2414 4.36814 -4.06329 -20.5787 4.26601 -3.95159 -20.9107 4.16197 
-3.83556 -21.2375 4.06131 -3.71336 -21.5569 3.96548 -3.58477 -21.8698 3.87732 
-3.44673 -22.1732 3.80052 -3.30055 -22.4687 3.7348 -3.1419 -22.7523 3.68607 
-2.97385 -23.0267 3.6506 -2.79089 -23.2867 3.63618 -2.59794 -23.5365 3.63585 
-2.38853 -23.7697 3.65869 -2.16924 -23.992 3.69519 -1.93309 -24.1958 3.75499 
-1.6879 -24.3887 3.82705 -1.42673 -24.562 3.92079 -1.158 -24.7248 4.02484 
-0.875417 -24.8679 4.14778 -0.587224 -25.0014 4.27895 -0.288355 -25.1161 4.42576 
0.0139755 -25.2224 4.57891 0.323144 -25.3117 4.74457 0.633693 -25.3939 4.91504 
0.947071 -25.4615 5.09538 1.26008 -25.5234 5.27936 1.57229 -25.5731 5.47112 
1.8829 -25.6183 5.66562 2.18998 -25.6536 5.86618 2.49489 -25.6853 6.06866 
2.79478 -25.7087 6.27559 3.09257 -25.729 6.48359 3.38529 -25.742 6.6942 
3.67647 -25.7521 6.90495 3.96383 -25.7549 7.11606 4.25056 -25.7546 7.32634 
4.53567 -25.7465 7.53443 4.82115 -25.7349 7.74075 5.10764 -25.7142 7.94224 
5.39537 -25.6898 8.14122 5.68665 -25.6548 8.33302 5.97977 -25.6158 8.52182 
6.27836 -25.5651 8.70174 6.57901 -25.5105 8.87852 6.88606 -25.4435 9.04558 
7.19502 -25.373 9.20969 7.51021 -25.2908 9.36425 7.82687 -25.2057 9.51635 
8.14854 -25.111 9.66005 8.471 -25.0146 9.80196 8.79624 -24.9121 9.93752 
9.12145 -24.8094 10.0721 9.44652 -24.7058 10.2031 9.77067 -24.6035 10.334 
10.0912 -24.5067 10.4644 10.4101 -24.4128 10.5954 10.7218 -24.3312 10.7293 
11.0311 -24.254 10.8646 11.33 -24.1962 11.006 11.6259 -24.1437 11.1492 
11.9084 -24.1166 11.3013 12.1876 -24.0955 11.4555 12.4509 -24.104 11.6207 
12.7109 -24.1187 11.7881 12.9531 -24.1657 11.9677 13.192 -24.2184 12.1495 
13.4119 -24.3037 12.3434 13.6284 -24.3944 12.5391 13.825 -24.5165 12.7456 
14.0184 -24.6433 12.9535 14.1909 -24.7995 13.1697 14.3602 -24.9597 13.3866 
14.5078 -25.1471 13.6083 14.6523 -25.3379 13.8299 14.7738 -25.5536 14.0519 
14.8925 -25.7721 14.2733 14.9872 -26.0136 14.4901 15.0791 -26.2573 14.7058 
15.146 -26.5216 14.9122 15.2104 -26.7878 15.1172 15.2492 -27.0719 15.3087 
15.2856 -27.3574 15.4986 15.2961 -27.6578 15.6716 15.3045 -27.9591 15.843 
15.2868 -28.272 15.9953 15.2673 -28.5854 16.1463 15.2223 -28.907 16.2773 
15.1758 -29.2289 16.4071 15.1049 -29.5557 16.5174 15.0328 -29.8827 16.6268 
14.9385 -30.2118 16.7187 14.8433 -30.541 16.8099 14.729 -30.8705 16.8865 
14.6142 -31.2 16.9627 14.4843 -31.5287 17.0283 14.3541 -31.8573 17.0937 
14.2137 -32.1847 17.1529 14.0732 -32.5121 17.2121 13.9275 -32.8385 17.2696 
13.7819 -33.1649 17.3271 13.6358 -33.4908 17.387 13.4897 -33.8167 17.4469 

LINES 2 240
OFFSETS vtktypeint64
0 240 
CONNECTIVITY vtktypeint64
0 1 2 3 4 5 6 7 8 
9 10 11 12 13 14 15 16 17 
18 19 20 21 22 23 24 25 26 
27 28 29 30 31 32 33 34 35 
36 37 38 39 40 41 42 43 44 
45 46 47 48 49 50 51 52 53 
54 55 56 57 58 59 60 61 62 
63 64 65 66 67 68 69 70 71 
72 73 74 75 76 77 78 79 80 
81 82 83 84 85 86 87 88 89 
90 91 92 93 94 95 96 97 98 
99 100 101 102 103 104 105 106 107 
108 109 110 111 112 113 114 115 116 
117 118 119 120 121 122 123 124 125 
126 127 128 129 130 131 132 133 134 
135 136 137 138 139 140 141 142 143 
144 145 146 147 148 149 150 151 152 
153 154 155 156 157 158 159 160 161 
162 163 164 165 166 167 168 169 170 
171 172 173 174 175 176 177 178 179 
180 181 182 183 184 185 186 187 188 
189 190 191 192 193 194 195 196 197 
198 199 200 201 202 203 204 205 206 
207 208 209 210 211 212 213 214 215 
216 217 218 219 220 221 222 223 224 
225 226 227 228 229 230 231 232 233 
234 235 236 237 238 239 
CELL_DATA 1
FIELD FieldData 3
Length 1 1 double
81.171704467 
Tortuosity 1 1 double
1.010570478 
ClusterLabel 1 1 int
2 
POINT_DATA 240
FIELD FieldData 6
Curvature 1 240 double
0 0.11488881534 0.22977763068 0.21890957999 0.20697579314 0.19630989702 0.18566567425 0.1782228526 0.17086282582 
0.16758009928 0.16443919189 0.16566144707 0.16707506904 0.17251308806 0.17816479189 0.18637977313 0.1947549592 0.20254465085 
0.21029214469 0.21316709335 0.21564337921 0.20987180361 0.20334354347 0.18901267455 0.17388709547 0.15502428708 0.13574235018 
0.11740094547 0.099174889042 0.084905724375 0.071164145276 0.062375925553 0.054302132663 0.050877123263 0.048174254989 0.049930911317 
0.052430821747 0.060127130716 0.068749530513 0.08367031172 0.099787785394 0.12246326983 0.14646360493 0.17475968349 0.20397627851 
0.23014260782 0.25561712428 0.2674834228 0.27608941909 0.26701086927 0.25346464464 0.22999874328 0.20389463004 0.17943729905 
0.1554403588 0.13956486936 0.12607284919 0.12143534509 0.11952230749 0.12404365124 0.13063829565 0.14251318076 0.15616792227 
0.1765578581 0.1993204192 0.23270067348 0.26998628617 0.32316157713 0.38243407022 0.45489942131 0.5326419156 0.59889419745 
0.66035889078 0.67516567555 0.66973529516 0.62360688128 0.55911472058 0.4898122275 0.41825303528 0.36004534833 0.30834652021 
0.2697467647 0.23777945103 0.21412691755 0.19484497366 0.18019073924 0.16806071001 0.15797332582 0.14904164871 0.14083770445 
0.1330606968 0.12567643862 0.11853101458 0.11216945554 0.10630183883 0.10296208707 0.10127246938 0.10368341679 0.10886657721 
0.11804326178 0.13001541324 0.14484637953 0.16174895078 0.18009382097 0.19952041538 0.21898451232 0.23847771572 0.25638888984 
0.2730296465 0.28642348005 0.29711986977 0.30355936924 0.30634060366 0.30504759759 0.30013304443 0.29242524972 0.28214947489 
0.27073431711 0.25823581161 0.24593937447 0.2338416379 0.22274556009 0.21266811829 0.20352513774 0.19536495263 0.18766119801 
0.18045391163 0.17304751614 0.16541712291 0.15691248544 0.14739054558 0.13663652772 0.124399453 0.11099960426 0.096151772796 
0.080736741555 0.064590895223 0.050793823094 0.040128449903 0.039039469613 0.05116591153 0.068577925583 0.093540756976 0.12033112522 
0.14982472506 0.17902066519 0.20776061599 0.23301653381 0.25274344277 0.26629390427 0.26968754107 0.26718176261 0.25462016267 
0.23898614075 0.21792179158 0.19667834359 0.17510654779 0.15473158595 0.13663352777 0.12000453304 0.10627693863 0.093851383298 
0.084096677336 0.075388979597 0.068913062545 0.063024252385 0.05843659804 0.05399764755 0.04990154206 0.046212971523 0.043502484875 
0.041861347393 0.042893582827 0.045420828274 0.051844160419 0.058686233669 0.066666759297 0.07412389906 0.080095298304 0.08495647059 
0.086523969563 0.0868807528 0.083480142369 0.079080041828 0.071431598427 0.062978501212 0.051783620633 0.040157206704 0.026987231175 
0.016990647103 0.018926014904 0.024275490851 0.043139144875 0.06281631373 0.085889022747 0.10941888942 0.13496440573 0.16035232133 
0.1850047669 0.20848620794 0.22617117654 0.24183974097 0.24689565188 0.25021765398 0.24381050109 0.23659849096 0.22455733733 
0.21257010032 0.20092995159 0.18973157202 0.1815961253 0.17386797832 0.16919457941 0.16479950826 0.16267387869 0.16065261386 
0.15956193462 0.15846683729 0.15732836232 0.15615750164 0.15463363679 0.15295042897 0.14931969602 0.14559269828 0.14053002645 
0.1352760607 0.12696139214 0.11854722946 0.10825926092 0.097891233873 0.085697872829 0.073459494295 0.059926862924 0.046415855296 
0.033740965694 0.021180410636 0.015308426351 0.0094460969892 0.0047230484946 0 
Torsion 1 240 double
0 0 0 0.029027740342 0.058301478483 0.06529974389 0.071917231986 0.077587886537 0.083234054014 
0.085461300841 0.087569628689 0.084267063049 0.080727177518 0.071833415235 0.062655376311 0.050250464685 0.037643873516 0.02505373934 
0.012464791253 0.00065227983662 -0.011096704943 -0.022653842267 -0.034193378907 -0.046600296935 -0.059095559365 -0.074529424119 -0.090292851751 
-0.10855783381 -0.12712961028 -0.13862543468 -0.14917779879 -0.1241402465 -0.093969533184 -0.011067850893 0.080025049879 0.16675566594 
0.25275923455 0.28184504036 0.30078708646 0.28967287611 0.27284797703 0.25708364576 0.24153357061 0.23403020052 0.22825112436 
0.2304154794 0.23438143738 0.24726721188 0.26229002574 0.29023532122 0.32144524363 0.3691317662 0.42120036327 0.47935808872 
0.53921815114 0.56427306308 0.57911341999 0.52830964214 0.45730766899 0.36396298656 0.26341898669 0.17675731686 0.094775084119 
0.031425490998 -0.025360331349 -0.063713295838 -0.095286358587 -0.10838770829 -0.11440107509 -0.10657327675 -0.093209012352 -0.074904747033 
-0.054542147994 -0.033696635645 -0.012641666921 0.0086015224649 0.029929640686 0.04691441185 0.061861563406 0.065156013828 0.062769772447 
0.047460528214 0.025607991397 -0.0034020674698 -0.036174413568 -0.069609613823 -0.10340637089 -0.13603617091 -0.16800571891 -0.20156382342 
-0.23605388109 -0.27673286366 -0.32117538164 -0.37307814256 -0.42968187848 -0.47271954161 -0.50690157388 -0.50281148537 -0.47284728702 
-0.42212566254 -0.35687383975 -0.29749892163 -0.24238263006 -0.1998092793 -0.16664313414 -0.14298343954 -0.12670188566 -0.11627484029 
-0.11054914267 -0.1078012409 -0.10752720031 -0.10835555968 -0.110131294 -0.11134279947 -0.1120527682 -0.11072265506 -0.10751698278 
-0.10162710114 -0.093185020449 -0.082593772308 -0.069889176177 -0.05586538287 -0.040500033113 -0.024854412685 -0.0089140248283 0.0059016044668 
0.019493812168 0.031751229054 0.042507006274 0.053433623184 0.064559035372 0.079024368961 0.09750997831 0.12951896845 0.17836839504 
0.28786981905 0.47551900896 0.8395473873 1.4387480169 1.5540482986 1.0015661004 0.57731510762 0.33625155112 0.16491643981 
0.096721320357 0.044463958115 0.016621883518 -0.0058917189428 -0.019949267793 -0.031679846631 -0.039583852558 -0.045527561942 -0.048129856762 
-0.048136092061 -0.043553943088 -0.035783268455 -0.022166963443 -0.0051901809852 0.018179704905 0.043540866892 0.072834799168 0.099583096393 
0.12110957813 0.13303132736 0.124479831 0.10217551574 0.049391980219 -0.021038952836 -0.13215694133 -0.25610380896 -0.41083998653 
-0.53228918676 -0.57052094363 -0.56469652115 -0.44405902521 -0.33122009289 -0.23958350541 -0.15954487694 -0.11242948693 -0.071710835837 
-0.049969176883 -0.031696302855 -0.024188623427 -0.020419663931 -0.028801544215 -0.046606254238 -0.09651838411 -0.25509385266 -0.80234972495 
-1.20768309 -1.0793878276 -0.89152220501 -0.46785723991 -0.11782175293 -0.075109305114 -0.038723466728 -0.03023222447 -0.022838188783 
-0.020564450424 -0.018398207393 -0.016764066237 -0.014823914497 -0.011273180737 -0.0072112087714 -0.00028062242781 0.0073612908709 0.0192711659 
0.03159880523 0.046615802246 0.061274333766 0.073447504514 0.084498013831 0.087128562418 0.088593105677 0.080550220878 0.07231819499 
0.062399661067 0.051979037891 0.036628811152 0.021469985238 0.0083974283151 -0.0044057928665 -0.013917132766 -0.023372568826 -0.032052339103 
-0.040468395627 -0.044665032119 -0.049030331093 -0.05657210683 -0.064332892793 -0.077087111888 -0.09077589549 -0.13133340865 -0.17709767639 
-0.42418978783 -0.66154642047 -0.32937754268 0 0 0 
FrenetTangent 3 240 double
-0.46233412263 -0.44824630312 0.76506366453 -0.46233412263 -0.44824630312 0.76506366453 -0.46233412263 -0.44824630312 0.76506366453 
-0.5055186377 -0.48425501653 0.70961493029 -0.54906912322 -0.52056888853 0.65369629151 -0.58026513765 -0.54985536049 0.59651299517 
-0.61124996453 -0.57902170596 0.53930808075 -0.63186534162 -0.60294624404 0.48268641117 -0.65221254328 -0.62673521814 0.42607982551 
-0.6639776478 -0.646891561 0.3701022171 -0.6754442446 -0.66692155147 0.31414648616 -0.67947966788 -0.68436078145 0.2577600298 
-0.6831891625 -0.70168638157 0.20135468197 -0.67989180608 -0.71667177424 0.14305031506 -0.67622240448 -0.73153290811 0.084645115277 
-0.66543518259 -0.74336144226 0.023282764796 -0.65420309694 -0.75500043892 -0.038264407604 -0.63577837724 -0.76205697197 -0.10243720657 
-0.61683526951 -0.76878323737 -0.16679923988 -0.59153216556 -0.76923398944 -0.23135064963 -0.56570869829 -0.76917129041 -0.29591755382 
-0.53603504876 -0.76221087178 -0.35652427557 -0.5060081715 -0.75461763485 -0.41676767784 -0.47600597131 -0.74144691732 -0.46898556921 
-0.44600628451 -0.72770812306 -0.52038604743 -0.4196899426 -0.71115385318 -0.56174135171 -0.3937866861 -0.69428382903 -0.60197009442 
-0.37356018213 -0.67728257098 -0.63262006645 -0.35402988365 -0.66026521821 -0.66209528358 -0.34014547566 -0.64465208047 -0.68401920787 
-0.32701385307 -0.62922617141 -0.70493629311 -0.31801069645 -0.61546162101 -0.72083048571 -0.30960299165 -0.60193668965 -0.73600022265 
-0.30298259199 -0.58950447931 -0.74856608084 -0.29663983196 -0.57724201204 -0.76072745301 -0.2892769664 -0.56521396761 -0.77234898476 
-0.28174408325 -0.55322499367 -0.78388054309 -0.27005641476 -0.54067872239 -0.79640926801 -0.25762828948 -0.5280331308 -0.80911570577 
-0.23760185036 -0.51427564032 -0.82353418547 -0.21613173159 -0.50030688907 -0.83827795313 -0.18349538995 -0.48502742343 -0.85404910651 
-0.1486032457 -0.46948316701 -0.87002781257 -0.099840410376 -0.45299102241 -0.88417350696 -0.04810528411 -0.43629575891 -0.89792641313 
0.017018340531 -0.41995205175 -0.90473634581 0.085178531812 -0.40368807902 -0.90997158347 0.16055976002 -0.39028887482 -0.90326373789 
0.23767102832 -0.37757602142 -0.89369452863 0.31144484334 -0.37077271655 -0.87163646768 0.38437551228 -0.36546235027 -0.84642332841 
0.44500421935 -0.36805558393 -0.81373282408 0.50236112805 -0.37275083885 -0.77905365882 0.54422635932 -0.38537198151 -0.7433021069 
0.58176058399 -0.40020896374 -0.70725074796 0.60508944138 -0.4215730377 -0.6739956355 0.62424933228 -0.44485267119 -0.64156116061 
0.63188541217 -0.47306663972 -0.6126462376 0.63597570405 -0.50279886519 -0.58481425363 0.63086805159 -0.53632054145 -0.55907618824 
0.62279661706 -0.57106326296 -0.53401282994 0.60697313159 -0.6089568526 -0.50830132479 0.58853659524 -0.64791253262 -0.48237134317 
0.56275760134 -0.68962963336 -0.45198632398 0.5343920599 -0.73231950732 -0.42003191657 0.49791154751 -0.77681579111 -0.3786937348 
0.45844621823 -0.82197650152 -0.33390404982 0.40866233164 -0.86578214585 -0.27374744079 0.35491899864 -0.90906782296 -0.20769422137 
0.28816667049 -0.9425459627 -0.12152818548 0.21621074429 -0.97210108749 -0.027317023 0.13226205768 -0.97750692977 0.083449261014 
0.043316387557 -0.97285057101 0.20111351234 -0.047834752717 -0.93502745255 0.31761929157 -0.13994248245 -0.88281875158 0.43362260098 
-0.22154762162 -0.80763965823 0.52902712192 -0.29841378699 -0.72209587563 0.61513706756 -0.36066382294 -0.63217162851 0.67648135378 
-0.4160569093 -0.54019234864 0.72620718248 -0.45993885983 -0.45394145773 0.75786054331 -0.49820913163 -0.37048315644 0.78070357605 
-0.52870266389 -0.29424786322 0.79279316734 -0.55525860651 -0.22166978929 0.79943797814 -0.57604043906 -0.15471298275 0.80020287563 
-0.59378716249 -0.090710944972 0.79787704945 -0.60638057415 -0.030618958421 0.79264159459 -0.61616308849 0.027340272918 0.78581906955 
-0.62079152977 0.082220782227 0.77802570331 -0.62250385076 0.13535938302 0.76968304536 -0.61902042633 0.1852573157 0.76184382231 
-0.61248883125 0.23325405643 0.75429994775 -0.6009859199 0.27722738269 0.74851379566 -0.58645991084 0.31875403798 0.74379652885 
-0.56749721056 0.35517802347 0.74192091522 -0.54573878704 0.38838662797 0.74183593237 -0.52017854121 0.4154912773 0.74540566667 
-0.49213655026 0.43861140032 0.75136111911 -0.46068940109 0.45494300792 0.76130288814 -0.42694017313 0.46668519664 0.77393963178 
-0.38982865979 0.4710739694 0.79026739575 -0.35036354668 0.47031535098 0.80917887396 -0.30731625969 0.4616578279 0.83070883563 
-0.26167319451 0.44727646087 0.85413624907 -0.21231715696 0.42452223664 0.878226256 -0.16017639013 0.3954883695 0.90281320805 
-0.10478974982 0.35784205666 0.92535553935 -0.046883924142 0.31351145761 0.94631100083 0.01278988169 0.26098013768 0.96217804368 
0.073883429159 0.20186339038 0.97395893219 0.13420912869 0.1360562395 0.97803849244 0.19389692377 0.064690907177 0.97572002614 
0.2497963648 -0.010654772019 0.96441865256 0.30244018908 -0.089421061814 0.94539759303 0.3487665495 -0.16882117387 0.91793211856 
0.3894773865 -0.24878468349 0.88296049747 0.42266427189 -0.32632561585 0.8415459274 0.44893397598 -0.4016393401 0.79420800102 
0.46797595579 -0.47247074219 0.74292395214 0.48014567318 -0.53904026419 0.68788785235 0.48640733999 -0.60021834197 0.63100248367 
0.48685942374 -0.65609483294 0.57229866726 0.48304255296 -0.70655259798 0.5130333562 0.4748843725 -0.75149979427 0.45319703365 
0.46396539777 -0.79137711562 0.3934353253 0.45014282907 -0.82592232714 0.33375209052 0.43482679893 -0.85578323102 0.2745528735 
0.41788630196 -0.88054892307 0.21588013196 0.40049355925 -0.90102598195 0.15823707397 0.38259204008 -0.91667832852 0.10175240997 
0.36515003751 -0.92856619902 0.047158221258 0.34824274519 -0.93607358828 -0.0052361416664 0.33265648543 -0.94060210204 -0.054651638625 
0.31866035746 -0.94154493234 -0.10048146359 0.30676697843 -0.94055420522 -0.14227662727 0.29749211698 -0.93715565189 -0.17904749577 
0.29100104803 -0.93291233738 -0.21098318384 0.28809678865 -0.92758058058 -0.23668892787 0.28855443964 -0.92222781918 -0.25705496215 
0.29349463778 -0.91684705163 -0.2703013834 0.30228731035 -0.91173558127 -0.27787178981 0.31639639766 -0.90699574104 -0.27760929576 
0.33470967578 -0.90209540811 -0.27137390403 0.35902894078 -0.89696579991 -0.25660580134 0.38751773012 -0.89043432143 -0.23568574934 
0.42217394089 -0.88182924313 -0.205665939 0.46013750406 -0.8699323617 -0.16988259571 0.50316764961 -0.85299271799 -0.12527001048 
0.5474659236 -0.83102320832 -0.076487641747 0.59377666228 -0.80107152006 -0.021088007893 0.63861319183 -0.76582205024 0.035562484754 
0.68102546633 -0.72186067298 0.094269945195 0.71988995176 -0.674398814 0.15107644631 0.75270706943 -0.62097022479 0.20464267584 
0.78148301271 -0.56685209007 0.25446284998 0.80311641521 -0.51151522373 0.29766208903 0.82140494032 -0.45772490966 0.33700184047 
0.8335611902 -0.40676994142 0.36926586463 0.84336782115 -0.35840004302 0.39857242442 0.84870444534 -0.31494808236 0.42225258858 
0.85247414332 -0.27422837744 0.44407200906 0.85314916207 -0.23890487759 0.46221646078 0.8527720822 -0.20601286506 0.47935465721 
0.85023685134 -0.17810851883 0.4944287402 0.84702007742 -0.15213162659 0.50896611215 0.84235054067 -0.13026325472 0.52235944214 
0.83734686755 -0.10974472015 0.53530492634 0.831602676 -0.092217716879 0.54725788745 0.82591769222 -0.07549385668 0.55855283774 
0.82036921527 -0.060621687453 0.56833070751 0.8153087504 -0.046004872357 0.57708635458 0.81141951451 -0.032000907179 0.58338866715 
0.80837737694 -0.017788449244 0.58830373918 0.80745298513 -0.0030547594185 0.58975070983 0.80752875183 0.012209396027 0.58957824094 
0.81021099217 0.028855977028 0.58518541442 0.81376052592 0.046168936725 0.579157595 0.8196680136 0.0652936135 0.56868463864 
0.82606885717 0.084958415156 0.55681772202 0.83387019486 0.10615647454 0.54099375695 0.84170246623 0.12755989741 0.52426748059 
0.84962650754 0.14957256526 0.50486434742 0.85722788926 0.1713203762 0.48520366788 0.86382791368 0.19224621738 0.46474370654 
0.8699713104 0.21243799707 0.44466942773 0.87463066709 0.2302440769 0.4258486172 0.87890017267 0.24689122484 0.40794910673 
0.88184129671 0.25958941971 0.39318884092 0.88454977239 0.27080225089 0.37972679698 0.88642608276 0.27670205039 0.3709083928 
0.88820620647 0.28086376418 0.3635950472 0.88962466839 0.27849027566 0.36194072185 0.89096977487 0.27412091452 0.36188531569 
0.89202451611 0.26185122424 0.36815896467 0.89283888248 0.24732098869 0.37602607265 0.89264994505 0.22335543375 0.39054413996 
0.89182575777 0.19697479357 0.40646783729 0.88820069616 0.15994582295 0.42858908512 0.88336966276 0.12065764056 0.45168027913 
0.87291076098 0.070826469917 0.47929788863 0.86074651763 0.019354648747 0.50719422221 0.84014083347 -0.040238392544 0.53647024001 
0.81776527865 -0.10041007262 0.56524346983 0.78607461502 -0.16362721998 0.5913704471 0.75309301787 -0.22637729458 0.6164652269 
0.71286784925 -0.28650657208 0.63576823207 0.67203997766 -0.34561286643 0.65391615027 0.62759588824 -0.3985812619 0.66513354669 
0.58305791857 -0.45050834415 0.67531755525 0.53791559476 -0.49573197254 0.67884912944 0.49288556887 -0.54016965144 0.68150754233 
0.44863414191 -0.57915808048 0.6781120369 0.40451700694 -0.61761653124 0.67395568305 0.36140706184 -0.6521001449 0.664092966 
0.31838903844 -0.68619288146 0.65356412004 0.27612053043 -0.71709846622 0.63760376157 0.23390132356 -0.74764244987 0.62109027464 
0.19212171859 -0.77496215689 0.59964472572 0.15039230134 -0.80190311178 0.57776826723 0.10915563634 -0.82512540932 0.55166106027 
0.067965217668 -0.8479419373 0.52527387855 0.027278884066 -0.86633557719 0.49583497213 -0.013323508008 -0.88431861117 0.46627049944 
-0.052899948068 -0.8972831285 0.435171328 -0.092339502941 -0.90987577702 0.40408356555 -0.12987977586 -0.91730874582 0.37315410299 
-0.16722781585 -0.9244447805 0.34235474485 -0.20150012889 -0.92682986931 0.31363705727 -0.2355320555 -0.9290222437 0.28512495455 
-0.26503670416 -0.92758516317 0.26048470007 -0.29429837447 -0.92605540579 0.23607638225 -0.31802013819 -0.92241261647 0.21695622032 
-0.34151796594 -0.91875383942 0.19805524387 -0.35857763434 -0.91463541528 0.18545584967 -0.37546336326 -0.91053930493 0.17302609771 
-0.38562343198 -0.90730599506 0.16715584576 -0.39567383197 -0.90409891455 0.16139030701 -0.39930861078 -0.90242625173 0.16175049014 
-0.40291284523 -0.9007676449 0.16210764652 -0.40291284523 -0.9007676449 0.16210764652 -0.40291284523 -0.9007676449 0.16210764652 

FrenetNormal 3 240 double
-0.59784762222 -0.47962326036 -0.64229257253 -0.59784762222 -0.47962326036 -0.64229257253 -0.59784762222 -0.47962326036 -0.64229257253 
-0.54494543089 -0.45555964032 -0.69909100788 -0.49159491591 -0.4312920913 -0.7563707859 -0.43370188772 -0.40930172107 -0.79917229223 
-0.37573120973 -0.38735027696 -0.84172630674 -0.31469442112 -0.36826286418 -0.87196350665 -0.25357833653 -0.34924952118 -0.90188216826 
-0.19075356047 -0.33140652772 -0.92147122435 -0.12786935166 -0.31360424207 -0.94070098981 -0.065298196331 -0.29350192057 -0.95138689203 
-0.0027407714205 -0.2732987203 -0.9616980634 0.057224531421 -0.24692583532 -0.96510521966 0.11705219946 -0.22022535645 -0.96814579105 
0.17243099239 -0.18458900894 -0.96530753411 0.22753173063 -0.14839416964 -0.9621018504 0.27672559027 -0.10276410513 -0.95301297179 
0.32549372893 -0.056454024391 -0.94350007914 0.36716296098 -0.0033816007711 -0.92754206445 0.4082513734 0.050244105448 -0.91105672159 
0.43937612126 0.10697042954 -0.88929477211 0.46958677146 0.16398121398 -0.86704873029 0.48773666215 0.2197805047 -0.84250401627 
0.50465814214 0.27545640255 -0.81772517823 0.50759589703 0.32811291277 -0.79462757834 0.50896538368 0.38043080007 -0.77171852852 
0.49481858655 0.43035161448 -0.75293502921 0.47876884894 0.47997844826 -0.73465749365 0.44826238121 0.52703741579 -0.71962987289 
0.41582834947 0.57375400116 -0.7050355741 0.38153631623 0.61193619474 -0.69081638595 0.34697630201 0.64888746643 -0.6766513003 
0.34422373365 0.66472214653 -0.66280119675 0.34641212776 0.67727657941 -0.64900002245 0.40002850756 0.65969602808 -0.63259639309 
0.46221621832 0.63709297938 -0.61575902122 0.54412067603 0.59149759643 -0.5860397208 0.62953900943 0.54180456976 -0.55402463113 
0.70199901264 0.4891462824 -0.50794776241 0.7719969331 0.43592459552 -0.45919915568 0.82483499439 0.3904035494 -0.3988908321 
0.87420641745 0.34643818829 -0.33624721219 0.90981026388 0.30957014515 -0.26130262153 0.94246391532 0.27422295587 -0.18372210856 
0.96102152853 0.24079984877 -0.093669095156 0.97638210214 0.20781313144 -0.00078726722594 0.97442212801 0.16957780402 0.099945477133 
0.96831243932 0.1300849971 0.20255917022 0.94225478133 0.077019439851 0.30389185032 0.91115763636 0.020524977252 0.40490090608 
0.85647462148 -0.059014754717 0.4949874838 0.79551876887 -0.14468354769 0.58216914714 0.70055661292 -0.25600661898 0.64550329992 
0.5960873184 -0.3745018541 0.70217040674 0.45308346224 -0.49496718911 0.71623093452 0.29877054996 -0.61601070561 0.71778735758 
0.13874962829 -0.69665986885 0.68107267443 -0.023027603963 -0.76488000033 0.63258226629 -0.14994858652 -0.78708177624 0.58590062481 
-0.26563811085 -0.79445541536 0.53980180815 -0.34552576844 -0.77816202731 0.51967533985 -0.41334538106 -0.75389098965 0.50830359572 
-0.45860862765 -0.71654828308 0.52228916694 -0.49592588165 -0.67460078406 0.54520742878 -0.52112729192 -0.61839965314 0.58334748608 
-0.54187229989 -0.55695580704 0.6270863647 -0.55765501641 -0.47601201737 0.67302010253 -0.57153359783 -0.38758569121 0.71979605379 
-0.58279592995 -0.27550339722 0.75487749122 -0.59301176235 -0.1539587161 0.78528112311 -0.59636779259 -0.013263710342 0.78981669947 
-0.59686557192 0.13541059735 0.78357391936 -0.58454719963 0.28309589632 0.74536034575 -0.56667001458 0.43035222765 0.69327992196 
-0.53950598906 0.55367952174 0.61933961221 -0.5081515599 0.66620956733 0.53553569538 -0.47610176863 0.74918433607 0.44628317101 
-0.44372575809 0.8182936663 0.35447450977 -0.41335870537 0.86553248895 0.26757369766 -0.38397101958 0.90210943915 0.18306546198 
-0.35274006646 0.92642720383 0.10860989868 -0.32057581341 0.94453778596 0.039244296063 -0.28128133362 0.95741051693 -0.017377486343 
-0.23823891413 0.96753001843 -0.067300594023 -0.18516747841 0.97523417976 -0.10398135717 -0.12662567021 0.98162088283 -0.13343902331 
-0.057728134193 0.98446560162 -0.15009330056 0.01702856361 0.985306303 -0.15950355515 0.10137841906 0.97890061422 -0.15565285694 
0.19135626034 0.96824370987 -0.14402239976 0.29002482842 0.94385110772 -0.11668457845 0.39397829794 0.91110571637 -0.079794981668 
0.50252971399 0.85301332813 -0.023928172863 0.6139784662 0.77894885965 0.043896879133 0.71302465439 0.66839647007 0.12503963429 
0.8039747244 0.53402557644 0.21487589012 0.86051752314 0.37927511922 0.29401964504 0.89379906804 0.21074692889 0.36593466695 
0.89950860561 0.054599111103 0.41109018066 0.88591773804 -0.092882445904 0.43751403863 0.86567939622 -0.21618152701 0.44035057941 
0.8406240441 -0.32195707486 0.42609486136 0.81695030501 -0.41105685287 0.39618428526 0.79431277571 -0.48764980351 0.35453256562 
0.77174483846 -0.55416427635 0.30168637122 0.74923091294 -0.61285664701 0.24015192775 0.72292130417 -0.66427345055 0.17056340587 
0.69356364674 -0.7098477532 0.09450721495 0.65767167475 -0.74792408532 0.013795115155 0.61635119527 -0.77977133421 -0.070784970478 
0.56770480886 -0.80312769145 -0.1559161413 0.51276272119 -0.81918718868 -0.24152090096 0.45177835942 -0.8263340783 -0.32362660251 