# vtk DataFile Version 5.1
vtk output
ASCII
DATASET POLYDATA
POINTS 240 float
0 0 0 -0.102225 -0.218948 -0.108941 -0.204451 -0.437896 -0.217882 
-0.344916 -0.625268 -0.305366 -0.485705 -0.812373 -0.392669 -0.655844 -0.973339 -0.465413 
-0.826485 -1.13386 -0.537908 -1.01777 -1.27357 -0.602598 -1.20958 -1.41274 -0.667087 
-1.41361 -1.53625 -0.73031 -1.61806 -1.65922 -0.793489 -1.82675 -1.7714 -0.861569 
-2.03563 -1.88312 -0.929864 -2.2415 -1.98845 -1.00858 -2.44721 -2.09344 -1.08785 
-2.64366 -2.1958 -1.18206 -2.83954 -2.298 -1.2772 -3.02116 -2.40049 -1.39045 
-3.20176 -2.50299 -1.50499 -3.36445 -2.6078 -1.63919 -3.52567 -2.7128 -1.775 
-3.66662 -2.82111 -1.93031 -3.8057 -2.92972 -2.08742 -3.92323 -3.04162 -2.26235 
-4.03855 -3.15386 -2.43911 -4.13179 -3.26827 -2.63088 -4.22255 -3.38292 -2.82434 
-4.29109 -3.49759 -3.02939 -4.3569 -3.61226 -3.23587 -4.40049 -3.724 -3.45041 
-4.44113 -3.83535 -3.66603 -4.45952 -3.94044 -3.88648 -4.47471 -4.04463 -4.10762 
-4.4676 -4.13945 -4.33086 -4.45702 -4.23281 -4.55442 -4.42418 -4.31459 -4.77801 
-4.38762 -4.39443 -5.00159 -4.3291 -4.46189 -5.22373 -4.26667 -4.52715 -5.44562 
-4.18311 -4.58093 -5.66519 -4.09554 -4.63252 -5.88432 -3.98835 -4.67524 -6.1007 
-3.8772 -4.71616 -6.31654 -3.74877 -4.75224 -6.52949 -3.61663 -4.78728 -6.74184 
-3.47032 -4.82252 -6.95121 -3.32081 -4.85781 -7.1599 -3.16096 -4.8988 -7.36523 
-2.99864 -4.94116 -7.56975 -2.83025 -4.99458 -7.76989 -2.66032 -5.05079 -7.96893 
-2.4888 -5.12268 -8.16167 -2.31685 -5.19875 -8.35274 -2.14766 -5.2939 -8.53455 
-1.97925 -5.39438 -8.71377 -1.8176 -5.51566 -8.87974 -1.65794 -5.64304 -9.04182 
-1.50845 -5.79098 -9.18585 -1.36208 -5.94525 -9.32433 -1.22853 -6.11784 -9.43964 
-1.09912 -6.29634 -9.54749 -0.9843 -6.48911 -9.6273 -0.874404 -6.68669 -9.69767 
-0.779972 -6.89305 -9.73604 -0.690986 -7.10249 -9.76314 -0.617402 -7.3143 -9.75578 
-0.549482 -7.52698 -9.73574 -0.496013 -7.73534 -9.68069 -0.44809 -7.94206 -9.61222 
-0.412888 -8.13824 -9.51031 -0.382774 -8.33021 -9.39502 -0.363054 -8.5065 -9.24982 
-0.347663 -8.67625 -9.09215 -0.339967 -8.8267 -8.90957 -0.335607 -8.96879 -8.7162 
-0.336128 -9.08989 -8.50389 -0.338852 -9.20152 -8.28304 -0.343796 -9.29253 -8.04954 
-0.349781 -9.37388 -7.8101 -0.355715 -9.4371 -7.56398 -0.361624 -9.49148 -7.31459 
-0.365769 -9.53205 -7.06369 -0.369021 -9.56562 -6.81203 -0.369442 -9.5911 -6.56294 
-0.368375 -9.61232 -6.3152 -0.364067 -9.63187 -6.07286 -0.35799 -9.6505 -5.83345 
-0.348851 -9.67378 -5.60098 -0.337978 -9.69969 -5.37243 -0.32468 -9.73559 -5.15114 
-0.309959 -9.77733 -4.93412 -0.293707 -9.83271 -4.72373 -0.276523 -9.89638 -4.51737 
-0.258729 -9.97532 -4.3163 -0.24055 -10.0639 -4.11857 -0.222496 -10.1674 -3.92447 
-0.204523 -10.2807 -3.73272 -0.187066 -10.407 -3.54291 -0.169958 -10.5422 -3.35441 
-0.15334 -10.6876 -3.16643 -0.137065 -10.8402 -2.97881 -0.120887 -10.9999 -2.7908 
-0.104778 -11.1647 -2.60249 -0.0881557 -11.3338 -2.41341 -0.0711476 -11.5061 -2.22375 
-0.0529964 -11.6806 -2.03344 -0.0339581 -11.8567 -1.84263 -0.0133236 -12.0337 -1.65169 
0.00859277 -12.2113 -1.46065 0.0322366 -12.3892 -1.27021 0.0573156 -12.5674 -1.08028 
0.0838723 -12.746 -0.891786 0.111699 -12.925 -0.704525 0.140436 -13.1051 -0.519514 
0.169984 -13.2861 -0.336503 0.199715 -13.469 -0.15651 0.229616 -13.6536 0.0207069 
0.259016 -13.841 0.194173 0.287941 -14.0309 0.364074 0.315938 -14.2243 0.529495 
0.343023 -14.421 0.690511 0.369192 -14.6217 0.846297 0.394428 -14.8263 0.996764 
0.419294 -15.035 1.14124 0.443769 -15.248 1.27943 0.468932 -15.4648 1.41095 
0.494841 -15.6858 1.53521 0.522883 -15.9102 1.65231 0.553322 -16.1382 1.76138 
0.587524 -16.3687 1.86317 0.626105 -16.6019 1.9565 0.670021 -16.8364 2.04297 
0.720359 -17.0722 2.12117 0.777293 -17.3078 2.19356 0.842443 -17.543 2.25872 
0.914952 -17.7763 2.31977 0.996946 -18.0071 2.37554 1.08648 -18.2344 2.42945 
1.18607 -18.457 2.48089 1.29281 -18.6746 2.53303 1.40941 -18.8852 2.58613 
1.53232 -19.0896 2.64248 1.66423 -19.2851 2.70346 1.80131 -19.4735 2.76982 
1.94607 -19.6515 2.84415 2.09484 -19.8222 2.92526 2.24976 -19.9817 3.01676 
2.4077 -20.1341 3.11548 2.57041 -20.2753 3.22565 2.73542 -20.4102 3.34242 
2.90421 -20.5346 3.47005 3.07497 -20.6539 3.60274 3.24907 -20.7643 3.74406 
3.42514 -20.8708 3.88821 3.60468 -20.9703 4.03736 3.78644 -21.0672 4.18682 
3.97227 -21.1591 4.33685 4.16064 -21.2493 4.48478 4.35387 -21.3363 4.62875 
4.54992 -21.4221 4.76871 4.75156 -21.5055 4.90076 4.95611 -21.5877 5.02765 
5.16664 -21.6676 5.14392 5.37991 -21.7458 5.25472 5.59902 -21.8205 5.35384 
5.82042 -21.8925 5.44801 6.04689 -21.9589 5.53123 6.27498 -22.0216 5.61068 
6.50683 -22.0758 5.68148 6.73952 -22.1253 5.75009 6.97422 -22.1634 5.81347 
7.20899 -22.1961 5.87635 7.44391 -22.215 5.93798 7.67822 -22.228 6.00062 
7.91095 -22.2258 6.06591 8.14263 -22.218 6.13337 8.37144 -22.1948 6.20669 
8.59902 -22.1669 6.28283 8.82309 -22.1252 6.36693 9.046 -22.08 6.454 
9.26547 -22.0242 6.54987 9.48406 -21.9665 6.64845 9.69991 -21.9026 6.75544 
9.91527 -21.8383 6.86461 10.129 -21.7728 6.98084 10.3426 -21.7086 7.0986 
10.5559 -21.6483 7.22154 10.7694 -21.5905 7.34537 10.9835 -21.5411 7.4724 
11.198 -21.495 7.59983 11.4135 -21.4611 7.72879 11.6294 -21.4307 7.85785 
11.8462 -21.4149 7.98732 12.063 -21.4029 8.11678 12.2798 -21.4066 8.24618 
12.4964 -21.4139 8.37562 12.7116 -21.4373 8.50519 12.9261 -21.4641 8.63493 
13.1372 -21.5065 8.76549 13.3473 -21.552 8.89642 13.5519 -21.6122 9.02915 
13.7552 -21.6751 9.16245 13.9511 -21.7517 9.29867 14.1454 -21.8305 9.43562 
14.3309 -21.9219 9.5766 14.5146 -22.0152 9.7184 14.6885 -22.1196 9.86514 
14.8607 -22.2255 10.0127 15.0224 -22.3411 10.1658 15.1827 -22.4579 10.3197 
15.3325 -22.583 10.4792 15.481 -22.7091 10.6393 15.6195 -22.8424 10.8042 
15.7568 -22.9765 10.9695 15.8849 -23.1172 11.138 16.0119 -23.2587 11.3066 
16.1301 -23.4069 11.4758 16.2475 -23.556 11.6448 16.3564 -23.7126 11.8111 
16.4644 -23.8701 11.9768 16.5639 -24.0367 12.1361 16.6627 -24.2041 12.2945 
16.7522 -24.3822 12.4428 16.8409 -24.5611 12.5901 16.919 -24.752 12.7241 
16.9964 -24.9436 12.8572 17.0616 -25.1478 12.975 17.1261 -25.3527 13.0918 
17.1765 -25.5699 13.1925 17.2262 -25.7875 13.2925 17.2598 -26.0161 13.3768 
17.2927 -26.245 13.4606 17.3078 -26.4828 13.5303 17.3225 -26.7207 13.5997 
17.318 -26.9649 13.6572 17.3132 -27.2091 13.7147 17.2887 -27.4567 13.7627 
17.264 -27.7043 13.8107 17.2197 -27.9525 13.8518 17.1754 -28.2007 13.8928 

LINES 2 240
OFFSETS vtktypeint64
0 240 
CONNECTIVITY vtktypeint64
0 1 2 3 4 5 6 7 8 
9 10 11 12 13 14 15 16 17 
18 19 20 21 22 23 24 25 26 
27 28 29 30 31 32 33 34 35 
36 37 38 39 40 41 42 43 44 
45 46 47 48 49 50 51 52 53 
54 55 56 57 58 59 60 61 62 
63 64 65 66 67 68 69 70 71 
72 73 74 75 76 77 78 79 80 
81 82 83 84 85 86 87 88 89 
90 91 92 93 94 95 96 97 98 
99 100 101 102 103 104 105 106 107 
108 109 110 111 112 113 114 115 116 
117 118 119 120 121 122 123 124 125 
126 127 128 129 130 131 132 133 134 
135 136 137 138 139 140 141 142 143 
144 145 146 147 148 149 150 151 152 
153 154 155 156 157 158 159 160 161 
162 163 164 165 166 167 168 169 170 
171 172 173 174 175 176 177 178 179 
180 181 182 183 184 185 186 187 188 
189 190 191 192 193 194 195 196 197 
198 199 200 201 202 203 204 205 206 
207 208 209 210 211 212 213 214 215 
216 217 218 219 220 221 222 223 224 
225 226 227 228 229 230 231 232 233 
234 235 236 237 238 239 
CELL_DATA 1
FIELD FieldData 3
Length 1 1 double
59.226106218 
Tortuosity 1 1 double
0.65329780642 
ClusterLabel 1 1 int
1 
POINT_DATA 240
FIELD FieldData 6
Curvature 1 240 double
0 0.19785591481 0.39571182962 0.37239293162 0.3471996708 0.30343994522 0.25936284418 0.21498607382 0.17060155339 
0.13948894761 0.10883797364 0.10774680859 0.10795212639 0.13127787941 0.15583126615 0.18390105864 0.21219062649 0.23444017933 
0.25625441578 0.26711824168 0.2770861249 0.27600400481 0.27390812294 0.2653712545 0.25617835965 0.24634277625 0.23643511564 
0.23003167869 0.22405800501 0.22345387174 0.22356567719 0.22856494007 0.2342691247 0.24169125454 0.24938024965 0.25383179544 
0.25774376634 0.2538230811 0.24850647694 0.23419735809 0.21817966145 0.19650415316 0.17368565262 0.15156113581 0.1295853298 
0.11656024892 0.1055652294 0.10832009534 0.11436920467 0.12901709455 0.14583730793 0.16577475313 0.18654124936 0.20855352551 
0.23091408423 0.25441083612 0.27824103602 0.30374143769 0.32975574759 0.35779270251 0.3864813986 0.41604183268 0.44589611103 
0.47278969392 0.49864030454 0.51544572941 0.52892418939 0.52887074693 0.52362483026 0.50612704603 0.48372851477 0.45470005465 
0.42290912416 0.38983029251 0.35619285312 0.32380434335 0.29197937498 0.26139776681 0.23139946343 0.2015982618 0.17189314727 
0.14128612456 0.11022243949 0.081934953459 0.055106751538 0.059218033283 0.080205397028 0.11560906292 0.15916932083 0.19870161742 
0.23587084337 0.25911306219 0.27388615504 0.27180311905 0.25909841283 0.23590617004 0.20586789645 0.17405158749 0.14103322646 
0.11154278312 0.084521882185 0.062638807048 0.044478794087 0.032013762452 0.023819966813 0.020546313815 0.021091278987 0.0222601122 
0.023929930355 0.025471325218 0.02690602996 0.029654735131 0.033532659419 0.039196520514 0.046447880992 0.054588935064 0.063547933245 
0.072483853175 0.081397829848 0.089776640534 0.097629204666 0.10460298902 0.11068309903 0.11622900866 0.12121308687 0.12605217176 
0.13073354464 0.13531530125 0.13978498957 0.14387572588 0.14752549985 0.15044383773 0.15248174327 0.15391261522 0.15458755852 
0.15558036526 0.15698272681 0.15998047027 0.16510538961 0.17238529986 0.18263909757 0.19417348624 0.20753729054 0.21935519036 
0.2288864398 0.23444345938 0.23391229708 0.22854435416 0.2155006507 0.19874117571 0.17587132087 0.15187290116 0.1259507913 
0.10302978566 0.085413057264 0.075422499626 0.079413255048 0.08752838694 0.10348989358 0.11872869135 0.13254013911 0.14394271873 
0.15040403039 0.15450746822 0.15358491182 0.15173428484 0.14782685282 0.14506274974 0.14493465505 0.14701490442 0.15439517951 
0.16280954507 0.17380913681 0.18350427608 0.18979993317 0.19333953167 0.18938609586 0.1825111161 0.16734272124 0.15056523973 
0.12901413447 0.10790651428 0.088175227104 0.072157529295 0.06820899693 0.068038381409 0.08074066773 0.093882733236 0.10859785506 
0.12245109456 0.13306365657 0.14261500473 0.14796571476 0.15250927452 0.1536838592 0.15448377025 0.1536317112 0.15270095452 
0.15140294222 0.1502367702 0.14972320752 0.1492637262 0.14908888353 0.14874321491 0.14743902288 0.14586758731 0.14269269041 
0.13927212572 0.13427007461 0.12906867555 0.12248513072 0.11588468466 0.10915747945 0.10273233353 0.098770132626 0.09544690078 
0.097821143011 0.10085251396 0.11033569419 0.12028056928 0.1352579183 0.15028316588 0.16589384018 0.18127151507 0.19341632301 
0.20521368474 0.21145190709 0.21735573343 0.21696176797 0.21634926533 0.21075411495 0.20509882143 0.19771441241 0.19032327164 
0.18267183636 0.1750302645 0.16796570291 0.16028703246 0.080143516229 0 
Torsion 1 240 double
0 0 0 0.075532546036 0.15170519839 0.22124770071 0.29067686713 0.47044799211 0.65307278843 
1.0742882453 1.5038025078 1.4578118052 1.3909656216 1.0090949287 0.6104972706 0.43980812377 0.2833632589 0.21611210136 
0.15528931912 0.12325793492 0.093582210554 0.071192775057 0.049471806428 0.024812941217 -0.00014515420093 -0.030053607235 -0.060517240562 
-0.088426010025 -0.11602144713 -0.12877024592 -0.13953949294 -0.12925190245 -0.1159272681 -0.088257012685 -0.058358311283 -0.023092977599 
0.013066794798 0.053859176721 0.095477172223 0.15066805516 0.20843778671 0.30172359602 0.40218437052 0.56965011697 0.75147407169 
0.90540274597 1.0530046556 0.95078121752 0.78870378985 0.59778384661 0.39957737311 0.27057724253 0.15998305422 0.08683332996 
0.024151950494 -0.020792745067 -0.060532109481 -0.090228548551 -0.11683485675 -0.13612350542 -0.15305424159 -0.163640678 -0.17208858641 
-0.17573035061 -0.17767904129 -0.17705674587 -0.17548880038 -0.1734543228 -0.17124082709 -0.16953186801 -0.16802472358 -0.16705255707 
-0.16630329804 -0.16627233271 -0.16655291645 -0.16883781896 -0.1720271092 -0.18176961057 -0.1945864579 -0.22938459543 -0.27489861192 
-0.42584359275 -0.63017134035 -1.6510495488 -3.1011401789 -2.8295362517 -1.6188262023 -0.91955172076 -0.50964209995 -0.30519572465 
-0.22128778672 -0.17162561278 -0.1427885656 -0.12295759167 -0.10880167761 -0.094875556724 -0.081099439717 -0.058512285996 -0.029968375062 
0.029713591146 0.11119219604 0.29907607472 0.56406522426 0.91843619659 1.339843536 1.2161493478 0.66939128754 0.19787365879 
-0.21322362338 -0.51874465114 -0.73655617524 -0.81711680326 -0.77972744248 -0.67664723536 -0.51517516484 -0.37363394614 -0.2504162525 
-0.14594717542 -0.059304651776 0.018078085543 0.086355366311 0.14901701566 0.20596785339 0.25652702314 0.30036392138 0.33644479701 
0.36408929717 0.3860453367 0.40160185803 0.4162093554 0.42971253396 0.44767532814 0.47100617816 0.50119889435 0.53993657594 
0.57867452393 0.61741281518 0.64079629578 0.64370669553 0.6246835475 0.57539210355 0.51539619128 0.44010818143 0.36757597127 
0.29912004816 0.2343941981 0.17538250253 0.11538886655 0.053836933819 -0.020530444079 -0.11597210959 -0.2571444882 -0.47626694594 
-0.76420667165 -1.1737769175 -1.3600492333 -1.1369420108 -0.87368398187 -0.53404149171 -0.25687272783 -0.10308957336 0.033768084893 
0.13590677656 0.23906918027 0.34441370702 0.45254388718 0.56684767761 0.66409738462 0.72202795484 0.74721367935 0.69381177415 
0.63015019138 0.54083941466 0.45976233666 0.40014277656 0.35133951062 0.33194304441 0.32546602526 0.3556635655 0.40959578149 
0.53394086889 0.71675125154 1.0810056539 1.3797545424 1.4656105107 1.4302824004 0.98203076303 0.58802068876 0.38802851325 
0.21154037935 0.12342744187 0.041718864999 -0.014639117812 -0.06904420321 -0.11529806463 -0.15939888691 -0.19400676391 -0.2258463176 
-0.24476702913 -0.26062996878 -0.26135693761 -0.25995319731 -0.24733519845 -0.23424017152 -0.21846848713 -0.20156290001 -0.17785389654 
-0.15207129926 -0.11293994184 -0.070909656359 -0.0087801362398 0.057744471269 0.1572322342 0.25779575777 0.3671308681 0.46808522537 
0.49431120116 0.51089992156 0.43286831621 0.35331452541 0.25716891319 0.16339578853 0.09861973415 0.03523555318 -0.0088363842731 
-0.052500764909 -0.089644236472 -0.12642376277 -0.1563489867 -0.18600421572 -0.20950356111 -0.2326361207 -0.24522358832 -0.25748364424 
-0.25708378139 -0.25454260011 -0.12673429035 0 0 0 
FrenetTangent 3 240 double
-0.4743640475 -0.79261454721 -0.38306778773 -0.4743640475 -0.79261454721 -0.38306778773 -0.4743640475 -0.79261454721 -0.38306778773 
-0.55184282827 -0.74918931364 -0.35386603402 -0.62997820889 -0.70539606962 -0.32441680782 -0.68447572312 -0.65920101259 -0.30224627851 
-0.73856917126 -0.61296489892 -0.28020017137 -0.77173346998 -0.57347018865 -0.26986652521 -0.8043564976 -0.53414982502 -0.25983578752 
-0.82117837278 -0.50542392542 -0.26291397178 -0.83745064266 -0.47706652893 -0.26644811855 -0.84149659941 -0.45961129421 -0.28292434443 
-0.84500631436 -0.44263422448 -0.29996820536 -0.8375696767 -0.43514481548 -0.328842234 -0.82955181678 -0.42815917609 -0.35834441314 
-0.81035430952 -0.42836945913 -0.39731054946 -0.79045807429 -0.42902948733 -0.43686818311 -0.75912513464 -0.43406978531 -0.48185114004 
-0.72696792801 -0.43942577842 -0.52722511126 -0.68467395262 -0.4462416459 -0.57279652683 -0.64155060523 -0.45317695765 -0.61838409694 
-0.59162055295 -0.45917444623 -0.65946686062 -0.54106603233 -0.46508589598 -0.7001363393 -0.48776693862 -0.46853855045 -0.73388414299 
-0.43418830506 -0.47174077207 -0.76692696127 -0.38079048639 -0.47159247206 -0.79316449049 -0.32741294602 -0.47106841262 -0.81863880972 
-0.27520577696 -0.46648404748 -0.83878010969 -0.223142144 -0.46140172033 -0.85826736013 -0.17169845728 -0.45151402458 -0.87389734595 
-0.12033743005 -0.44098561301 -0.88901302981 -0.068439863636 -0.42499325005 -0.9008940313 -0.016464911757 -0.40821281717 -0.91230849206 
0.036764243188 -0.38592367203 -0.91995047626 0.090188225794 -0.36277880459 -0.92700644469 0.14429492072 -0.33537838265 -0.92898777445 
0.19851540103 -0.30726870163 -0.93012333111 0.25135304343 -0.27778582061 -0.92521855796 0.30394423947 -0.24805821087 -0.91923729038 
0.35236306124 -0.22098512196 -0.90770648143 0.39998913189 -0.19441639201 -0.89512125963 0.44123611571 -0.17441459408 -0.87903942571 
0.48119439511 -0.15573944909 -0.86225120552 0.51386921543 -0.14632319765 -0.84452095415 0.54498329452 -0.13889099483 -0.82658883896 
0.56899181418 -0.14190746737 -0.80951677134 0.59138876366 -0.14729374257 -0.79263976605 0.60731612325 -0.16318152579 -0.77703491016 
0.62169347692 -0.18158529531 -0.76173484005 0.63017798383 -0.2098653988 -0.74676360005 0.63717377155 -0.24064057613 -0.73187543292 
0.63859920977 -0.28018670029 -0.71534703513 0.63854317206 -0.32206552308 -0.69838240579 0.63304490513 -0.37109334829 -0.67713906706 
0.62602515476 -0.42211981935 -0.65469953001 0.61363329335 -0.47803234702 -0.62501676805 0.59966483414 -0.53537882611 -0.59320827703 
0.58038858205 -0.59458581459 -0.55124279449 0.55947916293 -0.65436526751 -0.50615208379 0.53333929689 -0.71203324482 -0.44848936497 
0.50551406464 -0.76902085777 -0.38677566575 0.47269096999 -0.81876090221 -0.31130926001 0.43818320263 -0.86605794602 -0.23120711051 
0.39943560516 -0.9000460745 -0.13866546774 0.35919443117 -0.92934583508 -0.041741730758 0.31653306665 -0.93989311647 0.062599586414 
0.2729815171 -0.94354293425 0.16966920894 0.22999957669 -0.92642113956 0.27592039457 0.18723620724 -0.9013288424 0.38185752882 
0.14830718673 -0.8586234412 0.47870534458 0.1109119058 -0.80887279838 0.57191743295 0.079567528826 -0.74830198524 0.65121990709 
0.050744361834 -0.6832227678 0.72472670865 0.028600059345 -0.61449244947 0.78369978203 0.0093526137489 -0.54417852112 0.83636906971 
-0.0037733996107 -0.47574604608 0.87653727382 -0.014137303303 -0.40816251948 0.91106474512 -0.019477460546 -0.34620942022 0.93605136031 
-0.022460798466 -0.286897756 0.95656201831 -0.02161982235 -0.23579862079 0.97047917842 -0.01891449314 -0.18870309346 0.9811820083 
-0.013491528294 -0.15178400276 0.98783536076 -0.0066925454054 -0.12001753821 0.99243834492 0.0018388358423 -0.10008389394 0.99485304212 
0.01128083674 -0.086370065455 0.99611748593 0.021514466459 -0.085772773441 0.9960127739 0.032179893716 -0.092329955866 0.99516124959 
0.042604597856 -0.11224775566 0.99238052619 0.052893103389 -0.13972485213 0.98850828224 0.061790695623 -0.17846754912 0.9810239119 
0.069872285389 -0.22381939842 0.97142042739 0.075619290561 -0.27514793735 0.95691741077 0.079946615913 -0.33011094971 0.93943494893 
0.081776837214 -0.3841021861 0.91807116081 0.082033540894 -0.4374810705 0.89426160546 0.080588880018 -0.48472330994 0.869726909 
0.078033606169 -0.5279596839 0.84471885656 0.075016698938 -0.56344404369 0.82203912376 0.071687701535 -0.59368760517 0.80093346622 
0.068958961728 -0.61713970378 0.78351963015 0.066650402241 -0.63583777837 0.76869006913 0.06555536226 -0.64961990362 0.75732756617 
0.065339684241 -0.65983974673 0.74847742413 0.066512646847 -0.66694325036 0.7421073958 0.068727089924 -0.67170949939 0.73759745275 
0.072144832502 -0.67483676712 0.73441711126 0.076496479171 -0.67669198967 0.73226869933 0.081571245253 -0.67813541365 0.73037621192 
0.087226698135 -0.67924815092 0.72868923965 0.092928890734 -0.6809153987 0.7264175301 0.098669913253 -0.68304331676 0.72366003881 
0.1037578739 -0.68638909756 0.71975967542 0.10828460949 -0.69078147915 0.71487715631 0.11163620038 -0.6967485325 0.70850963856 
0.11394321819 -0.70411529409 0.70082212202 0.11488819081 -0.71309837709 0.69145805178 0.1145809606 -0.72356743301 0.68055263379 
0.11314496454 -0.73544015177 0.66785352366 0.11063571569 -0.74864750077 0.65344893576 0.10764762731 -0.76288994812 0.6371622463 
0.10418868004 -0.77815024218 0.61902482362 0.1012138603 -0.7939547718 0.59902133381 0.098731373636 -0.81031276133 0.57712014859 
0.097798011636 -0.8266625194 0.55352401206 0.098493901441 -0.84300362026 0.52814525434 0.10167186844 -0.85876989228 0.50139782908 
0.10754963869 -0.87391091188 0.4731616777 0.1165380502 -0.88786383742 0.44411625781 0.12902593311 -0.90048015714 0.41416041082 
0.14483659729 -0.91126513873 0.38425420237 0.16451377059 -0.91991910869 0.35440575515 0.18725666402 -0.92617222837 0.32575581072 
0.21368977612 -0.92953543567 0.29854850855 0.24252368958 -0.93013334242 0.27386195054 0.2743472802 -0.92728766733 0.25231443241 
0.30768060915 -0.92156440388 0.23456913284 0.34295917786 -0.9121334785 0.22172284562 0.37877551553 -0.89988476788 0.21367626101 
0.41530887849 -0.88387901029 0.21202927989 0.45136680343 -0.86516088986 0.21566622058 0.48676862393 -0.8426997087 0.22659497337 
0.52069074977 -0.817610114 0.2425505047 0.55249902613 -0.78876564283 0.26568714821 0.58187372228 -0.75756090081 0.29262386267 
0.60764874771 -0.72286492486 0.32518151543 0.63037396074 -0.68661362033 0.35940237336 0.64842712074 -0.64797968479 0.39617112005 
0.66362153543 -0.60915716532 0.43214350211 0.6742792456 -0.57003537135 0.46685208811 0.68311821317 -0.5322856868 0.49876245386 
0.68896635957 -0.49679235996 0.52607130185 0.69444404119 -0.4638390678 0.54947278129 0.69929024876 -0.43521538021 0.56621397341 
0.70501495505 -0.40953150322 0.57874102144 0.71229235675 -0.38904357058 0.58381981476 0.72110862028 -0.37115550862 0.58484374786 
0.73274613047 -0.35803387621 0.57843377055 0.74592228156 -0.34668146352 0.56838506085 0.76202560313 -0.33869488347 0.55141388463 
0.77914340572 -0.33137618405 0.53153618834 0.79826480833 -0.32537654887 0.50591811491 0.81763435962 -0.31885226722 0.47857322648 
0.83751293386 -0.31125178768 0.44768615344 0.85695092339 -0.30210317623 0.41661309751 0.87544977184 -0.28965459938 0.38514360435 
0.89308121528 -0.27502182797 0.35503709691 0.90879030168 -0.25554840913 0.3279512605 0.92341628238 -0.23367689976 0.30340356216 
0.93554510273 -0.2062764594 0.28470768214 0.94639879915 -0.1766345712 0.2691623607 0.95419219814 -0.14161320815 0.26117837989 
0.96043584148 -0.10490183969 0.25637117932 0.96280509568 -0.063965457679 0.25950592937 0.96339879321 -0.022383116744 0.26528871616 
0.95936528247 0.020882632291 0.2779724472 0.95368953886 0.063413405348 0.29235206387 0.94354897466 0.10394596247 0.31134236957 
0.93241233399 0.14242049508 0.33096944856 0.91844812139 0.17505289363 0.35240414204 0.90442842962 0.20477390205 0.37363436338 
0.89024414966 0.22585778639 0.39425798406 0.87681803468 0.24378612002 0.41417639057 0.8657448455 0.25192136524 0.43190620136 
0.8558430857 0.25704217458 0.44872823988 0.84974847141 0.25236606729 0.46260001856 0.84478591429 0.24505978889 0.47553812643 
0.8436807372 0.22879144599 0.4852948375 0.84332158138 0.21044126244 0.49421365499 0.84563088625 0.18464449507 0.50013539163 
0.8481606747 0.15737442455 0.50541341734 0.8515194814 0.12456473424 0.50827108992 0.85462278315 0.090899840045 0.51073967934 
0.85671471117 0.053849763828 0.51166814794 0.85821871324 0.016484685298 0.51250719556 0.85726876358 -0.022195185497 0.51297300777 
0.85555800804 -0.060808028861 0.5136326377 0.85049279018 -0.099125342191 0.5151468276 0.8446275759 -0.13714513241 0.51703731891 
0.83502904495 -0.17377648146 0.52068388344 0.82467258339 -0.20999464311 0.52476901077 0.81056436531 -0.24416752712 0.53102502397 
0.79578665384 -0.27787431969 0.53767987757 0.77748529297 -0.30912799943 0.54643389113 0.75866023064 -0.33985869951 0.55547176026 
0.73689662124 -0.36765490262 0.56610237455 0.7148041806 -0.39487750688 0.57687574615 0.69073875246 -0.41865851811 0.58850566152 
0.66655419776 -0.44189314384 0.6001229879 0.64160276579 -0.46161041297 0.61165927259 0.61672429941 -0.48089756775 0.62302491339 
0.59235172784 -0.49720259642 0.63320742325 0.56818585676 -0.51326501247 0.64308030717 0.54557023936 -0.5275078338 0.65063099661 
0.52320559407 -0.54174294837 0.65775407169 0.50288733676 -0.55591522322 0.66139044515 0.48277351163 -0.57029791323 0.66451064537 
0.46448254015 -0.58655680505 0.66302830078 0.44630117645 -0.60316140096 0.6609677203 0.42919596199 -0.62316018261 0.65322991478 
0.41206818865 -0.64353121002 0.64489247334 0.39469452356 -0.66795971624 0.63001900047 0.37715705936 -0.69266771061 0.61458959424 
0.35761760611 -0.72079167132 0.59236544686 0.33782757638 -0.74901241564 0.56970192953 0.31456079786 -0.77857603269 0.54094215426 
0.29102339415 -0.80804678768 0.51191804573 0.26315598745 -0.8360317497 0.47866460512 0.23505423262 -0.86379494249 0.44534286791 
0.20253892141 -0.88738148136 0.41073487808 0.16986873724 -0.91070843522 0.37620921413 0.13366744959 -0.92811685064 0.34356058045 
0.097389910901 -0.94530307673 0.31106008928 0.058920155055 -0.95610135947 0.28281869575 0.02042931972 -0.96674608539 0.25471649046 
-0.018876589169 -0.97145328084 0.23199623046 -0.058173214212 -0.97607372951 0.20937017495 -0.096926734307 -0.97561949216 0.19225508152 
-0.13535459457 -0.97516907192 0.17528381241 -0.13535459457 -0.97516907192 0.17528381241 -0.13535459457 -0.97516907192 0.17528381241 

FrenetNormal 3 240 double
-0.87522446805 0.37783206979 0.3020348615 -0.87522446805 0.37783206979 0.3020348615 -0.87522446805 0.37783206979 0.3020348615 
-0.82542096503 0.46260615755 0.30778094425 -0.77519539843 0.54809866979 0.31357572261 -0.72414718075 0.61995109451 0.28769686928 
-0.67308490066 0.69157035535 0.26127658636 -0.62121319939 0.75460352154 0.17244461525 -0.56932056481 0.81741463357 0.081998548754 
-0.46540870647 0.83279464123 -0.14921522231 -0.35968748383 0.84652487135 -0.38532526136 -0.1423070647 0.65073426656 -0.63390783261 
0.079970687601 0.44575415147 -0.88303744474 0.22209467888 0.26134386217 -0.91061663264 0.35996271824 0.078025776012 -0.92643208121 
0.43694497298 0.0018471841912 -0.89303501192 0.51012186618 -0.067635189233 -0.85656216027 0.56862531685 -0.090589863574 -0.81420250153 
0.62607122212 -0.11019119023 -0.77141856841 0.67709564386 -0.108927258 -0.72448075609 0.72759467151 -0.10595616821 -0.67720308092 
0.77046032429 -0.091862247092 -0.62723298757 0.81262566745 -0.076747882729 -0.57701588337 0.84529643353 -0.053176002241 -0.52786628172 
0.87700015934 -0.028742708074 -0.47882540718 0.89862909203 0.0053502756562 -0.43460426328 0.91912814137 0.040526589056 -0.39092364991 
0.92975596781 0.085966209868 -0.35286561026 0.93917317257 0.13266453819 -0.31549713155 0.93944504405 0.18595204748 -0.28065221187 
0.93849753775 0.24011811423 -0.24614376674 0.93084599192 0.29276128939 -0.20882304552 0.92222751731 0.34518481671 -0.17109670754 
0.91094040391 0.3877579272 -0.12626146949 0.89923874468 0.42880087586 -0.080321936278 0.88766794265 0.45566308005 -0.026624200432 
0.87611895016 0.48016182683 0.028366569187 0.86621583988 0.48779012207 0.08887043962 0.85660605515 0.49241180219 0.15035684287 
0.85063226627 0.47521912864 0.21450803719 0.8453493166 0.45388172791 0.27916554181 0.84513145825 0.39800154937 0.34521512782 
0.84593685068 0.33514303187 0.41154594239 0.84095031039 0.2074951781 0.47562396937 0.83472264167 0.065963895124 0.53921925616 
0.76913692625 -0.15516659274 0.56764563137 0.69008856105 -0.39435050853 0.5880955524 0.54142938928 -0.58809910967 0.54683841507 
0.37609262843 -0.77096216668 0.49079729501 0.23933673771 -0.85224719347 0.44160915292 0.10980127732 -0.9078704021 0.39415228947 
0.021207799916 -0.92160390758 0.37993494861 -0.056496852232 -0.92419653457 0.37455790631 -0.11235108208 -0.91041719079 0.39390457935 
-0.16209659171 -0.89206073691 0.42016325883 -0.20025323077 -0.86135222277 0.46218355471 -0.23500878825 -0.82701864746 0.50882954235 
-0.26290134378 -0.77908458638 0.56354500685 -0.28868220641 -0.72696576044 0.6207433873 -0.30946345568 -0.65939476015 0.67887101956 
-0.32863371842 -0.5868447259 0.73729807739 -0.34351327409 -0.49837780576 0.78918963193 -0.35694652401 -0.40454564319 0.83887820783 
-0.36578751581 -0.29709529072 0.87473497964 -0.37301078032 -0.18484762136 0.9057191841 -0.37437118776 -0.064977855141 0.91736108509 
-0.37357514202 0.057695440958 0.9218885756 -0.36559055526 0.17895598617 0.90560648958 -0.35484757484 0.2996744293 0.8813393335 
-0.3365592339 0.41014426943 0.83992688436 -0.31525274874 0.51651466836 0.791656318 -0.28752556848 0.60737868916 0.73306462245 
-0.2571230986 0.69178171906 0.6701724564 -0.22211512809 0.75974633064 0.6038259551 -0.18510959103 0.82058102584 0.5359811879 
-0.14484624391 0.86681143625 0.46985401662 -0.10311290932 0.9064521084 0.40450185813 -0.057798055097 0.93415789893 0.34431960991 
-0.010802981789 0.95626460919 0.28656275168 0.044918186977 0.96796355595 0.23621210966 0.10489332728 0.974588718 0.18947199803 
0.19630604858 0.9628053953 0.15070995502 0.30363653241 0.94170132081 0.11598744043 0.53553407626 0.74261615534 0.074843234325 
0.8329091773 0.44997682664 0.030323523715 0.80603830015 -0.03659017342 -0.02211805927 0.60230598035 -0.62893590332 -0.07888066355 
0.43767473799 -0.8792349312 -0.11842439744 0.29516647366 -0.93600753557 -0.1482258757 0.20318943579 -0.95843262806 -0.18717799794 
0.14085738412 -0.96070718026 -0.23149849798 0.091926530818 -0.9530900239 -0.28131505313 0.051145054909 -0.93945763936 -0.33447380394 
0.015913388857 -0.92025552486 -0.38643227449 -0.015821136738 -0.89754371751 -0.43763440405 -0.043269590677 -0.87329278921 -0.48269918685 
-0.067920192285 -0.84803715697 -0.52375764607 -0.086071882568 -0.82490473254 -0.55755276458 -0.099829942659 -0.80320771622 -0.58643745557 
-0.098118605997 -0.78571159023 -0.61022938083 -0.085578691608 -0.77115608747 -0.63045637008 -0.026493683552 -0.75706822523 -0.64706390485 
0.066319653249 -0.74331923294 -0.66104864654 0.26241484309 -0.67696819636 -0.6317249204 0.53597142272 -0.57116562655 -0.56991984339 
0.73759053478 -0.42699385401 -0.46482532063 0.88337758247 -0.25304299875 -0.32613301908 0.94479888323 -0.18038248485 -0.27299943076 
0.93847193265 -0.18906118446 -0.28857208185 0.88695119196 -0.25429920311 -0.35184807544 0.79788484104 -0.36652496372 -0.45475453818 
0.65914401516 -0.47461749616 -0.54768702735 0.47771418737 -0.57915803565 -0.63204813299 0.309314456 -0.64546880291 -0.68354392454 