# vtk DataFile Version 5.1
vtk output
ASCII
DATASET POLYDATA
POINTS 240 float
0 0 0 -0.131321 -0.345345 -0.00267953 -0.262643 -0.690691 -0.00535907 
-0.425736 -0.992281 0.00575418 -0.589099 -1.2935 0.0169843 -0.781199 -1.55492 0.0449911 
-0.97379 -1.81565 0.0732847 -1.19205 -2.0406 0.121074 -1.41098 -2.26462 0.169368 
-1.65235 -2.457 0.239161 -1.8945 -2.64828 0.309701 -2.15556 -2.81235 0.402262 
-2.41744 -2.97523 0.495789 -2.69432 -3.11553 0.609386 -2.97199 -3.25463 0.724049 
-3.26037 -3.37576 0.853427 -3.54942 -3.49577 0.983725 -3.84456 -3.6021 1.11958 
-4.14013 -3.70743 1.25584 -4.43683 -3.80288 1.38519 -4.73362 -3.89752 1.51398 
-5.02612 -3.98561 1.62149 -5.31822 -4.0731 1.72705 -5.60019 -4.15713 1.7971 
-5.88111 -4.24081 1.86354 -6.14572 -4.32398 1.88284 -6.4085 -4.40708 1.89686 
-6.64888 -4.49235 1.85666 -6.88652 -4.57789 1.8098 -7.09631 -4.66763 1.70731 
-7.30239 -4.75794 1.59739 -7.47642 -4.85318 1.43599 -7.64582 -4.94913 1.26716 
-7.78078 -5.04878 1.05549 -7.91038 -5.14899 0.837175 -8.00542 -5.24948 0.587473 
-8.09471 -5.35002 0.332542 -8.15177 -5.44579 0.0584822 -8.20309 -5.54072 -0.218986 
-8.22662 -5.62567 -0.504256 -8.24487 -5.70871 -0.791009 -8.24105 -5.77824 -1.07639 
-8.23278 -5.84503 -1.36149 -8.20837 -5.89808 -1.6389 -8.18049 -5.94819 -1.91466 
-8.14138 -5.9883 -2.17953 -8.09971 -6.02615 -2.44192 -8.04989 -6.06104 -2.69305 
-7.99812 -6.09522 -2.94147 -7.93906 -6.13485 -3.1804 -7.87816 -6.17586 -3.41693 
-7.80865 -6.22984 -3.64711 -7.73685 -6.28728 -3.8756 -7.6535 -6.36263 -4.10127 
-7.56691 -6.44298 -4.32616 -7.46491 -6.54271 -4.55145 -7.35838 -6.64812 -4.77685 
-7.23269 -6.77127 -5.00507 -7.1011 -6.89986 -5.23415 -6.9478 -7.04248 -5.46732 
-6.78751 -7.18963 -5.70181 -6.60515 -7.34628 -5.94036 -6.41535 -7.50613 -6.18028 
-6.20592 -7.67111 -6.42267 -5.98957 -7.83789 -6.66592 -5.75894 -8.00614 -6.90811 
-5.52306 -8.17494 -7.14991 -5.28069 -8.34235 -7.38489 -5.03583 -8.50923 -7.61725 
-4.79374 -8.67233 -7.83477 -4.55277 -8.83392 -8.04635 -4.32405 -8.98943 -8.23329 
-4.10043 -9.14241 -8.40997 -3.89737 -9.28683 -8.55151 -3.70323 -9.42754 -8.67781 
-3.53562 -9.55712 -8.75941 -3.37998 -9.68168 -8.82085 -3.25382 -9.79296 -8.83087 
-3.14149 -9.898 -8.81677 -3.05849 -9.98868 -8.74896 -2.98978 -10.0723 -8.65496 
-2.9479 -10.1421 -8.50976 -2.91961 -10.2048 -8.33864 -2.9142 -10.2554 -8.12344 
-2.92083 -10.2998 -7.88508 -2.94595 -10.3353 -7.61333 -2.98116 -10.366 -7.32336 
-3.0308 -10.3913 -7.01219 -3.0886 -10.4136 -6.68902 -3.15734 -10.4333 -6.35642 
-3.23249 -10.4516 -6.01827 -3.31558 -10.4684 -5.68048 -3.40348 -10.4845 -5.3429 
-3.4965 -10.4986 -5.01266 -3.59276 -10.5114 -4.68703 -3.69138 -10.5199 -4.37267 
-3.79155 -10.5256 -4.06566 -3.89127 -10.5235 -3.77114 -3.99069 -10.5161 -3.48507 
-4.08673 -10.4974 -3.21064 -4.18039 -10.4708 -2.94437 -4.26748 -10.4305 -2.68752 
-4.34981 -10.3804 -2.43749 -4.42209 -10.3165 -2.1939 -4.48684 -10.2423 -1.95514 
-4.53811 -10.1565 -1.7196 -4.57892 -10.0618 -1.48656 -4.60343 -9.95994 -1.25368 
-4.61485 -9.85244 -1.02092 -4.60859 -9.74398 -0.785693 -4.58764 -9.63471 -0.548424 
-4.54963 -9.53146 -0.306807 -4.49698 -9.43338 -0.0614551 -4.43002 -9.34834 0.189125 
-4.35033 -9.27489 0.444353 -4.26069 -9.22072 0.704406 -4.1619 -9.18427 0.968896 
-4.0582 -9.17184 1.23636 -3.94982 -9.18223 1.50666 -3.84131 -9.2193 1.7767 
-3.73268 -9.2826 2.04647 -3.62771 -9.37298 2.31166 -3.52648 -9.49088 2.57221 
-3.43139 -9.63416 2.82332 -3.34276 -9.8041 3.0645 -3.26133 -9.99606 3.29139 
-3.18775 -10.2119 3.50276 -3.12128 -10.4454 3.69562 -3.06283 -10.6987 3.86766 
-3.01067 -10.965 4.01812 -2.96584 -11.2463 4.14346 -2.92606 -11.5362 4.24591 
-2.89237 -11.8363 4.32082 -2.86232 -12.1412 4.37379 -2.83681 -12.452 4.39946 
-2.81351 -12.7645 4.4066 -2.79305 -13.0795 4.38986 -2.77346 -13.3943 4.36016 
-2.755 -13.7088 4.3132 -2.73621 -14.0221 4.26032 -2.71696 -14.3336 4.19927 
-2.69644 -14.6435 4.13968 -2.67412 -14.9511 4.08218 -2.64996 -15.2573 4.03263 
-2.62307 -15.5614 3.99485 -2.59417 -15.8647 3.9696 -2.56217 -16.1669 3.96354 
-2.52828 -16.4691 3.97212 -2.49139 -16.7715 4.00393 -2.4529 -17.0748 4.05001 
-2.41177 -17.3797 4.11953 -2.36923 -17.6862 4.20091 -2.32428 -17.9955 4.30248 
-2.27776 -18.3068 4.41224 -2.22849 -18.6215 4.5365 -2.177 -18.938 4.66491 
-2.12146 -19.2577 4.80096 -2.06255 -19.5781 4.93752 -1.99723 -19.9001 5.07503 
-1.92697 -20.2212 5.21033 -1.84698 -20.5406 5.34125 -1.76037 -20.8567 5.46844 
-1.6602 -21.1662 5.58801 -1.55195 -21.4697 5.70364 -1.42648 -21.7603 5.81086 
-1.292 -22.042 5.91502 -1.13756 -22.3037 6.01239 -0.973915 -22.5539 6.10834 
-0.789054 -22.7774 6.20101 -0.595572 -22.9873 6.29426 -0.381395 -23.1649 6.38888 
-0.159832 -23.3283 6.48596 0.0801984 -23.4559 6.58922 0.325959 -23.5698 6.69639 
0.586654 -23.6477 6.81377 0.851267 -23.7134 6.93587 1.12653 -23.7461 7.07081 
1.40398 -23.7692 7.21059 1.68763 -23.7652 7.36412 1.97202 -23.7545 7.52204 
2.25859 -23.7242 7.69299 2.54484 -23.6902 7.86749 2.83008 -23.6445 8.05299 
3.11437 -23.5974 8.24099 3.39556 -23.5457 8.43711 3.67559 -23.4942 8.63463 
3.95165 -23.4433 8.83693 4.22666 -23.3934 9.03961 4.49793 -23.3472 9.24364 
4.76852 -23.3022 9.44717 5.03651 -23.2617 9.64886 5.30426 -23.2224 9.84942 
5.57107 -23.1872 10.0455 5.83807 -23.1527 10.2401 6.10585 -23.1212 10.4284 
6.37412 -23.0899 10.6151 6.64453 -23.06 10.7951 6.91553 -23.0301 10.9737 
7.18928 -23.0001 11.1464 7.46354 -22.97 11.3184 7.74036 -22.9388 11.4864 
8.01751 -22.9072 11.6541 8.29642 -22.8736 11.8209 8.57548 -22.8396 11.988 
8.85535 -22.8032 12.1571 9.13523 -22.7664 12.3268 9.41518 -22.727 12.5009 
9.69511 -22.6872 12.6757 9.97491 -22.645 12.856 10.2547 -22.6025 13.0371 
10.5346 -22.5583 13.2235 10.8146 -22.5141 13.4105 11.095 -22.4697 13.6017 
11.3755 -22.4257 13.7931 11.6562 -22.3841 13.987 11.9368 -22.3433 14.1809 
12.2165 -22.3091 14.3755 12.4958 -22.2762 14.57 12.7715 -22.2556 14.7639 
13.0464 -22.2368 14.9576 13.3135 -22.2373 15.1499 13.5795 -22.2401 15.3421 
13.8321 -22.2702 15.5327 14.0833 -22.3027 15.7231 14.315 -22.3699 15.9116 
14.5451 -22.4396 16.1 14.7495 -22.5502 16.2863 14.9522 -22.6632 16.4724 
15.1237 -22.8214 16.6553 15.2936 -22.9817 16.838 15.4275 -23.1894 17.0162 
15.56 -23.3988 17.1941 15.6528 -23.656 17.3657 15.7445 -23.9144 17.537 
15.793 -24.2201 17.6999 15.8408 -24.5265 17.8626 15.8429 -24.8789 18.0146 
15.8445 -25.2316 18.1665 15.7975 -25.6286 18.3054 15.7505 -26.0257 18.4444 

LINES 2 240
OFFSETS vtktypeint64
0 240 
CONNECTIVITY vtktypeint64
0 1 2 3 4 5 6 7 8 
9 10 11 12 13 14 15 16 17 
18 19 20 21 22 23 24 25 26 
27 28 29 30 31 32 33 34 35 
36 37 38 39 40 41 42 43 44 
45 46 47 48 49 50 51 52 53 
54 55 56 57 58 59 60 61 62 
63 64 65 66 67 68 69 70 71 
72 73 74 75 76 77 78 79 80 
81 82 83 84 85 86 87 88 89 
90 91 92 93 94 95 96 97 98 
99 100 101 102 103 104 105 106 107 
108 109 110 111 112 113 114 115 116 
117 118 119 120 121 122 123 124 125 
126 127 128 129 130 131 132 133 134 
135 136 137 138 139 140 141 142 143 
144 145 146 147 148 149 150 151 152 
153 154 155 156 157 158 159 160 161 
162 163 164 165 166 167 168 169 170 
171 172 173 174 175 176 177 178 179 
180 181 182 183 184 185 186 187 188 
189 190 191 192 193 194 195 196 197 
198 199 200 201 202 203 204 205 206 
207 208 209 210 211 212 213 214 215 
216 217 218 219 220 221 222 223 224 
225 226 227 228 229 230 231 232 233 
234 235 236 237 238 239 
CELL_DATA 1
FIELD FieldData 3
Length 1 1 double
73.918621815 
Tortuosity 1 1 double
1.0777998247 
ClusterLabel 1 1 int
1 
POINT_DATA 240
FIELD FieldData 6
Curvature 1 240 double
0 0.097432188567 0.19486437713 0.20936541584 0.22316364819 0.22976019987 0.23623364591 0.23279427662 0.22909854142 
0.21577933284 0.20212539475 0.18222715942 0.1620550514 0.13948079585 0.11677899264 0.095256491146 0.073807696007 0.063051111899 
0.053065137595 0.070683937918 0.090561310711 0.13080206966 0.17291102917 0.23267829118 0.29424408401 0.36698683665 0.4409830801 
0.49625227174 0.54922474949 0.55056652731 0.5450242118 0.50035459246 0.45004161199 0.39603400308 0.3414524713 0.29951127848 
0.25967680882 0.23260924844 0.20781697881 0.19134418573 0.1764520932 0.16439402403 0.15290848483 0.13902439158 0.12462632246 
0.10959684743 0.094424166929 0.099466061887 0.10935103221 0.1361423622 0.16720477251 0.18829889782 0.20674188349 0.20598820382 
0.19986771449 0.18329789854 0.16366143239 0.14438482404 0.12521894118 0.11008697508 0.096254826613 0.085261737239 0.075225634076 
0.066766231916 0.058862258518 0.052817701799 0.047457068457 0.046691456814 0.047689051171 0.058319942293 0.072804152121 0.10656494288 
0.14835764236 0.24384463229 0.36262071205 0.64887281015 1.0106933556 1.5277613321 2.1176614368 2.0660615767 1.7017304838 
1.2495537202 0.75289813586 0.46562296526 0.28840673008 0.18769636741 0.12871648065 0.09402775457 0.073082711497 0.061262180281 
0.054794696022 0.051202412873 0.049358562833 0.049644397254 0.051272224625 0.058382867872 0.069072571481 0.086794929533 0.10927175819 
0.13474304174 0.1623104437 0.18704345587 0.20972256237 0.22586886469 0.23711556387 0.24269151782 0.24386629637 0.24314977644 
0.24091448653 0.23970651959 0.23935202098 0.24156441959 0.24598274551 0.25292798098 0.26211935828 0.27214258996 0.28293059098 
0.2922288731 0.30011070118 0.3052984644 0.30783706384 0.30808571948 0.3060056187 0.30308091706 0.2992679283 0.29597666537 
0.29325289369 0.29149679772 0.29082933694 0.28917244586 0.28636421771 0.27980335094 0.26872541917 0.25236297367 0.22941981295 
0.20194534401 0.1686324587 0.13280874892 0.093637273204 0.060618763999 0.036091348587 0.037988960484 0.077636611393 0.11525108056 
0.14985813506 0.17745006089 0.19429540662 0.20201033145 0.19523567526 0.18201673295 0.15820052015 0.13286067966 0.10492374651 
0.079048197102 0.056816023592 0.04139173309 0.038448561434 0.041224152506 0.054879340965 0.069509233654 0.086064167198 0.10351305953 
0.12279571349 0.14355365294 0.16745627989 0.1928663859 0.22161739146 0.25037821051 0.27916165507 0.30457765794 0.32191180078 
0.33270944418 0.32716583902 0.31577711916 0.2891556761 0.26018904118 0.22484641584 0.1903449365 0.15823122647 0.12798089077 
0.10325856556 0.080600241833 0.064347439951 0.049749993393 0.04053245164 0.032467192492 0.028328229624 0.024828164746 0.02361338883 
0.023097084671 0.025207034319 0.027650435165 0.031413747002 0.034933514074 0.037436746478 0.039251838211 0.038032855167 0.036165675282 
0.031273576806 0.026128560017 0.019731597572 0.014315169489 0.014059448572 0.01452007733 0.019000223707 0.023080333195 0.024760221346 
0.026016751991 0.02454791869 0.022777230108 0.018913678245 0.015499706198 0.015457582771 0.016285079157 0.024203321705 0.03263680876 
0.045664559341 0.059229118898 0.07806416659 0.097491370035 0.1233730712 0.14968936588 0.1813173591 0.21309111079 0.24688726112 
0.28018979355 0.30559443957 0.33008678262 0.33739741943 0.34383642728 0.33040229496 0.31659865006 0.29217151865 0.26768368717 
0.24084878579 0.21408256679 0.1913342666 0.16807094815 0.084035474075 0 
Torsion 1 240 double
0 0 0 -0.062417730507 -0.12536442483 -0.12901465625 -0.13165127292 -0.12970592902 -0.12764208613 
-0.11677252734 -0.10559668277 -0.075772052425 -0.045129492881 0.032243361094 0.11209746964 0.36048918359 0.61941449788 1.1002885018 
1.5971588076 1.1886120213 0.70598565466 0.4784701657 0.2743593444 0.20542095534 0.15025012882 0.12779544797 0.10900986758 
0.098782282409 0.089604262689 0.080950180902 0.072365957507 0.056252100705 0.039052239086 0.0072283258078 -0.026867284815 -0.07133553728 
-0.11753256339 -0.15558718787 -0.19219069127 -0.19561510045 -0.19273548174 -0.13451582484 -0.065116362249 0.11130643629 0.31066280681 
0.75340664885 1.2513517731 1.2332681182 1.0915525683 0.74321625537 0.34268101279 0.13689275787 -0.017101085445 -0.12188715593 
-0.21291621465 -0.28668056595 -0.35537810093 -0.39094109428 -0.41630884405 -0.39508110036 -0.35883925324 -0.29259357197 -0.21623423875 
-0.11595373335 -0.0072464513741 0.1417395288 0.30554066233 0.42782280511 0.53417324213 0.47377687286 0.34668178107 0.21835173362 
0.089507121307 0.0086792885567 -0.051321989202 -0.070755805337 -0.071884791228 -0.061280217317 -0.045171010414 -0.038474078549 -0.036365630766 
-0.021673620277 -0.0006101856336 0.057597208573 0.13532899178 0.21861236153 0.3049238694 0.35227307395 0.37757781742 0.30051311243 
0.16339166434 -0.027233942121 -0.25039586111 -0.47388890071 -0.69759059165 -0.77376515954 -0.7536372999 -0.67677048084 -0.56154492866 
-0.49172594864 -0.45369156914 -0.44828990181 -0.46653512735 -0.50270251758 -0.55231153131 -0.60419390859 -0.65784068742 -0.69734839244 
-0.72550199272 -0.7325738009 -0.72213150486 -0.68918719073 -0.63690520479 -0.57063650562 -0.49193517247 -0.41311728275 -0.33419223619 
-0.26321222686 -0.1997865152 -0.14407966993 -0.095963043252 -0.052953219261 -0.01513675393 0.018444142588 0.047570389147 0.071223477509 
0.088923306077 0.10033437904 0.10467060195 0.10500025346 0.10066771279 0.095548719897 0.089483071541 0.0856336474 0.08454404964 
0.091346894369 0.10831884769 0.1807513786 0.32713134629 1.2108383603 3.1120566983 3.405873243 1.4034015115 0.18215625246 
0.11647515047 0.070238372082 0.053788642611 0.039192563589 0.027538147232 0.010783624269 -0.014357740668 -0.063817606234 -0.15472946151 
-0.36572271726 -0.78895286689 -1.0768678171 -1.1167049018 -0.96571230996 -0.4516778947 -0.066002465599 0.066163965826 0.17023400756 
0.2166704294 0.25255842708 0.26596162588 0.27376125719 0.26914217137 0.26191651573 0.24868126857 0.23533846985 0.22173754739 
0.20985131975 0.20225182918 0.1971301416 0.1984657588 0.2032039408 0.21719284584 0.23630153278 0.26994379414 0.31277649384 
0.38287416057 0.46323460069 0.57544502717 0.69281364637 0.82694639189 0.94623510672 1.0149441614 1.0743018101 1.100210199 
1.0897366378 0.9424669449 0.79117099909 0.62393780239 0.47157422337 0.3812751355 0.30412508712 0.28495034921 0.28412888914 
0.36895605897 0.52791966552 1.0538586339 1.4842789687 1.4119696532 1.2745373737 0.77169290703 0.3288462729 0.24598663415 
0.1811542474 0.23237229542 0.3196643968 0.65706993481 0.96943106937 1.093959178 1.1501429451 0.64905746497 0.18610916691 
0.063217409004 -0.050144069582 -0.069935532985 -0.087403359728 -0.079543546876 -0.071823473352 -0.065811324937 -0.059439610108 -0.048078911281 
-0.036972381219 -0.029932551386 -0.023049414146 -0.019117320756 -0.015218919308 -0.012088694114 -0.0090179776913 -0.0076581384195 -0.0062952263878 
-0.0048135009698 -0.0033285891402 -0.0016572722302 0 0 0 
FrenetTangent 3 240 double
-0.41469540973 -0.90988072152 0.012032861518 -0.41469540973 -0.90988072152 0.012032861518 -0.41469540973 -0.90988072152 0.012032861518 
-0.47367871016 -0.87700784665 0.035375329335 -0.53316186908 -0.84385638809 0.058915614675 -0.58720917834 -0.8009924488 0.088815185683 
-0.6411635671 -0.75796248421 0.11882346243 -0.68486901483 -0.70855341889 0.15282924445 -0.72830940375 -0.65897937683 0.18693841023 
-0.7590644321 -0.60834686311 0.22141921007 -0.78937823052 -0.55767753298 0.25591293631 -0.80799107909 -0.51133779113 0.28681064098 
-0.82609072809 -0.4651879435 0.3175506254 -0.83617644709 -0.42698387965 0.34120358483 -0.84583664769 -0.38920171582 0.36448024204 
-0.85212527644 -0.36072502324 0.37785938028 -0.85820318194 -0.33282992262 0.39061992359 -0.86497641981 -0.31401749049 0.39093600091 
-0.87179977171 -0.2958596651 0.39035517978 -0.88183473048 -0.28606029756 0.37422454583 -0.89213245709 -0.27694480385 0.35682165446 
-0.90569716049 -0.27566983572 0.31934138682 -0.91956158654 -0.27511418187 0.28001915805 -0.93248389237 -0.28198389616 0.21478945906 
-0.94531024151 -0.28960989796 0.14692103625 -0.94624761811 -0.30307599728 0.049580460639 -0.945851652 -0.3171970608 -0.051065403132 
-0.9180568144 -0.33261450185 -0.17293567396 -0.88690173783 -0.34819093259 -0.29740893812 -0.82291962123 -0.35881155912 -0.41824127977 
-0.75456056595 -0.36877141175 -0.53858816509 -0.66822208303 -0.37097556019 -0.63243821301 -0.57929041342 -0.37206109744 -0.7224666017 
-0.49166616034 -0.36664485536 -0.78302918349 -0.40424500109 -0.36021862816 -0.83901455256 -0.32725918587 -0.34872247274 -0.87438555288 
-0.25201259466 -0.33638132929 -0.90632082507 -0.18829369727 -0.31940648225 -0.92636612216 -0.12662924037 -0.30160582665 -0.94429241378 
-0.074981484102 -0.27979735129 -0.95554406303 -0.025236900956 -0.25722739016 -0.96552753024 0.016196566011 -0.2328083087 -0.97127038551 
0.055951019609 -0.20801566756 -0.9761565515 0.08901825416 -0.18574389078 -0.97782243674 0.1206525132 -0.16401229922 -0.97879826182 
0.14749390577 -0.15082137472 -0.97710027491 0.17324825645 -0.13956750873 -0.9747958564 0.19652304616 -0.14218765073 -0.96984441051 
0.21920377439 -0.14813177381 -0.96425878098 0.24170839655 -0.16926093302 -0.95484780608 0.26416852876 -0.19422631189 -0.94447042815 
0.28781317997 -0.22948926907 -0.9285827319 0.31177286283 -0.26749094389 -0.91122952547 0.33706118522 -0.30643220286 -0.88872628189 
0.36272095522 -0.34563614128 -0.86478324296 0.38921347393 -0.3777927983 -0.83878630126 0.41595038628 -0.40788123144 -0.81218658375 
0.44268314184 -0.42815222375 -0.78686973606 0.46941461839 -0.44540246503 -0.76194761754 0.4950337855 -0.45420923928 -0.73998528445 
0.5202945418 -0.46029534082 -0.71897666 0.54334794274 -0.4609962551 -0.7010831896 0.56565729131 -0.45988193772 -0.68423977112 
0.58508849907 -0.45661659597 -0.66982592658 0.60350581631 -0.45259350699 -0.65626795467 0.61904265999 -0.44919648069 -0.64395049331 
0.63352001914 -0.44602973032 -0.6320893117 0.64580617964 -0.4456611153 -0.61971901427 0.65725153135 -0.44636620339 -0.60715335845 
0.66777281425 -0.45171434874 -0.591284369 0.67792446962 -0.45891971699 -0.57409404609 0.68887166625 -0.47283806568 -0.54837808826 
0.7001503384 -0.48955348956 -0.51910978255 0.71364747206 -0.51578788996 -0.46960669582 0.72810682998 -0.54615100307 -0.41132707756 
0.73947479029 -0.58622527469 -0.30391555941 0.74944785168 -0.6306814105 -0.17433476936 0.71438024556 -0.65234411234 0.041573259484 
0.65818244975 -0.66331359824 0.29798048677 0.5277194745 -0.59774523892 0.53321356721 0.36105222428 -0.49486468006 0.75812425107 
0.22110479093 -0.39160837788 0.87752656158 0.094686378783 -0.28816182592 0.94350691091 0.0089350374655 -0.21586487769 0.97302570202 
-0.055440023029 -0.1599414391 0.98337880228 -0.10112346323 -0.12247039807 0.98640926886 -0.13661147418 -0.095064301152 0.98544557161 
-0.16448073719 -0.077136009611 0.98303782926 -0.18803939281 -0.064570160584 0.97981306139 -0.20853082889 -0.056571036747 0.97620375936 
-0.22722282951 -0.051251058356 0.97236886396 -0.2445181255 -0.046987965276 0.96837185376 -0.26096407409 -0.043367572724 0.96427626025 
-0.27620383504 -0.037689706005 0.96023756352 -0.29068353254 -0.030715348716 0.95623471955 -0.30319458632 -0.018705751854 0.95257938223 
-0.31442055321 -0.0034092624922 0.94915088955 -0.32206534406 0.019182987922 0.94617057954 -0.32728905816 0.046707583837 0.94349326626 
-0.32652699519 0.08183497175 0.94089875627 -0.32157488829 0.12228431406 0.93836220859 -0.30807789804 0.16738991886 0.93530257715 
-0.28838896334 0.21586962692 0.93186389951 -0.25894149925 0.26319775372 0.92778034611 -0.22217513812 0.30966219458 0.92321313589 
-0.1770108613 0.34853460829 0.91875811091 -0.12532879917 0.38151470242 0.91439015507 -0.068974246289 0.40241919211 0.91119865621 
-0.0088675417452 0.41362660551 0.90895188795 0.051142346426 0.41115341689 0.90846857034 0.11107180254 0.39731480506 0.90945027328 
0.1665793164 0.37044828918 0.91200161188 0.21828672366 0.33238591825 0.91590185615 0.26261815115 0.28327229459 0.92028975354 
0.3003931522 0.22433533518 0.92511112039 0.3294776803 0.15700332713 0.92848341725 0.35057258005 0.081953290513 0.93052350462 
0.36316178337 0.0017341811797 0.92871675205 0.3676636032 -0.083399784175 0.92325234838 0.36507631559 -0.17009274403 0.91191724535 
0.35551807231 -0.25831871516 0.89480928795 0.34111212643 -0.34477485379 0.8708626042 0.3217763135 -0.42943116276 0.83996128348 
0.30004521116 -0.50997949561 0.80228565504 0.27579492514 -0.58620737081 0.75748532367 0.2511779504 -0.65708480123 0.70650634451 
0.22616212128 -0.72214244963 0.64880673091 0.20203685015 -0.78121659099 0.58570334758 0.17891345677 -0.83355928695 0.51652072329 
0.15731287919 -0.87924128044 0.443337852 0.13748430542 -0.91717263834 0.36550014782 0.11954446704 -0.94791091295 0.2865450835 
0.10387810641 -0.96999084655 0.20624504863 0.090325732042 -0.98555761121 0.1290036224 0.079405868849 -0.99301363718 0.055571029587 
0.070673147979 -0.9963045759 -0.010732887979 0.06475847587 -0.99422895991 -0.067851781661 0.060924208642 -0.99105154278 -0.11526231955 
0.059863814586 -0.98640505746 -0.14972838305 0.060622042922 -0.98293995757 -0.17346849783 0.063889970158 -0.98110516956 -0.18240680336 
0.068564004498 -0.98104110486 -0.18064593674 0.075246763274 -0.98350664489 -0.16360053848 0.082686791138 -0.9865383103 -0.13703271833 
0.091246946193 -0.99040736951 -0.096379649113 0.099708092469 -0.99273516359 -0.049349862117 0.10801756572 -0.9927018707 0.0074485138198 
0.11553981448 -0.98995863273 0.065581101522 0.12181277218 -0.98291482976 0.12583102529 0.12723732355 -0.97403851675 0.18262525125 
0.13126671781 -0.96214874281 0.23373677416 0.13505251995 -0.95029842461 0.27901032533 0.13842310827 -0.93851536054 0.3143327883 
0.14246823378 -0.92802890901 0.3437905095 0.14770556458 -0.91983414476 0.3628826406 0.15454399429 -0.91309896984 0.37720395608 
0.164317772 -0.90903970872 0.38277877626 0.17653443526 -0.90579035882 0.38497327451 0.19339853928 -0.9040818156 0.38073691642 
0.2133987412 -0.90208008191 0.37452026278 0.23959273645 -0.89949929702 0.36439252545 0.26937246403 -0.89526473677 0.35365033987 
0.30650754 -0.88763781681 0.34164774761 0.3472715792 -0.87680848033 0.33033347805 0.39577104002 -0.85915294021 0.32048642269 
0.44722104437 -0.83666187449 0.31244979515 0.50521009113 -0.80345423849 0.30842546709 0.56432250641 -0.76412733454 0.30692286237 
0.62602491022 -0.71069211839 0.31123423093 0.68582493599 -0.65124104906 0.31804930624 0.74105925445 -0.57735193209 0.33087327773 
0.79134558166 -0.49997044612 0.34535959856 0.82926193073 -0.41385803762 0.36400179277 0.86118190395 -0.3284144835 0.38316681671 
0.87747495828 -0.24471400445 0.40369436663 0.88916111881 -0.16504592674 0.42398518326 0.88832228684 -0.096340940166 0.44363238123 
0.8851398247 -0.032845104101 0.46279609267 0.87530447695 0.015863466001 0.48058732624 0.86485188199 0.05979093255 0.49788241223 
0.8525681203 0.089534458561 0.51370559375 0.84057963179 0.11555689117 0.52900768383 0.82950750828 0.13003110288 0.54269259357 
0.81910223409 0.14192164981 0.55573927438 0.81086422023 0.14541528622 0.56671171119 0.80341076915 0.14732311565 0.57688001885 
0.79863064314 0.14382745466 0.5843083309 0.7946439752 0.13960401438 0.59078694712 0.79349544572 0.13277736358 0.59386857442 
0.79307988503 0.12584835784 0.59595568344 0.79542028696 0.11853449755 0.59430340371 0.79834200694 0.11150810888 0.59176006979 
0.8035647775 0.10561962877 0.58568964636 0.8091134644 0.10019659181 0.57900344566 0.8160224977 0.096716274107 0.56974704416 
0.82294065318 0.093694863842 0.56030140846 0.82989902919 0.092696818184 0.55002142196 0.83659183193 0.092063874359 0.54000309751 
0.84204529273 0.093134739084 0.53120586269 0.84706544472 0.094472015989 0.52301247997 0.84994071815 0.097128033181 0.51780816513 
0.85234766993 0.09994233061 0.5133331596 0.85228977089 0.10358968192 0.5126966242 0.85184567446 0.10728764745 0.51267787075 
0.84923458155 0.11126961501 0.51612556051 0.84639894906 0.11522280239 0.5199181616 0.84221607904 0.1190033087 0.52578023068 
0.8379901942 0.12266528254 0.53170328837 0.83348740149 0.12556420365 0.53801896025 0.8290941096 0.12821620693 0.54420004033 
0.82546002338 0.12915624663 0.54944795065 0.82200906921 0.12971044826 0.55450089645 0.81993160551 0.12737086437 0.55809160842 
0.81801340311 0.1244776374 0.56155737365 0.81739379286 0.11707008988 0.5640043423 0.81683414986 0.10891027745 0.5664598577 
0.8168092148 0.094042769602 0.56899158154 0.81667791926 0.078225266016 0.5716666949 0.81550235706 0.05308053158 0.57574963265 
0.81399606687 0.026809924163 0.58003479894 0.80888484158 -0.011732698747 0.58652425649 0.8031681424 -0.051456300899 0.59313548218 
0.79005120697 -0.10561409379 0.60123498529 0.7760339705 -0.16079271083 0.60925490829 0.74952505718 -0.23013526293 0.61617065737 
0.72196681077 -0.30005742702 0.62272351505 0.67761923501 -0.37925338315 0.62347011045 0.63237528383 -0.45840923864 0.62367024974 
0.57024959559 -0.53680986538 0.61357879878 0.507644285 -0.61469241212 0.60299566849 0.43410358451 -0.6807627346 0.58120224915 
0.36049101458 -0.7462143878 0.55912287221 0.28481219847 -0.79387929903 0.52882221407 0.20926123823 -0.84108975686 0.498423681 
0.13865403868 -0.8707280163 0.46424065021 0.068186876092 -0.9001265918 0.4300524701 0.0059118753671 -0.91550365689 0.39556305543 
-0.055839806024 -0.93075150294 0.36136346778 -0.055839806024 -0.93075150294 0.36136346778 -0.055839806024 -0.93075150294 0.36136346778 

FrenetNormal 3 240 double
-0.87016199474 0.4003914502 0.28723646967 -0.87016199474 0.4003914502 0.28723646967 -0.87016199474 0.4003914502 0.28723646967 
-0.8232589177 0.45775736504 0.32497974515 -0.77595835696 0.51560943169 0.3630428789 -0.71529632228 0.56839916668 0.39696531027 
-0.65440588634 0.62110236608 0.43081696041 -0.58461659176 0.66389974301 0.45820395243 -0.51459715429 0.70644093487 0.48542375502 
-0.44353893784 0.7368485898 0.50398075493 -0.37244458995 0.76683420866 0.52223643996 -0.31125759889 0.787767795 0.52761616682 
-0.25050514102 0.80830436236 0.53243115867 -0.21487570018 0.83019536746 0.51232285083 -0.18058022485 0.8521582896 0.49089118194 
-0.20279224353 0.88992665083 0.39245986492 -0.22853598059 0.92868285201 0.28921606988 -0.33737120319 0.85256699292 -0.060265001411 
-0.45219500133 0.76817206642 -0.42749290342 -0.43597216627 0.48359755853 -0.65990012773 -0.40902733394 0.18264472126 -0.88127656931 
-0.34373642664 0.055269259684 -0.92773815253 -0.27492753081 -0.056181672007 -0.95815250104 -0.1947013087 -0.096448983601 -0.9720761193 
-0.11331221076 -0.12946611167 -0.98432012615 -0.0086498045677 -0.13410341679 -0.98512019032 0.098622692272 -0.13555793804 -0.98463682168 
0.22397317189 -0.12000923251 -0.95814728126 0.35154076261 -0.10237522558 -0.92846830468 0.47303699118 -0.074759585626 -0.86659886486 
0.5937237048 -0.045813061262 -0.80043736327 0.68573681545 -0.013603383657 -0.71655970683 0.7736143103 0.019076941051 -0.63012683574 
0.82894775064 0.056168919195 -0.54679903917 0.87922580388 0.093946202727 -0.46395358427 0.90330225538 0.14325899067 -0.39522154702 
0.92301177326 0.19449436268 -0.32884174605 0.9213422394 0.25982247449 -0.27687487726 0.9158625775 0.32766216367 -0.22747664985 
0.89415578253 0.39818065188 -0.18677793198 0.86936583227 0.4692081119 -0.14773212093 0.84406256865 0.5207103919 -0.11074591724 
0.81865560535 0.56826819107 -0.074175795854 0.82328181254 0.56483602369 -0.032349072562 0.83434369911 0.55047743491 0.010604065424 
0.89276417397 0.38880767276 0.074493620006 0.96192577194 0.19372712902 0.14313164021 0.89546742682 -0.13553507669 0.20153884465 
0.79651680366 -0.49694497223 0.25749491616 0.67861623684 -0.65581106659 0.28822392785 0.55592831582 -0.76350820065 0.31257978759 
0.5054027918 -0.78656056522 0.35104146343 0.47406939464 -0.78710102301 0.39325468611 0.48171132264 -0.75335873291 0.44245498279 
0.50024957809 -0.71003201868 0.49360865499 0.54234869908 -0.63675108771 0.53843779074 0.59136242191 -0.55467924531 0.58141081253 
0.64621245537 -0.44572043581 0.60603447623 0.70285827672 -0.32848871335 0.62501218359 0.74344473706 -0.20591916562 0.62370899865 
0.7788565144 -0.081629651976 0.61587085953 0.79317332283 0.020043109745 0.60152199669 0.80037946758 0.11409224722 0.58497850789 
0.79538433976 0.16551915417 0.58192721819 0.78609103639 0.20193141174 0.58362886227 0.76624443866 0.17484848687 0.61462710467 
0.74251616945 0.12441101214 0.65640110736 0.6825099654 0.0011681512478 0.71039712385 0.60858315845 -0.15001166016 0.76908298285 
0.51545720462 -0.27942068241 0.79573295908 0.41465159204 -0.40012138899 0.80956858222 0.34255331999 -0.45279294409 0.82077562682 
0.28241643983 -0.47711901939 0.83088743037 0.2297718926 -0.46051456376 0.85497928188 0.18037703194 -0.42615710677 0.88513476865 
0.099857094973 -0.35172272548 0.92142368597 0.0052929162534 -0.25920485397 0.96048012684 -0.14861526763 -0.1021152332 0.9513077102 
-0.33036384901 0.085267306962 0.91950940981 -0.48552295026 0.2691347387 0.78222938465 -0.62771967996 0.45128855509 0.59352701867 
-0.69562513506 0.55599915522 0.42339477247 -0.72591475491 0.62149800027 0.26266511855 -0.74514901035 0.64446083467 0.14982443879 
-0.75857211269 0.64506499679 0.062156168513 -0.78514334537 0.61477203773 -0.0041241045122 -0.8188862855 0.56762610349 -0.058738197221 
-0.8609356285 0.48437239364 -0.10598780285 -0.90768464682 0.38068928444 -0.14907065921 -0.93545155915 0.29120082863 -0.18294003056 
-0.95208230263 0.21003990281 -0.21140415736 -0.95200077328 0.19844157395 -0.23075476317 -0.94175637532 0.22914482432 -0.24456336299 
-0.88878174707 0.34694219259 -0.24202903602 -0.80888122027 0.51962078582 -0.22919642641 -0.66125019124 0.68489711828 -0.19715039261 
-0.46940619547 0.8453414194 -0.15256226244 -0.28498278245 0.93584645321 -0.11612955541 -0.10557610143 0.97906860208 -0.085210373881 
0.047988866509 0.9886149474 -0.069411341035 0.18346463528 0.97458823023 -0.064196412269 0.31211837119 0.93997758584 -0.065467308666 
0.43582860503 0.89045105216 -0.07143807837 0.55716817733 0.81533103371 -0.075817952228 0.67672975349 0.72101590169 -0.079004654202 
0.78383714759 0.59465228263 -0.074569807874 0.88127860933 0.44341521095 -0.064219730027 0.94542029516 0.26790989323 -0.046763683919 
0.98282125183 0.072916438549 -0.023601329963 0.97487615024 -0.12464269089 0.0014807738443 0.92925893869 -0.32433330397 0.02815774676 
0.84653205542 -0.50097208382 0.048780840627 0.731914048 -0.65780069451 0.064201382188 0.60433375988 -0.78004351105 0.067560606105 