# vtk DataFile Version 5.1
vtk output
ASCII
DATASET POLYDATA
POINTS 240 float
0 0 0 -0.23279 -0.205179 -0.0986886 -0.46558 -0.410358 -0.197377 
-0.698876 -0.622265 -0.254782 -0.932176 -0.834229 -0.311838 -1.16329 -1.04842 -0.338509 
-1.39436 -1.26266 -0.364661 -1.62064 -1.47474 -0.371192 -1.8468 -1.68677 -0.377217 
-2.06576 -1.89253 -0.374292 -2.28447 -2.09807 -0.371057 -2.49394 -2.29369 -0.369394 
-2.70301 -2.48887 -0.3678 -2.90146 -2.67133 -0.377856 -3.09935 -2.85311 -0.388531 
-3.2861 -3.02068 -0.419856 -3.47216 -3.18736 -0.452472 -3.6476 -3.34004 -0.512699 
-3.82227 -3.49171 -0.574917 -3.98782 -3.63158 -0.668596 -4.15261 -3.77048 -0.764849 
-4.31042 -3.9016 -0.892672 -4.46758 -4.032 -1.02339 -4.61995 -4.16001 -1.18203 
-4.77183 -4.28778 -1.34351 -4.92055 -4.41913 -1.52637 -5.06893 -4.55088 -1.71163 
-5.21454 -4.6917 -1.91038 -5.35982 -4.83363 -2.11079 -5.50111 -4.98869 -2.31698 
-5.64188 -5.14549 -2.52395 -5.77569 -5.3174 -2.73046 -5.9085 -5.49148 -2.93691 
-6.02989 -5.68029 -3.13882 -6.14951 -5.87139 -3.34002 -6.25226 -6.07472 -3.53484 
-6.3522 -6.28009 -3.7286 -6.4295 -6.49355 -3.91616 -6.50277 -6.70845 -4.10261 
-6.54801 -6.92639 -4.28458 -6.58792 -7.14491 -4.46569 -6.59552 -7.36131 -4.645 
-6.5966 -7.57727 -4.82394 -6.56283 -7.78667 -5.00402 -6.52159 -7.99466 -5.18434 
-6.44521 -8.19313 -5.36815 -6.36087 -8.38945 -5.55275 -6.24367 -8.57526 -5.74184 
-6.1186 -8.75857 -5.932 -5.96544 -8.9324 -6.12552 -5.80518 -9.10383 -6.31988 
-5.62365 -9.26845 -6.51385 -5.43647 -9.43126 -6.70771 -5.23616 -9.59073 -6.89474 
-5.03218 -9.74927 -7.07986 -4.82364 -9.9078 -7.24946 -4.61377 -10.0663 -7.41452 
-4.4075 -10.2271 -7.55416 -4.20235 -10.3886 -7.68598 -4.00787 -10.5528 -7.78275 
-3.81683 -10.7178 -7.86823 -3.64201 -10.884 -7.91099 -3.47266 -11.0506 -7.93936 
-3.32334 -11.2147 -7.9208 -3.18107 -11.378 -7.88572 -3.0609 -11.5339 -7.80387 
-2.94886 -11.6871 -7.70483 -2.85943 -11.8276 -7.56352 -2.77868 -11.9631 -7.40599 
-2.71975 -12.0809 -7.21412 -2.66954 -12.1916 -7.00851 -2.63922 -12.2812 -6.77836 
-2.61718 -12.362 -6.53799 -2.61211 -12.4203 -6.28303 -2.61439 -12.4689 -6.02173 
-2.62984 -12.4961 -5.75442 -2.65123 -12.5138 -5.48438 -2.68141 -12.5136 -5.21453 
-2.7157 -12.505 -4.94476 -2.75435 -12.4841 -4.67856 -2.79511 -12.4571 -4.4141 
-2.8363 -12.4243 -4.15401 -2.87771 -12.3887 -3.89615 -2.91666 -12.3543 -3.64147 
-2.95433 -12.3204 -3.38848 -2.98785 -12.2942 -3.13643 -3.01912 -12.272 -2.88491 
-3.04571 -12.2623 -2.63196 -3.06967 -12.2597 -2.37819 -3.08937 -12.2727 -2.12123 
-3.10659 -12.295 -1.86239 -3.12068 -12.3346 -1.59977 -3.13287 -12.3847 -1.33486 
-3.14349 -12.4523 -1.06688 -3.15312 -12.5309 -0.796971 -3.16284 -12.6261 -0.525929 
-3.17263 -12.7322 -0.254145 -3.18405 -12.8532 0.0159541 -3.19657 -12.9844 0.284915 
-3.21192 -13.1288 0.54888 -3.22924 -13.2823 0.809347 -3.25017 -13.4471 1.06142 
-3.27372 -13.6201 1.30742 -3.30121 -13.8029 1.54194 -3.33166 -13.9932 1.76786 
-3.36599 -14.1924 1.97997 -3.40334 -14.3986 2.18136 -3.44416 -14.6132 2.36768 
-3.48776 -14.8346 2.54191 -3.53402 -15.0639 2.70119 -3.5825 -15.2998 2.84807 
-3.63253 -15.5432 2.98157 -3.6839 -15.793 3.10359 -3.73541 -16.0494 3.215 
-3.78705 -16.3115 3.31699 -3.8373 -16.579 3.4119 -3.88626 -16.8514 3.50031 
-3.93224 -17.1276 3.58529 -3.97538 -17.4074 3.66699 -4.01407 -17.6896 3.74844 
-4.04838 -17.974 3.82964 -4.07688 -18.2593 3.91288 -4.0995 -18.5455 3.9982 
-4.1151 -18.8314 4.08675 -4.12334 -19.1171 4.17869 -4.12351 -19.4017 4.274 
-4.1149 -19.6851 4.37297 -4.09729 -19.967 4.47451 -4.06956 -20.247 4.57893 
-4.03208 -20.5253 4.68451 -3.98326 -20.8016 4.79143 -3.92421 -21.0758 4.89778 
-3.85285 -21.3478 5.00345 -3.77106 -21.6177 5.10684 -3.67628 -21.885 5.20739 
-3.57118 -22.15 5.30425 -3.4528 -22.4118 5.39638 -3.32451 -22.6707 5.48398 
-3.18302 -22.9255 5.56557 -3.03234 -23.1764 5.64255 -2.86897 -23.4218 5.71319 
-2.69746 -23.6621 5.78005 -2.51432 -23.895 5.84151 -2.32447 -24.1213 5.90089 
-2.12471 -24.3381 5.95722 -1.92005 -24.5472 6.01395 -1.70791 -24.7443 6.07129 
-1.49297 -24.9326 6.13196 -1.2736 -25.1069 6.19793 -1.05357 -25.2718 6.27019 
-0.832483 -25.4212 6.3528 -0.612649 -25.5609 6.44421 -0.394953 -25.6844 6.5506 
-0.1799 -25.7988 6.66736 0.0304838 -25.8972 6.80246 0.237545 -25.9877 6.94833 
0.438514 -26.0635 7.11395 0.636206 -26.1329 7.28953 0.827662 -26.19 7.48407 
1.0165 -26.2425 7.68677 1.20016 -26.2858 7.90561 1.38224 -26.3261 8.13021 
1.56109 -26.3603 8.36662 1.73955 -26.3929 8.60619 1.9172 -26.4223 8.85249 
2.0956 -26.451 9.09947 2.27569 -26.478 9.34796 2.4575 -26.5045 9.59503 
2.64329 -26.5298 9.83881 2.83152 -26.5541 10.0796 3.02562 -26.5759 10.3131 
3.2226 -26.5959 10.5424 3.42678 -26.6112 10.7615 3.63399 -26.6236 10.9759 
3.84905 -26.6284 11.1782 4.06698 -26.6294 11.3759 4.29269 -26.6201 11.5608 
4.52085 -26.6066 11.7415 4.75599 -26.5814 11.9103 4.993 -26.5522 12.0757 
5.23556 -26.5113 12.231 5.47934 -26.4674 12.384 5.72693 -26.4138 12.5298 
5.97514 -26.3585 12.6744 6.22535 -26.2975 12.8153 6.47567 -26.2363 12.9561 
6.72637 -26.1745 13.0967 6.9769 -26.1139 13.238 7.22681 -26.0581 13.3822 
7.4764 -26.0048 13.5278 7.72481 -25.9608 13.6785 7.97293 -25.9201 13.8309 
8.21992 -25.8922 13.9899 8.46672 -25.8678 14.1504 8.71269 -25.858 14.3178 
8.9585 -25.8516 14.4866 9.20365 -25.8602 14.6617 9.44856 -25.8719 14.8381 
9.69234 -25.8979 15.0198 9.93563 -25.9266 15.2025 10.1765 -25.9686 15.3896 
10.4164 -26.0129 15.5774 10.6513 -26.0696 15.7686 10.8847 -26.1285 15.9602 
11.1093 -26.1995 16.1543 11.3318 -26.2725 16.3485 11.5413 -26.3584 16.544 
11.7481 -26.4466 16.7394 11.937 -26.5492 16.9343 12.1228 -26.6544 17.1287 
12.2869 -26.7767 17.3202 12.4476 -26.9017 17.5108 12.5836 -27.0469 17.6953 
12.7164 -27.195 17.8786 12.8231 -27.366 18.0521 12.9269 -27.5398 18.2241 
13.0051 -27.7382 18.383 13.0809 -27.9392 18.5403 13.1327 -28.1649 18.6821 
13.1825 -28.3928 18.8224 13.2111 -28.6437 18.9458 13.2383 -28.8962 19.0679 
13.247 -29.1684 19.1736 13.2547 -29.4417 19.2782 13.2472 -29.7303 19.368 
13.2389 -30.0195 19.457 13.2179 -30.319 19.534 13.1964 -30.6187 19.6105 
13.165 -30.9234 19.6782 13.1333 -31.228 19.7456 13.0939 -31.5326 19.8083 
13.0543 -31.8371 19.8708 13.0095 -32.1365 19.9325 12.9645 -32.4357 19.9941 
12.9166 -32.7252 20.0591 12.8687 -33.0144 20.1242 12.82 -33.2892 20.1966 
12.7714 -33.5639 20.2692 12.7245 -33.8193 20.3534 12.6776 -34.0748 20.4376 

LINES 2 240
OFFSETS vtktypeint64
0 240 
CONNECTIVITY vtktypeint64
0 1 2 3 4 5 6 7 8 
9 10 11 12 13 14 15 16 17 
18 19 20 21 22 23 24 25 26 
27 28 29 30 31 32 33 34 35 
36 37 38 39 40 41 42 43 44 
45 46 47 48 49 50 51 52 53 
54 55 56 57 58 59 60 61 62 
63 64 65 66 67 68 69 70 71 
72 73 74 75 76 77 78 79 80 
81 82 83 84 85 86 87 88 89 
90 91 92 93 94 95 96 97 98 
99 100 101 102 103 104 105 106 107 
108 109 110 111 112 113 114 115 116 
117 118 119 120 121 122 123 124 125 
126 127 128 129 130 131 132 133 134 
135 136 137 138 139 140 141 142 143 
144 145 146 147 148 149 150 151 152 
153 154 155 156 157 158 159 160 161 
162 163 164 165 166 167 168 169 170 
171 172 173 174 175 176 177 178 179 
180 181 182 183 184 185 186 187 188 
189 190 191 192 193 194 195 196 197 
198 199 200 201 202 203 204 205 206 
207 208 209 210 211 212 213 214 215 
216 217 218 219 220 221 222 223 224 
225 226 227 228 229 230 231 232 233 
234 235 236 237 238 239 
CELL_DATA 1
FIELD FieldData 3
Length 1 1 double
68.492609179 
Tortuosity 1 1 double
0.64221640616 
ClusterLabel 1 1 int
2 
POINT_DATA 240
FIELD FieldData 6
Curvature 1 240 double
0 0.099889401431 0.19977880286 0.17646899083 0.15211511766 0.12700443557 0.10188081658 0.076056845234 0.050214761329 
0.030641740616 0.011286774275 0.044862182703 0.080759098797 0.12591510252 0.17156273921 0.22007683172 0.26877007772 0.30003287081 
0.33003941505 0.32325267593 0.31345557726 0.27396994598 0.2317605961 0.18558067779 0.13899634973 0.10947578261 0.081868908302 
0.079440099633 0.080099166938 0.089764125716 0.10062987002 0.11038806035 0.11998650732 0.12906900263 0.1380713501 0.1493301187 
0.16096495749 0.17718243678 0.19421662427 0.21475101965 0.23595045452 0.25466939353 0.27288722227 0.27969708355 0.28406238038 
0.27254825012 0.25743260031 0.23168190034 0.2033832196 0.17364544094 0.1435441007 0.12083098485 0.1000828223 0.09687322606 
0.098566884917 0.12102346195 0.1495735041 0.19709654498 0.25045743163 0.32666859446 0.41024262405 0.50916106929 0.61325178947 
0.69040258906 0.75806318937 0.75854682634 0.73432169518 0.67115227144 0.59303910751 0.51937979088 0.44750201318 0.39126633202 
0.34154819109 0.30209404464 0.26709175122 0.23598206359 0.20662879564 0.17666269214 0.14640908554 0.11307078253 0.078228690005 
0.052141683442 0.030487631793 0.047452368614 0.084716725015 0.11823939029 0.14972113314 0.17145036874 0.18766173841 0.19368785446 
0.19373862172 0.18826770285 0.17943900188 0.16927451298 0.15826829469 0.14929720286 0.14165459636 0.13679251185 0.13381021687 
0.13377851925 0.13581223978 0.14056166853 0.14727900179 0.15578322933 0.1656276276 0.17509026056 0.18425659806 0.1898926241 
0.19269370307 0.18991455806 0.18249953467 0.16959595143 0.15197563708 0.13205115759 0.1100785313 0.090062077925 0.07184404158 
0.060627185327 0.056067188835 0.057694702452 0.065406601011 0.073832076646 0.082983223884 0.091063951942 0.098018894311 0.10399362964 
0.10890217486 0.11335061149 0.11728142595 0.12115080202 0.12494868615 0.12876594194 0.13260651546 0.13606911784 0.13906103919 
0.14143260179 0.14300485601 0.14358472514 0.14284141415 0.1412214543 0.13839171902 0.13522565177 0.13157911028 0.12910762423 
0.12837424104 0.1308754771 0.13833187458 0.14985062609 0.16781615682 0.18808240699 0.21213206245 0.23414917102 0.25270171099 
0.26520476957 0.26701572148 0.26159053432 0.2428990922 0.22002239226 0.18918349454 0.15791196107 0.12578597199 0.095040132376 
0.067125368604 0.042760593443 0.025962899272 0.018334207021 0.031026005513 0.044533615339 0.059922123519 0.07496215359 0.089165836202 
0.10293471163 0.1156165691 0.12713586453 0.13562545285 0.14217127367 0.14343247658 0.14240856451 0.13489787447 0.12525230116 
0.10927324081 0.091888964585 0.070143673566 0.047853753444 0.023793788735 0.0092113844836 0.026922889941 0.044860886815 0.063609026065 
0.081080851287 0.093753735764 0.10475366848 0.10913150048 0.11231438469 0.11050966076 0.10810927287 0.10308254847 0.098131911228 
0.093536347374 0.089393637394 0.08749255409 0.08646981601 0.090069947534 0.094508374642 0.10365057142 0.11376957618 0.12974942879 
0.14641747796 0.16751579239 0.18906910126 0.21377703817 0.23810528304 0.25958583768 0.27980130592 0.2897014543 0.29798407387 
0.2918437282 0.28444228115 0.26465911147 0.24443804968 0.21944396395 0.19449819544 0.17014297074 0.14608036893 0.12607790967 
0.1062706535 0.089586646797 0.073101130877 0.060353857931 0.047793727194 0.039500438828 0.031580443828 0.034392633122 0.037469400771 
0.050776531442 0.064213856623 0.085267560645 0.10570022419 0.052850112097 0 
Torsion 1 240 double
0 0 0 0.0075321986546 0.015128229501 0.025599621607 0.036120165188 0.10001097402 0.16528204833 
2.2750941571 4.4560207366 2.4351098742 0.22990789596 0.088892566377 0.057480067701 0.054558743267 0.053418117223 0.061847746201 
0.070967123289 0.09520260979 0.12067486888 0.18621465809 0.25543036749 0.4447034454 0.64620458862 0.99990980133 1.3706846293 
1.137841778 0.83097034331 0.50670713151 0.18012501608 0.013270023713 -0.13054740283 -0.21764029463 -0.29592160823 -0.3358759258 
-0.3694424107 -0.36596172334 -0.35587856965 -0.3247963454 -0.28972429775 -0.25043449161 -0.21029261304 -0.17284838936 -0.13598223458 
-0.097696805759 -0.059089479734 -0.0030512940649 0.057163035061 0.17423963852 0.30568144813 0.54546429073 0.81406123784 0.8798767444 
0.88900066542 0.68448141022 0.41726252721 0.25517112959 0.12542665056 0.052700425169 -0.0016532518259 -0.032120359141 -0.054535813756 
-0.068307916084 -0.07903520113 -0.089033062992 -0.09876263127 -0.10714039429 -0.11499944133 -0.11866621992 -0.12065609112 -0.12028885127 
-0.11893948183 -0.1193593484 -0.12054659443 -0.1279954057 -0.13826955737 -0.16404396867 -0.19709010671 -0.3525408891 -0.5676639356 
-2.1021899526 -4.3047681065 -3.5265682966 -1.1815493007 -0.29679208757 -0.20854130139 -0.16853183035 -0.15581678763 -0.15454006504 
-0.1599738236 -0.1681192274 -0.17791360467 -0.18564042564 -0.19206440292 -0.19066841857 -0.18416773704 -0.16896816693 -0.14788765808 
-0.12132258992 -0.090918330246 -0.060983354716 -0.031388440159 -0.0069612971744 0.01359001713 0.030543980594 0.04470597027 0.058853859502 
0.072990425649 0.091214640874 0.11283474918 0.14809489261 0.19507694123 0.28122734811 0.40219407343 0.61205990446 0.90365555847 
1.0711239534 1.1205697085 0.96840236581 0.61798214358 0.35286739313 0.17450396992 0.039932278282 -0.04858259223 -0.12020335763 
-0.17344807888 -0.21307152134 -0.23737102515 -0.24972689373 -0.24818471405 -0.23709479354 -0.21451222204 -0.18495109103 -0.14669967834 
-0.1045926682 -0.057517869039 -0.0063755091993 0.050190264878 0.11318832882 0.18506295279 0.26498351364 0.35639827006 0.44725709016 
0.53729358781 0.59634819939 0.60794119827 0.58676073298 0.513570205 0.43831125052 0.35965088355 0.29021557896 0.23650481251 
0.19059065615 0.15845655482 0.13122121568 0.11296694058 0.094961907805 0.077431043347 0.054979561557 0.022809860535 -0.053197248086 
-0.21912724409 -0.98922959244 -3.0471730077 -3.8114272984 -1.7085867726 -0.18668072214 -0.0041513787039 0.13574652008 0.17332895171 
0.20103415939 0.20404630721 0.20257208005 0.18940608781 0.17639635712 0.16381146252 0.15187451047 0.14177687925 0.13138613637 
0.12012582888 0.10939501848 0.10030747488 0.11381302835 0.2007461473 0.24343730525 0.13537807758 0.052467731348 0.059512999481 
0.065666095117 0.068464622166 0.069899988124 0.065939508103 0.060559657155 0.049255475384 0.036313223856 0.016148573849 -0.0063730650286 
-0.039893985303 -0.0733357294 -0.10638555142 -0.13209258504 -0.11915336399 -0.10241498696 -0.064359123654 -0.025452352311 0.018559867221 
0.060703648169 0.090819355728 0.11918219109 0.13539177925 0.15003123333 0.15289468175 0.15472395236 0.14812069613 0.14134148463 
0.13299333853 0.12403981407 0.10914257476 0.0937773752 0.073311408999 0.052426875023 0.02642651267 -0.00055147615836 -0.041094032336 
-0.083247957105 -0.15118377934 -0.22448908285 -0.39891961706 -0.58295015798 -0.98586085162 -1.370726894 -1.2368092114 -1.0984108551 
-0.78675977953 -0.47632690086 -0.23715854136 0 0 0 
FrenetTangent 3 240 double
-0.72307286442 -0.64713832182 -0.24161462116 -0.72307286442 -0.64713832182 -0.24161462116 -0.72307286442 -0.64713832182 -0.24161462116 
-0.72669398177 -0.65860141303 -0.18693988244 -0.73034578656 -0.67016164908 -0.13180179848 -0.73044067368 -0.67556732764 -0.091971121442 
-0.73047475879 -0.68086780008 -0.052402109474 -0.72981388101 -0.6826407066 -0.028673453467 -0.72913503005 -0.68432238297 -0.0053544618373 
-0.72943511561 -0.68401802295 0.0015931454638 -0.72976925113 -0.68364458339 0.0079713133101 -0.73156947131 -0.68164139447 -0.0034978488684 
-0.73343399345 -0.67956672531 -0.01574978868 -0.73560972305 -0.67485965885 -0.047967543428 -0.73780197694 -0.67001281909 -0.081245429942 
-0.73684721319 -0.66010997315 -0.13483863304 -0.73569576083 -0.64989112683 -0.18970154343 -0.72650873585 -0.63233319064 -0.25880699961 
-0.71674257051 -0.61424631104 -0.32893894557 -0.69700076583 -0.59055116252 -0.39932859341 -0.67644277249 -0.56639715563 -0.46973932595 
-0.6502858923 -0.54363042892 -0.52657168269 -0.62361535278 -0.52099097561 -0.58215831688 -0.59791759991 -0.50694371033 -0.61922382783 
-0.57231892716 -0.49377157531 -0.65440292807 -0.5508366964 -0.49208873415 -0.67356222534 -0.52981612269 -0.49169441192 -0.69092490919 
-0.51208694057 -0.5018275611 -0.6967695012 -0.4947614197 -0.51325181527 -0.70120149705 -0.47790626932 -0.53241889769 -0.69816472824 
-0.46111383501 -0.55261835721 -0.69413212413 -0.44151773627 -0.5772417934 -0.68611331943 -0.42151726286 -0.60250330315 -0.67751958194 
-0.39573070966 -0.62900191868 -0.66802154055 -0.36904534796 -0.65569270599 -0.65838302477 -0.3340944068 -0.68070871353 -0.65042465262 
-0.29776586907 -0.70544559111 -0.64274630441 -0.25129845096 -0.7255816176 -0.63851907787 -0.20302410366 -0.74489769042 -0.63490690272 
-0.14390918327 -0.75633545868 -0.63519714698 -0.082734553995 -0.76627634906 -0.63622885094 -0.012581079318 -0.76504122189 -0.63988695625 
0.059386303521 -0.7615483134 -0.6440756477 0.13466113234 -0.74552494358 -0.64812650739 0.21064469959 -0.7268164749 -0.65214783169 
0.28180658106 -0.69862778997 -0.65332480482 0.35187488431 -0.6682889529 -0.65385666738 0.41096330957 -0.63545792323 -0.65046979332 
0.46742113906 -0.60202980575 -0.64614405528 0.5115989696 -0.57330248431 -0.63808295542 0.55267448462 -0.54576273241 -0.6290781852 
0.58382310453 -0.5274616882 -0.61621856028 0.61233159276 -0.51161774711 -0.60233370804 0.63428480328 -0.50687076403 -0.58306094008 
0.65440535552 -0.50522615631 -0.5622818731 0.67055000252 -0.51502990624 -0.53266936995 0.68552780778 -0.52819350026 -0.50046444531 
0.69728343039 -0.55200016757 -0.45362659208 0.70804761219 -0.57908162667 -0.40228629928 0.71296706694 -0.61348915649 -0.32826158652 
0.71600322075 -0.65025730911 -0.24692744955 0.70555193518 -0.68459306908 -0.13659478848 0.69055432173 -0.7181089214 -0.016487344012 
0.65280974811 -0.73175448593 0.1248503234 0.60705204079 -0.73840028999 0.27366681934 0.54080878847 -0.71422034356 0.41583885093 
0.46703062306 -0.67870219004 0.5555669416 0.38879207334 -0.62170753301 0.66582904332 0.30884198081 -0.55647189207 0.76478442835 
0.23664410112 -0.4853547141 0.8342390918 0.16754710657 -0.41188492132 0.89189346662 0.10886933767 -0.34078391225 0.92951152476 
0.054532912803 -0.2706698964 0.95878111762 0.009527065144 -0.20571544944 0.97587520864 -0.031431785171 -0.14299888777 0.98768835909 
-0.064214863848 -0.08687779647 0.9924661815 -0.093308874836 -0.033732710084 0.99406952661 -0.11487835255 0.011198584531 0.99239566376 
-0.13291780232 0.052276495353 0.98918434533 -0.14401627995 0.083111533531 0.98574192033 -0.15173103368 0.10895317129 0.98218683087 
-0.15342444272 0.1227671122 0.98047628565 -0.15206906964 0.13049108002 0.97969968687 -0.14604059592 0.12535836132 0.98120421738 
-0.13755574878 0.11346764071 0.98390780302 -0.12616732262 0.089770633627 0.98745160425 -0.11319512607 0.059633833913 0.99145370489 
-0.099440205529 0.021111014039 0.99390631806 -0.085242427983 -0.022156527766 0.99548224752 -0.072315384633 -0.069063377777 0.99386731971 
-0.060133838679 -0.1181052886 0.99038042229 -0.050606434345 -0.16673462897 0.98361598653 -0.042693035051 -0.2151130819 0.97485845313 
-0.037885570379 -0.26091071219 0.96367812828 -0.035035269991 -0.30508207068 0.95097111293 -0.035069088608 -0.34631621673 0.93665308618 
-0.036985596019 -0.38563301578 0.92128342699 -0.041272491061 -0.422745847 0.90455634806 -0.047161901684 -0.4583686718 0.88691157692 
-0.054881799616 -0.49281995866 0.86761420343 -0.063883038665 -0.52645116896 0.84716000829 -0.074199490947 -0.5598932114 0.82431148422 
-0.085468996296 -0.59319817567 0.79972793918 -0.097479857356 -0.62685025817 0.77183193741 -0.1100467352 -0.66076267934 0.74145159309 
-0.1226258189 -0.69469812703 0.70722212809 -0.13521437582 -0.72865144605 0.67000528585 -0.14683377463 -0.76137343719 0.62956384763 
-0.15767491012 -0.79310663471 0.58653296112 -0.16650927916 -0.82207861639 0.54243502957 -0.17367648839 -0.84875666489 0.49745062983 
-0.17813498078 -0.87176659386 0.45457932934 -0.18026566963 -0.8916242326 0.41352397352 -0.17950548064 -0.90797731833 0.37738407876 
-0.17617562245 -0.92121524584 0.34561348273 -0.17012741034 -0.93176124456 0.32010675262 -0.16158006639 -0.93983240552 0.30035873796 
-0.15060601442 -0.94599949406 0.28671566148 -0.13732460075 -0.95035615307 0.2788772803 -0.12184735002 -0.95328794172 0.27596164992 
-0.10421085953 -0.95481860784 0.27788672447 -0.084491126563 -0.95517246627 0.2830122798 -0.062652841928 -0.95432957113 0.29139256134 
-0.038820486257 -0.95248398354 0.30111566562 -0.012890917945 -0.94958384009 0.31225104898 0.014912431784 -0.94587964583 0.32302130139 
0.044753929721 -0.94130087001 0.33339439382 0.076259564045 -0.9361335078 0.34201706533 0.1096373518 -0.93030398592 0.34867051331 
0.14431115349 -0.92401440664 0.35270685201 0.18049304412 -0.91718948783 0.3536978272 0.21749109661 -0.90988189628 0.35175252488 
0.25547156614 -0.90199330977 0.34627281446 0.2937136172 -0.89344769163 0.33807329888 0.3322814113 -0.88408388316 0.32648685613 
0.37060549591 -0.87376357374 0.31293342503 0.40861557023 -0.86221084962 0.29684560508 0.44598523757 -0.84939261292 0.27993683529 
0.48250102894 -0.83488702612 0.26193346569 0.51807891084 -0.8189080041 0.24454098242 0.55236247766 -0.80089564148 0.22799152226 
0.58550006239 -0.78135481027 0.21360679624 0.61700052984 -0.7596304525 0.20231454755 0.64715917238 -0.73644798287 0.1946702822 
0.67533303221 -0.71110872279 0.19242199221 0.70188378705 -0.68433926466 0.19511136479 0.72594808319 -0.65537886483 0.20536481622 
0.74781447601 -0.62486907218 0.22140484656 0.76619289183 -0.59190046046 0.24662792606 0.78137885448 -0.55716961965 0.27760887273 
0.79131500525 -0.51954089097 0.31805831208 0.79688530331 -0.48029677887 0.36274665296 0.79501380698 -0.43829917229 0.41466039418 
0.78842589041 -0.39567023851 0.46771133812 0.77350197526 -0.35192547061 0.52277222175 0.7552290812 -0.30931408032 0.57555629592 
0.73081639245 -0.26878054897 0.62416621941 0.70565022162 -0.23102994745 0.66852059229 0.67905059706 -0.19857370023 0.70477903963 
0.65404180964 -0.16947735719 0.73664901395 0.63217492557 -0.14701682492 0.75985175408 0.61311700693 -0.12758141094 0.77944524467 
0.59982106865 -0.11435136781 0.79163514647 0.58960139871 -0.10322837325 0.80104716834 0.58593903758 -0.096596719093 0.80453791982 
0.58510945424 -0.090939912033 0.80582123673 0.590557919 -0.087443576925 0.80221240133 0.59835864798 -0.08380590648 0.79674081257 
0.61158265278 -0.079842379564 0.78697454244 0.62655127717 -0.074776239351 0.77556972804 0.64570698855 -0.067063827228 0.76023240739 
0.66586583824 -0.05760660017 0.74347445754 0.68853253372 -0.043787335774 0.72316493468 0.71131051743 -0.028068383706 0.70178981361 
0.73437852501 -0.0073987304309 0.67763767901 0.75668382797 0.01462775314 0.65299230315 0.77691552775 0.040343119077 0.62700592757 
0.79580372432 0.066420419939 0.60130228312 0.81087810533 0.093525148975 0.57640123022 0.82449209972 0.11984879712 0.55260213015 
0.83377361379 0.14385523864 0.53207215681 0.84189127493 0.16608670262 0.51325111824 0.84639697871 0.18280961562 0.49973367031 
0.85016100918 0.19717526385 0.48817768899 0.85151460139 0.20387980161 0.48299647419 0.85245482804 0.20805501548 0.47960695101 
0.85198654981 0.20361179237 0.48232245115 0.85123334698 0.19684443303 0.48634783458 0.84946099083 0.18176381719 0.49505856977 
0.84738691016 0.16486025162 0.5044648562 0.84417834534 0.14110239503 0.51648641534 0.84067070297 0.11625785702 0.52856790229 
0.83597921195 0.087111871723 0.54088660352 0.83104231473 0.057664939745 0.55286625119 0.82508111337 0.026961882514 0.56343071881 
0.8189452867 -0.0034963017949 0.57357320593 0.81203952112 -0.032874819128 0.58185514262 0.804985261 -0.061803557176 0.58984135806 
0.79723802637 -0.088633325223 0.59644754097 0.78927244903 -0.11508244365 0.60297709605 0.78022607532 -0.13964734647 0.60912734339 
0.77079060317 -0.16409947211 0.61541192088 0.75930724445 -0.1879580336 0.62240349917 0.74724150553 -0.21208364524 0.62958793739 
0.73190796655 -0.23770770485 0.63785453418 0.71577411005 -0.26397973061 0.6462209184 0.69483834849 -0.29413955326 0.6551860272 
0.67290214904 -0.32524604467 0.66396657669 0.64452563067 -0.36244671631 0.6715590256 0.61504313078 -0.40067755676 0.67849988548 
0.57789249232 -0.44605090095 0.68092306138 0.53971336312 -0.49218856931 0.68218814967 0.49382055342 -0.54405866883 0.674767581 
0.44727119343 -0.59605435293 0.66591128191 0.39536842333 -0.64907403438 0.64534825782 0.34336925167 -0.70150197867 0.62355507571 
0.2905104993 -0.74865359996 0.59079298463 0.23808862562 -0.79480806038 0.55737624813 0.18995610638 -0.83117221414 0.51753208383 
0.14249939524 -0.86655418218 0.47765911603 0.1024089924 -0.89123032602 0.43747219003 0.062968736926 -0.91517888731 0.39764405228 
0.031474726962 -0.93023477309 0.36220110425 0.00046938347538 -0.94483887658 0.3272460067 -0.023755712629 -0.95317450072 0.29905983468 
-0.047651026826 -0.96125575794 0.27134578917 -0.066269830501 -0.96526714427 0.25118576761 -0.084676391645 -0.96914039813 0.23143418847 
-0.099085718449 -0.97041215717 0.21937494169 -0.11336067572 -0.97160644513 0.20764986898 -0.12457200752 -0.97103439209 0.20354396527 
-0.13568764691 -0.97041131975 0.19971159187 -0.14405212902 -0.96832144245 0.20374321492 -0.15235426413 -0.96618584615 0.20799612593 
-0.15824564834 -0.96228244856 0.22080550496 -0.16409047052 -0.95833230076 0.23378261831 -0.1672114143 -0.95164726624 0.25657218926 
-0.17030613165 -0.94501840848 0.27917025121 -0.17030613165 -0.94501840848 0.27917025121 -0.17030613165 -0.94501840848 0.27917025121 

FrenetNormal 3 240 double
-0.10375111309 -0.24406454463 0.96419303285 -0.10375111309 -0.24406454463 0.96419303285 -0.10375111309 -0.24406454463 0.96419303285 
-0.065444283775 -0.20454137989 0.97501449914 -0.026812820315 -0.16468327307 0.98592767277 -0.0024508993097 -0.13218069501 0.9903839032 
0.021667097893 -0.099803852485 0.99472975853 0.022947994314 -0.066417200734 0.99696140412 0.023638276059 -0.033004433228 0.99913837187 
-0.16643513478 0.16933972464 0.11217231096 -0.3631438045 0.37755975695 -0.80572046398 -0.2454835535 0.26866323888 -0.9110984119 
-0.11403519194 0.14585810019 -0.98083974459 -0.07112186088 0.14759203948 -0.98570688713 -0.032909504895 0.15593867317 -0.98712938241 
0.016083505131 0.18251607331 -0.98139770266 0.065750306034 0.21023289634 -0.97521888699 0.12807016514 0.24500460273 -0.95811761652 
0.19130195636 0.28028476917 -0.9402291421 0.26017422072 0.30907052483 -0.9111909569 0.32950797834 0.3373249196 -0.88124052263 
0.40182912729 0.33940141956 -0.84666445435 0.47442434883 0.33907627779 -0.81166401598 0.56322643397 0.27531563808 -0.76943638133 
0.65367921819 0.20509397543 -0.72647264336 0.74613775406 -0.013539743233 -0.601012787 0.83882123403 -0.24881780463 -0.46630102952 
0.78170555173 -0.47026624672 -0.23563178754 0.70621827405 -0.69001860343 0.0068058251767 0.64494795656 -0.74381221556 0.12583113174 
0.58557323375 -0.77547799508 0.22840146415 0.5961332278 -0.76021259652 0.25596843025 0.61677995985 -0.73817827805 0.27271760313 
0.67142168378 -0.69157483877 0.2534548416 0.73134418316 -0.64115483703 0.22859799319 0.79604220488 -0.56561563904 0.18310693086 
0.86153614699 -0.48588990834 0.13417683287 0.90984040585 -0.38810738616 0.083017354655 0.95508115681 -0.28710682193 0.031460561147 
0.97697673298 -0.18124421738 -0.0054683441248 0.99443672594 -0.074457825164 -0.039617950632 0.99306648896 0.028047467445 -0.05302580478 
0.98789216512 0.12968789145 -0.062243405926 0.96952707806 0.2210405973 -0.052813968152 0.94833539889 0.31018879213 -0.039388736324 
0.92002310879 0.38337747067 -0.013119615206 0.89009583477 0.45294646511 0.016062552968 0.86219191951 0.49917363245 0.057074740158 
0.83477276727 0.53980848705 0.10092120274 0.81934177241 0.54259225894 0.16938567479 0.80693936467 0.53581365205 0.24406943344 
0.7945915723 0.44278137279 0.37351739718 0.78225830529 0.32680928703 0.51753030908 0.68892663678 0.11110468832 0.6529122813 
0.57295025386 -0.13248211833 0.78588130265 0.4407689955 -0.2853196541 0.83116250976 0.30383195848 -0.41152425169 0.85070924964 
0.20878178343 -0.44760552415 0.86567779128 0.1266198736 -0.45595654272 0.87923765655 0.052605788004 -0.42109652455 0.90124982455 
-0.018782887555 -0.37231295009 0.92598551232 -0.098097085059 -0.28950180598 0.94424853819 -0.18008280681 -0.19522069457 0.96032976792 
-0.26697800734 -0.076326740763 0.94858944735 -0.35560268335 0.051237646167 0.9270483534 -0.43008114674 0.18101436456 0.87023506396 
-0.49935640549 0.31160481406 0.80044809344 -0.54261975347 0.42314340475 0.7119597648 -0.57590178686 0.52737139846 0.61629533363 
-0.58781471162 0.60838546899 0.52070469256 -0.59117999294 0.68011397026 0.42514356753 -0.58152815731 0.73431623227 0.33733795905 
-0.56645252296 0.7812158946 0.25276381581 -0.54395493457 0.81642316679 0.17741890821 -0.51823818538 0.84655904086 0.10607704257 
-0.48624276973 0.87013801488 0.044716354164 -0.45141429726 0.89075838766 -0.012140632323 -0.40778659184 0.90919562917 -0.057448053611 
-0.36003085121 0.92660868564 -0.097337160363 -0.28123985058 0.94746537509 -0.12089418718 -0.18731916071 0.9700008356 -0.13648932503 
0.20029406781 0.5421624045 -0.032476687492 0.73661237918 -0.11371344008 0.13209684898 0.77041398475 -0.51409496428 0.17928990234 
0.54007219368 -0.78017819189 0.16478295818 0.42425842782 -0.89285713415 0.13535038802 0.37091449391 -0.92186101167 0.097776567325 
0.32844865138 -0.94122147512 0.05284555417 0.29213751845 -0.95512579639 0.0037519189661 0.25513408463 -0.96373876378 -0.048408064446 
0.21772450097 -0.96924747023 -0.10236697214 0.17540735948 -0.97001760207 -0.1554040005 0.13010589229 -0.96790616828 -0.20788042657 
0.080613249322 -0.96081736184 -0.25696367547 0.028479591489 -0.95059212881 -0.30390875794 -0.024829039254 -0.93540451357 -0.34678168512 
-0.078904666204 -0.91697756548 -0.38699639983 -0.12788028703 -0.89475449802 -0.42399945628 -0.17340801639 -0.86996503999 -0.45883125081 
-0.20964453243 -0.84343087949 -0.49234547595 -0.23937719915 -0.81567542726 -0.52493740251 -0.25766875494 -0.78763195772 -0.55817362937 
-0.26766965064 -0.75937977998 -0.59187674052 -0.26846214763 -0.7301368495 -0.62689311473 -0.26234834559 -0.70015085446 -0.66289443625 
-0.24999577603 -0.66787505631 -0.69939503343 -0.23280117795 -0.63382209756 -0.73628312813 -0.21036376279 -0.59769372703 -0.77189411595 
-0.18371620665 -0.55989873795 -0.80647954825 -0.15131309295 -0.52206506718 -0.83765242123 -0.11412843913 -0.48419926085 -0.86599024492 
-0.067386980079 -0.44966093986 -0.8887226591 -0.012432641532 -0.41798217657 -0.90663792448 0.064971500915 -0.39246018748 -0.91324022208 