# vtk DataFile Version 5.1
vtk output
ASCII
DATASET POLYDATA
POINTS 240 float
0 0 0 0.0107566 -0.373555 0.0759237 0.0215132 -0.747111 0.151847 
-0.0321529 -1.10383 0.223703 -0.0863649 -1.46041 0.295524 -0.195709 -1.79934 0.358485 
-0.305997 -2.13796 0.421295 -0.462215 -2.45817 0.470561 -0.619621 -2.77791 0.519477 
-0.813722 -3.07855 0.550333 -1.0091 -3.37854 0.58056 -1.23176 -3.65894 0.588485 
-1.45563 -3.93849 0.595431 -1.69711 -4.19827 0.576263 -1.93953 -4.457 0.555709 
-2.18965 -4.69614 0.505875 -2.44025 -4.93407 0.454211 -2.68859 -5.1531 0.371007 
-2.93677 -5.37076 0.285531 -3.17302 -5.57082 0.16747 -3.4083 -5.76944 0.046742 
-3.62273 -5.95243 -0.106094 -3.83524 -6.13399 -0.261876 -4.01917 -6.30266 -0.447533 
-4.20018 -6.47002 -0.636234 -4.3464 -6.62791 -0.850753 -4.48872 -6.78474 -1.06817 
-4.59189 -6.93593 -1.3057 -4.69026 -7.08644 -1.54569 -4.74713 -7.23501 -1.79895 
-4.79847 -7.38334 -2.05398 -4.80799 -7.53269 -2.31501 -4.81149 -7.68219 -2.57691 
-4.77479 -7.83439 -2.83799 -4.73185 -7.987 -3.09896 -4.65211 -8.14249 -3.35352 
-4.56625 -8.29845 -3.60703 -4.4485 -8.45608 -3.85038 -4.32507 -8.61401 -4.09193 
-4.17581 -8.77152 -4.32172 -4.02165 -8.92896 -4.54929 -3.8484 -9.08362 -4.76573 
-3.6713 -9.23772 -4.97991 -3.48197 -9.38694 -5.18557 -3.29003 -9.53512 -5.3894 
-3.09227 -9.67694 -5.58873 -2.89319 -9.81732 -5.78706 -2.69367 -9.95057 -5.98572 
-2.49403 -10.0821 -6.18447 -2.29783 -10.2065 -6.38841 -2.1025 -10.329 -6.59366 
-1.9127 -10.4448 -6.80815 -1.72436 -10.559 -7.0251 -1.54176 -10.6677 -7.25377 
-1.36075 -10.775 -7.4857 -1.184 -10.8791 -7.72967 -1.00849 -10.9824 -7.97718 
-0.834615 -11.0856 -8.2346 -0.661237 -11.1888 -8.49509 -0.48643 -11.2957 -8.76107 
-0.311163 -11.4038 -9.02882 -0.131781 -11.5196 -9.29569 0.0489886 -11.6381 -9.56226 
0.235466 -11.7682 -9.82025 0.423954 -11.9025 -10.0752 0.618182 -12.0514 -10.3132 
0.814521 -12.2057 -10.545 1.01496 -12.3761 -10.7516 1.21697 -12.5526 -10.9487 
1.42002 -12.7448 -11.1132 1.62348 -12.9431 -11.2647 1.82407 -13.1543 -11.3779 
2.02346 -13.3709 -11.4752 2.21591 -13.5954 -11.5301 2.40535 -13.8234 -11.5666 
2.58424 -14.053 -11.5592 2.75837 -14.2834 -11.5319 2.91931 -14.5082 -11.4613 
3.07406 -14.7305 -11.3704 3.2142 -14.9404 -11.2393 3.34722 -15.1443 -11.0887 
3.46547 -15.3299 -10.9029 3.57625 -15.5062 -10.6993 3.67321 -15.6602 -10.4671 
3.76292 -15.8024 -10.2197 3.84055 -15.9199 -9.95091 3.9116 -16.024 -9.67034 
3.97271 -16.1031 -9.37535 4.02818 -16.168 -9.0722 4.0758 -16.2089 -8.76096 
4.11882 -16.2358 -8.44497 4.1557 -16.2408 -8.12599 4.18884 -16.2325 -7.8052 
4.21683 -16.2048 -7.48507 4.24159 -16.165 -7.16536 4.26132 -16.1087 -6.84848 
4.27776 -16.0417 -6.53344 4.28835 -15.9611 -6.22215 4.295 -15.8714 -5.9134 
4.29423 -15.7712 -5.60842 4.28828 -15.6636 -5.30608 4.27284 -15.5484 -5.00697 
4.25054 -15.4279 -4.71022 4.21651 -15.3027 -4.41597 4.17369 -15.1741 -4.12362 
4.11705 -15.0441 -3.83314 4.04971 -14.9128 -3.54412 3.96698 -14.7831 -3.2566 
3.87191 -14.6547 -2.9703 3.76065 -14.5314 -2.68549 3.63594 -14.4121 -2.40191 
3.49514 -14.3015 -2.12018 3.34053 -14.1983 -1.84003 3.1709 -14.1073 -1.56244 
2.98792 -14.0273 -1.28711 2.79189 -13.9631 -1.01535 2.58385 -13.9134 -0.746866 
2.36544 -13.8827 -0.483203 2.13718 -13.8699 -0.22412 1.90181 -13.8783 0.0287602 
1.65945 -13.9076 0.275541 1.41363 -13.9593 0.514723 1.16429 -14.0339 0.746179 
0.915352 -14.131 0.968784 0.666839 -14.2518 1.18208 0.422666 -14.3943 1.38556 
0.183216 -14.5603 1.57836 -0.0480294 -14.7461 1.76082 -0.270044 -14.9542 1.93164 
-0.48023 -15.1795 2.09215 -0.676652 -15.425 2.24066 -0.858055 -15.6847 2.37952 
-1.02138 -15.9618 2.50676 -1.16715 -16.2501 2.62567 -1.29105 -16.5522 2.7342 
-1.39574 -16.8623 2.83633 -1.47568 -17.1826 2.93022 -1.53578 -17.5075 3.02015 
-1.56941 -17.8387 3.10479 -1.58362 -18.1713 3.18823 -1.57101 -18.5059 3.26998 
-1.54035 -18.8389 3.35336 -1.48389 -19.1695 3.43906 -1.41146 -19.4956 3.52904 
-1.31542 -19.8149 3.62537 -1.20596 -20.1269 3.72822 -1.07594 -20.4277 3.84109 
-0.935179 -20.719 3.9621 -0.777365 -20.995 4.09605 -0.611337 -21.2596 4.23903 
-0.431801 -21.5053 4.39684 -0.246232 -21.7385 4.56379 -0.0503785 -21.95 4.74629 
0.149799 -22.1482 4.93732 0.35762 -22.3229 5.14341 0.568574 -22.4844 5.3568 
0.785271 -22.6216 5.58358 1.0044 -22.7464 5.81599 1.22816 -22.8474 6.05912 
1.45406 -22.9373 6.30593 1.68421 -23.0049 6.55999 1.91654 -23.063 6.81568 
2.15335 -23.1015 7.07469 2.39256 -23.1321 7.33335 2.6369 -23.146 7.59126 
2.88395 -23.1538 7.84711 3.13699 -23.1481 8.09839 3.39298 -23.1376 8.34628 
3.65578 -23.1164 8.58638 3.92165 -23.0917 8.82223 4.19488 -23.0585 9.04793 
4.47112 -23.0227 9.26906 4.75486 -22.9803 9.47874 5.04136 -22.9357 9.68397 
5.335 -22.8858 9.87761 5.63094 -22.8342 10.0673 5.93315 -22.7782 10.2465 
6.2371 -22.7207 10.4225 6.54595 -22.6595 10.5898 6.8559 -22.5973 10.7551 
7.1691 -22.5322 10.9142 7.48276 -22.4666 11.0721 7.79785 -22.3993 11.2267 
8.11286 -22.3319 11.3811 8.42759 -22.2647 11.5347 8.74183 -22.1982 11.6888 
9.05439 -22.1342 11.8444 9.36622 -22.0717 12.0007 9.67549 -22.0148 12.1598 
9.984 -21.9602 12.3198 10.2896 -21.9147 12.483 10.5946 -21.8724 12.6469 
10.897 -21.843 12.8137 11.1989 -21.8175 12.9808 11.499 -21.8085 13.1497 
11.799 -21.8041 13.3188 12.098 -21.8196 13.4885 12.397 -21.84 13.6581 
12.6959 -21.8829 13.8273 12.9948 -21.9306 13.9964 13.2938 -22.0025 14.1648 
13.5928 -22.0791 14.333 13.8912 -22.1803 14.5009 14.1892 -22.2859 14.669 
14.4848 -22.4155 14.8376 14.7793 -22.5488 15.0066 15.068 -22.7046 15.1777 
15.355 -22.8635 15.3493 15.6311 -23.0426 15.5245 15.9047 -23.2242 15.7004 
16.1609 -23.4232 15.8808 16.4137 -23.624 16.0618 16.6414 -23.8392 16.2474 
16.8649 -24.0557 16.4335 17.055 -24.2835 16.6234 17.2404 -24.5122 16.8134 
17.384 -24.749 17.0053 17.5225 -24.9863 17.197 17.6118 -25.2289 17.388 
17.6961 -25.4716 17.5785 17.7259 -25.7169 17.7652 17.7509 -25.9622 17.9512 
17.7188 -26.2076 18.1303 17.6825 -26.4528 18.3086 17.59 -26.6962 18.4773 
17.4942 -26.9394 18.6453 17.3466 -27.1797 18.8018 17.1967 -27.4197 18.9576 
17.003 -27.6566 19.1009 16.8078 -27.8933 19.2436 16.5795 -28.1277 19.3736 
16.3505 -28.3621 19.5031 16.1009 -28.5964 19.6206 15.8511 -28.8307 19.7378 
15.5938 -29.0678 19.844 15.3365 -29.305 19.95 15.0837 -29.5485 20.0462 
14.831 -29.792 20.1424 14.5933 -30.0456 20.2299 14.3556 -30.2991 20.3174 

LINES 2 240
OFFSETS vtktypeint64
0 240 
CONNECTIVITY vtktypeint64
0 1 2 3 4 5 6 7 8 
9 10 11 12 13 14 15 16 17 
18 19 20 21 22 23 24 25 26 
27 28 29 30 31 32 33 34 35 
36 37 38 39 40 41 42 43 44 
45 46 47 48 49 50 51 52 53 
54 55 56 57 58 59 60 61 62 
63 64 65 66 67 68 69 70 71 
72 73 74 75 76 77 78 79 80 
81 82 83 84 85 86 87 88 89 
90 91 92 93 94 95 96 97 98 
99 100 101 102 103 104 105 106 107 
108 109 110 111 112 113 114 115 116 
117 118 119 120 121 122 123 124 125 
126 127 128 129 130 131 132 133 134 
135 136 137 138 139 140 141 142 143 
144 145 146 147 148 149 150 151 152 
153 154 155 156 157 158 159 160 161 
162 163 164 165 166 167 168 169 170 
171 172 173 174 175 176 177 178 179 
180 181 182 183 184 185 186 187 188 
189 190 191 192 193 194 195 196 197 
198 199 200 201 202 203 204 205 206 
207 208 209 210 211 212 213 214 215 
216 217 218 219 220 221 222 223 224 
225 226 227 228 229 230 231 232 233 
234 235 236 237 238 239 
CELL_DATA 1
FIELD FieldData 3
Length 1 1 double
80.397406963 
Tortuosity 1 1 double
1.0507695155 
ClusterLabel 1 1 int
3 
POINT_DATA 240
FIELD FieldData 6
Curvature 1 240 double
0 0.11736400402 0.23472800803 0.22957742829 0.22338858936 0.21305764519 0.2026558958 0.19185763568 0.18104912096 
0.17233430606 0.16369231551 0.15853973297 0.15354019464 0.15287310568 0.15243605827 0.15678684786 0.16143687727 0.17063470178 
0.18016029532 0.19299626271 0.20610307888 0.22018125096 0.23434853826 0.24649886829 0.25844376749 0.26590543491 0.27286430998 
0.2746353301 0.27577010385 0.27245446081 0.26854542886 0.26120606355 0.25337193862 0.24268432883 0.23155345924 0.21795556316 
0.203946496 0.18794230498 0.17158254733 0.15371528279 0.13556159193 0.11661625045 0.097510979555 0.079393893665 0.061488561705 
0.05164487452 0.043629601614 0.049614231597 0.058953004981 0.069884457963 0.081218272107 0.08631387308 0.089750374804 0.084844000601 
0.077605209472 0.064172594803 0.048922227573 0.033839751788 0.018808934909 0.026462197665 0.041424774969 0.061404544992 0.083075503573 
0.10524865359 0.12759871196 0.1506400247 0.17393559192 0.19827553454 0.22301622587 0.24866940459 0.27468757827 0.30049804828 
0.3262219751 0.34962697066 0.37202616471 0.38857086999 0.40247391571 0.4074933556 0.40834517794 0.40024334656 0.38777660899 
0.36915577522 0.34741894339 0.32369218089 0.29891942918 0.27540601546 0.25257951337 0.23242766345 0.21378910359 0.19787047812 
0.18354754749 0.1712791087 0.16026002307 0.1505576965 0.14168510854 0.13341983129 0.12555099299 0.11870749428 0.1125571829 
0.10843254316 0.10572587357 0.10558962319 0.10731599543 0.11094427462 0.11599898403 0.12161192199 0.12765811194 0.1334465574 
0.13902802622 0.14420512608 0.14904628865 0.15373734355 0.15829939969 0.16309188927 0.16808920859 0.17332735118 0.17878689581 
0.18406993053 0.18918513615 0.19376319869 0.19781307054 0.20105757642 0.20348306606 0.20526552141 0.20637168209 0.20708146081 
0.20736008723 0.20768045544 0.20804778317 0.2086547014 0.20954041585 0.21036236701 0.21110756606 0.21136679409 0.21102085064 
0.20971693382 0.20717870516 0.20369341258 0.19894536811 0.19388128009 0.18838105196 0.18344877492 0.17932785655 0.17642022794 
0.17530725708 0.1754658367 0.17757232342 0.18036399088 0.18424301041 0.1879498177 0.19137343156 0.19376464199 0.19439607386 
0.19341569758 0.1895865441 0.1841027681 0.17558551747 0.16597677651 0.15429154176 0.14245013293 0.13030028031 0.11873748227 
0.10837889877 0.099290071701 0.092907830702 0.08780410729 0.08553385529 0.083963059367 0.084004898286 0.084017114882 0.083958237902 
0.083354470016 0.081388474864 0.078699852069 0.074128017839 0.068902279502 0.061898739374 0.054476391043 0.045865167811 0.037098941388 
0.027872872163 0.018688854557 0.0096353419759 0.0042294579877 0.010678366925 0.017582510779 0.026037825457 0.034516997982 0.043081508187 
0.051724154842 0.060660594544 0.069654227364 0.078874249611 0.087912508433 0.096192102522 0.10397986677 0.1095991085 0.11455101055 
0.11638866074 0.11759939347 0.11570688478 0.11345932012 0.10934303987 0.10528079367 0.1015217386 0.098158111023 0.097167048375 
0.096753327963 0.1000562482 0.10400043477 0.11239073458 0.12144944831 0.13552126639 0.15029308216 0.17077257139 0.19183469888 
0.21809201757 0.24441432742 0.27137473241 0.29752408296 0.31483294011 0.3305868525 0.32733588452 0.32269838935 0.2988228292 
0.27438838014 0.24101170849 0.20766956509 0.17497770368 0.14251219032 0.1152074125 0.088183585753 0.069237102257 0.050720371106 
0.048820730672 0.047177997829 0.060564359117 0.073529283404 0.036764641702 0 
Torsion 1 240 double
0 0 0 0.059878571236 0.12026458799 0.13937300375 0.15777581949 0.17989284347 0.20210592455 
0.22639470685 0.25075568746 0.27307337877 0.29530145213 0.3088484367 0.32193447851 0.32198958262 0.32123025312 0.31091095554 
0.29990265126 0.28756482785 0.2751182256 0.26702004392 0.2593207999 0.256348561 0.25385777632 0.25294132341 0.25220143108 
0.24746416907 0.2422366636 0.22888293122 0.21444570191 0.19201553577 0.16843254221 0.13997113691 0.11075192008 0.079788842417 
0.048535121277 0.015171341862 -0.018568487542 -0.062237039038 -0.10779204773 -0.19196507281 -0.28393971737 -0.52792417344 -0.80448216055 
-1.1571502195 -1.5270803565 -1.2177585826 -0.74569937169 -0.48919489222 -0.28714634491 -0.20188010573 -0.14767299105 -0.13993374627 
-0.14518551888 -0.25072725031 -0.38570190444 -1.8385102622 -3.6968059133 -2.7501385676 -0.89964981191 -0.30049508345 -0.1231383417 
-0.052344772488 -0.019090502684 -0.0045613945119 0.0030802978874 0.0032280099119 0.00050012481583 -0.0069280425639 -0.016236322857 -0.027529670017 
-0.039650128372 -0.051615016174 -0.063512427592 -0.074719089001 -0.085614070529 -0.094827046026 -0.10325093227 -0.10986489177 -0.11559651198 
-0.12012100459 -0.12403429335 -0.12633427155 -0.12778622753 -0.12720106919 -0.12550475757 -0.12028969333 -0.11308375589 -0.099502692906 
-0.082181556274 -0.055875747077 -0.024106285644 0.018053815763 0.06676144373 0.1255455347 0.19090731679 0.26021539071 0.33219138022 
0.38952573048 0.43661093326 0.45209806288 0.44468803805 0.41823302344 0.37749426651 0.34099629402 0.30778967661 0.28270363547 
0.26413866317 0.2492268278 0.23734990618 0.22682499047 0.21746195485 0.2070637936 0.19574552067 0.1830638066 0.1691286063 
0.15581178234 0.14308292277 0.13225844583 0.12330661179 0.11687570998 0.11300846807 0.11169165759 0.11305719742 0.11662145124 
0.12257728868 0.12984777574 0.13859724361 0.14761232656 0.1569364889 0.16612675331 0.17515584429 0.18425947241 0.19345592034 
0.203645977 0.21511626028 0.22798456434 0.24271689609 0.2576437064 0.27283889712 0.28502204804 0.29290228495 0.29425183694 
0.28594141751 0.27104790698 0.24606966118 0.21813773355 0.18551844127 0.15302257308 0.12072966895 0.089641307795 0.060606144885 
0.032433556085 0.0057855168728 -0.021231546028 -0.048925152357 -0.078748989136 -0.11262545945 -0.14977353487 -0.19338303038 -0.23865754029 
-0.28734746434 -0.32892897695 -0.35535834939 -0.36738133034 -0.34747663285 -0.31888404611 -0.270261048 -0.22201207704 -0.17466077121 
-0.13025038507 -0.093192298157 -0.058730532406 -0.031034936944 -0.0053562615211 0.014838912543 0.033374791506 0.047200413409 0.053534417285 
0.037643287681 -0.58111065189 -3.0708181396 -4.378817618 -1.8462660657 0.12332122796 0.17465993694 0.21588811522 0.22095170295 
0.22300329384 0.2137297766 0.20183520406 0.17956562095 0.15641073343 0.12956066231 0.10264417467 0.075434850552 0.047835573647 
0.018416517085 -0.011455052777 -0.043566563472 -0.076214003079 -0.11168212117 -0.14665260968 -0.17883084327 -0.20797220591 -0.21889234286 
-0.22608427961 -0.20927592757 -0.19022525807 -0.1556278542 -0.12150443226 -0.090935874714 -0.061384567816 -0.040127766199 -0.019697050556 
-0.0066322681923 0.0057742789482 0.011718152985 0.017452713377 0.020905755031 0.024434384311 0.028886862356 0.03354236093 0.041014769363 
0.048962506408 0.064515501272 0.081258977174 0.12042317929 0.16260187631 0.27351105728 0.39189946147 0.72531553338 1.0510550614 
1.0799682265 1.0991201803 0.5472412712 0 0 0 
FrenetTangent 3 240 double
-0.058235830934 -0.97847115725 0.19799692529 -0.058235830934 -0.97847115725 0.19799692529 -0.058235830934 -0.97847115725 0.19799692529 
-0.14120268306 -0.96752258076 0.1916753993 -0.2248726441 -0.95648121972 0.18530030105 -0.297659329 -0.93613504319 0.17055799705 
-0.37025997499 -0.91562980999 0.1556726639 -0.43014439669 -0.89018284541 0.13346183282 -0.48969995051 -0.86460807743 0.1110615492 
-0.53675499868 -0.83746727707 0.082204520133 -0.58337524664 -0.81027200603 0.053122908614 -0.61838794985 -0.78364752006 0.018031945323 
-0.65289155021 -0.75704806854 -0.017322586028 -0.67645336459 -0.73218041107 -0.058606210481 -0.69943419919 -0.70740470728 -0.10020465404 
-0.71147190219 -0.68485432481 -0.14778012582 -0.72282565948 -0.66244302493 -0.19572916187 -0.72241291656 -0.64233247027 -0.24938830373 
-0.72115213759 -0.62238773509 -0.30345898475 -0.70663454386 -0.6046295379 -0.36201882767 -0.69103230166 -0.58705023928 -0.42094596565 
-0.66062964995 -0.5716156966 -0.48154816176 -0.62886916251 -0.55637792052 -0.54230403293 -0.58181369485 -0.54355137708 -0.6001775572 
-0.53320040514 -0.53097042215 -0.65775750909 -0.47097330956 -0.52136518235 -0.70703043748 -0.40721943201 -0.5120936676 -0.75537173706 
-0.33390260504 -0.50629885496 -0.79086806203 -0.25941296352 -0.50093043032 -0.82478905991 -0.18073999238 -0.49890243335 -0.84374402567 
-0.10150924394 -0.49731982675 -0.86070352048 -0.02332958958 -0.49804190743 -0.86334940583 0.054698464677 -0.49909639494 -0.86393082827 
0.12756468209 -0.5008206939 -0.85299784381 0.19962906077 -0.50264904124 -0.84027621361 0.26384177556 -0.50350629151 -0.8200667278 
0.32674587969 -0.50420169227 -0.79860926605 0.38044065208 -0.50281841879 -0.77404633162 0.43249415742 -0.50106468852 -0.7489299466 
0.47499349338 -0.49685540935 -0.72477992223 0.51567753715 -0.49217957589 -0.70081350638 0.54708863505 -0.48525443208 -0.68115295012 
0.57662641054 -0.47787488213 -0.66236226449 0.59744613334 -0.46873300758 -0.65022820625 0.61639770198 -0.45921349204 -0.63952056815 
0.62723860472 -0.44838125522 -0.63665180754 0.63623997499 -0.4372512878 -0.63556093665 0.63781426637 -0.42506820083 -0.64209981412 
0.63760915344 -0.41263280396 -0.65046665213 0.63106535853 -0.39939505709 -0.6646537976 0.62292021239 -0.38595461126 -0.68031133653 
0.61041710756 -0.37241371012 -0.69856754187 0.59675497116 -0.35884609214 -0.7175148819 0.58171405537 -0.34672404994 -0.7353482047 
0.56628767438 -0.3350061472 -0.75287008182 0.55278725597 -0.32670344248 -0.76637799486 0.53985206571 -0.31940302413 -0.77870789671 
0.53136640668 -0.31727872473 -0.78543725527 0.52424983419 -0.31674707733 -0.79044336974 0.52266574677 -0.32267917368 -0.78906694192 
0.52286434898 -0.3306940319 -0.78563391713 0.52828991409 -0.34577232931 -0.77515115193 0.53547737681 -0.36323156129 -0.76229206973 
0.5465621931 -0.38762087483 -0.74139768104 0.55901994075 -0.4144514671 -0.71767267303 0.57333910109 -0.44730917868 -0.68453394335 
0.58834291897 -0.48238376172 -0.64793269537 0.60271811255 -0.52161934284 -0.60034658941 0.61685208984 -0.56245158602 -0.54854536352 
0.62765521812 -0.60433182074 -0.4844509575 0.63712600681 -0.64663125208 -0.41543927943 0.64067794106 -0.68544713086 -0.3338987477 
0.64176368596 -0.72281152941 -0.24713786029 0.63490232909 -0.7512108456 -0.1496706284 0.6245940365 -0.77572169233 -0.047559680831 
0.60551788449 -0.78614999188 0.060521956411 0.58248550322 -0.79022397135 0.17129768534 0.55188561186 -0.7774886123 0.28071544297 
0.51773553059 -0.75686739073 0.38949612765 0.47915850637 -0.72074838033 0.48940599192 0.43842334747 -0.67707419789 0.58499133123 
0.39716209906 -0.62271137896 0.66689346569 0.35563447622 -0.56293659219 0.74186739516 0.31675084715 -0.49834738609 0.80225449519 
0.27925700967 -0.43122752369 0.85497415924 0.24598870806 -0.36395805264 0.89510295051 0.2150252442 -0.29660697689 0.92836399299 
0.1884486314 -0.23176343761 0.95207801722 0.16435405275 -0.16833863606 0.97039043901 0.14391468023 -0.10849587454 0.98197752798 
0.12561969531 -0.050754576489 0.98961908838 0.10974623406 0.0031498775392 0.99271031247 0.095345320992 0.054721115609 0.99303444017 
0.081866190086 0.10245775809 0.99039536626 0.068967908215 0.14777808006 0.98588906942 0.055435573172 0.18914382815 0.97962363736 
0.041489342308 0.22792811827 0.97220988093 0.025529194826 0.26248541869 0.96399477941 0.00820752625 0.29418503591 0.95523792345 
-0.012135385002 0.32139694426 0.9463530541 -0.034593166126 0.34546745639 0.93737857537 -0.060562811184 0.36480347055 0.92860424765 
-0.089077285181 0.38070868909 0.91997495688 -0.12098193061 0.39165726612 0.91153392375 -0.15542920463 0.39888836201 0.90323408383 
-0.19254847681 0.40102111829 0.89487252606 -0.23174153861 0.39919695426 0.88646306785 -0.27246955885 0.39212364242 0.87773106033 
-0.31443019725 0.38083510581 0.86874003592 -0.35662139681 0.36419534936 0.8592525311 -0.39900413951 0.34310996411 0.84935256563 
-0.44035838266 0.31675592787 0.83881057578 -0.48082875903 0.28587414468 0.82771684622 -0.51918628596 0.24992682239 0.81580261257 
-0.55566572449 0.20947679866 0.80315904196 -0.58910090853 0.1643447905 0.78940512647 -0.61973734249 0.11490837731 0.77463041004 
-0.64648137495 0.061541354366 0.75837171358 -0.6695244355 0.0044370303503 0.7407020197 -0.68793677709 -0.055447504572 0.72125471675 
-0.70179557839 -0.11806591355 0.70005943154 -0.71049913206 -0.18204028232 0.67703459387 -0.71396006104 -0.24739359324 0.65214919439 
-0.71202446257 -0.31265685046 0.62569135702 -0.70441320591 -0.37782539604 0.59757974878 -0.69140924437 -0.44166541429 0.56841827902 
-0.67253953366 -0.50406036771 0.53811485463 -0.64842267393 -0.564185293 0.50743701804 -0.61840277157 -0.62175643662 0.47633796772 
-0.58334626358 -0.67634371021 0.44558300111 -0.54242897814 -0.7274588441 0.41522842284 -0.49687387074 -0.77487747685 0.38598518077 
-0.44573619985 -0.81784661748 0.3580796582 -0.39075947064 -0.85637623652 0.33210887006 -0.33100202731 -0.88937739472 0.30854737385 
-0.26873678802 -0.91734120341 0.28774862369 -0.20324035007 -0.93881458099 0.27050956556 -0.13696664573 -0.95505816126 0.25675290905 
-0.069656586178 -0.96432867843 0.24763945468 -0.0032642032361 -0.96869357597 0.24246196943 0.061861785986 -0.96628871839 0.24271612153 
0.12482146887 -0.95962378058 0.24700663995 0.1846864284 -0.94687301386 0.25706339597 0.24170940297 -0.9304990067 0.2709082853 
0.29452860809 -0.90876562305 0.29035645515 0.3442774239 -0.88382397318 0.31302086104 0.38932266461 -0.85396753252 0.3406122668 
0.43129200215 -0.82112030562 0.37052953361 0.46838001511 -0.78352683099 0.40413784079 0.50246793973 -0.74317312145 0.43889151027 
0.53162238575 -0.69828035896 0.47552866441 0.55794672582 -0.65112243879 0.5119477932 0.57944702167 -0.6001034544 0.54799528787 
0.59847130278 -0.54773358696 0.58250043589 0.61311937179 -0.4929761123 0.61427957589 0.6258984315 -0.43811561285 0.6435294682 
0.63525097417 -0.38306623462 0.66814240637 0.6435462381 -0.32916101108 0.6897813126 0.64983009368 -0.27743247206 0.70576230438 
0.65590039482 -0.22771324943 0.71883014204 0.66154892596 -0.18196242666 0.7261445003 0.66764911127 -0.13860073068 0.73088464606 
0.67467576665 -0.10013980761 0.73034435594 0.68252054119 -0.064028128031 0.72764408969 0.69210920131 -0.032924046422 0.72033966377 
0.70256114091 -0.0038527746986 0.71126987359 0.71492629447 0.020713350793 0.69828765451 0.72793059802 0.0436446647 0.68392672163 
0.74240849736 0.062806829675 0.6663870875 0.7571333789 0.080729718907 0.64790739667 0.77245101772 0.095678346355 0.62717156973 
0.78758081139 0.10972644816 0.60601971474 0.80224099217 0.12152323585 0.58382778959 0.81635035788 0.13268492464 0.56180295215 
0.82902426616 0.14219150719 0.54021355541 0.84093408172 0.15122501156 0.51934612509 0.8507665202 0.15897233461 0.50044154098 
0.8597874652 0.16629122902 0.48267923415 0.86650481579 0.17239393892 0.46815952085 0.87249201765 0.17800983564 0.45499333188 
0.87631311162 0.18218151996 0.44584259842 0.87955647643 0.185715195 0.43804423365 0.88100688864 0.18726884118 0.43444287515 
0.88205113645 0.18798731109 0.43202317975 0.88177534993 0.18599145806 0.43344388943 0.88128365509 0.18293291838 0.43571237391 
0.88005627268 0.17625337235 0.44086957251 0.87878127348 0.16830952779 0.44646796452 0.87733595267 0.15584338465 0.45364447146 
0.87594627276 0.14199588773 0.46086566452 0.87476580264 0.12295450057 0.46825487742 0.87366434547 0.10251579635 0.47533426627 
0.87287564787 0.076546045391 0.48118726824 0.87207646232 0.049325130603 0.48649454753 0.87123350104 0.016881966779 0.48952402783 
0.87020430451 -0.016474576372 0.49193569287 0.86835397981 -0.053858292016 0.49162335428 0.86613177767 -0.091692688663 0.49079951071 
0.86217414752 -0.13163026333 0.48758864388 0.85771565224 -0.17155144069 0.48412947422 0.85077787455 -0.21139145147 0.47944120557 
0.84329911982 -0.25086780713 0.4748249037 0.83297311747 -0.28843018858 0.47058737434 0.82211256833 -0.32548380903 0.46669868133 
0.80825261767 -0.35968271493 0.46476734778 0.79384413897 -0.39341511208 0.46335382297 0.77614449197 -0.42434845668 0.46504715063 
0.7578221745 -0.45496662921 0.46730147454 0.73549141584 -0.48355588152 0.4731672119 0.71237958463 -0.51200803109 0.47954877325 
0.68385231706 -0.53950960163 0.48950671429 0.65430686209 -0.56702225935 0.49985227742 0.61712500162 -0.59461807093 0.51310500628 
0.57863119486 -0.62226794425 0.52655102399 0.52943997997 -0.65035862865 0.54157308916 0.47866702004 -0.67837436449 0.55650190764 
0.41379016689 -0.70572180904 0.57059927652 0.34729653554 -0.73265641652 0.58420190348 0.26492908177 -0.75553771469 0.59294706431 
0.18138866153 -0.77755552366 0.60081522523 0.085062906703 -0.79016130043 0.59912408714 -0.011493675192 -0.80165986486 0.59643325787 
-0.11087147684 -0.79962583406 0.58152398088 -0.20950668165 -0.79670869203 0.56588645873 -0.29783835521 -0.7815383817 0.54014453505 
-0.38499071351 -0.76600045303 0.5141329129 -0.45327402757 -0.74458063085 0.48380611529 -0.52048150285 -0.72322788299 0.45354094971 
-0.56742734777 -0.70313836808 0.42443652067 -0.61359850894 -0.68332451168 0.39551425032 -0.64210688064 -0.66979566926 0.37074519836 
-0.67011290854 -0.65657438256 0.34614995166 -0.68367655229 -0.65219532291 0.32655160648 -0.69692862837 -0.64806290006 0.30707044351 
-0.69813342126 -0.6534670998 0.29212032544 -0.69915054594 -0.65902762967 0.27722944996 -0.68918907998 -0.67373347211 0.26580426637 
-0.67931132383 -0.68831573606 0.25447509273 -0.67931132383 -0.68831573606 0.25447509273 -0.67931132383 -0.68831573606 0.25447509273 

FrenetNormal 3 240 double
-0.99825369868 0.055107987091 -0.021275874448 -0.99825369868 0.055107987091 -0.021275874448 -0.99825369868 0.055107987091 -0.021275874448 
-0.98428280409 0.1285093641 -0.076380941427 -0.97019351209 0.20253278668 -0.1319530005 -0.94030178905 0.26355614781 -0.19438165418 
-0.91013993899 0.32435728567 -0.2569275146 -0.86494125067 0.36893995833 -0.32674597841 -0.8193536786 0.41310318793 -0.3967525268 
-0.75726558332 0.43892505215 -0.47271422714 -0.69460355679 0.46410895585 -0.54888306319 -0.61306443288 0.46936209469 -0.62538994517 
-0.53069736609 0.47374107717 -0.70191165372 -0.43012212858 0.45883070612 -0.76782387169 -0.32858008554 0.4428961216 -0.83317275388 
-0.21593680478 0.41331885166 -0.87578643827 -0.10259969665 0.38288891388 -0.9169791728 0.011515919599 0.34802974776 -0.92968210426 
0.12568764454 0.31285135798 -0.94033171659 0.23352587067 0.28039722113 -0.92407771196 0.34084590143 0.2481659777 -0.9056225023 
0.4391954788 0.22025584506 -0.86394402221 0.5367220788 0.1927421446 -0.82013496684 0.62319687391 0.16750980306 -0.75581608443 
0.70854602222 0.14250982215 -0.68940823814 0.77895964022 0.11757276313 -0.60557955318 0.84769824548 0.092642760767 -0.5197971293 
0.89703476194 0.067686894893 -0.42205941464 0.94399177694 0.042727857079 -0.32285548507 0.96930592692 0.021265378991 -0.22021648719 
0.99173436156 0.00026910886583 -0.11711948019 0.99498874752 -0.012913673846 -0.019443526971 0.99547764568 -0.024969511258 0.077450543493 
0.98282102275 -0.026145029651 0.16232522959 0.96812237713 -0.025630401402 0.24533282686 0.94709562691 -0.013501269952 0.31299850861 
0.92501419259 0.00056361203036 0.37810720444 0.90223371067 0.025891544116 0.42662513076 0.87932864602 0.053226752457 0.47218628628 
0.85978731333 0.093598451239 0.49930440618 0.8408850897 0.13644708321 0.52291834932 0.82684404923 0.20259102538 0.51974387035 
0.81378506596 0.27344109084 0.51115758893 0.78860645783 0.4011173919 0.43519150419 0.76083078724 0.54097074344 0.34478689016 
0.57718154739 0.70218126699 0.073406459204 0.35817953927 0.86823568522 -0.23902003333 0.089675446766 0.81697951052 -0.45123664913 
-0.19068852012 0.71365933961 -0.63944464864 -0.3291861373 0.63039306649 -0.69127504521 -0.43184383455 0.55219304123 -0.70865215262 
-0.49262161113 0.51023507129 -0.70246551626 -0.54226111093 0.47791594585 -0.69001192677 -0.58296789237 0.45127726538 -0.67395589358 
-0.62117735469 0.42622666631 -0.6568927256 -0.66570228509 0.37579393702 -0.64039911152 -0.71208066809 0.3179121043 -0.62407264912 
-0.72164518748 -0.063627447559 -0.46406998056 -0.71988236422 -0.54475398993 -0.25985924857 -0.35307421735 -0.72086768186 0.063272306521 
0.13135964491 -0.79869945533 0.42472279349 0.28496189009 -0.78563468527 0.54470254983 0.32704785984 -0.74193063088 0.58328767786 
0.3294693096 -0.71423334116 0.61630656573 0.31791803073 -0.69217479807 0.647364619 0.29200270584 -0.66891419742 0.68167260083 
0.26080405369 -0.64521146066 0.7171759587 0.22124571941 -0.61356184203 0.75522134275 0.17847960013 -0.5788628385 0.79424215547 
0.13032590575 -0.53225374966 0.83281417679 0.08001718133 -0.4808806267 0.87120668156 0.027195058651 -0.41529128785 0.9047168414 
-0.026674313301 -0.34377852572 0.93619269086 -0.080844378204 -0.25900869137 0.95705231412 -0.13514486414 -0.1684888016 0.97330730913 
-0.18651754346 -0.068690279529 0.9738305042 -0.2365691393 0.035294942489 0.96725520417 -0.27963295128 0.14188719259 0.94273932056 
-0.31941854369 0.2497024929 0.90980686689 -0.3497657337 0.35209577743 0.86097865759 -0.37551170254 0.45184582926 0.80440126743 
-0.39053922938 0.54083311729 0.73759161146 -0.40013969699 0.62437090465 0.66560106142 -0.40017467117 0.69501583369 0.58973960941 
-0.39518162956 0.75888374747 0.51184345252 -0.38313354645 0.81052164082 0.43486494319 -0.36723725889 0.85548861394 0.3583869689 
-0.34757214379 0.89003993874 0.28546355457 -0.32577466573 0.91869819935 0.21455127285 -0.30481629965 0.93862961022 0.14838228169 
-0.28435021261 0.95344126924 0.084996020992 -0.271054357 0.96079923173 0.026917666834 -0.26211877726 0.96362454093 -0.027932906321 
-0.26729856956 0.95946802718 -0.077163059686 -0.28137297984 0.95091200855 -0.12285157866 -0.31603561836 0.93289060552 -0.16223119623 
-0.36413779477 0.90869040991 -0.19749250316 -0.43386050777 0.86749336646 -0.22470300599 -0.51819992158 0.81480549631 -0.24647071168 
-0.61232212327 0.73636511885 -0.25791901998 -0.71329227647 0.63989798627 -0.26214375012 -0.80030016697 0.52327424058 -0.25777627271 
-0.8771904758 0.39204425351 -0.24718255796 -0.92818753064 0.26078218433 -0.23527032133 -0.95976464499 0.12949605356 -0.22236919331 
-0.97173531178 0.00943133953 -0.21333632438 -0.9684890342 -0.10192421524 -0.20730568637 -0.95293145652 -0.20531362756 -0.20410781952 
-0.92748753178 -0.3023059861 -0.20318475374 -0.89286974577 -0.39235925541 -0.20428533054 -0.8506305981 -0.47664774292 -0.20706708732 
-0.80095768283 -0.55431672485 -0.21117403434 -0.74489637354 -0.62629706917 -0.21641981673 -0.68305730094 -0.69099783604 -0.22302414517 
-0.61608243874 -0.74922786742 -0.2308360701 -0.54566194653 -0.79909691747 -0.24085139421 -0.4720736977 -0.84127925889 -0.252892424 