# vtk DataFile Version 5.1
vtk output
ASCII
DATASET POLYDATA
POINTS 240 float
0 0 0 -0.00409715 -0.282076 0.179789 -0.0081943 -0.564153 0.359578 
-0.0739135 -0.863071 0.512018 -0.140155 -1.16213 0.664226 -0.253476 -1.47429 0.78616 
-0.367602 -1.78667 0.907576 -0.514545 -2.1084 0.995963 -0.662337 -2.43037 1.0835 
-0.829044 -2.75771 1.1357 -0.996409 -3.08523 1.18668 -1.16934 -3.41376 1.20084 
-1.34252 -3.74233 1.21339 -1.50876 -4.067 1.18873 -1.67464 -4.39146 1.16209 
-1.82242 -4.70668 1.09912 -1.96907 -5.02133 1.03387 -2.08846 -5.32137 0.934335 
-2.2059 -5.62036 0.832324 -2.2897 -5.90013 0.698975 -2.37075 -6.17832 0.563062 
-2.41495 -6.43423 0.399357 -2.45576 -6.68809 0.233102 -2.45924 -6.91854 0.04287 
-2.45891 -7.14661 -0.149804 -2.42337 -7.35262 -0.362476 -2.38388 -7.55617 -0.577392 
-2.31358 -7.74159 -0.80823 -2.23951 -7.92479 -1.04102 -2.14051 -8.09578 -1.28575 
-2.03818 -8.26514 -1.53207 -1.91743 -8.42933 -1.78662 -1.79403 -8.59277 -2.04236 
-1.65843 -8.75811 -2.30314 -1.52093 -8.92374 -2.5647 -1.37633 -9.09737 -2.82861 
-1.23055 -9.27232 -3.09291 -1.08126 -9.45976 -3.35713 -0.931348 -9.64943 -3.62133 
-0.780132 -9.8544 -3.8828 -0.628667 -10.0623 -4.14375 -0.476995 -10.2866 -4.39861 
-0.325281 -10.5142 -4.65224 -0.173657 -10.7575 -4.89512 -0.0220522 -11.0041 -5.13571 
0.129527 -11.2638 -5.3592 0.281101 -11.5265 -5.57881 0.432597 -11.7978 -5.77338 
0.584073 -12.0712 -5.96196 0.734999 -12.3473 -6.11678 0.885785 -12.6242 -6.26306 
1.03496 -12.8969 -6.36723 1.18372 -13.1684 -6.46019 1.32917 -13.4284 -6.50427 
1.4737 -13.6851 -6.53468 1.61246 -13.923 -6.51277 1.74952 -14.1554 -6.47551 
1.87732 -14.3636 -6.38784 2.00226 -14.5644 -6.28466 2.1134 -14.7389 -6.13867 
2.2201 -14.9051 -5.97888 2.30779 -15.0465 -5.78771 2.38906 -15.1795 -5.58596 
2.44589 -15.2913 -5.36541 2.49409 -15.3956 -5.13824 2.51263 -15.483 -4.90428 
2.52024 -15.5642 -4.66783 2.49387 -15.6326 -4.43486 2.45444 -15.696 -4.20322 
2.37901 -15.749 -3.98201 2.28918 -15.7979 -3.76499 2.16441 -15.8368 -3.56189 
2.02508 -15.8715 -3.36459 1.85581 -15.8944 -3.18119 1.67354 -15.9122 -3.00381 
1.47136 -15.9141 -2.8361 1.2602 -15.9088 -2.67275 1.04225 -15.8835 -2.51216 
0.821117 -15.8489 -2.35285 0.605977 -15.792 -2.1891 0.393758 -15.7244 -2.02318 
0.197931 -15.635 -1.84674 0.010402 -15.5348 -1.66497 -0.154173 -15.4161 -1.4687 
-0.306682 -15.2878 -1.26481 -0.434254 -15.1468 -1.04505 -0.548225 -14.999 -0.816631 
-0.63866 -14.8455 -0.573014 -0.715781 -14.6888 -0.320797 -0.772428 -14.5338 -0.0551951 
-0.817065 -14.3796 0.218259 -0.84502 -14.2337 0.502495 -0.862832 -14.0928 0.793289 
-0.867661 -13.9655 1.09159 -0.864311 -13.8469 1.39462 -0.850926 -13.7456 1.70144 
-0.83099 -13.6557 2.01074 -0.802916 -13.5856 2.31998 -0.76934 -13.5289 2.62918 
-0.72845 -13.4932 2.93451 -0.68244 -13.4722 3.23712 -0.62919 -13.4726 3.53229 
-0.570693 -13.4886 3.82205 -0.5048 -13.5262 4.10129 -0.433359 -13.5799 4.37262 
-0.354661 -13.6552 4.63102 -0.27033 -13.7472 4.87938 -0.179464 -13.861 5.11334 
-0.0833496 -13.9922 5.33573 0.0181001 -14.145 5.54312 0.123982 -14.3158 5.73804 
0.233766 -14.5078 5.91813 0.346904 -14.718 6.08547 0.462539 -14.948 6.23914 
0.580392 -15.1954 6.38066 0.699661 -15.4597 6.51064 0.820231 -15.7394 6.63 
0.941641 -16.032 6.74031 1.06385 -16.3369 6.84203 1.1867 -16.6507 6.93704 
1.31019 -16.973 7.02546 1.43424 -17.3006 7.10906 1.55886 -17.6335 7.18777 
1.68382 -17.9687 7.26305 1.80914 -18.3064 7.33472 1.9343 -18.6446 7.4039 
2.05929 -18.9834 7.47035 2.18323 -19.3218 7.53488 2.30599 -19.6597 7.59725 
2.42648 -19.9972 7.65808 2.5443 -20.3342 7.71712 2.65842 -20.6711 7.77501 
2.76807 -21.008 7.83151 2.87276 -21.3455 7.88743 2.97127 -21.6835 7.94262 
3.06416 -22.0222 7.99808 3.1498 -22.3618 8.05388 3.2301 -22.7017 8.11108 
3.3033 -23.042 8.17014 3.37258 -23.3814 8.23188 3.43648 -23.7198 8.29733 
3.49896 -24.0558 8.36674 3.55942 -24.3884 8.44179 3.62173 -24.7167 8.52183 
3.68677 -25.0386 8.60924 3.75705 -25.3547 8.70223 3.83535 -25.6615 8.80377 
3.92177 -25.9611 8.91103 4.02109 -26.2492 9.02736 4.13066 -26.5292 9.1492 
4.25707 -26.796 9.28012 4.39496 -27.0543 9.41616 4.55241 -27.2982 9.56093 
4.72139 -27.5337 9.71025 4.91075 -27.7542 9.86762 5.11036 -27.9665 10.0289 
5.32875 -28.1639 10.1972 5.55516 -28.3533 10.3688 5.79681 -28.5277 10.5463 
6.04402 -28.6941 10.7264 6.30223 -28.8451 10.9115 6.56387 -28.9879 11.0984 
6.83254 -29.1141 11.2894 7.10307 -29.2319 11.4819 7.37754 -29.3319 11.6774 
7.6529 -29.4235 11.874 7.93022 -29.4963 12.073 8.20794 -29.5611 12.2727 
8.48659 -29.6071 12.4742 8.76543 -29.6458 12.6763 9.04473 -29.6669 12.8798 
9.32413 -29.6817 13.0838 9.60375 -29.6809 13.2889 9.88335 -29.675 13.4945 
10.1629 -29.6559 13.7013 10.4422 -29.6329 13.9085 10.721 -29.5991 14.117 
10.9993 -29.5621 14.3261 11.2762 -29.5162 14.5366 11.5525 -29.4676 14.7476 
11.8266 -29.411 14.9601 12.0998 -29.352 15.1731 12.3701 -29.2854 15.3875 
12.6394 -29.2166 15.6022 12.9053 -29.1404 15.818 13.1704 -29.0621 16.0341 
13.4321 -28.9769 16.2508 13.6931 -28.89 16.4675 13.9513 -28.797 16.6843 
14.2091 -28.7029 16.9011 14.4652 -28.6043 17.1175 14.7212 -28.5052 17.3337 
14.977 -28.4038 17.5492 15.233 -28.3024 17.7646 15.4902 -28.2012 17.9792 
15.7479 -28.1006 18.1937 16.0082 -28.0029 18.4078 16.2692 -27.9062 18.6219 
16.5336 -27.8149 18.8362 16.7988 -27.7251 19.0508 17.0675 -27.6431 19.2665 
17.3367 -27.563 19.4825 17.6089 -27.4932 19.7005 17.8813 -27.4257 19.919 
18.1551 -27.3714 20.1402 18.4287 -27.3198 20.362 18.7013 -27.2847 20.5869 
18.9732 -27.2529 20.8123 19.2409 -27.2416 21.0412 19.5074 -27.2341 21.2704 
19.7654 -27.2518 21.5029 20.0217 -27.2735 21.7357 20.2647 -27.3253 21.9711 
20.5055 -27.3813 22.2066 20.7279 -27.4716 22.4434 20.9478 -27.5661 22.6801 
21.1444 -27.6979 22.9163 21.3382 -27.8337 23.1522 21.5044 -28.0085 23.3849 
21.6677 -28.1868 23.6171 21.8002 -28.4038 23.8427 21.93 -28.6237 24.0674 
22.0274 -28.8798 24.281 22.1225 -29.1381 24.4935 22.1858 -29.4281 24.6899 
22.2474 -29.7198 24.8848 22.2799 -30.0373 25.0583 22.311 -30.3558 25.2304 
22.3174 -30.6937 25.3759 22.323 -31.0322 25.52 22.3093 -31.3832 25.6332 
22.2952 -31.7345 25.7451 22.2682 -32.0914 25.8223 22.241 -32.4483 25.8984 
22.2079 -32.8039 25.9366 22.1748 -33.1593 25.9741 22.143 -33.5065 25.9707 
22.1112 -33.8535 25.967 22.0881 -34.185 25.9196 22.0649 -34.5165 25.8722 

LINES 2 240
OFFSETS vtktypeint64
0 240 
CONNECTIVITY vtktypeint64
0 1 2 3 4 5 6 7 8 
9 10 11 12 13 14 15 16 17 
18 19 20 21 22 23 24 25 26 
27 28 29 30 31 32 33 34 35 
36 37 38 39 40 41 42 43 44 
45 46 47 48 49 50 51 52 53 
54 55 56 57 58 59 60 61 62 
63 64 65 66 67 68 69 70 71 
72 73 74 75 76 77 78 79 80 
81 82 83 84 85 86 87 88 89 
90 91 92 93 94 95 96 97 98 
99 100 101 102 103 104 105 106 107 
108 109 110 111 112 113 114 115 116 
117 118 119 120 121 122 123 124 125 
126 127 128 129 130 131 132 133 134 
135 136 137 138 139 140 141 142 143 
144 145 146 147 148 149 150 151 152 
153 154 155 156 157 158 159 160 161 
162 163 164 165 166 167 168 169 170 
171 172 173 174 175 176 177 178 179 
180 181 182 183 184 185 186 187 188 
189 190 191 192 193 194 195 196 197 
198 199 200 201 202 203 204 205 206 
207 208 209 210 211 212 213 214 215 
216 217 218 219 220 221 222 223 224 
225 226 227 228 229 230 231 232 233 
234 235 236 237 238 239 
CELL_DATA 1
FIELD FieldData 3
Length 1 1 double
78.99484532 
Tortuosity 1 1 double
0.6303636961 
ClusterLabel 1 1 int
3 
POINT_DATA 240
FIELD FieldData 6
Curvature 1 240 double
0 0.15257008196 0.30514016392 0.27206765429 0.23742190235 0.2108694684 0.18445538177 0.16854442537 0.15290510165 
0.14675484664 0.1409346462 0.1430022023 0.14541571264 0.15456936264 0.16408089617 0.17957276289 0.19543840044 0.21554607662 
0.23595948532 0.25589044177 0.27578192486 0.28804726351 0.29961295588 0.29518474541 0.28912752632 0.26599392762 0.24094522093 
0.20729788503 0.17259600025 0.13840943762 0.10429158461 0.077304621297 0.051346151685 0.041356278278 0.033846963506 0.039490322808 
0.047325794457 0.054666675664 0.061919412041 0.067144355072 0.071984017367 0.076211570442 0.080315465089 0.085977052433 0.091972431068 
0.10189042923 0.11269809367 0.12979763732 0.14840461037 0.17630945299 0.20656323108 0.24965254331 0.29615556143 0.35334648997 
0.41352543648 0.46473824581 0.51331968878 0.52738788874 0.53083662931 0.50510674191 0.46997485216 0.43550627775 0.40126129277 
0.38561607785 0.37652305466 0.38853502411 0.40830974949 0.43377379946 0.46142096236 0.47086429079 0.47302608542 0.44656416547 
0.40817569779 0.35489152651 0.29514656813 0.2526235143 0.21787131984 0.21364730065 0.22374514146 0.24564505513 0.27329847932 
0.29260394457 0.30768259516 0.30548173207 0.29419804767 0.27361725699 0.24796531743 0.22404475526 0.20110378819 0.18402360389 
0.17038174548 0.16247636785 0.15805939069 0.15752950341 0.15944901522 0.1639395277 0.17010833229 0.17826648555 0.18776955059 
0.1995140819 0.2128276396 0.22829540556 0.24532419199 0.2631840373 0.28166717677 0.29728047894 0.31066644468 0.31721544254 
0.31827414803 0.3109755217 0.29673388125 0.2754470998 0.24810590031 0.21822285249 0.18608038392 0.15613215431 0.1282012089 
0.10412755751 0.083721497135 0.066786982351 0.053266154063 0.04228319996 0.033881134858 0.027179156658 0.022265200888 0.018698292174 
0.016596592539 0.016426426671 0.01842923629 0.022079784714 0.027647701929 0.033453707049 0.039546299462 0.04464691204 0.048512228972 
0.050717904013 0.050785194309 0.049567505606 0.046636511569 0.044923351654 0.044890802827 0.049263160595 0.05992824207 0.073755204855 
0.092259117079 0.11131033597 0.13119998209 0.14983963066 0.16649558747 0.18033738321 0.1895514474 0.19464911649 0.19273020302 
0.18733243869 0.17578600772 0.16337985996 0.14939756476 0.13671786385 0.12651626915 0.11815658931 0.11343469132 0.1100896958 
0.10956911558 0.10954463612 0.11057763456 0.11120496795 0.11093325986 0.10973434799 0.10639771631 0.10216332938 0.095774329891 
0.088933694466 0.080963969209 0.073161946185 0.06579696534 0.059045047314 0.053959893827 0.049559484459 0.04710286485 0.045078202244 
0.04433501208 0.043681718667 0.043307415172 0.042720100892 0.041440501563 0.039763697897 0.036733457227 0.033295765233 0.028400651199 
0.02325512365 0.017168041284 0.011764578495 0.0090671098642 0.0079895003629 0.013673042009 0.01940350175 0.025340827635 0.031145869199 
0.03633358393 0.041493913663 0.046518687657 0.051665775893 0.057456623293 0.063504438751 0.07099413054 0.078846989904 0.08887885472 
0.099315212356 0.11235549252 0.12570881691 0.14123258136 0.15685712957 0.17323755593 0.18940911323 0.20387758433 0.21783386232 
0.22722308512 0.23589014363 0.23746686168 0.2383750164 0.23199583076 0.22526363112 0.21421681598 0.2031283607 0.19146214837 
0.17991518371 0.17027618167 0.16079499298 0.15428595566 0.14794529216 0.14544355169 0.14310052408 0.14532049074 0.14769166341 
0.15590946777 0.16425087241 0.17982289325 0.19444705235 0.097223526174 0 
Torsion 1 240 double
0 0 0 0.1044605317 0.20980632214 0.24691369541 0.28285460001 0.3098972416 0.33670975569 
0.34011940736 0.34271504642 0.32159361468 0.29943196053 0.2662318884 0.23244570559 0.1984594551 0.16446070039 0.13646603272 
0.10890409205 0.090770589184 0.07340850396 0.06435519479 0.056064158651 0.055110217256 0.054903572547 0.063876019022 0.073877896284 
0.10156552174 0.13142215405 0.21549020462 0.3067864443 0.63718091537 1.0020607083 1.2517266341 1.4834952603 1.0321681786 
0.46699181238 0.24542392273 0.085093187324 0.0034981646908 -0.063137072516 -0.10753825902 -0.14744771812 -0.16698809449 -0.18216366743 
-0.17760562114 -0.16857190864 -0.15091532123 -0.1311928367 -0.11184067318 -0.092582064432 -0.074461792078 -0.056644268764 -0.036585340686 
-0.015899783318 0.010609675016 0.038828321678 0.079704505267 0.1244753156 0.18991471753 0.26201399896 0.34369955543 0.42861644057 
0.47351733455 0.50432168619 0.45688263881 0.38066441019 0.28382893274 0.17908218539 0.084383006656 -0.0062971446351 -0.11939736005 
-0.24183926886 -0.45033012121 -0.6961434069 -0.94379376195 -1.1922730385 -1.1381435385 -0.94204942729 -0.74254251217 -0.54137185516 
-0.42201495145 -0.34408273296 -0.3103525575 -0.29985678928 -0.31274609002 -0.33839088292 -0.37015800233 -0.40538906965 -0.42273153815 
-0.42957936201 -0.40490472727 -0.36106102989 -0.30418654924 -0.23910089009 -0.17694946147 -0.11671343335 -0.066271059763 -0.022449748394 
0.0074726875333 0.027665910653 0.033887173478 0.029983827396 0.017694269252 -0.00088494793704 -0.019597003945 -0.038412158737 -0.053134579063 
-0.064570409591 -0.07168358759 -0.075205638873 -0.075017541863 -0.071641036164 -0.06390850582 -0.05230395357 -0.035354836111 -0.013492166768 
0.012389021984 0.042091098042 0.070626949236 0.098016012647 0.10771709572 0.099430402183 0.031795116524 -0.098258516019 -0.29656860427 
-0.56912255664 -0.69195965092 -0.64636527985 -0.55084067944 -0.39721544852 -0.29250335228 -0.2466681774 -0.22714364956 -0.24038332369 
-0.27895188769 -0.35015575208 -0.46880980159 -0.65073076458 -0.82477318784 -0.98794322625 -0.99728526545 -0.78687302007 -0.59451399778 
-0.42885870132 -0.30061343566 -0.22967715336 -0.1726137923 -0.13756615408 -0.10703524142 -0.083931833034 -0.061567606871 -0.040463350408 
-0.018216477251 0.0060499044794 0.030859457783 0.056664825639 0.079186525757 0.095461248229 0.10505139776 0.10143951575 0.093043748555 
0.074834883537 0.056588011907 0.038260126185 0.022510756145 0.01247593437 0.0050966306811 0.0038397714668 0.0049800470674 0.011873446224 
0.021590828257 0.038368167484 0.057152371304 0.081166585884 0.10280992006 0.11800742315 0.12616153798 0.11432151837 0.097771793099 
0.067249941032 0.037199812788 0.0086136550324 -0.01850507654 -0.040854673018 -0.063946339284 -0.089566539639 -0.12198868923 -0.17874088798 
-0.28682249662 -0.58790268647 -1.005844435 -1.8863631868 -2.3902050465 -1.3218303131 -0.43222867786 -0.33085388412 -0.24365254366 
-0.22259398522 -0.20292550459 -0.19013790913 -0.17689117141 -0.16122789554 -0.14544907367 -0.12902191032 -0.11276601412 -0.097537720857 
-0.082652165491 -0.069972985322 -0.057706278594 -0.048299387722 -0.039149213205 -0.031924411347 -0.024807946592 -0.018574845905 -0.012218008564 
-0.0047578527205 0.0030123590089 0.0138267558 0.024995516585 0.040026844919 0.055329138879 0.073943234929 0.09264455966 0.11255618235 
0.13244965772 0.15205277598 0.17157892225 0.18965542934 0.20754182865 0.22109377066 0.23438487878 0.24017701272 0.24567303349 
0.2397193448 0.2319086828 0.11546508257 0 0 0 
FrenetTangent 3 240 double
-0.10451939149 -0.86353979775 0.49333022866 -0.10451939149 -0.86353979775 0.49333022866 -0.10451939149 -0.86353979775 0.49333022866 
-0.18128149748 -0.87234872766 0.44449702909 -0.25869412978 -0.88123230951 0.39524998885 -0.31144519809 -0.8827793087 0.34391977853 
-0.3637747012 -0.88420089622 0.29255395846 -0.39598207823 -0.88390898789 0.24135075152 -0.42766905545 -0.88357276502 0.19015175008 
-0.44329387805 -0.88391899322 0.13896155519 -0.45836001701 -0.88428895886 0.087771666625 -0.45981148964 -0.88575466069 0.035647870014 
-0.46066582779 -0.88726842114 -0.016516887475 -0.44887160777 -0.88904708864 -0.070653679678 -0.43640578289 -0.89083982201 -0.12489518169 
-0.41120719139 -0.89099409889 -0.18187534019 -0.38521280198 -0.89104597224 -0.23902666473 -0.34608646355 -0.88641682354 -0.29875129577 
-0.30601367835 -0.88145030389 -0.35866139035 -0.25343796989 -0.86806203826 -0.41894505516 -0.19983929498 -0.85398472068 -0.47925928481 
-0.13691026785 -0.82880858251 -0.53524076227 -0.073125245106 -0.80261420392 -0.59082473952 -0.0066060218398 -0.7664027529 -0.63621908327 
0.060191684813 -0.7291710445 -0.68057559398 0.12136133211 -0.68806396617 -0.71107471257 0.18189979518 -0.64652226691 -0.7400197311 
0.23099914404 -0.60927309833 -0.75604930496 0.27869558266 -0.57255037219 -0.77049490918 0.31357057837 -0.54588721268 -0.77584385602 
0.34673604835 -0.52056532873 -0.77997991521 0.36860352006 -0.50715232026 -0.77870539632 0.38884147278 -0.49545693807 -0.77665050559 
0.40036732488 -0.49451039128 -0.77138167425 0.41053984096 -0.49523356649 -0.76561359001 0.41468507304 -0.50407370657 -0.75747064816 
0.41782575778 -0.51426667412 -0.7489318967 0.41736094724 -0.5297699384 -0.738079411 0.41625357318 -0.5462195922 -0.72681457662 
0.41360542815 -0.56571326321 -0.71294643281 0.41066453664 -0.5857852975 -0.6985836602 0.40798895646 -0.60735519663 -0.68107828974 
0.40536697453 -0.62922769471 -0.66293805104 0.40454172901 -0.65180245167 -0.64068168314 0.40410149842 -0.67452769266 -0.61754328756 
0.40652798543 -0.69774508781 -0.58860689329 0.4096046558 -0.72107410555 -0.55835548901 0.41607058591 -0.74476008759 -0.51962250698 
0.42334852617 -0.76853159232 -0.47885748028 0.43389538627 -0.79172277356 -0.42568692631 0.44526807876 -0.81476734675 -0.36938234441 
0.45863980103 -0.8341657243 -0.2956101707 0.47254318016 -0.85259436896 -0.21719236088 0.48466633397 -0.86048742858 -0.11749020025 
0.49629179038 -0.86543505583 -0.011837575957 0.49884358609 -0.85037614399 0.11036262178 0.49873245964 -0.82944574785 0.23741917258 
0.48265295104 -0.78592541768 0.36287081947 0.46166009409 -0.73545433858 0.48782864976 0.42465045533 -0.67369514894 0.5924279839 
0.38247985355 -0.60829867923 0.69046735816 0.32847380704 -0.545761224 0.76387717993 0.27047828476 -0.4841874815 0.82898490535 
0.20225063123 -0.43171182139 0.87420239899 0.13041847692 -0.38244116758 0.91241310642 0.047075792499 -0.34200544527 0.93388628981 
-0.04050065013 -0.30481935294 0.94920314251 -0.13832666483 -0.27266721617 0.94655355215 -0.24008565486 -0.24244671351 0.93700986155 
-0.34294212635 -0.21251268866 0.90848112711 -0.44623759043 -0.18269325494 0.87235837514 -0.53673326567 -0.14995869425 0.82406526655 
-0.62189569555 -0.11600949731 0.77070117602 -0.68518053408 -0.077365897492 0.71980024986 -0.73897629685 -0.036686171116 0.66996768415 
-0.77062866507 0.0095396652063 0.63458482332 -0.79228950162 0.058268014553 0.60572195128 -0.79470219768 0.11170963421 0.59423956852 
-0.78808490192 0.16736241772 0.59091099555 -0.76360491235 0.22461850664 0.60179248985 -0.73041685955 0.28265620695 0.61960139194 
-0.68126402679 0.33657728559 0.64535356062 -0.62402776113 0.38841399882 0.67512763643 -0.55752773696 0.42960316358 0.70576636926 
-0.48615830127 0.46519554004 0.73685960128 -0.41502895785 0.48728476265 0.76489282333 -0.34403057385 0.50200862862 0.79125694903 
-0.2793124527 0.50471797704 0.81458482625 -0.21814763817 0.50062963791 0.83619482603 -0.1648023606 0.48721142794 0.85602781912 
-0.11604454471 0.46831969375 0.8748183016 -0.074292430156 0.44236764616 0.8924918728 -0.036800539395 0.41212216474 0.90948624118 
-0.0045060862746 0.37653461947 0.92519845045 0.024513269154 0.33758084219 0.94010272383 0.050409310406 0.2943634719 0.95310627248 
0.07426652157 0.24836292285 0.96486907025 0.096988609635 0.19867129604 0.97384827781 0.11894329053 0.14648429272 0.98094562156 
0.14138168267 0.090835232918 0.98412871601 0.16415867268 0.032762733586 0.98457183596 0.18823430557 -0.02873056801 0.97967879878 
0.21325098403 -0.092702711827 0.97091898109 0.23913927981 -0.15977435643 0.95519169432 0.26568128858 -0.22917062663 0.93423880574 
0.29129180143 -0.30026053026 0.90509493474 0.31617936223 -0.37266489566 0.86959388334 0.33770426495 -0.44381460762 0.82628694671 
0.35652885134 -0.51395679484 0.77671164769 0.37036943362 -0.57929490446 0.72207925728 0.38006945863 -0.64064193424 0.66324559095 
0.38492577433 -0.69461775905 0.60392004366 0.38561952734 -0.74225895458 0.54417178618 0.38323516182 -0.78205844722 0.48837550258 
0.37811469094 -0.8148875373 0.43609208467 0.3721364934 -0.8413214061 0.38994693688 0.3653697407 -0.86187579727 0.34944503743 
0.3592433837 -0.87807723902 0.31487804246 0.35372592751 -0.89013981082 0.28595407144 0.34934990337 -0.89952402542 0.26167520651 
0.3460962874 -0.90627452209 0.24196402924 0.34380027885 -0.91148438815 0.22551494836 0.34247810833 -0.91512751121 0.21238325365 
0.34156468124 -0.91799588949 0.20138787503 0.34108113947 -0.92004944999 0.19263931161 0.34025423125 -0.92190088515 0.18519222572 
0.33905383671 -0.92353246467 0.17916078203 0.33669277629 -0.92540605594 0.17388013968 0.33302596673 -0.92755191041 0.16944414882 
0.32751983553 -0.93020351707 0.16551407619 0.31987340276 -0.93344363536 0.16217270841 0.31013887039 -0.93716641547 0.15940851528 
0.29789088481 -0.94147017738 0.15733906942 0.28398468182 -0.94592240816 0.1561760525 0.26801352884 -0.95055952467 0.15614179618 
0.25150597166 -0.95484391685 0.15747407454 0.23430727827 -0.9586738373 0.16056708028 0.21816250125 -0.96168672143 0.16546324743 
0.20342294602 -0.96361022381 0.1727636298 0.19145089175 -0.96437480831 0.18215980433 0.18329798877 -0.96354008611 0.19444817203 
0.17941499276 -0.96122829133 0.20888483711 0.18163186382 -0.95680639285 0.22639049842 0.18904365954 -0.95045244396 0.2457337474 
0.20413961465 -0.94124067052 0.2677950948 0.2244157566 -0.92947140268 0.29096766127 0.2526275039 -0.91378427108 0.31584252078 
0.28502186399 -0.89493328197 0.3408069513 0.32405384875 -0.87106138855 0.36591352711 0.36547016213 -0.84383807156 0.3900369745 
0.41080737148 -0.8111035247 0.41254372182 0.45617271085 -0.77574933005 0.43326637358 0.5015859991 -0.7359298267 0.45094795336 
0.54486119412 -0.69511664258 0.46673352154 0.58435743364 -0.6525471855 0.47916799945 0.62072263034 -0.61050433505 0.49031508598 
0.65134758186 -0.56942693011 0.499101955 0.67909701684 -0.5293841398 0.50737903078 0.70137595695 -0.49130964076 0.51468625602 
0.72154046466 -0.45390076528 0.52196562359 0.73752896836 -0.41780649634 0.52918997225 0.75207476978 -0.38175686032 0.53649635288 
0.76366118188 -0.345798779 0.54397100422 0.77420756073 -0.30950036109 0.5513684719 0.78253702658 -0.27247648888 0.55860141651 
0.7900057818 -0.23520534467 0.56548944094 0.79556701614 -0.19738619229 0.57161304769 0.80035243587 -0.15984392657 0.57720755297 
0.80334917192 -0.12294003843 0.58158218539 0.80567921093 -0.086973761554 0.58543974259 0.80640917704 -0.053257751717 0.5880563193 
0.80662921625 -0.020946235237 0.59033949972 0.80557443816 0.0078540478506 0.59178918941 0.80415550605 0.035166853554 0.59315278457 
0.80178756645 0.058603203044 0.59429201216 0.79914779364 0.080831349254 0.59552904466 0.79576897429 0.099774692798 0.59703198428 
0.79216447789 0.11795772339 0.59869378734 0.7879193499 0.13398244623 0.60080655761 0.78348726965 0.1496437439 0.60303099744 
0.77850056434 0.16422688022 0.60558672368 0.77339389839 0.17866374861 0.60814579546 0.76791494082 0.19264668207 0.61071524994 
0.76242541091 0.20649123812 0.61317163636 0.75690152086 0.21988606763 0.61526055156 0.75151537667 0.23298289488 0.61715010096 
0.74659858868 0.24506430705 0.61836032981 0.74197567801 0.25661394289 0.61933834129 0.73840394394 0.26626145565 0.61948572907 
0.73523902197 0.27516468251 0.61942927953 0.73360371352 0.28126939436 0.61860640162 0.73240709055 0.28650021453 0.61765317481 
0.73294693096 0.28827188013 0.61618398362 0.733864847 0.28914356981 0.6146806709 0.73636081789 0.28625883823 0.61303493793 
0.73910032387 0.28252693148 0.61146137512 0.74291359823 0.2750597524 0.61020601714 0.74680136793 0.26684263822 0.60912438706 
0.75103678257 0.25512582691 0.60885348712 0.75519170317 0.24274768071 0.60883368511 0.75894817828 0.2270959268 0.61005681782 
0.76250909101 0.21080550348 0.61157360152 0.76504072809 0.19115366227 0.61463591673 0.76728407021 0.17080463867 0.61800342072 
0.76790975729 0.14654364725 0.62308337285 0.76813896453 0.12146075732 0.62845445142 0.76598929273 0.091446476396 0.63557228864 
0.76329110985 0.060462650795 0.64292475104 0.75706188694 0.023237381347 0.65178761294 0.7500860736 -0.015045704403 0.66075224935 
0.7379338999 -0.06066298318 0.67042252232 0.72482596368 -0.10727620031 0.67997093626 0.70454980853 -0.16135895508 0.68860540754 
0.68317869186 -0.21617230834 0.69683194154 0.65287942749 -0.27694284925 0.70173221767 0.62151227163 -0.33799953995 0.70595913697 
0.58062308332 -0.40160773295 0.70418195779 0.53892505545 -0.4649923797 0.70158556257 0.4892856936 -0.5261822087 0.69094595522 
0.4392825172 -0.58675408914 0.67951899431 0.38531376227 -0.64059033027 0.6595098796 0.33142501402 -0.69367079859 0.63888344827 
0.27851412531 -0.73751404366 0.61071203618 0.22595994928 -0.78068987336 0.58212116485 0.17835516187 -0.81460531494 0.54771029664 
0.13119853719 -0.8480299431 0.51302962831 0.091212516204 -0.87360155644 0.47403215789 0.05165739637 -0.898844592 0.43485326969 
0.02021758155 -0.91789941278 0.39225768002 -0.01085275958 -0.9367411986 0.34952140576 -0.03349910058 -0.95072578716 0.30357752299 
-0.055846233982 -0.96456676511 0.25750529891 -0.069591148938 -0.97427893799 0.20774326206 -0.083101961584 -0.98388182264 0.1578551125 
-0.087560818244 -0.98925889592 0.10309060439 -0.091849186365 -0.99454082543 0.048212185223 -0.086163975028 -0.99425684456 -0.013330031088 
-0.080526538577 -0.99397525009 -0.074355085918 -0.080526538577 -0.99397525009 -0.074355085918 -0.080526538577 -0.99397525009 -0.074355085918 

FrenetNormal 3 240 double
-0.88063477993 -0.15013645361 -0.44937893773 -0.88063477993 -0.15013645361 -0.44937893773 -0.88063477993 -0.15013645361 -0.44937893773 
-0.83203412838 -0.09934779011 -0.5342281034 -0.7830216069 -0.048128714212 -0.6197963298 -0.70535533406 -0.023598605649 -0.69917221479 
-0.6271992535 0.00047528125081 -0.7784422478 -0.51927513332 0.0018425737033 -0.84500068724 -0.41058115004 0.0026226266442 -0.91123037857 
-0.28136041811 -0.0082507031707 -0.94984794146 -0.15142571231 -0.019529368038 -0.98750508249 -0.02307861079 -0.027895279018 -0.99098862059 
0.10519885896 -0.036133437636 -0.99297331647 0.2136543937 -0.030752654365 -0.97014656951 0.32105743631 -0.024648741436 -0.94600240082 
0.40437988778 -0.00089444509877 -0.90981363189 0.4861973023 0.023963000201 -0.87287207545 0.54686646712 0.066303430026 -0.83021872069 
0.60601143376 0.10990389477 -0.78715370479 0.64806894055 0.16695755655 -0.73797956054 0.68872838243 0.22511193445 -0.68830557851 
0.71493068328 0.28890028462 -0.630228938 0.73980664092 0.35320551297 -0.57138141139 0.75181157359 0.41338835834 -0.50578368024 
0.76250556853 0.47315133135 -0.43949842826 0.76533201686 0.51914296429 -0.37172503944 0.76727612352 0.56359014786 -0.30378475678 
0.77083406535 0.58702291097 -0.2375557933 0.77458993035 0.60787843384 -0.1715367086 0.7936051936 0.59525832828 -0.098131267214 
0.81465504328 0.57817480559 -0.023740978273 0.85918319789 0.46009886002 0.10666839418 0.90709764649 0.3274566996 0.24515744214 
0.74775275014 -0.062354563821 0.4273749866 0.5562122274 -0.49211442576 0.61638530721 0.31230887692 -0.66607591397 0.61456620652 
0.059678388475 -0.79740433989 0.58094220227 -0.035707887847 -0.81946819147 0.56801402854 -0.1030704432 -0.82205914861 0.55877422065 
-0.11796344511 -0.80981651356 0.57414369611 -0.12288723188 -0.79475549599 0.59418893542 -0.099503084254 -0.77046710791 0.62746798203 
-0.070400162003 -0.74431460457 0.66342052506 -0.026367404979 -0.70717045771 0.70281164325 0.020864602353 -0.66767095867 0.74293959897 
0.066158730817 -0.61872252684 0.77916293005 0.11101334036 -0.5676310381 0.81450067616 0.14175236969 -0.51050215503 0.84521725893 
0.16910954126 -0.45192681289 0.87482668798 0.17877498954 -0.38691680583 0.90185757491 0.18397094984 -0.3202811992 0.92823704069 
0.1711927272 -0.24294308434 0.95116774297 0.15363413676 -0.16275855772 0.97318122092 0.11712629636 -0.068544195152 0.98518616883 
0.075320816184 0.029592487138 0.99439303307 0.014530498368 0.13604260826 0.9825693509 -0.051831456583 0.24493254296 0.96457366055 
-0.13257413119 0.34334838189 0.919983993 -0.21774164262 0.43854142211 0.86721156324 -0.31282429094 0.5020944398 0.79524605315 
-0.41110181671 0.55545233912 0.71709610607 -0.51599608084 0.56693362379 0.62702806456 -0.62312070621 0.56429919567 0.53294268785 
-0.72260545912 0.52285998422 0.42543911988 -0.81939889331 0.46775090591 0.31320868908 -0.8829076054 0.4028628084 0.19200541596 
-0.93417366109 0.33437783026 0.067501787042 -0.94710645434 0.29264165759 -0.05412621724 -0.94532997246 0.26116956144 -0.17465078416 
-0.91627757271 0.25863386343 -0.28538549852 -0.87631480581 0.26767272468 -0.39220427184 -0.8172848061 0.30521816041 -0.47676601079 
-0.75031012606 0.3546413355 -0.55205398541 -0.65885378747 0.45640450339 -0.57783931615 -0.55677889817 0.58086935491 -0.58215362063 
-0.38775933446 0.73306093221 -0.48107780613 -0.18853302742 0.89776334918 -0.33244791356 0.027765529959 0.9452053352 -0.14110146302 
0.2520732912 0.93763625485 0.070284854227 0.41621806193 0.86664483893 0.2042501866 0.55103337477 0.76473503441 0.30047278885 
0.65365817759 0.66085226637 0.34528266933 0.73998398799 0.55597052945 0.36406079197 0.80748701355 0.44939039819 0.36434598376 
0.86509601117 0.3419175212 0.35491053242 0.90325125652 0.22700883312 0.34553193207 0.93079536425 0.10804424808 0.33618434136 
0.93425579014 -0.020486498202 0.33310851788 0.92408992236 -0.15442967782 0.33358119428 0.88536675547 -0.29041372054 0.33579408085 
0.82988997309 -0.4275950696 0.3390278907 0.75745847885 -0.54654058658 0.33395888837 0.67471668686 -0.65439674622 0.32384087863 
0.5976197773 -0.73639493371 0.30260251627 0.52407991693 -0.80209905657 0.27435680841 0.46716602134 -0.8491034344 0.23753190857 
0.4211051861 -0.88390103422 0.19510670283 0.39176966797 -0.90681913374 0.14597912138 0.37374140649 -0.9217060218 0.092320356331 
0.36505583528 -0.92861425058 0.033266561303 0.36291014728 -0.92993741786 -0.029563754713 0.36081287057 -0.92541866221 -0.096465813376 
0.35875067452 -0.91666662907 -0.16631841019 0.34919619563 -0.90346372556 -0.23854574321 0.33402250462 -0.88692266927 -0.31255412838 
0.30868573497 -0.86570613142 -0.38653970727 0.27546120281 -0.84086086163 -0.46050758578 0.23451765456 -0.81024327565 -0.53104502637 
0.18737550246 -0.77499034486 -0.59882772137 0.13691852304 -0.73472936773 -0.659671022 0.083707687068 -0.6903078598 -0.71474928733 
0.031659734072 -0.6440842181 -0.76099006866 -0.019388866363 -0.59631186769 -0.79963613719 -0.06492255691 -0.55038848256 -0.83041362973 
-0.10555410533 -0.50610862213 -0.8541968325 -0.13697202529 -0.46543237258 -0.87346682016 -0.15991935135 -0.42806912013 -0.88858756167 