# vtk DataFile Version 5.1
vtk output
ASCII
DATASET POLYDATA
POINTS 240 float
0 0 0 -0.191041 -0.247606 0.102873 -0.382082 -0.495213 0.205747 
-0.568404 -0.761765 0.337729 -0.754686 -1.02848 0.469958 -0.935662 -1.30791 0.619973 
-1.11655 -1.58756 0.770293 -1.29155 -1.87382 0.927273 -1.4664 -2.16025 1.08443 
-1.63478 -2.44742 1.23738 -1.80294 -2.73461 1.39018 -1.96401 -3.01709 1.52831 
-2.12478 -3.29936 1.6658 -2.27781 -3.57219 1.77884 -2.43043 -3.84452 1.89057 
-2.57461 -4.10385 1.96922 -2.71826 -4.36237 2.04579 -2.85278 -4.60594 2.08242 
-2.98664 -4.84844 2.11618 -3.11086 -5.07601 2.10566 -3.23429 -5.30235 2.09151 
-3.34792 -5.51585 2.03189 -3.46065 -5.72818 1.96809 -3.56389 -5.93163 1.86111 
-3.66616 -6.13417 1.74973 -3.75963 -6.33309 1.60068 -3.8521 -6.53162 1.4474 
-3.93651 -6.73228 1.26449 -4.01994 -6.9332 1.07795 -4.09572 -7.14158 0.871274 
-4.17048 -7.35096 0.661912 -4.2373 -7.57183 0.442066 -4.30296 -7.79436 0.220709 
-4.35948 -8.03042 -0.00268739 -4.41456 -8.26857 -0.2264 -4.45842 -8.51998 -0.445884 
-4.5004 -8.77359 -0.664663 -4.52852 -9.03789 -0.875651 -4.55416 -9.30408 -1.08525 
-4.5631 -9.57647 -1.28629 -4.56887 -9.85003 -1.48571 -4.55532 -10.124 -1.67826 
-4.53787 -10.3981 -1.86942 -4.49903 -10.6665 -2.05719 -4.45561 -10.9336 -2.24424 
-4.38956 -11.1896 -2.43224 -4.31837 -11.4429 -2.62046 -4.22432 -11.6811 -2.81378 
-4.12479 -11.9155 -3.00832 -4.00334 -12.1331 -3.21089 -3.87634 -12.3464 -3.41548 
-3.72961 -12.5438 -3.62894 -3.57762 -12.7371 -3.84474 -3.40933 -12.9183 -4.06765 
-3.23649 -13.0961 -4.29253 -3.05199 -13.2677 -4.52003 -2.86408 -13.4374 -4.74829 
-2.67024 -13.6075 -4.97228 -2.47457 -13.7777 -5.19497 -2.2795 -13.9545 -5.40483 
-2.08462 -14.1334 -5.61057 -1.89733 -14.323 -5.79424 -1.7126 -14.5163 -5.97047 
-1.54251 -14.7216 -6.11577 -1.37757 -14.9311 -6.25018 -1.23385 -15.1504 -6.34625 
-1.09792 -15.3731 -6.42822 -0.988747 -15.6 -6.46679 -0.889832 -15.8285 -6.4887 
-0.821536 -16.053 -6.46508 -0.765488 -16.2758 -6.42325 -0.741732 -16.4852 -6.33694 
-0.731433 -16.689 -6.2321 -0.752485 -16.8702 -6.08686 -0.787136 -17.0415 -5.92409 
-0.849467 -17.1818 -5.72747 -0.924288 -17.3083 -5.51556 -1.02066 -17.3978 -5.27789 
-1.12713 -17.4699 -5.02814 -1.24719 -17.5015 -4.76123 -1.37387 -17.5135 -4.48595 
-1.50522 -17.4844 -4.2016 -1.63895 -17.4345 -3.91267 -1.76857 -17.346 -3.62141 
-1.89603 -17.2372 -3.32891 -2.01177 -17.095 -3.03892 -2.1211 -16.9345 -2.7503 
-2.21301 -16.7482 -2.46702 -2.29506 -16.5472 -2.18675 -2.35648 -16.3299 -1.91281 
-2.4058 -16.103 -1.64259 -2.43392 -15.8706 -1.37828 -2.44916 -15.6349 -1.11757 
-2.44505 -15.405 -0.861561 -2.42875 -15.1787 -0.608516 -2.39677 -14.9694 -0.358745 
-2.35456 -14.7711 -0.111111 -2.30138 -14.5995 0.134369 -2.24077 -14.446 0.378392 
-2.17406 -14.3268 0.620703 -2.10309 -14.2317 0.861815 -2.03026 -14.1758 1.10086 
-1.9561 -14.1483 1.33841 -1.88319 -14.1616 1.57284 -1.81121 -14.2056 1.80495 
-1.74216 -14.2887 2.03251 -1.6754 -14.4023 2.25653 -1.6119 -14.5507 2.47449 
-1.55101 -14.7272 2.68758 -1.49265 -14.9322 2.89332 -1.43639 -15.161 3.09295 
-1.38132 -15.4111 3.28436 -1.32728 -15.6796 3.4687 -1.27302 -15.9621 3.6444 
-1.21857 -16.2571 3.81243 -1.16279 -16.5601 3.97183 -1.10579 -16.8703 4.12327 
-1.04693 -17.1836 4.26638 -0.986288 -17.5 4.40156 -0.92382 -17.8165 4.52891 
-0.859552 -18.1331 4.64855 -0.7939 -18.4484 4.76102 -0.72684 -18.7622 4.86618 
-0.65899 -19.0744 4.96494 -0.590309 -19.3848 5.05696 -0.521309 -19.6939 5.14348 
-0.451963 -20.0017 5.22402 -0.382472 -20.3089 5.30014 -0.312817 -20.6153 5.37126 
-0.242839 -20.9216 5.43915 -0.172486 -21.2278 5.50329 -0.101333 -21.5341 5.56554 
-0.0292153 -21.8406 5.62551 0.0444121 -22.1471 5.68501 0.11992 -22.4537 5.74392 
0.197818 -22.7596 5.80377 0.278798 -23.0649 5.86485 0.363187 -23.3689 5.9282 
0.452123 -23.671 5.99456 0.545587 -23.9709 6.06424 0.6453 -24.2676 6.1385 
0.750699 -24.561 6.21672 0.864221 -24.8498 6.30061 0.984528 -25.1344 6.38855 
1.11487 -25.4128 6.48249 1.25292 -25.6864 6.58003 1.40276 -25.9526 6.68307 
1.56095 -26.2133 6.78879 1.73237 -26.4655 6.89876 1.91241 -26.7118 7.01029 
2.10662 -26.9485 7.1244 2.30934 -27.1789 7.23901 2.52657 -27.3985 7.35449 
2.75183 -27.6115 7.46973 2.99127 -27.8126 7.58455 3.23793 -28.0064 7.69878 
3.49781 -28.1871 7.81194 3.76383 -28.3601 7.92461 4.04154 -28.5185 8.03633 
4.32415 -28.6687 8.14797 4.61646 -28.8029 8.25944 4.91235 -28.9286 8.37142 
5.21559 -29.0369 8.48445 5.52111 -29.1365 8.59862 5.83149 -29.2177 8.71522 
6.14293 -29.2903 8.83348 6.45674 -29.3437 8.95545 6.77056 -29.3886 9.07944 
7.08442 -29.414 9.20807 7.39746 -29.4312 9.33885 7.70853 -29.4291 9.47474 
8.01819 -29.4193 9.61266 8.32432 -29.3908 9.75566 8.6287 -29.3555 9.9004 
8.92851 -29.3025 10.0497 9.22646 -29.2437 10.2003 9.51935 -29.1689 10.3545 
9.81048 -29.0892 10.5095 10.0966 -28.9957 10.6669 10.3813 -28.8985 10.8248 
10.6616 -28.79 10.9838 10.9408 -28.6788 11.1427 11.2167 -28.559 11.3017 
11.4919 -28.4374 11.4602 11.7651 -28.31 11.6177 12.0382 -28.1816 11.7746 
12.3108 -28.0499 11.9296 12.5837 -27.9177 12.0839 12.8578 -27.7843 12.2358 
13.1325 -27.6509 12.3871 13.4097 -27.5179 12.5359 13.6878 -27.3854 12.6842 
13.9696 -27.2546 12.8304 14.2524 -27.1245 12.9763 14.5394 -26.9974 13.1209 
14.8274 -26.8714 13.2655 15.1196 -26.7501 13.41 15.4125 -26.6303 13.5549 
15.709 -26.5175 13.7013 16.0058 -26.4068 13.8483 16.3046 -26.3063 13.9987 
16.6032 -26.2086 14.1501 16.9014 -26.1255 14.3066 17.1989 -26.046 14.4643 
17.4926 -25.9864 14.6285 17.785 -25.931 14.794 18.0696 -25.9012 14.9668 
18.3523 -25.8763 15.1406 18.6224 -25.8822 15.3215 18.8899 -25.8933 15.5031 
19.1396 -25.9397 15.6901 19.3862 -25.9912 15.8774 19.6097 -26.0807 16.0671 
19.8296 -26.1748 16.2566 20.021 -26.3076 16.4443 20.2086 -26.4445 16.6313 
20.3629 -26.6188 16.8117 20.5133 -26.7965 16.9909 20.6265 -27.0086 17.1587 
20.7361 -27.2235 17.325 20.8063 -27.4685 17.4757 20.8732 -27.7155 17.6248 
20.9004 -27.9878 17.7554 20.925 -28.2616 17.8846 20.912 -28.5556 17.9942 
20.8969 -28.8504 18.1026 20.8487 -29.1604 18.1921 20.7991 -29.471 18.2808 
20.7224 -29.792 18.3533 20.6447 -30.1133 18.4252 20.5469 -30.441 18.4846 
20.4487 -30.7688 18.5438 20.3371 -31.0995 18.5948 20.2254 -31.4303 18.6458 
20.1064 -31.761 18.6928 19.9873 -32.0918 18.7398 19.8654 -32.4204 18.7859 
19.7434 -32.749 18.8321 19.6217 -33.0737 18.879 19.5 -33.3984 18.926 

LINES 2 240
OFFSETS vtktypeint64
0 240 
CONNECTIVITY vtktypeint64
0 1 2 3 4 5 6 7 8 
9 10 11 12 13 14 15 16 17 
18 19 20 21 22 23 24 25 26 
27 28 29 30 31 32 33 34 35 
36 37 38 39 40 41 42 43 44 
45 46 47 48 49 50 51 52 53 
54 55 56 57 58 59 60 61 62 
63 64 65 66 67 68 69 70 71 
72 73 74 75 76 77 78 79 80 
81 82 83 84 85 86 87 88 89 
90 91 92 93 94 95 96 97 98 
99 100 101 102 103 104 105 106 107 
108 109 110 111 112 113 114 115 116 
117 118 119 120 121 122 123 124 125 
126 127 128 129 130 131 132 133 134 
135 136 137 138 139 140 141 142 143 
144 145 146 147 148 149 150 151 152 
153 154 155 156 157 158 159 160 161 
162 163 164 165 166 167 168 169 170 
171 172 173 174 175 176 177 178 179 
180 181 182 183 184 185 186 187 188 
189 190 191 192 193 194 195 196 197 
198 199 200 201 202 203 204 205 206 
207 208 209 210 211 212 213 214 215 
216 217 218 219 220 221 222 223 224 
225 226 227 228 229 230 231 232 233 
234 235 236 237 238 239 
CELL_DATA 1
FIELD FieldData 3
Length 1 1 double
76.845933063 
Tortuosity 1 1 double
0.7847531056 
ClusterLabel 1 1 int
2 
POINT_DATA 240
FIELD FieldData 6
Curvature 1 240 double
0 0.059483975255 0.11896795051 0.09483278703 0.069988986781 0.053748439582 0.037654956538 0.03116385145 0.024921083724 
0.034133893324 0.043884288221 0.06278618613 0.082089465749 0.11073992616 0.13988669705 0.18108832391 0.22304337927 0.27359870167 
0.32477386314 0.36425533982 0.40278006047 0.40151184496 0.39659290136 0.35339775465 0.30630410578 0.25021177959 0.19311025595 
0.14868718429 0.10581901712 0.085277812234 0.067713535649 0.069082688347 0.073182624116 0.080191852531 0.087653009901 0.092526644009 
0.096969024239 0.09937934092 0.10142750766 0.10397267703 0.1066122769 0.11263288074 0.11933651567 0.12979865237 0.14106618231 
0.15249316502 0.16395631229 0.16968832962 0.17404726373 0.16851211838 0.1604774161 0.14363496716 0.12445003241 0.10122567295 
0.076872011966 0.059548188006 0.04428746839 0.054715799227 0.073048453281 0.10253408816 0.13561346131 0.17611542118 0.21911937658 
0.27233447733 0.32914668611 0.39865304007 0.47282850489 0.55245598143 0.63417550899 0.69632121304 0.75063738768 0.75916365967 
0.74861080555 0.70289173352 0.64191984409 0.57620701052 0.50835497043 0.4513207326 0.3993615131 0.35896371089 0.32420209962 
0.296940357 0.27347601625 0.25384994203 0.23624141818 0.22009523187 0.20474668422 0.18982824557 0.17515315806 0.16170531581 
0.14897745744 0.1403807564 0.13429624564 0.13791386649 0.14764515931 0.17181665046 0.20541438219 0.25467869436 0.31453449752 
0.38340475592 0.45858513298 0.51855812173 0.56751126388 0.57648640907 0.55547805654 0.50756152731 0.43876104005 0.3710331674 
0.30416663679 0.24843012229 0.20194008272 0.16508815285 0.13651897351 0.11442696315 0.098092436324 0.085639867983 0.076756196958 
0.070010659666 0.065298101988 0.061538677826 0.058716501621 0.056232639881 0.054092826751 0.05191552747 0.049698803098 0.047023470946 
0.04384930226 0.040030722824 0.035487181296 0.030497221261 0.024987792418 0.020846227998 0.018351167051 0.019605187268 0.025527874598 
0.033097838304 0.042790254267 0.052836583682 0.063354797702 0.073676659631 0.083727555675 0.093159318969 0.1017066069 0.10930683299 
0.11550619674 0.12073200304 0.12446640215 0.12752404612 0.12950770912 0.1309539313 0.13151636191 0.13165947067 0.13108782626 
0.13024834897 0.12893549264 0.12751192022 0.12588536829 0.12434703183 0.12297651991 0.12184563361 0.12118800789 0.1207680162 
0.1208354789 0.12110672053 0.12181233305 0.12254547316 0.1233396204 0.12385731678 0.12373764037 0.12314244367 0.12140599829 
0.11911904176 0.11545580739 0.11122604694 0.10551988522 0.099436572307 0.092327879569 0.084823752926 0.076197104234 0.067543942158 
0.05881212371 0.050171406525 0.041813417401 0.033812319772 0.0269711195 0.021050995423 0.018269353192 0.016377674714 0.017669328123 
0.01912386165 0.021190824422 0.023198851445 0.024973591124 0.026813323697 0.02892433096 0.031427759609 0.035661409829 0.040431968392 
0.047708099224 0.055565612832 0.066300971185 0.077559578113 0.091572124908 0.10601131149 0.12284442133 0.14004691402 0.15946570381 
0.1790626914 0.19980682734 0.22042394751 0.24016042505 0.25961526385 0.27695781206 0.29386691193 0.30724174078 0.31996253463 
0.32685151644 0.33289583324 0.33064707543 0.3275211767 0.31483444199 0.30143137821 0.27927318142 0.25677528133 0.22956399787 
0.20236343758 0.17533444791 0.1484634297 0.12456754062 0.10085939889 0.0814318968 0.062160288417 0.047370624123 0.032715953933 
0.02328105575 0.013946261092 0.010467522576 0.0069886530692 0.0034943265346 0 
Torsion 1 240 double
0 0 0 -0.12558206874 -0.25222839229 -0.49930547196 -0.74844119703 -1.2076921294 -1.6723770758 
-1.1518949595 -0.5971461628 -0.38612174229 -0.19017295232 -0.12069205004 -0.057926256842 -0.027919661514 3.9483946351e-05 0.016273174681 
0.031661787597 0.043653992427 0.055368309323 0.071587854899 0.088220724208 0.12219923734 0.15794443641 0.24336188822 0.33435005996 
0.56487425091 0.81251134988 1.0262821375 1.235537417 0.93577520296 0.56259700434 0.32148077629 0.1008790291 -0.026036726953 
-0.13733815115 -0.22638582214 -0.31146747771 -0.37593846662 -0.43649342886 -0.4473958089 -0.44826736426 -0.40625090418 -0.35504415506 
-0.29676756853 -0.23688751372 -0.18493475599 -0.13488124653 -0.087588986282 -0.04099430479 0.026522452985 0.09960359275 0.3042339965 
0.54564161384 1.1997122735 1.9748905651 1.5677802525 0.79688883089 0.44477633317 0.22760371091 0.13099672558 0.07502984258 
0.04429093635 0.022439158298 0.0075380081145 -0.0048065892898 -0.014646192712 -0.023524577512 -0.032273440893 -0.040970495707 -0.051938458807 
-0.063852633694 -0.078979131404 -0.09549892576 -0.11380989462 -0.13292907638 -0.1510614332 -0.16873083512 -0.18316879634 -0.19603143022 
-0.20609794174 -0.2147486951 -0.2236598724 -0.23270793922 -0.24724723578 -0.26478174856 -0.29599000578 -0.33493472367 -0.39873563918 
-0.4771188573 -0.57447593334 -0.68337116623 -0.7302490381 -0.73804747701 -0.67198176781 -0.55769918415 -0.44822753131 -0.34200833873 
-0.25889806046 -0.1919640222 -0.14110313356 -0.10188945479 -0.070010972119 -0.04363388652 -0.01768797839 0.0079232845397 0.035692432714 
0.065194428129 0.096205967552 0.12847158969 0.15984401491 0.19044884903 0.21232616887 0.22644569823 0.2229892976 0.20337438068 
0.16836356797 0.11871403466 0.0659799115 0.010212608309 -0.036520179939 -0.074065325873 -0.093973320211 -0.095331896491 -0.077613711708 
-0.039145365769 0.026174377123 0.12170194159 0.3075644642 0.59854402902 0.95176251681 1.3798982267 1.3833806564 0.85804956734 
0.47131353513 0.26315190309 0.11398007365 0.043461314358 -0.012447037398 -0.048193026757 -0.078646542099 -0.10153938027 -0.12114536033 
-0.13588952941 -0.14674744098 -0.15165193678 -0.15142611828 -0.14305871403 -0.12995178235 -0.10905096108 -0.084761315407 -0.054695264486 
-0.023387620916 0.010114465478 0.042732173637 0.073728521701 0.10202656865 0.12519126224 0.14428201176 0.15532672171 0.16239404411 
0.16130262282 0.15703984622 0.14601707542 0.13326944671 0.11669915992 0.099931926912 0.082710623467 0.065797002018 0.04962181736 
0.03384128355 0.01904737686 0.0043690077339 -0.010008263496 -0.024473298389 -0.039176940739 -0.05547524635 -0.076300337989 -0.10186227523 
-0.14147685444 -0.19315164717 -0.28225468875 -0.40431708289 -0.63349737281 -0.85271564357 -1.0379892564 -1.1335783623 -0.90837288573 
-0.70394693739 -0.57765201532 -0.47423072055 -0.46135086716 -0.45283824624 -0.46255407396 -0.46224330228 -0.41772434235 -0.36855643068 
-0.29769341083 -0.22886944599 -0.17013880348 -0.11547579112 -0.082221358498 -0.051274886467 -0.033278637764 -0.016296921033 -0.0054023961405 
0.0048562866201 0.011021735655 0.016717700859 0.019158578171 0.021490761041 0.023007735602 0.024439656255 0.025178060423 0.025709513306 
0.024395650561 0.023052602103 0.021423003009 0.019790371319 0.018124684338 0.016453396027 0.014713647009 0.012963190824 0.0110641727 
0.0089800740891 0.0039346876842 -0.0013993741433 -0.012170156429 -0.023613784963 -0.050398307977 -0.079111422178 -0.163271533 -0.2531534115 
-0.56427697317 -0.86288979698 -0.42962445588 0 0 0 
FrenetTangent 3 240 double
-0.55502473908 -0.75654017675 0.34582437734 -0.55502473908 -0.75654017675 0.34582437734 -0.55502473908 -0.75654017675 0.34582437734 
-0.53405596972 -0.75958248305 0.36982133466 -0.51290949892 -0.7626505716 0.39402165602 -0.49828613131 -0.7659055448 0.40588159717 
-0.48377426974 -0.76916371261 0.41753059164 -0.47475469578 -0.77379076761 0.41922837151 -0.46587716373 -0.77845322486 0.42066879239 
-0.46172323442 -0.78514144993 0.41259099286 -0.45773360433 -0.79190013648 0.4041821248 -0.45783938309 -0.80105243139 0.38499732554 
-0.45812478505 -0.81030970911 0.36533989772 -0.46163016999 -0.82180883369 0.33197920359 -0.46530652748 -0.83342699439 0.29789090241 
-0.47033521406 -0.84576328704 0.24587093096 -0.47544842121 -0.85814446294 0.19273023012 -0.47810743721 -0.86691855918 0.11832612393 
-0.48058957456 -0.87543268571 0.042389520054 -0.47504872907 -0.87324705636 -0.051358821276 -0.46885145771 -0.87018599245 -0.14656448658 
-0.45123446528 -0.85233480487 -0.24417017983 -0.43256979201 -0.83312672521 -0.34199605912 -0.40588570159 -0.80522579364 -0.42307298285 
-0.37838481869 -0.776439479 -0.50244399445 -0.34981833491 -0.7505212666 -0.55695793465 -0.3211323445 -0.72492471052 -0.60868416592 
-0.29553264846 -0.70939829592 -0.63862179767 -0.27031146022 -0.69510689868 -0.66588724268 -0.24845725755 -0.69193427926 -0.67745746628 
-0.22705198629 -0.69024416355 -0.68693499368 -0.20733870005 -0.69730264731 -0.68580479496 -0.18786945011 -0.70562294831 -0.68314463574 
-0.16798357895 -0.71913256673 -0.67373981796 -0.14803298994 -0.73344829273 -0.66328728623 -0.12585474939 -0.74930295524 -0.64941665096 
-0.10330523358 -0.76541410717 -0.63497633177 -0.077258853952 -0.77981472166 -0.62033243316 -0.050589270875 -0.79391048789 -0.60565225306 
-0.019680842284 -0.80363813979 -0.5937908347 0.012032966956 -0.81253584996 -0.58246498108 0.04819703348 -0.81494475637 -0.57634301325 
0.085260141879 -0.81604279333 -0.57127233549 0.12625262983 -0.80898016814 -0.57255657838 0.16808712768 -0.80016882963 -0.57520258999 
0.2121917458 -0.78230002556 -0.58358172536 0.25681123656 -0.76237695094 -0.59326115684 0.30072608907 -0.73434490819 -0.60613113 
0.34447212201 -0.70437009182 -0.61976550377 0.38400635906 -0.67014185041 -0.63296897957 0.42247656346 -0.63483905951 -0.64606359692 
0.45438236729 -0.60133385381 -0.65569492423 0.48454231991 -0.56830672927 -0.66440516376 0.50784371311 -0.5429599558 -0.66807919895 
0.52922765961 -0.51976037726 -0.67034526305 0.54478293185 -0.50812072379 -0.66689713911 0.5586276149 -0.49987365703 -0.6617720252 
0.56768590865 -0.50476823469 -0.65010226683 0.57527146723 -0.51370639525 -0.63641877168 0.5781691273 -0.53570854487 -0.6144163405 
0.57955624229 -0.56192020206 -0.58973336327 0.57490235407 -0.59982747501 -0.55362006752 0.56821217262 -0.64167709035 -0.51365385542 
0.5524364759 -0.69185162031 -0.45786139502 0.53346019993 -0.74495879065 -0.39649377896 0.50066970979 -0.79924427494 -0.31449776796 
0.46279812937 -0.85396316207 -0.22491430135 0.40630321694 -0.89642539313 -0.11307052172 0.34266214222 -0.93418448873 0.0073150059235 
0.26082311316 -0.94164655031 0.14126405484 0.17170490235 -0.93698979828 0.28063851227 0.075810046123 -0.89250551105 0.41241713063 
-0.022908412362 -0.83142641748 0.54103081605 -0.111885971 -0.74124702263 0.6435775433 -0.19663856104 -0.63844581037 0.73481812001 
-0.26291167314 -0.52592170334 0.79781603299 -0.32084648422 -0.40901043649 0.84807030502 -0.36043890714 -0.29477630499 0.87773885819 
-0.39142625907 -0.18179811353 0.89774991363 -0.40716951494 -0.075919221682 0.90496645596 -0.41548127397 0.026498761602 0.90594567315 
-0.41145332468 0.1206295821 0.89930105669 -0.4011774218 0.21056437081 0.88879627128 -0.38103959291 0.29141491519 0.87403017993 
-0.35571793113 0.36749040806 0.85702417137 -0.32305978107 0.43350413489 0.83842835025 -0.28639991013 0.4940296257 0.81896535865 
-0.24517195752 0.54362133118 0.80047334376 -0.20135943239 0.58702681602 0.78253069728 -0.15570130899 0.61911776603 0.76801973096 
-0.10896043462 0.64457085562 0.755522017 -0.062545007674 0.65866696127 0.74856429986 -0.016327487953 0.66585679291 0.74497549973 
0.028185813273 0.66115782625 0.74851767823 0.071625223394 0.64896728807 0.75655335011 0.11254429306 0.6229284541 0.77237827517 
0.15181814047 0.58784976038 0.7932878516 0.18755719722 0.53498180027 0.82054516198 0.22090653632 0.47008729387 0.85209389812 
0.24846040256 0.38323015964 0.88394093529 0.27195743779 0.28099918593 0.91599678318 0.28619579847 0.15969145132 0.93663821215 
0.2937249747 0.024559976911 0.94900832306 0.29108356692 -0.11310702613 0.94125825567 0.28081422113 -0.25267567565 0.91841805456 
0.26514135705 -0.37633701308 0.8807358553 0.24527471757 -0.48765237695 0.83153449332 0.22595240562 -0.57850120514 0.77916501412 
0.20706720517 -0.65291478499 0.72425144079 0.19154696231 -0.71193686669 0.67286202684 0.17882222268 -0.75817216532 0.62440037607 
0.16977605772 -0.79487069023 0.58092323677 0.16389116787 -0.82337355023 0.54172966203 0.16101885672 -0.8462956804 0.50679829254 
0.16082439329 -0.86425716183 0.47565554993 0.16269400716 -0.8789647812 0.44759468601 0.16646124047 -0.89068094674 0.42236716218 
0.17129955245 -0.90049951471 0.39916737309 0.17715626711 -0.90851380959 0.37789559409 0.18318959637 -0.91545110393 0.35786457476 
0.18939659666 -0.92132934775 0.33905363577 0.19511775071 -0.92661658522 0.32101489413 0.20034482382 -0.93130279928 0.30376143793 
0.20477775526 -0.93563265188 0.28713673691 0.20837546871 -0.93958771054 0.27117331291 0.21128729036 -0.94321517939 0.25601160823 
0.21345305427 -0.94648632248 0.24172194914 0.21535336483 -0.94934649442 0.22859828494 0.21695504038 -0.95174432382 0.21678636499 
0.2188247462 -0.95362314152 0.20655182975 0.22100634179 -0.95489801834 0.19815279672 0.22397471643 -0.95554571657 0.19168942042 
0.22789013996 -0.9554384776 0.18755600131 0.23303026132 -0.95458142073 0.18557400609 0.23969547812 -0.95279062837 0.18627114253 
0.24793021521 -0.95008011564 0.18913931094 0.25818721883 -0.94618457858 0.19480477057 0.27026991431 -0.94113636716 0.20241990678 
0.2847868656 -0.9345512566 0.21263461177 0.30126002677 -0.92655017351 0.22430119673 0.32043275759 -0.91659504834 0.23797137604 
0.34151554264 -0.9050133913 0.25231706652 0.36532697658 -0.89110811729 0.26762777294 0.39077547049 -0.87552197622 0.28267048158 
0.41864544894 -0.85744955264 0.29731677683 0.44767072963 -0.8378452491 0.31081665947 0.47846583504 -0.81589423583 0.32256033557 
0.50984966448 -0.79267393461 0.33261571638 0.54216777337 -0.7674393286 0.33999184597 0.5745052614 -0.74119601534 0.34560347568 
0.60687461738 -0.71329393908 0.34831348337 0.63874160756 -0.68458504416 0.34960072412 0.66975229243 -0.65450089016 0.34846279393 
0.69985801666 -0.62371638054 0.34651980024 0.72836427555 -0.5916940331 0.34315390362 0.75569610635 -0.55901310023 0.33967393535 
0.78087481896 -0.52512476072 0.33598483571 0.80471669474 -0.49060797699 0.33277720266 0.82601531993 -0.45489561647 0.33048553046 
0.84588955401 -0.41860390546 0.32907474751 0.86295061561 -0.38116797724 0.32940372083 0.87854398903 -0.3432487737 0.33077605016 
0.89112671998 -0.30433823621 0.33428859693 0.90223734398 -0.26507307252 0.33879518972 0.91021005576 -0.22505199509 0.34542067009 
0.91675101244 -0.18482401919 0.35282296621 0.92011889025 -0.14413751158 0.36194685403 0.92215034381 -0.1034650326 0.37151438457 
0.92110059702 -0.062824897447 0.38210475808 0.91889360207 -0.022500992147 0.3927686431 0.91390921152 0.017063961502 0.40360895579 
0.90804533606 0.055989775719 0.41418893835 0.89998274831 0.093317741358 0.4241180956 0.89139612855 0.12970224071 0.43354198512 
0.88144384966 0.16362800975 0.44164911629 0.87134478737 0.19639262664 0.4491226173 0.86084665772 0.22600036113 0.45487343635 
0.85055138531 0.25429053135 0.45997434048 0.84083196571 0.27884051912 0.46323032487 0.8315858905 0.30202458082 0.4658931283 
0.82374407031 0.3211563952 0.46679616156 0.81652810597 0.33899500811 0.46719319869 0.81125445286 0.35282023718 0.46601990305 
0.80665698573 0.36545737127 0.46444311106 0.80425712303 0.37423319664 0.46155495592 0.80247664563 0.38198785996 0.45836878225 
0.80280666625 0.38626300814 0.45416713804 0.80361558378 0.38971248867 0.44979311472 0.80613747868 0.39020861953 0.44480250455 
0.80896718273 0.39003602948 0.43980185191 0.81295424919 0.3873490488 0.4347634396 0.81709118362 0.38411062279 0.42987846869 
0.82182134545 0.37868939232 0.42560087002 0.82657364855 0.37276197546 0.42165303311 0.83141836734 0.36472178057 0.4190815931 
0.83620168641 0.35611350997 0.41701486797 0.84071428845 0.34500054192 0.41717347667 0.84511128201 0.33317267531 0.41797025477 
0.84896876932 0.31800861549 0.42174515676 0.85265102445 0.30191260273 0.42623919156 0.85546588026 0.28120342288 0.4342929338 
0.85801028814 0.25931051687 0.44305370426 0.85913128587 0.23118747313 0.45553567595 0.85980457037 0.20167260314 0.46861110001 
0.85796568611 0.16434804139 0.4850164513 0.85541307994 0.12551541994 0.50179154846 0.84857814227 0.077634440259 0.52078512084 
0.8407114705 0.028279366942 0.5398022144 0.82620301044 -0.030565184161 0.55897072553 0.81037311185 -0.0906038531 0.57772887747 
0.78538123943 -0.15892173904 0.5936418724 0.75889763 -0.22794007585 0.60873410599 0.72122599299 -0.30221179422 0.61767062953 
0.68207657194 -0.37659146036 0.62548466862 0.63087752723 -0.45185131607 0.62414614227 0.57843872918 -0.52660687334 0.62155649097 
0.51494546384 -0.59686576946 0.60781097558 0.4506643471 -0.66609538934 0.59292536359 0.37864796208 -0.72521938797 0.566846076 
0.30642985608 -0.78303097763 0.53995886811 0.23201299127 -0.82653730962 0.50426532907 0.15795117467 -0.8687724869 0.46822397149 
0.088228836173 -0.89547132884 0.42793149836 0.019211041538 -0.92121087623 0.38771535974 -0.040031207051 -0.93364021184 0.34855836248 
-0.098499391037 -0.94551159313 0.30972845638 -0.1445825414 -0.94845570522 0.27613200882 -0.19001375155 -0.95115913256 0.24293435802 
-0.22316675444 -0.94932966385 0.21724737944 -0.25585303083 -0.94744008834 0.19191351315 -0.27789794308 -0.94418007798 0.17463060704 
-0.29964997725 -0.94093136945 0.15760569972 -0.31298176702 -0.93800758854 0.14799825778 -0.32615638004 -0.93510653148 0.13854401686 
-0.33325349218 -0.93308413031 0.13501354883 -0.34028249091 -0.93107589703 0.1315489963 -0.34332685577 -0.92989648492 0.13194050044 
-0.34634563772 -0.92872698384 0.13232871463 -0.34634563772 -0.92872698384 0.13232871463 -0.34634563772 -0.92872698384 0.13232871463 

FrenetNormal 3 240 double
0.61205337393 -0.089873602132 0.78569294454 0.61205337393 -0.089873602132 0.78569294454 0.61205337393 -0.089873602132 0.78569294454 
0.65959704651 -0.10274963723 0.74154413281 0.70754363157 -0.11573479128 0.69702117861 0.77382571388 -0.19540446662 0.58158681581 
0.84042122349 -0.27621404832 0.46494029218 0.76967808793 -0.4423912708 0.056216782909 0.69538309087 -0.61077627709 -0.36006044151 
0.41097942401 -0.56037218623 -0.60760489615 0.11926762951 -0.50235803981 -0.84928038489 0.017968213496 -0.43832861119 -0.89084788071 
-0.074979782413 -0.37403535439 -0.92363871018 -0.09436891455 -0.32634549139 -0.93911454077 -0.10985226631 -0.27953722452 -0.95367099088 
-0.09327243997 -0.22932590768 -0.96727698632 -0.074688664997 -0.17890190022 -0.98082357833 -0.035653894867 -0.11542241398 -0.9897085287 
0.0048548208596 -0.05100199233 -0.9982575049 0.059659052379 0.025961169565 -0.99322439287 0.11563291701 0.10395055566 -0.98708001906 
0.17787332698 0.18132347654 -0.96167252644 0.24068864938 0.25863984098 -0.93449777521 0.3048871795 0.31576769674 -0.8935176363 
0.36922659189 0.3708393155 -0.85113139309 0.44457204879 0.38795313274 -0.8020989307 0.52115182844 0.40081000027 -0.75232109793 
0.63785677105 0.33883878129 -0.671948607 0.7594827242 0.26769053283 -0.58782394101 0.86116414554 0.05667920713 -0.3743890275 
0.96018629597 -0.17298052887 -0.14371274765 0.89693300721 -0.3373519341 0.072085325807 0.81027460703 -0.49230675317 0.28573750411 
0.7575258377 -0.52782087782 0.37453932767 0.71004458385 -0.54478110818 0.44394692136 0.71780162759 -0.52029781253 0.46121798016 
0.73476505425 -0.48890726254 0.46979961647 0.78233671367 -0.42933217178 0.44228264202 0.83536330567 -0.36473409355 0.40833225178 
0.89131538125 -0.27056714164 0.33666293799 0.94782329872 -0.17078210373 0.25782702871 0.97314691193 -0.053741613508 0.15744094974 
0.99217066569 0.066784826675 0.052701301126 0.97301790484 0.17855213962 -0.037629072459 0.94568446229 0.28844249672 -0.12487174425 
0.90165365647 0.37851697137 -0.17951621698 0.85383581982 0.46409712217 -0.22676728372 0.80637039125 0.53241813694 -0.24495972204 
0.75898939378 0.59660415037 -0.25619019729 0.72028906685 0.64566983716 -0.24660954086 0.68378175142 0.69091565196 -0.23177133537 
0.66499263397 0.71859133462 -0.19819138924 0.65091580321 0.7415941098 -0.15962693762 0.67658746232 0.72487369518 -0.074921562781 
0.71337160247 0.69704787267 0.022683424997 0.7361432337 0.42226472153 0.27810185268 0.75480249818 0.07500496307 0.57983509424 
0.53612503413 -0.26312835077 0.67422253813 0.24442088438 -0.59845352781 0.70481127505 0.089814756374 -0.70234100327 0.69706984301 
-0.020615342405 -0.73165410822 0.67697757877 -0.094114086058 -0.7209617245 0.68342421544 -0.15516405832 -0.6967843446 0.69881654905 
-0.21138812175 -0.64927449954 0.72603677646 -0.26591214911 -0.59354526333 0.75742364827 -0.32173944892 -0.51204793812 0.78908734362 
-0.37804611332 -0.42107269513 0.82085285913 -0.43133020494 -0.30137453013 0.83937940125 -0.48345447212 -0.17065477878 0.85282587218 
-0.52171110703 -0.018805563094 0.83790455578 -0.55442068902 0.14149543833 0.81163612446 -0.56191494118 0.30005369034 0.75263226471 
-0.55890280591 0.45788579676 0.67998864313 -0.52970792947 0.59077282417 0.58834186446 -0.48915668337 0.71284029925 0.48845275261 
-0.43016340669 0.80358674459 0.38797635854 -0.36284872596 0.88020053016 0.28723497127 -0.28426668529 0.93075740345 0.19585818582 
-0.20039872269 0.9690900463 0.10887467036 -0.10986657684 0.98715170565 0.033391964593 -0.016085641668 0.99533126056 -0.036484096452 
0.080417773506 0.98642051476 -0.09551098122 0.17829965956 0.96885645215 -0.14904461218 0.27542677294 0.93608617907 -0.19201549577 
0.37215714682 0.89532289791 -0.22943416599 0.46635414569 0.84037805654 -0.25479157368 0.55916930365 0.7776978187 -0.27357011088 
0.64933261275 0.69903669753 -0.27579822552 0.73799553367 0.6113337608 -0.26866228528 0.82081016793 0.49927805189 -0.23596078842 
0.90019380735 0.3729353833 -0.18826083168 0.9512366788 0.21003579953 -0.10516720675 0.98504529947 0.024905659249 -0.00055040520322 
0.94930945142 -0.17297504439 0.11696725549 0.86975106142 -0.37889034958 0.2426142247 0.7512286587 -0.54140257168 0.32690630634 
0.60727141432 -0.67558222564 0.38420283637 0.47759370301 -0.77374636115 0.39515475555 0.35756976055 -0.84756197714 0.37477510681 
0.25563952556 -0.9047238933 0.32034177513 0.16637488581 -0.95022821959 0.24207086538 0.087007135191 -0.97803034523 0.14015651819 
0.014811043354 -0.99300478925 0.021109245334 -0.047882587197 -0.9850313947 -0.10355890105 -0.10344937178 -0.95984712123 -0.23244270257 
-0.14575359799 -0.91907135653 -0.34883928061 -0.17776449531 -0.86619473297 -0.45554428221 -0.19503072054 -0.81067173912 -0.5453335209 
-0.20045652728 -0.75302362973 -0.62153888938 -0.1913664271 -0.69925414058 -0.68537148611 -0.17021695808 -0.64870688978 -0.73892516477 
-0.13481452544 -0.60196397193 -0.78423120349 -0.087163452193 -0.55849040271 -0.82244942662 -0.028547829884 -0.51617012719 -0.85283604384 