# vtk DataFile Version 5.1
vtk output
ASCII
DATASET POLYDATA
POINTS 240 float
0 0 0 -0.260197 -0.14537 0.0344564 -0.520395 -0.29074 0.0689129 
-0.764504 -0.457696 0.119635 -1.00848 -0.624835 0.170496 -1.23661 -0.808463 0.235955 
-1.46448 -0.992373 0.301663 -1.6777 -1.18831 0.380444 -1.89055 -1.38456 0.459564 
-2.09045 -1.58912 0.550477 -2.28991 -1.79398 0.6418 -2.47832 -2.00415 0.743863 
-2.66624 -2.21455 0.846397 -2.84507 -2.42784 0.958727 -3.02343 -2.64128 1.07158 
-3.19461 -2.85571 1.19331 -3.36534 -3.07019 1.31559 -3.53067 -3.28421 1.44584 
-3.69561 -3.49819 1.57667 -3.85674 -3.71065 1.71453 -4.01755 -3.92299 1.85296 
-4.17599 -4.13307 1.99743 -4.3342 -4.34295 2.14246 -4.49132 -4.55008 2.29253 
-4.64832 -4.75693 2.44312 -4.80543 -4.96075 2.59768 -4.96256 -5.16422 2.75268 
-5.12096 -5.36452 2.91048 -5.27953 -5.56443 3.06862 -5.44057 -5.76127 3.22811 
-5.60193 -5.95769 3.38777 -5.76701 -6.15158 3.54673 -5.93263 -6.3451 3.70559 
-6.10324 -6.53757 3.86035 -6.27462 -6.72988 4.01447 -6.45251 -6.92459 4.15763 
-6.63148 -7.1197 4.29897 -6.81813 -7.32628 4.40868 -7.00615 -7.53491 4.51275 
-7.16155 -7.76157 4.47381 -7.31075 -7.99165 4.40769 -7.30308 -8.12874 4.17344 
-7.26372 -8.24704 3.90522 -7.16812 -8.3175 3.63273 -7.06046 -8.37771 3.35933 
-6.93391 -8.42619 3.09179 -6.80306 -8.47202 2.82558 -6.66197 -8.51552 2.56429 
-6.51843 -8.55847 2.30418 -6.3682 -8.6032 2.04821 -6.21627 -8.64837 1.79328 
-6.05965 -8.69779 1.54204 -5.90177 -8.74834 1.29178 -5.74056 -8.80504 1.04503 
-5.57841 -8.86345 0.799259 -5.41404 -8.92975 0.557038 -5.24902 -8.99835 0.315858 
-5.08289 -9.0765 0.0784571 -4.91641 -9.15759 -0.157781 -4.75001 -9.25019 -0.389689 
-4.58365 -9.3465 -0.620202 -4.41884 -9.45645 -0.845499 -4.25456 -9.57099 -1.06904 
-4.09384 -9.70179 -1.28585 -3.93438 -9.83831 -1.50029 -3.78136 -9.99427 -1.70548 
-3.63072 -10.1574 -1.90726 -3.49091 -10.3435 -2.09561 -3.35526 -10.5384 -2.27881 
-3.23688 -10.759 -2.44197 -3.12543 -10.9899 -2.59711 -3.03981 -11.2462 -2.7228 
-2.96495 -11.513 -2.83621 -2.9249 -11.798 -2.90923 -2.89995 -12.0909 -2.96474 
-2.91477 -12.3865 -2.97215 -2.94755 -12.6833 -2.95788 -3.01722 -12.9643 -2.89619 
-3.10419 -13.2379 -2.81226 -3.21858 -13.4826 -2.68945 -3.34633 -13.7133 -2.54769 
-3.49071 -13.9105 -2.37777 -3.6435 -14.0908 -2.19359 -3.80421 -14.2387 -1.99021 
-3.96907 -14.3695 -1.77674 -4.1357 -14.4711 -1.5503 -4.3033 -14.5567 -1.31678 
-4.46833 -14.6165 -1.07445 -4.63192 -14.6618 -0.827116 -4.78982 -14.6852 -0.57374 
-4.9444 -14.6956 -0.316817 -5.09099 -14.6875 -0.0556379 -5.23273 -14.6683 0.20813 
-5.36456 -14.6337 0.475054 -5.49015 -14.5894 0.743967 -5.60432 -14.533 1.01536 
-5.71103 -14.4688 1.28838 -5.80483 -14.3955 1.56356 -5.88991 -14.3163 1.84021 
-5.9606 -14.2314 2.11895 -6.02123 -14.1427 2.39914 -6.06558 -14.0522 2.68144 
-6.09813 -13.9605 2.96528 -6.11211 -13.8718 3.25109 -6.11217 -13.7853 3.53837 
-6.09128 -13.7082 3.82677 -6.05411 -13.6384 4.11605 -5.99427 -13.5863 4.404 
-5.91622 -13.5484 4.69088 -5.81636 -13.5376 4.97129 -5.69838 -13.5494 5.24632 
-5.56445 -13.5946 5.50776 -5.41682 -13.6686 5.75754 -5.26279 -13.7749 5.98862 
-5.10306 -13.9099 6.20308 -4.94529 -14.0702 6.39879 -4.78932 -14.2538 6.57724 
-4.63994 -14.4551 6.73995 -4.49682 -14.6734 6.88769 -4.362 -14.9038 7.02334 
-4.23536 -15.146 7.14712 -4.11732 -15.3964 7.26185 -4.00801 -15.6552 7.36739 
-3.90696 -15.9197 7.46618 -3.8146 -16.1901 7.55788 -3.7298 -16.4645 7.64454 
-3.65322 -16.7431 7.72573 -3.58327 -17.0244 7.80317 -3.52079 -17.3087 7.87639 
-3.4639 -17.5948 7.94682 -3.41352 -17.883 8.014 -3.36758 -18.1723 8.07916 
-3.32696 -18.4631 8.14188 -3.28951 -18.7545 8.20319 -3.256 -19.0468 8.26275 
-3.22426 -19.3395 8.32141 -3.19483 -19.6327 8.37892 -3.16563 -19.9259 8.43598 
-3.13675 -20.2193 8.49244 -3.1064 -20.5126 8.54883 -3.074 -20.8057 8.60513 
-3.03826 -21.0983 8.66171 -2.99773 -21.3902 8.71867 -2.95186 -21.6812 8.7762 
-2.89807 -21.9706 8.83456 -2.837 -22.2583 8.89369 -2.76476 -22.5433 8.95399 
-2.68354 -22.8255 9.01517 -2.58806 -23.103 9.07771 -2.48253 -23.3763 9.1411 
-2.36047 -23.6427 9.20587 -2.22813 -23.9034 9.27132 -2.07829 -24.1547 9.33794 
-1.91878 -24.3993 9.40505 -1.74218 -24.6322 9.47299 -1.55711 -24.8578 9.5412 
-1.35649 -25.0701 9.6099 -1.14881 -25.275 9.67869 -0.927677 -25.4657 9.74768 
-0.700834 -25.6492 9.81667 -0.462708 -25.8183 9.88567 -0.220034 -25.9804 9.95461 
0.031969 -26.1281 10.0234 0.287571 -26.2691 10.0922 0.550842 -26.3958 10.1609 
0.816899 -26.5161 10.2295 1.08913 -26.6223 10.298 1.3635 -26.7224 10.3665 
1.64279 -26.8083 10.4349 1.92365 -26.8884 10.5035 2.20826 -26.9545 10.5721 
2.49394 -27.0149 10.6409 2.7823 -27.0613 10.71 3.0713 -27.1024 10.7793 
3.36193 -27.1296 10.8492 3.6528 -27.1516 10.9194 3.94431 -27.1599 10.9904 
4.23571 -27.1634 11.0618 4.5268 -27.1535 11.1343 4.81749 -27.1393 11.2073 
5.10699 -27.1121 11.2818 5.39587 -27.081 11.3568 5.68282 -27.0379 11.4336 
5.96899 -26.9914 11.5111 6.25265 -26.934 11.5907 6.53546 -26.8737 11.671 
6.81543 -26.804 11.7539 7.09458 -26.7322 11.8376 7.3708 -26.6527 11.9241 
7.64629 -26.5717 12.0115 7.91908 -26.4852 12.1022 8.19128 -26.3978 12.1937 
8.46117 -26.3072 12.2889 8.73064 -26.2162 12.3849 8.99834 -26.1243 12.4849 
9.26578 -26.0326 12.5858 9.53202 -25.9422 12.6909 9.79812 -25.8525 12.797 
10.0635 -25.7661 12.9075 10.3289 -25.6809 13.019 10.594 -25.6012 13.1352 
10.859 -25.5229 13.2522 11.124 -25.452 13.3741 11.389 -25.3829 13.4968 
11.6541 -25.3232 13.6246 11.919 -25.2655 13.7531 12.1838 -25.2192 13.8867 
12.4485 -25.175 14.021 12.7126 -25.1443 14.1604 12.9764 -25.1158 14.3005 
13.2389 -25.1028 14.4454 13.5011 -25.0922 14.591 13.7608 -25.0992 14.7412 
14.0201 -25.1086 14.892 14.2754 -25.1377 15.047 14.5301 -25.1692 15.2024 
14.7789 -25.2227 15.3615 15.0268 -25.2785 15.5208 15.2664 -25.3583 15.6829 
15.505 -25.4403 15.8452 15.7323 -25.5479 16.0089 15.9583 -25.6577 16.1726 
16.1696 -25.794 16.3362 16.3796 -25.9323 16.4997 16.5712 -26.0972 16.6613 
16.7614 -26.2637 16.8226 16.9299 -26.4556 16.9802 17.097 -26.6486 17.1375 
17.24 -26.8642 17.2894 17.3818 -27.0807 17.4411 17.498 -27.316 17.5865 
17.6134 -27.5518 17.7317 17.7031 -27.8024 17.8703 17.7922 -28.0532 18.0088 
17.8567 -28.3147 18.1412 17.9208 -28.5763 18.2735 17.962 -28.845 18.4006 
18.0029 -29.1137 18.5278 18.0232 -29.3866 18.6511 18.0436 -29.6595 18.7745 

LINES 2 240
OFFSETS vtktypeint64
0 240 
CONNECTIVITY vtktypeint64
0 1 2 3 4 5 6 7 8 
9 10 11 12 13 14 15 16 17 
18 19 20 21 22 23 24 25 26 
27 28 29 30 31 32 33 34 35 
36 37 38 39 40 41 42 43 44 
45 46 47 48 49 50 51 52 53 
54 55 56 57 58 59 60 61 62 
63 64 65 66 67 68 69 70 71 
72 73 74 75 76 77 78 79 80 
81 82 83 84 85 86 87 88 89 
90 91 92 93 94 95 96 97 98 
99 100 101 102 103 104 105 106 107 
108 109 110 111 112 113 114 115 116 
117 118 119 120 121 122 123 124 125 
126 127 128 129 130 131 132 133 134 
135 136 137 138 139 140 141 142 143 
144 145 146 147 148 149 150 151 152 
153 154 155 156 157 158 159 160 161 
162 163 164 165 166 167 168 169 170 
171 172 173 174 175 176 177 178 179 
180 181 182 183 184 185 186 187 188 
189 190 191 192 193 194 195 196 197 
198 199 200 201 202 203 204 205 206 
207 208 209 210 211 212 213 214 215 
216 217 218 219 220 221 222 223 224 
225 226 227 228 229 230 231 232 233 
234 235 236 237 238 239 
CELL_DATA 1
FIELD FieldData 3
Length 1 1 double
71.66501579 
Tortuosity 1 1 double
0.81576827023 
ClusterLabel 1 1 int
3 
POINT_DATA 240
FIELD FieldData 6
Curvature 1 240 double
0 0.087588887439 0.17517777488 0.16453713913 0.15306404979 0.14203607314 0.13101570525 0.12115415938 0.11132258304 
0.10286340676 0.094451966141 0.08719133773 0.079981183539 0.073778177282 0.067628647907 0.062520294652 0.057477014904 0.053194066505 
0.048965916762 0.045354301865 0.041793130728 0.038800659194 0.035860361935 0.033404685811 0.030998369246 0.029252567926 0.027580843082 
0.02683107321 0.026194373287 0.027288989568 0.02861444801 0.03443762879 0.040909519524 0.059835258656 0.08069557618 0.14450630147 
0.21547542805 0.60962990014 1.0613817605 1.6715508977 2.3118193174 1.6306521911 0.682528389 0.36807897565 0.18941693132 
0.12519528717 0.08692919769 0.069997283961 0.058176683173 0.054011526524 0.051780376817 0.052904641035 0.054921302573 0.058629827842 
0.062811347271 0.067965790104 0.073405764806 0.080492906836 0.088086869582 0.096972793641 0.10627501634 0.11822256454 0.13106179548 
0.14767431353 0.16561605771 0.18883069094 0.21398477762 0.24523981201 0.27883590773 0.31788448117 0.3591140457 0.40147976486 
0.44431888179 0.47785907595 0.50736600241 0.51784553613 0.51973953897 0.50300924268 0.47754162087 0.44488193467 0.40871611708 
0.37410300964 0.34027608455 0.31162136688 0.28568537362 0.26406294461 0.24479336881 0.22804625587 0.21272632587 0.19968129835 
0.1879708803 0.17852916384 0.17046706322 0.16330277426 0.15670422963 0.15203676116 0.14862985629 0.14703364134 0.1466615548 
0.14982057727 0.15545137605 0.16526314381 0.17810459924 0.19594954523 0.21754710913 0.24459663102 0.27587752329 0.31023856269 
0.34707305358 0.37735335689 0.40218864282 0.41079856135 0.40546480476 0.38617295292 0.35447390531 0.32082190344 0.28537444362 
0.25305366623 0.2237058 0.19858122266 0.17760954605 0.15968892361 0.14487106812 0.13169189149 0.12023615299 0.10965855459 
0.10003612614 0.090929861582 0.082404281407 0.073945754109 0.065565251977 0.057108964174 0.048561452878 0.039789323909 0.030737482364 
0.021531710457 0.012127605199 0.0094802958218 0.01584204762 0.024975943761 0.037935399094 0.051577184792 0.066193728153 0.081084752169 
0.096381778819 0.11154690239 0.12650996168 0.14043085459 0.15269787476 0.16321215231 0.17084414201 0.17649471371 0.17876786836 
0.17936010518 0.17698141747 0.17358868539 0.16833687198 0.16277721573 0.15663190724 0.15064214528 0.14495958769 0.13967197345 
0.1351944994 0.13082414563 0.1266821272 0.12303106182 0.12046805459 0.11794243237 0.11550300338 0.11335199115 0.11189317914 
0.11035087374 0.10859983484 0.10700304245 0.1058082258 0.10436517007 0.10224721432 0.10015957774 0.098158008479 0.095839346061 
0.092579973942 0.089241529315 0.085657687248 0.081741923102 0.0767474122 0.071606274614 0.065965520178 0.060154107322 0.053732262424 
0.047492375588 0.04193665106 0.036758225734 0.033073276412 0.030156704001 0.030447269998 0.031351201363 0.034959516397 0.038792732183 
0.04367548481 0.048645996214 0.054050913566 0.059476949422 0.065014135291 0.070558191978 0.076140801592 0.081694216719 0.087072464927 
0.092492809314 0.098184147854 0.10393297011 0.11008034615 0.11620782732 0.12218609696 0.12827230706 0.13523864698 0.1421861211 
0.14896537519 0.15576133326 0.16272129395 0.16966108402 0.17638101434 0.18298948504 0.18823567133 0.19329569409 0.19577269771 
0.19804758893 0.19708868181 0.19596385877 0.19171428586 0.18735084473 0.18039120833 0.17337251549 0.16465595029 0.15593671624 
0.14711428726 0.13828173463 0.12885694853 0.11901131476 0.059505657381 0 
Torsion 1 240 double
0 0 0 0.042310325937 0.084979213959 0.099091682717 0.11271600756 0.12825676495 0.14384708525 
0.16038754187 0.17696104671 0.19370116197 0.21044858471 0.22582406945 0.24112670792 0.25361223616 0.26592169502 0.27857914261 
0.29126167046 0.30944608499 0.32808065387 0.3564309273 0.38567254976 0.43335334266 0.48291219922 0.55594918408 0.63161923007 
0.73606043788 0.8440301844 0.9678783179 1.0938435697 1.1120920766 1.1148045146 1.009653505 0.88774700846 0.86600345714 
0.86095373002 0.58213746463 0.2545311231 0.1649554353 0.12060557169 0.26534314252 0.44828019505 0.61997503414 0.78926082749 
0.8146162954 0.80732777199 0.80317040221 0.79976320465 0.72911648317 0.64148293458 0.54515578887 0.44651651626 0.37131266689 
0.30266065628 0.2560022559 0.21579850201 0.18585646888 0.15907188829 0.13992240498 0.12323311968 0.10964308206 0.097097734668 
0.086488435913 0.07656115429 0.067311432674 0.058310928532 0.049277577044 0.040231621341 0.030935840055 0.021540128535 0.012632483037 
0.003928198381 -0.0038036626696 -0.011113749626 -0.018664463002 -0.026323751713 -0.035462653364 -0.04529569442 -0.05603784985 -0.067223198537 
-0.078336042863 -0.08941217612 -0.10033595283 -0.1111796447 -0.12265716758 -0.13448041646 -0.14747456547 -0.16113119745 -0.17626664491 
-0.19226966412 -0.20950359038 -0.22748604122 -0.24959837033 -0.27431308849 -0.30033499163 -0.32721019609 -0.35491289604 -0.38317502956 
-0.40256627622 -0.41574790208 -0.41838687163 -0.41338623516 -0.40065471999 -0.3821250458 -0.36010375079 -0.33537254111 -0.30979064924 
-0.28352563378 -0.26131115397 -0.24246173453 -0.22961873651 -0.22193750689 -0.21889911553 -0.21998769154 -0.22038849106 -0.22015697995 
-0.21834966513 -0.21504404513 -0.20950588695 -0.20177239954 -0.19192165507 -0.1799177678 -0.16638321793 -0.15123883325 -0.13591012324 
-0.12038091902 -0.10503003761 -0.089879769372 -0.074197199627 -0.057895224494 -0.03696265651 -0.010456226762 0.044545461666 0.13503181185 
1.0062042127 2.8832605635 3.2205763332 1.5049046614 0.42147921473 0.21055355889 0.074174108772 0.044289238254 0.023297333456 
0.01545960712 0.0098673400772 0.0077149255707 0.0063578971099 0.0062631117218 0.0065034597647 0.0072949161166 0.008288048087 0.0096249453163 
0.011124869354 0.012912933797 0.014806143946 0.016892121221 0.018967513136 0.021022767049 0.023063883588 0.025077078812 0.027105518664 
0.029165229549 0.03140276399 0.034019343378 0.036622436474 0.039195641032 0.04190256648 0.04491779287 0.047755330678 0.050166415889 
0.052683972347 0.055467706923 0.05809141747 0.060298095702 0.062825243436 0.06622366763 0.069698399517 0.073389746796 0.0778083152 
0.084384306278 0.091625448675 0.10093085379 0.11235137295 0.13064601277 0.15213383728 0.18450214298 0.22423501912 0.29031039722 
0.36710271423 0.48419072151 0.60706754898 0.75285845638 0.86336862773 0.82662007472 0.76835938737 0.61524974404 0.47113507038 
0.36899692188 0.27462361868 0.2186862997 0.16676042704 0.13594742971 0.10701067232 0.088601705707 0.071183910412 0.059713143042 
0.048753181126 0.041081529325 0.033713063476 0.02844668689 0.023366255799 0.019680415912 0.016051114904 0.012882823211 0.0097683502073 
0.0071337605269 0.00451382825 0.0020378050253 -0.00048267158107 -0.0034876900478 -0.0065790233373 -0.010725315573 -0.014944593034 -0.020176540485 
-0.025452290749 -0.031428886018 -0.037452812694 -0.044368147541 -0.051341005469 -0.059625389663 -0.067965048797 -0.077893862456 -0.087829977682 
-0.098048420146 -0.10719056237 -0.053369140759 0 0 0 
FrenetTangent 3 240 double
-0.84130288937 -0.5214796821 0.14236709414 -0.84130288937 -0.5214796821 0.14236709414 -0.84130288937 -0.5214796821 0.14236709414 
-0.81448852999 -0.55310066731 0.16807135991 -0.78744693028 -0.58498962697 0.19399345843 -0.76144343851 -0.60917851698 0.21745889508 
-0.73545769218 -0.63323578185 0.24088233751 -0.71171780571 -0.65069856644 0.26216201565 -0.68803600182 -0.66799080412 0.2833862516 
-0.66718411221 -0.67985295243 0.30284563014 -0.64643065441 -0.69152622806 0.32224362233 -0.62873770943 -0.69879194481 0.34014416057 
-0.61117899747 -0.70586434758 0.357979021 -0.59672236473 -0.7094001171 0.37441691521 -0.58243044416 -0.71274810079 0.39078063423 
-0.57109953975 -0.71333903238 0.40576453089 -0.55995369885 -0.71375764821 0.42066218866 -0.55151656088 -0.71210711971 0.4341450076 
-0.54327464475 -0.71030746368 0.44752585618 -0.53748334574 -0.70701269333 0.45941583946 -0.53189255178 -0.70359559545 0.47118384286 
-0.52852150961 -0.69913238903 0.48140058156 -0.5253541144 -0.69457320936 0.49147500238 -0.52423761872 -0.68932362172 0.49991045161 
-0.52333001095 -0.68400371474 0.50817896855 -0.52439720823 -0.67828754127 0.51464520639 -0.52568587898 -0.67252692669 0.52090931948 
-0.52896113139 -0.66669088949 0.52503540204 -0.53248002117 -0.66084560235 0.5288992733 -0.53805744721 -0.65548402047 0.5298798221 
-0.54390934476 -0.65018693263 0.53047592791 -0.55192101683 -0.64655224989 0.52654768507 -0.56024419484 -0.64315733712 0.52196689196 
-0.57103919475 -0.64393904135 0.5088463845 -0.58221816699 -0.64536954046 0.49439931947 -0.59645439595 -0.65807143342 0.45728516063 
-0.6112001677 -0.67265189202 0.41639315282 -0.61113361672 -0.72393253638 0.26577683038 -0.60842724585 -0.7817538079 0.09560567958 
-0.44641480704 -0.75439436617 -0.24269169951 -0.25413421532 -0.71085058892 -0.61293306197 -0.026531148636 -0.5376656416 -0.77644536421 
0.20820777157 -0.33829055892 -0.89819421993 0.31042065106 -0.25135261371 -0.91170113587 0.38423509325 -0.18850834081 -0.90201335042 
0.42195577773 -0.16513437754 -0.89078779759 0.45149024912 -0.15071244326 -0.87921347277 0.47126511625 -0.14747488543 -0.86935538872 
0.48870174487 -0.14691691779 -0.85990848735 0.50170098691 -0.15183459186 -0.85147110707 0.51357920497 -0.15813558595 -0.84328876368 
0.52278314788 -0.16813801933 -0.83557546264 0.5312758474 -0.17912487806 -0.82798690691 0.53777278031 -0.19323314018 -0.82046227905 
0.54371175696 -0.2082140527 -0.81295552351 0.54785391387 -0.22616276685 -0.80516869509 0.55146874324 -0.24498246626 -0.79729967136 
0.55320948717 -0.2670049237 -0.78872644496 0.55437358942 -0.29001284515 -0.7799365408 0.55332357697 -0.3166416723 -0.76989162074 
0.55156012755 -0.34443723573 -0.75944230667 0.54690970365 -0.37646481894 -0.74693701297 0.54128614229 -0.40991892567 -0.73373869243 
0.53157675369 -0.44857530626 -0.71711440751 0.52042803959 -0.48906430605 -0.69928324878 0.50317195721 -0.53566334432 -0.67578729373 
0.4836694865 -0.58450975306 -0.65020773543 0.45501276475 -0.6393538647 -0.61549757892 0.42284336528 -0.69649942046 -0.57728382077 
0.37781146694 -0.75659401315 -0.52533403532 0.32763456905 -0.8178682206 -0.46788983896 0.26205784821 -0.87378095638 -0.39258417958 
0.19006453447 -0.92745974561 -0.30983624393 0.10524957206 -0.96237526325 -0.21011265434 0.014873412644 -0.98915249441 -0.1030261305 
-0.078202681886 -0.98635594826 0.011201027171 -0.17249703982 -0.97021513674 0.12865017816 -0.25672606871 -0.9263136412 0.23889697656 
-0.33623309138 -0.8693886149 0.3457648935 -0.39889371706 -0.79721982114 0.43674571353 -0.4533417242 -0.71761969074 0.51998157382 
-0.4917637739 -0.63491180971 0.58717953398 -0.52207141477 -0.55063038405 0.64625703838 -0.54027262835 -0.46955519828 0.69314945945 
-0.55211020707 -0.39016534373 0.73363690081 -0.55538634008 -0.31594772945 0.76586807623 -0.55399259361 -0.24455133714 0.79359583386 
-0.54643309882 -0.1787938544 0.815838163 -0.53538508854 -0.11622680732 0.83497689444 -0.51976471419 -0.059245876751 0.85051856625 
-0.50146188627 -0.0055421345311 0.86394996306 -0.47951455734 0.043019149486 0.87512793827 -0.45535097781 0.088453262975 0.88493558952 
-0.42813316375 0.12892674945 0.89337029856 -0.39899076357 0.16627436138 0.90093986592 -0.36710900764 0.19860823584 0.90778389791 
-0.33343906117 0.22766925392 0.91415431653 -0.29702563485 0.25150870328 0.92027622336 -0.25875746158 0.27181807804 0.92623012221 
-0.21735160843 0.28629420708 0.93224716201 -0.17374937935 0.29668706413 0.93830840048 -0.1262693068 0.30000622033 0.9444169845 
-0.075979202735 0.29819950633 0.9505598769 -0.021303833206 0.28708569512 0.95607496738 0.036660485422 0.268991561 0.96111920642 
0.098682489349 0.23843968293 0.96365718155 0.16385374157 0.19821910806 0.96424999663 0.23049123598 0.1426254681 0.95865113605 
0.2983061673 0.074686791024 0.94808017228 0.36110849526 -0.0072985598794 0.92686248131 0.41974650658 -0.10095345519 0.89679981697 
0.46559040485 -0.19971544782 0.85551895008 0.50043936221 -0.30286635221 0.80459744037 0.52016175007 -0.39961569236 0.7485597838 
0.52643829838 -0.49067475318 0.68797444112 0.52189064232 -0.57008053089 0.62956574315 0.5073917016 -0.6387728064 0.57315815401 
0.48761126705 -0.69695837076 0.52212505119 0.46280908425 -0.74515394746 0.47620211569 0.43623921489 -0.78582171969 0.43564755829 
0.4079311204 -0.81908715084 0.40037190601 0.37949287163 -0.84736545369 0.36933024551 0.35092226257 -0.87057210065 0.34259433936 
0.32301042709 -0.89041802076 0.31901273112 0.29579143968 -0.90672938333 0.29874857411 0.26971945424 -0.92068807436 0.2808295124 
0.24489508499 -0.93208771913 0.26546125609 0.22151255909 -0.94181789873 0.25184477901 0.19975210698 -0.94966992998 0.24019905354 
0.17965823057 -0.9563253669 0.22990203469 0.16150364225 -0.96158840315 0.22117441988 0.14523669014 -0.96598956989 0.21353216799 
0.13124189273 -0.9693533011 0.20719637143 0.11934924259 -0.97209800856 0.20175629903 0.11007436077 -0.97407185624 0.1974316567 
0.103172044 -0.9755789167 0.19387117766 0.099326686055 -0.97648453979 0.19129529363 0.098180889964 -0.97697781767 0.18939403067 
0.10063450968 -0.97692130197 0.18839226244 0.10611927692 -0.97638798488 0.18799403457 0.11578702775 -0.97519668187 0.18842869237 
0.12878564167 -0.97330813981 0.1893958617 0.14654263144 -0.97042354196 0.19112376176 0.16776288731 -0.96644829181 0.1932841009 
0.19410589097 -0.96085978514 0.19608408951 0.22373371586 -0.95364648507 0.19916875812 0.25839360734 -0.94394413981 0.20268953226 
0.29567492927 -0.93208661355 0.20629844812 0.33711634737 -0.91680890877 0.21004724106 0.37999103445 -0.89910655302 0.21367201546 
0.42522265274 -0.87741699343 0.21709284825 0.4704926951 -0.85347406571 0.22023026554 0.51582823301 -0.82569016958 0.22288458823 
0.56001463157 -0.79623194551 0.2251965489 0.60216999314 -0.76381444415 0.22690340464 0.64248087789 -0.73046519377 0.22830589427 
0.67941022182 -0.69540773688 0.22915037937 0.71431999919 -0.66004062638 0.22977994393 0.74538767435 -0.62408441877 0.23000063524 
0.77460235945 -0.58818291742 0.23009733341 0.80015738919 -0.55238946092 0.22994914514 0.82415827105 -0.51677421065 0.229748793 
0.84497115726 -0.4815245116 0.22944143803 0.86448252333 -0.44651217334 0.22913638506 0.88121959644 -0.41200578835 0.22883623895 
0.89687713989 -0.37770879602 0.22858354711 0.91014221222 -0.34387586308 0.22843602417 0.92249283796 -0.31020447397 0.2283720181 
0.93273515629 -0.27690553316 0.2285005648 0.94217353636 -0.24374870741 0.22874454713 0.94968246461 -0.21093295784 0.22926557501 
0.95646791614 -0.17826258399 0.22992426177 0.96144467586 -0.14595564944 0.23092709576 0.96576075639 -0.11382445845 0.23208653722 
0.96835506689 -0.082151265806 0.23365410721 0.97034781847 -0.050728403828 0.23538770118 0.97070508171 -0.019986128346 0.23757267287 
0.97052866376 0.010405540292 0.23993196688 0.96883727987 0.039801937891 0.24278611135 0.96669684092 0.068734299715 0.24581636699 
0.96322420529 0.096290022069 0.24936908579 0.95940653428 0.12325043539 0.25309891716 0.95451806387 0.1483633379 0.25737840819 
0.94940666672 0.17275581383 0.26182983679 0.94357075769 0.19480690335 0.26684006249 0.93764946418 0.21600244734 0.27201551509 
0.93143723099 0.2342827992 0.27775396303 0.92527253213 0.2516151572 0.28364466142 0.91927785995 0.2655566141 0.29007994798 
0.91343423818 0.27851385429 0.2966579118 0.908158566 0.28777043966 0.30377234213 0.90309463675 0.29606659785 0.31101278799 
0.89886885656 0.30056106509 0.31875204537 0.8948755251 0.30414931686 0.32659419034 0.89185241444 0.30395510406 0.33486577919 
0.88903854741 0.30293551531 0.34322893431 0.88714725458 0.29827676897 0.35199581342 0.88542230189 0.29287581765 0.3608300838 
0.88447360316 0.28401124305 0.36997884677 0.8836343686 0.27448031701 0.37917340224 0.88333698169 0.26165095138 0.38859463063 
0.88308517329 0.24821127465 0.3980484213 0.88307325182 0.23155943427 0.40767359235 0.88304158717 0.21434283192 0.41731447566 
0.88289914131 0.19395728734 0.42704352218 0.8826718108 0.1730550953 0.43676512332 0.88193517243 0.14905301843 0.44644205226 
0.88105001992 0.12456934714 0.45609014103 0.87920880771 0.096985411736 0.46555257126 0.87715424908 0.068933647355 0.47496700881 
0.87362048869 0.037638268722 0.48404869714 0.86981081341 0.0059137046745 0.4930508695 0.86393177652 -0.029029749983 0.50145667198 
0.85771393596 -0.064371143497 0.50975112218 0.84873354245 -0.10295726923 0.517137623 0.83935358543 -0.14189509631 0.52437756446 
0.82641085369 -0.18396892709 0.53031068487 0.81302287225 -0.22631226884 0.53605922327 0.79526334836 -0.27130171833 0.53999550197 
0.77702853083 -0.31646827918 0.54371575866 0.7536130126 -0.36356535388 0.54508137534 0.72973036495 -0.41071020806 0.54621359112 
0.70013835778 -0.45843903373 0.54449312913 0.67014425813 -0.50606181644 0.54255113172 0.63457112519 -0.55221325323 0.53753533032 
0.59871150629 -0.59812731194 0.53234378752 0.55826811191 -0.64024332142 0.52434038253 0.51767292756 -0.68205452164 0.51622796446 
0.47421903186 -0.71812514745 0.50606246649 0.43073079208 -0.75389465644 0.49585541551 0.38645950727 -0.78279870199 0.48470095566 
0.34223018416 -0.81145668923 0.47355558144 0.29920725967 -0.83304050004 0.46267141918 0.25625130763 -0.85445689348 0.45182017142 
0.21588495711 -0.86939981532 0.4422416175 0.17558005825 -0.88424830179 0.43269695152 0.13887008165 -0.89357231928 0.42513473013 
0.10246859224 -0.90281798368 0.41763605681 0.10246859224 -0.90281798368 0.41763605681 0.10246859224 -0.90281798368 0.41763605681 

FrenetNormal 3 240 double
0.51247814678 -0.68564504798 0.51696906798 0.51247814678 -0.68564504798 0.51696906798 0.51247814678 -0.68564504798 0.51696906798 
0.54813160615 -0.64693347593 0.52733152482 0.58408721347 -0.6078938397 0.53778179909 0.61015822487 -0.56544525038 0.55250380024 
0.63606026882 -0.52293838835 0.56729882236 0.65201201373 -0.47652753834 0.58733630977 0.66770642332 -0.43001572311 0.60750937819 
0.67315567306 -0.37889049116 0.6324507309 0.67824856942 -0.32760479253 0.65755793698 0.67211714179 -0.27076063471 0.68614321209 
0.66549341925 -0.21367268483 0.71488103409 0.64678431385 -0.15136756253 0.74403477408 0.6274335067 -0.088785422234 0.77321059822 
0.59556770858 -0.022265907652 0.79911924402 0.56291972353 0.044499692822 0.82482369117 0.51804851232 0.11307979994 0.84360319603 
0.47229634788 0.18179068231 0.86188360594 0.41270657372 0.25181811673 0.87038939403 0.3519846315 0.32195326904 0.87809544034 
0.27421605336 0.39266830476 0.87134546641 0.19488356367 0.4634365408 0.8632692521 0.093210399275 0.5321520378 0.83155176789 
-0.010738204208 0.60065845952 0.79742637656 -0.1416050264 0.65705731585 0.72172110493 -0.27549071424 0.71209831437 0.64135266915 
-0.42466936826 0.72670995324 0.49495001242 -0.57572357475 0.73636327442 0.34044881916 -0.69109190814 0.65839209356 0.11264402527 
-0.80170212512 0.56873764575 -0.12493458204 -0.79302098576 0.38428622529 -0.35971633903 -0.76713436232 0.18616216453 -0.59409470415 
-0.65162322085 0.0099312662014 -0.71941023746 -0.52218982416 -0.16289875253 -0.82778397165 -0.38764039585 -0.25379530092 -0.87191812329 
-0.25223829561 -0.33103627093 -0.90534567784 -0.066887585896 -0.28464687725 -0.93381243818 0.1273648562 -0.21622434946 -0.96139509658 
0.362088779 0.05349624691 -0.8305603298 0.60450228313 0.36146347631 -0.66962625224 0.68845355539 0.51618015653 -0.38247503108 
0.74039225556 0.63993712984 -0.069825397065 0.77798434445 0.59991395498 0.098598312155 0.8125021595 0.52479503407 0.23611646606 
0.84458280988 0.38484761262 0.32834303506 0.87611070127 0.23019681992 0.41029728583 0.86099864136 0.031455145181 0.46121581752 
0.83471242645 -0.17784997004 0.50469870818 0.75469034434 -0.36281521014 0.50934244911 0.66109288524 -0.54163142915 0.50417419432 
0.55712416965 -0.66029330125 0.48145107404 0.45039714115 -0.76295667684 0.45405910656 0.35762734506 -0.82349293181 0.42836975094 
0.26875957092 -0.87225171222 0.40315639434 0.19472334051 -0.89917655811 0.38507236885 0.12503984577 -0.91969361887 0.36908064706 
0.064882779276 -0.92897672499 0.3599995013 0.0076569214828 -0.93480322967 0.35304468662 -0.043792844952 -0.93354069103 0.35247882806 
-0.093381426394 -0.92999390508 0.35397163313 -0.13992508245 -0.92061839765 0.36155335731 -0.18544235917 -0.90927815265 0.37118752613 
-0.22996913622 -0.89145659175 0.38716588393 -0.27414698726 -0.87135184002 0.40537912647 -0.31864744151 -0.84238926503 0.43046858957 
-0.36326655441 -0.8101686401 0.45808723725 -0.40834430171 -0.76486434444 0.49264044459 -0.45359803664 -0.71453957047 0.52985458761 
-0.49708746068 -0.64547916933 0.57213358935 -0.53987116036 -0.56892451732 0.61643853456 -0.57522106127 -0.46899602091 0.65988071815 
-0.60747354603 -0.35932842267 0.70296341773 -0.62404721461 -0.22863768604 0.73462769923 -0.63382043279 -0.088828479744 0.76133941385 
-0.62202863093 0.058031135678 0.76734296959 -0.60050627125 0.20807203327 0.76400259997 -0.55899559977 0.34596809227 0.74076767362 
-0.50810769559 0.47816657268 0.70819949844 -0.44535711111 0.58709049796 0.66490230762 -0.37682346998 0.68466807762 0.61637472166 
-0.30426641742 0.75910455018 0.56599841203 -0.22967219451 0.82182400648 0.51468603978 -0.15497718243 0.86641807296 0.46614424144 
-0.08022919143 0.90148469094 0.4190587704 -0.0059693662321 0.92295375863 0.37643166025 0.068024186709 0.93700598072 0.33623638333 
0.14166987457 0.94006557597 0.30091666482 0.21511874402 0.93690565866 0.26835548595 0.2882255967 0.92391179722 0.24050771676 
0.36113179954 0.90514868856 0.21542514791 0.43401335119 0.87623443362 0.19474803688 0.50687991226 0.84114718432 0.17674992047 
0.57905553582 0.79445691008 0.16286205367 0.65079577409 0.74045514066 0.15156420718 0.71976352575 0.67256320024 0.14393560441 
0.78692145977 0.59560406486 0.1387022024 0.84677058696 0.5030176786 0.13582916964 0.90167854898 0.39986639033 0.13455187945 
0.94234187331 0.28393470805 0.13248649376 0.97303395127 0.15905674998 0.12986944121 0.9846500909 0.029746750779 0.1221479468 
0.98244308681 -0.10277487243 0.11072758146 0.96171788514 -0.22996200895 0.090407269068 0.92710403527 -0.35314828046 0.063411996379 
0.87727698359 -0.46499512544 0.025133536533 0.8156426708 -0.56804122148 -0.021902023793 0.74092408213 -0.65597439462 -0.080624077963 
0.65569842343 -0.73177143271 -0.14873074083 0.55924906634 -0.78832438333 -0.22413225 0.45347540599 -0.82888993822 -0.30559409303 
0.34123697585 -0.84894010273 -0.38388027567 0.22344288419 -0.85135985362 -0.45943737516 0.10684558059 -0.83858213234 -0.5218744558 
-0.0086879114006 -0.81229554689 -0.57264929746 -0.11711398025 -0.77893662153 -0.60819847043 -0.21900580525 -0.73907570624 -0.62974985121 