# vtk DataFile Version 5.1
vtk output
ASCII
DATASET POLYDATA
POINTS 240 float
0 0 0 -0.198018 -0.276193 -0.204611 -0.396035 -0.552386 -0.409223 
-0.577741 -0.851178 -0.554317 -0.759308 -1.15016 -0.698907 -0.933702 -1.46217 -0.793784 
-1.10797 -1.77441 -0.887811 -1.28387 -2.09032 -0.941975 -1.45981 -2.40632 -0.995109 
-1.64542 -2.71705 -1.01863 -1.83137 -3.02759 -1.04111 -2.03358 -3.3246 -1.04503 
-2.23651 -3.621 -1.04814 -2.46002 -3.89675 -1.04474 -2.68462 -4.1714 -1.04098 
-2.93115 -4.41986 -1.04341 -3.17905 -4.66668 -1.04623 -3.44711 -4.88374 -1.06763 
-3.71662 -5.09866 -1.09038 -4.00165 -5.28247 -1.1425 -4.28794 -5.46375 -1.19702 
-4.583 -5.61498 -1.28891 -4.87888 -5.76347 -1.38422 -5.17563 -5.88532 -1.52124 
-5.47247 -6.00446 -1.6625 -5.76225 -6.10244 -1.84595 -6.05123 -6.19805 -2.03413 
-6.32608 -6.27944 -2.2613 -6.59919 -6.35908 -2.49325 -6.8526 -6.43209 -2.75806 
-7.10339 -6.50422 -3.02725 -7.33059 -6.57711 -3.32123 -7.55438 -6.65012 -3.61878 
-7.75214 -6.73031 -3.93236 -7.94587 -6.81161 -4.24844 -8.11216 -6.9049 -4.57233 
-8.27387 -7.0002 -4.89752 -8.40732 -7.11032 -5.22373 -8.53574 -7.22309 -5.55013 
-8.63538 -7.35145 -5.8728 -8.72956 -7.48277 -6.19476 -8.79467 -7.6285 -6.51038 
-8.85389 -7.77715 -6.82471 -8.88382 -7.93753 -7.13194 -8.90747 -8.10043 -7.43766 
-8.90174 -8.27166 -7.73679 -8.88934 -8.44478 -8.03443 -8.84754 -8.623 -8.32651 
-8.79869 -8.80244 -8.61726 -8.72056 -8.98472 -8.90328 -8.63502 -9.16772 -9.1881 
-8.52057 -9.35259 -9.46827 -8.39844 -9.53797 -9.74721 -8.24818 -9.72546 -10.0206 
-8.09006 -9.91354 -10.2924 -7.90521 -10.1046 -10.5567 -7.71251 -10.2965 -10.8188 
-7.49534 -10.4921 -11.0701 -7.27065 -10.6889 -11.318 -7.02482 -10.8897 -11.5506 
-6.77219 -11.0918 -11.7783 -6.50306 -11.2973 -11.9845 -6.22839 -11.5039 -12.1836 
-5.94329 -11.712 -12.3542 -5.65452 -11.9207 -12.5148 -5.36272 -12.1281 -12.6395 
-5.06981 -12.335 -12.751 -4.78215 -12.5365 -12.8196 -4.49649 -12.7359 -12.8719 
-4.22458 -12.9249 -12.8762 -3.95816 -13.1097 -12.8614 -3.71323 -13.279 -12.7966 
-3.47725 -13.4418 -12.7108 -3.26883 -13.5845 -12.5763 -3.07237 -13.7184 -12.4206 
-2.90708 -13.8292 -12.2208 -2.75587 -13.9295 -12.0011 -2.63681 -14.0058 -11.7447 
-2.53283 -14.0709 -11.4712 -2.45954 -14.1139 -11.1701 -2.4012 -14.1462 -10.8556 
-2.37035 -14.1605 -10.5233 -2.3534 -14.1657 -10.1818 -2.35982 -14.1587 -9.83134 
-2.37851 -14.1452 -9.47608 -2.41626 -14.1257 -9.11908 -2.46441 -14.1029 -8.76113 
-2.52772 -14.0803 -8.40683 -2.5996 -14.0577 -8.0546 -2.6835 -14.041 -7.70953 
-2.77446 -14.0278 -7.36867 -2.87539 -14.0254 -7.03694 -2.98239 -14.0297 -6.71075 
-3.0985 -14.0488 -6.39459 -3.22034 -14.0772 -6.08475 -3.35141 -14.1232 -5.78523 
-3.4885 -14.1805 -5.49246 -3.63534 -14.2565 -5.21 -3.78877 -14.345 -4.93451 
-3.95202 -14.4518 -4.66907 -4.12216 -14.5714 -4.41065 -4.30106 -14.7078 -4.16164 
-4.4863 -14.8565 -3.91945 -4.67774 -15.0202 -3.68551 -4.87384 -15.1952 -3.45778 
-5.07233 -15.383 -3.2366 -5.2727 -15.5808 -3.02051 -5.47111 -15.7894 -2.8089 
-5.66797 -16.0068 -2.60086 -5.85882 -16.2332 -2.39503 -6.04467 -16.4671 -2.19103 
-6.22142 -16.7085 -1.98714 -6.39034 -16.9563 -1.78333 -6.54827 -17.2103 -1.57796 
-6.69645 -17.4699 -1.3712 -6.83277 -17.7345 -1.16181 -6.9582 -18.0039 -0.949986 
-7.07144 -18.2774 -0.735128 -7.17308 -18.555 -0.51738 -7.2621 -18.836 -0.296857 
-7.33872 -19.1203 -0.0736054 -7.40194 -19.4073 0.151518 -7.45153 -19.6971 0.378545 
-7.48647 -19.9887 0.606037 -7.50602 -20.2822 0.834017 -7.50944 -20.5765 1.06077 
-7.49531 -20.8715 1.28617 -7.46363 -21.1656 1.50864 -7.41219 -21.4587 1.7278 
-7.34216 -21.7488 1.94251 -7.25049 -22.0355 2.15202 -7.13981 -22.3167 2.35591 
-7.00627 -22.5914 2.553 -6.85403 -22.8582 2.74361 -6.67853 -23.1151 2.92615 
-6.48539 -23.362 3.10172 -6.26952 -23.596 3.26829 -6.03767 -23.8186 3.4277 
-5.78451 -24.0259 3.57758 -5.51752 -24.2211 3.72049 -5.23142 -24.3998 3.85379 
-4.93392 -24.5669 3.9807 -4.6201 -24.7174 4.09848 -4.29741 -24.8574 4.2108 
-3.96159 -24.9818 4.31504 -3.61934 -25.0972 4.41498 -3.26723 -25.1986 4.50834 
-2.91091 -25.2925 4.59858 -2.54788 -25.3741 4.68387 -2.18246 -25.4491 4.76701 
-1.8131 -25.5129 4.8466 -1.44277 -25.5703 4.9246 -1.07076 -25.6166 4.99987 
-0.698784 -25.6559 5.07364 -0.32686 -25.6829 5.14476 0.044348 -25.7019 5.21409 
0.414243 -25.7065 5.28017 0.782954 -25.7021 5.34404 1.14941 -25.6809 5.40373 
1.51433 -25.65 5.46097 1.8762 -25.6004 5.51338 2.23619 -25.5415 5.56358 
2.59231 -25.4635 5.60927 2.94618 -25.3774 5.65373 3.29524 -25.2742 5.69555 
3.64162 -25.1651 5.73784 3.98209 -25.0432 5.78118 4.31946 -24.9184 5.82721 
4.64969 -24.7869 5.87947 4.97646 -24.6557 5.93676 5.29493 -24.5249 6.00611 
5.60972 -24.397 6.08243 5.91532 -24.2761 6.17614 6.21729 -24.1597 6.27795 
6.50979 -24.055 6.40087 6.79902 -23.9554 6.53203 7.07935 -23.8692 6.68562 
7.35713 -23.7872 6.84667 7.62768 -23.7174 7.02889 7.8967 -23.6503 7.21706 
8.16118 -23.5914 7.42286 8.42532 -23.5335 7.63269 8.68839 -23.4787 7.85499 
8.95226 -23.4236 8.07927 9.21871 -23.3675 8.31003 9.48685 -23.3106 8.5409 
9.76079 -23.2511 8.77215 10.0369 -23.1916 9.00197 10.321 -23.1317 9.22667 
10.6074 -23.0732 9.44883 10.9025 -23.0202 9.66145 11.1994 -22.9708 9.87089 
11.5039 -22.9356 10.0677 11.8095 -22.9062 10.2612 12.12 -22.9008 10.4405 
12.4307 -22.903 10.6167 12.742 -22.9387 10.7787 13.0524 -22.983 10.9379 
13.3584 -23.0678 11.0841 13.6624 -23.1616 11.2282 13.9563 -23.2996 11.3613 
14.2472 -23.4462 11.4928 14.5222 -23.6373 11.6159 14.7935 -23.8358 11.738 
15.0435 -24.0757 11.8543 15.2891 -24.3215 11.9699 15.5084 -24.6031 12.0818 
15.723 -24.8891 12.1934 15.9069 -25.2035 12.3028 16.0859 -25.5208 12.4119 
16.2303 -25.8581 12.5196 16.3697 -26.197 12.6271 16.4712 -26.5479 12.7331 
16.5677 -26.8993 12.8389 16.623 -27.2554 12.9428 16.6734 -27.6112 13.0464 
16.6803 -27.9658 13.1471 16.6826 -28.3198 13.2475 16.6403 -28.6682 13.3443 
16.5941 -29.0158 13.4408 16.5048 -29.3556 13.5334 16.4125 -29.6946 13.6257 
16.2821 -30.025 13.7147 16.1497 -30.3549 13.8036 15.9887 -30.6767 13.8906 
15.8267 -30.9981 13.9777 15.6497 -31.3131 14.0657 15.4728 -31.6277 14.1539 
15.2982 -31.9381 14.2468 15.1247 -32.2484 14.3402 14.9738 -32.5565 14.443 
14.8245 -32.8648 14.5463 14.7205 -33.1733 14.6646 14.6183 -33.482 14.7834 
14.5852 -33.7935 14.923 14.5536 -34.105 15.0631 14.6157 -34.4218 15.2302 
14.6787 -34.7386 15.3975 14.8602 -35.063 15.5981 15.0418 -35.3875 15.7987 

LINES 2 240
OFFSETS vtktypeint64
0 240 
CONNECTIVITY vtktypeint64
0 1 2 3 4 5 6 7 8 
9 10 11 12 13 14 15 16 17 
18 19 20 21 22 23 24 25 26 
27 28 29 30 31 32 33 34 35 
36 37 38 39 40 41 42 43 44 
45 46 47 48 49 50 51 52 53 
54 55 56 57 58 59 60 61 62 
63 64 65 66 67 68 69 70 71 
72 73 74 75 76 77 78 79 80 
81 82 83 84 85 86 87 88 89 
90 91 92 93 94 95 96 97 98 
99 100 101 102 103 104 105 106 107 
108 109 110 111 112 113 114 115 116 
117 118 119 120 121 122 123 124 125 
126 127 128 129 130 131 132 133 134 
135 136 137 138 139 140 141 142 143 
144 145 146 147 148 149 150 151 152 
153 154 155 156 157 158 159 160 161 
162 163 164 165 166 167 168 169 170 
171 172 173 174 175 176 177 178 179 
180 181 182 183 184 185 186 187 188 
189 190 191 192 193 194 195 196 197 
198 199 200 201 202 203 204 205 206 
207 208 209 210 211 212 213 214 215 
216 217 218 219 220 221 222 223 224 
225 226 227 228 229 230 231 232 233 
234 235 236 237 238 239 
CELL_DATA 1
FIELD FieldData 3
Length 1 1 double
85.907073718 
Tortuosity 1 1 double
1.0665253462 
ClusterLabel 1 1 int
2 
POINT_DATA 240
FIELD FieldData 6
Curvature 1 240 double
0 0.10592092077 0.21184184154 0.19955760254 0.1862716249 0.16893697633 0.15153311972 0.13724559222 0.12303865944 
0.11735827398 0.11197446408 0.11659945286 0.12166342403 0.13378017078 0.14627140118 0.16177053362 0.17745765994 0.19200551489 
0.20647126019 0.21574417958 0.2245922314 0.22552933969 0.22574067334 0.21853561866 0.2105751911 0.19828352303 0.18550610835 
0.17225691172 0.15894985503 0.14823176874 0.13785887851 0.13184131887 0.12645193191 0.12568428346 0.12563457498 0.12892180622 
0.13276519409 0.1379226433 0.14331428166 0.1480303227 0.15261800024 0.15555534542 0.15815929012 0.15903467247 0.15953964861 
0.15897388271 0.1581652681 0.15630807725 0.15419966502 0.15070375268 0.146857314 0.14181915995 0.13646406031 0.13081851456 
0.12509176882 0.12027580438 0.11572713446 0.11325762919 0.11142786689 0.11266392857 0.11488786685 0.12093315108 0.12826652945 
0.1410714631 0.15580387646 0.17804263195 0.20304234087 0.23811024521 0.27704152686 0.32659905107 0.38040707229 0.4334093029 
0.48607578741 0.51405675863 0.53133076022 0.51217736305 0.47658721276 0.42449795355 0.36466837162 0.30958647795 0.25681908231 
0.21451300007 0.17750378537 0.14946768835 0.12614823009 0.10992689589 0.09757726571 0.092164023859 0.090675317508 0.095644679062 
0.10440277379 0.11665317289 0.1310272706 0.14551843027 0.16008335502 0.17073651995 0.17883617499 0.18122923379 0.17976431202 
0.17324417805 0.16318539554 0.15053564773 0.13600838884 0.12161480605 0.10732148033 0.095627814197 0.085951794318 0.080444090255 
0.078283670105 0.07890162291 0.081827762478 0.085221947381 0.089018358745 0.091863862883 0.093864116155 0.095098233993 0.095628001513 
0.096160897558 0.096696768266 0.097937857454 0.09987241148 0.10292501473 0.10711461718 0.11234127099 0.11865861674 0.12566437785 
0.13341894163 0.14137625292 0.14956165515 0.15751258899 0.16519068686 0.17225383809 0.17857677575 0.1837038297 0.18734166995 
0.18926972037 0.18899477237 0.1866014044 0.18138347646 0.17415355203 0.16414707245 0.15291621229 0.13993623703 0.12674681159 
0.11324757445 0.10052946832 0.089007988425 0.079066634456 0.071632871631 0.066101538472 0.063698645206 0.063105052261 0.065595493951 
0.06938002331 0.075451777385 0.082086945734 0.089755040253 0.096896596438 0.10303644555 0.10745112645 0.10845860011 0.10735226833 
0.10190992539 0.094746429456 0.083914160066 0.073921124802 0.065788013817 0.062443817689 0.07014073081 0.081364411309 0.10105233351 
0.12054754719 0.13956098956 0.15563992463 0.16407135586 0.16821000866 0.16067767012 0.14969723574 0.12892865835 0.10696963264 
0.081478943595 0.056709694035 0.034179394606 0.017238058907 0.018460855329 0.022065801078 0.033787700088 0.045387986125 0.056553271912 
0.068412632303 0.082881713205 0.098244060841 0.11714225597 0.13643629969 0.15738258102 0.1777551242 0.19559800377 0.21196926362 
0.22147296481 0.22922716182 0.22832131321 0.22613715385 0.2172250432 0.20798980986 0.19694149921 0.1861080307 0.17656361504 
0.16753206672 0.16180210194 0.1566617825 0.15560967078 0.15511026554 0.15875615885 0.16266780385 0.16874634718 0.17471470946 
0.17970062418 0.1840946948 0.18267793241 0.18041807943 0.16896853891 0.15680940393 0.13597744768 0.1147511901 0.088054001494 
0.061733152341 0.0414337344 0.023864871665 0.057721465284 0.092309740909 0.14358036627 0.19514244869 0.25508392175 0.31453768346 
0.35513327285 0.3947620837 0.37783435028 0.359538202 0.179769101 0 
Torsion 1 240 double
0 0 0 0.11926906013 0.239548875 0.31606774608 0.39183856684 0.49366107315 0.59615732995 
0.6573543812 0.71711493834 0.67925292686 0.63710922377 0.56512349494 0.49155323378 0.43399771052 0.37744310838 0.33964406379 
0.3031967711 0.2811486188 0.26027857799 0.25071464702 0.24218797384 0.24285343821 0.24445513881 0.25393780334 0.2643043143 
0.28078422239 0.29801388673 0.31430042886 0.33046122136 0.33005085139 0.3272504099 0.29812287014 0.26490568404 0.21602803989 
0.1645403194 0.11258430019 0.060544821801 0.014403176082 -0.030617881431 -0.066636959888 -0.10083745672 -0.12108775282 -0.13834872018 
-0.1364840684 -0.13028164733 -0.10736931414 -0.080453564516 -0.046233742452 -0.010168681035 0.024239915902 0.058207963775 0.085107945609 
0.11003190898 0.12787201861 0.14363317116 0.15129270481 0.15645943265 0.15159149254 0.14349015941 0.13139043267 0.1179429328 
0.10135951202 0.083671391842 0.065655788371 0.047519731278 0.032645078776 0.019021895478 0.0086164201607 -0.00050197196385 -0.0061751747028 
-0.010412881864 -0.011324258362 -0.010792889028 -0.0062662644577 6.3097232438e-05 0.012208188731 0.0270816473 0.05044699952 0.077952149895 
0.11880938175 0.16642716118 0.23164707225 0.30611938585 0.39110770669 0.48183203146 0.52309289096 0.53636784246 0.48061502327 
0.38436591193 0.29041911401 0.19787237156 0.1279933998 0.072398228744 0.035367039148 0.010454004113 0.00073946406903 0.0012999628919 
0.016418821085 0.041728530838 0.084336497437 0.13947943277 0.21468515418 0.30493796516 0.39788582976 0.49292537776 0.53291195383 
0.52868932517 0.4812215361 0.39782699837 0.32157774036 0.25146895711 0.19454023762 0.14932713035 0.1099699509 0.075996447029 
0.044531481452 0.015451683437 -0.0095983748879 -0.030685855851 -0.043460716637 -0.047782065378 -0.045483504762 -0.036222625686 -0.02433320943 
-0.0095846825595 0.0049089152349 0.019115717818 0.031135395596 0.040610055418 0.047143808962 0.050137582726 0.051019322732 0.049270982964 
0.046660058008 0.042937725214 0.039239916401 0.03557480623 0.033041840667 0.032071234661 0.033342469748 0.037816334967 0.044887132567 
0.055799225981 0.069670979483 0.088076680353 0.10514666995 0.12009694382 0.12453731368 0.11169473028 0.091198104443 0.057654815383 
0.028272074359 0.0062428600967 -0.0085532309282 -0.010088596019 -0.0066863739174 0.0061093067431 0.024093888003 0.052326547948 0.090983704032 
0.15102444194 0.24062367888 0.3932291901 0.58276740976 0.85415649678 0.99773484149 0.84663841921 0.67569975379 0.45713970485 
0.27517986554 0.1847205503 0.10747136748 0.064648590372 0.02507873625 -0.0056472335155 -0.037488772035 -0.072497086373 -0.11568176863 
-0.18312300906 -0.37868263995 -0.97185106883 -1.3755446527 -1.1634449902 -0.94765417235 -0.71928608423 -0.53626332684 -0.51543732943 
-0.4886770039 -0.43960360463 -0.38958366981 -0.33581703176 -0.28482904843 -0.24543892828 -0.20922083605 -0.18698850327 -0.1666337751 
-0.15504120174 -0.14449018784 -0.13909489326 -0.13424540192 -0.13226855927 -0.13020080555 -0.12762293969 -0.12469661885 -0.11967956814 
-0.1140981589 -0.10488369158 -0.095273596611 -0.082920483223 -0.070271485635 -0.055403356551 -0.041076021732 -0.031158240152 -0.021685879594 
-0.016185189811 -0.011233644652 -0.011673701264 -0.012781606013 -0.02116905545 -0.031012205515 -0.058647252148 -0.095482049144 -0.25996338244 
-0.52577364842 -2.4128468372 -4.1070034259 -2.1678973798 -0.30546983035 -0.19131200298 -0.080164937808 -0.055577285533 -0.031417176208 
-0.023788727631 -0.016152182931 -0.0080420151303 0 0 0 
FrenetTangent 3 240 double
-0.49133137254 -0.74450434057 -0.4520030633 -0.49133137254 -0.74450434057 -0.4520030633 -0.49133137254 -0.74450434057 -0.4520030633 
-0.48412016889 -0.7812170302 -0.38667247921 -0.47684785334 -0.81824084433 -0.3207882461 -0.47687190825 -0.83690931111 -0.26131172946 
-0.47702068744 -0.85526401128 -0.20194474643 -0.48693481563 -0.85840572771 -0.15361055243 -0.49710149596 -0.8611540049 -0.10556168919 
-0.51750373334 -0.85173153944 -0.071004320323 -0.5382619901 -0.84188574381 -0.036916220831 -0.56783899058 -0.8219355112 -0.018127623514 
-0.59780277806 -0.80154210154 -1.0056994282e-05 -0.63342209053 -0.77239654044 0.0011063875569 -0.66934169636 -0.74278626334 0.0013201176672 
-0.70620257335 -0.70558211835 -0.016551949999 -0.74312227978 -0.66790335661 -0.035554380026 -0.77510736712 -0.62421841268 -0.07196951984 
-0.80673680623 -0.58010059076 -0.10963962973 -0.82751601626 -0.5326628774 -0.16129635643 -0.84740748027 -0.48495353656 -0.21409744269 
-0.85245870485 -0.43797412695 -0.2747798915 -0.85614843958 -0.39106168351 -0.33618540108 -0.84464450526 -0.34950518379 -0.39836930186 
-0.83159306762 -0.30849419685 -0.46063248322 -0.80647772852 -0.27656938534 -0.51792058659 -0.7800094285 -0.24566358415 -0.57465073729 
-0.74615049118 -0.22570385561 -0.62330355527 -0.71138515494 -0.20708656994 -0.67096575697 -0.67333200218 -0.19952215563 -0.70985383637 
-0.63484047389 -0.19343145751 -0.74757203278 -0.59551288682 -0.19740374149 -0.77718837813 -0.55606471435 -0.20282741713 -0.80563618728 
-0.51651971897 -0.21674676075 -0.82706777263 -0.47695968313 -0.23198581979 -0.84740945914 -0.43681700686 -0.25373868328 -0.86169660427 
-0.39657722384 -0.27657718084 -0.87497465918 -0.35474486877 -0.30344756532 -0.88291145048 -0.31262868899 -0.3310365039 -0.8898963334 
-0.26807532242 -0.35963874179 -0.89218311074 -0.22305889038 -0.38843350655 -0.89357724802 -0.17535472793 -0.41502903499 -0.89109118245 
-0.12710758965 -0.44118027327 -0.88782123752 -0.076646313063 -0.4624812926 -0.88162278281 -0.025710578261 -0.4827429793 -0.87479679029 
0.026413763395 -0.4968237976 -0.86576766198 0.078807685988 -0.50950276946 -0.85623885339 0.13106583326 -0.51629054805 -0.84466116474 
0.18329145104 -0.52166689492 -0.83259259858 0.23391334358 -0.52273685856 -0.81815415518 0.28413008448 -0.5227188938 -0.80311700595 
0.33143697772 -0.52055315992 -0.78533611068 0.37796997529 -0.51781621084 -0.76682549571 0.42075727262 -0.51488147794 -0.74545978012 
0.46249738493 -0.51189145064 -0.72329586435 0.50028145183 -0.50997357083 -0.69837662335 0.5369045054 -0.50837034302 -0.67264875429 
0.56991642954 -0.50852196023 -0.6440543658 0.60181723695 -0.50921352977 -0.61457797132 0.63077685184 -0.51190727181 -0.58156083394 
0.65878874914 -0.51524615833 -0.54740279051 0.68451208376 -0.52043023126 -0.50834486628 0.70946399276 -0.52623627714 -0.46763529684 
0.73234017408 -0.53348013221 -0.41972950771 0.75448513315 -0.54123048826 -0.36928868664 0.77385379233 -0.54933881965 -0.30834665212 
0.79220128373 -0.55757882013 -0.24354210231 0.80528495496 -0.5636422744 -0.16439932465 0.81634878821 -0.56887054234 -0.079754668872 
0.81662511432 -0.5672070725 0.021940625209 0.81258643759 -0.56278690754 0.13045617461 0.78946198176 -0.54478878005 0.25226994793 
0.75838511797 -0.52113316817 0.37962464787 0.70344095353 -0.48003693642 0.50460351025 0.63814470689 -0.43137609846 0.62855188886 
0.55695980653 -0.3713498579 0.73027114072 0.4686056356 -0.30619532591 0.82196017683 0.3801870962 -0.24207758506 0.88535656761 
0.29173835926 -0.17844624005 0.93547986552 0.21290515972 -0.12382813833 0.9652866169 0.13875953466 -0.073603992722 0.98518905185 
0.075380297613 -0.034065704023 0.99453918056 0.017452396263 6.2024215677e-05 0.99854636939 -0.032101948516 0.024471017532 0.99811096226 
-0.077254808431 0.043771445056 0.99534034444 -0.11675242495 0.05454220193 0.99104487407 -0.15316536326 0.060660411178 0.98591766596 
-0.18607187415 0.058855258256 0.98031221245 -0.2169944853 0.052567150422 0.97443617272 -0.24601715503 0.038517244619 0.96797450654 
-0.27392519245 0.019913750674 0.96116927284 -0.30109766003 -0.0060776794103 0.9527911886 -0.32782282161 -0.036561773362 0.94345664118 
-0.35443286617 -0.073193048677 0.93104089071 -0.38097037124 -0.11369789033 0.91668356024 -0.4072096592 -0.15775424083 0.89805478346 
-0.43325427765 -0.20412893737 0.87663770144 -0.45799902329 -0.25057737415 0.85116164683 -0.48186498167 -0.29707566348 0.82294149809 
-0.50303815917 -0.34088687451 0.7925386198 -0.52232639006 -0.38281713075 0.76060783084 -0.53770940028 -0.42097483219 0.72916252544 
-0.55026254043 -0.45639879828 0.69806901971 -0.55818730626 -0.48843373303 0.66974882692 -0.56264079132 -0.51792689427 0.64350861884 
-0.56223986108 -0.54497398464 0.62134289217 -0.55807132493 -0.57012263193 0.60233944959 -0.54919389476 -0.59362113385 0.58768523431 
-0.53653508002 -0.61579451902 0.57652358035 -0.5196937371 -0.63659424413 0.56922272111 -0.49937767848 -0.65625277473 0.56512929133 
-0.47579496013 -0.67441196556 0.56392415078 -0.44940495608 -0.69128266127 0.56520113378 -0.42088265531 -0.70644826272 0.56824434485 
-0.39046497967 -0.72009822482 0.57285753643 -0.35890150103 -0.73206916729 0.57821064057 -0.32628462288 -0.74249649495 0.5842439869 
-0.2929669722 -0.75157601873 0.590207606 -0.25898301322 -0.75937402408 0.59610492708 -0.22413844048 -0.76627295403 0.60131405837 
-0.18844759754 -0.77228779318 0.6058464697 -0.15134530172 -0.7777253055 0.60918236363 -0.11280763008 -0.78257570577 0.6113014602 
-0.072241869553 -0.78679112133 0.61186524501 -0.029543118996 -0.79033870814 0.61079327089 0.015570547978 -0.79276033287 0.60794837303 
0.063310966142 -0.79395722691 0.60317503178 0.11344484346 -0.7932054931 0.59655234561 0.16627136233 -0.79026155294 0.58784914641 
0.22099413814 -0.7844307793 0.57735645291 0.27792346748 -0.77524078123 0.56478143877 0.33582110186 -0.76240762715 0.55054777412 
0.39488428858 -0.74518919268 0.5343175857 0.45362151909 -0.72405420956 0.51659093241 0.51195284188 -0.69804201492 0.49700075682 
0.56848173971 -0.66851522198 0.47619101 0.62268828232 -0.6344600043 0.45380989255 0.67375824847 -0.59798835748 0.43071185284 
0.7206461127 -0.55829480513 0.40665791679 0.76356338171 -0.51778155186 0.38261657638 0.80100122933 -0.47613711133 0.35859261797 
0.83438772093 -0.43525929423 0.33538951142 0.86198656108 -0.39547665348 0.31335905041 0.88610981888 -0.35752351303 0.29279642984 
0.90509211111 -0.32227650845 0.27440498994 0.92148990893 -0.28918478459 0.25775962106 0.93392848129 -0.25939476735 0.2437890844 
0.94467476608 -0.23134498968 0.23144705602 0.95273546408 -0.20605689654 0.22168939949 0.95980598109 -0.18159576742 0.21312268722 
0.96524820046 -0.15849453469 0.20651441662 0.97014354077 -0.13513903587 0.20047696714 0.97410670087 -0.11135012895 0.1954125082 
0.97768668714 -0.086369530419 0.19029229602 0.98058943597 -0.059282686265 0.18507354323 0.98299693954 -0.030485472246 0.17934491839 
0.98449649351 0.0014474198565 0.17268152813 0.9851943873 0.034971670332 0.16541501817 0.98436717148 0.071523383079 0.15700110978 
0.98247278774 0.10878423032 0.14838586636 0.97847074738 0.14744561817 0.13937298625 0.97346538864 0.18546974547 0.1310319096 
0.96640194092 0.22218667162 0.12406889133 0.95881255892 0.25690490597 0.1188951794 0.95010210647 0.28736277093 0.11753551522 
0.9414964701 0.31483757695 0.11900933228 0.9331231288 0.33570127939 0.12676275643 0.92519751067 0.35310662599 0.13805619404 
0.91830414318 0.36253854107 0.15751132935 0.91166567964 0.36836147673 0.18065654488 0.90563898561 0.36552286177 0.21265795295 
0.89917755242 0.35932506114 0.2476719522 0.89162927137 0.34472929633 0.2902174294 0.88291698916 0.32771926711 0.33413713829 
0.87117124936 0.30441751848 0.38163817827 0.85821273942 0.28037396685 0.42835719785 0.84195701063 0.25431363829 0.47295009952 
0.8253495449 0.22935970938 0.51504951085 0.8077436001 0.20754652784 0.55007062705 0.79097009415 0.18794940055 0.58193755047 
0.77666615679 0.17492656752 0.60444703533 0.76397305766 0.16411565511 0.62396632494 0.75627911167 0.16016932395 0.63420569824 
0.75037546011 0.15753949836 0.64196323757 0.75029026548 0.15918831584 0.6416548165 0.75177746455 0.16079767533 0.63947264881 
0.75862244953 0.16227258531 0.63090586306 0.76664504328 0.16236856382 0.62108291579 0.77887985299 0.15753221051 0.6067667754 
0.7918082641 0.15024712206 0.59173727766 0.80734461647 0.13375478949 0.57402555626 0.82295634104 0.11412403158 0.55598145719 
0.83886641391 0.082070340062 0.53662169649 0.85402147942 0.046699308917 0.51713183314 0.86602520986 -0.0025180093595 0.49709893268 
0.8763210855 -0.054540592143 0.47701949037 0.8790868741 -0.11893184116 0.45673484079 0.87940954957 -0.18489471008 0.43651837234 
0.86833103043 -0.25819180519 0.41662008248 0.85470646657 -0.33150713883 0.39698423778 0.82847898141 -0.40491275311 0.37864749654 
0.80028087981 -0.47707884766 0.36078464824 0.76171111267 -0.5427211541 0.34541597326 0.72198336395 -0.60660254955 0.33063081704 
0.67575805188 -0.66060327784 0.31911984936 0.62898850047 -0.71291798149 0.30816246768 0.57895351295 -0.75511653725 0.30052660202 
0.52866279363 -0.79594789725 0.29332501503 0.47672580092 -0.82797793455 0.288919097 0.42453846759 -0.85897280322 0.28479320287 
0.37061543935 -0.88279050273 0.2826088078 0.31629709427 -0.90578886671 0.28055179938 0.25901387285 -0.92264221423 0.27945019085 
0.20123066347 -0.93873844872 0.2783192495 0.13937062907 -0.94866129993 0.27694913294 0.077111421309 -0.9577836362 0.27544298922 
0.011292917789 -0.95976804758 0.27272393666 -0.054552780338 -0.96095237028 0.26983105115 -0.12066548007 -0.95428127689 0.26523144212 
-0.18625674197 -0.94700306333 0.26053137518 -0.24616433137 -0.93310723982 0.254736317 -0.30509885705 -0.91899153982 0.24899960327 
-0.35214038178 -0.90218846033 0.24397598836 -0.39801727593 -0.88557077616 0.23917625639 -0.42773492068 -0.87152545196 0.23748290021 
-0.45627705494 -0.85792224159 0.23614150563 -0.46601102129 -0.85139285245 0.24043149688 -0.47457818229 -0.8453689187 0.24513762401 
-0.46117050911 -0.84886439463 0.25768097694 -0.44653054529 -0.85273813615 0.27063481822 -0.40379435476 -0.86523633323 0.29294779395 
-0.35977674489 -0.87777194316 0.31554410608 -0.2789183292 -0.8913831725 0.3462863398 -0.19706869782 -0.90456632423 0.37703229318 
-0.076892059979 -0.90119714188 0.40792207356 0.043538723518 -0.89726565336 0.43857831197 0.17883702794 -0.86043925354 0.45557234532 
0.31299837183 -0.82392231926 0.47242357166 0.31299837183 -0.82392231926 0.47242357166 0.31299837183 -0.82392231926 0.47242357166 

FrenetNormal 3 240 double
0.11749626566 -0.57087702047 0.81258479869 0.11749626566 -0.57087702047 0.81258479869 0.11749626566 -0.57087702047 0.81258479869 
0.088935283637 -0.48303548925 0.86444251543 0.060132259396 -0.39444953828 0.91673970435 -0.013362635583 -0.28850774064 0.94799142201 
-0.087621494164 -0.18226926187 0.97888338801 -0.21675902734 -0.048409360496 0.95638732112 -0.34731583657 0.086164888017 0.93251052924 
-0.49288515932 0.232547428 0.80082758532 -0.63897665644 0.37934069116 0.6653948622 -0.70979683146 0.48054098265 0.45013519939 
-0.77731563271 0.57974158241 0.23137435502 -0.75634793665 0.62050190384 0.031305090498 -0.73068184251 0.65815920165 -0.16777170076 
-0.6575661068 0.66565374534 -0.31351897851 -0.5814847685 0.67126311691 -0.45593316167 -0.48436507722 0.66517118189 -0.5518445523 
-0.38572910825 0.65823590946 -0.64440439032 -0.2776902929 0.64406653351 -0.702117248 -0.16888215375 0.62930527637 -0.7569789891 
-0.057656452591 0.60500564481 -0.78543191891 0.053791043253 0.57983093304 -0.81146202199 0.16164864755 0.54094552456 -0.81735418198 
0.26914061474 0.50066365623 -0.82119525517 0.36796777847 0.44277893041 -0.80946966815 0.46582318854 0.38292005234 -0.79599828746 
0.55044869949 0.30281616195 -0.76864765416 0.63345167564 0.22022939268 -0.73959484837 0.69748535792 0.11784702523 -0.69478219001 
0.75898980102 0.012825244692 -0.64786821798 0.79458237249 -0.099373841164 -0.58363534233 0.82643765479 -0.21260811529 -0.51690454788 
0.83424930561 -0.30918066234 -0.43998290715 0.83832602338 -0.40316497995 -0.36147822234 0.83362057628 -0.46336155203 -0.28613598953 
0.82745143505 -0.5179268332 -0.21132083204 0.82706315018 -0.53877823468 -0.14713148815 0.82770511695 -0.55362122196 -0.084835853605 
0.83877291288 -0.54082727587 -0.03401978351 0.85182161635 -0.52278231243 0.01461516934 0.87217571094 -0.48245475043 0.053072596002 
0.89400564213 -0.43762565335 0.089473956768 0.91581147469 -0.37703632152 0.11816576971 0.93761214325 -0.31306979654 0.1452055367 
0.95207916763 -0.24390586123 0.16901195493 0.96488289125 -0.17356313183 0.19208503633 0.96737499834 -0.11127711899 0.21812369098 
0.96739661397 -0.050921361151 0.24487284755 0.95879401024 -0.007584420219 0.27896855129 0.94801265635 0.031453030127 0.31492022484 
0.93061198212 0.051201987968 0.35880909967 0.91145085034 0.065821027591 0.40480893229 0.88586252416 0.06398492191 0.45580934806 
0.85847734793 0.057548453025 0.50820777634 0.82413878897 0.040087609772 0.56109652257 0.78775956334 0.019391352301 0.61412916647 
0.74361422435 -0.0083517530961 0.66461168647 0.69707931201 -0.038263119393 0.71430955297 0.64479234884 -0.06666026355 0.7580437409 
0.59065194707 -0.094569491684 0.79985629906 0.53368651216 -0.1139461534 0.83530266631 0.47576881889 -0.13044666914 0.8686031265 
0.41502678933 -0.13614786068 0.89719345379 0.35328982312 -0.13804474484 0.92412452972 0.28869102973 -0.12472924474 0.9467459966 
0.22303961025 -0.10581838491 0.96778231993 0.15051928853 -0.071522962262 0.98251597149 0.07536322524 -0.031324160864 0.99483115596 
-0.01065211834 0.023121312872 0.99419802471 -0.10101117404 0.083265455544 0.98838556718 -0.20047316228 0.15361647229 0.9591091796 
-0.30372803907 0.22822035323 0.92005615451 -0.40471373765 0.30193030345 0.85142074143 -0.50471521435 0.37525252468 0.76995441308 
-0.58757880178 0.43429977986 0.66897750688 -0.66270943917 0.48690589181 0.55919704726 -0.71764186788 0.5190294904 0.45008287835 
-0.76309859376 0.54154400866 0.34128129027 -0.79663429244 0.54512810778 0.24564004125 -0.82435849036 0.53948362758 0.15641445751 
-0.8512484556 0.51260903945 0.08209446106 -0.87771602453 0.4749850296 0.015321597407 -0.9072234877 0.40804390571 -0.039136732705 
-0.93832884398 0.32569250393 -0.087122038775 -0.96114755891 0.19928902469 -0.12411361269 -0.97944628766 0.048857139562 -0.15510860543 
-0.95897281292 -0.12761718354 -0.17432817197 -0.91656243358 -0.31882604392 -0.18688532631 -0.84360395497 -0.4759758314 -0.19552033086 
-0.75272392478 -0.61314429611 -0.20185434086 -0.67287652924 -0.7015216478 -0.21714070556 -0.59973816827 -0.76022872806 -0.23787106974 
-0.54393300012 -0.79269760533 -0.26938828475 -0.49905011785 -0.80863282044 -0.30770269342 -0.46462278958 -0.81036320839 -0.35302652361 
-0.43702061463 -0.80282100083 -0.40292594838 -0.41115537282 -0.78887511258 -0.45347791744 -0.38646439565 -0.77059997543 -0.50447104319 
-0.35675691498 -0.75310339988 -0.55036477843 -0.32353788185 -0.73615181747 -0.59268894031 -0.27789645733 -0.7274875583 -0.62493284639 
-0.22325329993 -0.72482860582 -0.64987221929 -0.14536863832 -0.73459751018 -0.65684122962 -0.050052848554 -0.75368730718 -0.65033246803 
0.075419769947 -0.77423197277 -0.61072746685 0.22429768836 -0.79590579011 -0.54543583198 0.37714904246 -0.79086654131 -0.44637966244 
0.53319118582 -0.7643758909 -0.32020954839 0.65521709173 -0.71345990647 -0.19974135081 0.74898335423 -0.64225210608 -0.084010129984 
0.81552995789 -0.57080201966 0.0054213953147 0.85868466724 -0.49914371866 0.072251619769 0.89071078792 -0.43378063446 0.12043862701 