# vtk DataFile Version 5.1
vtk output
ASCII
DATASET POLYDATA
POINTS 240 float
0 0 0 -0.262132 -0.207247 -0.0500272 -0.524264 -0.414493 -0.100054 
-0.758686 -0.636426 -0.0802602 -0.992872 -0.858484 -0.0598743 -1.20452 -1.08965 0.0129184 
-1.41579 -1.32098 0.086607 -1.60964 -1.55595 0.195472 -1.80304 -1.79101 0.305247 
-1.98413 -2.02444 0.433039 -2.1648 -2.25781 0.561458 -2.33816 -2.4846 0.690821 
-2.5112 -2.71111 0.820226 -2.68164 -2.92679 0.933967 -2.85194 -3.1419 1.04688 
-3.02347 -3.34307 1.12891 -3.19508 -3.54337 1.20901 -3.37013 -3.72831 1.2458 
-3.54543 -3.91214 1.27948 -3.72398 -4.08129 1.26176 -3.9028 -4.24924 1.23984 
-4.08196 -4.40534 1.16378 -4.26116 -4.56036 1.08274 -4.43525 -4.70811 0.950362 
-4.60881 -4.85512 0.81275 -4.77003 -5.00043 0.63154 -4.92986 -5.14555 0.445439 
-5.06949 -5.29447 0.226945 -5.20665 -5.44385 0.00447883 -5.31652 -5.60155 -0.237595 
-5.42275 -5.76036 -0.482283 -5.49636 -5.93033 -0.734088 -5.56528 -6.10191 -0.98692 
-5.59866 -6.28553 -1.23629 -5.62652 -6.47103 -1.48512 -5.61847 -6.66756 -1.72296 
-5.60443 -6.86593 -1.95897 -5.55632 -7.07271 -2.18017 -5.50214 -7.28099 -2.39873 
-5.41734 -7.49395 -2.60234 -5.32671 -7.7078 -2.80313 -5.20972 -7.92209 -2.99196 
-5.0874 -8.13647 -3.17839 -4.94305 -8.3472 -3.35789 -4.79399 -8.55715 -3.5359 
-4.62684 -8.76019 -3.71256 -4.45559 -8.96166 -3.88891 -4.26958 -9.15425 -4.06841 
-4.08003 -9.34473 -4.24867 -3.87863 -9.52595 -4.43413 -3.67423 -9.70484 -4.62091 
-3.46088 -9.87554 -4.81144 -3.24514 -10.0441 -5.00296 -3.02377 -10.2065 -5.19306 
-2.80083 -10.3672 -5.38275 -2.57642 -10.5238 -5.56256 -2.35159 -10.6793 -5.73946 
-2.13038 -10.832 -5.89606 -1.91028 -10.9839 -6.0464 -1.69975 -11.133 -6.16583 
-1.49229 -11.2813 -6.27528 -1.30069 -11.4254 -6.34499 -1.11444 -11.5682 -6.40131 
-0.950057 -11.7045 -6.41252 -0.793386 -11.8385 -6.40785 -0.663453 -11.9634 -6.3571 
-0.543354 -12.085 -6.28938 -0.452848 -12.1956 -6.17891 -0.373697 -12.302 -6.05202 
-0.324409 -12.3967 -5.88911 -0.287065 -12.4867 -5.71179 -0.277265 -12.5658 -5.50705 
-0.278941 -12.6403 -5.29088 -0.303932 -12.7056 -5.05601 -0.339036 -12.7669 -4.81303 
-0.392314 -12.8212 -4.55879 -0.453793 -12.8723 -4.29947 -0.528367 -12.9182 -4.03416 
-0.609085 -12.9616 -3.76605 -0.698446 -13.0006 -3.49481 -0.79202 -13.0375 -3.22204 
-0.890544 -13.0699 -2.94696 -0.991575 -13.1001 -2.67071 -1.09458 -13.1253 -2.39178 
-1.19863 -13.1479 -2.11143 -1.30236 -13.1652 -1.82786 -1.40591 -13.1797 -1.54254 
-1.50755 -13.1898 -1.25419 -1.60811 -13.1973 -0.964133 -1.70583 -13.2029 -0.67253 
-1.80188 -13.2074 -0.380023 -1.89477 -13.2139 -0.0887993 -1.98574 -13.2216 0.201645 
-2.0738 -13.2365 0.487029 -2.16004 -13.256 0.769225 -2.24404 -13.288 1.04239 
-2.32658 -13.3282 1.30967 -2.40771 -13.3854 1.5647 -2.48789 -13.4542 1.81146 
-2.56727 -13.5426 2.0444 -2.64609 -13.6448 2.26766 -2.72411 -13.7669 2.47776 
-2.80157 -13.9033 2.67832 -2.87739 -14.0571 2.86859 -2.952 -14.224 3.05114 
-3.0233 -14.4039 3.22795 -3.09204 -14.5941 3.40029 -3.15525 -14.7921 3.57201 
-3.21403 -14.9966 3.74322 -3.26504 -15.2044 3.91836 -3.30961 -15.4149 4.09674 
-3.34468 -15.6253 4.28201 -3.37159 -15.8355 4.47321 -3.38818 -16.044 4.67233 
-3.39559 -16.251 4.87849 -3.39293 -16.4562 5.09171 -3.381 -16.6596 5.31142 
-3.36017 -16.8621 5.53598 -3.33088 -17.0638 5.76517 -3.29445 -17.2658 5.99633 
-3.25099 -17.4683 6.22941 -3.20227 -17.6723 6.46145 -3.14818 -17.8777 6.69242 
-3.09029 -18.0854 6.91962 -3.02839 -18.2954 7.14285 -2.96343 -18.5079 7.36006 
-2.89513 -18.7229 7.57075 -2.8236 -18.9402 7.77383 -2.74843 -19.1601 7.96835 
-2.66905 -19.3818 8.15438 -2.58477 -19.6056 8.33055 -2.49486 -19.8306 8.49821 
-2.39816 -20.0569 8.65565 -2.29436 -20.2834 8.80552 -2.18172 -20.5102 8.946 
-2.06091 -20.7361 9.08077 -1.92957 -20.9607 9.2082 -1.7896 -21.1829 9.33243 
-1.63812 -21.4019 9.4524 -1.47819 -21.617 9.57187 -1.30663 -21.8269 9.69063 
-1.12729 -22.0314 9.81118 -0.936872 -22.2284 9.93429 -0.73965 -22.4189 10.0608 
-0.53237 -22.6 10.1922 -0.319308 -22.7739 10.3274 -0.0973892 -22.9368 10.4686 
0.12938 -23.092 10.6133 0.363845 -23.2352 10.7636 0.602372 -23.3706 10.9164 
0.847578 -23.4932 11.0734 1.09616 -23.6081 11.2317 1.35051 -23.7096 11.3924 
1.60759 -23.8036 11.5534 1.86949 -23.8842 11.7148 2.13341 -23.9574 11.8759 
2.40106 -24.0171 12.0363 2.66996 -24.0697 12.196 2.94124 -24.1088 12.3545 
3.21294 -24.1411 12.5125 3.48547 -24.1603 12.6697 3.7576 -24.1731 12.8268 
4.02892 -24.1732 12.9839 4.2991 -24.1677 13.1415 4.56689 -24.1502 13.3003 
4.83298 -24.1282 13.4602 5.09532 -24.0958 13.6226 5.35563 -24.0599 13.7865 
5.61122 -24.016 13.9539 5.86467 -23.97 14.1231 6.11296 -23.9189 14.2965 
6.35926 -23.867 14.4718 6.60055 -23.8131 14.6515 6.84023 -23.7593 14.8328 
7.07568 -23.7063 15.0179 7.31008 -23.6541 15.2041 7.54161 -23.6041 15.393 
7.77279 -23.5549 15.5821 8.00297 -23.5084 15.7721 8.23351 -23.4623 15.9615 
8.46515 -23.4177 16.1494 8.69781 -23.373 16.3361 8.9336 -23.3281 16.519 
9.17093 -23.2828 16.7003 9.41322 -23.2359 16.8761 9.65731 -23.1885 17.0502 
9.9075 -23.1393 17.2183 10.1595 -23.0901 17.3851 10.4179 -23.0406 17.5466 
10.6779 -22.9918 17.7072 10.9439 -22.946 17.8646 11.2109 -22.902 18.0219 
11.4825 -22.8655 18.1786 11.7546 -22.8321 18.3358 12.0288 -22.8114 18.4954 
12.3028 -22.7948 18.6559 12.5757 -22.7963 18.8209 12.8475 -22.8026 18.987 
13.1142 -22.8317 19.1584 13.3788 -22.866 19.3306 13.6335 -22.9265 19.507 
13.8853 -22.9925 19.6836 14.1215 -23.0868 19.8618 14.354 -23.1862 20.0396 
14.5648 -23.3148 20.2147 14.771 -23.4482 20.3888 14.9495 -23.6103 20.5559 
15.1228 -23.7767 20.7214 15.2631 -23.9701 20.8764 15.3981 -24.1671 21.0297 
15.4968 -24.388 21.1706 15.5905 -24.6115 21.3099 15.6475 -24.8544 21.4376 
15.7003 -25.0988 21.5642 15.7193 -25.3563 21.6823 15.7352 -25.6143 21.8001 
15.7234 -25.8778 21.9147 15.7096 -26.1412 22.0296 15.6762 -26.4023 22.1478 
15.6418 -26.6626 22.2668 15.5961 -26.9139 22.3952 15.55 -27.164 22.5247 
15.4997 -27.4006 22.6678 15.4494 -27.6361 22.8119 15.3991 -27.8567 22.971 
15.3489 -28.0766 23.1308 15.2995 -28.2838 23.3035 15.2501 -28.4907 23.4766 
15.1995 -28.6904 23.6574 15.1487 -28.8901 23.8381 15.0923 -29.0908 24.0188 
15.0356 -29.2918 24.1991 14.9672 -29.5032 24.3702 14.8985 -29.715 24.5408 
14.8116 -29.9475 24.6923 14.7242 -30.1804 24.8433 14.6118 -30.4446 24.9647 
14.4991 -30.709 25.0858 14.3542 -31.0155 25.167 14.2092 -31.322 25.2481 

LINES 2 240
OFFSETS vtktypeint64
0 240 
CONNECTIVITY vtktypeint64
0 1 2 3 4 5 6 7 8 
9 10 11 12 13 14 15 16 17 
18 19 20 21 22 23 24 25 26 
27 28 29 30 31 32 33 34 35 
36 37 38 39 40 41 42 43 44 
45 46 47 48 49 50 51 52 53 
54 55 56 57 58 59 60 61 62 
63 64 65 66 67 68 69 70 71 
72 73 74 75 76 77 78 79 80 
81 82 83 84 85 86 87 88 89 
90 91 92 93 94 95 96 97 98 
99 100 101 102 103 104 105 106 107 
108 109 110 111 112 113 114 115 116 
117 118 119 120 121 122 123 124 125 
126 127 128 129 130 131 132 133 134 
135 136 137 138 139 140 141 142 143 
144 145 146 147 148 149 150 151 152 
153 154 155 156 157 158 159 160 161 
162 163 164 165 166 167 168 169 170 
171 172 173 174 175 176 177 178 179 
180 181 182 183 184 185 186 187 188 
189 190 191 192 193 194 195 196 197 
198 199 200 201 202 203 204 205 206 
207 208 209 210 211 212 213 214 215 
216 217 218 219 220 221 222 223 224 
225 226 227 228 229 230 231 232 233 
234 235 236 237 238 239 
CELL_DATA 1
FIELD FieldData 3
Length 1 1 double
70.420118959 
Tortuosity 1 1 double
0.65047554615 
ClusterLabel 1 1 int
2 
POINT_DATA 240
FIELD FieldData 6
Curvature 1 240 double
0 0.17426517291 0.34853034581 0.31709703046 0.28392050759 0.23958412226 0.19505697006 0.15225153258 0.10949062221 
0.068741798316 0.028062960039 0.044266128387 0.062964121587 0.11802880623 0.17502446564 0.24583116795 0.31750106044 0.3844096568 
0.45097509668 0.47380080458 0.49304780714 0.45982147972 0.42178108534 0.3686735261 0.31403134822 0.27472841528 0.23714577151 
0.22000454674 0.20537028845 0.20493863385 0.20640065973 0.21372207059 0.22188858505 0.22912057177 0.23620738913 0.23716811792 
0.23710783194 0.22876150661 0.21893846139 0.20284169762 0.18555292733 0.16704715297 0.1482955192 0.13345073504 0.11944313295 
0.11060104187 0.10293050998 0.096315371049 0.089953086679 0.081200913751 0.071844979502 0.061357981197 0.050570167982 0.04938355702 
0.050881153139 0.069261008432 0.092595439787 0.1308100043 0.17360307131 0.24047170929 0.31509803124 0.43110595459 0.56106273234 
0.7275345892 0.90686971256 1.0190655753 1.1065665375 1.0454041827 0.92719660154 0.77257613246 0.60339050821 0.47331727873 
0.35954088042 0.28045076839 0.21640531065 0.17147022508 0.13515811232 0.10877650848 0.087053661896 0.07141338182 0.058738352914 
0.051556901714 0.047157008846 0.046146283641 0.046917044003 0.046244189967 0.044783909895 0.040143959108 0.033704984099 0.030463488866 
0.029097848435 0.040802864227 0.060456252048 0.087779110891 0.11993478709 0.15671787906 0.19652164522 0.2342997842 0.27070848508 
0.29355661357 0.30691234139 0.29977290894 0.27778191108 0.24380096747 0.20082756455 0.16153548587 0.12510055434 0.10722326591 
0.10424832724 0.11059667164 0.12469051275 0.13422418702 0.13983896793 0.13901030321 0.13245413128 0.12190607357 0.10768805636 
0.093373684773 0.078967697558 0.067931422716 0.060208698374 0.057251172425 0.059139610944 0.063569320702 0.070671746764 0.078650543013 
0.087582584027 0.096594361692 0.10569584309 0.11433377683 0.12243230968 0.12901450812 0.13377148922 0.13635642955 0.13623656437 
0.13483439201 0.13178001617 0.12909578031 0.12690506443 0.12611651151 0.12726294346 0.12867914166 0.13048072024 0.13161470124 
0.13176119416 0.13098620826 0.12879959523 0.12622401114 0.12303114686 0.11993049329 0.11698147508 0.11423290791 0.11182601862 
0.10969037921 0.10803415821 0.10641491807 0.10486347619 0.10318195709 0.10125297403 0.0993025528 0.097309791178 0.095157997027 
0.092679982303 0.089805284069 0.086085023616 0.082005171727 0.077128387469 0.071972390535 0.066172653268 0.06054629451 0.055336044177 
0.050286550412 0.045638948065 0.04096804821 0.036236433639 0.031088024866 0.024806456855 0.019791277148 0.018371006171 0.019577328517 
0.028575877723 0.037542427979 0.046409671155 0.053868896525 0.056752064028 0.058328128593 0.055450360926 0.052225839635 0.047761007308 
0.045108440095 0.049269989709 0.055357208404 0.069066867214 0.08322835543 0.099275740297 0.11512223437 0.13008298265 0.14472101216 
0.15785302077 0.17092145993 0.18367523032 0.1967408844 0.21144803156 0.22675514865 0.24542876363 0.26425438475 0.28399204265 
0.30265087955 0.31436480634 0.3238809416 0.31815905565 0.31009668658 0.28448069407 0.25787389869 0.22318824918 0.18900383456 
0.15928876442 0.13140197198 0.12146554236 0.11303125213 0.12097028126 0.12883408338 0.13577844426 0.14166934675 0.13294351408 
0.12322787119 0.097675264676 0.072499086578 0.054412310284 0.038748027814 0.07831660453 0.1179553159 0.15961039856 0.20089426868 
0.22782458742 0.25432615147 0.25574556583 0.25607709815 0.12803854907 0 
Torsion 1 240 double
0 0 0 0.003837010219 0.0077065374737 0.010862607798 0.014006482278 0.021824638098 0.029763680504 
0.16071703327 0.29594914465 0.21446454699 0.12347483051 0.10098896766 0.082140477566 0.089499676812 0.098496856641 0.1135729829 
0.12908723142 0.15566829765 0.18315483079 0.23209897986 0.28301171754 0.35637259421 0.43201985541 0.49325240316 0.55286834753 
0.54114725519 0.52067728098 0.44749352818 0.36728127156 0.29099031176 0.21526492361 0.15642294621 0.10020363455 0.052238014195 
0.0056480090638 -0.043786142859 -0.093727172428 -0.15735084165 -0.2235742124 -0.30446801299 -0.38832553678 -0.44652599427 -0.49922850898 
-0.469313206 -0.42065984128 -0.31798471402 -0.20236687282 -0.042546717783 0.12844033759 0.4784079835 0.87597685031 1.0583428033 
1.1805445009 0.9032132559 0.50862777779 0.31696400612 0.18773768258 0.1259998632 0.086008339598 0.066818453912 0.054640356288 
0.05010443355 0.048260640602 0.049850662902 0.052703697708 0.059668545454 0.068211181886 0.079685001075 0.092331293368 0.10333658772 
0.11365813294 0.11176552609 0.10457521473 0.071851656075 0.027606998034 -0.073547338191 -0.20140004196 -0.39087260945 -0.61038486052 
-0.73427247471 -0.80974255124 -0.74759386626 -0.61310711433 -0.54960152995 -0.52481294606 -0.73281831304 -1.072536047 -1.4896256237 
-1.9521066816 -1.643760195 -0.86666722862 -0.45607798334 -0.27643628835 -0.16891129559 -0.10846248344 -0.063128123256 -0.028011984112 
0.007381065668 0.042967952893 0.095455730238 0.16019052941 0.28593207371 0.45742867687 0.77223514798 1.1982671883 1.3138595007 
1.1801593045 0.91146309354 0.53061634722 0.27557037756 0.12863445032 0.015343902166 -0.068039642367 -0.15866685354 -0.25595356469 
-0.38078402896 -0.53180363553 -0.66799420716 -0.78960289444 -0.77605714018 -0.62506619113 -0.45322707885 -0.25946145005 -0.10194221857 
0.016151107038 0.10929817296 0.17438069674 0.22626221191 0.26278255344 0.29810660503 0.33199067799 0.37079619976 0.41573031814 
0.46002722221 0.50350310016 0.52972966933 0.53295716014 0.5095541379 0.44940100763 0.37961060342 0.296052665 0.21656362448 
0.14309316209 0.076565680216 0.020674253588 -0.028428850054 -0.066759180261 -0.09522083435 -0.10745399882 -0.11026374934 -0.097010862415 
-0.075944821077 -0.041069483559 -0.0029776742251 0.041011000105 0.083223358677 0.12205638483 0.15912010187 0.19268943341 0.22351196521 
0.24870003597 0.27281425802 0.29463948678 0.32179201802 0.3607510034 0.40548568988 0.46353657615 0.51927665961 0.56947081633 
0.61159405371 0.6335399927 0.65723358559 0.68548167045 0.80605109695 1.177619171 1.5266745885 1.81182311 1.8275567815 
1.0440263983 0.40625737551 0.2208511953 0.052980892821 -0.057897807027 -0.18322102622 -0.35776260763 -0.55808459674 -0.85062112112 
-1.0638677903 -0.9789846039 -0.85868223596 -0.59817894108 -0.36609447017 -0.25262769935 -0.15062565192 -0.099172612143 -0.052400922429 
-0.027475532984 -0.0046670779614 0.0076625516765 0.018186543494 0.019207178363 0.018735861662 0.0098930389351 0.00033092162272 -0.0135469632 
-0.028023942562 -0.046357593018 -0.065705792532 -0.092088198846 -0.1212979596 -0.17171287864 -0.22863050511 -0.33857020748 -0.45979370884 
-0.68163108451 -0.89038410165 -0.97067250774 -1.024275509 -0.78700759698 -0.5543994953 -0.37874463072 -0.20674267007 -0.085424751376 
0.048127166303 0.37742306772 0.76773384679 2.307158155 3.7108584321 2.0200507987 0.38149465349 0.24516879301 0.1114936733 
0.080313863051 0.049242534417 0.024517380005 0 0 0 
FrenetTangent 3 240 double
-0.75555093433 -0.65353399188 -0.045123243298 -0.75555093433 -0.65353399188 -0.045123243298 -0.75555093433 -0.65353399188 -0.045123243298 
-0.72481105177 -0.67925454517 0.049443439361 -0.69381066173 -0.70519306926 0.14481153458 -0.66143311702 -0.71463929721 0.21416690917 
-0.6290320312 -0.72380360557 0.28307762187 -0.60476415838 -0.72508410687 0.32580305702 -0.58070662727 -0.7261607166 0.36785128672 
-0.56894105665 -0.72531120297 0.38698926329 -0.55760303249 -0.72439469375 0.40533036149 -0.56003266828 -0.724386958 0.40199401718 
-0.5630661488 -0.72441908074 0.39770690785 -0.57974461918 -0.72552391349 0.36920633119 -0.59714760229 -0.72668570428 0.3394200837 
-0.62461764927 -0.72585915111 0.28003799811 -0.65271688774 -0.72490832643 0.21880617263 -0.67998246499 -0.71542745641 0.12591521076 
-0.70718795855 -0.70533180834 0.030742509328 -0.71702261206 -0.68178512468 -0.083399399895 -0.72543601503 -0.65713790173 -0.19909333521 
-0.70840763057 -0.62466946594 -0.30785058712 -0.68904513716 -0.59148348769 -0.41597144606 -0.6511713109 -0.56301914747 -0.49997909358 
-0.61141207111 -0.53503571483 -0.58153076586 -0.56287304396 -0.51944473864 -0.63856456219 -0.51334936777 -0.50524357065 -0.69284869019 
-0.45953592074 -0.5042702301 -0.72835476347 -0.40519636974 -0.50491917028 -0.76155786777 -0.34722932004 -0.5163513872 -0.78036565463 
-0.28877860386 -0.52922137435 -0.79725406584 -0.22651520106 -0.54912448113 -0.80174827888 -0.16370189154 -0.57004198016 -0.80445486718 
-0.097977082379 -0.59342196499 -0.79577141005 -0.031800001429 -0.61718447188 -0.78531862546 0.034628784535 -0.63851404348 -0.76541044147 
0.10109952134 -0.65943812586 -0.74392635757 0.16410765945 -0.67389821568 -0.71705057977 0.22649870076 -0.68720630682 -0.68921390602 
0.28231796571 -0.69208311066 -0.66153898121 0.33688859315 -0.69535796991 -0.63389478871 0.38353013944 -0.69036305537 -0.61141200099 
0.42856985116 -0.68369747946 -0.58997192131 0.46586408616 -0.67025436445 -0.57631050235 0.50149857614 -0.65535891964 -0.56431593926 
0.53029581876 -0.63587886184 -0.5597361928 0.55754234548 -0.61535899491 -0.55683815733 0.57908782952 -0.59303377178 -0.5586261485 
0.59926743875 -0.5702760154 -0.56153683356 0.61518535186 -0.54894047977 -0.56529483646 0.63002662594 -0.52796424201 -0.56926689862 
0.64243260701 -0.51149157327 -0.57034986938 0.65419090377 -0.49621666224 -0.57066446477 0.66542933918 -0.48764028552 -0.56497577659 
0.67652243701 -0.48093661731 -0.55760875106 0.6886184887 -0.48204162641 -0.54123703583 0.70100888554 -0.48543831255 -0.52222263993 
0.71492940993 -0.49698274164 -0.49016519141 0.7293207428 -0.51103416856 -0.45409449593 0.74369149644 -0.5327481208 -0.3983819586 
0.758055619 -0.55693110898 -0.33634038334 0.76585040005 -0.5856509722 -0.24461977055 0.77143079632 -0.61590011914 -0.14289498779 
0.75395311193 -0.63941598674 -0.004066575848 0.72835269458 -0.66055990367 0.14783243274 0.66036385597 -0.65428465927 0.31681536392 
0.57678387391 -0.63792420612 0.49208203675 0.46459969038 -0.59128853959 0.63389398354 0.34143947604 -0.53303564002 0.76286865175 
0.22697205446 -0.4694543948 0.84227997757 0.11598174998 -0.40374181132 0.90186596644 0.027129095478 -0.34869684342 0.93229992166 
-0.052499538199 -0.29809671534 0.9505871962 -0.11403582561 -0.2591435868 0.95715826529 -0.16772483029 -0.2252421689 0.95864760671 
-0.20914742014 -0.19953450445 0.95646149446 -0.24503516428 -0.17752402145 0.95261694579 -0.27248950814 -0.16013803422 0.94835598139 
-0.29598744201 -0.14492156352 0.94389966147 -0.3131314836 -0.13138831434 0.94040158389 -0.3271780027 -0.11867563566 0.93737064945 
-0.33602095961 -0.10586345543 0.93578850328 -0.34222920148 -0.093000894658 0.9349399208 -0.34421035505 -0.079692267956 0.93541672432 
-0.3439695776 -0.0661491707 0.93659020511 -0.34073680687 -0.053226356147 0.93856269116 -0.33587203981 -0.040641877614 0.94097099827 
-0.32953214107 -0.030835800761 0.94358194253 -0.32235762836 -0.022601714331 0.94630753676 -0.31522186071 -0.019666648017 0.94878853451 
-0.30810882349 -0.019840340169 0.95112603566 -0.30229089944 -0.027771133005 0.95272665638 -0.2972605442 -0.040419081662 0.95387917414 
-0.29431918176 -0.062991853488 0.95325352325 -0.29269417094 -0.091818623477 0.95150738252 -0.29318683182 -0.1317885346 0.94589583284 
-0.29506186173 -0.17903244062 0.93776103011 -0.29793862406 -0.23602415797 0.92292661256 -0.30149261393 -0.29960594494 0.90356287794 
-0.30381611406 -0.3671716905 0.87626620554 -0.30527827139 -0.43752620707 0.84341647668 -0.30336829951 -0.50333184242 0.80624226037 
-0.29901475575 -0.56584118703 0.76593435751 -0.29052677879 -0.61807601104 0.72857637736 -0.27893797695 -0.66260494459 0.69343083925 
-0.26347417875 -0.69627895489 0.66682510405 -0.2450029207 -0.72152824865 0.64684727558 -0.22305505223 -0.73788716526 0.63655466386 
-0.19831536026 -0.74710683963 0.63403957467 -0.17063968196 -0.74965088447 0.63881180679 -0.14052487657 -0.7466490217 0.64963812123 
-0.10862817806 -0.73926448308 0.66368821515 -0.07520016517 -0.72811358238 0.68050874455 -0.041782558173 -0.71523145384 0.69675501545 
-0.0083742008617 -0.70081045609 0.71249083434 0.023294978648 -0.68728257973 0.72539096327 0.053365236632 -0.67457579884 0.73568408691 
0.080688601002 -0.66461067795 0.74247095 0.10540016489 -0.65725238134 0.7459239916 0.12726203147 -0.65324367181 0.7461869177 
0.14632169572 -0.65252872291 0.7433128969 0.16314802837 -0.65491306603 0.73772451567 0.17770317634 -0.66044923155 0.7293757679 
0.19108996975 -0.6683695217 0.71864221021 0.20324797646 -0.67879725328 0.70540049036 0.21555243342 -0.6906729755 0.68994785097 
0.22801618716 -0.70412370506 0.67209035175 0.24193446009 -0.71793862244 0.65219155687 0.25748906712 -0.73216325114 0.62999630439 
0.27541104533 -0.74549590304 0.60621950559 0.29608778276 -0.75779061833 0.58060236196 0.31930002969 -0.76789854184 0.55438357934 
0.34556427881 -0.77537421599 0.52744060162 0.37373608201 -0.77959289148 0.50147835486 0.40428332991 -0.77975568184 0.47673739571 
0.43562428861 -0.77619192311 0.45470214127 0.46798791317 -0.76782664922 0.43615308329 0.49999096056 -0.75595887373 0.4214439585 
0.5315132384 -0.73942109613 0.41185474461 0.5618697233 -0.71997926792 0.40621890949 0.59061741397 -0.69652984986 0.40603873704 
0.61777237097 -0.67090122248 0.40897779548 0.64265199419 -0.64215943892 0.41637289804 0.66586800033 -0.61201722407 0.42546092692 
0.68662323956 -0.57980353796 0.43705307599 0.70597126622 -0.54688843421 0.44888550878 0.723163563 -0.51289881834 0.4610860358 
0.7393609145 -0.47872616406 0.47246632445 0.75397933109 -0.44426303577 0.48254493047 0.76798297441 -0.40989926237 0.49125739213 
0.78097565726 -0.37569887257 0.4977233053 0.79350648309 -0.34173563896 0.50278621221 0.80525005265 -0.30817664884 0.50545763116 
0.8164796544 -0.27486793269 0.5070525128 0.8268008479 -0.24200156124 0.50674467731 0.8364070127 -0.20932953475 0.5059172167 
0.84470229153 -0.17701380734 0.50413711 0.85203140822 -0.14491581447 0.5024418119 0.85752246034 -0.11323204829 0.50090785696 
0.86188787541 -0.08187448562 0.49991302889 0.8640301573 -0.051161174908 0.49998297637 0.86498133953 -0.020998478436 0.50089617699 
0.86348924043 0.0080347529275 0.50353912762 0.86089144112 0.036112415662 0.50711548111 0.85593675455 0.062153208423 0.51268145646 
0.85013585191 0.086777464724 0.51906505071 0.84245955153 0.10826236995 0.52726066522 0.83428533662 0.1279175396 0.53608108063 
0.82496315212 0.14335415225 0.54634200922 0.81554215681 0.15676989898 0.55692472908 0.8058840156 0.16533556751 0.56827974802 
0.79653393407 0.17202852937 0.57951930722 0.78795400175 0.17403972456 0.59047021709 0.78001519058 0.17469878224 0.60082984676 
0.77374717998 0.17183408762 0.60964856437 0.7683638302 0.1683895261 0.61744176436 0.76538565206 0.16336845145 0.62244683832 
0.76343119583 0.15854473863 0.62612113943 0.76438278889 0.15428127874 0.62601776273 0.76630630894 0.15074475069 0.62452024433 
0.7711132124 0.1493647871 0.61888677224 0.77667048432 0.14873402787 0.61203306805 0.78455648597 0.15042838565 0.60139243666 
0.79280660917 0.15244320923 0.58999810695 0.80224012741 0.15549954661 0.57615425768 0.81164521919 0.15818168591 0.56222135107 
0.82095345042 0.15958877984 0.54798498981 0.82997195873 0.159908179 0.53431546135 0.83795415047 0.15633697765 0.52267345014 
0.8454810748 0.15117497457 0.51208555084 0.85129619372 0.14003155702 0.50546111228 0.85651917579 0.12703788563 0.5000827592 
0.85939828285 0.10672029281 0.49963682779 0.86152519338 0.084541838822 0.50030210563 0.86051250102 0.054596312142 0.50560547426 
0.85857814883 0.022992924934 0.51162854483 0.85258011468 -0.015920120054 0.52082484672 0.8455238653 -0.05618747567 0.53023502243 
0.83352927811 -0.10277494755 0.540643276 0.82036052665 -0.15041530095 0.55080284246 0.80137966199 -0.20326741785 0.5597314077 
0.78107630641 -0.25694430925 0.56804820413 0.75381247229 -0.31496211907 0.57314516465 0.72497355473 -0.37361344537 0.57735638166 
0.68729666892 -0.43581950304 0.57659759345 0.64776851085 -0.49825658999 0.57475995943 0.59713271921 -0.56207985265 0.56644925061 
0.54470071035 -0.62531578835 0.55703693815 0.48070555321 -0.68477080681 0.54053305232 0.41561878657 -0.74265075514 0.52329416607 
0.3429635275 -0.78961021716 0.50095927697 0.27043262929 -0.83445928091 0.478651851 0.19883443759 -0.86348035763 0.45655039853 
0.12840119331 -0.89061771661 0.43528224497 0.067466751108 -0.9023955309 0.42080868254 0.0080984347626 -0.91289863701 0.40761896302 
-0.037305259327 -0.91203559517 0.40587684273 -0.081240778134 -0.91038843072 0.40545665042 -0.11076148507 -0.90104260791 0.41801538743 
-0.13912770746 -0.89117244251 0.43159775291 -0.15491004827 -0.87558694284 0.45633766882 -0.16991596419 -0.85965211 0.48157947527 
-0.1754322427 -0.83944764945 0.5129554994 -0.18059291496 -0.81914932325 0.54424410534 -0.18081955048 -0.79754861121 0.57431978389 
-0.18106912216 -0.77619797222 0.60385904974 -0.18168567251 -0.75884850221 0.6248157123 -0.18257783145 -0.74201659688 0.64503042736 
-0.18866061892 -0.73493215971 0.65127179766 -0.19511143612 -0.7284172342 0.65673886015 -0.20995333102 -0.73488717459 0.64455170442 
-0.22509826881 -0.74176194524 0.6316530759 -0.24895568957 -0.7602755857 0.59829960453 -0.27296035293 -0.7789294785 0.56438872488 
-0.30265839666 -0.80300646185 0.5089247251 -0.33235392061 -0.82701845528 0.45316705965 -0.361902038 -0.84722853842 0.38022995284 
-0.39120185188 -0.86726878894 0.3079057629 -0.39120185188 -0.86726878894 0.3079057629 -0.39120185188 -0.86726878894 0.3079057629 

FrenetNormal 3 240 double
0.22303860609 -0.32139733224 0.92030295828 0.22303860609 -0.32139733224 0.92030295828 0.22303860609 -0.32139733224 0.92030295828 
0.29656430313 -0.24978697938 0.91587888001 0.37071309931 -0.17756975912 0.91141730955 0.41976433462 -0.11988266304 0.89637261443 
0.46838655179 -0.062443945144 0.88114701121 0.49390324006 -0.021994800044 0.86784815713 0.51882237155 0.018014959553 0.85459913277 
0.51416155166 0.053026799894 0.85531855143 0.5084718639 0.087864799564 0.85652382898 0.0066923144467 0.028665667293 0.047939221958 
-0.51684556228 -0.03465790059 -0.79616248527 -0.5113393171 -0.027994618298 -0.85795838226 -0.47774223359 -0.017615220067 -0.87821591765 
-0.42262636624 0.015155427991 -0.90339902299 -0.36616557489 0.049325529164 -0.92888997644 -0.28045654314 0.099545963797 -0.94902971916 
-0.19263953009 0.15092317922 -0.96878378904 -0.080315348525 0.20285786273 -0.96777338902 0.034013965007 0.25483815727 -0.96506407783 
0.158152599 0.28240301042 -0.93703142407 0.28319117065 0.30772791482 -0.90667552787 0.40803458205 0.28759038586 -0.85543846275 
0.53285811602 0.26282242386 -0.80207461191 0.64652256013 0.18650106839 -0.72178744864 0.75893551752 0.10439802393 -0.63848084848 
0.83320267649 -0.0011712681128 -0.52493269729 0.90279157716 -0.10961849618 -0.40767567665 0.92739718991 -0.19205014272 -0.28553811523 
0.94600503093 -0.27101304506 -0.16274981505 0.94380238825 -0.30722959506 -0.056200685725 0.93859823349 -0.3372808058 0.048006255497 
0.92932370524 -0.33353100551 0.13430447555 0.91941688597 -0.32453056274 0.21782075833 0.91026310474 -0.29163948886 0.28447103106 
0.90123482985 -0.25476664313 0.34831030211 0.89522298255 -0.19931089826 0.39220018637 0.88974871641 -0.14054334958 0.43253473436 
0.88927833919 -0.06336299966 0.44577523226 0.88975870088 0.017315782499 0.45386786065 0.89103477148 0.1206636937 0.42259773641 
0.89247159136 0.22859122693 0.38337554095 0.87386057695 0.35031850698 0.29881474509 0.85095359804 0.47500287564 0.20453853486 
0.79516767679 0.57735707762 0.097367911571 0.73192467584 0.67464670571 -0.012727217772 0.66736600648 0.73267992155 -0.086023074183 
0.60249212489 0.78130795528 -0.15050243812 0.57421166404 0.80342057399 -0.15528807704 0.55517585685 0.81883456155 -0.14499319594 
0.60099621647 0.78094166434 -0.023569733757 0.66406555663 0.72887140416 0.12740920213 0.67689666767 0.48160379464 0.38165226383 
0.6756826824 0.17976488315 0.66476486608 0.58203734846 -0.040984177035 0.77768334407 0.46126542307 -0.23793512868 0.84065354646 
0.37555066543 -0.31520515255 0.8674552332 0.30062272864 -0.35565027556 0.8831281459 0.23040397423 -0.35402590387 0.90356769338 
0.16170262304 -0.3388458061 0.92554315651 0.076598787225 -0.29523389619 0.94665172326 -0.014033975987 -0.24203822938 0.96746807774 
-0.12925008025 -0.15855121902 0.96715095198 -0.2531262251 -0.064393394453 0.95938907749 -0.38400153448 0.049444068889 0.90251545869 
-0.5174512492 0.17052002006 0.82757775002 -0.61975606622 0.27619092754 0.71186820803 -0.71010993412 0.37595059732 0.58051366023 
-0.76322825235 0.44117386326 0.45156870659 -0.80145235071 0.49258256767 0.32358759062 -0.82239598507 0.51711169044 0.2173482214 
-0.83613942611 0.53044098752 0.12016791333 -0.84391949921 0.53068210408 0.043140553845 -0.84911305129 0.52524641946 -0.025145767697 
-0.84983357653 0.51952258673 -0.077447901152 -0.84853578477 0.51366873596 -0.12253765706 -0.83286977595 0.53145169381 -0.14956257562 
-0.81046312208 0.56032352485 -0.16811263223 -0.74105595157 0.63899936348 -0.15741551123 -0.64873602919 0.74195465581 -0.13246039115 
-0.47741985118 0.84410401926 -0.075877649295 -0.26610556906 0.94584531744 -0.0032809217391 -0.05978866215 0.97603350508 0.061133767793 
0.14390141933 0.96861044231 0.12124764247 0.30448244801 0.92741376197 0.1631398467 0.4415494479 0.86779510841 0.19509295795 
0.58982047734 0.74488858988 0.2304178655 0.74443062876 0.58617446355 0.2676504999 0.78493208991 0.16644296099 0.26437185146 
0.7584897861 -0.40641873563 0.23732658375 0.57095553667 -0.73496834689 0.15908860425 0.28545996896 -0.91494979814 0.049719921643 
0.11970404452 -0.98739681785 -0.028370210623 0.02940049804 -0.99208241495 -0.08675057144 -0.021591248185 -0.98757916082 -0.14430206972 
-0.046921124794 -0.97707762879 -0.20131250497 -0.053960418693 -0.96118126251 -0.26322810897 -0.048634248223 -0.94163768434 -0.32845988339 
-0.030272456763 -0.91576435161 -0.39421812863 -0.002785730609 -0.88546019066 -0.46034490344 0.038577581425 -0.85181711899 -0.51726291366 
0.089996390473 -0.81575454677 -0.56750790608 0.16971457966 -0.78023165487 -0.59413036087 0.27065730395 -0.74511352321 -0.60303591246 
0.43388954632 -0.68264675725 -0.54068410245 0.64546589229 -0.59895418558 -0.42302807151 0.80529188898 -0.42774782782 -0.21364269816 
0.92356078703 -0.18626524791 0.069404116836 0.94999727959 0.0051303851409 0.25956960963 0.90014223528 0.15491532387 0.37257215782 
0.86578532544 0.25572188119 0.4265408196 0.8447471249 0.31443764199 0.42977723524 0.83868142076 0.35324820895 0.41290924244 
0.84592460229 0.37436527028 0.37817066436 0.86485365073 0.37489625306 0.32744339789 0.89452615745 0.35650132491 0.26201685338 