# vtk DataFile Version 5.1
vtk output
ASCII
DATASET POLYDATA
POINTS 240 float
0 0 0 -0.0641671 -0.242588 0.211247 -0.128334 -0.485176 0.422494 
-0.235504 -0.725731 0.565623 -0.343038 -0.966268 0.708175 -0.483412 -1.20508 0.790479 
-0.624346 -1.44386 0.871752 -0.788151 -1.68119 0.900489 -0.952547 -1.91849 0.927867 
-1.13011 -2.15455 0.910169 -1.30814 -2.39056 0.890903 -1.49008 -2.6254 0.833581 
-1.67219 -2.8602 0.77459 -1.84966 -3.09368 0.683877 -2.02687 -3.32708 0.591479 
-2.1919 -3.55872 0.472789 -2.35617 -3.79025 0.352455 -2.50203 -4.01926 0.210276 
-2.64656 -4.24808 0.0665228 -2.76798 -4.47337 -0.0955033 -2.8875 -4.69838 -0.259024 
-2.9808 -4.91869 -0.437882 -3.0717 -5.13858 -0.618146 -3.13473 -5.3526 -0.81121 
-3.19492 -5.56602 -1.00558 -3.2269 -5.77244 -1.21048 -3.25571 -5.97807 -1.41657 
-3.257 -6.17567 -1.63121 -3.25491 -6.37229 -1.8469 -3.22685 -6.56008 -2.06957 
-3.19533 -6.74668 -2.29317 -3.14008 -6.92402 -2.52263 -3.08141 -7.10002 -2.75293 
-3.00189 -7.2669 -2.98846 -2.91913 -7.43236 -3.22481 -2.81901 -7.58956 -3.46607 
-2.716 -7.74539 -3.70816 -2.59972 -7.89467 -3.95495 -2.48106 -8.04278 -4.20256 
-2.3537 -8.1869 -4.4543 -2.22469 -8.33027 -4.70682 -2.09187 -8.47296 -4.96206 
-1.95829 -8.61553 -5.21784 -1.82589 -8.76124 -5.47375 -1.69375 -8.90763 -5.72968 
-1.56748 -9.06107 -5.98159 -1.44255 -9.21611 -6.23259 -1.32752 -9.38158 -6.47389 
-1.21487 -9.54954 -6.71285 -1.11518 -9.73029 -6.93516 -1.01875 -9.91426 -7.15325 
-0.937149 -10.1118 -7.34703 -0.859486 -10.313 -7.53434 -0.7973 -10.5268 -7.68975 
-0.73944 -10.7441 -7.83624 -0.696687 -10.9714 -7.94427 -0.658368 -11.2016 -8.04102 
-0.63408 -11.4374 -8.09473 -0.61411 -11.675 -8.13521 -0.6068 -11.9124 -8.13073 
-0.603569 -12.1498 -8.11178 -0.611709 -12.3805 -8.04883 -0.623682 -12.609 -7.97106 
-0.646083 -12.8238 -7.85289 -0.672158 -13.0339 -7.7205 -0.708138 -13.2239 -7.55335 
-0.747762 -13.4066 -7.37342 -0.797056 -13.5638 -7.16552 -0.85006 -13.7113 -6.94689 
-0.912495 -13.8299 -6.70735 -0.978702 -13.9369 -6.45946 -1.05376 -14.0138 -6.19727 
-1.1325 -14.0781 -5.92913 -1.21889 -14.1134 -5.65239 -1.30861 -14.1363 -5.37192 
-1.40404 -14.1335 -5.08733 -1.50204 -14.1193 -4.80089 -1.60313 -14.0846 -4.5136 
-1.70567 -14.0403 -4.22592 -1.80815 -13.9816 -3.93963 -1.91061 -13.9158 -3.65401 
-2.00968 -13.8418 -3.37122 -2.10703 -13.7636 -3.08985 -2.1978 -13.683 -2.81228 
-2.28511 -13.6011 -2.53669 -2.36314 -13.5219 -2.26565 -2.4361 -13.4441 -1.99709 
-2.49781 -13.3731 -1.73378 -2.55315 -13.306 -1.47346 -2.59608 -13.249 -1.21912 
-2.63172 -13.198 -0.968309 -2.65449 -13.1598 -0.724165 -2.66943 -13.1296 -0.48408 
-2.67156 -13.1147 -0.251174 -2.66563 -13.1095 -0.022793 -2.64733 -13.1219 0.198198 
-2.62097 -13.1457 0.414365 -2.58297 -13.1891 0.623332 -2.53711 -13.2455 0.827432 
-2.48067 -13.3227 1.02497 -2.41682 -13.4143 1.21792 -2.34382 -13.527 1.40533 
-2.26419 -13.6549 1.58871 -2.17722 -13.803 1.7678 -2.08474 -13.9663 1.94367 
-1.98709 -14.148 2.11653 -1.88541 -14.3439 2.28706 -1.78085 -14.5554 2.45567 
-1.67399 -14.7795 2.62275 -1.56652 -15.016 2.78863 -1.45854 -15.2628 2.95352 
-1.35197 -15.5188 3.11744 -1.24659 -15.7827 3.28051 -1.14421 -16.0529 3.44236 
-1.04449 -16.3288 3.60311 -0.948831 -16.6086 3.76198 -0.856913 -16.8921 3.91911 
-0.769576 -17.178 4.0735 -0.686597 -17.466 4.22529 -0.608163 -17.7554 4.3735 
-0.534201 -18.046 4.51818 -0.464248 -18.3375 4.65864 -0.398373 -18.6297 4.79481 
-0.335555 -18.9225 4.9265 -0.275953 -19.2159 5.05346 -0.218158 -19.51 5.17607 
-0.162328 -19.8047 5.29396 -0.106889 -20.1002 5.40803 -0.0518917 -20.3963 5.51782 
0.00414951 -20.6932 5.62462 0.061405 -20.9909 5.72797 0.121028 -21.2893 5.82932 
0.183501 -21.5883 5.92827 0.249459 -21.8877 6.02621 0.319755 -22.1876 6.12289 
0.394394 -22.4874 6.21942 0.474627 -22.7872 6.31576 0.559803 -23.0864 6.41262 
0.651567 -23.3848 6.51015 0.748657 -23.6818 6.60862 0.853099 -23.9769 6.70838 
0.963107 -24.2698 6.80928 1.08107 -24.5594 6.91183 1.20475 -24.8456 7.01558 
1.33691 -25.127 7.12109 1.47492 -25.4039 7.22778 1.6219 -25.6739 7.33626 
1.77483 -25.9382 7.44589 1.93719 -26.1937 7.55734 2.10552 -26.4426 7.66999 
2.28366 -26.6807 7.78461 2.46769 -26.9113 7.90061 2.66173 -27.1295 8.01894 
2.8614 -27.3399 8.13893 3.07101 -27.5367 8.26186 3.28578 -27.7257 8.38683 
3.51001 -27.9007 8.51553 3.73875 -28.0684 8.64664 3.97605 -28.2222 8.78233 
4.21703 -28.3697 8.92067 4.4653 -28.5045 9.06426 4.71637 -28.6339 9.21054 
4.9732 -28.7522 9.36232 5.23197 -28.8661 9.5165 5.49489 -28.9707 9.67581 
5.759 -29.0718 9.83694 6.02576 -29.165 10.0021 6.29312 -29.2551 10.1684 
6.56188 -29.3382 10.3371 6.83083 -29.4183 10.5058 7.10025 -29.4912 10.6749 
7.36961 -29.5607 10.8431 7.63885 -29.6218 11.0094 7.90792 -29.6788 11.1742 
8.17655 -29.7254 11.3351 8.44499 -29.7673 11.494 8.71288 -29.7964 11.6477 
8.98059 -29.8202 11.7992 9.24778 -29.8293 11.9449 9.51483 -29.833 12.0888 
9.78143 -29.8209 12.2271 10.0479 -29.8039 12.3641 10.314 -29.7718 12.4969 
10.58 -29.7357 12.6291 10.8457 -29.6869 12.7591 11.1112 -29.6356 12.8893 
11.3764 -29.5756 13.02 11.6414 -29.5147 13.1515 11.9061 -29.4502 13.2863 
12.1707 -29.3863 13.4227 12.4349 -29.3245 13.565 12.6989 -29.2645 13.7093 
12.9624 -29.2117 13.8617 13.2256 -29.1617 14.0163 13.4881 -29.1231 14.1804 
13.7502 -29.0877 14.3468 14.0111 -29.0667 14.5234 14.2715 -29.0491 14.7021 
14.5298 -29.0475 14.8908 14.7874 -29.0494 15.0813 15.0418 -29.0682 15.281 
15.2953 -29.0902 15.4822 15.5441 -29.1296 15.691 15.7916 -29.1722 15.9008 
16.0325 -29.2324 16.1161 16.272 -29.2956 16.3318 16.5026 -29.3771 16.5503 
16.7316 -29.4616 16.7688 16.9495 -29.5652 16.9869 17.1656 -29.6718 17.2045 
17.3683 -29.7987 17.4184 17.569 -29.9283 17.6314 17.7541 -30.0791 17.8372 
17.937 -30.2325 18.0419 18.1019 -30.4076 18.2365 18.2645 -30.5852 18.4297 
18.4067 -30.7842 18.6107 18.5465 -30.9853 18.7903 18.6634 -31.207 18.9565 
18.778 -31.4304 19.1214 18.8674 -31.6727 19.2727 18.9546 -31.9164 19.4229 
19.0151 -32.1766 19.5603 19.0735 -32.4379 19.6969 19.1048 -32.713 19.8225 
19.1343 -32.9887 19.9474 19.1376 -33.2756 20.0633 19.1396 -33.563 20.1788 
19.1179 -33.8587 20.2873 19.0953 -34.1547 20.3956 19.053 -34.4568 20.4989 
19.0103 -34.759 20.602 18.9529 -35.0652 20.7012 18.8954 -35.3716 20.8004 
18.8289 -35.6806 20.896 18.7624 -35.9896 20.9915 18.6922 -36.3004 21.0828 
18.6221 -36.6111 21.1741 18.5531 -36.9229 21.2596 18.484 -37.2347 21.3451 

LINES 2 240
OFFSETS vtktypeint64
0 240 
CONNECTIVITY vtktypeint64
0 1 2 3 4 5 6 7 8 
9 10 11 12 13 14 15 16 17 
18 19 20 21 22 23 24 25 26 
27 28 29 30 31 32 33 34 35 
36 37 38 39 40 41 42 43 44 
45 46 47 48 49 50 51 52 53 
54 55 56 57 58 59 60 61 62 
63 64 65 66 67 68 69 70 71 
72 73 74 75 76 77 78 79 80 
81 82 83 84 85 86 87 88 89 
90 91 92 93 94 95 96 97 98 
99 100 101 102 103 104 105 106 107 
108 109 110 111 112 113 114 115 116 
117 118 119 120 121 122 123 124 125 
126 127 128 129 130 131 132 133 134 
135 136 137 138 139 140 141 142 143 
144 145 146 147 148 149 150 151 152 
153 154 155 156 157 158 159 160 161 
162 163 164 165 166 167 168 169 170 
171 172 173 174 175 176 177 178 179 
180 181 182 183 184 185 186 187 188 
189 190 191 192 193 194 195 196 197 
198 199 200 201 202 203 204 205 206 
207 208 209 210 211 212 213 214 215 
216 217 218 219 220 221 222 223 224 
225 226 227 228 229 230 231 232 233 
234 235 236 237 238 239 
CELL_DATA 1
FIELD FieldData 3
Length 1 1 double
72.416371197 
Tortuosity 1 1 double
0.54967351342 
ClusterLabel 1 1 int
2 
POINT_DATA 240
FIELD FieldData 6
Curvature 1 240 double
0 0.19472458336 0.38944916671 0.39665267178 0.40226701517 0.37820407836 0.35363383761 0.31819693636 0.28247900078 
0.25153536421 0.22075779021 0.20053590522 0.18077698904 0.17157675251 0.16293715384 0.16228616458 0.16213446341 0.16652143708 
0.17123552245 0.17729747428 0.18346970609 0.18861010362 0.19365583746 0.19620780611 0.19850578016 0.19771992845 0.19658822712 
0.19240246299 0.187842144 0.18039318979 0.17255908422 0.16201024286 0.15106985306 0.13768398904 0.12391824553 0.10828708835 
0.092345028897 0.075248340312 0.057945876239 0.040049762101 0.02204085445 0.018875038251 0.018707826386 0.034678033406 0.054106258757 
0.075064329382 0.096369375224 0.12075989299 0.1458896384 0.17589143018 0.20712405472 0.24522808949 0.28515962698 0.33153861204 
0.37972010933 0.42684413965 0.47365782642 0.50640057509 0.53481380435 0.54082949217 0.53962819443 0.52168336627 0.49809465145 
0.47036164746 0.44116872342 0.41490979066 0.38973002711 0.3678874813 0.34732549579 0.32763739419 0.30829884615 0.28732359332 
0.26566638016 0.2421404846 0.2178040762 0.1928852444 0.1677036118 0.14344505691 0.11961955082 0.098489672569 0.078673912895 
0.065456307347 0.055579539331 0.057295566994 0.065105243667 0.079955319664 0.098645613476 0.12083306519 0.14499917203 0.17274144305 
0.20258173039 0.23627000256 0.27229826553 0.30995826197 0.34864647403 0.38111154051 0.40951427584 0.42113779073 0.42141760729 
0.40363966597 0.37322129412 0.33407979903 0.28861720015 0.24503486643 0.20286273157 0.1670079085 0.13605607369 0.11138154941 
0.091747895716 0.077031316402 0.066399691191 0.059070716054 0.054579955824 0.051745316077 0.050382783424 0.049758670835 0.049813428305 
0.050046576946 0.050449343422 0.050669725674 0.05071076344 0.050324249374 0.049502936835 0.0481047528 0.046099859089 0.04361028548 
0.040593516191 0.037791670157 0.035231612783 0.033754420077 0.033537288076 0.034564210806 0.037088606823 0.040181401325 0.043982012808 
0.047789157819 0.05160472103 0.055344402069 0.05898290688 0.062654614201 0.066372140989 0.070251695178 0.074362717083 0.07894350519 
0.084219155804 0.089872072604 0.096102929095 0.10254373278 0.10931771354 0.11597729444 0.12244875113 0.12818919636 0.13268359933 
0.13588039483 0.13678374459 0.13621943447 0.13296441456 0.12835489577 0.12116852545 0.11321366073 0.10374101959 0.094228782558 
0.084635323211 0.075495220556 0.06732148348 0.059916144356 0.054213741232 0.049742896611 0.04811147854 0.048046403057 0.051740549787 
0.056620045153 0.064462912111 0.072950395662 0.083117789121 0.093133142925 0.10273513891 0.11115997488 0.11624319529 0.11940234027 
0.11685339483 0.11237292136 0.10189805052 0.090024659026 0.073606075395 0.057499996392 0.042458747973 0.031766535194 0.036630488354 
0.043571029961 0.058319544129 0.072484052995 0.084336874202 0.095235854702 0.10215358703 0.10820047696 0.11040774357 0.11211141307 
0.11146496266 0.1107019109 0.1093616824 0.10815406943 0.10764443292 0.10744394081 0.10897809227 0.1108948783 0.11510747175 
0.11965551056 0.12636297894 0.13330844673 0.1419040438 0.15064022361 0.16043077394 0.17015121994 0.17930004591 0.1882195127 
0.19509386016 0.20163401584 0.2048930159 0.20772814103 0.20594302948 0.20374818205 0.19654545166 0.18904230205 0.17737083574 
0.16551704082 0.15074598829 0.13589830314 0.11960737045 0.10334371592 0.08770200348 0.072122538069 0.058332674824 0.044657223636 
0.035405705353 0.026314759341 0.026617291134 0.026804656038 0.013402328019 0 
Torsion 1 240 double
0 0 0 0.04901313507 0.098441635692 0.12050015733 0.14209081608 0.17398065874 0.2061368596 
0.24496810749 0.28403153093 0.31326793018 0.3420733196 0.33845611444 0.33311735559 0.29743405544 0.25985422145 0.21664307277 
0.17302606356 0.13901439389 0.10578861565 0.082739778817 0.060624606337 0.04463557191 0.029270495989 0.016436000668 0.0038853087786 
-0.0074933480995 -0.018728264835 -0.028749818144 -0.038609589664 -0.047129936802 -0.055457097732 -0.062324022175 -0.068964113766 -0.072793483694 
-0.076154400012 -0.068465997975 -0.05880841049 0.095732496815 0.27780123489 0.29799418602 0.28548495797 0.12566279507 -0.065726425306 
-0.11616230538 -0.13462938662 -0.14325587537 -0.14952472217 -0.15211836727 -0.15378354036 -0.15122786177 -0.14754961625 -0.13922350256 
-0.12959798486 -0.11702045805 -0.10357658074 -0.088440874885 -0.072784606408 -0.055426768096 -0.037520646169 -0.017903017724 0.0022915230304 
0.021623605839 0.040651868236 0.0543106618 0.065994478323 0.070023063481 0.071114176139 0.065977827798 0.058350495056 0.046314803084 
0.032442294766 0.013172057796 -0.0084393626863 -0.041142650716 -0.078850805809 -0.14755157153 -0.23079208052 -0.4067764309 -0.62797340397 
-0.93595760661 -1.2878847103 -1.2322672271 -0.96242758931 -0.71955448362 -0.49139039544 -0.3616883821 -0.28769517427 -0.2439662548 
-0.21799238451 -0.20086346479 -0.18911323122 -0.17852919315 -0.16868001798 -0.15904676909 -0.14955447208 -0.14311126342 -0.13872941028 
-0.13845966614 -0.1410683983 -0.14864068225 -0.15980974286 -0.17785538656 -0.20105846759 -0.23130040577 -0.26700533756 -0.30457889377 
-0.34365301202 -0.36502524955 -0.37169130923 -0.34452681473 -0.28828918771 -0.21737863064 -0.13342546909 -0.055508553645 0.016858909735 
0.077169413725 0.12601592354 0.16704248625 0.20037943431 0.23259783518 0.26367873043 0.30154892637 0.34655959374 0.40819421695 
0.48791103773 0.57697606908 0.6765578373 0.73402636219 0.74249038574 0.69794300378 0.58958559668 0.48359294569 0.38054508534 
0.29500643433 0.23202772611 0.17970009413 0.14157389713 0.10888696184 0.083706207725 0.063465471564 0.050281903909 0.040547380401 
0.035914568027 0.033479942482 0.034412752079 0.037098782728 0.042567098963 0.048716420675 0.05598561806 0.063612262989 0.071848193506 
0.080300455708 0.089135071585 0.09769372663 0.10574645348 0.11304899455 0.11892435289 0.12239012039 0.12109694594 0.11456923437 
0.097304010738 0.071187610182 0.026204227232 -0.03143737652 -0.11713233448 -0.19734965441 -0.26493797552 -0.30143615556 -0.26331799703 
-0.21694490739 -0.14993448997 -0.088643312598 -0.042256821391 -0.0018044176392 0.022514685843 0.044243779274 0.058620586109 0.075120078649 
0.097916872116 0.12656481138 0.17337147898 0.24574017674 0.40118547253 0.69670860139 1.4695339763 1.9677716668 1.4838303327 
1.0187033824 0.62431851502 0.29157236665 0.20281281447 0.12494619441 0.092545725803 0.063837990253 0.051411850454 0.04079879788 
0.038646819022 0.037564614524 0.041777793106 0.047157983318 0.058680340002 0.07022745673 0.081913504812 0.092334414854 0.095164496655 
0.09683444792 0.091036058858 0.084225360524 0.070395984566 0.05586340329 0.036056782128 0.016091175567 -0.0051707734697 -0.02620496436 
-0.045208311778 -0.063795592145 -0.078297850558 -0.092391824311 -0.10203549526 -0.11106413218 -0.11257568639 -0.11363817149 -0.10846982263 
-0.10313721324 -0.095176435275 -0.086620816499 -0.066862362428 -0.045793513985 0.005152326124 0.059112901417 0.19974711325 0.34677799203 
0.74114665911 1.1194405259 0.55735857407 0 0 0 
FrenetTangent 3 240 double
-0.27562699993 -0.77554580739 0.56794230126 -0.27562699993 -0.77554580739 0.56794230126 -0.27562699993 -0.77554580739 0.56794230126 
-0.34944176956 -0.79755316782 0.47661634114 -0.4238820881 -0.81974703131 0.38451643221 -0.47654909919 -0.82331250094 0.28784596956 
-0.52884391699 -0.82655953648 0.19109737779 -0.5573095266 -0.81862428512 0.10383089853 -0.58515886359 -0.81039983668 0.016809646316 
-0.59391133668 -0.79920693133 -0.055775651013 -0.60199957103 -0.78791077531 -0.12785882817 -0.59632960955 -0.77836687237 -0.186969407 
-0.59005621843 -0.76889982263 -0.24551101221 -0.573505525 -0.76263689334 -0.29457468528 -0.55640913411 -0.75654409434 -0.34313510533 
-0.5308034837 -0.75316282714 -0.38540310739 -0.50466600456 -0.74995103068 -0.42727783333 -0.47092602832 -0.74799294087 -0.46492285134 
-0.43663812437 -0.74612520829 -0.50226302554 -0.39559826572 -0.74372606234 -0.53618992417 -0.35400597441 -0.74128343711 -0.56983755481 
-0.30697292545 -0.73668771128 -0.5999082611 -0.25944072442 -0.73189445328 -0.6296508092 -0.20838141518 -0.72383402632 -0.65520885002 
-0.15696286343 -0.71544083215 -0.68034069103 -0.10433428868 -0.70332942877 -0.70079426486 -0.051570010406 -0.69080102997 -0.72072317321 
3.7455193386e-05 -0.67473437959 -0.73594299446 0.051503047541 -0.65823379269 -0.75058528617 0.099671505473 -0.63892704934 -0.76098196114 
0.14740034548 -0.6192461518 -0.77081255389 0.19004359785 -0.597987491 -0.77721340317 0.231953352 -0.57650126819 -0.78311957791 
0.26741580511 -0.55508137407 -0.78659761047 0.30187673572 -0.53367178343 -0.7896984559 0.32905931046 -0.51421879194 -0.79137251137 
0.35502882588 -0.49509190032 -0.79280876851 0.37349408259 -0.47983036975 -0.79357848221 0.39062194665 -0.46525771542 -0.794229406 
0.4005573286 -0.45628156842 -0.79449819965 0.40912613895 -0.44836875782 -0.79469438857 0.41116427441 -0.44744636117 -0.7941879761 
0.4118830816 -0.44793616936 -0.79353962395 0.40691215475 -0.45642676675 -0.7911705127 0.40072199918 -0.46663181898 -0.78843266735 
0.38970737128 -0.48542619372 -0.78222818387 0.37759853315 -0.50616866223 -0.77523745256 0.36139527718 -0.53564442248 -0.76224960183 
0.34421106692 -0.56721253388 -0.74782494124 0.32345716767 -0.60698139395 -0.7239752414 0.30180145224 -0.64882202212 -0.69774447901 
0.27687007495 -0.69703610288 -0.65773010121 0.25106751098 -0.74694525082 -0.61404986826 0.22212547527 -0.79890776537 -0.55186742075 
0.19230573777 -0.85144433941 -0.4845123111 0.15981776915 -0.89778560198 -0.39618698032 0.1265467327 -0.94230867531 -0.30170734551 
0.092073956977 -0.96991979679 -0.19027808707 0.057231415322 -0.99232724077 -0.073633559816 0.023468120106 -0.99069323118 0.048366287263 
-0.009947417924 -0.98131253098 0.1720917374 -0.040577012631 -0.94919047899 0.28803190683 -0.070267525319 -0.90940280278 0.40134782435 
-0.097082827766 -0.85375113191 0.49946521394 -0.12288527206 -0.79251100837 0.59222857666 -0.14670015117 -0.72211133805 0.66847362216 
-0.16978397182 -0.64834263904 0.73864296478 -0.19154930262 -0.5700975341 0.79353797355 -0.21280870127 -0.49013473851 0.84257190073 
-0.23264641639 -0.40938876152 0.87807877649 -0.25191545811 -0.32832951197 0.90817483169 -0.26904887957 -0.25022811652 0.92689987499 
-0.28529245924 -0.17335916029 0.94088699666 -0.29857680359 -0.10296271362 0.946540075 -0.31057762418 -0.035373620494 0.94857838756 
-0.31909031756 0.023442283177 0.94595556426 -0.32602909988 0.078299552584 0.94122954551 -0.32928832996 0.12363992462 0.93527088043 
-0.33082135034 0.16451557937 0.92873393681 -0.32861679281 0.19630954815 0.9234536849 -0.32459016606 0.22367619501 0.91878607019 
-0.3167510845 0.24289755958 0.91672263872 -0.30698164608 0.25799473057 0.91597778103 -0.29328811363 0.26572099345 0.91822014428 
-0.27753191635 0.26957280463 0.92203271341 -0.2577471231 0.26653164562 0.92844328567 -0.23576491385 0.25973068469 0.93627095053 
-0.20971440393 0.24604156895 0.94573527324 -0.18136209231 0.22845520772 0.95612559974 -0.14898957926 0.20331077266 0.96672607956 
-0.11425854801 0.17373226762 0.97744984933 -0.075747851762 0.13557900702 0.98629200791 -0.03493871057 0.092211368031 0.99398994347 
0.0088023899014 0.039629500201 0.99682303287 0.054391026358 -0.018758594023 0.99659060278 0.10072958624 -0.084992541207 0.98806871337 
0.14755767947 -0.15634808685 0.97413564913 0.19145160167 -0.23064546298 0.95025167544 0.23336185893 -0.30693168224 0.91964032635 
0.26883063364 -0.37941885282 0.88167121955 0.29979037056 -0.44924668933 0.83855168236 0.32318953292 -0.51079489757 0.79376495416 
0.34111001807 -0.56634337519 0.74777011655 0.3527176641 -0.61310797695 0.70497111811 0.3595906808 -0.65328467183 0.66456899904 
0.36212681605 -0.68654434578 0.62936198576 0.36129701346 -0.71443558559 0.59818699488 0.3577412288 -0.73761371752 0.57203393918 
0.35199639795 -0.75700708101 0.5499136496 0.3445572828 -0.77342745733 0.53168869788 0.33571060841 -0.78737796737 0.51669987301 
0.32578056377 -0.79958089032 0.50425215608 0.31491949782 -0.81028198063 0.49398820379 0.30339377959 -0.8200403337 0.48503749767 
0.29127725933 -0.82896069812 0.47725412149 0.27885041718 -0.83744926139 0.46979296312 0.2661382791 -0.84554084619 0.46262803725 
0.25348122774 -0.85348646048 0.45507297112 0.24087655391 -0.86129328313 0.44714695194 0.22875999641 -0.86902339803 0.43846633116 
0.21712341996 -0.87667808362 0.42904368546 0.20645490821 -0.88416191207 0.41884748716 0.19677086902 -0.89147198748 0.4078646252 
0.18852330878 -0.89842212071 0.39638914978 0.18178652814 -0.90499369406 0.3843955809 0.17687090562 -0.91098312825 0.37241678239 
0.17393619195 -0.91633935844 0.36045404988 0.17303142375 -0.92093287429 0.34906708678 0.17441034419 -0.92466833649 0.33832786425 
0.17780290269 -0.92753814064 0.32860463214 0.18353860364 -0.92940063361 0.32006364341 0.19108325344 -0.93035677612 0.31278321041 
0.20080534168 -0.9302219412 0.307020113 0.21201214599 -0.92918960232 0.30253903064 0.22506784202 -0.927039617 0.29965441985 
0.23925539024 -0.92403252307 0.29789425398 0.25490128646 -0.91992107767 0.29758289214 0.27140943571 -0.91498468369 0.29816445163 
0.28906725565 -0.90894835827 0.2999365729 0.307453576 -0.90207702088 0.30237058244 0.32684522691 -0.89405336698 0.3057179978 
0.34693927528 -0.88513092304 0.30951939354 0.36803674859 -0.87492449333 0.31396933267 0.3899031542 -0.86365818846 0.31875197317 
0.41290693884 -0.85082415155 0.32402673443 0.43673530708 -0.83668472223 0.32959178902 0.46182686719 -0.82054554283 0.33560154827 
0.48764367846 -0.80285506463 0.34188952295 0.51461143176 -0.78270274271 0.34861901339 0.54200608563 -0.76081867548 0.35564830716 
0.57010275377 -0.73608684928 0.36317061082 0.59809122578 -0.70965563317 0.37100384988 0.62589527258 -0.68032772969 0.37936709243 
0.6528877062 -0.64968868519 0.38801698643 0.67844566068 -0.61673227516 0.39717352019 0.70255207244 -0.58318478007 0.40655930231 
0.72399732254 -0.54855362902 0.41636537308 0.74362803228 -0.51422839526 0.42629170088 0.75980668963 -0.4804851505 0.43644681034 
0.77418698417 -0.44785802488 0.446559082 0.78501551219 -0.41743523459 0.45658674904 0.79440848306 -0.38856216068 0.46636962388 
0.8008567213 -0.36286799219 0.47565036091 0.80639900055 -0.33870777762 0.48448101637 0.81001015671 -0.31781730693 0.49235228742 
0.81324069224 -0.2981026194 0.49959861332 0.81562769015 -0.28099372159 0.50545992568 0.81809369917 -0.26445068892 0.51054817446 
0.82074187273 -0.24921228977 0.51385408222 0.8237856984 -0.23378412128 0.51632040422 0.82777908915 -0.21790050638 0.5167717204 
0.83226784405 -0.20114316908 0.51640689036 0.83799500932 -0.18220152579 0.5140016948 0.84410176105 -0.16192153243 0.51084809053 
0.85119773807 -0.13815371771 0.50574408785 0.85834891047 -0.11291368573 0.50003747631 0.86565014533 -0.083671063101 0.49269252193 
0.87256947835 -0.053338904758 0.48499355886 0.87840470291 -0.019913870839 0.47628966792 0.88352271201 0.013705965351 0.46759461465 
0.88651298193 0.047903714944 0.45892577981 0.88871007093 0.081215415875 0.45075250216 0.88844556399 0.11177731061 0.44411716061 
0.88760207652 0.14050861701 0.4384029678 0.88487690232 0.16329051134 0.43568250841 0.88189176712 0.18367745117 0.43412063385 
0.87802083888 0.19590380535 0.43650652987 0.87408413314 0.20561401498 0.4400783167 0.86991214631 0.20632416913 0.44789194373 
0.86569479463 0.20473215661 0.45667490064 0.8613068711 0.19448399739 0.46910253789 0.85676732847 0.18238755061 0.48213177538 
0.8516276269 0.16297496556 0.49754234712 0.84620965025 0.14229224472 0.51316147498 0.83963017762 0.11630808752 0.52965109794 
0.83270864462 0.089641516422 0.54603520469 0.82427893639 0.059966120395 0.56195408084 0.81553234854 0.030052007223 0.57757539609 
0.8053069892 -0.00097611928597 0.5918080938 0.79482857762 -0.032026820071 0.60566841059 0.78309755742 -0.063189263521 0.61768544177 
0.77116297891 -0.094350113015 0.62931871388 0.75815704081 -0.12550257326 0.63893220133 0.74496949961 -0.15676149574 0.64814419819 
0.73076296325 -0.18861778964 0.6551033867 0.71635179339 -0.22073974444 0.66162070219 0.70071282258 -0.25445566465 0.66548677951 
0.68480128008 -0.28855356928 0.66885624793 0.66713505736 -0.32511049868 0.66902879658 0.64910592132 -0.36207231421 0.66864448607 
0.62856058629 -0.40184134022 0.66439928537 0.60754273333 -0.44194052311 0.65956341367 0.58298099603 -0.48451588256 0.65029750942 
0.55784459427 -0.52723958778 0.64046835217 0.52802246698 -0.5711728816 0.62604651665 0.49758323901 -0.61499632732 0.61116230018 
0.46164153 -0.65784029426 0.59215518691 0.42513282922 -0.7003180707 0.57284125104 0.38305730014 -0.73920052234 0.55051487493 
0.34057663016 -0.77752236645 0.52806383489 0.29367992437 -0.80973358836 0.504253958 0.2466227912 -0.84130307335 0.48049400455 
0.19760487897 -0.86502910703 0.45734422647 0.14868239726 -0.888171265 0.43435455519 0.10108401416 -0.90321214766 0.41358636564 
0.053771724573 -0.91781965354 0.39302042256 0.011036931145 -0.92549313073 0.37569042305 -0.0313215453 -0.93290663823 0.35855668784 
-0.066592718575 -0.93542404984 0.34511926349 -0.10149234575 -0.9378300826 0.33182530141 -0.12792072196 -0.9376966774 0.32180227913 
-0.15404520376 -0.93754608331 0.31185461694 -0.17143272139 -0.93690130873 0.30407355751 -0.18860971682 -0.9362790196 0.29631311488 
-0.19764652033 -0.93652616797 0.28934985533 -0.20656245707 -0.93679989236 0.28237516093 -0.20840768773 -0.93862831373 0.27473152856 
-0.21023741225 -0.9404413702 0.26715212838 -0.21023741225 -0.9404413702 0.26715212838 -0.21023741225 -0.9404413702 0.26715212838 

FrenetNormal 3 240 double
-0.67413040322 -0.26523359526 -0.68934703844 -0.67413040322 -0.26523359526 -0.68934703844 -0.67413040322 -0.26523359526 -0.68934703844 
-0.61291644115 -0.18456875531 -0.75821487284 -0.5511837167 -0.10322031502 -0.82766633296 -0.47158571251 -0.032446486719 -0.87350700854 
-0.39168231892 0.038146578989 -0.91894408097 -0.3006008912 0.084873225969 -0.94407201964 -0.20923037639 0.13098263798 -0.96867472209 
-0.10756361059 0.14810772811 -0.97758898646 -0.0055387143171 0.1642246679 -0.98595756603 0.10550392089 0.15355053012 -0.97597969665 
0.21694207096 0.14170134508 -0.96519715847 0.32489191547 0.11540432282 -0.93138619165 0.43265654023 0.088340158756 -0.89635247641 
0.52023082596 0.065841437828 -0.84516858316 0.60654321551 0.043628057096 -0.79297530378 0.66861113068 0.037840509724 -0.73811555082 
0.72893169634 0.033236806197 -0.68306361959 0.77120289448 0.045038016454 -0.63145648768 0.81199732619 0.05818144693 -0.58013120298 
0.84050038746 0.082949046589 -0.53194464888 0.86787580007 0.10878308379 -0.48404605171 0.88571098924 0.14161620988 -0.43813865817 
0.90257448897 0.17516220614 -0.39243407241 0.91093266239 0.21247751824 -0.3488658891 0.91833696743 0.25021555735 -0.30553730233 
0.91780548178 0.28975180248 -0.26560635679 0.91630073877 0.32950858231 -0.2260921031 0.90786357464 0.36932647148 -0.19118024109 
0.89850208769 0.40915250857 -0.15688203131 0.88353718327 0.44767619884 -0.12840075839 0.86776409364 0.48601205063 -0.10075846674 
0.84809779408 0.52183111032 -0.079920604379 0.82782672405 0.55725921201 -0.060139740736 0.80548664824 0.58930880135 -0.04799665758 
0.78280173812 0.62079530529 -0.037126537838 0.7613798378 0.64666239404 -0.032662437237 0.74018302834 0.67152800285 -0.029340003414 
0.73669456031 0.67586848209 -0.016738000604 0.73657067715 0.67630918671 -0.0023728796869 0.22469194572 0.048479245732 0.089009496265 
-0.39057160353 -0.70627405799 0.19595091364 -0.50395759032 -0.83455339242 0.2222606161 -0.50979838514 -0.82858830486 0.23129209394 
-0.49484429563 -0.82603750869 0.26609195232 -0.4751738406 -0.82426108788 0.30673618567 -0.4534932337 -0.81444838867 0.35733292324 
-0.4313310279 -0.80271033109 0.41031411495 -0.40988017876 -0.77878500955 0.46982639398 -0.38860904077 -0.75178080028 0.53098863191 
-0.36920370266 -0.70869361885 0.59564899823 -0.35029458793 -0.66132905122 0.66123971785 -0.33417197663 -0.5940127844 0.72543371411 
-0.3188283878 -0.52111862318 0.78923722858 -0.30591725871 -0.42678796427 0.84373900657 -0.29372000367 -0.32616615928 0.89551092711 
-0.28240887774 -0.20890144736 0.92820263258 -0.27137040692 -0.086515841 0.95502350264 -0.26049359451 0.040521284344 0.9563999005 
-0.24966887203 0.16905723247 0.94957752398 -0.24033620595 0.28908993014 0.91881940396 -0.23150648022 0.40625636362 0.8799930558 
-0.22598000316 0.50772157449 0.82393979423 -0.22161717051 0.60365567285 0.76181796089 -0.22030336612 0.68271900031 0.68915393141 
-0.22011104338 0.75557698675 0.61261231253 -0.22029358719 0.81286032466 0.53080432265 -0.22061997515 0.86416734396 0.44697551598 
-0.21814624973 0.90183815139 0.36266933331 -0.21455247897 0.93405447408 0.27817220025 -0.20642304956 0.95509890032 0.19792348895 
-0.19640376239 0.97148836972 0.11944495339 -0.18025031905 0.9801617233 0.049761832124 -0.16143627787 0.98548832785 -0.016106410661 
-0.13334021794 0.98710920816 -0.069439095875 -0.10105593004 0.98705799338 -0.11711549292 -0.048941569747 0.98588660985 -0.14754552267 
0.012475787479 0.98418971505 -0.16988466407 0.12459793137 0.96987000314 -0.16172427941 0.26143865876 0.9493966679 -0.1386953758 
0.47206669748 0.8240916997 -0.05489632833 0.72005540017 0.64570742367 0.059672412234 0.85216502972 0.36533543453 0.16624817985 
0.92336386442 0.03135451926 0.26862251297 0.91790380003 -0.19117357328 0.30958899539 0.87062979069 -0.35290921705 0.31706028652 
0.82843795619 -0.46240234433 0.30397055489 0.78912156272 -0.54233720569 0.27924761301 0.75470851477 -0.6051924539 0.24357662366 
0.72317209619 -0.6580276624 0.20148277981 0.6922164636 -0.70243734326 0.149712387 0.66161401169 -0.74172339246 0.092057606324 
0.62878040241 -0.77322151077 0.025180302004 0.59454085835 -0.7998121658 -0.04750845557 0.55658243233 -0.81648198204 -0.12697855895 
0.51619640282 -0.8266756952 -0.21087537417 0.47162101653 -0.82595705375 -0.2954970957 0.42421338904 -0.8178610458 -0.38060889474 
0.3729282707 -0.80193544284 -0.45881214389 0.31892890877 -0.78052912337 -0.53217940813 0.26252790132 -0.75677453005 -0.59387448 
0.20438657102 -0.73131828902 -0.64711144146 0.14261296052 -0.70867603835 -0.68766735735 0.078115139869 -0.68814428045 -0.71871248907 
0.0063479762319 -0.67221208768 -0.73690899821 -0.071061065542 -0.65984970663 -0.74513344208 -0.15881830541 -0.6495926476 -0.73825077738 
-0.25488546194 -0.64102622595 -0.71923664671 -0.35586524754 -0.62852654917 -0.68363148063 -0.46092629421 -0.61275924506 -0.63424299282 
-0.55341531091 -0.59096996977 -0.57952848856 -0.63510023935 -0.56400556301 -0.5202369389 -0.69511416813 -0.53771136273 -0.47429558864 