# vtk DataFile Version 5.1
vtk output
ASCII
DATASET POLYDATA
POINTS 240 float
0 0 0 -0.139541 -0.294507 0.103022 -0.279082 -0.589013 0.206045 
-0.442309 -0.883392 0.305587 -0.605736 -1.17777 0.4051 -0.786228 -1.46673 0.49289 
-0.967011 -1.7556 0.580479 -1.15837 -2.03392 0.648351 -1.35 -2.31197 0.715712 
-1.54592 -2.57474 0.755848 -1.74199 -2.83698 0.795038 -1.93647 -3.07996 0.800429 
-2.13087 -3.3221 0.804338 -2.31847 -3.54235 0.769488 -2.50571 -3.76143 0.732581 
-2.682 -3.958 0.6544 -2.85761 -4.15315 0.57364 -3.01951 -4.32772 0.452283 
-3.18042 -4.50079 0.328001 -3.32643 -4.65791 0.167372 -3.47123 -4.81371 0.00376936 
-3.60145 -4.96032 -0.188754 -3.73034 -5.10608 -0.383931 -3.84627 -5.25045 -0.598483 
-3.96089 -5.39468 -0.815009 -4.06501 -5.54485 -1.04091 -4.16795 -5.69569 -1.26787 
-4.26311 -5.85793 -1.49557 -4.35731 -6.02157 -1.72337 -4.44604 -6.19929 -1.94605 
-4.53405 -6.37889 -2.16805 -4.61782 -6.57241 -2.3825 -4.70097 -6.76794 -2.59586 
-4.77938 -6.97501 -2.80237 -4.85704 -7.18387 -3.00783 -4.92723 -7.40075 -3.20936 
-4.99618 -7.61898 -3.41023 -5.05284 -7.8417 -3.61103 -5.10731 -8.06523 -3.81182 
-5.14316 -8.29041 -4.01612 -5.17547 -8.51589 -4.22109 -5.18256 -8.74106 -4.43198 
-5.18455 -8.96615 -4.64406 -5.15588 -9.18958 -4.86269 -5.12064 -9.41265 -5.08272 
-5.05179 -9.6329 -5.30782 -4.97531 -9.85251 -5.53407 -4.8656 -10.0679 -5.76155 
-4.74794 -10.2823 -5.98933 -4.60102 -10.4907 -6.21213 -4.44671 -10.6975 -6.43368 
-4.27017 -10.8959 -6.64188 -4.08773 -11.092 -6.84653 -3.89217 -11.2767 -7.02796 
-3.69294 -11.4583 -7.2029 -3.49046 -11.6254 -7.34428 -3.28702 -11.7884 -7.47581 
-3.08953 -11.9341 -7.56458 -2.89386 -12.0746 -7.64019 -2.71143 -12.1958 -7.66657 
-2.53325 -12.3109 -7.6771 -2.37287 -12.4058 -7.63602 -2.21848 -12.4938 -7.57754 
-2.08346 -12.5621 -7.4696 -1.95526 -12.6235 -7.34425 -1.8454 -12.6669 -7.17571 
-1.74228 -12.7037 -6.99128 -1.65475 -12.7254 -6.77273 -1.57321 -12.7413 -6.54109 
-1.50404 -12.7454 -6.28534 -1.43983 -12.7446 -6.01996 -1.38557 -12.7346 -5.73984 
-1.33545 -12.7206 -5.45358 -1.29431 -12.6988 -5.16014 -1.25707 -12.6736 -4.8636 
-1.22942 -12.6408 -4.56508 -1.20609 -12.6047 -4.26567 -1.19397 -12.5609 -3.96717 
-1.18709 -12.5134 -3.6691 -1.1931 -12.4586 -3.37301 -1.2054 -12.4002 -3.07787 
-1.23148 -12.3357 -2.78466 -1.26455 -12.2682 -2.49242 -1.31078 -12.1975 -2.20168 
-1.36393 -12.1251 -1.91173 -1.42775 -12.0538 -1.62313 -1.49738 -11.9829 -1.33525 
-1.57335 -11.918 -1.04923 -1.65289 -11.8564 -0.764241 -1.73303 -11.8059 -0.482362 
-1.81351 -11.762 -0.202305 -1.88827 -11.734 0.0727935 -1.95957 -11.7158 0.344876 
-2.01938 -11.718 0.609919 -2.07196 -11.733 0.870527 -2.10888 -11.7718 1.12224 
-2.13559 -11.8261 1.36814 -2.14488 -11.9064 1.60398 -2.14238 -12.0041 1.833 
-2.12342 -12.128 2.05177 -2.09292 -12.2701 2.26335 -2.04927 -12.4368 2.46557 
-1.9961 -12.6211 2.66101 -1.93476 -12.8265 2.8489 -1.8673 -13.0477 3.03114 
-1.79723 -13.2853 3.20824 -1.72513 -13.5357 3.38135 -1.65554 -13.7972 3.55186 
-1.58797 -14.0679 3.72029 -1.52682 -14.3448 3.88836 -1.47101 -14.627 4.05613 
-1.42391 -14.9116 4.22514 -1.38432 -15.1982 4.39519 -1.35405 -15.4842 4.56713 
-1.33208 -15.7698 4.74075 -1.31849 -16.0533 4.91588 -1.31262 -16.3351 5.09241 
-1.31302 -16.6145 5.26912 -1.31938 -16.8918 5.446 -1.32919 -17.1677 5.62101 
-1.34241 -17.442 5.79419 -1.35611 -17.7161 5.96316 -1.37032 -17.9901 6.12783 
-1.38241 -18.2653 6.2861 -1.39228 -18.5419 6.43762 -1.39813 -18.821 6.58118 
-1.39961 -19.1029 6.71607 -1.39606 -19.3881 6.84233 -1.38684 -19.6772 6.95888 
-1.37236 -19.9699 7.06716 -1.35175 -20.2668 7.1658 -1.32621 -20.5673 7.25742 
-1.29472 -20.8719 7.34057 -1.25882 -21.1794 7.41854 -1.21742 -21.4905 7.49006 
-1.17198 -21.8036 7.55851 -1.12134 -22.1194 7.623 -1.06668 -22.4362 7.68647 
-1.00667 -22.7545 7.7486 -0.942207 -23.0727 7.81147 -0.871607 -23.391 7.87536 
-0.795754 -23.7081 7.94128 -0.712394 -24.0235 8.01011 -0.622765 -24.3363 8.08175 
-0.523863 -24.6454 8.15757 -0.417663 -24.9502 8.2365 -0.300285 -25.2486 8.3202 
-0.174732 -25.541 8.40693 -0.0362045 -25.8237 8.49844 0.111124 -26.0981 8.59258 
0.272927 -26.3588 8.69105 0.443849 -26.6091 8.79163 0.630316 -26.8414 8.89579 
0.825862 -27.061 9.0015 1.03745 -27.2584 9.10994 1.25766 -27.4415 9.21943 
1.49368 -27.5988 9.33087 1.73738 -27.7412 9.44301 1.99572 -27.8555 9.55649 
2.26037 -27.9555 9.67052 2.53748 -28.0272 9.78566 2.81914 -28.0862 9.90142 
3.11011 -28.1191 10.0185 3.4036 -28.1418 10.1365 3.70249 -28.143 10.2565 
4.00184 -28.1371 10.3781 4.30221 -28.1158 10.5029 4.60112 -28.0908 10.6299 
4.89666 -28.0573 10.7617 5.18913 -28.0231 10.8964 5.47424 -27.9872 11.0376 
5.75516 -27.9526 11.182 6.02561 -27.9215 11.3344 6.29134 -27.8926 11.4901 
6.54477 -27.8695 11.6546 6.79357 -27.8483 11.822 7.02981 -27.8321 11.9976 
7.26215 -27.8163 12.1754 7.48343 -27.8014 12.3594 7.70204 -27.7849 12.5444 
7.91274 -27.7633 12.7324 8.12235 -27.738 12.9201 8.32853 -27.7014 13.1064 
8.53526 -27.6597 13.2908 8.74378 -27.6018 13.4694 8.95432 -27.5384 13.6451 
9.17176 -27.4567 13.8109 9.39231 -27.3701 13.973 9.62395 -27.2665 14.1224 
9.85921 -27.1596 14.2683 10.1081 -27.04 14.4008 10.3606 -26.919 14.5304 
10.6272 -26.792 14.6483 10.8968 -26.6656 14.7643 11.179 -26.5414 14.8724 
11.4632 -26.4196 14.9801 11.7563 -26.3084 15.0854 12.0503 -26.2012 15.1915 
12.3485 -26.1125 15.3014 12.6463 -26.029 15.4133 12.9427 -25.971 15.5347 
13.2377 -25.9188 15.6588 13.5255 -25.8974 15.7966 13.811 -25.8822 15.9373 
14.0839 -25.9014 16.0939 14.354 -25.9266 16.2529 14.607 -25.9881 16.4272 
14.8567 -26.0553 16.6033 15.0857 -26.1591 16.7914 15.3113 -26.268 16.9804 
15.5134 -26.4126 17.1761 15.7122 -26.5617 17.3717 15.8857 -26.7444 17.5675 
16.0559 -26.9308 17.7625 16.1995 -27.148 17.9511 16.34 -27.3683 18.1383 
16.4527 -27.616 18.3135 16.5625 -27.866 18.487 16.6439 -28.1394 18.6445 
16.7227 -28.4146 18.8005 16.7731 -28.7086 18.939 16.8213 -29.0038 19.0761 
16.8423 -29.3127 19.1967 16.8616 -29.6222 19.3164 16.8569 -29.9391 19.423 
16.851 -30.2561 19.5292 16.8266 -30.5729 19.6281 16.8016 -30.8893 19.727 
16.7662 -31.1962 19.8265 16.7307 -31.5023 19.9265 16.6952 -31.788 20.0365 
16.6602 -32.0725 20.1473 16.6374 -32.3241 20.2791 16.6154 -32.5745 20.4118 
16.6192 -32.7781 20.5772 16.6238 -32.9807 20.7434 16.6688 -33.1219 20.9547 
16.7142 -33.2625 21.1664 16.8148 -33.3267 21.4359 16.9155 -33.3909 21.7053 

LINES 2 240
OFFSETS vtktypeint64
0 240 
CONNECTIVITY vtktypeint64
0 1 2 3 4 5 6 7 8 
9 10 11 12 13 14 15 16 17 
18 19 20 21 22 23 24 25 26 
27 28 29 30 31 32 33 34 35 
36 37 38 39 40 41 42 43 44 
45 46 47 48 49 50 51 52 53 
54 55 56 57 58 59 60 61 62 
63 64 65 66 67 68 69 70 71 
72 73 74 75 76 77 78 79 80 
81 82 83 84 85 86 87 88 89 
90 91 92 93 94 95 96 97 98 
99 100 101 102 103 104 105 106 107 
108 109 110 111 112 113 114 115 116 
117 118 119 120 121 122 123 124 125 
126 127 128 129 130 131 132 133 134 
135 136 137 138 139 140 141 142 143 
144 145 146 147 148 149 150 151 152 
153 154 155 156 157 158 159 160 161 
162 163 164 165 166 167 168 169 170 
171 172 173 174 175 176 177 178 179 
180 181 182 183 184 185 186 187 188 
189 190 191 192 193 194 195 196 197 
198 199 200 201 202 203 204 205 206 
207 208 209 210 211 212 213 214 215 
216 217 218 219 220 221 222 223 224 
225 226 227 228 229 230 231 232 233 
234 235 236 237 238 239 
CELL_DATA 1
FIELD FieldData 3
Length 1 1 double
72.786764184 
Tortuosity 1 1 double
0.68219199752 
ClusterLabel 1 1 int
1 
POINT_DATA 240
FIELD FieldData 6
Curvature 1 240 double
0 0.046063798286 0.092127596572 0.090166961997 0.087799340704 0.093615072552 0.099570690779 0.11350979084 0.12765536027 
0.15046249462 0.17357090079 0.20498726789 0.23676801923 0.2705605731 0.30445994833 0.32453111903 0.34373802694 0.33386241843 
0.32189077269 0.28537985358 0.24686117573 0.20282017155 0.15827253193 0.12656082458 0.096156480696 0.089798301012 0.086136887406 
0.092313349026 0.099696342513 0.1016927025 0.10297084469 0.097028489359 0.090044716113 0.082142699187 0.074098042467 0.077019028216 
0.081767621043 0.098541923508 0.11745942175 0.13841165347 0.15975048456 0.1755897664 0.1903180282 0.1956376427 0.19894111849 
0.19409302092 0.1873961129 0.17747604857 0.16678376969 0.15870322046 0.15128247661 0.15172639509 0.15426197908 0.17162102219 
0.19312425817 0.2424217238 0.29987619162 0.40839056254 0.53261567288 0.70975823408 0.90395197389 1.0158657213 1.1000446398 
1.0043683262 0.84533391956 0.67019035006 0.48912157123 0.36508766666 0.26293923709 0.19992544421 0.15256550602 0.12572389709 
0.10743159201 0.10031021533 0.098034060602 0.10136224547 0.10721921772 0.11354991686 0.12010285824 0.12331379265 0.12489549867 
0.12120685057 0.11484966874 0.10520064354 0.093821290422 0.084688401279 0.076780856121 0.080150250334 0.089900018138 0.11209112324 
0.14158114623 0.1809654277 0.22636648799 0.27762891443 0.33258480447 0.37937587121 0.42083712275 0.43592173588 0.43317425544 
0.40485815716 0.35864402641 0.30610438047 0.24898102788 0.19887077612 0.15402034998 0.11981349152 0.093867312471 0.078449372336 
0.071485927089 0.070057211207 0.073226578182 0.076050067596 0.078576318481 0.078362947976 0.075714358458 0.069912379462 0.061211316589 
0.050934522512 0.039159492208 0.033534978279 0.033958472121 0.042035348335 0.057895325268 0.073493262081 0.088815604977 0.10102469835 
0.10984745013 0.11466509186 0.11497698478 0.11178610607 0.10451927491 0.095425575835 0.084132869092 0.072936211647 0.06185916276 
0.052929291328 0.046765975463 0.044145236019 0.0462479318 0.05066054736 0.058260852214 0.066581534634 0.075931327862 0.08567691343 
0.096007941833 0.10675221556 0.11812954595 0.13034742675 0.14389922453 0.1583311594 0.17421043081 0.19068954615 0.20819112274 
0.22474961915 0.23964127619 0.25145376428 0.2576211093 0.25919681343 0.25203720074 0.24087648877 0.2218136057 0.20070553848 
0.1754022217 0.15016508568 0.12506901915 0.10186963582 0.082873712545 0.068676862521 0.065544542507 0.066630257783 0.077839257756 
0.088967909585 0.099895691051 0.10832342708 0.1102358932 0.10916209634 0.09996939701 0.090762675022 0.081516146787 0.077485462794 
0.088928450056 0.10325054325 0.1265077928 0.14792106805 0.16334142681 0.17515691669 0.17468914969 0.17125749413 0.15722423724 
0.14218016754 0.12333544165 0.10526731197 0.090273208916 0.078105852903 0.077737093238 0.080197932634 0.095134731525 0.11125390116 
0.13289080091 0.15462314138 0.17682791342 0.19843018332 0.21686138932 0.23410924512 0.24471719143 0.25406335777 0.2558388443 
0.25681280403 0.25262693507 0.24816293534 0.24177056227 0.23550175297 0.23015967195 0.22500738361 0.22140263561 0.21770821861 
0.21321425312 0.20847556874 0.20133418981 0.19377020197 0.18159977693 0.16906654884 0.15209906136 0.13486702511 0.11396437454 
0.093201699166 0.074678626808 0.057798817041 0.07186711939 0.087775484256 0.14563727451 0.20497347807 0.30669906427 0.4090804954 
0.53682126356 0.66284065991 0.68815980464 0.71028180612 0.35514090306 0 
Torsion 1 240 double
0 0 0 0.21782383235 0.43749362938 0.39993808781 0.35798553192 0.30795829326 0.25772222661 
0.22000336026 0.18271987478 0.16025002468 0.13842989544 0.12925080755 0.12074292539 0.1247705645 0.12958167369 0.15210273601 
0.17590019134 0.23610562854 0.29928990062 0.45869210564 0.62692164396 0.94830216306 1.2852813932 1.1925710355 1.0516711913 
0.75420994958 0.4375477817 0.2523504579 0.084681779978 -0.093462986702 -0.27311872772 -0.53448168692 -0.80853702952 -0.80919513369 
-0.76428703145 -0.55709150247 -0.32097346181 -0.19475549387 -0.089418539747 -0.037026872398 0.00466877742 0.030409724919 0.052731807635 
0.075404487356 0.098156683923 0.12969481309 0.16333790528 0.20710276049 0.25342469267 0.2949937488 0.33529874213 0.33878731362 
0.33198312201 0.29245407519 0.24332099477 0.19031033009 0.13610656256 0.096811274377 0.062319829546 0.041817816075 0.026031341264 
0.014599788203 0.0047023553043 -0.0054427289505 -0.015678903359 -0.025769752148 -0.035804836456 -0.045991523771 -0.056238852289 -0.053115980541 
-0.044422192015 -0.019911785205 0.011458841584 0.043429054611 0.075669812649 0.10457890378 0.13192499067 0.16629401604 0.20408672392 
0.26573892473 0.33947188145 0.4725922197 0.63692900208 0.87091578883 1.142893487 1.1543217947 1.0183339998 0.80454331557 
0.54510826965 0.36581762211 0.23526343306 0.14470214477 0.079341862452 0.030611536689 -0.0072631229858 -0.040319584025 -0.070118671339 
-0.10502594395 -0.14350894626 -0.19865504861 -0.26587586113 -0.36890206394 -0.49878230946 -0.668976821 -0.87046001659 -0.94237302354 
-0.91023724262 -0.77740895714 -0.56092843709 -0.39131338517 -0.26197334493 -0.15475770145 -0.067208188429 0.044420958432 0.17818783318 
0.50361244113 1.0112689921 1.2959841949 1.3614737385 1.1340195562 0.60865650004 0.28527382161 0.1743187818 0.1018182913 
0.071145556195 0.052995295665 0.048932819037 0.055048392194 0.073007514195 0.10839604157 0.16476440876 0.25673171892 0.39302978826 
0.53881222751 0.6968149126 0.73429121085 0.61106565997 0.4670860713 0.29446591048 0.15994052775 0.079836256574 0.019462015504 
-0.011728222706 -0.034100594064 -0.04296474386 -0.047660594328 -0.04574153499 -0.042044988683 -0.035425463803 -0.028271220968 -0.020205527074 
-0.012254524975 -0.0045062339567 0.0034963648855 0.011965194738 0.021475801561 0.032968325547 0.047793542664 0.069200828715 0.098550377294 
0.14419174645 0.21127313427 0.32405561452 0.4881191124 0.76583243314 0.97028572954 1.0058339698 0.93596728115 0.61310476313 
0.33405436024 0.16453424518 0.0059378444174 -0.12419069481 -0.28324277148 -0.52093071552 -0.80580265033 -1.2246162364 -1.4774803844 
-1.2380278663 -0.99217367366 -0.726452215 -0.50495122571 -0.4271667619 -0.36469936591 -0.3544234603 -0.35403913908 -0.38903625432 
-0.43931404206 -0.5470471584 -0.67626883139 -0.89054937449 -1.0596830175 -1.0403774253 -0.97886016268 -0.73122780819 -0.50330789093 
-0.36737934744 -0.24344843086 -0.17890576754 -0.11833164555 -0.078644583274 -0.040417513797 -0.01038262615 0.019025287745 0.044671359132 
0.06953118623 0.089329565714 0.1079740272 0.11861799054 0.12748898258 0.12306268989 0.11699988602 0.097593221795 0.077646060496 
0.052879466986 0.027965599374 0.0016057678516 -0.024983240702 -0.054070278887 -0.084662781773 -0.13365540877 -0.18953007548 -0.34089304338 
-0.52183711996 -1.1760789355 -1.7825723121 -1.4898034244 -1.1915285973 -0.76771835485 -0.35461409445 -0.24930681838 -0.14570240948 
-0.10794219773 -0.070224003759 -0.034963849973 0 0 0 
FrenetTangent 3 240 double
-0.43748166455 -0.85034010121 0.29245769858 -0.43748166455 -0.85034010121 0.29245769858 -0.43748166455 -0.85034010121 0.29245769858 
-0.46336233239 -0.84035244155 0.27954051546 -0.48946232792 -0.83028014071 0.26651386468 -0.51210187306 -0.8226185892 0.24495510499 
-0.5346822652 -0.81499824707 0.22325049728 -0.55486824078 -0.80870297121 0.19140068309 -0.57499229179 -0.80244196431 0.15928849286 
-0.59255895003 -0.79583232485 0.11452070371 -0.61003665549 -0.78921055905 0.069312719819 -0.62306346703 -0.77955632146 0.009005105699 
-0.63589506393 -0.76976908073 -0.051964772904 -0.64023602833 -0.75336508169 -0.12781271563 -0.64412616268 -0.73660975035 -0.20445064407 
-0.63479295993 -0.71084841551 -0.28919353757 -0.62463329861 -0.68452420545 -0.37444299138 -0.60035543199 -0.65202844612 -0.45427862697 
-0.57506003706 -0.61908789044 -0.53372407746 -0.54144198804 -0.58854131253 -0.59556836439 -0.5071429946 -0.55819060553 -0.65597255611 
-0.47281817837 -0.5386713768 -0.69524044566 -0.43849099308 -0.52014586167 -0.73256922491 -0.40946346585 -0.51589438954 -0.75171485754 
-0.38097571861 -0.51309675513 -0.76900850301 -0.35918982957 -0.52307707316 -0.77252698829 -0.3381555508 -0.53449043259 -0.77450059578 
-0.32285183161 -0.55423116577 -0.76672881719 -0.3082509169 -0.57499318064 -0.75776184974 -0.29726842724 -0.59859746325 -0.7432361244 
-0.28676839426 -0.62258071488 -0.72796923135 -0.27709959453 -0.64472100801 -0.7118455678 -0.2675506842 -0.66659548982 -0.69559833157 
-0.25553165061 -0.68399035246 -0.6828509665 -0.24312890855 -0.70068935193 -0.67064727074 -0.22474409132 -0.71224594885 -0.66459552178 
-0.20536226157 -0.72294547868 -0.65956909728 -0.17686760249 -0.72873261366 -0.66086628587 -0.14674887482 -0.73364427234 -0.66329045501 
-0.10589151136 -0.73372379288 -0.66975964173 -0.062993807111 -0.73288520717 -0.67699738181 -0.010587763614 -0.72699103646 -0.68438482718 
0.043739156497 -0.72007553545 -0.69180251605 0.10321184639 -0.70840671457 -0.69552948368 0.16378720125 -0.69571932514 -0.69846558247 
0.2238224291 -0.67989940707 -0.69560486967 0.28373515393 -0.66336901858 -0.69142941611 0.33895341162 -0.64630838461 -0.68128043762 
0.39304695322 -0.62912071265 -0.66970030211 0.44130174182 -0.61379001492 -0.65257620661 0.48808147702 -0.59892844751 -0.63405153174 
0.53036559074 -0.58736244292 -0.60935635873 0.57145406045 -0.57667291779 -0.58302009581 0.61053553233 -0.56981890984 -0.54745086629 
0.64905590804 -0.56403719701 -0.50930037731 0.6878051786 -0.56141438971 -0.45492447878 0.72662162482 -0.55971865252 -0.39578677527 
0.76441248138 -0.55743570487 -0.3076218694 0.80188777188 -0.55497207708 -0.21052551665 0.82458000647 -0.5404215932 -0.070505956537 
0.84250881193 -0.52197645569 0.083344414838 0.81698765092 -0.47555274357 0.26230352601 0.77682043379 -0.41969805125 0.44972625733 
0.69770561314 -0.34658151981 0.60093857803 0.60487061397 -0.26738411324 0.73939495863 0.51550144649 -0.19840702545 0.82442813486 
0.42740706768 -0.13318913538 0.88981139683 0.35918954645 -0.084237037801 0.92637800748 0.29859919149 -0.041526465246 0.95188706587 
0.25339975997 -0.0096283253494 0.96617556542 0.21435669781 0.017944841484 0.97597584144 0.18355673678 0.040218285044 0.98163967028 
0.15619140121 0.060283510573 0.98557997947 0.13147414546 0.078705940526 0.98778707783 0.10790545446 0.096415832638 0.98924242209 
0.083223579285 0.11441114018 0.98949917852 0.05803941369 0.13253523273 0.98921510873 0.030003791397 0.15097517717 0.98752684969 
0.00063044867755 0.16956329903 0.98517983521 -0.031189146286 0.18685409311 0.98125676957 -0.064201289218 0.2035124399 0.97656537898 
-0.0975163351 0.21643296664 0.97082638731 -0.13098474956 0.22746092627 0.96455696471 -0.16193190336 0.23266326103 0.95855790334 
-0.19155377912 0.23480340835 0.95270095493 -0.2161606113 0.2300003629 0.94861979657 -0.23803196516 0.22141012139 0.94550725096 
-0.25301281809 0.20513877034 0.945209945 -0.26409509812 0.18452152837 0.94650547199 -0.26672031741 0.15525064576 0.95063082889 
-0.26438406106 0.12090296063 0.95641635268 -0.25204138827 0.076316754878 0.9633697524 -0.2336137325 0.02550442171 0.97103334694 
-0.20412126186 -0.036872021231 0.97554027919 -0.16765644212 -0.10653543745 0.97805808178 -0.1216972437 -0.18542417939 0.97067671406 
-0.069540325874 -0.27033500894 0.95683338795 -0.014599292343 -0.35584423473 0.92900706388 0.042223960254 -0.44175801007 0.89172744543 
0.092773323649 -0.51835687095 0.84526953692 0.1389309646 -0.58843529171 0.79238682537 0.17402080779 -0.64594224804 0.74006460597 
0.20109050766 -0.69433944755 0.6881485403 0.21762401983 -0.73275498385 0.64308166373 0.22625539123 -0.76368427274 0.603151679 
0.22687702843 -0.78808468065 0.57149025587 0.2212821555 -0.80741789735 0.54624622382 0.21009958415 -0.82245093374 0.52820977206 
0.19442992163 -0.83403079504 0.51596122568 0.17519640614 -0.84246491202 0.50905179471 0.15300215124 -0.84828564141 0.50657793656 
0.12911834222 -0.8516820199 0.50739202536 0.10378257262 -0.85299497184 0.51103169357 0.078646279331 -0.8527170103 0.51591698558 
0.053687298326 -0.85102490344 0.52190949875 0.030714496032 -0.84892943721 0.527263278 0.0095676967448 -0.8464631406 0.53202983412 
-0.0081919678734 -0.84493365399 0.53465629147 -0.022731078216 -0.84429490476 0.53524790081 -0.03310249345 -0.84563355631 0.5326777934 
-0.039375675159 -0.84891665198 0.52699866454 -0.041392212766 -0.85450650385 0.51761408715 -0.039079959763 -0.86244220951 0.50446125703 
-0.033085667213 -0.87212777966 0.48765975717 -0.023218884796 -0.88365372454 0.46702086328 -0.010809062716 -0.89572887701 0.44356679045 
0.0043668726827 -0.90840141319 0.41705059317 0.020676703159 -0.9203882435 0.38926249725 0.038262165598 -0.9316036547 0.36004351538 
0.055747385968 -0.94139538774 0.33143275834 0.073115961024 -0.94953047711 0.30352975385 0.089713057639 -0.95613396968 0.27784235291 
0.1053815228 -0.96089387351 0.25482188216 0.12027349633 -0.96438081679 0.23492094471 0.13419851802 -0.9662825639 0.21890470908 
0.14783720664 -0.96718582684 0.20621915004 0.16110696611 -0.96680258134 0.1978250397 0.17480036869 -0.96553612494 0.19246285851 
0.18905862874 -0.96309205402 0.19114324952 0.20444509441 -0.95969445198 0.1922727049 0.22138848386 -0.95498097699 0.19678186909 
0.24000013607 -0.94910122454 0.20304903657 0.26099502082 -0.94155536144 0.2118276373 0.28397968538 -0.93252445076 0.22170101028 
0.30990756591 -0.9212969072 0.23319373389 0.33796591532 -0.90815460245 0.24523209166 0.36928796172 -0.89207904651 0.25810631451 
0.40274719134 -0.87350450688 0.27111797638 0.43959803781 -0.85096418878 0.28434774798 0.47840906286 -0.825158449 0.29740430195 
0.52044349266 -0.79398290468 0.31017600915 0.56385799419 -0.75872063265 0.32245663204 0.60962489068 -0.7164923475 0.3339001794 
0.65552530448 -0.66971941523 0.3444699502 0.70166170234 -0.61491408337 0.35349537173 0.74603723733 -0.55620242303 0.36128232427 
0.78718452372 -0.49032916048 0.36679875031 0.82477531263 -0.42264688821 0.37103747424 0.85560008195 -0.35152308526 0.37284544783 
0.88216295789 -0.28150286083 0.37386145528 0.90030859443 -0.21366220398 0.37331332962 0.91479246001 -0.14935989511 0.3728635323 
0.92176500055 -0.092315735909 0.37261543417 0.92630763592 -0.040021828063 0.37334810678 0.92567073657 0.0021465440057 0.37617136964 
0.92367192478 0.039407174741 0.38060829445 0.91865482055 0.065791189547 0.38862144302 0.91282287892 0.087710879281 0.39856471912 
0.90511228439 0.099337819546 0.41295801148 0.89666074749 0.10733560966 0.42919710171 0.88643094891 0.10662343943 0.44986610679 
0.8753147649 0.10356012228 0.47186530247 0.86198261732 0.094618937821 0.49718997463 0.84782842501 0.085057217269 0.52289802466 
0.8315319343 0.073878342049 0.54960518067 0.81499783765 0.064042022305 0.57554741277 0.79781774988 0.057855775262 0.599410008 
0.78135863099 0.054642731733 0.62149316452 0.76694613342 0.059869749795 0.63852501111 0.75414508865 0.068748685809 0.65293099391 
0.74612468716 0.08846164508 0.65954691412 0.74004913428 0.11130656553 0.66291991513 0.74000931844 0.14387136549 0.65622868412 
0.74156996193 0.17795590258 0.64619591759 0.74833209823 0.21697958533 0.62530316063 0.75603704843 0.25539065099 0.60181341247 
0.76695454964 0.29171428065 0.56947465725 0.77822424357 0.32573059181 0.53610503866 0.79075370377 0.35149380216 0.49904810111 
0.80333591387 0.37427838156 0.46261881792 0.81611646363 0.38586330858 0.42854951509 0.82885244121 0.39456696174 0.39626884468 
0.84141198728 0.39186557253 0.37106817758 0.85383368235 0.38665269664 0.34824364285 0.86567999931 0.3709570938 0.33533687798 
0.87720088493 0.35305983257 0.3249246978 0.88728691416 0.32545525933 0.32551136828 0.8967020511 0.29581687892 0.3284048494 
0.90298635728 0.25668739834 0.34206344677 0.90811529849 0.21569656582 0.35754218847 0.90752518313 0.16549204116 0.38203064459 
0.90530725982 0.11377556202 0.4075594239 0.89452192625 0.054101427689 0.43856358835 0.88190502147 -0.0065065389823 0.46963602442 
0.85901096713 -0.072354342655 0.50109154011 0.83451186367 -0.13844028995 0.53171765454 0.80038246549 -0.20595509899 0.55736736135 
0.76517450009 -0.27315683484 0.58164828622 0.72302325826 -0.33834316197 0.59711767735 0.68032948049 -0.40292036943 0.61108723424 
0.63387412028 -0.46327434711 0.61465794042 0.58722326209 -0.52293450349 0.61686246151 0.53910616897 -0.57739100008 0.60882059451 
0.4909156101 -0.6311500648 0.599674752 0.44212602282 -0.67922237741 0.58152726307 0.39330177546 -0.7265491397 0.56260952483 
0.34416847578 -0.76722807833 0.53682373026 0.29507296702 -0.80710342168 0.51064086606 0.24634849637 -0.83908892042 0.48055950002 
0.19780612718 -0.87026890002 0.45047333472 0.15124866408 -0.89266872098 0.42033485746 0.10505812232 -0.91436480058 0.39054473088 
0.063352174798 -0.9274595969 0.36501222397 0.022168295812 -0.94003106584 0.34008937386 -0.011771882246 -0.9453413674 0.32362551197 
-0.045101631617 -0.95030029374 0.30794535335 -0.068664522002 -0.94963721641 0.30480444696 -0.091568846819 -0.94870188063 0.30256250987 
-0.10207018675 -0.94263901075 0.31725116119 -0.11184140891 -0.93621583301 0.33293796686 -0.10496594597 -0.92157763627 0.37138269163 
-0.097256163547 -0.90624937648 0.41084267083 -0.065559696273 -0.87108180416 0.47949121509 -0.033032597405 -0.8347341674 0.54876715269 
0.031612256438 -0.75275737209 0.64230229954 0.096619650517 -0.6697016528 0.7355336534 0.18283564844 -0.52352888014 0.81099311746 
0.26832714217 -0.37858445011 0.88581846837 0.26832714217 -0.37858445011 0.88581846837 0.26832714217 -0.37858445011 0.88581846837 

FrenetNormal 3 240 double
-0.88944188712 0.36134602009 -0.27986100694 -0.88944188712 0.36134602009 -0.27986100694 -0.88944188712 0.36134602009 -0.27986100694 
-0.83584894906 0.32219913194 -0.41686846305 -0.78180183357 0.2827204905 -0.55503699931 -0.69893045518 0.23882119854 -0.65929600407 
-0.61556635435 0.19484633991 -0.76297535873 -0.52937087028 0.16814293638 -0.82439914905 -0.44310216077 0.14188620841 -0.88473012305 
-0.36405260852 0.13914111484 -0.91698628502 -0.28525415738 0.13721381724 -0.9482659318 -0.20960312126 0.15643165976 -0.96191599462 
-0.13409012966 0.17657692071 -0.97479283007 -0.055436432956 0.21199324567 -0.97180498284 0.023384026854 0.24822042358 -0.96797476309 
0.10688886178 0.28952172838 -0.94627476756 0.19068647015 0.33114016611 -0.92345791105 0.27615047766 0.36212698239 -0.88472837271 
0.36173458601 0.39234755568 -0.84485197442 0.44878992913 0.39291046032 -0.7963437022 0.53596564599 0.39104682844 -0.74712918576 
0.63579580009 0.32651344458 -0.68562281089 0.73678691174 0.25623054218 -0.62298874258 0.8272330341 0.048937040477 -0.48497122284 
0.91660512978 -0.17231124448 -0.33927575897 0.82142460344 -0.41983924656 -0.097751162139 0.70554658677 -0.67031450664 0.15452062717 
0.56198779618 -0.74303621547 0.3006007641 0.41503419368 -0.79395796047 0.43365739648 0.35296976779 -0.79034310714 0.49536548414 
0.30222389877 -0.77945670737 0.5475604325 0.32756060765 -0.75951739531 0.56038564983 0.36387076525 -0.73827237475 0.56753254056 
0.49870714408 -0.68533835468 0.4997532281 0.64884856698 -0.62748177159 0.42033489379 0.79038721301 -0.48476421941 0.25241502568 
0.93049206289 -0.32790317237 0.069744901939 0.96651363844 -0.19759199337 -0.040567848842 0.98398571955 -0.07201247401 -0.13798522622 
0.98507174598 0.0031857370977 -0.15920876041 0.98304442202 0.068811499638 -0.16595546438 0.98178745364 0.11685409004 -0.13931722544 
0.98068611264 0.16134452445 -0.1059345536 0.97648068618 0.19831420124 -0.057082196757 0.97161009854 0.2336722871 -0.0049149074214 
0.96170873231 0.26005645966 0.055260567329 0.95066636475 0.28440531168 0.11725233156 0.93477209318 0.29361159656 0.18652569343 
0.91771538626 0.29918997474 0.25754360474 0.89345496042 0.28409396279 0.33696947445 0.86737464768 0.26377494703 0.41851945996 
0.82671682218 0.22193594 0.50561524927 0.7821819986 0.17437353104 0.59418598638 0.71866526364 0.12168559342 0.6748750419 
0.64984175775 0.067564712293 0.75336061653 0.56883844025 0.036384916862 0.81522691263 0.48426061283 0.011937831361 0.87221581177 
0.38529652839 0.022951163503 0.91591692531 0.28190590333 0.044875393382 0.95552948945 0.14968231991 0.10164864957 0.97152094761 
0.0081681165772 0.16965103646 0.97990116051 -0.15374320639 0.25190459913 0.93555722455 -0.32252996295 0.33896192893 0.87344110359 
-0.4606778454 0.40576152946 0.76887560848 -0.5880324881 0.46542488446 0.64935635656 -0.66743750807 0.50017626226 0.53771046471 
-0.72920588519 0.52576461395 0.42896052138 -0.76320317452 0.540985483 0.34511422526 -0.78654411622 0.55222813195 0.27082397982 
-0.79655295349 0.5631392537 0.21452596734 -0.80122894898 0.57391776456 0.16542484805 -0.80043756559 0.58497433264 0.1257079182 
-0.79736810767 0.59614675789 0.08990106727 -0.79760775275 0.59967204632 0.05838003723 -0.79928267142 0.59988050433 0.028717917453 
-0.8072389582 0.58931907078 -0.00024629932212 -0.81802952083 0.573898052 -0.028895608646 -0.83473515694 0.54557874413 -0.058049780567 
-0.85421576579 0.51120838705 -0.087440801607 -0.87593563563 0.46420872901 -0.11623884958 -0.89874714519 0.41105228675 -0.14474782319 
-0.92348450542 0.33329954695 -0.16705278801 -0.94919697991 0.2430929856 -0.18621648257 -0.96447178897 0.10850573045 -0.18919330734 
-0.97426013286 -0.049409838102 -0.18366164928 -0.9097995528 -0.27735029034 -0.13987328785 -0.80483955967 -0.54348613369 -0.075217633678 
-0.57927831497 -0.74639577526 0.006643897697 -0.28548215161 -0.91353269741 0.098240333277 -0.049753206299 -0.9700663244 0.1441956738 
0.15190963777 -0.96171268489 0.16337490523 0.28592280245 -0.94173628863 0.14934039649 0.37879764858 -0.91469199976 0.11510834305 
0.44122557631 -0.89201298124 0.058597129652 0.48446777462 -0.87208468103 -0.011953006453 0.50995543622 -0.8495079824 -0.098343002948 
0.52385333079 -0.82520246812 -0.19507290831 0.52118100457 -0.79403039411 -0.2959528364 0.50730627558 -0.75821613888 -0.39963841366 
0.47761652403 -0.72016606631 -0.49405116425 0.43685625669 -0.68055092161 -0.58197293619 0.37753260249 -0.64853321504 -0.65477898884 
0.30475721867 -0.62202089842 -0.71663162173 0.20053016989 -0.60721874313 -0.75957199425 0.072714372397 -0.60119920885 -0.7883281715 
-0.11081638121 -0.5911268496 -0.7706843635 -0.33758859329 -0.57790901425 -0.71702862665 -0.56069281057 -0.51722088315 -0.5820970262 
-0.78085151687 -0.41841266608 -0.38189844436 -0.91036944424 -0.30747413764 -0.19565018153 -0.96458580143 -0.18645811974 -0.020991414481 
-0.98600890994 -0.08894988406 0.10159103909 -0.97925032037 -0.011643648712 0.17942041075 -0.97228343723 0.046742818524 0.22547426875 