# vtk DataFile Version 5.1
vtk output
ASCII
DATASET POLYDATA
POINTS 240 float
0 0 0 -0.27109 -0.15595 0.112724 -0.542181 -0.311901 0.225447 
-0.779648 -0.491325 0.305763 -1.01683 -0.670949 0.385804 -1.22338 -0.871669 0.436271 
-1.4294 -1.07275 0.486232 -1.60779 -1.29257 0.50944 -1.78546 -1.51287 0.531957 
-1.93856 -1.74951 0.53055 -2.0908 -1.98673 0.52831 -2.22167 -2.23787 0.504962 
-2.3516 -2.48961 0.480688 -2.46346 -2.75283 0.438009 -2.57436 -3.01665 0.394353 
-2.67053 -3.28946 0.334733 -2.76577 -3.56283 0.274115 -2.8495 -3.84264 0.19957 
-2.9324 -4.12291 0.124022 -3.00664 -4.40689 0.0360873 -3.08018 -4.69118 -0.0528605 
-3.1473 -4.9761 -0.15317 -3.21383 -5.26108 -0.254522 -3.27519 -5.54315 -0.366711 
-3.33603 -5.82492 -0.480003 -3.39157 -6.09967 -0.604058 -3.44652 -6.37363 -0.729319 
-3.49443 -6.63606 -0.865575 -3.54147 -6.89708 -1.00318 -3.57814 -7.142 -1.15207 
-3.61343 -7.38477 -1.30247 -3.63379 -7.60739 -1.46423 -3.652 -7.8271 -1.62762 
-3.65027 -8.02375 -1.80186 -3.64544 -8.21682 -1.97779 -3.61618 -8.38562 -2.16331 
-3.58285 -8.55037 -2.35044 -3.52209 -8.69167 -2.54526 -3.45645 -8.82878 -2.74146 
-3.36266 -8.94528 -2.94308 -3.26351 -9.05785 -3.14573 -3.1381 -9.15451 -3.35158 
-3.00739 -9.24796 -3.55807 -2.85492 -9.33183 -3.76589 -2.69778 -9.41365 -3.97399 
-2.52546 -9.49352 -4.18194 -2.34971 -9.57295 -4.38984 -2.16664 -9.65876 -4.5962 
-1.98183 -9.74609 -4.8022 -1.79786 -9.84795 -5.00492 -1.61411 -9.95348 -5.20682 
-1.43863 -10.0802 -5.40279 -1.26535 -10.2127 -5.59718 -1.10627 -10.3705 -5.78171 
-0.951172 -10.5354 -5.96349 -0.814326 -10.7265 -6.13006 -0.682837 -10.9253 -6.29217 
-0.571728 -11.1472 -6.43258 -0.46689 -11.3762 -6.56631 -0.383012 -11.6219 -6.67143 
-0.305887 -11.8729 -6.76732 -0.249185 -12.1312 -6.82829 -0.199368 -12.3919 -6.87748 
-0.168805 -12.649 -6.88729 -0.145024 -12.9048 -6.88322 -0.139011 -13.1456 -6.83801 
-0.139532 -13.381 -6.77768 -0.156223 -13.5912 -6.67757 -0.179119 -13.7918 -6.56221 
-0.2166 -13.9592 -6.41141 -0.259915 -14.1133 -6.24645 -0.31624 -14.2294 -6.05257 
-0.377985 -14.3298 -5.84666 -0.451158 -14.3912 -5.61951 -0.529286 -14.4357 -5.38316 
-0.617139 -14.4438 -5.13325 -0.709381 -14.4355 -4.87722 -0.809426 -14.3964 -4.61444 
-0.913131 -14.3428 -4.34847 -1.02235 -14.2657 -4.08099 -1.13426 -14.1771 -3.81277 
-1.24893 -14.073 -3.54644 -1.36498 -13.961 -3.28108 -1.48045 -13.8412 -3.01924 
-1.59562 -13.7172 -2.75925 -1.70636 -13.5919 -2.50284 -1.81469 -13.4658 -2.24838 
-1.91449 -13.3439 -1.99643 -2.00947 -13.2243 -1.7459 -2.09201 -13.1132 -1.49629 
-2.16724 -13.0071 -1.24721 -2.2268 -12.9128 -0.997449 -2.27683 -12.8256 -0.747275 
-2.30913 -12.7528 -0.495322 -2.33027 -12.689 -0.242247 -2.3331 -12.641 0.0129213 
-2.32398 -12.6034 0.269455 -2.29756 -12.5826 0.527477 -2.25942 -12.573 0.786505 
-2.20628 -12.5804 1.04556 -2.14263 -12.5997 1.30465 -2.06709 -12.636 1.56164 
-1.98293 -12.6846 1.81711 -1.89034 -12.7499 2.06795 -1.79142 -12.8278 2.31531 
-1.68733 -12.9224 2.55547 -1.57923 -13.0298 2.79004 -1.46882 -13.1536 3.01521 
-1.35657 -13.2905 3.23285 -1.24436 -13.4431 3.43972 -1.1322 -13.6088 3.63765 
-1.02193 -13.789 3.82447 -0.913273 -13.9817 4.00173 -0.807804 -14.1873 4.1686 
-0.705167 -14.4042 4.32623 -0.606459 -14.6317 4.4751 -0.511364 -14.869 4.61591 
-0.420374 -15.1142 4.75016 -0.333289 -15.3669 4.87817 -0.249978 -15.625 5.00193 
-0.170377 -15.8885 5.12153 -0.0937649 -16.1548 5.23893 -0.0201917 -16.4241 5.35409 
0.0515209 -16.6945 5.46849 0.121277 -16.966 5.58207 0.190495 -17.2372 5.69555 
0.25913 -17.5081 5.80892 0.328592 -17.7779 5.92211 0.398985 -18.0466 6.03508 
0.471427 -18.3139 6.14722 0.546253 -18.5798 6.2584 0.624033 -18.8446 6.36785 
0.705369 -19.1082 6.47521 0.790101 -19.3712 6.58001 0.879063 -19.6334 6.68162 
0.971319 -19.8956 6.78021 1.06782 -20.1578 6.87489 1.16701 -20.4204 6.96662 
1.26977 -20.6836 7.05441 1.37422 -20.9476 7.13988 1.48101 -21.2128 7.22213 
1.58836 -21.4789 7.30313 1.6965 -21.7463 7.38234 1.80417 -22.0144 7.4616 
1.91114 -22.2837 7.54095 2.017 -22.5533 7.62162 2.12115 -22.8233 7.70431 
2.22414 -23.0929 7.78932 2.32527 -23.3617 7.878 2.42585 -23.6292 7.96951 
2.52554 -23.8943 8.06566 2.62595 -24.157 8.16461 2.72761 -24.4156 8.26832 
2.83171 -24.6706 8.37429 2.94013 -24.9196 8.48427 3.05288 -25.1642 8.59566 
3.17356 -25.4008 8.70962 3.30022 -25.6326 8.82406 3.43827 -25.8548 8.93941 
3.58338 -26.0719 9.05448 3.74245 -26.2787 9.16902 3.90883 -26.4804 9.28296 
4.09022 -26.6717 9.39567 4.27827 -26.8583 9.50796 4.48052 -27.0349 9.61936 
4.68802 -27.2072 9.73103 4.90716 -27.3701 9.84328 5.12964 -27.5293 9.95684 
5.35983 -27.6796 10.0734 5.59135 -27.8262 10.1925 5.82606 -27.9641 10.3175 
6.06033 -28.0981 10.446 6.2935 -28.2226 10.5833 6.52498 -28.3429 10.7248 
6.7521 -28.4522 10.8771 6.97697 -28.5569 11.0337 7.19578 -28.6487 11.2018 
7.41248 -28.7354 11.3737 7.62322 -28.8077 11.5561 7.83258 -28.8747 11.7412 
8.03783 -28.9262 11.9341 8.24277 -28.9728 12.1282 8.44676 -29.0039 12.326 
8.65161 -29.0308 12.5235 8.85927 -29.0438 12.7198 9.06882 -29.0533 12.9145 
9.2848 -29.0512 13.1034 9.50335 -29.0467 13.2897 9.73107 -29.0335 13.4664 
9.96162 -29.0189 13.6401 10.2028 -28.9983 13.8022 10.4466 -28.9769 13.9613 
10.7009 -28.9519 14.1086 10.9573 -28.9263 14.2534 11.2227 -28.8983 14.3879 
11.4895 -28.8699 14.5207 11.7627 -28.8395 14.6458 12.0365 -28.8086 14.7701 
12.3135 -28.7757 14.89 12.5904 -28.7424 15.0098 12.8672 -28.7074 15.1281 
13.1435 -28.6724 15.2466 13.4168 -28.637 15.3658 13.6893 -28.6022 15.4852 
13.957 -28.5699 15.6058 14.2237 -28.5389 15.7265 14.4846 -28.5152 15.8474 
14.7447 -28.4936 15.968 14.9991 -28.4852 16.0869 15.2529 -28.4795 16.2051 
15.5018 -28.4931 16.319 15.7502 -28.51 16.432 15.9951 -28.5511 16.5388 
16.2396 -28.5955 16.6447 16.4816 -28.6669 16.7437 16.7234 -28.7414 16.8421 
16.9631 -28.843 16.9347 17.2026 -28.9471 17.027 17.4397 -29.0758 17.1165 
17.6764 -29.2064 17.2061 17.909 -29.3571 17.2975 18.1411 -29.5089 17.3894 
18.3664 -29.6755 17.4883 18.591 -29.8427 17.5882 18.8046 -30.0192 17.7002 
19.0174 -30.1961 17.8133 19.2144 -30.3777 17.9431 19.4102 -30.5595 18.0739 
19.5846 -30.7428 18.2245 19.7578 -30.926 18.3761 19.9032 -31.1089 18.5494 
20.0474 -31.2917 18.7234 20.1572 -31.4731 18.9199 20.2659 -31.6545 19.117 
20.3331 -31.8344 19.3366 20.3996 -32.0142 19.5566 20.4175 -32.1924 19.7989 
20.4349 -32.3706 20.0414 20.3966 -32.5474 20.3057 20.3582 -32.7242 20.57 

LINES 2 240
OFFSETS vtktypeint64
0 240 
CONNECTIVITY vtktypeint64
0 1 2 3 4 5 6 7 8 
9 10 11 12 13 14 15 16 17 
18 19 20 21 22 23 24 25 26 
27 28 29 30 31 32 33 34 35 
36 37 38 39 40 41 42 43 44 
45 46 47 48 49 50 51 52 53 
54 55 56 57 58 59 60 61 62 
63 64 65 66 67 68 69 70 71 
72 73 74 75 76 77 78 79 80 
81 82 83 84 85 86 87 88 89 
90 91 92 93 94 95 96 97 98 
99 100 101 102 103 104 105 106 107 
108 109 110 111 112 113 114 115 116 
117 118 119 120 121 122 123 124 125 
126 127 128 129 130 131 132 133 134 
135 136 137 138 139 140 141 142 143 
144 145 146 147 148 149 150 151 152 
153 154 155 156 157 158 159 160 161 
162 163 164 165 166 167 168 169 170 
171 172 173 174 175 176 177 178 179 
180 181 182 183 184 185 186 187 188 
189 190 191 192 193 194 195 196 197 
198 199 200 201 202 203 204 205 206 
207 208 209 210 211 212 213 214 215 
216 217 218 219 220 221 222 223 224 
225 226 227 228 229 230 231 232 233 
234 235 236 237 238 239 
CELL_DATA 1
FIELD FieldData 3
Length 1 1 double
68.667070624 
Tortuosity 1 1 double
0.5718374188 
ClusterLabel 1 1 int
2 
POINT_DATA 240
FIELD FieldData 6
Curvature 1 240 double
0 0.11368564301 0.22737128602 0.24090468624 0.25358933864 0.25690590491 0.26006233295 0.25300106695 0.24567555023 
0.23077979753 0.21562073228 0.19711892953 0.17847051549 0.1601792576 0.14190696375 0.12620078959 0.11065499791 0.098913260825 
0.087445689841 0.08042776731 0.073773906924 0.072070676937 0.070821633224 0.074477354052 0.078632634231 0.087785360222 0.097498547426 
0.11308928334 0.12940085071 0.15285664056 0.17726499341 0.20803767641 0.23972829165 0.27211620713 0.3046124411 0.32591076687 
0.34534277462 0.34278538803 0.33630909948 0.30880960566 0.27731570282 0.23582408067 0.19231271725 0.15031518805 0.1086420519 
0.085074674087 0.065613756929 0.080648111646 0.10394695858 0.13463099297 0.16718075892 0.19670841537 0.2254323193 0.2479270265 
0.26868023783 0.28374628426 0.29714327142 0.30940410443 0.32131535156 0.33787772347 0.35593879114 0.38328164475 0.41375319025 
0.45459384617 0.4990872569 0.54777484186 0.59800511159 0.63533138248 0.66770611892 0.66730413824 0.65379147072 0.61070313379 
0.55529160128 0.49045654538 0.42153417811 0.35876604349 0.29877481871 0.24901260528 0.20404918729 0.16649226656 0.13254601323 
0.10373906669 0.077534300787 0.057259903486 0.040102751218 0.043148590661 0.057214243763 0.08184053463 0.11244192318 0.14582433906 
0.18083829098 0.21391017575 0.24580107373 0.26961829043 0.28834798193 0.29620624837 0.29696789011 0.28991023139 0.27756628502 
0.26361704727 0.24854410556 0.23612710012 0.22563468618 0.21938788504 0.21632529349 0.21577833899 0.21718381921 0.21861237762 
0.22005946851 0.21890521972 0.21558985797 0.20853640129 0.19827051927 0.18487544906 0.16869887823 0.1508197502 0.13137536798 
0.11233512334 0.093679140662 0.076118799103 0.059635837975 0.044912638234 0.031979026343 0.020433517239 0.01034790934 0.0068578941233 
0.010542032349 0.01626451739 0.024280142599 0.032012827964 0.039416274238 0.04600396723 0.051609734976 0.055580420034 0.057514964384 
0.057431125161 0.054746676332 0.050247116396 0.043327408317 0.035361702371 0.025952519368 0.018290023958 0.013122796538 0.012890177767 
0.019956667623 0.026815434232 0.033355986506 0.039057411179 0.043427176831 0.047923095872 0.052626467151 0.058890722212 0.067815574629 
0.078681828439 0.092979396336 0.10797952758 0.12426769162 0.13922057678 0.15163317527 0.16089594855 0.16393781704 0.16359452481 
0.15630731313 0.14686234766 0.13281795963 0.11897107395 0.10556189618 0.094858219777 0.090392227087 0.089331379452 0.096442879946 
0.1047726639 0.11614815652 0.12712498311 0.13706286187 0.14523903444 0.14862556827 0.15020729983 0.14666572174 0.14194920635 
0.13374704369 0.12588178908 0.11906211119 0.11380872526 0.11364578816 0.11439831384 0.11827019414 0.12166550166 0.12335614503 
0.12377738125 0.1194256466 0.11379404623 0.10309631068 0.091745846548 0.077670950046 0.063454922968 0.048616638353 0.034407241091 
0.023132651471 0.013625446681 0.0128667968 0.013236138851 0.019542280542 0.026762263355 0.03910991024 0.052672052799 0.073521169403 
0.095062243204 0.12105779147 0.14676651134 0.17048655437 0.19276989003 0.20427792036 0.21391377828 0.20828423046 0.2013989731 
0.1833169724 0.16506974885 0.14520033735 0.12609569243 0.11532700329 0.10564497832 0.10924440445 0.11348552902 0.1266302195 
0.14004596434 0.15779857884 0.17563038155 0.19495356208 0.21430054324 0.2341901786 0.25397668879 0.27079835045 0.28742598292 
0.29655115308 0.30546297675 0.30189403081 0.29710672842 0.14855336421 0 
Torsion 1 240 double
0 0 0 -0.0027341637886 -0.0054914984568 -0.0066942990271 -0.007870526365 -0.010398700564 -0.012961838907 
-0.01832039894 -0.023776191032 -0.03441471447 -0.045280550686 -0.064636277197 -0.084442794343 -0.1157789761 -0.1478357619 -0.18861849193 
-0.23003011883 -0.25649321786 -0.28173325552 -0.25300995266 -0.21933588463 -0.14230914989 -0.060866865765 0.013826579411 0.087763145452 
0.13197201675 0.17253503869 0.18824314622 0.20063726515 0.20004304312 0.19757550268 0.19146230663 0.18478279516 0.17958831716 
0.17464134473 0.17552143972 0.17744002198 0.19295686801 0.21105738416 0.27231242343 0.34228554817 0.61406002932 0.92907765826 
1.5291200432 2.1938072182 1.6392369741 0.79255297335 0.43330799126 0.19720549808 0.087654102639 0.01175991404 -0.037863412087 
-0.080142196019 -0.11356865966 -0.14439715973 -0.16627912819 -0.1854083177 -0.19082422738 -0.19182141355 -0.17933003464 -0.1622919484 
-0.13851323807 -0.1123599897 -0.08600613259 -0.059578488357 -0.036786673195 -0.015390001745 0.002086963165 0.017996045459 0.031103705954 
0.043044107366 0.052408557762 0.0606557282 0.064818574813 0.067138494823 0.06063432014 0.049990446713 0.01600207198 -0.029366747141 
-0.17814908179 -0.37929269012 -1.106010156 -2.1089908035 -1.9267155338 -1.0979370366 -0.60845197716 -0.31093557334 -0.16625414438 
-0.11123590069 -0.083378966859 -0.072039045786 -0.070874048212 -0.076120646268 -0.087646491158 -0.10327128884 -0.12274404077 -0.14481822656 
-0.16714617269 -0.18965175107 -0.2052279446 -0.21578284477 -0.21491747278 -0.20548689665 -0.19079059182 -0.17200745277 -0.15522831958 
-0.14005846382 -0.12950227182 -0.12277896971 -0.12051840558 -0.12209300688 -0.12743950063 -0.13613878767 -0.149773535 -0.16794572163 
-0.19187819559 -0.22128766405 -0.25939009303 -0.30604059986 -0.36851743494 -0.44708884114 -1.0475162435 -2.1967921937 -2.2965396306 
-1.2546946497 -0.63594529336 -0.49317851476 -0.39241015611 -0.34051268612 -0.29784675211 -0.26629285215 -0.24199590738 -0.22673592571 
-0.22120693176 -0.22821594125 -0.25547745937 -0.30974232235 -0.46518363892 -0.76024846146 -1.4315427511 -2.640307708 -2.83157544 
-1.5177951932 -0.68743045415 -0.59761713108 -0.56621365176 -0.62750405489 -0.68437397906 -0.73397467116 -0.74173735252 -0.67818524283 
-0.59634205764 -0.48217045992 -0.3778511216 -0.29159425883 -0.21524104667 -0.15772892588 -0.10339518329 -0.055338737614 -0.0039186785413 
0.054401100327 0.12513811481 0.22234344731 0.3367228579 0.48916373881 0.61237735509 0.66820588902 0.66215529348 0.50759478723 
0.35593675759 0.21153491946 0.082296140609 -0.0074267867925 -0.0919750353 -0.16245462557 -0.23536245109 -0.31516333155 -0.40073675213 
-0.50343537506 -0.6024303362 -0.6899311745 -0.74996058089 -0.7207078336 -0.67356830542 -0.56548122753 -0.46038284885 -0.36597481736 
-0.27715146739 -0.20932651994 -0.14340695492 -0.085029528728 -0.023403657268 0.051780942257 0.14462889313 0.31535616588 0.58823155723 
1.3377981687 1.9861184866 2.1332696515 2.1766600267 1.6739409827 1.2072678384 0.94285224234 0.69071867518 0.51227728113 
0.3455288425 0.25405380436 0.16755733286 0.11557892348 0.065051281118 0.025404391424 -0.014981277452 -0.061390838116 -0.1111397099 
-0.19066410582 -0.27542523344 -0.411601545 -0.5449719792 -0.64775835028 -0.7348259571 -0.62977533403 -0.52176701878 -0.3727207246 
-0.22715167467 -0.13721853256 -0.049516306648 -0.0038296690365 0.040672005473 0.058156521261 0.075097752433 0.076419550894 0.077618307645 
0.074059451632 0.069969944657 0.034837356412 0 0 0 
FrenetTangent 3 240 double
-0.79562567991 -0.52529049571 0.30174438286 -0.79562567991 -0.52529049571 0.30174438286 -0.79562567991 -0.52529049571 0.30174438286 
-0.76838916141 -0.57996972693 0.25999953293 -0.74092182497 -0.63511234147 0.21790091309 -0.70493317742 -0.68374573535 0.17262926703 
-0.66879886643 -0.7322678605 0.12730338121 -0.62742315534 -0.77090958112 0.082364444557 -0.58591189079 -0.80929577405 0.037435515213 
-0.54350323936 -0.83685012142 -0.0039340639499 -0.50106337448 -0.86402770896 -0.045179839628 -0.46157552793 -0.88161207256 -0.08107546131 
-0.42221715587 -0.89877568073 -0.11673642711 -0.38822222029 -0.90863056701 -0.1468006866 -0.35451206895 -0.91809737955 -0.17656777583 
-0.32708821686 -0.92250405724 -0.20158172422 -0.30005725847 -0.92659447649 -0.2262986013 -0.27912693721 -0.92730449726 -0.24764160298 
-0.25863630151 -0.9277708857 -0.26874144247 -0.24335372355 -0.92586908913 -0.28801614404 -0.22849725941 -0.92377353196 -0.30714151614 
-0.21740939824 -0.91976050112 -0.32601414399 -0.20666728047 -0.91557155526 -0.34486358428 -0.19770462278 -0.90946341069 -0.36504782427 
-0.18892320641 -0.90315979216 -0.38536801608 -0.17936041643 -0.89452287718 -0.40857617144 -0.16970999576 -0.88562428408 -0.43210821057 
-0.15615409518 -0.87351621416 -0.45982622625 -0.14211922065 -0.86101452916 -0.48805761641 -0.12061818652 -0.84381477344 -0.52104345726 
-0.09812166445 -0.82598860828 -0.55466322488 -0.064715533798 -0.8013380014 -0.59193585925 -0.029735901908 -0.77570310005 -0.6297353494 
0.01792956818 -0.7411147075 -0.66731932051 0.067565653909 -0.70513548138 -0.70486981293 0.12763983629 -0.6600254128 -0.73572122727 
0.18945370144 -0.61339353715 -0.7654561286 0.25446319736 -0.56174182223 -0.78263926243 0.32004221164 -0.50919548249 -0.79758544761 
0.37987291063 -0.45945316027 -0.79927161338 0.43861142971 -0.41024360138 -0.79843837546 0.48587588849 -0.37134873067 -0.7890502486 
0.53082235529 -0.33453763535 -0.77793386135 0.56305102777 -0.31230771509 -0.76422064636 0.5925544586 -0.29320233234 -0.74995096829 
0.61038276603 -0.29007825072 -0.73681875822 0.62556310731 -0.2905787941 -0.7239445306 0.63015866964 -0.30688909695 -0.71289141523 
0.63221829533 -0.32698715468 -0.70227460802 0.62414992853 -0.36138673253 -0.69153411515 0.61352291099 -0.39939932599 -0.68076237538 
0.59310181505 -0.44838748638 -0.66621504198 0.57007591103 -0.50029468052 -0.65066356135 0.53852107216 -0.55792189824 -0.62740007787 
0.5045817999 -0.61714826233 -0.6019805506 0.46484346856 -0.67610195547 -0.56604047297 0.42340323944 -0.73497562562 -0.52701284252 
0.37934657113 -0.78871337199 -0.47612778957 0.33448484461 -0.84087083412 -0.42159429893 0.28912768323 -0.88454178381 -0.35446083129 
0.24361088173 -0.9254781906 -0.28326737106 0.19802627752 -0.95461118654 -0.19860694156 0.15241881845 -0.97976550466 -0.10940708422 
0.10606121935 -0.9878285323 -0.006620725847 0.059439366374 -0.98987076445 0.1009517863 0.011716278214 -0.96710039939 0.21850366054 
-0.036411861968 -0.9352035618 0.33972610475 -0.083998484639 -0.87234128002 0.45977859074 -0.13137731571 -0.79759690919 0.57938213928 
-0.17427176148 -0.69609939432 0.68092185306 -0.21537245313 -0.58390062183 0.77523603294 -0.24867793373 -0.46206334833 0.84062348997 
-0.27873540974 -0.33621003275 0.89395814581 -0.30115619339 -0.2186688212 0.92143571547 -0.32026467674 -0.10473285959 0.9376981634 
-0.33412810103 -0.0076740213006 0.93854803375 -0.34562485232 0.081769529639 0.93244344837 -0.35407212717 0.15415839758 0.92025671566 
-0.36108878344 0.21854630313 0.90521662988 -0.36604419005 0.26877595152 0.88986227185 -0.36999473745 0.31210344955 0.87435470609 
-0.37173783391 0.34437029401 0.86166807627 -0.37236323369 0.37103680757 0.85040976844 -0.36975738848 0.38901516352 0.8436549453 
-0.36545306833 0.40242666739 0.83926733848 -0.35636053229 0.40847571957 0.84024816874 -0.34465624211 0.41050888901 0.84415723742 
-0.32646518558 0.40551094184 0.85344006899 -0.30460398494 0.3965348629 0.86576331904 -0.27496302087 0.3801383698 0.88215291821 
-0.24075792892 0.35938856706 0.90092810886 -0.19884027828 0.33085383612 0.92076554828 -0.15223255817 0.29758502722 0.94124894979 
-0.10028464922 0.2573557206 0.95873936358 -0.044971689786 0.21274034691 0.97434378512 0.011220161616 0.16366470105 0.98388547271 
0.067985734161 0.11167748864 0.9894695423 0.12114036268 0.05826950964 0.98855949992 0.17185378959 0.0039010123828 0.98325907198 
0.21650528569 -0.049919564947 0.97299868372 0.2569134302 -0.10335659833 0.95926632322 0.2909391272 -0.15589405175 0.94222747926 
0.32033986222 -0.20777963565 0.92279263278 0.34409473944 -0.25937529353 0.90076117118 0.36361522333 -0.31075350691 0.87678224822 
0.37828050217 -0.36227950411 0.85012878338 0.38917756219 -0.41392019921 0.8213995547 0.39570795145 -0.46522528665 0.78990953875 
0.39873177178 -0.51626087097 0.75620252695 0.39778857901 -0.56557142997 0.72035957531 0.39354971383 -0.61344889101 0.68274215057 
0.38603491106 -0.65792203195 0.64458199826 0.37570484942 -0.6994695853 0.60595543944 0.36321589413 -0.73650754403 0.56887216995 
0.34880792225 -0.76953697422 0.53316071318 0.33360806649 -0.79786245753 0.50081435712 0.31768018844 -0.8218633445 0.47156172267 
0.30216963791 -0.8417574616 0.44657689594 0.28705589057 -0.85774678113 0.42564998473 0.273257641 -0.87051870674 0.40892359668 
0.26075296423 -0.88012686168 0.39632772305 0.2501685844 -0.88738455353 0.38712515068 0.24153704889 -0.89225194392 0.38137339313 
0.23517273051 -0.89552483865 0.37777520074 0.23119289912 -0.89712076381 0.37644196482 0.22961372397 -0.89776157597 0.37589988 
0.23064578894 -0.89736349327 0.37621834549 0.23396663238 -0.89654203291 0.37609219718 0.2398623516 -0.89524427268 0.37546585833 
0.2476367445 -0.89391409479 0.37351394913 0.25759723043 -0.89254619453 0.37001955807 0.26872513814 -0.89136162049 0.36484694924 
0.28125827577 -0.8903977169 0.35765426347 0.29402374284 -0.88967948286 0.34903655239 0.30707852584 -0.88926717695 0.33864428148 
0.31940356481 -0.88908913648 0.32759047045 0.33078835666 -0.88921293804 0.31568429041 0.34068841473 -0.88955665869 0.30412886723 
0.34860882776 -0.89019360481 0.29304111987 0.35468167855 -0.89101406179 0.28327310719 0.35820489346 -0.89208776375 0.27532632836 
0.35997121714 -0.89322297636 0.26938044361 0.35922769621 -0.89444606132 0.266292979 0.35723233402 -0.89549203142 0.26545264829 
0.35338528995 -0.89627601911 0.26793620312 0.3491312054 -0.8965548512 0.27247710684 0.34425356946 -0.89605982793 0.28016969394 
0.34002835027 -0.89473318416 0.28937523264 0.33683848808 -0.89208679483 0.30098175972 0.33545572146 -0.8883379584 0.31335284287 
0.33704462311 -0.88277620898 0.326981196 0.34143623803 -0.87592230911 0.34054528513 0.35060520512 -0.86686588009 0.35399983338 
0.36318094666 -0.85633645762 0.36661329082 0.38177796396 -0.84320360488 0.37774016917 0.4037349468 -0.82838519692 0.38742457655 
0.43185186647 -0.8104766044 0.39446445379 0.46241066125 -0.7907864633 0.3997687136 0.49761497454 -0.76770703467 0.40177106707 
0.53358270118 -0.74314892972 0.40224579288 0.57105816915 -0.71567043902 0.39970345405 0.60748612331 -0.68749185104 0.39645054195 
0.64176533119 -0.65787716609 0.39174004365 0.67377424233 -0.62851253856 0.38748932639 0.7009438367 -0.59968092819 0.38421866871 
0.72543304657 -0.57174688369 0.38251001316 0.74398194482 -0.54580203923 0.38426309209 0.76001964721 -0.52081044861 0.38827864531 
0.77026764803 -0.49801663765 0.39751045869 0.77838895358 -0.47569229565 0.40919512793 0.78140619049 -0.45449467914 0.42676665124 
0.78270453771 -0.43304797096 0.44642403976 0.7797056607 -0.41097853362 0.47129609131 0.77546086905 -0.38798277712 0.49737594674 
0.76796914839 -0.36257297672 0.5266034123 0.75986637088 -0.33592708663 0.55578370213 0.75010228256 -0.30592057769 0.58483573293 
0.74056042993 -0.27490514064 0.61251993096 0.7316494399 -0.24102564957 0.63632124883 0.72381878794 -0.206769579 0.65778107922 
0.71919313894 -0.17139632256 0.67229449671 0.71623242497 -0.13645865953 0.68403125992 0.71843875078 -0.10287283814 0.68715082015 
0.72241555511 -0.070363582041 0.68756440018 0.73214641465 -0.041353163122 0.67918354456 0.7432582318 -0.013793707466 0.66852991982 
0.75907553408 0.0088217252205 0.65013204477 0.77553993866 0.029931771694 0.63020216819 0.79431897841 0.045657167481 0.60479243993 
0.81297209718 0.060133178201 0.57879039624 0.83115175301 0.069911501074 0.55056124654 0.84866824427 0.078882842809 0.52267620349 
0.86355970909 0.084659884208 0.49615324928 0.87758627368 0.090080822936 0.47066675632 0.88800281991 0.094015420076 0.44950636249 
0.89759002445 0.097902084252 0.42973001348 0.90352058611 0.10157740763 0.41605604392 0.90878706483 0.10524699218 0.40374736724 
0.91095448982 0.10888979553 0.39781005734 0.91267876625 0.11230772681 0.39294106252 0.91220945731 0.11461254133 0.39336022733 
0.91153703269 0.11630526526 0.39441851638 0.90979557809 0.11477645982 0.39884061726 0.90809539641 0.11214690903 0.40342889209 
0.90662680165 0.10334095383 0.40894958743 0.90535950921 0.092990547691 0.41421093338 0.9053000307 0.073373435919 0.41791618303 
0.9054086457 0.051990640999 0.42102426481 0.90659936262 0.019241260811 0.42028807847 0.90768371133 -0.01510557941 0.41878576325 
0.90803057368 -0.060528142517 0.4119716212 0.9079013164 -0.10690858317 0.40448690122 0.90420116187 -0.16047310543 0.39197284675 
0.89984460624 -0.21408305066 0.37917923709 0.89013585709 -0.26806336778 0.36410617752 0.87990549888 -0.32135742836 0.34927669207 
0.8650241265 -0.36853236805 0.33661907586 0.84988153219 -0.41475224044 0.32462391424 0.83217421337 -0.45159508836 0.31913285211 
0.81436262819 -0.48758149547 0.31448611535 0.79541453971 -0.51423269772 0.31904252501 0.77635340666 -0.54026091796 0.32441973867 
0.75591061778 -0.55867491369 0.33982900116 0.73523653953 -0.57668563707 0.3559226096 0.71135332111 -0.5891009567 0.38151151801 
0.68709215058 -0.60126432733 0.4076017783 0.65678374614 -0.60939651393 0.44171366869 0.62598170845 -0.61736071097 0.47612344013 
0.58588291115 -0.6221611047 0.5161433049 0.54524492126 -0.62682425559 0.556255666 0.49231334071 -0.62835826983 0.59847694323 
0.43889583003 -0.62974664735 0.64061167164 0.37150782853 -0.6269479692 0.68025812177 0.30379024548 -0.62399402849 0.71969836964 
0.22332884309 -0.6150366019 0.75116546329 0.14273640075 -0.60595633733 0.78240824225 0.054478121574 -0.58969005043 0.8005286116 
-0.033038491393 -0.57356045501 0.81849670893 -0.033038491393 -0.57356045501 0.81849670893 -0.033038491393 -0.57356045501 0.81849670893 

FrenetNormal 3 240 double
0.31016469532 -0.78109254666 -0.54193384774 0.31016469532 -0.78109254666 -0.54193384774 0.31016469532 -0.78109254666 -0.54193384774 
0.36635980419 -0.7374943567 -0.56237599433 0.42303114279 -0.69352669056 -0.58299137945 0.47549294232 -0.64110659868 -0.5975993872 
0.52788278391 -0.58854202089 -0.61210470474 0.57193732427 -0.53176488495 -0.62036351334 0.61577629649 -0.47487880354 -0.62846077431 
0.6488774501 -0.41845049142 -0.6321089761 0.68160511438 -0.36203810171 -0.63560242801 0.70263623928 -0.3091672872 -0.63834979585 
0.72315435806 -0.25645180493 -0.6410644407 0.73120428785 -0.20774790082 -0.64785240766 0.73859218991 -0.15925700087 -0.65485665722 
0.73088890899 -0.11247083984 -0.67126578732 0.72224242914 -0.065791224992 -0.68826272245 0.69346249898 -0.017173050655 -0.71736411333 
0.66323150932 0.031584839682 -0.74733789741 0.60899536379 0.083827642612 -0.78407547053 0.55279516005 0.13635557476 -0.82136644457 
0.48919310301 0.1849909558 -0.84813630449 0.42491197686 0.23326922207 -0.87394092458 0.38652178882 0.26944597338 -0.8806136429 
0.35076864077 0.30439016297 -0.88533774159 0.35641794676 0.32794207129 -0.87444861622 0.36671051862 0.3502163406 -0.86180847506 
0.40453967143 0.36762936696 -0.83573893177 0.4457459521 0.38444620315 -0.80802238633 0.49604087964 0.40230493713 -0.76632293437 
0.54754762676 0.42030259082 -0.72275909487 0.59544832034 0.44335627958 -0.66526673042 0.64282891003 0.46713920418 -0.6057654441 
0.68000974595 0.49610473463 -0.53267489787 0.71560615411 0.52587533008 -0.45747339865 0.73781792977 0.55598104839 -0.37076598917 
0.75779893334 0.58614262051 -0.28214092798 0.76447853474 0.60891208082 -0.18849413009 0.76878758921 0.63036413506 -0.093952369219 
0.76592473483 0.63646492239 -0.0018600061358 0.76169921777 0.63964896899 0.089766971368 0.76109074596 0.6169766195 0.17823720613 
0.76121299036 0.58908075564 0.26606971508 0.77460786602 0.48507079562 0.37215484668 0.79084687694 0.36475067214 0.48215125458 
0.66628818306 -0.03412066599 0.56383641191 0.50979598913 -0.49616856826 0.63910046087 0.22985893398 -0.72719559102 0.51773219262 
-0.079653452504 -0.9028738614 0.34925409836 -0.22085193101 -0.9267909549 0.28512791714 -0.31952900118 -0.91236838266 0.24736432447 
-0.37820482165 -0.88641801267 0.25989739373 -0.42624201187 -0.85740173903 0.28580723479 -0.45905230181 -0.81966124984 0.33487200463 
-0.48760560887 -0.77948173265 0.39041019543 -0.50246883264 -0.72843447028 0.45744163062 -0.51331431458 -0.67419776097 0.52784608319 
-0.51083838144 -0.60783010888 0.59988878314 -0.50426355134 -0.53772985901 0.67243555921 -0.48786205085 -0.45496360615 0.73742040259 
-0.46829417878 -0.36811608565 0.79996862322 -0.44605751652 -0.26864373893 0.84653232758 -0.42292126206 -0.16491583281 0.88770799276 
-0.40144859763 -0.049175103135 0.90685377244 -0.38056197059 0.070797416663 0.91823902429 -0.36101555339 0.19931412508 0.90151624518 
-0.34196208695 0.33097352357 0.87445487997 -0.32108151892 0.4604805142 0.8150132492 -0.29949985378 0.58916158089 0.74314663282 
-0.27449219419 0.69880414095 0.64412811419 -0.24811413682 0.80083129836 0.53424883467 -0.22114561652 0.87259576281 0.41421756679 
-0.19393107001 0.93175077185 0.28995630376 -0.17044116893 0.96352724199 0.17295381326 -0.14856677672 0.98342868322 0.059099706031 
-0.13268276372 0.98646710361 -0.039166644397 -0.11950172671 0.98189659996 -0.1303994948 -0.11000017031 0.97039324385 -0.20487740164 
-0.10222479 0.95563743845 -0.27149496459 -0.090578307191 0.94149879319 -0.32163155818 -0.077044661922 0.92766101349 -0.36373367921 
-0.029140433117 0.92202652083 -0.38103667359 0.036166622796 0.92054559122 -0.38578314815 0.26966458145 0.85084123081 -0.27330544361 
0.59157057872 0.74527583627 -0.099209901351 0.760074277 0.41895255482 0.11761661975 0.84490399402 -0.027784119496 0.35775094749 
0.84679833203 -0.26211879476 0.44835285706 0.80176870561 -0.37627865478 0.45435089846 0.77965506407 -0.44682017372 0.43554930054 
0.77098546698 -0.4917722659 0.40219858089 0.7667218487 -0.53071461977 0.35627072336 0.76513754184 -0.56600240304 0.30269460632 
0.76093590165 -0.59868787192 0.2402998932 0.75508498291 -0.62973352625 0.17234825654 0.74094138314 -0.65966773771 0.1012828504 
0.72138450549 -0.68887642395 0.028184844757 0.69200582118 -0.71665301455 -0.042555484939 0.65598704225 -0.74346142781 -0.11170189286 
0.60964671291 -0.76928053265 -0.17511723794 0.55608129829 -0.79440712158 -0.23452083901 0.4943817706 -0.8165216725 -0.28774484944 
0.42678795808 -0.83645358718 -0.33649089564 0.35594678901 -0.85000129434 -0.38073169048 0.28267010252 -0.85876084586 -0.42159354681 
0.21177989259 -0.85917179667 -0.46037028662 0.1427418734 -0.85310323647 -0.49752872706 0.077537140078 -0.83969708631 -0.53339169436 
0.015410651456 -0.82039862905 -0.56821435747 -0.043686594451 -0.79580392303 -0.60067963025 -0.10026723872 -0.76680925649 -0.63118645566 
-0.15511843155 -0.73503036581 -0.65733969848 -0.20848337705 -0.70085878253 -0.67975158127 -0.26125044389 -0.66644085289 -0.69601555921 