# vtk DataFile Version 5.1
vtk output
ASCII
DATASET POLYDATA
POINTS 240 float
0 0 0 -0.221919 -0.0197316 -0.332249 -0.443838 -0.0394632 -0.664498 
-0.620891 -0.175802 -0.890278 -0.797563 -0.313129 -1.11516 -0.941363 -0.540417 -1.24956 
-1.0846 -0.769242 -1.38242 -1.20654 -1.06208 -1.44064 -1.32794 -1.35658 -1.49692 
-1.43876 -1.69042 -1.49436 -1.54922 -2.02564 -1.48975 -1.65826 -2.3778 -1.44229 
-1.76725 -2.7307 -1.39295 -1.8816 -3.08145 -1.31723 -1.99624 -3.43209 -1.2401 
-2.11999 -3.76588 -1.15369 -2.24431 -4.0986 -1.06669 -2.37817 -4.40477 -0.987834 
-2.51272 -4.70902 -0.909566 -2.65401 -4.98221 -0.856256 -2.79585 -5.25286 -0.804988 
-2.93904 -5.49275 -0.793233 -3.08235 -5.72982 -0.785103 -3.21997 -5.94024 -0.826786 
-3.35701 -6.14796 -0.873542 -3.48074 -6.33546 -0.974693 -3.60297 -6.52069 -1.08194 
-3.70462 -6.69285 -1.24217 -3.80373 -6.86341 -1.40889 -3.87602 -7.02735 -1.62197 
-3.94474 -7.19042 -1.84123 -3.98196 -7.3519 -2.09679 -4.01464 -7.51315 -2.35758 
-4.01315 -7.6765 -2.64336 -4.00634 -7.84017 -2.93303 -3.96493 -8.00885 -3.23688 
-3.91775 -8.17836 -3.5431 -3.83775 -8.35572 -3.8543 -3.75191 -8.53447 -4.16639 
-3.63692 -8.72414 -4.47605 -3.51639 -8.91589 -4.78524 -3.37173 -9.12162 -5.08606 
-3.2222 -9.33018 -5.38519 -3.05436 -9.55499 -5.67055 -2.88259 -9.7833 -5.95296 
-2.69872 -10.0283 -6.21586 -2.51209 -10.2771 -6.47433 -2.31975 -10.5405 -6.70641 
-2.12604 -10.8073 -6.93216 -1.93306 -11.0829 -7.12332 -1.74027 -11.3608 -7.30574 
-1.5546 -11.6388 -7.44466 -1.37081 -11.9167 -7.57203 -1.20005 -12.1828 -7.64772 
-1.03292 -12.4457 -7.70896 -0.883678 -12.6834 -7.71293 -0.739678 -12.9137 -7.70008 
-0.616663 -13.1055 -7.62874 -0.500105 -13.2853 -7.5394 -0.405462 -13.4155 -7.39574 
-0.31788 -13.5297 -7.23458 -0.250949 -13.5872 -7.0285 -0.190979 -13.6257 -6.80728 
-0.148546 -13.6066 -6.55436 -0.112291 -13.5673 -6.29028 -0.0892468 -13.4761 -6.00922 
-0.0710608 -13.3659 -5.72192 -0.0612842 -13.2159 -5.4313 -0.0547345 -13.0507 -5.1394 
-0.0521324 -12.8623 -4.85466 -0.0511093 -12.6645 -4.57278 -0.0506425 -12.4617 -4.30421 
-0.0504075 -12.2567 -4.04117 -0.0488644 -12.063 -3.79309 -0.0467539 -11.8741 -3.55151 
-0.0430428 -11.7077 -3.32277 -0.0386095 -11.5515 -3.09982 -0.0334435 -11.4222 -2.885 
-0.027934 -11.3054 -2.67399 -0.0230098 -11.2127 -2.4651 -0.0183711 -11.1316 -2.25724 
-0.0153843 -11.0666 -2.04527 -0.013234 -11.0096 -1.83122 -0.0131514 -10.9585 -1.60758 
-0.0141557 -10.9104 -1.37891 -0.0170396 -10.8597 -1.13677 -0.0209487 -10.8076 -0.887282 
-0.0262952 -10.749 -0.62274 -0.0324548 -10.6867 -0.34968 -0.0396989 -10.6197 -0.062728 
-0.0475791 -10.5499 0.232373 -0.0564019 -10.4824 0.537309 -0.0657978 -10.4162 0.848225 
-0.0760567 -10.3623 1.16248 -0.0868594 -10.3163 1.47884 -0.098194 -10.2935 1.79055 
-0.109876 -10.2859 2.09922 -0.121228 -10.3108 2.39502 -0.132358 -10.3576 2.68211 
-0.14172 -10.4428 2.9493 -0.149845 -10.5549 3.20257 -0.15443 -10.7067 3.43134 
-0.15645 -10.8875 3.64237 -0.153251 -11.1049 3.82746 -0.146138 -11.3499 3.99312 
-0.132684 -11.625 4.13471 -0.114308 -11.9233 4.25762 -0.0893677 -12.2428 4.36115 
-0.059155 -12.5794 4.44911 -0.0231536 -12.928 4.52431 0.0176567 -13.2865 4.5889 
0.0626779 -13.649 4.6482 0.111318 -14.0147 4.70293 0.162294 -14.378 4.75946 
0.215346 -14.7391 4.81759 0.269221 -15.094 4.88313 0.323854 -15.4432 4.9555 
0.378729 -15.7844 5.03862 0.433834 -16.1181 5.13197 0.489725 -16.4441 5.23682 
0.546389 -16.7626 5.35299 0.605254 -17.0747 5.47907 0.666358 -17.3805 5.61525 
0.731361 -17.682 5.75811 0.800466 -17.9789 5.90799 0.874812 -18.2738 6.06063 
0.954859 -18.5663 6.21627 1.04074 -18.8584 6.37096 1.1332 -19.1503 6.5246 
1.23128 -19.443 6.67457 1.33591 -19.7368 6.82029 1.4454 -20.032 6.96107 
1.56074 -20.3289 7.09588 1.67996 -20.6272 7.22598 1.80401 -20.9271 7.3502 
1.93107 -21.2277 7.47126 2.062 -21.529 7.58825 2.1955 -21.8299 7.70447 
2.33239 -22.1301 7.81968 2.47198 -22.4282 7.93666 2.61528 -22.7235 8.05609 
2.7621 -23.015 8.17932 2.91395 -23.301 8.30797 3.07074 -23.581 8.44144 
3.23483 -23.8523 8.58206 3.40553 -24.1153 8.72749 3.58636 -24.3658 8.88029 
3.77531 -24.6059 9.03708 3.97715 -24.8296 9.20018 4.18805 -25.0411 9.36601 
4.41385 -25.2327 9.53632 4.64889 -25.4109 9.70805 4.89969 -25.5665 9.88218 
5.15912 -25.7086 10.0566 5.43383 -25.8268 10.2316 5.71595 -25.9323 10.4062 
6.01169 -26.0146 10.5798 6.31327 -26.0861 10.7526 6.62597 -26.1369 10.9236 
6.94282 -26.1795 11.0935 7.26787 -26.2055 11.2613 7.59547 -26.226 11.4282 
7.9283 -26.235 11.593 8.26232 -26.2412 11.7571 8.59883 -26.2409 11.9198 
8.9354 -26.2397 12.0822 9.27207 -26.2362 12.244 9.6079 -26.2329 12.4061 
9.94179 -26.2299 12.5688 10.2741 -26.2271 12.7324 10.6028 -26.2251 12.898 
10.9293 -26.2229 13.0651 11.2508 -26.2201 13.2356 11.5698 -26.216 13.4079 
11.8826 -26.2084 13.5847 12.1928 -26.1983 13.7634 12.4962 -26.1811 13.9471 
12.7972 -26.1603 14.1323 13.0915 -26.1294 14.3221 13.3838 -26.0944 14.513 
13.6702 -26.0473 14.7073 13.9552 -25.9962 14.902 14.2357 -25.9331 15.0982 
14.5153 -25.8669 15.2945 14.7922 -25.791 15.4908 15.0687 -25.7134 15.6869 
15.3439 -25.6301 15.8823 15.6191 -25.5466 16.0775 15.8941 -25.4625 16.2722 
16.1691 -25.3794 16.4672 16.4443 -25.3007 16.6631 16.7194 -25.2241 16.8598 
16.9943 -25.1556 17.0595 17.269 -25.0898 17.2604 17.5427 -25.0348 17.4666 
17.816 -24.9827 17.6745 18.0875 -24.9432 17.8896 18.3585 -24.9067 18.1064 
18.627 -24.8842 18.3316 18.8948 -24.8647 18.5585 19.1596 -24.8604 18.7937 
19.4235 -24.8593 19.0303 19.6836 -24.875 19.2741 19.9427 -24.894 19.5188 
20.1967 -24.9316 19.7687 20.4494 -24.9727 20.0191 20.6946 -25.0346 20.2718 
20.938 -25.1002 20.5245 21.1705 -25.1893 20.7764 21.4007 -25.2821 21.0277 
21.615 -25.4011 21.2749 21.8264 -25.5239 21.5213 22.0161 -25.6753 21.7609 
22.2024 -25.8304 21.9993 22.3607 -26.0159 22.229 22.5152 -26.2048 22.4575 
22.6364 -26.4244 22.6761 22.7539 -26.6471 22.8936 22.835 -26.8996 23.1009 
22.9128 -27.1546 23.3074 22.9546 -27.4364 23.5046 22.9938 -27.7199 23.7011 
23.0015 -28.025 23.8903 23.0076 -28.3311 24.0793 22.9909 -28.6507 24.2642 
22.9736 -28.9705 24.4491 22.9457 -29.2932 24.6347 22.918 -29.6153 24.8206 
22.8949 -29.927 25.0128 22.8726 -30.2376 25.2057 22.8719 -30.5221 25.4114 
22.8725 -30.8051 25.6179 22.9125 -31.0448 25.8442 22.954 -31.2829 26.0713 
23.0536 -31.4592 26.3255 23.1545 -31.634 26.5803 23.3324 -31.7278 26.8697 
23.5112 -31.8207 27.1595 23.7865 -31.8129 27.4913 24.0617 -31.8051 27.8231 

LINES 2 240
OFFSETS vtktypeint64
0 240 
CONNECTIVITY vtktypeint64
0 1 2 3 4 5 6 7 8 
9 10 11 12 13 14 15 16 17 
18 19 20 21 22 23 24 25 26 
27 28 29 30 31 32 33 34 35 
36 37 38 39 40 41 42 43 44 
45 46 47 48 49 50 51 52 53 
54 55 56 57 58 59 60 61 62 
63 64 65 66 67 68 69 70 71 
72 73 74 75 76 77 78 79 80 
81 82 83 84 85 86 87 88 89 
90 91 92 93 94 95 96 97 98 
99 100 101 102 103 104 105 106 107 
108 109 110 111 112 113 114 115 116 
117 118 119 120 121 122 123 124 125 
126 127 128 129 130 131 132 133 134 
135 136 137 138 139 140 141 142 143 
144 145 146 147 148 149 150 151 152 
153 154 155 156 157 158 159 160 161 
162 163 164 165 166 167 168 169 170 
171 172 173 174 175 176 177 178 179 
180 181 182 183 184 185 186 187 188 
189 190 191 192 193 194 195 196 197 
198 199 200 201 202 203 204 205 206 
207 208 209 210 211 212 213 214 215 
216 217 218 219 220 221 222 223 224 
225 226 227 228 229 230 231 232 233 
234 235 236 237 238 239 
CELL_DATA 1
FIELD FieldData 3
Length 1 1 double
79.897067905 
Tortuosity 1 1 double
0.64303563727 
ClusterLabel 1 1 int
3 
POINT_DATA 240
FIELD FieldData 6
Curvature 1 240 double
0 0.28965916427 0.57931832854 0.65356053637 0.72597717678 0.62999495376 0.53113411769 0.41718277373 0.30284115802 
0.23540486406 0.16960005955 0.13488466151 0.10153283394 0.086259389949 0.071945860133 0.075995089506 0.081191991329 0.10897383 
0.13838341187 0.19334984107 0.25040728506 0.32790088217 0.40726935571 0.46891114688 0.52874744263 0.5245146993 0.51309664317 
0.45795030863 0.39744107202 0.34078445519 0.28464152099 0.24674106308 0.21147173156 0.18907308587 0.16867377001 0.15471857595 
0.14183740218 0.13225016742 0.1232499713 0.11682312143 0.11088520736 0.10775494772 0.10519189101 0.10554789061 0.10652940229 
0.11064235043 0.11546552128 0.12455297581 0.13466208162 0.15263127227 0.17258616857 0.20769740931 0.24683959272 0.31671799717 
0.39518932363 0.52535978728 0.67070282379 0.83510735936 1.0053769716 1.041599549 1.0346291929 0.90404705278 0.73179801908 
0.58165122189 0.43929043984 0.3420578819 0.26142421098 0.20483538931 0.15747307956 0.1190419116 0.084183200363 0.051432360259 
0.019559799794 0.038268580167 0.078916255361 0.13077105513 0.18768272818 0.23371829839 0.27465149936 0.27586548636 0.25771635655 
0.20792133065 0.14210306623 0.087864062746 0.039711593866 0.027166176923 0.03404278831 0.029702754005 0.019016459638 0.02172354721 
0.03228808552 0.056693862281 0.089516608371 0.12910222926 0.1729493877 0.22677951296 0.28712629711 0.35339454946 0.42366604791 
0.47653154683 0.51721284607 0.51736709808 0.48815392456 0.43549838264 0.36526106442 0.29833239354 0.23397162806 0.17975895323 
0.13369550273 0.094996876941 0.062416720906 0.040841687151 0.028724180354 0.033132835359 0.052231411964 0.070097299576 0.086829908595 
0.098756783542 0.10611427199 0.10773601985 0.10371762279 0.095884790681 0.084172872086 0.072876657558 0.062017649032 0.055609752834 
0.054043417415 0.05515415716 0.059276606463 0.06227905339 0.063978224822 0.063291299369 0.059732220256 0.054074943519 0.045804816911 
0.037794380102 0.03011854361 0.028146361247 0.033779051054 0.042675460572 0.056075803291 0.069893333543 0.084306845986 0.098785244276 
0.11335961954 0.12767055137 0.14157791026 0.15465851446 0.16642709489 0.17638828522 0.18337732295 0.1875087777 0.18676935237 
0.18304007488 0.17402640755 0.16285340624 0.14772162596 0.13172405383 0.11407936549 0.096406839275 0.078679333279 0.061715439851 
0.046317931175 0.032040970785 0.020152547533 0.011257734155 0.0089974075282 0.0090908844909 0.014611186397 0.019973605508 0.024957105912 
0.03034294073 0.036734611582 0.043419572528 0.050868865231 0.057974291659 0.06414483165 0.069504504356 0.072562360254 0.074267421975 
0.071959194304 0.068323268268 0.060566899031 0.051917797717 0.040367317154 0.028359896442 0.014795494482 0.0062288524584 0.015538813284 
0.025235875942 0.036388441484 0.046996281186 0.055447914434 0.063376908134 0.069124449812 0.074434829494 0.077817722196 0.080877245019 
0.0824277084 0.084007128678 0.085729885598 0.087548040896 0.089868292916 0.092538977289 0.097175976533 0.10229228104 0.1102844171 
0.11879302231 0.1306263976 0.1428906933 0.15814270384 0.17360380077 0.19063304562 0.20723098493 0.22031212526 0.23229329228 
0.23446636389 0.2352534663 0.22243287118 0.20860807587 0.18383749851 0.15866309165 0.12855299102 0.098436100295 0.068224997213 
0.039924221109 0.042188676657 0.046553039567 0.090465657793 0.13526272592 0.20022525185 0.26577080755 0.34807846912 0.42944573903 
0.47445119801 0.51782880327 0.46597696558 0.41282629337 0.20641314669 0 
Torsion 1 240 double
0 0 0 0.036246674989 0.07280052519 0.10101663314 0.12909021558 0.18265652423 0.23688212753 
0.3187202473 0.40151880242 0.54012061358 0.68116993598 0.90335823903 1.1298548065 1.1487553061 1.1546810514 0.9627723079 
0.7566052229 0.62245255792 0.49419198185 0.4243503331 0.35986821898 0.3320798592 0.30802882625 0.31219097657 0.31951722221 
0.34231914246 0.3670190228 0.3832977194 0.3984535915 0.39056235084 0.37934700738 0.35889461684 0.3370073452 0.32399443918 
0.31246059409 0.31150937224 0.31244416246 0.31261005325 0.31262985315 0.29756432075 0.27945124646 0.24520347525 0.20749826897 
0.16249777168 0.11584267231 0.072509283626 0.029971721468 -0.0064936965631 -0.041425099236 -0.070272689964 -0.097502245599 -0.117721162 
-0.13598011475 -0.14365272398 -0.14821847153 -0.14535554692 -0.14020687704 -0.14115998418 -0.14407921947 -0.15298238348 -0.16390260212 
-0.16801943601 -0.16973962299 -0.16569391656 -0.15952742175 -0.15852276072 -0.15949880334 -0.20055327992 -0.25763913009 -4.6860101086 
-10.93574989 -8.480781599 -2.2502772758 -0.25725684544 -0.17627183022 -0.14471145625 -0.13633795102 -0.15206139585 -0.17953210385 
-0.31052407173 -0.49393186741 -2.5088874486 -5.4865796863 -4.5984936704 -1.6018013346 0.11100474248 1.0974014888 1.1297777598 
0.60246201853 0.29864141423 0.13073001485 0.059438968187 0.0490319794 0.045824935633 0.047317855977 0.049080855569 0.051026443948 
0.053269693939 0.055721307058 0.060061183336 0.065769366251 0.073992724873 0.084102465276 0.097889132756 0.11452953468 0.14621342759 
0.18997769962 0.35825577168 0.62997607764 1.2281195477 2.1067829245 1.9232586466 0.79556756456 0.19264269163 0.072164172244 
-0.01593703212 -0.073253248426 -0.13759937272 -0.20885823987 -0.3119025645 -0.44727108317 -0.62282094324 -0.84063048994 -0.93313081364 
-0.88932987724 -0.76713697302 -0.55675310498 -0.38789495266 -0.26735763319 -0.15930795136 -0.066289685225 0.067774526954 0.25295255873 
0.59465220636 1.1380239359 1.271739115 0.85924556003 0.49823308356 0.20826449543 0.0053207803252 -0.073301687602 -0.12734242471 
-0.145022685 -0.15253081584 -0.1444561101 -0.13269837929 -0.11509584781 -0.097621877496 -0.080359318859 -0.06492220452 -0.052596642961 
-0.042201247537 -0.035217308538 -0.029622818385 -0.026575651116 -0.025033610313 -0.026354980835 -0.028022009602 -0.0303717134 -0.02593752039 
-0.0075876416199 0.093775934743 0.37208976124 0.62743906675 0.83189402846 0.77980937873 0.13625840262 -0.34143993013 -0.42109191879 
-0.47017745353 -0.44284685346 -0.4085365709 -0.35603681274 -0.3089767203 -0.27670571905 -0.24779522802 -0.22842424988 -0.21141713183 
-0.20142279869 -0.19294842206 -0.18919115189 -0.18867988887 -0.19871814912 -0.50503591963 -1.8208986881 -2.5640168199 -1.2584714442 
-0.22053430276 -0.1888041226 -0.16001758911 -0.14288299039 -0.12377361767 -0.096421710026 -0.068251649007 -0.036474275389 -0.0051398141517 
0.024127722642 0.051838074865 0.071840363461 0.088735406568 0.08927652605 0.08759092576 0.073410953415 0.058093546085 0.035951528846 
0.013563411585 -0.010408974568 -0.033250492887 -0.048251327556 -0.062046852163 -0.066802551309 -0.070701074561 -0.067610317448 -0.064275934782 
-0.058769224267 -0.053650410592 -0.052340038607 -0.051894971493 -0.060881727472 -0.07301290061 -0.12357583903 -0.20650991024 -0.73859344899 
-1.2381557316 -1.2173779161 -1.1716708984 -0.65646390828 -0.16056199308 -0.10481578707 -0.05043210385 -0.035220951135 -0.020276145277 
-0.015630084557 -0.010969538942 -0.0054616269837 0 0 0 
FrenetTangent 3 240 double
-0.56714507367 -0.22347469448 -0.79272033299 -0.56714507367 -0.22347469448 -0.79272033299 -0.56714507367 -0.22347469448 -0.79272033299 
-0.54878862427 -0.4126183268 -0.69393023818 -0.53027661174 -0.60336487127 -0.59430293918 -0.48077130128 -0.72539961453 -0.45278649299 
-0.43073619086 -0.84625979708 -0.310553993 -0.38822727839 -0.89121124879 -0.19524611692 -0.34591300896 -0.93419954366 -0.080634567318 
-0.32451744141 -0.94259094262 -0.003994841647 -0.30384948088 -0.94977897128 0.071324124931 -0.30087584162 -0.94495461417 0.11949727144 
-0.29867826908 -0.93960339803 0.1664798118 -0.30960377601 -0.93047310621 0.19354998943 -0.32122608362 -0.92114215551 0.21956287347 
-0.34260327124 -0.91130111704 0.22700262352 -0.36459013886 -0.90142819807 0.2332815527 -0.39326321809 -0.89261969332 0.21758992278 
-0.42241818645 -0.8838879031 0.20031482914 -0.45340839745 -0.8759400582 0.15411939795 -0.48454876467 -0.86805635429 0.10555775732 
-0.50752001293 -0.85658654659 0.021781177605 -0.52974180073 -0.84478773856 -0.065226130469 -0.52802159161 -0.82092644683 -0.1806596634 
-0.52386284577 -0.7958365688 -0.29898845996 -0.4870401695 -0.75630843821 -0.4167214413 -0.44655424871 -0.71516106434 -0.53438760225 
-0.3846341591 -0.67097730132 -0.62327243051 -0.32008535068 -0.62642115095 -0.70862747269 -0.25094414757 -0.59053222277 -0.76152597665 
-0.18119062517 -0.55579892421 -0.81009694219 -0.11497973222 -0.53248944166 -0.83546922067 -0.049279795434 -0.51082762487 -0.85749553466 
0.010956331948 -0.49869294964 -0.8646163347 0.070343712239 -0.48803821874 -0.8694217151 0.12381740446 -0.48474259773 -0.8642481696 
0.176305482 -0.48267349503 -0.85741146978 0.22232293075 -0.48665978263 -0.84350580291 0.26718719814 -0.49172524869 -0.82834032013 
0.30504554774 -0.50210259841 -0.80805935504 0.34157277296 -0.51348920603 -0.78680644831 0.37105652844 -0.52948710588 -0.76174552874 
0.39911736074 -0.54641657992 -0.73591531365 0.42084917339 -0.5670389657 -0.70684939761 0.44122476754 -0.58845268973 -0.67709011709 
0.45659287554 -0.61254771443 -0.64372436447 0.47082526503 -0.63725086918 -0.60954064912 0.48169015398 -0.66366144171 -0.57020823911 
0.49174824593 -0.69048108309 -0.52964228768 0.49994619901 -0.71808342221 -0.48071767273 0.50767422227 -0.74588349551 -0.42968139543 
0.51445735964 -0.77272953159 -0.36461720816 0.52098919756 -0.79932183437 -0.29582219376 0.5260374862 -0.81981655185 -0.20371565215 
0.53067101912 -0.83860656807 -0.10509190939 0.52902681049 -0.83638608964 0.02834156406 0.5255402212 -0.82799948778 0.17199093673 
0.50283618239 -0.76776604929 0.34574170404 0.47421908219 -0.691579738 0.52875443893 0.41833695544 -0.55100490218 0.68667524926 
0.35366943125 -0.38968265291 0.8365108839 0.28416169144 -0.21837679107 0.91398759045 0.21302241829 -0.043705666577 0.96707364709 
0.15780630987 0.097108800339 0.97348631378 0.10819949812 0.22599649015 0.9634572181 0.074358201564 0.32198552902 0.93952230392 
0.046315715195 0.40587391467 0.91047260593 0.028684868389 0.46706954745 0.8817782043 0.015049185602 0.519557496 0.85322013733 
0.0078469894756 0.55581433015 0.83053467206 0.0032181880132 0.58557871854 0.81019824747 0.002491991473 0.6016864523 0.7986294958 
0.0033918803172 0.61210391329 0.79071394118 0.0063184855426 0.60866734978 0.79331108794 0.010124148476 0.59922181178 0.8004679606 
0.014080699781 0.5743562247 0.81765083251 0.018105334864 0.54253281061 0.83935763091 0.020242156264 0.49661527005 0.86586425171 
0.021493336676 0.44408567016 0.89462264103 0.019690510568 0.38801030179 0.91954969679 0.01639885628 0.33020637127 0.94260897744 
0.01107010992 0.28437874759 0.95783381722 0.0047099245356 0.24461507675 0.9690918515 -0.0015854848282 0.22248465236 0.97483814224 
-0.0078468452582 0.20962298571 0.97768723445 -0.012879955618 0.20788931001 0.9780500708 -0.017243111394 0.21222544757 0.97705676758 
-0.020486854623 0.21778231186 0.97576081314 -0.023097246015 0.2240298505 0.97429362181 -0.025236996719 0.22398922834 0.97425677384 
-0.027100638219 0.22025955185 0.97505906063 -0.029005394778 0.20559609339 0.97799724166 -0.030935153738 0.18428371346 0.98223427731 
-0.032944830141 0.14838223831 0.98748362557 -0.035004865483 0.10328763466 0.99337086944 -0.036529528638 0.03994509285 0.99612237607 
-0.037704712728 -0.035309297488 0.9968269431 -0.036986547366 -0.12992086224 0.98573478774 -0.034988371106 -0.23761896744 0.96666738344 
-0.029571342215 -0.35557936419 0.92569208178 -0.021761116481 -0.48072336504 0.86938125197 -0.01055770515 -0.59555062073 0.79285691877 
0.0031045363232 -0.70290197412 0.70168511934 0.018188136244 -0.78689392476 0.60742603762 0.034337755 -0.85336632335 0.51085149416 
0.050097566852 -0.90038588274 0.42540703135 0.065554842003 -0.93230771619 0.3486008401 0.079857802659 -0.95353993216 0.28647532182 
0.093233813797 -0.96618806135 0.2361388288 0.10519336148 -0.97397441043 0.19917370609 0.11597615491 -0.97772174219 0.17331710639 
0.12524146553 -0.97929145376 0.15885652648 0.13320268936 -0.97898977299 0.15418940108 0.13972485645 -0.97724977471 0.15903645713 
0.14496786199 -0.97423127199 0.17234056336 0.14924784456 -0.96950980379 0.19279550361 0.1526424673 -0.96322270603 0.21982459773 
0.15601884805 -0.95492296252 0.25057881982 0.15937788395 -0.94470955585 0.28487496686 0.16386966002 -0.93301668584 0.31877837425 
0.16947529727 -0.91986901021 0.35229558765 0.1770533452 -0.90668516496 0.38194051741 0.18663723451 -0.89346453702 0.4076475316 
0.19825604718 -0.88172639356 0.42765676199 0.2120150379 -0.87154741483 0.44167349563 0.22712112746 -0.8636117066 0.44985006204 
0.24369248245 -0.85811604699 0.45167416584 0.26056874589 -0.8546757775 0.44874052956 0.27778803133 -0.85354782189 0.4404544357 
0.29436082523 -0.85368456309 0.42923248431 0.31018133806 -0.8552929515 0.41459426233 0.32480510441 -0.85724121814 0.39915242522 
0.33798834257 -0.85959859747 0.3827432736 0.34994295908 -0.86150806781 0.36761293175 0.36036759389 -0.86285976471 0.35407507001 
0.37001483825 -0.86316895768 0.3434289215 0.37866044491 -0.86213492442 0.33650863427 0.38731947067 -0.85956932005 0.33325225371 
0.39599638855 -0.85496162086 0.33488108204 0.40565010394 -0.84832897515 0.33997188129 0.41665179991 -0.83890190326 0.34984020043 
0.42959093862 -0.82691745748 0.36217514105 0.44529785267 -0.81127962045 0.37803382667 0.46362795156 -0.7925602439 0.39497427034 
0.48583817804 -0.76928275684 0.41351481447 0.51073916396 -0.74254082328 0.4317262017 0.53976216434 -0.71049165254 0.44943334859 
0.57076315044 -0.67488588081 0.4656610544 0.60490311388 -0.63363593795 0.47954095156 0.63965279268 -0.58923101127 0.49122967109 
0.67540511452 -0.53963788899 0.49931512071 0.71011699041 -0.48807070563 0.50500853604 0.7430553789 -0.43313864545 0.50662462019 
0.77366191191 -0.378116492 0.50619733012 0.80014702592 -0.32293510394 0.50215849492 0.82386498287 -0.26963082219 0.49684576597 
0.84250981858 -0.21976790202 0.48919756514 0.85874570929 -0.17315338899 0.48115944394 0.87039872905 -0.13271877247 0.47237952305 
0.88035452192 -0.096119390606 0.4639008379 0.88695829169 -0.06709459717 0.45601709337 0.89250463484 -0.041760012709 0.44888102724 
0.89588189774 -0.023995087682 0.44327866037 0.89859733414 -0.0092251066232 0.43862874677 0.89990203512 -0.00083908507461 0.43600906252 
0.90069331342 0.0055263769812 0.43441779533 0.90034673605 0.0074138423233 0.43510572269 0.8994824477 0.00843945028 0.43686182501 
0.89742454791 0.0074779981537 0.44108066406 0.89483978741 0.0067612486074 0.44629520099 0.89099056122 0.0066317852529 0.45389941285 
0.88663847111 0.0076510779228 0.46231697456 0.88102922118 0.011542260654 0.47276791088 0.87498947703 0.017158550325 0.48368842437 
0.86782783885 0.027270573236 0.49583268443 0.86038060795 0.039134576929 0.50792322644 0.85215692186 0.055761778374 0.51986772248 
0.84385060212 0.073682377457 0.53122391291 0.83530970943 0.095274556935 0.54091007451 0.8269456373 0.11729524694 0.54965411834 
0.81910613285 0.14058718486 0.55560321276 0.81170720276 0.16325775142 0.56060310189 0.80567557241 0.18399992416 0.56265718148 
0.80022848508 0.20327359476 0.56411092433 0.79668116256 0.2177746334 0.56361357279 0.79368896909 0.23034074617 0.56301482212 
0.7925883265 0.23631377817 0.56207056335 0.79182035841 0.24029400282 0.56149368189 0.79224234144 0.23714610886 0.56223088081 
0.7926567888 0.23231888186 0.5636227363 0.79304290205 0.22117736261 0.56747610048 0.79312358977 0.20883615842 0.57202800173 
0.79199530144 0.19174620126 0.57934494553 0.79040058694 0.17390000541 0.58722221815 0.78685905017 0.15289733502 0.59743825456 
0.78286815897 0.13143761228 0.6079448604 0.77689602322 0.10796270421 0.61973261331 0.77060559416 0.084188383794 0.63151428729 
0.76282979631 0.05901680575 0.64326759289 0.75486656787 0.033552491033 0.65480405374 0.74597555803 0.0066391297809 0.66526713313 
0.7369677628 -0.020635747702 0.67539138445 0.72734530767 -0.049813342192 0.68373233016 0.71756309391 -0.079443982422 0.69170745645 
0.70688445675 -0.11161671264 0.69762992935 0.69588207284 -0.14439622854 0.70320442863 0.68293720841 -0.18081645858 0.70669108615 
0.66940372142 -0.21798049755 0.70983370458 0.65208097658 -0.25993280647 0.71076157134 0.63382169549 -0.30264865695 0.71132316945 
0.60906909631 -0.35065839548 0.7093453049 0.58305847735 -0.39925820497 0.70691099276 0.54761271005 -0.45228354663 0.70105332364 
0.51080612161 -0.50544905124 0.6946108979 0.46290360694 -0.55975742297 0.68340045657 0.41397319892 -0.61356009073 0.67156164848 
0.35587740848 -0.66285356476 0.65411990355 0.29750221456 -0.71111627617 0.63623861738 0.23638378652 -0.74925877275 0.61404183545 
0.17579564066 -0.78624529855 0.59181958215 0.12098757048 -0.81063174298 0.56931969091 0.067212264251 -0.83410290748 0.54721243191 
0.026059628413 -0.84638731731 0.5299040114 -0.013922706191 -0.85807526019 0.51325487648 -0.037667111167 -0.86148722404 0.50575332889 
-0.060277072988 -0.86447684796 0.49903768319 -0.064735944316 -0.86070903294 0.50489646748 -0.068076133731 -0.85648102951 0.51157605523 
-0.050347813753 -0.84358614441 0.53371410823 -0.031459433482 -0.82995905175 0.55659775689 0.013878321493 -0.79963762654 0.59648098668 
0.060316563085 -0.76814091612 0.63675555329 0.1383937949 -0.70285475555 0.68828105356 0.21702978947 -0.6362692565 0.73946141099 
0.31727127707 -0.51944266947 0.77729624515 0.41724971755 -0.40212359989 0.81439787126 0.50183990096 -0.25599430088 0.8086068266 
0.5857192425 -0.11109297916 0.80286444618 0.5857192425 -0.11109297916 0.80286444618 0.5857192425 -0.11109297916 0.80286444618 

FrenetNormal 3 240 double
-0.018795696982 -0.95872308491 0.28371952388 -0.018795696982 -0.95872308491 0.28371952388 -0.018795696982 -0.95872308491 0.28371952388 
0.08167567207 -0.86289211913 0.44848616024 0.1829984934 -0.76624902653 0.61464912403 0.24834745933 -0.61518582695 0.72180503053 
0.31308148755 -0.46319236913 0.82795226939 0.31322554958 -0.32917183608 0.87923609104 0.31169918145 -0.19561612005 0.92910103121 
0.24321094874 -0.087989112448 0.95699789741 0.17239360771 0.018736027034 0.9841306567 0.014259047242 0.11829126757 0.97435376438 
-0.14770521583 0.21753203886 0.96295802769 -0.40153317212 0.30026970674 0.80415273556 -0.66023884664 0.38213110364 0.63752038739 
-0.79413913461 0.36387058177 0.26180862466 -0.92023908592 0.33935243998 -0.12697060148 -0.82214869866 0.26460608156 -0.40327340575 
-0.70790044916 0.18623967149 -0.67146980125 -0.5608442636 0.15136173149 -0.79202370774 -0.41110379236 0.12004193905 -0.90049777422 
-0.26839030738 0.13526119543 -0.94224448897 -0.12632150004 0.15475008932 -0.97786942834 0.015213117402 0.20316287466 -0.96727761692 
0.15669332661 0.2545216119 -0.95197854385 0.29175090238 0.3042582253 -0.89320739076 0.42608818281 0.35381291826 -0.8295608642 
0.54221521887 0.37406292998 -0.73741652537 0.65610892306 0.39071897137 -0.64177717183 0.7464602347 0.37109541367 -0.53386269523 
0.83367256066 0.34663457609 -0.42431153557 0.89231615414 0.29671856669 -0.31199078581 0.94683925735 0.24313113827 -0.19927057594 
0.97131740456 0.17959883098 -0.091317156748 0.99112837415 0.11452168813 0.015895790106 0.98501171872 0.045912676071 0.11534422647 
0.97457379245 -0.02328498086 0.21349857774 0.94012160778 -0.096762654587 0.30359520163 0.90138965428 -0.17100310359 0.39225579489 
0.83782410426 -0.24737347199 0.46997687892 0.76954017091 -0.32414852509 0.5456194562 0.68274480902 -0.39132026974 0.60457946856 
0.5922097646 -0.45655195209 0.66016926578 0.50117159888 -0.49942534429 0.69904529249 0.41002562145 -0.5375076743 0.73433979695 
0.3345048576 -0.55052755832 0.76113910399 0.26252795662 -0.55786317623 0.78601166523 0.21227272237 -0.54262213332 0.81087686917 
0.16722163745 -0.52197209875 0.83574031042 0.13686869048 -0.48255830552 0.86317638873 0.11022895731 -0.43840419432 0.8912623964 
0.090139908998 -0.37403272679 0.91987613942 0.071793064097 -0.30428430281 0.94863023759 0.048461159221 -0.21015974483 0.97094058515 
0.023735581664 -0.1092203537 0.99144945404 -0.016789045181 0.022916794454 0.98898867043 -0.061950349535 0.16420980609 0.97978679316 
-0.12558416493 0.32956027906 0.91442331441 -0.19490182989 0.50231304784 0.83177934289 -0.25851963112 0.64931229604 0.67852209835 
-0.3203008096 0.78801318762 0.50251168807 -0.34838259669 0.86152423621 0.31418241348 -0.36510503836 0.91306118043 0.12170071273 
-0.3548634748 0.92366902599 -0.034584727172 -0.33512322758 0.91985866634 -0.17811921155 -0.30333238991 0.90358782169 -0.28563667681 
-0.26710915115 0.88273381016 -0.37990650285 -0.22532753365 0.8614891938 -0.44896535827 -0.18141304987 0.8400946942 -0.50835023659 
-0.12483754462 0.82312364851 -0.54962429792 -0.063197630793 0.80792198439 -0.58365403245 0.31132485088 0.58879323603 -0.439452657 
0.81621506916 0.28469486924 -0.22098831906 0.69384487876 -0.14902238036 0.10216720154 0.2994099328 -0.6389598683 0.47073094596 
0.1373945154 -0.8098775334 0.56649097955 0.080251324317 -0.83684722965 0.53915665582 0.035811596623 -0.86530496157 0.49545140489 
-0.002668481579 -0.89446078429 0.44406596589 -0.043283499759 -0.91784700388 0.38822964878 -0.084939301178 -0.93842054195 0.33022352858 
-0.1511005423 -0.94364188885 0.28199446205 -0.229669601 -0.94108997441 0.23871580244 -0.49619017026 -0.67797630983 0.15679080056 
-0.86150576431 -0.27790069966 0.054551695689 -0.78053810963 0.20299342678 -0.054302207734 -0.45614322838 0.72797038028 -0.16676418309 
-0.37491510645 0.90132542188 -0.20903245322 -0.43126817729 0.875736487 -0.21158586381 -0.35966779781 0.29176238096 -0.079333759642 
-0.21300139414 -0.61979769216 0.13200424651 -0.12877145402 -0.97012862647 0.20010263645 -0.082509633631 -0.97917157095 0.18109585437 
-0.0551941589 -0.98670004922 0.14642090437 -0.039817477328 -0.99327420632 0.10187286227 -0.024299228548 -0.99646089638 0.039065518869 
-0.0086885678405 -0.99743632324 -0.035661090651 0.0087008098102 -0.98633215387 -0.12967567641 0.027292700324 -0.96706149691 -0.23673002075 
0.046880201195 -0.92546156078 -0.35399517559 0.067164629317 -0.86823112924 -0.47840789779 0.08742708909 -0.79024685252 -0.5924245505 
0.10767362977 -0.69722355755 -0.69890781954 0.12855953984 -0.60041624737 -0.78165320196 0.14992497695 -0.50077092578 -0.84659516944 
0.17486084473 -0.41119048379 -0.89086042607 0.20256779301 -0.32942159015 -0.91907808622 0.24006355892 -0.26017951924 -0.93283948817 
0.28542004203 -0.20099686659 -0.93499207672 0.37052067972 -0.14602011011 -0.90894298621 0.48863953815 -0.094537482752 -0.85946480849 
0.60253089983 0.0022940029945 -0.44870517025 0.7127892565 0.13809716392 0.27253072313 0.60943311416 0.20242166466 0.70451666323 