# vtk DataFile Version 5.1
vtk output
ASCII
DATASET POLYDATA
POINTS 240 float
0 0 0 -0.143718 -0.349892 0.201091 -0.287436 -0.699783 0.402181 
-0.439042 -0.969439 0.488703 -0.590714 -1.23841 0.574254 -0.746082 -1.44233 0.564753 
-0.901513 -1.64513 0.553628 -1.05663 -1.79799 0.466584 -1.21173 -1.94955 0.377577 
-1.3628 -2.06647 0.231278 -1.51373 -2.18219 0.0829872 -1.65723 -2.27883 -0.104713 
-1.80041 -2.37464 -0.294142 -1.93293 -2.46682 -0.506281 -2.0649 -2.5588 -0.719627 
-2.1829 -2.66149 -0.940822 -2.30002 -2.76485 -1.16251 -2.39961 -2.89067 -1.37982 
-2.49794 -3.01811 -1.59681 -2.57513 -3.17568 -1.80071 -2.6506 -3.33571 -2.00353 
-2.70201 -3.52827 -2.18866 -2.75122 -3.72382 -2.37216 -2.77495 -3.94879 -2.53758 
-2.79609 -4.17675 -2.70116 -2.7924 -4.42603 -2.85 -2.78593 -4.6777 -2.9972 
-2.75737 -4.93893 -3.13585 -2.72611 -5.20132 -3.27345 -2.67689 -5.45974 -3.41021 
-2.62528 -5.71762 -3.54686 -2.56005 -5.95835 -3.69048 -2.49286 -6.19662 -3.8351 
-2.41519 -6.4069 -3.99336 -2.3359 -6.61283 -4.15375 -2.24711 -6.78387 -4.33237 
-2.15673 -6.9491 -4.51404 -2.05547 -7.0774 -4.71589 -1.95228 -7.19912 -4.92132 
-1.83538 -7.28686 -5.14599 -1.71588 -7.36815 -5.37431 -1.58003 -7.42266 -5.61815 
-1.44087 -7.47175 -5.86511 -1.28463 -7.50392 -6.12128 -1.12473 -7.53246 -6.37942 
-0.950321 -7.55461 -6.6381 -0.772623 -7.57531 -6.89691 -0.586701 -7.59887 -7.14562 
-0.398809 -7.62312 -7.3919 -0.212211 -7.65691 -7.61606 -0.0259393 -7.69311 -7.83464 
0.147527 -7.74247 -8.01884 0.317588 -7.79534 -8.1939 0.4631 -7.86223 -8.32365 
0.601748 -7.93305 -8.44073 0.705788 -8.01668 -8.50476 0.799671 -8.10408 -8.55323 
0.852227 -8.20148 -8.54574 0.892067 -8.30195 -8.52103 0.888086 -8.40827 -8.44287 
0.869985 -8.51648 -8.34749 0.810055 -8.62497 -8.20614 0.736026 -8.73356 -8.0493 
0.626427 -8.83536 -7.85769 0.504297 -8.93477 -7.65383 0.35598 -9.01915 -7.4279 
0.198032 -9.09801 -7.19385 0.0248216 -9.15339 -6.94955 -0.154245 -9.19977 -6.70133 
-0.337764 -9.21543 -6.45206 -0.523064 -9.21879 -6.20238 -0.703503 -9.1869 -5.95727 
-0.881917 -9.14033 -5.71406 -1.04854 -9.05798 -5.47746 -1.21005 -8.96012 -5.24373 
-1.35553 -8.83058 -5.01562 -1.49378 -8.68675 -4.79006 -1.61419 -8.51963 -4.56725 
-1.72623 -8.34158 -4.34572 -1.8204 -8.15172 -4.12332 -1.90584 -7.9561 -3.90049 
-1.97438 -7.76162 -3.67353 -2.03435 -7.56772 -3.44446 -2.07869 -7.38754 -3.20913 
-2.11483 -7.21458 -2.9705 -2.13657 -7.06593 -2.72498 -2.15046 -6.93054 -2.47571 
-2.15107 -6.82693 -2.22039 -2.14417 -6.74129 -1.96166 -2.12518 -6.69123 -1.69887 
-2.0991 -6.66203 -1.4337 -2.06259 -6.66861 -1.16709 -2.01975 -6.69696 -0.899596 
-1.96883 -6.75836 -0.633495 -1.91284 -6.84059 -0.36827 -1.85184 -6.95124 -0.107205 
-1.78757 -7.08045 0.151146 -1.72168 -7.23272 0.402711 -1.6547 -7.40058 0.64969 
-1.58933 -7.58643 0.887455 -1.52508 -7.78488 1.11877 -1.46498 -7.99714 1.33879 
-1.40789 -8.21941 1.55063 -1.35654 -8.45236 1.74974 -1.30948 -8.69332 1.93932 
-1.26873 -8.94264 2.11574 -1.23287 -9.19845 2.28196 -1.20292 -9.46077 2.43589 
-1.1777 -9.7283 2.57997 -1.15716 -10.0006 2.71402 -1.14051 -10.2768 2.83975 
-1.12672 -10.556 2.95885 -1.11536 -10.8376 3.07226 -1.10465 -11.1203 3.18311 
-1.09449 -11.4039 3.29166 -1.08265 -11.6865 3.40166 -1.06925 -11.9683 3.51298 
-1.05199 -12.2476 3.62901 -1.03106 -12.5245 3.74951 -1.00446 -12.7978 3.87675 
-0.972304 -13.0675 4.01059 -0.933223 -13.333 4.15175 -0.887099 -13.5942 4.30034 
-0.833404 -13.8512 4.45559 -0.771746 -14.1036 4.61783 -0.702508 -14.3523 4.78522 
-0.625026 -14.5967 4.95822 -0.540565 -14.838 5.13459 -0.448253 -15.0756 5.31475 
-0.350097 -15.3108 5.49664 -0.245139 -15.5431 5.68055 -0.135864 -15.7735 5.865 
-0.0213928 -16.0017 6.05008 0.0956874 -16.2288 6.23498 0.216017 -16.4543 6.41966 
0.337341 -16.6792 6.60385 0.459947 -16.9031 6.78742 0.582309 -17.1266 6.97043 
0.704342 -17.3496 7.15269 0.825509 -17.5724 7.33436 0.945479 -17.795 7.51524 
1.06472 -18.0172 7.69548 1.18292 -18.239 7.87482 1.30128 -18.4601 8.05339 
1.41988 -18.6803 8.23084 1.5401 -18.8994 8.40731 1.66278 -19.1168 8.58231 
1.78877 -19.3326 8.75607 1.92001 -19.5458 8.9279 2.05611 -19.757 9.09823 
2.2002 -19.9648 9.2661 2.35024 -20.1703 9.43227 2.51044 -20.3719 9.5955 
2.67708 -20.5712 9.75688 2.85508 -20.7663 9.915 3.03937 -20.959 10.0713 
3.23517 -21.1471 10.2244 3.4366 -21.3325 10.376 3.64875 -21.5127 10.5246 
3.86559 -21.6893 10.6721 4.0917 -21.8592 10.8175 4.32148 -22.0245 10.9622 
4.55877 -22.1804 11.1059 4.79876 -22.3303 11.2495 5.04449 -22.4674 11.3931 
5.29209 -22.5969 11.5371 5.54385 -22.7095 11.6821 5.79684 -22.8131 11.8276 
6.05266 -22.8959 11.9746 6.30922 -22.9688 12.1222 6.56758 -23.0176 12.2712 
6.82632 -23.0562 12.4206 7.08603 -23.0692 12.5711 7.34587 -23.0724 12.7216 
7.60605 -23.0502 12.8725 7.86619 -23.0195 13.0232 8.12621 -22.9658 13.1733 
8.38608 -22.9053 13.3231 8.64553 -22.8259 13.4717 8.90479 -22.7419 13.6199 
9.16347 -22.6444 13.7667 9.42196 -22.5445 13.9131 9.67987 -22.437 14.0581 
9.93762 -22.3291 14.2029 10.1949 -22.2195 14.3469 10.452 -22.1107 14.4909 
10.7086 -22.0051 14.6349 10.9651 -21.9012 14.7792 11.2211 -21.8037 14.9246 
11.4769 -21.7084 15.0707 11.732 -21.6213 15.2195 11.9868 -21.5363 15.3693 
12.2402 -21.4599 15.5233 12.4931 -21.3853 15.6787 12.7439 -21.319 15.8399 
12.9939 -21.2544 16.0027 13.2409 -21.1978 16.1726 13.487 -21.1431 16.3442 
13.7289 -21.0974 16.5237 13.9698 -21.054 16.7047 14.2054 -21.0223 16.8938 
14.4398 -20.9937 17.0843 14.6673 -20.981 17.2822 14.8932 -20.972 17.4812 
15.1101 -20.9842 17.6868 15.3248 -21.0008 17.8933 15.5269 -21.0434 18.1051 
15.7264 -21.0905 18.3176 15.9086 -21.1669 18.5343 16.0874 -21.2477 18.7515 
16.2434 -21.3589 18.9717 16.3955 -21.4738 19.1922 16.5189 -21.6177 19.4144 
16.638 -21.7646 19.6366 16.7232 -21.9365 19.8587 16.8041 -22.1108 20.0806 
16.847 -22.3049 20.3002 16.8858 -22.5005 20.5194 16.8848 -22.7105 20.7337 
16.8801 -22.9214 20.9474 16.8361 -23.1414 21.1539 16.7892 -23.3619 21.3597 
16.706 -23.5872 21.5566 16.6206 -23.8127 21.7528 16.5047 -24.0399 21.9393 
16.3874 -24.2671 22.1254 16.2475 -24.494 22.3026 16.1068 -24.7207 22.4794 
15.9531 -24.9458 22.6496 15.7993 -25.1707 22.8196 15.643 -25.3929 22.9864 
15.487 -25.6149 23.1533 15.3402 -25.8333 23.3212 15.1938 -26.0516 23.4893 
15.0683 -26.2654 23.6636 14.9435 -26.4792 23.8381 14.8517 -26.6876 24.0241 
14.7603 -26.8958 24.2103 14.7146 -27.0977 24.4137 14.6688 -27.2996 24.617 

LINES 2 240
OFFSETS vtktypeint64
0 240 
CONNECTIVITY vtktypeint64
0 1 2 3 4 5 6 7 8 
9 10 11 12 13 14 15 16 17 
18 19 20 21 22 23 24 25 26 
27 28 29 30 31 32 33 34 35 
36 37 38 39 40 41 42 43 44 
45 46 47 48 49 50 51 52 53 
54 55 56 57 58 59 60 61 62 
63 64 65 66 67 68 69 70 71 
72 73 74 75 76 77 78 79 80 
81 82 83 84 85 86 87 88 89 
90 91 92 93 94 95 96 97 98 
99 100 101 102 103 104 105 106 107 
108 109 110 111 112 113 114 115 116 
117 118 119 120 121 122 123 124 125 
126 127 128 129 130 131 132 133 134 
135 136 137 138 139 140 141 142 143 
144 145 146 147 148 149 150 151 152 
153 154 155 156 157 158 159 160 161 
162 163 164 165 166 167 168 169 170 
171 172 173 174 175 176 177 178 179 
180 181 182 183 184 185 186 187 188 
189 190 191 192 193 194 195 196 197 
198 199 200 201 202 203 204 205 206 
207 208 209 210 211 212 213 214 215 
216 217 218 219 220 221 222 223 224 
225 226 227 228 229 230 231 232 233 
234 235 236 237 238 239 
CELL_DATA 1
FIELD FieldData 3
Length 1 1 double
70.140607063 
Tortuosity 1 1 double
0.77220037701 
ClusterLabel 1 1 int
2 
POINT_DATA 240
FIELD FieldData 6
Curvature 1 240 double
0 0.16528130151 0.33056260302 0.46804746102 0.60529675593 0.69183459223 0.77750556599 0.70285250651 0.62405313582 
0.49399733311 0.36215869798 0.27087120081 0.18136226233 0.1585360637 0.13925054153 0.17210896528 0.20822638564 0.2479652914 
0.28796520512 0.30841841785 0.32727235504 0.31738959784 0.30487044666 0.27268488311 0.23849625905 0.20172610396 0.16466643137 
0.14146426563 0.11996160544 0.12888162597 0.14185800392 0.17922643495 0.22011295056 0.26743503847 0.31575682692 0.34628517385 
0.37384794719 0.36369142505 0.34681265224 0.30316004943 0.25442041892 0.20553772008 0.15662611855 0.12331023437 0.093336289609 
0.085406935425 0.082477385288 0.096771661493 0.11519247943 0.15175017901 0.19288982764 0.28610829309 0.3931775077 0.70118823336 
1.0653761557 1.9686520494 3.0301385434 3.1425455542 2.9629281086 2.1920170209 1.2305779817 0.76982077549 0.47783272642 
0.3433018762 0.26423890285 0.23038741589 0.21316544116 0.21471328683 0.22346350544 0.24045989677 0.26075475718 0.27805199367 
0.29410022017 0.2955677242 0.29071105943 0.27035788153 0.24301237454 0.21186712834 0.17893928844 0.15812053511 0.14320496148 
0.15037412694 0.16872543878 0.20129765389 0.24134495917 0.28512411851 0.3309388346 0.36811044283 0.4003918716 0.41256466688 
0.41294039718 0.39495882369 0.36581402492 0.33115310962 0.29301628527 0.25923962235 0.22830917591 0.20469035494 0.18601460469 
0.17356657357 0.16547794583 0.16091694298 0.15891219005 0.15735909429 0.15614474139 0.1524846475 0.14692636657 0.13728721713 
0.12437100662 0.10748077146 0.087289038885 0.064813617896 0.040375652172 0.027792515556 0.025747004813 0.036393074329 0.058707209565 
0.07801185445 0.094455016704 0.1067454671 0.1149524175 0.11919093714 0.11939376447 0.11667886148 0.11089531107 0.10381895441 
0.095336387455 0.086319727115 0.076702211715 0.067033547211 0.05730536375 0.047536919814 0.037720014194 0.028314761456 0.019422133059 
0.011781926051 0.0057554158309 0.0035597923173 0.006472017746 0.0078434448166 0.007088570153 0.0067773509037 0.0070999251032 0.01140321945 
0.021594662349 0.032857947237 0.045763202832 0.058425634153 0.070702713909 0.081644756798 0.090391405729 0.097231962024 0.10082349678 
0.10267258019 0.10144198215 0.099290931478 0.095452384326 0.091889633848 0.088851569722 0.087098648902 0.087883886111 0.090591226495 
0.097241342623 0.10559766287 0.1175908919 0.13042153007 0.14510804799 0.15942928896 0.17290836365 0.18468466891 0.19237432756 
0.19724592146 0.19507235349 0.19031742111 0.17883529663 0.1655750772 0.14748066211 0.12856826946 0.10733387603 0.086293398154 
0.065828203123 0.045788264576 0.027068087533 0.013377641621 0.016033821884 0.020645422582 0.031919937356 0.042374762128 0.049897618812 
0.056553931835 0.059952040691 0.063140700616 0.06550029185 0.067927245867 0.070635366286 0.073696371918 0.078313280535 0.083471474926 
0.091155669599 0.099560953577 0.11153562961 0.12425869438 0.14092064716 0.15790874618 0.17672688795 0.19534368985 0.21275245255 
0.22964809802 0.24324055133 0.25616212063 0.26443222753 0.27205803206 0.27485156884 0.27720599877 0.27598001899 0.27432960979 
0.26889470482 0.26302880369 0.25293130388 0.24238831172 0.22698945309 0.21124307713 0.19124926718 0.17103225614 0.14771833005 
0.12429334113 0.09909134706 0.073810659083 0.047047902632 0.021774941651 0.030469317401 0.040065293715 0.075582286227 0.11127986459 
0.1539600959 0.19671396439 0.24377560822 0.28922653849 0.14461326924 0 
Torsion 1 240 double
0 0 0 0.030959427779 0.062181223591 0.075874442516 0.089268027649 0.13176260436 0.17500979293 
0.30884064908 0.44582224149 0.88987951676 1.3474050237 1.5142001397 1.6655582438 1.1229963569 0.53706447051 0.32336029169 
0.13648333505 0.057145951792 -0.013392739092 -0.065782859956 -0.1165079744 -0.19189216224 -0.26978792236 -0.44236275998 -0.62555581189 
-0.91847994788 -1.2248616696 -1.0865985282 -0.88904940504 -0.61909542372 -0.33869843401 -0.19451789627 -0.07149719574 -0.001196557431 
0.060317403841 0.11242471143 0.16285558569 0.23392584187 0.30891758061 0.45178448129 0.6083635359 0.88288912081 1.1826889622 
1.1976327277 1.1479699605 0.9147493857 0.63755141951 0.48462812177 0.36310052975 0.29936489037 0.25099945115 0.20631575779 
0.16266136971 0.11899442184 0.075323787934 0.061984180485 0.057977196561 0.055902097062 0.054449493656 0.0065463642258 -0.057014245887 
-0.12342892928 -0.19084902486 -0.22640286831 -0.25023579144 -0.24698384177 -0.23333885951 -0.21631576805 -0.19794143293 -0.18983226542 
-0.18600025108 -0.20033693939 -0.22255402884 -0.28073501615 -0.35514361591 -0.50675593969 -0.6945872945 -0.88031542544 -1.0650182348 
-0.98588979836 -0.77317592109 -0.57385112502 -0.38156417932 -0.25946407291 -0.17564769702 -0.12393115999 -0.090376373892 -0.072059859303 
-0.062683130666 -0.063050350439 -0.069342944245 -0.083245640656 -0.10194374419 -0.12309804071 -0.14585568545 -0.16054330837 -0.16977514191 
-0.16420004005 -0.1482600834 -0.1251338437 -0.096800152493 -0.071130669203 -0.047459341849 -0.028468232248 -0.013109530456 0.00066472736386 
0.01316662866 0.034811434223 0.06405188333 0.24678633855 0.56142970527 0.75344119259 0.83644656489 0.65791586193 0.23894070269 
0.011804339684 -0.032927921977 -0.067416570658 -0.091832333243 -0.11497643214 -0.13682731373 -0.1574328422 -0.17672860274 -0.19212555119 
-0.20328168649 -0.21005334467 -0.21189246609 -0.21015087996 -0.20424265231 -0.20398657893 -0.21053402458 -0.25312178347 -0.34058993242 
-1.9523915065 -5.5282380706 -5.9838371389 -2.2791062128 0.073775263556 0.56110449928 0.99419287621 1.349794312 1.2780697024 
0.57425865067 0.12450290017 0.06393824944 0.020446559825 0.0040489171951 -0.0075243730679 -0.011164283884 -0.0095206445821 0.0011290460552 
0.017387219714 0.043558061039 0.076871169847 0.12327843571 0.17529768358 0.23799338503 0.28906068767 0.31716190265 0.32412796696 
0.28773987603 0.24483049044 0.18802045045 0.13593801545 0.094332975305 0.057993785729 0.033795307189 0.012917366431 8.7163468441e-06 
-0.01130944049 -0.018651364208 -0.025371829607 -0.030472736959 -0.034838464829 -0.037205423482 -0.040511776455 -0.046484797172 -0.056459945588 
-0.078308072843 -0.14579161981 -0.35490233141 -0.49057544829 -0.38757638233 -0.29367026949 -0.23074755247 -0.18463839556 -0.19867004982 
-0.21491081629 -0.23945784465 -0.25735217723 -0.24891292231 -0.2299044748 -0.16678113645 -0.098875763209 -0.0098859633966 0.07315694606 
0.12844770052 0.17380041404 0.16995982491 0.16039497128 0.12070240973 0.080625067191 0.038388675788 -0.0027944618627 -0.037658077 
-0.070990620911 -0.094466893794 -0.11646030643 -0.12817255472 -0.13866810662 -0.14003843571 -0.14015979583 -0.1300972552 -0.11940293761 
-0.10307527563 -0.08673211886 -0.070236831564 -0.05394441246 -0.039863256666 -0.026066804935 -0.015750069516 -0.0058477758129 -0.0016958609053 
0.0016603656669 -0.0077144211277 -0.02847737997 -0.26371757905 -0.48222460418 -0.31921526305 -0.15913862528 -0.083377208812 -0.0093994814264 
-0.004391065079 0.00052871447814 0.00026324180768 0 0 0 
FrenetTangent 3 240 double
-0.39743271812 -0.83265395701 0.38566127942 -0.39743271812 -0.83265395701 0.38566127942 -0.39743271812 -0.83265395701 0.38566127942 
-0.46823682101 -0.83176322982 0.25996377999 -0.53964095866 -0.83086495408 0.13320104752 -0.591668748 -0.78424900779 -0.034856347229 
-0.64336531771 -0.73685156286 -0.20361963364 -0.6474471926 -0.65429846276 -0.35175139601 -0.65029765296 -0.57083616467 -0.49934958449 
-0.62317410146 -0.50021294641 -0.5897549719 -0.59500797563 -0.43003630484 -0.6781710445 -0.56166199272 -0.39474771626 -0.72420008615 
-0.52808882311 -0.36098930545 -0.7683700475 -0.4964123027 -0.36108054477 -0.78856183435 -0.46483648934 -0.36296911066 -0.80748044379 
-0.4328205935 -0.39304347476 -0.81001942485 -0.40077719251 -0.42487945126 -0.81153467913 -0.36360832053 -0.47701252355 -0.79731785407 
-0.32607004524 -0.53060844959 -0.78196718546 -0.28079372178 -0.59184169664 -0.75092260304 -0.23488428528 -0.65369981542 -0.71859397312 
-0.18377532144 -0.7082651843 -0.67611536619 -0.13218933675 -0.76216149356 -0.63270556871 -0.081434154408 -0.79959575683 -0.59023609031 
-0.030763590828 -0.83535333023 -0.54786238515 0.014521442974 -0.85416893865 -0.5167383792 0.059202492128 -0.87108451361 -0.48687602176 
0.097547168771 -0.87427923697 -0.47391455908 0.13511474312 -0.87579121437 -0.46302584764 0.16782426371 -0.86528551548 -0.47099861436 
0.1998860438 -0.85317745975 -0.48148624484 0.22934313303 -0.8272168995 -0.51040369105 0.2584245457 -0.79925838186 -0.54197928377 
0.28659752758 -0.75305922296 -0.58765760092 0.314629394 -0.70402656638 -0.63552663254 0.34173765645 -0.63537439702 -0.68636239102 
0.3686919849 -0.56345230886 -0.73769260397 0.39342257559 -0.48149249548 -0.77749285811 0.41775685659 -0.39774378058 -0.81523826809 
0.43966291617 -0.32155953043 -0.83492577368 0.46110761368 -0.24681252858 -0.85118227743 0.48143094937 -0.19152966449 -0.85355978521 
0.50152774731 -0.14017894943 -0.85313345541 0.5214682564 -0.10995237274 -0.84549862774 0.54137527503 -0.084252397131 -0.83631912196 
0.56119334104 -0.076416365468 -0.82380588382 0.58099123223 -0.072631949958 -0.81053654144 0.60048638761 -0.083502714284 -0.79474303801 
0.61990901253 -0.097884615445 -0.77834478766 0.63894338671 -0.12647957082 -0.75759211587 0.65787967649 -0.15866519251 -0.73573937972 
0.67583850703 -0.21025622745 -0.70315299381 0.69353737501 -0.26700827655 -0.66771191382 0.70328145361 -0.35932644304 -0.60054577915 
0.7108016126 -0.46158782514 -0.52451027435 0.66028309291 -0.61013113648 -0.35144700609 0.59273148274 -0.77225718791 -0.14990819856 
0.39144323127 -0.83051332586 0.12567732075 0.14900524401 -0.85680949043 0.42404644368 -0.044465427199 -0.77471124178 0.58490454017 
-0.22215774102 -0.65768590443 0.70145352814 -0.32625049866 -0.56253892294 0.75051269351 -0.40553441716 -0.47476666814 0.77682248046 
-0.45692433107 -0.40495129342 0.78853699562 -0.4984879479 -0.34146163782 0.79510999458 -0.52807883729 -0.28209179401 0.79864473831 
-0.55326596485 -0.22423728328 0.80106196289 -0.57046797775 -0.16219580585 0.80268755383 -0.58460593504 -0.09854770168 0.80400937838 
-0.58994142967 -0.026754656852 0.80376794129 -0.59175593925 0.048296364238 0.80290119955 -0.58217470294 0.129791444 0.79842963076 
-0.56784523919 0.2139715482 0.79245605071 -0.54150207255 0.29632732706 0.78220087462 -0.50994814321 0.37789183227 0.77008862074 
-0.47045927419 0.44740841167 0.75690454167 -0.42739000557 0.51148873185 0.74323683416 -0.3825918837 0.55817368358 0.73402901065 
-0.33698269487 0.59669784517 0.7269134784 -0.29350876178 0.61769472757 0.72836852437 -0.25107576586 0.63014706137 0.73400172723 
-0.21129163606 0.62604988687 0.74939329015 -0.17284870429 0.6135732145 0.76972579488 -0.13569642798 0.5841341494 0.79809008103 
-0.099222573145 0.54577895479 0.830676201 -0.062593660477 0.48929079892 0.86624984783 -0.025880170811 0.4229119369 0.90345305474 
0.010915790804 0.34002871269 0.93536228891 0.04775841418 0.24780749408 0.96427624902 0.082389850569 0.14714189299 0.98022754614 
0.11572405726 0.041522254186 0.98857408096 0.14393917153 -0.060822137556 0.98294640668 0.16904132419 -0.16117482501 0.96882090254 
0.18777710658 -0.25074999217 0.9461173793 0.20250120359 -0.33353384518 0.91800852896 0.21138261093 -0.40488478598 0.88712487986 
0.21645004029 -0.46877257576 0.8544299038 0.2168117914 -0.52411843306 0.82177832434 0.21399223889 -0.57368946278 0.78915608342 
0.20754243408 -0.61789015756 0.75686557802 0.19855145264 -0.65833161789 0.72480728748 0.18690022939 -0.69545524501 0.69236727568 
0.17332129467 -0.73017464516 0.65965065428 0.15810041561 -0.76228463571 0.62609762859 0.14164807828 -0.79243756908 0.59191729967 
0.12476752506 -0.81970346238 0.55748817392 0.10755462517 -0.84472866788 0.52286595212 0.091304136187 -0.86631300206 0.48976203498 
0.075826492326 -0.8851342123 0.45787736249 0.062622051842 -0.90033034561 0.42984969672 0.051306118779 -0.91251487653 0.40502631346 
0.043215701653 -0.92137772213 0.38598983104 0.037897212284 -0.92738599441 0.37192646653 0.036289858473 -0.93049807199 0.36448873886 
0.037981291825 -0.93103575429 0.36294046615 0.043427720198 -0.92892556246 0.36749671567 0.052326321414 -0.92438103474 0.37766518723 
0.064590787231 -0.91731623624 0.3922218532 0.080055583324 -0.9078551147 0.41095090073 0.09810691157 -0.89620740964 0.43166170767 
0.1187016631 -0.88240956414 0.45432124467 0.14083912823 -0.86721454314 0.47656840862 0.16454545464 -0.8505986657 0.49839621014 
0.18868755164 -0.83369656934 0.51812307681 0.21328795908 -0.81649344962 0.53564033959 0.23735937975 -0.80001399899 0.55041040313 
0.26085541128 -0.78432169718 0.56219228504 0.28305878913 -0.76998116785 0.57144252936 0.3038079316 -0.75716138256 0.57784468137 
0.32269316433 -0.74593289215 0.58239728269 0.3394094839 -0.73655609033 0.5847976796 0.35390555783 -0.72873901016 0.58614571382 
0.36572911388 -0.7227993727 0.58622701519 0.37526798858 -0.71821298206 0.58592369119 0.3819617884 -0.71531176671 0.58514139977 
0.38666501695 -0.71343199381 0.58438106451 0.38880347099 -0.71286831021 0.58364901893 0.38960379191 -0.71294302102 0.58302636678 
0.38861993535 -0.71386892435 0.58254957253 0.38728750344 -0.7149684608 0.58208673504 0.38547403755 -0.71630761093 0.58164315785 
0.38448561422 -0.71732286187 0.5810491111 0.38467582311 -0.71787539969 0.58024010781 0.3867532246 -0.717691779 0.57907009758 
0.39162209845 -0.71641925719 0.57736609791 0.3990437947 -0.71409954062 0.57508947906 0.4103761976 -0.71017561079 0.57193565636 
0.42430748886 -0.7050379841 0.56800726583 0.44236310293 -0.69797427325 0.56284966986 0.46239450145 -0.68974838663 0.55678158573 
0.48567496774 -0.67961136653 0.54921625442 0.50990190034 -0.66854954369 0.54081581692 0.53574212777 -0.65591135254 0.53099190296 
0.56149350697 -0.64263562533 0.52072895694 0.58708785207 -0.62823309018 0.50969004724 0.61191074041 -0.61337535075 0.49880476092 
0.63531929138 -0.59768307015 0.48820111746 0.65776921576 -0.58144953292 0.47833062158 0.67839541152 -0.56418628795 0.46985489424 
0.6982208795 -0.54596405275 0.46258278131 0.71646491013 -0.52584781187 0.45768780683 0.73418200442 -0.50416275666 0.45420532175 
0.75081820365 -0.47925962077 0.45362025085 0.76712285247 -0.45212487276 0.454333892 0.78272077538 -0.4202332673 0.45781584042 
0.79792756806 -0.38561606844 0.46217939189 0.81226753156 -0.34495836529 0.46849676631 0.82585193027 -0.30155021745 0.47503760077 
0.83769433238 -0.2518007666 0.48209363474 0.84826889982 -0.19999739378 0.48864617661 0.85580066406 -0.14326460825 0.49399033742 
0.86173943297 -0.085937548287 0.49831114371 0.86369571359 -0.027124802218 0.50007356371 0.86422567746 0.030562088567 0.50073303679 
0.86103857342 0.085314932249 0.49851816335 0.85703067047 0.13761568905 0.49553609535 0.85079122051 0.18324983466 0.49046821711 
0.84444431603 0.22573920968 0.48518737102 0.83779237935 0.25930149402 0.47930197102 0.83158037993 0.28967693056 0.47365180531 
0.82667352772 0.31059805196 0.46869950135 0.82243195314 0.32866483996 0.46426627564 0.82025503326 0.33787335187 0.46144398243 
0.81867973442 0.34472408643 0.45926948445 0.81905970393 0.34391204459 0.45920032098 0.8197894326 0.34135391625 0.45977057928 
0.82171093327 0.33284615986 0.46251960804 0.82363755885 0.32320976741 0.46590711925 0.82558251587 0.30953633063 0.47157843303 
0.82722929605 0.29535538053 0.47784076023 0.82775493129 0.27926618033 0.48632529794 0.8278028838 0.26312532553 0.49534207713 
0.82596000888 0.24678000454 0.50646564552 0.82361146818 0.23050536212 0.51804544492 0.81915232255 0.2145257259 0.53152951296 
0.81427996446 0.19840415401 0.54534013476 0.80758571508 0.18165677489 0.5605905618 0.80059542414 0.16429844022 0.57603133291 
0.7922236059 0.14408897965 0.59236037632 0.7835927172 0.12276410675 0.60874640249 0.77367942978 0.095917942761 0.62541449332 
0.76336242568 0.067592076734 0.64202786851 0.75092059699 0.03147830523 0.65835326666 0.73772726257 -0.0061807328699 0.67451245057 
0.72031714604 -0.052510433538 0.68973898787 0.70172468659 -0.10006198847 0.70466007508 0.67603816964 -0.154944669 0.71774846178 
0.64883288612 -0.21041618383 0.73040192079 0.61185054281 -0.26967831954 0.74025553274 0.57327600238 -0.32878693144 0.74957511013 
0.52366222856 -0.38683111163 0.75519204787 0.47270001651 -0.44408307944 0.76021670986 0.41162451771 -0.49539345437 0.76079930375 
0.34963767369 -0.54554268815 0.76078152862 0.28021986094 -0.58622415562 0.75586843685 0.21040251544 -0.62566615058 0.75037314922 
0.13702266947 -0.65405618225 0.7396866152 0.063749620189 -0.68133487269 0.72849236061 -0.0084748798408 -0.6977022129 0.71231321313 
-0.080169912678 -0.71321469639 0.69578877801 -0.14609375311 -0.7194092416 0.67550070761 -0.21121664831 -0.72506686641 0.6550939225 
-0.26655021289 -0.72416213063 0.6332361797 -0.32098844302 -0.72302029143 0.61149164658 -0.36300390748 -0.71858864226 0.59131789754 
-0.40417316082 -0.7141353189 0.57143504978 -0.43180303617 -0.70933520845 0.55620662226 -0.45869974524 -0.70462520316 0.54136344005 
-0.47178848927 -0.70161217845 0.53377571102 -0.48424734686 -0.69871653653 0.52659193532 -0.48234479345 -0.69849722201 0.52861829592 
-0.47987667138 -0.69836292791 0.53101117365 -0.46114845019 -0.70067297083 0.5439414189 -0.44190717329 -0.70299267804 0.55714816143 
-0.40282774219 -0.70568607125 0.58104613235 -0.36333278829 -0.70830422832 0.6050814889 -0.29952975039 -0.70652107148 0.63715390472 
-0.23626287247 -0.70475289916 0.66895680445 -0.23626287247 -0.70475289916 0.66895680445 -0.23626287247 -0.70475289916 0.66895680445 

FrenetNormal 3 240 double
-0.56771711174 -0.10707808041 -0.81623009362 -0.56771711174 -0.10707808041 -0.81623009362 -0.56771711174 -0.10707808041 -0.81623009362 
-0.48692932649 0.005028759457 -0.86095488521 -0.40545689898 0.11808565728 -0.90605870046 -0.28010269553 0.25166455179 -0.9077978513 
-0.15399837624 0.38559424965 -0.90879572583 -0.017102589579 0.47929950484 -0.86014929256 0.12007228676 0.57196447272 -0.81021895478 
0.24701965401 0.58667017768 -0.75885094704 0.37361128181 0.5986642561 -0.70743293339 0.53427949065 0.46738411213 -0.67026002188 
0.69644228638 0.32982001103 -0.63371189555 0.76457689825 -0.063370386473 -0.45331052557 0.82771886319 -0.47013386166 -0.26527093026 
0.72081747311 -0.63444698363 -0.07644246029 0.60328837334 -0.78360695851 0.11243531434 0.56653646778 -0.78940496263 0.2139887949 
0.53560634199 -0.78487057246 0.30924863265 0.54693764984 -0.74131068817 0.37974957675 0.56172671135 -0.6945578089 0.44822479318 
0.59268405723 -0.6278463725 0.49660212732 0.62512473195 -0.55930387582 0.54313561905 0.67091436612 -0.47986626307 0.55747391646 
0.71806361654 -0.39931896258 0.5685330737 0.7897005628 -0.29954784867 0.51706110205 0.86408379272 -0.19762079306 0.45857629352 
0.92374053695 -0.036598406566 0.2566630924 0.98159120274 0.13167152051 0.037159616723 0.8697202666 0.28932796664 -0.22092055166 
0.73521978354 0.44556928197 -0.48414427908 0.59992559819 0.52471627569 -0.5803745926 0.46451693655 0.5927438961 -0.65251931757 
0.39142816267 0.65150336618 -0.64394020036 0.32802014805 0.70882312358 -0.62282145719 0.29451591402 0.76666387585 -0.56307184962 
0.26599564343 0.82459146061 -0.49688376466 0.25662738096 0.86993185813 -0.40888655571 0.25067234767 0.91302899456 -0.31700257218 
0.27122680908 0.931957487 -0.21615958127 0.29681807448 0.94629393708 -0.11361437896 0.36729297386 0.91885760925 0.00075910445766 
0.44683527405 0.88298233639 0.11752213961 0.5761226522 0.72603245723 0.2602737903 0.71606968992 0.54313801957 0.40859443004 
0.75597050399 0.2058462756 0.49577550162 0.77318042196 -0.16646341413 0.56908986702 0.68278580348 -0.40659622152 0.55891624621 
0.56661093149 -0.61506165084 0.52874029537 0.46525482179 -0.71264503187 0.51147359949 0.36764239942 -0.78221610597 0.49746818908 
0.27933388686 -0.8086119042 0.51032260375 0.1934998184 -0.8235249163 0.53032058892 0.087357289208 -0.79926867655 0.58056593856 
-0.024462874174 -0.76406189327 0.63926754064 -0.19713475999 -0.62264007105 0.71060606084 -0.38766530348 -0.45004644393 0.78565324178 
-0.5450092226 -0.14563404523 0.73513682135 -0.69214187268 0.1993379755 0.64598544665 -0.71552647221 0.42180290056 0.50429122954 
-0.69903669989 0.60479331702 0.34566654099 -0.66064969999 0.70186125197 0.23888662104 -0.61488161214 0.76996655271 0.14958246578 
-0.55805722768 0.81998232844 0.097737215085 -0.49733801144 0.86362565788 0.059087714859 -0.42054198047 0.90208022844 0.04055140879 
-0.33783263833 0.93862629001 0.029413059193 -0.24641041835 0.96438414781 0.019718050206 -0.15164488478 0.98600234603 0.010576881219 
-0.055830139183 0.99387981156 -0.0079216897019 0.040404291225 0.99626098403 -0.030163221397 0.13618138214 0.98387032418 -0.060652667136 
0.23176791493 0.9653247342 -0.094578743727 0.32715027072 0.93077234716 -0.12612277664 0.4224440678 0.88927725295 -0.15663363397 
0.52018596413 0.82972812355 -0.16705477519 0.61903249061 0.76203266121 -0.1684110445 0.72456143272 0.65697682983 -0.12160381471 
0.83322533526 0.53439391173 -0.05220136312 0.89628649 0.3273657443 0.084052750565 0.9371163052 0.079170517825 0.25289704952 
0.8687621761 -0.16239145026 0.38016015948 0.74512503723 -0.40059480651 0.48636950286 0.63341835165 -0.55781345443 0.51575499562 
0.52798280177 -0.67246321721 0.50475872076 0.45695359719 -0.75516369941 0.45952660851 0.40469149004 -0.82043730128 0.39562040315 
0.36662207205 -0.87063221452 0.31221448981 0.33658272818 -0.91229576447 0.21777584696 0.30836371567 -0.93846749283 0.11495476744 
0.28121263088 -0.95555068588 0.0072159917349 0.25072412282 -0.95826483633 -0.09600878496 0.21820610061 -0.95224105548 -0.19648856225 
0.17984027082 -0.93785607958 -0.28424946876 0.13778952119 -0.91820240542 -0.36399574436 0.0884351164 -0.89542070597 -0.42973374735 
0.034313047821 -0.87059710113 -0.48632746128 -0.025113297595 -0.84365339564 -0.53143313849 -0.088125632987 -0.81527638268 -0.56877225567 
-0.14858099126 -0.7839039312 -0.59921550534 -0.20724646555 -0.75043467277 -0.62483164775 -0.25605694072 -0.71459562693 -0.64866072043 
-0.29772611219 -0.67703934383 -0.67119481504 -0.32909375884 -0.63843443881 -0.6942027667 -0.35273526187 -0.59904306734 -0.71756611115 
-0.36894745537 -0.55991065592 -0.74069372266 -0.37939361759 -0.52097922842 -0.76363837727 -0.38464589853 -0.48431626911 -0.78497243744 
-0.38572733541 -0.4494749585 -0.80501314147 -0.38069632414 -0.41964121049 -0.82348532517 -0.37058727903 -0.39396759141 -0.84065443045 
-0.32774530628 -0.3771614746 -0.86352298459 -0.25677347384 -0.36797586754 -0.8912895026 0.02301397172 -0.19390743628 -0.4960705452 