# vtk DataFile Version 5.1
vtk output
ASCII
DATASET POLYDATA
POINTS 240 float
0 0 0 -0.190776 -0.0830746 0.1793 -0.381553 -0.166149 0.358601 
-0.568604 -0.291611 0.479229 -0.755624 -0.417432 0.59936 -0.94136 -0.577409 0.673398 
-1.12707 -0.737971 0.746648 -1.31381 -0.924523 0.786126 -1.50058 -1.11175 0.824731 
-1.69029 -1.31677 0.84143 -1.88011 -1.52242 0.857366 -2.07398 -1.73753 0.862334 
-2.26803 -1.95306 0.86682 -2.46585 -2.16965 0.869516 -2.66387 -2.3863 0.872118 
-2.86342 -2.59572 0.879308 -3.06307 -2.80468 0.886785 -3.25984 -2.9987 0.901498 
-3.45641 -3.19164 0.916733 -3.64396 -3.3632 0.937727 -3.83077 -3.533 0.959193 
-4.00173 -3.67702 0.981209 -4.17123 -3.81868 1.00327 -4.31885 -3.93306 1.01801 
-4.46425 -4.04466 1.032 -4.58403 -4.13093 1.02972 -4.70094 -4.21437 1.0256 
-4.79177 -4.27795 0.996969 -4.87941 -4.3391 0.965328 -4.94387 -4.38872 0.903123 
-5.00525 -4.43681 0.836843 -5.04865 -4.48305 0.737212 -5.08946 -4.52902 0.632771 
-5.1181 -4.58233 0.495816 -5.14485 -4.63677 0.353811 -5.16405 -4.70563 0.183366 
-5.18199 -4.77689 0.00818041 -5.19459 -4.8666 -0.1889 -5.20624 -4.9596 -0.389883 
-5.21205 -5.072 -0.604702 -5.21676 -5.18809 -0.822149 -5.21321 -5.32231 -1.04506 
-5.20799 -5.46019 -1.26908 -5.19132 -5.61373 -1.49098 -5.17219 -5.77062 -1.71243 
-5.13881 -5.94043 -1.92587 -5.10221 -6.11318 -2.13749 -5.04975 -6.29639 -2.33749 
-4.9935 -6.48212 -2.53469 -4.92124 -6.67636 -2.71912 -4.84492 -6.87275 -2.90031 
-4.7536 -7.07621 -3.06969 -4.6583 -7.28154 -3.23594 -4.54969 -7.49286 -3.39275 
-4.43735 -7.70587 -3.54692 -4.31363 -7.92409 -3.69448 -4.18657 -8.14383 -3.8401 
-4.04991 -8.36807 -3.98136 -3.9103 -8.59368 -4.12128 -3.76278 -8.82285 -4.25776 
-3.6127 -9.05317 -4.39314 -3.45644 -9.28564 -4.52416 -3.2981 -9.51884 -4.6537 
-3.13573 -9.75204 -4.77609 -2.97194 -9.98525 -4.89595 -2.80695 -10.2154 -5.00418 
-2.64153 -10.4444 -5.10814 -2.47847 -10.6663 -5.19498 -2.31631 -10.8855 -5.27525 
-2.16055 -11.0931 -5.33267 -2.00735 -11.296 -5.38094 -1.86452 -11.4825 -5.40124 
-1.72601 -11.6622 -5.40988 -1.60122 -11.8216 -5.38683 -1.48238 -11.9722 -5.35003 
-1.37951 -12.1 -5.2798 -1.28385 -12.2175 -5.19449 -1.20516 -12.3122 -5.07628 
-1.13442 -12.3961 -4.94265 -1.0806 -12.4595 -4.77882 -1.03503 -12.513 -4.60027 
-1.00578 -12.5505 -4.39603 -0.984783 -12.58 -4.17878 -0.97934 -12.5996 -3.94169 
-0.982072 -12.6141 -3.69416 -0.99954 -12.625 -3.43336 -1.02504 -12.6341 -3.16532 
-1.0641 -12.6458 -2.89064 -1.11082 -12.659 -2.61219 -1.16893 -12.6798 -2.3332 
-1.23373 -12.705 -2.05389 -1.30628 -12.7416 -1.77913 -1.38357 -12.7851 -1.50712 
-1.46347 -12.8425 -1.24343 -1.54502 -12.9085 -0.984988 -1.62299 -12.9894 -0.737155 
-1.69861 -13.0801 -0.49625 -1.76432 -13.1855 -0.266755 -1.82333 -13.301 -0.0449733 
-1.86712 -13.43 0.165981 -1.90027 -13.5684 0.369355 -1.91494 -13.7181 0.563645 
-1.91624 -13.8761 0.751352 -1.89849 -14.0424 0.932514 -1.86644 -14.2151 1.10877 
-1.8174 -14.3933 1.28128 -1.75516 -14.5758 1.45089 -1.68019 -14.7612 1.6192 
-1.59501 -14.9491 1.78648 -1.50271 -15.1385 1.95398 -1.40452 -15.3293 2.12168 
-1.30513 -15.5213 2.28992 -1.20473 -15.7143 2.45865 -1.10834 -15.9093 2.62712 
-1.01551 -16.106 2.79539 -0.930334 -16.306 2.96199 -0.852202 -16.5089 3.12705 
-0.783335 -16.7163 3.28905 -0.72328 -16.9277 3.44812 -0.671907 -17.144 3.60333 
-0.629073 -17.365 3.75475 -0.592467 -17.5903 3.90245 -0.562195 -17.8201 4.04639 
-0.5344 -18.0527 4.18768 -0.509208 -18.2882 4.3262 -0.482226 -18.5247 4.46374 
-0.453297 -18.7621 4.6002 -0.418572 -18.998 4.73742 -0.377325 -19.2324 4.87547 
-0.327169 -19.4635 5.01559 -0.266645 -19.6908 5.1581 -0.195319 -19.9136 5.30321 
-0.110991 -20.1307 5.45145 -0.015203 -20.3427 5.60195 0.094854 -20.5482 5.75526 
0.216002 -20.7484 5.90977 0.351442 -20.9418 6.06581 0.496915 -21.13 6.2216 
0.655768 -21.3112 6.37703 0.823257 -21.4875 6.53078 1.00266 -21.6569 6.6822 
1.1892 -21.8211 6.83094 1.38593 -21.9781 6.97585 1.58833 -22.1297 7.11778 
1.79911 -22.2732 7.25529 2.01421 -22.4106 7.39022 2.23591 -22.5387 7.52121 
2.46073 -22.6601 7.65061 2.69047 -22.7708 7.77747 2.92234 -22.8742 7.90396 
3.15769 -22.9656 8.02983 3.39442 -23.0494 8.15645 3.63352 -23.1203 8.28431 
3.87353 -23.184 8.4136 4.11517 -23.2347 8.54545 4.35751 -23.2789 8.67892 
4.60114 -23.311 8.81538 4.84543 -23.3379 8.95318 5.09098 -23.3547 9.09352 
5.33725 -23.3677 9.23459 5.58492 -23.3732 9.3771 5.83333 -23.3764 9.51962 
6.08328 -23.3749 9.66217 6.33393 -23.3725 9.80412 6.58606 -23.3679 9.94477 
6.8387 -23.3631 10.0844 7.09251 -23.3578 10.2217 7.34654 -23.3524 10.358 
7.60109 -23.347 10.4917 7.8555 -23.341 10.6246 8.10956 -23.3339 10.7551 
8.3631 -23.3255 10.8851 8.61533 -23.314 11.0137 8.86674 -23.3003 11.1421 
9.11599 -23.2811 11.2702 9.36423 -23.2592 11.3986 9.60975 -23.23 11.5279 
9.85424 -23.1981 11.658 10.0958 -23.1583 11.79 10.3365 -23.1164 11.923 
10.5746 -23.068 12.0589 10.8119 -23.0183 12.196 11.047 -22.965 12.3367 
11.2815 -22.9118 12.4787 11.5143 -22.8587 12.6251 11.7466 -22.8067 12.773 
11.9775 -22.7589 12.9259 12.208 -22.713 13.0804 12.4369 -22.6741 13.2406 
12.6653 -22.6377 13.4024 12.892 -22.6102 13.5703 13.1182 -22.5851 13.7397 
13.3423 -22.5692 13.9148 13.566 -22.5554 14.0911 13.7876 -22.5501 14.272 
14.0089 -22.5464 14.4534 14.2287 -22.5502 14.6372 14.4483 -22.5554 14.8207 
14.6673 -22.5673 15.0031 14.8864 -22.5805 15.1846 15.106 -22.6007 15.3611 
15.3258 -22.6223 15.536 15.5468 -22.6523 15.7023 15.7679 -22.6841 15.8667 
15.9901 -22.7265 16.0203 16.2121 -22.7712 16.1721 16.4335 -22.8293 16.3127 
16.6542 -22.8899 16.4519 16.8709 -22.9662 16.5822 17.0864 -23.045 16.7117 
17.293 -23.1409 16.8366 17.4976 -23.239 16.9615 17.6875 -23.3544 17.0873 
17.8749 -23.4718 17.2138 18.0415 -23.6057 17.3467 18.2053 -23.7413 17.4808 
18.343 -23.8924 17.6253 18.4778 -24.045 17.771 18.5828 -24.2121 17.9287 
18.6849 -24.3805 18.0873 18.7554 -24.5627 18.2566 18.8233 -24.7461 18.4265 
18.8595 -24.9429 18.6032 18.8935 -25.1407 18.78 18.8973 -25.3516 18.9579 
18.8994 -25.5634 19.1355 18.8738 -25.7877 19.3077 18.847 -26.0126 19.4792 
18.796 -26.2491 19.6385 18.744 -26.486 19.797 18.6717 -26.733 19.9366 
18.5989 -26.9803 20.0753 18.5096 -27.2357 20.1885 18.42 -27.4913 20.3009 
18.3181 -27.753 20.3815 18.216 -28.0147 20.4614 18.1058 -28.2802 20.5032 
17.9955 -28.5457 20.5445 17.8811 -28.8127 20.5414 17.7668 -29.0796 20.5382 

LINES 2 240
OFFSETS vtktypeint64
0 240 
CONNECTIVITY vtktypeint64
0 1 2 3 4 5 6 7 8 
9 10 11 12 13 14 15 16 17 
18 19 20 21 22 23 24 25 26 
27 28 29 30 31 32 33 34 35 
36 37 38 39 40 41 42 43 44 
45 46 47 48 49 50 51 52 53 
54 55 56 57 58 59 60 61 62 
63 64 65 66 67 68 69 70 71 
72 73 74 75 76 77 78 79 80 
81 82 83 84 85 86 87 88 89 
90 91 92 93 94 95 96 97 98 
99 100 101 102 103 104 105 106 107 
108 109 110 111 112 113 114 115 116 
117 118 119 120 121 122 123 124 125 
126 127 128 129 130 131 132 133 134 
135 136 137 138 139 140 141 142 143 
144 145 146 147 148 149 150 151 152 
153 154 155 156 157 158 159 160 161 
162 163 164 165 166 167 168 169 170 
171 172 173 174 175 176 177 178 179 
180 181 182 183 184 185 186 187 188 
189 190 191 192 193 194 195 196 197 
198 199 200 201 202 203 204 205 206 
207 208 209 210 211 212 213 214 215 
216 217 218 219 220 221 222 223 224 
225 226 227 228 229 230 231 232 233 
234 235 236 237 238 239 
CELL_DATA 1
FIELD FieldData 3
Length 1 1 double
63.224012235 
Tortuosity 1 1 double
0.58901457992 
ClusterLabel 1 1 int
3 
POINT_DATA 240
FIELD FieldData 6
Curvature 1 240 double
0 0.2534765085 0.506953017 0.47986851709 0.45040638153 0.38123525619 0.3113853447 0.24437475423 0.17743759448 
0.12722299001 0.07759003963 0.047626447357 0.018525546229 0.03152479893 0.046759458029 0.061270851894 0.075737041682 0.083352510551 
0.090474233768 0.091533309242 0.092096349902 0.10328930871 0.11545748936 0.21601159133 0.32556796307 0.64551713414 0.98906175934 
1.4703669901 1.9685673894 1.8451535664 1.6388578471 1.1890899018 0.70420577009 0.46590570014 0.26590995047 0.20112976753 
0.15888551239 0.14746050771 0.14152804272 0.14123184275 0.14200653313 0.14656058074 0.15187813484 0.15921154306 0.16697692002 
0.17335980596 0.17942913724 0.18047919347 0.18032671506 0.17367998805 0.16539260875 0.15214722312 0.13758321879 0.12161918146 
0.10526373707 0.09101106586 0.077375512871 0.067609040154 0.059033053675 0.054846857209 0.052075148636 0.053642306411 0.056672003404 
0.064660653111 0.074396206616 0.090618185088 0.10922597504 0.13877452829 0.1725212814 0.22715730477 0.29014903623 0.39103237575 
0.50770388529 0.66418332154 0.83792884649 0.96179228668 1.0631479569 1.01951631 0.90786592169 0.75175081511 0.57395915835 
0.43670835491 0.3199845658 0.24336215933 0.18781868477 0.15617727005 0.13757334251 0.13037564848 0.12963148129 0.13300828412 
0.13880272272 0.14693985282 0.15650159263 0.17014674377 0.18636500343 0.20815526362 0.23358280193 0.26044696682 0.28828237221 
0.30934497733 0.32566662226 0.32668714309 0.31661989284 0.29340177499 0.26032050646 0.22203278608 0.17970423741 0.1383306807 
0.097724011475 0.060247816056 0.025372321954 0.021649868525 0.044699559426 0.069131466078 0.094792008952 0.11562291036 0.13201365752 
0.14079969036 0.14235501122 0.13587649695 0.12149804481 0.10131543541 0.075230293233 0.054113007621 0.038220536677 0.042834018777 
0.06975222173 0.0967615906 0.12387352113 0.14663174019 0.16432382227 0.17647116757 0.18194429268 0.18322704384 0.17929159348 
0.17340205964 0.16499476437 0.15672357759 0.14863386881 0.14140487978 0.13536368399 0.13010819884 0.12597515744 0.12252140952 
0.12007244988 0.11854894774 0.11844316773 0.11942047553 0.12211659659 0.12516478958 0.12879194529 0.13122903426 0.13163760035 
0.13003925777 0.1248938208 0.11759628277 0.10635322611 0.094097711695 0.079916058127 0.065792615699 0.051784140275 0.039538458129 
0.030908762197 0.02462894349 0.023358073603 0.022292428845 0.021681607342 0.020864754784 0.019572886183 0.020089148405 0.024944924601 
0.031381787118 0.04177136544 0.051726968224 0.060551604456 0.067953971691 0.071489545091 0.072990239202 0.068714501778 0.063232992273 
0.054174358927 0.046251130926 0.041851574688 0.040336235939 0.048194604029 0.05644225685 0.06601636135 0.074897236407 0.081298483073 
0.086219851933 0.085576880234 0.084053085235 0.079042698003 0.073438189472 0.065353870298 0.05794424593 0.053509412298 0.050763307585 
0.055897937832 0.062347344244 0.075304892677 0.088308071285 0.10155140871 0.11441786882 0.12516962841 0.13532134414 0.14187279678 
0.14847622037 0.15541420693 0.16330524355 0.17780409387 0.19327735401 0.2160586879 0.23882551993 0.26147410605 0.28307193301 
0.29530049084 0.30606688355 0.30247747315 0.29790771375 0.28265215015 0.26717208584 0.24894812402 0.23096533941 0.21632888868 
0.2020434579 0.19337434632 0.1850308175 0.18281909723 0.18087213881 0.18496175054 0.18921851723 0.19828098899 0.2074654728 
0.22136775592 0.23531183676 0.25170108366 0.26683146519 0.1334157326 0 
Torsion 1 240 double
0 0 0 -0.012069718485 -0.02424172272 -0.035049173499 -0.045833298577 -0.076391939788 -0.1074619909 
-0.25918462413 -0.41510386891 -2.9714136873 -5.6330037941 -3.2385624861 -0.57565933315 -0.20494203113 0.022513655198 0.18650079219 
0.34591361932 0.79909163257 1.2763049792 2.1263858621 3.0106747759 2.423377501 1.6861964477 1.2105697132 0.76427617339 
0.59036217157 0.44985320743 0.49933712723 0.57415343156 0.91934314016 1.3035290128 1.8118521617 2.3394587709 1.930489084 
1.3654233478 0.82210836342 0.28266975068 0.056940944442 -0.10918299857 -0.15346768752 -0.17313838575 -0.15782239556 -0.13500925785 
-0.11249866218 -0.090056684279 -0.076061940988 -0.064091014321 -0.060020000903 -0.057944755043 -0.061843279071 -0.067330571685 -0.07473658543 
-0.082679015836 -0.080384658765 -0.075086027109 -0.036290406951 0.012811978899 0.087159895041 0.16964248205 0.21627225405 0.25081680751 
0.24166384872 0.21711744811 0.18460986589 0.14917403295 0.11865293373 0.090017720711 0.068169281378 0.049035551521 0.038030261334 
0.030411821009 0.030609300217 0.034196816813 0.043807395675 0.056135697754 0.08183688202 0.1138117641 0.17605186923 0.25304627058 
0.37249293293 0.51343441098 0.66162111697 0.81361621202 0.87113438922 0.87711970214 0.81533537913 0.71520770946 0.65021922368 
0.60584572577 0.591739584 0.5960392669 0.59435076867 0.58888889603 0.56051247862 0.51717795561 0.46800472399 0.41488419642 
0.37002973987 0.33096153302 0.30414596049 0.28620910848 0.27472271571 0.26807416737 0.26156600745 0.25516680572 0.22838697065 
0.18524086941 -1.8712618389 -5.6003992668 -5.3573146032 -1.7006015795 0.056002433142 0.12362065818 0.15816730785 0.16230944469 
0.1685258973 0.17671465015 0.2031897364 0.24764638383 0.41977042235 0.72172570603 1.5840497552 3.0357271612 2.9931880756 
1.3253608763 0.36377516949 0.19671114177 0.082352995726 0.029325330187 -0.014873148023 -0.048443900745 -0.079021118069 -0.1058705366 
-0.12830228874 -0.14504204766 -0.15004078807 -0.13938483711 -0.11371916577 -0.067340080293 -0.0099349335716 0.063221729218 0.13811126402 
0.21556400534 0.28101187148 0.32806929053 0.35364493674 0.34512994344 0.32217693029 0.27548139562 0.22686929212 0.17499030993 
0.12457813817 0.076758468579 0.027697159564 -0.023640488394 -0.085169214087 -0.16608584376 -0.28314705784 -0.47159382612 -0.70504200193 
-1.0308007573 -1.1653064991 -0.89214134378 -0.55440499112 -0.073564903879 0.43637974538 1.0134265793 1.345011902 1.0874895976 
0.8246688613 0.5486020451 0.32794469419 0.25168776799 0.19630233669 0.19766128215 0.22022140594 0.30296551983 0.43293587557 
0.7030107488 0.97923692995 1.274553377 1.3985685852 0.96585476686 0.58371496802 0.37390145776 0.19477672453 0.12542338612 
0.068109236183 0.056062434934 0.055935779722 0.1029930359 0.17366967011 0.34293153436 0.51906312966 0.72548399367 0.86550515828 
0.69566105906 0.51465536062 0.27839974602 0.059484679878 -0.068164341734 -0.19039108123 -0.28219279327 -0.37439928631 -0.46903446537 
-0.55962360999 -0.62416640799 -0.67618734816 -0.64139007411 -0.59790842584 -0.48929397094 -0.38154805139 -0.28088403547 -0.18297308626 
-0.10961031517 -0.037508483517 0.022213215417 0.081473013087 0.13569808699 0.18915700665 0.23325181875 0.27616695438 0.30271407887 
0.32805555826 0.33410671602 0.33911402292 0.32446213846 0.30943913483 0.28595461408 0.26240407733 0.23695558062 0.21156438979 
0.18838902672 0.164217365 0.081762232365 0 0 0 
FrenetTangent 3 240 double
-0.71908863428 -0.39760639462 0.56993042647 -0.71908863428 -0.39760639462 0.56993042647 -0.71908863428 -0.39760639462 0.56993042647 
-0.72612157913 -0.47948338318 0.47638795454 -0.73321412522 -0.56205424452 0.38205274981 -0.72383158277 -0.61393980619 0.29916585781 
-0.71416741488 -0.66530083282 0.21647466347 -0.7016010217 -0.69169763628 0.15873520784 -0.68895957097 -0.71744881328 0.10164105579 
-0.68114745918 -0.72807951872 0.068971955579 -0.67350332439 -0.73818429471 0.037152422385 -0.6725491341 -0.73955053824 0.024525060297 
-0.67188836243 -0.74053351281 0.012739460099 -0.67694038895 -0.73585232162 0.014582702674 -0.6822957499 -0.73087037827 0.017149600618 
-0.69145305846 -0.72166278183 0.028036327304 -0.70084798874 -0.71219108206 0.039443043286 -0.71223231203 -0.69951698255 0.053751664784 
-0.723760015 -0.68661207946 0.068269432626 -0.73618690566 -0.67170365318 0.079599281598 -0.74868736622 -0.65663130228 0.090668300846 
-0.76179070626 -0.64116704138 0.090356154765 -0.77494935635 -0.62566682543 0.088999865076 -0.78789130057 -0.61165922531 0.062363561649 
-0.8008111729 -0.59780365089 0.033152442008 -0.80492960267 -0.58521851733 -0.046579650583 -0.80806095477 -0.57277586312 -0.13197764668 
-0.76591928971 -0.54967108795 -0.28632754675 -0.71822527348 -0.52525869416 -0.44913381239 -0.60352690866 -0.48064971107 -0.60335643426 
-0.47989463069 -0.4333478494 -0.75643457028 -0.36933820878 -0.40056293655 -0.82876156563 -0.26066772765 -0.36987181439 -0.88944176183 
-0.19598645815 -0.3655608714 -0.90802032898 -0.13813846425 -0.36534782032 -0.92005883725 -0.10513282783 -0.37975273813 -0.91848696872 
-0.076267584326 -0.39659398408 -0.91464670407 -0.056281311192 -0.4192473135 -0.90558272442 -0.037877428816 -0.44293645977 -0.89558778566 
-0.019901592418 -0.46845085964 -0.88261371895 -0.0020070847541 -0.49431205768 -0.86907361793 0.01944634494 -0.52045097389 -0.85283297071 
0.041618748782 -0.54664599477 -0.8360467586 0.068633790114 -0.57228170829 -0.81606564427 0.09668653948 -0.59779757023 -0.79539990802 
0.12884942643 -0.62173359361 -0.77112018032 0.16194450953 -0.6453113031 -0.74602078446 0.19686010853 -0.66595005291 -0.71788014436 
0.23221187279 -0.68588467696 -0.68901087283 0.26642404524 -0.7017566488 -0.65905085027 0.30034832082 -0.7166022664 -0.62881526955 
0.33073220999 -0.72715101557 -0.60015006692 0.36017450704 -0.73655698058 -0.57190251804 0.3850278482 -0.74237628298 -0.54730530663 
0.40859825545 -0.74719286249 -0.52372861968 0.42787121868 -0.74961309805 -0.50436075852 0.44588297551 -0.75133005877 -0.48622809624 
0.46066243615 -0.75183942669 -0.47134217354 0.4744473441 -0.7519772276 -0.45745524764 0.4862481413 -0.75191864716 -0.44488586447 
0.49740961393 -0.75179678828 -0.43274102286 0.50765129988 -0.75227906572 -0.41964662565 0.51758294537 -0.75296498462 -0.40623215352 
0.52735702707 -0.75482258956 -0.38954500872 0.53707560333 -0.75709294754 -0.37170499058 0.54709537606 -0.76081903627 -0.34799944284 
0.55722593369 -0.7650805662 -0.32213645892 0.56774667146 -0.7705865873 -0.28691718589 0.57841712952 -0.7765701457 -0.24810770889 
0.58879904304 -0.78235669796 -0.19450178467 0.59906553875 -0.78806444777 -0.13497728156 0.6059893183 -0.78880660838 -0.052603132329 
0.61152029945 -0.78747977348 0.039291702782 0.60466138331 -0.76923127576 0.16016201175 0.59242853581 -0.74364326162 0.29359999614 
0.55415226603 -0.68600262491 0.44049948567 0.50412469595 -0.61389921948 0.59347306898 0.43209624315 -0.51980599452 0.71824143293 
0.3497463886 -0.41539655792 0.82977771865 0.26908764472 -0.32131868375 0.89961021012 0.18925331731 -0.23227744627 0.9491121019 
0.12165308813 -0.16654107537 0.9753540369 0.060247339075 -0.11260463691 0.9898187786 0.008503912558 -0.078211043085 0.99567168941 
-0.03816060083 -0.054089970155 0.99699786859 -0.07920912908 -0.043898546036 0.9952444596 -0.11719439271 -0.041305112176 0.99181127524 
-0.15149095504 -0.04894013076 0.98669037718 -0.183700489 -0.062362300069 0.98061458847 -0.21197149405 -0.083818998832 0.97303651041 
-0.23793189546 -0.10998928821 0.96457708926 -0.25816606479 -0.14286590611 0.9546833006 -0.27491806595 -0.17982069678 0.94391726143 
-0.28330003921 -0.2223909689 0.93183316828 -0.28640774831 -0.26849976359 0.91891852056 -0.2783692909 -0.31882352713 0.90447137456 
-0.2630548637 -0.37189872869 0.88902384774 -0.23491458974 -0.42621583814 0.87128520825 -0.19810332079 -0.48137254729 0.85199764752 
-0.14987007006 -0.53289929553 0.82970743274 -0.093641432076 -0.58188507113 0.80531536013 -0.031784072303 -0.62227661899 0.77880825026 
0.034152071379 -0.65644046558 0.7507685047 0.097814143786 -0.68038724573 0.72357199383 0.15977066274 -0.69667122604 0.69700790896 
0.21365561973 -0.70541073279 0.67422099998 0.26127608086 -0.70829482723 0.65436563048 0.298647599 -0.70805666505 0.63927478909 
0.32778890533 -0.70531123621 0.62801000815 0.34689713667 -0.70317639812 0.62056095347 0.35767019803 -0.70154882005 0.61628188676 
0.35956771835 -0.70280904484 0.61378557003 0.35383782061 -0.70655097521 0.61282130404 0.34084698942 -0.7139282722 0.61134495302 
0.32140199516 -0.72453700617 0.60941341529 0.29703096644 -0.7379710943 0.60522262112 0.26813116411 -0.75400268546 0.59895476858 
0.23763615948 -0.77094110093 0.58995513724 0.20562440513 -0.7887417428 0.57835807685 0.17586399792 -0.80541912775 0.5651978659 
0.14831741541 -0.82099197673 0.5505005569 0.12626664078 -0.83417379732 0.53645754816 0.10980482329 -0.84492406361 0.52307992952 
0.1006572441 -0.85282899088 0.51233205953 0.099202225877 -0.85774140642 0.50434995968 0.10537803916 -0.85957581104 0.49986935288 
0.11985405514 -0.8580622038 0.49919738763 0.14101319694 -0.85317220613 0.50153658234 0.16969085528 -0.84448376925 0.507263332 
0.20306358093 -0.83234713453 0.51443483883 0.24189965764 -0.81619805144 0.52328751765 0.28288099862 -0.79721533901 0.53168597374 
0.32644460215 -0.77482177646 0.53953768026 0.36984611158 -0.75091405613 0.54550030898 0.41304576798 -0.72512078084 0.54911050119 
0.45470242016 -0.6991939857 0.55029320082 0.49437097074 -0.67309515539 0.54834816962 0.53206940537 -0.64768242853 0.54418389564 
0.56714101873 -0.62318450629 0.53706063128 0.60036680903 -0.59939797926 0.52842199997 0.63104536351 -0.57659317764 0.51769216226 
0.66012280904 -0.55397720334 0.50641010484 0.68691295608 -0.53163098238 0.49433916212 0.71226789001 -0.50875293889 0.48275941489 
0.73549990458 -0.48508824125 0.47190622767 0.75732628401 -0.46028197704 0.4624580903 0.77699935006 -0.43372693 0.45516236975 
0.79518997279 -0.40573198399 0.44979892466 0.81102802243 -0.3754519809 0.44750191673 0.8252748422 -0.34385441409 0.4470960527 
0.83690497286 -0.31009018693 0.44980006978 0.84691454878 -0.27565297893 0.45379391944 0.85416181549 -0.24006864447 0.45998634736 
0.8600015319 -0.20484140038 0.46656924529 0.86335348497 -0.17024529272 0.47384227626 0.86578996223 -0.13712742914 0.48066843761 
0.86654806719 -0.10671967972 0.48667533796 0.86700531858 -0.078611613167 0.49172463501 0.86689021436 -0.054878553056 0.49495215014 
0.86696069893 -0.033754194119 0.49708781311 0.86739772133 -0.01778202 0.49706706802 0.86822261895 -0.0041867429768 0.49610891753 
0.86984315801 0.0045328476951 0.49322788415 0.87179351145 0.011529411841 0.4897148655 0.87444689029 0.014853208917 0.48485472035 
0.87719554032 0.01738252665 0.47979678238 0.8801553319 0.018151106379 0.47430049276 0.88295740382 0.019180235605 0.46904422861 
0.88539584432 0.02081007617 0.46434135651 0.88749706099 0.023546891483 0.46019014714 0.88878894047 0.028940446192 0.4573629283 
0.88959478488 0.035885873343 0.45527523015 0.88918554164 0.046710981601 0.45503633371 0.88818475257 0.058939798448 0.45555101873 
0.88564235924 0.074826764952 0.4580295827 0.88252603426 0.091428492446 0.46109368552 0.87784933264 0.10997347639 0.4657497221 
0.87278053528 0.12820077249 0.47079444391 0.86659869193 0.14552624507 0.47694253024 0.86031867734 0.16150260666 0.48338633457 
0.8537474214 0.17347660567 0.49070743563 0.84732094767 0.18347766846 0.49832711509 0.84134379806 0.18735582574 0.50687341717 
0.83556173042 0.18911183155 0.51576111643 0.83041367916 0.18397084505 0.52575835654 0.82533196732 0.17705751328 0.53604934354 
0.82047630088 0.16410507912 0.5473412459 0.81550530432 0.14998935456 0.55879831711 0.81012178077 0.13171262969 0.57084618462 
0.80457449043 0.11299260076 0.58281201847 0.79841143695 0.0926057485 0.59446940574 0.79222220479 0.072392012896 0.60576764507 
0.78592934866 0.052863530707 0.61564425713 0.7798967983 0.033795878136 0.62489335466 0.77495074161 0.016651688313 0.63152326108 
0.7705989357 -8.8388827702e-05 0.63725955634 0.76886723551 -0.015046696415 0.63905583876 0.76789633191 -0.029913024305 0.63981680609 
0.77047581233 -0.044350113613 0.63574630292 0.77374512061 -0.059115737155 0.63062994027 0.78042907687 -0.075507605159 0.62033657317 
0.78745509717 -0.092621494682 0.60918913081 0.79628145456 -0.11353549746 0.59354655556 0.80490510801 -0.13538130747 0.57747934106 
0.81239136718 -0.16245559138 0.55902942857 0.81910436175 -0.19042136572 0.54077053234 0.82117776879 -0.22373608266 0.52365773361 
0.82202651321 -0.25768526043 0.50741013878 0.81499149207 -0.29571877979 0.49673229403 0.80645484885 -0.33408193302 0.48738342491 
0.78750695922 -0.37473054781 0.4872487869 0.76690203566 -0.4153951928 0.48853225976 0.73386935765 -0.45618006433 0.50045156416 
0.69918689737 -0.49667231485 0.51339845741 0.6510523662 -0.5347785786 0.53472415194 0.6015647931 -0.57232994583 0.55633841731 
0.54001259622 -0.60493348571 0.58052577275 0.47771702487 -0.63686763611 0.60427429321 0.40812286782 -0.66222959884 0.62371425202 
0.33848292041 -0.68703633755 0.64229603295 0.26834385808 -0.70579113447 0.65152367514 0.19862500254 -0.72423405284 0.65984165684 
0.13404200791 -0.7388651224 0.65704156587 0.070027478408 -0.75338618349 0.65348807661 0.013900402729 -0.76638087702 0.63948118617 
-0.04170125054 -0.77936851509 0.6249055923 -0.088896145242 -0.79224326589 0.60123074361 -0.13567758128 -0.80514098458 0.57712127823 
-0.17467221251 -0.81847126527 0.5448265316 -0.21336927135 -0.83181320457 0.5121752703 -0.24528167981 -0.84542095988 0.47139547446 
-0.27697584991 -0.85901124984 0.43030695597 -0.30239566704 -0.8720994111 0.38034266161 -0.32764968792 -0.885134291 0.3301169466 
-0.34649292062 -0.8961089583 0.26978296653 -0.36521012318 -0.90700320892 0.20925933997 -0.37655456241 -0.91319308464 0.13764139328 
-0.38780367021 -0.9193309446 0.066625278068 -0.38780367021 -0.9193309446 0.066625278068 -0.38780367021 -0.9193309446 0.066625278068 

FrenetNormal 3 240 double
-0.14495287505 -0.71627838049 -0.68259354352 -0.14495287505 -0.71627838049 -0.68259354352 -0.14495287505 -0.71627838049 -0.68259354352 
-0.057495117353 -0.65282714294 -0.74470366616 0.030703807781 -0.58883818304 -0.80734014577 0.095941313789 -0.52299988527 -0.84115130243 
0.16078631691 -0.45712997489 -0.87446971853 0.19339127509 -0.40107480189 -0.89289230164 0.22516243901 -0.34527345832 -0.91092964769 
0.20811336408 -0.28320573342 -0.93364643466 0.18936619389 -0.22092004743 -0.95652598479 -0.16913507512 0.12357189361 -0.81589021453 
-0.5425378397 0.48044130198 -0.66808271969 -0.56630437119 0.52220583074 -0.059931549428 -0.57150614693 0.54723912696 0.57266264785 
-0.54097059385 0.5432131203 0.64039159592 -0.50820145772 0.53737090721 0.67281646592 -0.50918024965 0.56799513689 0.64494539856 
-0.5125913247 0.60124757867 0.61272867805 -0.55153432934 0.66164536649 0.48309001392 -0.59338449186 0.72426413717 0.34548046349 
-0.58902922847 0.6936785123 -0.041944240259 -0.58043493519 0.65454202545 -0.45228776541 -0.41301497993 0.46324575545 -0.6973939912 
-0.22941833689 0.25645172976 -0.92567049205 -0.075223486205 0.18126381659 -0.96681285005 0.075673967202 0.12083546745 -0.98696820137 
0.24718953262 0.14539744401 -0.93985665631 0.42123373442 0.1803827624 -0.88449539756 0.57993798698 0.21959485845 -0.75513945855 
0.73659691298 0.25937052486 -0.61591756217 0.83384749426 0.2174016807 -0.47719101102 0.92252956428 0.1636427629 -0.33853590388 
0.94610970231 -0.028846549868 -0.19370722473 0.95957691887 -0.24288621525 -0.047919544089 0.83543710787 -0.45606377403 0.092805663986 
0.68836279227 -0.66909764839 0.23268712663 0.59847323688 -0.73426975377 0.3027733964 0.51877502488 -0.77309025676 0.36042091891 
0.51851652353 -0.75932874783 0.39132606466 0.5333515672 -0.73557665663 0.41715015881 0.56890061234 -0.69417377191 0.43660878487 
0.60863430424 -0.64920507031 0.45478145778 0.6404859801 -0.60042745239 0.47493540899 0.67064865254 -0.5508336381 0.49551391983 
0.6881400751 -0.5026826448 0.52028584828 0.70275760595 -0.45485888924 0.54600886114 0.70810941583 -0.40873887911 0.57335230574 
0.7112413134 -0.36302705799 0.60108397878 0.70969567478 -0.31876201075 0.62631414904 0.70696834282 -0.27486246427 0.6509123607 
0.70400276093 -0.23244529422 0.66959611646 0.70097381471 -0.19042237322 0.68670687863 0.70068439321 -0.14999799332 0.69638635386 
0.70116086033 -0.11002051738 0.70398826499 0.70383605389 -0.0730802302 0.70570708498 0.70715652586 -0.037031291891 0.70569934562 
0.7056726118 -0.011545767645 0.70809951309 0.70271042512 0.010689475351 0.71124057498 0.68207688912 0.0089650562337 0.73033795148 
0.65574925168 -0.00047969845384 0.75457680712 0.60925135599 -0.02907683038 0.78915478673 0.55595449686 -0.064129819801 0.82721786431 
0.49686610529 -0.096361061078 0.85939864094 0.4357375148 -0.12759827744 0.88950724339 0.38032517721 -0.14361634679 0.91192834847 
0.32701536944 -0.15403656896 0.93152186832 0.27861132187 -0.14759912557 0.94774334207 0.23208971717 -0.13469304306 0.96267089114 
0.18456062076 -0.1036151229 0.97549251852 0.13662852767 -0.065268467681 0.98747177721 0.078979352905 -0.0055394733629 0.99292154064 
0.01728139411 0.063098828912 0.99565068104 -0.061824012707 0.15489075282 0.97731713623 -0.14847963794 0.25672521141 0.94984796892 
-0.24644544595 0.36673366752 0.88115458566 -0.34951462911 0.4804303908 0.79386003178 -0.44040869319 0.56748181291 0.67565345049 
-0.52559097301 0.64203297028 0.54294493042 -0.59475805636 0.67415351834 0.41872035363 -0.65611773144 0.68558914438 0.29863169919 
-0.72148818893 0.65228952782 0.20147364405 -0.78888942233 0.59633915551 0.11592601894 -0.86002105457 0.48041273468 0.045286367587 
-0.93311353749 0.33296044217 -0.017517041147 -0.96404566632 0.13353852693 -0.070725686825 -0.97198123838 -0.094230455267 -0.11870082538 
-0.92180685336 -0.29664136662 -0.15627959067 -0.8387544663 -0.48470494842 -0.18797619739 -0.72860401883 -0.63006709198 -0.21304760382 
-0.60255604257 -0.75037772509 -0.23423222607 -0.45908064837 -0.83808010389 -0.24961087084 -0.30500750002 -0.90595313885 -0.26145885362 
-0.14027545117 -0.94005207541 -0.26707304755 0.031173165115 -0.9528687034 -0.26875910055 0.19180698979 -0.93216733477 -0.26964535701 
0.34538115883 -0.88958616279 -0.27000952405 0.47521972236 -0.82578526906 -0.27589193505 0.58901167937 -0.74763864795 -0.28550498985 
0.67902302267 -0.66020755254 -0.3014011465 0.75238793639 -0.56627732514 -0.32169547445 0.80836877627 -0.46874227059 -0.34152469922 
0.85175246121 -0.36859502248 -0.36101689271 0.88259853726 -0.27067392627 -0.37379337598 0.90404140666 -0.17442244401 -0.38153307658 
0.91812499916 -0.084523468943 -0.37932814396 0.92649691408 0.00044520203108 -0.36940498855 0.93042112523 0.072127040481 -0.35473554163 
0.93077369546 0.13313914978 -0.33625467881 0.89389289977 0.086709064674 -0.40095098292 0.8260797693 -0.048980689641 -0.53474831803 
0.34518971247 -0.20664648048 -0.44551128998 -0.49068832794 -0.38319792769 -0.16460410611 -0.88082089672 -0.4684350999 -0.055962397816 
-0.87473526848 -0.47250402765 -0.10044555671 -0.86582418208 -0.4735745789 -0.15253233014 -0.85431549704 -0.4718885582 -0.21160952337 