# vtk DataFile Version 5.1
vtk output
ASCII
DATASET POLYDATA
POINTS 240 float
0 0 0 -0.217553 -0.271527 -0.042284 -0.435106 -0.543054 -0.0845679 
-0.655501 -0.804525 -0.126943 -0.87592 -1.06591 -0.169318 -1.0965 -1.31382 -0.218306 
-1.31708 -1.5615 -0.267407 -1.53517 -1.7925 -0.329425 -1.75319 -2.02306 -0.391776 
-1.96612 -2.23423 -0.472908 -2.17888 -2.44472 -0.554693 -2.38396 -2.63408 -0.660267 
-2.58871 -2.82251 -0.766885 -2.78323 -2.9897 -0.900873 -2.9772 -3.15575 -1.03632 
-3.15845 -3.30258 -1.20073 -3.3389 -3.4482 -1.36696 -3.50421 -3.57885 -1.56144 
-3.66843 -3.70842 -1.75796 -3.81525 -3.82917 -1.97969 -3.96064 -3.94919 -2.20348 
-4.08656 -4.0674 -2.4476 -4.2107 -4.18544 -2.69358 -4.31353 -4.3083 -2.95396 
-4.4142 -4.43165 -3.21582 -4.492 -4.56486 -3.48602 -4.56724 -4.69919 -3.75715 
-4.61831 -4.84609 -4.03122 -4.66642 -4.99454 -4.30565 -4.68923 -5.15572 -4.57875 
-4.70867 -5.3186 -4.85168 -4.70182 -5.49204 -5.12044 -4.69117 -5.66701 -5.38861 
-4.65338 -5.84879 -5.65097 -4.61136 -6.03163 -5.91243 -4.54165 -6.21688 -6.16737 
-4.46733 -6.40253 -6.42122 -4.36547 -6.58659 -6.66807 -4.2587 -6.77036 -6.91368 
-4.12571 -6.9498 -7.15151 -3.98775 -7.12841 -7.38787 -3.82654 -7.30182 -7.61477 
-3.66063 -7.47418 -7.83977 -3.47643 -7.64251 -8.0524 -3.28832 -7.80997 -8.26239 
-3.08889 -7.97625 -8.45573 -2.88689 -8.14225 -8.6453 -2.68204 -8.31067 -8.81289 
-2.47651 -8.47967 -8.9752 -2.27711 -8.65416 -9.10964 -2.07926 -8.83004 -9.23702 
-1.89578 -9.01261 -9.33087 -1.71613 -9.19696 -9.4158 -1.55701 -9.38632 -9.46266 
-1.40364 -9.57708 -9.49888 -1.27414 -9.76808 -9.49438 -1.15164 -9.95915 -9.47792 
-1.05338 -10.1434 -9.42036 -0.96259 -10.3255 -9.35015 -0.894035 -10.4927 -9.2409 
-0.832647 -10.6551 -9.11907 -0.790249 -10.7956 -8.96242 -0.754252 -10.9286 -8.79402 
-0.734123 -11.0354 -8.59668 -0.719585 -11.1329 -8.38913 -0.718968 -11.2032 -8.15943 
-0.723471 -11.2635 -7.92158 -0.741701 -11.2989 -7.6686 -0.765199 -11.3247 -7.40981 
-0.803878 -11.3301 -7.14247 -0.84863 -11.3272 -6.8717 -0.910917 -11.3088 -6.59788 
-0.980509 -11.2839 -6.3228 -1.06975 -11.2473 -6.04875 -1.16751 -11.2057 -5.77514 
-1.28562 -11.155 -5.50508 -1.41291 -11.1002 -5.23661 -1.55896 -11.0374 -4.97278 
-1.71382 -10.9708 -4.71112 -1.88322 -10.8967 -4.45411 -2.05971 -10.819 -4.19935 
-2.24413 -10.734 -3.94866 -2.43257 -10.6455 -3.70003 -2.62082 -10.5508 -3.4548 
-2.80898 -10.4529 -3.21136 -2.98844 -10.3512 -2.97101 -3.16315 -10.2476 -2.73234 
-3.3216 -10.1443 -2.49694 -3.47085 -10.0412 -2.26339 -3.59824 -9.94367 -2.03369 
-3.71282 -9.8495 -1.80625 -3.80272 -9.76739 -1.58333 -3.87762 -9.69263 -1.36315 
-3.92806 -9.63641 -1.14777 -3.96309 -9.59188 -0.935399 -3.97658 -9.57144 -0.727381 
-3.97602 -9.56673 -0.522202 -3.95884 -9.5896 -0.32016 -3.93042 -9.63113 -0.12024 
-3.89131 -9.70111 0.0781796 -3.84472 -9.79102 0.275548 -3.79327 -9.9077 0.4728 
-3.73828 -10.0438 0.669969 -3.68321 -10.2029 0.867399 -3.62808 -10.3794 1.06503 
-3.57595 -10.5743 1.26179 -3.52617 -10.7835 1.45788 -3.48063 -11.0067 1.65045 
-3.43851 -11.2411 1.84021 -3.40017 -11.4859 2.02281 -3.36497 -11.7392 2.19947 
-3.33193 -12.0003 2.36537 -3.30074 -12.268 2.52202 -3.26957 -12.5414 2.66539 
-3.23843 -12.82 2.79697 -3.20526 -13.1029 2.91478 -3.17023 -13.3897 3.01993 
-3.13163 -13.6792 3.11317 -3.08964 -13.9714 3.19509 -3.04322 -14.2646 3.26906 
-2.99245 -14.5587 3.33522 -2.93708 -14.852 3.39879 -2.87703 -15.1445 3.45972 
-2.81275 -15.4343 3.52372 -2.744 -15.7214 3.59094 -2.67169 -16.0044 3.66612 
-2.59549 -16.283 3.74995 -2.51648 -16.5568 3.8449 -2.43429 -16.8254 3.95238 
-2.34994 -17.0893 4.07195 -2.26308 -17.3477 4.20562 -2.17444 -17.6025 4.35019 
-2.08369 -17.8529 4.50787 -1.99126 -18.101 4.6735 -1.89673 -18.3464 4.84901 
-1.80023 -18.5913 5.02843 -1.70121 -18.8356 5.2129 -1.59963 -19.0808 5.39709 
-1.49465 -19.3273 5.58091 -1.38631 -19.5755 5.76081 -1.27331 -19.8262 5.93531 
-1.15597 -20.0783 6.10341 -1.03245 -20.3327 6.26238 -0.903614 -20.5874 6.41388 
-0.766901 -20.8426 6.5543 -0.623935 -21.0959 6.68753 -0.471387 -21.3465 6.80972 
-0.311816 -21.5925 6.92609 -0.141099 -21.8312 7.03323 0.0371294 -22.0626 7.13667 
0.22771 -22.2817 7.23402 0.425883 -22.4909 7.33008 0.636995 -22.6831 7.42394 
0.855262 -22.8637 7.51885 1.08618 -23.0237 7.61561 1.32327 -23.1715 7.71539 
1.57168 -23.2969 7.82072 1.82485 -23.4104 7.93054 2.08705 -23.5015 8.04889 
2.35232 -23.5821 8.17255 2.62364 -23.6419 8.3067 2.89634 -23.693 8.44634 
3.17187 -23.7263 8.59725 3.44736 -23.7527 8.75325 3.72275 -23.7645 8.92007 
3.99711 -23.7711 9.09107 4.26919 -23.7663 9.2713 4.53977 -23.7576 9.45443 
4.80691 -23.74 9.64424 5.07258 -23.7194 9.8355 5.33474 -23.6916 10.0303 
5.59583 -23.6613 10.2251 5.85426 -23.6247 10.42 6.11223 -23.5861 10.6138 
6.36903 -23.542 10.8047 6.62602 -23.4962 10.9935 6.88354 -23.4458 11.177 
7.14179 -23.3943 11.3581 7.40209 -23.3397 11.5323 7.66344 -23.285 11.7043 
7.92785 -23.2298 11.8693 8.19331 -23.1756 12.0325 8.46206 -23.1247 12.1899 
8.73163 -23.0762 12.3462 9.00385 -23.0358 12.4989 9.27641 -22.9992 12.6514 
9.55012 -22.9757 12.8031 9.82353 -22.9573 12.9554 10.0959 -22.957 13.1098 
10.3671 -22.9626 13.2655 10.6344 -22.9905 13.4259 10.8999 -23.0247 13.5879 
11.158 -23.084 13.7564 11.4136 -23.1495 13.9266 11.6582 -23.2412 14.1041 
11.8995 -23.3387 14.2831 12.126 -23.462 14.4693 12.3485 -23.5905 14.6566 
12.5522 -23.7431 14.8498 12.7513 -23.9001 15.0438 12.9277 -24.0788 15.2418 
13.0992 -24.261 15.4402 13.2446 -24.4619 15.6403 13.3848 -24.6658 15.8403 
13.4963 -24.8855 16.0397 13.6027 -25.1075 16.2386 13.679 -25.3427 16.4345 
13.7506 -25.5797 16.6295 13.7924 -25.8279 16.8194 13.8303 -26.0776 17.0082 
13.8409 -26.3372 17.1896 13.8486 -26.5979 17.3697 13.8338 -26.8678 17.5404 
13.8171 -27.1387 17.7096 13.7849 -27.4184 17.8673 13.7519 -27.6991 18.0234 
13.7121 -27.9884 18.1662 13.6725 -28.2785 18.3074 13.6356 -28.5766 18.4336 
13.5998 -28.8753 18.5583 13.5759 -29.1802 18.6673 13.5537 -29.4854 18.7751 
13.5515 -29.7932 18.8679 13.5512 -30.1008 18.9597 13.5767 -30.4048 19.0394 
13.604 -30.708 19.1187 13.6602 -30.9984 19.1912 13.7179 -31.2875 19.2638 
13.8044 -31.5514 19.3379 13.8919 -31.8135 19.4125 14.0056 -32.035 19.4995 
14.1199 -32.2546 19.5875 14.2557 -32.4161 19.7006 14.3918 -32.5756 19.8147 
14.5433 -32.658 19.9682 14.695 -32.7387 20.1227 14.8554 -32.7224 20.3314 
15.0159 -32.705 20.5408 15.1784 -32.5702 20.8197 15.3409 -32.4354 21.0986 

LINES 2 240
OFFSETS vtktypeint64
0 240 
CONNECTIVITY vtktypeint64
0 1 2 3 4 5 6 7 8 
9 10 11 12 13 14 15 16 17 
18 19 20 21 22 23 24 25 26 
27 28 29 30 31 32 33 34 35 
36 37 38 39 40 41 42 43 44 
45 46 47 48 49 50 51 52 53 
54 55 56 57 58 59 60 61 62 
63 64 65 66 67 68 69 70 71 
72 73 74 75 76 77 78 79 80 
81 82 83 84 85 86 87 88 89 
90 91 92 93 94 95 96 97 98 
99 100 101 102 103 104 105 106 107 
108 109 110 111 112 113 114 115 116 
117 118 119 120 121 122 123 124 125 
126 127 128 129 130 131 132 133 134 
135 136 137 138 139 140 141 142 143 
144 145 146 147 148 149 150 151 152 
153 154 155 156 157 158 159 160 161 
162 163 164 165 166 167 168 169 170 
171 172 173 174 175 176 177 178 179 
180 181 182 183 184 185 186 187 188 
189 190 191 192 193 194 195 196 197 
198 199 200 201 202 203 204 205 206 
207 208 209 210 211 212 213 214 215 
216 217 218 219 220 221 222 223 224 
225 226 227 228 229 230 231 232 233 
234 235 236 237 238 239 
CELL_DATA 1
FIELD FieldData 3
Length 1 1 double
71.758429805 
Tortuosity 1 1 double
0.7239717426 
ClusterLabel 1 1 int
1 
POINT_DATA 240
FIELD FieldData 6
Curvature 1 240 double
0 0.017848772369 0.035697544738 0.043998823796 0.052219191893 0.067817520019 0.08354196712 0.10401778924 0.12461649175 
0.14785631911 0.17118801169 0.19240841471 0.21353621732 0.22548249441 0.23694125688 0.23469694303 0.23159618692 0.21793044194 
0.20350325632 0.1877240324 0.17183418716 0.16217271623 0.1530826558 0.15122173579 0.15009711711 0.15210164257 0.15445710007 
0.15660014343 0.15871713599 0.15945821101 0.16001583035 0.15995323497 0.15980118554 0.15978525987 0.15979047964 0.15958131177 
0.15933641263 0.15732760943 0.15500444709 0.14978109838 0.14400671426 0.13604609988 0.12764382281 0.12120881182 0.11519535784 
0.11853948957 0.12400596033 0.14424705143 0.16802789531 0.20674378782 0.24923274525 0.30521217919 0.36477950582 0.43224296633 
0.50191394815 0.56508238083 0.6263424567 0.66193310926 0.68962547773 0.68442841036 0.6686336359 0.62702241712 0.5767090261 
0.51770711005 0.45564446359 0.39779767096 0.34150153722 0.29711823242 0.25730612943 0.23084232603 0.20971784248 0.19832055413 
0.19097626379 0.18498903632 0.17959041443 0.17027419583 0.15919028117 0.14358838438 0.12586694042 0.10649682054 0.086322971143 
0.069946412802 0.055492533474 0.053423981715 0.057865666241 0.073281480405 0.094683183463 0.12332634708 0.15606665285 0.19936237504 
0.24885060821 0.31297239351 0.38599296053 0.46516215989 0.54820583991 0.60162806961 0.63571407481 0.61805314979 0.56540838463 
0.49307202872 0.40695155927 0.33269173182 0.26702657247 0.2181875269 0.18196806668 0.15662376263 0.13971987831 0.12940818195 
0.12439021229 0.12377032036 0.12680421607 0.1316335383 0.13800580519 0.14229102982 0.14472110579 0.14213057411 0.1349243225 
0.122509603 0.10514256978 0.086700695463 0.067201894081 0.059022036974 0.062352970655 0.07502491954 0.097521039588 0.11791374597 
0.13601852872 0.14771188647 0.1521923911 0.14953726443 0.13857885772 0.12294120169 0.10167111592 0.079094740573 0.054891664981 
0.038018738898 0.03059042853 0.03374277452 0.051002662321 0.067073683438 0.081504068534 0.093695935934 0.10268992091 0.11012407312 
0.11525097268 0.12058391248 0.12623248839 0.13380932004 0.14444620973 0.15685746534 0.1721865671 0.18724986357 0.20186008284 
0.21371912976 0.2207156395 0.22374432046 0.21949864865 0.21227174039 0.19937321154 0.18530542717 0.16892836317 0.15289883946 
0.13758221893 0.12290401517 0.10958664714 0.096834698868 0.085335843046 0.07433804775 0.064495475334 0.05543832479 0.048266186739 
0.042603768086 0.040715647927 0.040107745202 0.042836166701 0.045523312282 0.048098238961 0.04995774172 0.049786363674 0.049515905842 
0.048951511315 0.049887238821 0.055478517459 0.062857454827 0.076046283064 0.0898742273 0.10587990012 0.12172595232 0.13700105387 
0.15134451132 0.16218498702 0.17201868989 0.1778672503 0.18292220215 0.18466470082 0.18604739141 0.18584365543 0.18568698327 
0.18574994229 0.18597031602 0.18696989256 0.18810471842 0.18995138276 0.19163220758 0.19238248842 0.19262796688 0.189844631 
0.18631440314 0.17797605814 0.16905838712 0.15612405576 0.142922345 0.12771528871 0.1129194856 0.10147697769 0.091093297045 
0.090150826254 0.090080399769 0.098571862852 0.10731722979 0.11883014874 0.13020156777 0.1398435433 0.1495202451 0.15967877391 
0.17037437039 0.18966304972 0.21043217226 0.25908297538 0.3101245863 0.415676615 0.52307626007 0.68359487592 0.84119719561 
0.88603606327 0.92729755517 0.75928256421 0.59019963355 0.29509981677 0 
Torsion 1 240 double
0 0 0 0.31323528973 0.62912511581 0.47062492264 0.30401549836 0.24131387743 0.18129952727 
0.16153685305 0.14317423712 0.14451683986 0.14672370659 0.16419047378 0.18246750117 0.21854622615 0.25573755724 0.31367375181 
0.37310507168 0.43544489455 0.49802268585 0.50792423738 0.51299310636 0.44710111358 0.37398162563 0.28461348824 0.1934230724 
0.11539879797 0.038989239005 -0.020726711709 -0.078216847989 -0.1165201623 -0.15205614652 -0.16291557279 -0.16994174734 -0.15175794563 
-0.1293724812 -0.087993413997 -0.043229348272 0.020898534623 0.088705542782 0.18864140759 0.29506795051 0.42815006949 0.56694409762 
0.61582004693 0.64430220516 0.54935313229 0.42483199365 0.30405661189 0.1842275266 0.094395720648 0.012541914516 -0.050317434587 
-0.10786650538 -0.15194221523 -0.19206378655 -0.21712573711 -0.23755395821 -0.23525249678 -0.22562702654 -0.1931783457 -0.15303644781 
-0.093176999674 -0.026371596332 0.059399936514 0.15214751699 0.24701689206 0.34270044411 0.39073999257 0.41972193959 0.38116771418 
0.31447341694 0.23418986828 0.14801218647 0.069037983836 -0.0066858684325 -0.090029665122 -0.17694825055 -0.33036599817 -0.51620208735 
-0.8816808566 -1.3381179449 -1.4114655897 -1.2834457066 -1.0476869175 -0.75316145237 -0.60415100092 -0.53747141246 -0.50641288511 
-0.49625204694 -0.48447792601 -0.47172275474 -0.45182744357 -0.42743286615 -0.41025606191 -0.39779085962 -0.3999219279 -0.41192089743 
-0.42853640931 -0.44838350083 -0.45019506572 -0.43893740842 -0.38507314119 -0.29925391652 -0.18284361902 -0.042690996354 0.081711642659 
0.19346656752 0.25880463119 0.28558099477 0.28699830344 0.2666226743 0.24977141986 0.23605294293 0.24128020641 0.26392532799 
0.33981942363 0.46634369133 0.79680055985 1.3277911525 1.522337141 1.3747360743 1.0810551718 0.63373858001 0.34416421544 
0.22616911562 0.14217820135 0.096441995802 0.056056563809 0.021897486495 -0.028444054235 -0.098264486114 -0.31520537957 -0.71535288555 
-1.1945748795 -1.7756813099 -1.6964481779 -0.73676229581 -0.12206813381 0.016537454482 0.13007202637 0.20779086052 0.28372524975 
0.3570201475 0.42052212043 0.46902216597 0.49383595419 0.48106068189 0.45425139358 0.4043639456 0.3571532329 0.31450513715 
0.27887147768 0.25563542651 0.23787785786 0.23016417382 0.22518923389 0.22542458763 0.2253802412 0.22478348693 0.21969217654 
0.20538126388 0.18364918741 0.14609831438 0.097023388675 0.022408670535 -0.069704903786 -0.20216306319 -0.35357312091 -0.55046773458 
-0.71125258957 -0.78176304788 -0.80096665008 -0.68646147579 -0.59071075594 -0.54594870913 -0.53387725158 -0.61460488611 -0.71202494612 
-0.85896586838 -0.95205865116 -0.8780365183 -0.77954992064 -0.60155381236 -0.44116415292 -0.34076683768 -0.25168860451 -0.20309785716 
-0.15955030856 -0.13496518728 -0.11291856469 -0.10092016611 -0.089995724594 -0.083553886444 -0.077268682989 -0.071674096146 -0.065888827179 
-0.059213708304 -0.052181173289 -0.043379428382 -0.0343116921 -0.023844001207 -0.012486761593 0.0038618347357 0.021073624166 0.0434645722 
0.067344691298 0.10081134911 0.13756351485 0.19709520217 0.26270021528 0.37385517179 0.48961040877 0.64287562499 0.78178733277 
0.79271359027 0.7913161629 0.66892255685 0.55088274786 0.48029932692 0.4153098304 0.41869052122 0.42526526788 0.47615753923 
0.52729884326 0.58242467011 0.63332983173 0.60474579815 0.57342272132 0.47964945816 0.3861693081 0.3011161594 0.21721133731 
0.17770847744 0.13770744305 0.068563199493 0 0 0 
FrenetTangent 3 240 double
-0.63020326542 -0.76681437071 -0.12181775377 -0.63020326542 -0.76681437071 -0.12181775377 -0.63020326542 -0.76681437071 -0.12181775377 
-0.63939102704 -0.75799552608 -0.12812046107 -0.64865665105 -0.74910194548 -0.13447658113 -0.65729960042 -0.73789004633 -0.15156544003 
-0.66593190578 -0.7266385178 -0.16883776454 -0.67305484475 -0.71191713997 -0.19760655755 -0.68013874839 -0.69710602465 -0.22667267302 
-0.68373297241 -0.6774363286 -0.26735852356 -0.68720581627 -0.65759763844 -0.30844853879 -0.68411743161 -0.63210872187 -0.35930154597 
-0.68074127377 -0.60637198835 -0.41058275456 -0.66774050753 -0.57616440711 -0.46673560925 -0.65422870014 -0.54571943573 -0.52314713542 
-0.63006067418 -0.5148587273 -0.57742659918 -0.60522663457 -0.4839720353 -0.63157280905 -0.57175224998 -0.45842273726 -0.6775535637 
-0.53765513782 -0.43325811626 -0.72294581708 -0.49848959315 -0.41802853327 -0.75752527201 -0.45890935854 -0.40361181702 -0.79122004344 
-0.41711328738 -0.40067774257 -0.81437856836 -0.37511392847 -0.39879712151 -0.83657046517 -0.33218674842 -0.40702876214 -0.84964538985 
-0.28916506808 -0.41629035536 -0.86179173404 -0.24541689992 -0.43242266672 -0.86635239736 -0.20158725649 -0.44932552592 -0.87006233012 
-0.15681947801 -0.46909414652 -0.8677213531 -0.11193664523 -0.48921422843 -0.86463828337 -0.065855743826 -0.50827155928 -0.85719254478 
-0.019615099935 -0.52718718999 -0.84916511701 0.027942436973 -0.54190495695 -0.83843778259 0.075689910374 -0.55601726279 -0.82732103856 
0.12456342613 -0.56402945697 -0.81471628087 0.17361186109 -0.57109406098 -0.80188037542 0.22297211291 -0.57159014648 -0.78801265968 
0.27238433421 -0.57099147888 -0.77397297556 0.3205163028 -0.56496313723 -0.75864410861 0.36842010753 -0.55796713088 -0.7430854863 
0.4129794929 -0.54823053718 -0.72566102516 0.45690343858 -0.53797323188 -0.70788205464 0.4955926709 -0.52877850422 -0.68767502708 
0.53322438538 -0.51979843871 -0.66697748295 0.56443783489 -0.51595519667 -0.64322858095 0.5942759419 -0.51321270252 -0.61882581655 
0.61718750282 -0.51902684882 -0.59020174342 0.63852809452 -0.52678167647 -0.56062026005 0.65249140928 -0.54519425897 -0.52446946627 
0.66468725145 -0.56616026191 -0.48674477519 0.66832808802 -0.59784010673 -0.43849348277 0.66980766002 -0.63222660634 -0.38758283842 
0.66037946575 -0.67384904175 -0.32099126231 0.64805026981 -0.71739592817 -0.25022922563 0.6219188091 -0.75918771265 -0.15972596447 
0.5919286507 -0.80048882348 -0.063703651318 0.54714027337 -0.82571860004 0.050302939141 0.49800894047 -0.84623178938 0.16958752403 
0.43828314667 -0.83730617025 0.2953403379 0.37529751875 -0.81932245621 0.42308337608 0.31059710118 -0.76957712526 0.54004249293 
0.24534414028 -0.70959749552 0.65352679069 0.18605305135 -0.62926607871 0.74350567836 0.12877158218 -0.54207450894 0.82556139409 
0.079747629079 -0.45106695663 0.88207790595 0.033632573677 -0.35871513774 0.92959765281 -0.0066874384844 -0.27446719079 0.95744304659 
-0.044875940489 -0.19319997833 0.97805189669 -0.081459997067 -0.12473887297 0.98632576981 -0.11742839435 -0.061191738923 0.98986645409 
-0.1551143389 -0.010027070771 0.98613544652 -0.19348730235 0.036184611025 0.97949576222 -0.2346558811 0.072776813562 0.96790750679 
-0.27698929955 0.10536089974 0.95425734671 -0.32055445928 0.13150613485 0.93666071598 -0.36465386824 0.15485861528 0.91735236304 
-0.40655325083 0.1744518624 0.8955389203 -0.44745993859 0.19234887009 0.87259513217 -0.48260728607 0.20852865149 0.84968665422 
-0.51505272085 0.22390282057 0.82679474154 -0.53951381904 0.23881682309 0.80685185557 -0.56008255316 0.25350649442 0.78834662012 
-0.57194654031 0.26827524584 0.77495550146 -0.57940306065 0.28308403782 0.76415380903 -0.57819348944 0.29752328012 0.75957966361 
-0.57242866497 0.31176827196 0.7582789724 -0.55805379674 0.32414421667 0.76354665812 -0.538982541 0.33550068114 0.7723970949 
-0.51095060098 0.34235433259 0.78767706616 -0.47784880012 0.34666033984 0.80659480035 -0.43504321598 0.34198963367 0.8312460717 
-0.38654474566 0.33205258895 0.85926101819 -0.32787795295 0.30660316069 0.89043306778 -0.26302772096 0.27172052624 0.92352497738 
-0.19023342136 0.21501486013 0.95265179334 -0.11243327095 0.14455769462 0.97928005714 -0.035680105941 0.054368972459 0.99087576502 
0.040389610262 -0.048700071397 0.99265855445 0.10237122886 -0.1552982338 0.97588744608 0.15482849979 -0.26428227917 0.94657285751 
0.18860901656 -0.36068421345 0.90883143184 0.20931580542 -0.44827866996 0.86519122018 0.21675651162 -0.52008928036 0.82350295768 
0.21458411445 -0.58046232111 0.78322915107 0.20607419917 -0.62940270338 0.74770618634 0.19281114531 -0.66976859181 0.715746353 
0.17788391495 -0.70369341759 0.68680582906 0.16166508491 -0.73261920969 0.66020864974 0.1465140587 -0.75867519404 0.63385678193 
0.13222051132 -0.78242663581 0.6077019067 0.12056267994 -0.80527021376 0.57950824018 0.11109452029 -0.82735956637 0.54962080859 
0.10502962636 -0.84892447506 0.51665525337 0.10188941388 -0.87003868975 0.48104443565 0.1022370688 -0.88975660233 0.44311637739 
0.10568505029 -0.90823335748 0.40312854974 0.112072339 -0.92407217745 0.36349656621 0.12116189403 -0.93748579896 0.3241917297 
0.13223674219 -0.94767928069 0.28895524394 0.14519924612 -0.95481099017 0.2575870261 0.15914067818 -0.95903423869 0.23354356868 
0.1740447229 -0.96039750059 0.21670279232 0.18908916948 -0.95938543074 0.20890577679 0.2042763976 -0.9559577693 0.21030580616 
0.21891555658 -0.95022872251 0.22058992808 0.23297829801 -0.94207925321 0.24021766456 0.2458573506 -0.93133471195 0.2666432763 
0.25744888199 -0.91776746084 0.30046306814 0.26743811662 -0.90176601806 0.33736218059 0.2756247674 -0.88302610963 0.37772552873 
0.28230565839 -0.86318587015 0.41695393918 0.28723439254 -0.84206524543 0.45486169487 0.29135818424 -0.82198302068 0.48849238076 
0.29451306371 -0.80315072182 0.51697474188 0.29785828599 -0.78716485451 0.53978038007 0.30144053893 -0.77472360008 0.55551689159 
0.30607625224 -0.76581777546 0.56550703785 0.31206930873 -0.76146721619 0.56809321349 0.31968563949 -0.76012104723 0.56558732769 
0.32946633597 -0.76278073203 0.55629202664 0.34118181624 -0.76702049892 0.54302325626 0.35556729815 -0.77344077909 0.5242710982 
0.3720177978 -0.7796467326 0.50307311754 0.39141832279 -0.78554650515 0.47838110461 0.41296272335 -0.78952740305 0.45306294491 
0.43767827317 -0.79066996553 0.4268186098 0.46457308826 -0.7885511975 0.4017446093 0.49480635227 -0.78143634868 0.37846346183 
0.52705635766 -0.77009718482 0.35776709256 0.56250684393 -0.75205421664 0.34117265391 0.59931752748 -0.72916766501 0.32797970095 
0.63836497989 -0.69831610947 0.32038030223 0.67734301424 -0.66261500057 0.3163214071 0.71620272235 -0.61864760752 0.31829746128 
0.75304572805 -0.57085450135 0.3233443063 0.78632432945 -0.51629966966 0.33381859558 0.8159440176 -0.46007418344 0.3464743897 
0.83885569811 -0.40078583057 0.36312960939 0.85761938353 -0.3423333694 0.38097713727 0.86849176122 -0.28547114123 0.40109295878 
0.87589616282 -0.23123796863 0.42158006771 0.87645131161 -0.18219718078 0.44280046929 0.87474701394 -0.13640524134 0.46380290774 
0.8684079543 -0.097277606343 0.48435824232 0.86098410468 -0.061128564808 0.50423819095 0.85124793958 -0.031328630379 0.52267850113 
0.84136490907 -0.0038258169761 0.54004783145 0.83115639307 0.018586079557 0.55504363886 0.82147869987 0.03949801398 0.56864990586 
0.81302484814 0.056951702427 0.57905251024 0.8055321908 0.073556130777 0.58785578064 0.80034639997 0.088122334893 0.59282064948 
0.79630352934 0.10220079872 0.59613192571 0.79511795919 0.11505991183 0.5953092204 0.79502171919 0.12747712065 0.592964066 
0.79776433959 0.1387427001 0.58665131697 0.80134814312 0.14932174414 0.57917135038 0.80721891329 0.15803427003 0.56851801103 
0.81357167191 0.1655875712 0.55728909686 0.82129265576 0.16985016998 0.54442629285 0.82913531482 0.17239631845 0.53170917757 
0.83733894366 0.16985033104 0.51942427219 0.84534308755 0.1651425167 0.50794571882 0.85272814021 0.15372558431 0.49896963724 
0.85960331282 0.13992637181 0.49121463188 0.8648213753 0.11838474893 0.48742812424 0.86916943565 0.094522777209 0.48497367764 
0.87055304433 0.062754431669 0.48705810569 0.87068604357 0.029000848143 0.49028932756 0.86634570902 -0.011853778953 0.49762254268 
0.8604586221 -0.054070824143 0.50571115657 0.84875574624 -0.10141056137 0.51664006986 0.83542863494 -0.14932895986 0.52786645162 
0.81567225839 -0.19953789252 0.54027031274 0.79442660217 -0.24964264776 0.55261513191 0.76696482211 -0.29931257551 0.56471351511 
0.73826075238 -0.34843003218 0.57654217545 0.70407931459 -0.39511159364 0.58718160318 0.6688756718 -0.44106797696 0.59744332843 
0.62890173908 -0.48364019564 0.60594244209 0.58805596719 -0.52546623453 0.61399053224 0.54289459141 -0.56359868341 0.61980605595 
0.49698417706 -0.60100486064 0.62508526071 0.44713145449 -0.63458855548 0.6275417341 0.39672665624 -0.66743310621 0.62936852022 
0.34322410003 -0.69613023722 0.62766206106 0.28954684223 -0.72407832029 0.62523296562 0.23482137483 -0.74753211569 0.61846805244 
0.1804687188 -0.77028623823 0.6109735913 0.12851603592 -0.78853621677 0.59878266509 0.077486453713 -0.80625501542 0.58596905222 
0.032857036152 -0.82029096679 0.56883814519 -0.010429078966 -0.83405065068 0.55125018194 -0.043640425763 -0.84573832853 0.53023429706 
-0.075292108481 -0.85738213806 0.50893033732 -0.094226530246 -0.86866825214 0.48527745948 -0.11158944836 -0.88002542634 0.46146594608 
-0.11493979227 -0.89201621981 0.4362399323 -0.11685409047 -0.90403394429 0.4109719468 -0.1046690308 -0.91631608232 0.3852918754 
-0.091283707985 -0.9284655286 0.35970806267 -0.064815516793 -0.93916863467 0.33517346935 -0.037447336706 -0.94954441069 0.31093363565 
0.00092070766271 -0.955919486 0.29029641951 0.039898734107 -0.96181265674 0.27020401344 0.087340261855 -0.96101940174 0.25767084712 
0.13519523215 -0.95962525747 0.24594168353 0.18966528312 -0.94861688502 0.24707656368 0.24447404655 -0.93680062519 0.24928946233 
0.30566189466 -0.90976915286 0.27180504285 0.36711231796 -0.88144338574 0.29562854591 0.43454945594 -0.82360769724 0.34927268301 
0.50177082927 -0.76370965018 0.40406775337 0.56278896894 -0.64451879435 0.4919521551 0.62257162333 -0.52341871033 0.57979269657 
0.63458218012 -0.32849513632 0.6659373083 0.64545532155 -0.13360892993 0.7511077444 0.58978966449 0.059091270652 0.779288906 
0.53459178607 0.25017214181 0.80723325113 0.53459178607 0.25017214181 0.80723325113 0.53459178607 0.25017214181 0.80723325113 

FrenetNormal 3 240 double
-0.7617617346 0.6409930656 -0.094058224289 -0.7617617346 0.6409930656 -0.094058224289 -0.7617617346 0.6409930656 -0.094058224289 
-0.6363807084 0.59995436008 -0.3717164993 -0.50993713113 0.55856786892 -0.65172781053 -0.40300669946 0.51197761596 -0.7441694294 
-0.29640982584 0.4652984098 -0.83340472874 -0.22190511229 0.44903933665 -0.86179298807 -0.14823036839 0.43356699106 -0.88860761706 
-0.082241900526 0.43578853492 -0.89383826637 -0.016520781399 0.43862551841 -0.89831816856 0.053106433774 0.44815540066 -0.88952142381 
0.12290496895 0.45797883109 -0.88014236998 0.20033283765 0.46381427258 -0.85915726765 0.27816580372 0.46943796243 -0.83755591497 
0.36379167449 0.4582819276 -0.80558455971 0.44990460181 0.44607715997 -0.77296507929 0.54201662596 0.40190785231 -0.72934871913 
0.63456101744 0.35543479402 -0.68493979106 0.72288238156 0.26450808103 -0.62174017151 0.81085822526 0.16994425084 -0.55700313174 
0.86744709823 0.045335428182 -0.46664988511 0.9211564326 -0.0820298158 -0.37394652776 0.93173052352 -0.18902686418 -0.2737122091 
0.93791121002 -0.29394937412 -0.17271084809 0.92766013387 -0.34957655103 -0.088287679596 0.91556624322 -0.39967527938 -0.0057237476446 
0.90997410813 -0.4067405824 0.055431588164 0.90517935815 -0.40852820118 0.11396134143 0.91157236301 -0.37769856787 0.15392252757 
0.91945706853 -0.34251996761 0.19140790476 0.93205549347 -0.28418904981 0.21474194226 0.9453337818 -0.22251885543 0.23603492114 
0.95408830989 -0.14834930586 0.24857565412 0.96214011794 -0.072238108874 0.25975681491 0.9598071744 0.00081925829495 0.27098852714 
0.95574343894 0.073367653828 0.28222866461 0.9426935073 0.12932297101 0.30196703852 0.92804207536 0.18232110592 0.32321994961 
0.90825151206 0.20778169649 0.35991581833 0.8874845138 0.22801015363 0.399545849 0.85962157346 0.2060125648 0.46108414659 
0.83032510947 0.17548446162 0.5270483567 0.77213914694 0.081991005054 0.61171357875 0.70776257758 -0.024995027243 0.7003861605 
0.58672660596 -0.17045267758 0.76350694406 0.45284004826 -0.32463584954 0.82083247443 0.30972607912 -0.42893008146 0.83147380747 
0.16440137598 -0.52127175482 0.8309303849 0.053053729956 -0.54823141283 0.82843947182 -0.049710238486 -0.55867350907 0.82545656115 
-0.12882915082 -0.52494115044 0.83696848306 -0.20165948441 -0.47946026658 0.85233541364 -0.26211340502 -0.3982719474 0.87243980187 
-0.3191072532 -0.30710090438 0.89386864062 -0.36403578795 -0.18621032181 0.90282734443 -0.40542341551 -0.05659770045 0.90812633471 
-0.42932570651 0.087914730057 0.88635218318 -0.44784789395 0.23701171723 0.85624783417 -0.44819310984 0.37774156369 0.79607881187 
-0.44268130156 0.51577533147 0.72622228373 -0.42972295244 0.6255223707 0.63695642538 -0.41425453337 0.72573455761 0.54114809616 
-0.40424590564 0.7929602292 0.4420446312 -0.3961606135 0.84856565108 0.34178037978 -0.40888107484 0.87353500437 0.24756196923 
-0.42925422712 0.88723591864 0.15556731626 -0.47799373618 0.86955103486 0.070527499451 -0.53761801006 0.83982276347 -0.011843601146 
-0.61098116216 0.7763016118 -0.088170329369 -0.68983986557 0.69926330801 -0.16207930864 -0.74777984398 0.61315540772 -0.22738965816 
-0.79700368697 0.52326850889 -0.28911724527 -0.81857020384 0.45366823006 -0.34383472317 -0.82814077203 0.39286696713 -0.39551167179 
-0.8193302554 0.36143015035 -0.44236309955 -0.80222583465 0.34324314462 -0.48703715815 -0.7711744914 0.35548717981 -0.52524970113 
-0.73358014747 0.38200750581 -0.56043091581 -0.66685421462 0.45306645086 -0.57991122207 -0.58592663216 0.54583797271 -0.59173733549 
-0.39082860694 0.69052172051 -0.52694755909 -0.13792276262 0.86149013969 -0.42336492708 0.1828141916 0.85488429723 -0.19598744267 
0.53920595999 0.75493813775 0.096461694933 0.72252517464 0.58160936644 0.28072510142 0.81144117817 0.36825371596 0.40597810913 
0.85007566651 0.19220505446 0.46771227265 0.86026140284 0.037264294612 0.49350814276 0.85497010001 -0.10610798542 0.49098451889 
0.84059893421 -0.24269342397 0.47184679189 0.8144945268 -0.37027412693 0.42729783173 0.78125504003 -0.49237897716 0.36729609467 
0.73631411717 -0.59921827222 0.28219463765 0.68399968662 -0.69643817636 0.18127691874 0.61788056977 -0.76986646668 0.064469420748 
0.54275006048 -0.82776412022 -0.062710571935 0.45294862745 -0.86053295643 -0.18441077464 0.35322882343 -0.87631329641 -0.30240633059 
0.24364808321 -0.87503201884 -0.39774047678 0.12716468765 -0.86180760896 -0.47721163615 0.0088123177767 -0.83862779604 -0.53186211871 
-0.1108943813 -0.80823392293 -0.5685266036 -0.21564819074 -0.77213718557 -0.59049028827 -0.30918733296 -0.73176330004 -0.60142837279 
-0.36819542569 -0.69461364667 -0.61632786287 -0.40040330091 -0.65996638246 -0.63430187667 -0.39223557787 -0.63209121071 -0.66589708283 
-0.35164502591 -0.60965423442 -0.70843051921 -0.28731933754 -0.58502010022 -0.75317074886 -0.20327522816 -0.55856063482 -0.79974431445 
-0.11885337593 -0.52485267995 -0.83825586148 -0.034106900942 -0.48491555444 -0.86983911131 0.043304749222 -0.44003030354 -0.89355591127 
0.1141965551 -0.39074671898 -0.91028031137 0.1839984201 -0.33931879996 -0.91930761926 0.25279824269 -0.28591947667 -0.92125856819 