# vtk DataFile Version 5.1
vtk output
ASCII
DATASET POLYDATA
POINTS 240 float
0 0 0 -0.19681 -0.257052 -0.19651 -0.393621 -0.514104 -0.393019 
-0.623374 -0.7596 -0.488976 -0.853407 -1.005 -0.584082 -1.10895 -1.2385 -0.600539 
-1.36492 -1.47179 -0.615651 -1.63912 -1.69281 -0.573697 -1.9138 -1.9135 -0.530267 
-2.19973 -2.12144 -0.450994 -2.48605 -2.32895 -0.370475 -2.77722 -2.52303 -0.274764 
-3.0686 -2.71653 -0.178387 -3.35936 -2.89574 -0.0864079 -3.65008 -3.0742 0.00533798 
-3.93607 -3.2374 0.0749701 -4.22177 -3.39965 0.14322 -4.50032 -3.54589 0.17461 
-4.77837 -3.69098 0.203343 -5.04874 -3.81996 0.18469 -5.31849 -3.94763 0.162161 
-5.58174 -4.06013 0.0870256 -5.84438 -4.17124 0.00706449 -6.10278 -4.26945 -0.124943 
-6.36075 -4.36634 -0.262252 -6.61675 -4.45387 -0.445695 -6.87253 -4.54035 -0.634312 
-7.12728 -4.62198 -0.859096 -7.3819 -4.70301 -1.08832 -7.63374 -4.78421 -1.34154 
-7.88521 -4.86543 -1.59797 -8.1285 -4.9519 -1.86599 -8.37062 -5.03913 -2.13568 
-8.59556 -5.13623 -2.40589 -8.81783 -5.23488 -2.67618 -9.01128 -5.3472 -2.93824 
-9.19994 -5.4618 -3.19893 -9.34753 -5.59273 -3.44545 -9.4878 -5.72657 -3.68945 
-9.57656 -5.87801 -3.91629 -9.65554 -6.03278 -4.13988 -9.6766 -6.20494 -4.34632 
-9.68597 -6.3806 -4.54928 -9.63656 -6.57209 -4.7379 -9.57456 -6.76697 -4.92345 
-9.45896 -6.97505 -5.09984 -9.33119 -7.18612 -5.27415 -9.16027 -7.40729 -5.44585 
-8.97902 -7.63087 -5.61691 -8.76887 -7.86152 -5.79172 -8.55143 -8.09396 -5.96746 
-8.32118 -8.33108 -6.15128 -8.08751 -8.56945 -6.33725 -7.8569 -8.81098 -6.53195 
-7.62715 -9.05339 -6.72909 -7.41436 -9.29825 -6.93089 -7.20656 -9.54382 -7.13406 
-7.02631 -9.79139 -7.33298 -6.85453 -10.0396 -7.5306 -6.71669 -10.289 -7.7113 
-6.58978 -10.5389 -7.88655 -6.4986 -10.7881 -8.03052 -6.41947 -11.0372 -8.16394 
-6.37352 -11.2825 -8.25265 -6.33925 -11.5264 -8.32562 -6.33213 -11.762 -8.34402 
-6.33501 -11.9944 -8.34235 -6.35685 -12.2131 -8.28182 -6.38597 -12.4265 -8.1987 
-6.42544 -12.6212 -8.059 -6.46904 -12.8083 -7.89666 -6.51564 -12.973 -7.68625 
-6.5635 -13.1283 -7.45582 -6.60979 -13.2594 -7.19063 -6.6554 -13.3801 -6.91035 
-6.69858 -13.4768 -6.61121 -6.74064 -13.5628 -6.30356 -6.78319 -13.6265 -5.99301 
-6.82597 -13.6797 -5.6811 -6.87525 -13.7126 -5.37999 -6.9277 -13.7356 -5.08414 
-6.9942 -13.7399 -4.80883 -7.06782 -13.7347 -4.5439 -7.16235 -13.7114 -4.30429 
-7.26787 -13.6786 -4.07797 -7.39819 -13.6279 -3.87661 -7.54204 -13.5673 -3.68887 
-7.71015 -13.4884 -3.52143 -7.89198 -13.3993 -3.36547 -8.09277 -13.2917 -3.22218 
-8.30468 -13.1734 -3.08631 -8.52639 -13.0373 -2.95415 -8.75406 -12.8903 -2.82425 
-8.98028 -12.7271 -2.68937 -9.20558 -12.5536 -2.55137 -9.41811 -12.3666 -2.40129 
-9.62229 -12.1708 -2.24332 -9.80401 -11.9657 -2.06844 -9.97054 -11.7543 -1.88213 
-10.1077 -11.5389 -1.67651 -10.2243 -11.3209 -1.45738 -10.3079 -11.1054 -1.21887 
-10.3676 -10.8917 -0.966317 -10.3937 -10.6875 -0.69627 -10.3947 -10.4903 -0.413103 
-10.3646 -10.3092 -0.115977 -10.3103 -10.1406 0.191983 -10.2293 -9.99391 0.508984 
-10.1269 -9.86481 0.833245 -10.0034 -9.76201 1.16041 -9.86239 -9.68106 1.48999 
-9.70649 -9.62891 1.81529 -9.53778 -9.60151 2.13692 -9.36007 -9.60328 2.4464 
-9.17438 -9.63096 2.74509 -8.98491 -9.68607 3.02359 -8.79197 -9.76639 3.28354 
-8.59951 -9.87071 3.51595 -8.4075 -9.99783 3.72217 -8.21919 -10.1446 3.89521 
-8.0345 -10.3106 4.0356 -7.85574 -10.4917 4.13994 -7.68301 -10.6883 4.20761 
-7.51759 -10.8961 4.23998 -7.35984 -11.116 4.2352 -7.21 -11.3444 4.1997 
-7.06875 -11.5823 4.13079 -6.9353 -11.8272 4.03912 -6.8106 -12.08 3.92186 
-6.69284 -12.3391 3.79205 -6.58317 -12.6055 3.64763 -6.47895 -12.8776 3.50153 
-6.38132 -13.1567 3.35339 -6.28721 -13.4411 3.21348 -6.1975 -13.7319 3.08381 
-6.10925 -14.0271 2.97009 -6.02289 -14.3278 2.87691 -5.93613 -14.6318 2.80446 
-5.84885 -14.94 2.75964 -5.75982 -15.2501 2.73723 -5.66841 -15.5627 2.74572 
-5.5746 -15.8757 2.7756 -5.47738 -16.1893 2.83602 -5.3778 -16.502 2.91494 
-5.27475 -16.8134 3.02122 -5.16993 -17.1227 3.14224 -5.06241 -17.4288 3.28584 
-4.954 -17.732 3.44043 -4.8442 -18.0305 3.61244 -4.73442 -18.3255 3.79226 
-4.62465 -18.6147 3.9849 -4.5155 -18.9 4.18293 -4.40741 -19.1788 4.39014 
-4.30008 -19.4537 4.60099 -4.19408 -19.722 4.81829 -4.08833 -19.9867 5.03789 
-3.98306 -20.2449 5.26172 -3.87695 -20.5 5.48661 -3.76925 -20.7491 5.71352 
-3.65914 -20.9952 5.94022 -3.54427 -21.2357 6.16648 -3.42518 -21.4733 6.39121 
-3.29744 -21.7049 6.61281 -3.16377 -21.9331 6.83174 -3.01744 -22.154 7.04497 
-2.86388 -22.3703 7.2548 -2.69429 -22.5766 7.45708 -2.51682 -22.7769 7.65581 
-2.32119 -22.9633 7.84636 -2.11783 -23.1419 8.03385 -1.89591 -23.302 8.21399 
-1.66713 -23.453 8.39207 -1.42122 -23.5811 8.565 -1.16989 -23.6993 8.73714 
-0.904441 -23.7916 8.9072 -0.635278 -23.874 9.07769 -0.356021 -23.9294 9.24936 
-0.0746984 -23.9757 9.42239 0.212488 -23.9963 9.59928 0.500422 -24.0093 9.77797 
0.790574 -24 9.96198 1.08064 -23.985 10.1476 1.37045 -23.9523 10.3384 
1.65985 -23.9156 10.5302 1.94796 -23.8662 10.7254 2.23574 -23.8144 10.9208 
2.52243 -23.7541 11.1168 2.80907 -23.6923 11.312 3.09556 -23.6252 11.5045 
3.38235 -23.5571 11.6955 3.67027 -23.4852 11.8809 3.95872 -23.4124 12.0643 
4.24926 -23.3363 12.2403 4.54043 -23.2594 12.4144 4.83423 -23.1791 12.5807 
5.12863 -23.0982 12.7454 5.42564 -23.0143 12.9034 5.72312 -22.9299 13.0604 
6.02282 -22.8436 13.2126 6.32286 -22.7572 13.3645 6.62455 -22.6708 13.5142 
6.92653 -22.5849 13.6639 7.23 -22.5018 13.8138 7.53377 -22.4198 13.964 
7.83923 -22.3441 14.1159 8.14507 -22.27 14.2682 8.45313 -22.2058 14.4228 
8.76168 -22.1438 14.5778 9.07329 -22.0954 14.7349 9.3854 -22.0494 14.8922 
9.70105 -22.0202 15.051 10.0171 -21.9936 15.2099 10.3362 -21.9868 15.3698 
10.6554 -21.9826 15.5297 10.9755 -22.0002 15.6903 11.2952 -22.0206 15.8512 
11.6118 -22.0646 16.0135 11.9273 -22.1113 16.1761 12.2334 -22.1833 16.3414 
12.5378 -22.2577 16.5071 12.8244 -22.3589 16.677 13.1088 -22.4624 16.8474 
13.3659 -22.5939 17.0226 13.6204 -22.7276 17.1981 13.8379 -22.8904 17.3782 
14.0524 -23.0551 17.5584 14.2207 -23.2497 17.741 14.3862 -23.4459 17.9235 
14.4976 -23.6723 18.1047 14.6063 -23.8999 18.2856 14.6547 -24.1573 18.4604 
14.7009 -24.4157 18.6347 14.6822 -24.7027 18.7973 14.6617 -24.9905 18.9595 
14.5729 -25.3054 19.1041 14.4829 -25.6208 19.2482 14.3217 -25.9617 19.3688 
14.16 -26.3028 19.4892 13.9246 -26.6676 19.5798 13.6893 -27.0323 19.6705 

LINES 2 240
OFFSETS vtktypeint64
0 240 
CONNECTIVITY vtktypeint64
0 1 2 3 4 5 6 7 8 
9 10 11 12 13 14 15 16 17 
18 19 20 21 22 23 24 25 26 
27 28 29 30 31 32 33 34 35 
36 37 38 39 40 41 42 43 44 
45 46 47 48 49 50 51 52 53 
54 55 56 57 58 59 60 61 62 
63 64 65 66 67 68 69 70 71 
72 73 74 75 76 77 78 79 80 
81 82 83 84 85 86 87 88 89 
90 91 92 93 94 95 96 97 98 
99 100 101 102 103 104 105 106 107 
108 109 110 111 112 113 114 115 116 
117 118 119 120 121 122 123 124 125 
126 127 128 129 130 131 132 133 134 
135 136 137 138 139 140 141 142 143 
144 145 146 147 148 149 150 151 152 
153 154 155 156 157 158 159 160 161 
162 163 164 165 166 167 168 169 170 
171 172 173 174 175 176 177 178 179 
180 181 182 183 184 185 186 187 188 
189 190 191 192 193 194 195 196 197 
198 199 200 201 202 203 204 205 206 
207 208 209 210 211 212 213 214 215 
216 217 218 219 220 221 222 223 224 
225 226 227 228 229 230 231 232 233 
234 235 236 237 238 239 
CELL_DATA 1
FIELD FieldData 3
Length 1 1 double
79.182635513 
Tortuosity 1 1 double
1.1918605414 
ClusterLabel 1 1 int
1 
POINT_DATA 240
FIELD FieldData 6
Curvature 1 240 double
0 0.19727123601 0.39454247203 0.37544787522 0.35451966965 0.30489342853 0.2547766227 0.20641766516 0.15810416922 
0.12082188451 0.083923294108 0.066292501692 0.049506788136 0.071292534928 0.095126323862 0.13674571002 0.179476696 0.22734725958 
0.27558824317 0.30771551018 0.33852438221 0.33155302759 0.32111559713 0.28207146683 0.24011369117 0.19601436096 0.1516748564 
0.11939835549 0.08860127956 0.074250274508 0.062092078908 0.067772267867 0.076025300752 0.098429146372 0.12303117649 0.16421770783 
0.2081683227 0.27244260662 0.34033893057 0.41096393469 0.48210738804 0.50360293232 0.51506859599 0.46237007635 0.39592208886 
0.31662394188 0.23441132574 0.17040755967 0.1107663306 0.070526686569 0.035188495596 0.031545845211 0.036332859877 0.051436816506 
0.069425079491 0.08824765519 0.10731508353 0.13298564934 0.16068794975 0.2045823945 0.25369430799 0.33137244272 0.41867964079 
0.53264688153 0.65600572821 0.74526606942 0.8219844316 0.80061444511 0.74160590622 0.64146453902 0.5248700405 0.4289580205 
0.34166369987 0.27939529986 0.22798151601 0.1940868928 0.1680972567 0.1595291306 0.15913405857 0.18420696692 0.2216955157 
0.28209434051 0.35409330509 0.41777264235 0.47707884218 0.48339312628 0.46080272906 0.39959057908 0.31652664792 0.24215002937 
0.17286996755 0.1387657454 0.12605223656 0.13738492406 0.16387000924 0.19229836075 0.22199523335 0.24726375418 0.26953845973 
0.28449433856 0.2943270387 0.29686164704 0.29410778305 0.28682629781 0.27614909662 0.26485090138 0.25307074059 0.24340577401 
0.23543937248 0.23064067762 0.22847361599 0.23028609831 0.23551850122 0.24594849654 0.26099857401 0.2833379199 0.31237868998 
0.34995471615 0.39564623172 0.4428064323 0.49141083979 0.52166586985 0.5332605161 0.51494444673 0.46517055577 0.40211320009 
0.32460716348 0.25197015902 0.18481081571 0.131446005 0.094133014039 0.081041434964 0.09710525908 0.12118264212 0.15523917401 
0.18686394808 0.21535549572 0.23660853958 0.24821024506 0.25136329723 0.24285720785 0.2291496343 0.20801136907 0.18614391192 
0.16319785838 0.14188415761 0.12307108239 0.10645049879 0.093309304077 0.0818073676 0.073001100219 0.065153899079 0.058941469942 
0.053011320098 0.047580082493 0.042693451792 0.038805267083 0.037235861451 0.040077791627 0.04576922288 0.057088418761 0.069718992054 
0.085039570293 0.10056461144 0.11652548142 0.13189503637 0.14595410933 0.15902283312 0.16980825184 0.1791981837 0.18523894708 
0.18968172865 0.19012955572 0.18893182322 0.18344566275 0.17663325771 0.16621512521 0.15485448253 0.14081832704 0.12644629242 
0.11107781636 0.095806413526 0.080836272444 0.066420267545 0.053805205244 0.04253896096 0.035868689177 0.031084959507 0.033049245849 
0.035458090006 0.03953847155 0.043034924119 0.044219991159 0.044668675089 0.042043759948 0.03880068936 0.03283211521 0.026613937174 
0.019230941007 0.013261941714 0.014292226945 0.016505697856 0.02494646182 0.033394071446 0.04188009285 0.050320994245 0.058491175583 
0.066402822808 0.07265015668 0.07876947822 0.084001247599 0.089013683711 0.092381120319 0.095827868894 0.099921315056 0.10426148414 
0.11080159923 0.11780098478 0.12930957119 0.1413525755 0.15922073501 0.17756753558 0.20176439358 0.22624219195 0.25461803792 
0.28287039742 0.30914697341 0.33481337253 0.34898810742 0.36235939734 0.35741214191 0.35190041182 0.33016003501 0.30824207107 
0.27945740498 0.2506915277 0.22302479537 0.19477218606 0.097386093031 0 
Torsion 1 240 double
0 0 0 0.01899196844 0.038144885765 0.057431860838 0.076721127498 0.1330427153 0.19032203554 
0.42786115909 0.67167018885 1.3338424255 2.0143639256 1.3470165972 0.60810101234 0.37735682272 0.1783733453 0.1178947725 
0.067398535179 0.049135888615 0.033510535842 0.030873984734 0.029429066807 0.041533047682 0.055017008991 0.10179581866 0.15230863002 
0.29343267162 0.44566941127 0.613415525 0.78322955528 0.61327321158 0.39431152549 0.22412181767 0.061508339478 -0.0043992231749 
-0.054189133238 -0.069443017086 -0.078541965568 -0.079454310826 -0.078811201471 -0.081731119944 -0.08537084202 -0.098471890743 -0.11360036661 
-0.14562268551 -0.18147659768 -0.27592483748 -0.3844113016 -1.1758314317 -2.1397821721 -1.8215210591 -1.1622461553 -0.79963466917 
-0.51996134284 -0.45427108433 -0.4513802044 -0.46145981594 -0.47553034792 -0.47259278336 -0.46417483212 -0.43679386839 -0.40302087798 
-0.36224047046 -0.31899154101 -0.28551120878 -0.25562392381 -0.23774455606 -0.22447287747 -0.20667337834 -0.18706275099 -0.14573907941 
-0.095368306055 -0.0099704850039 0.090619790471 0.24716580666 0.42896014489 0.57924260408 0.71474171261 0.66514314773 0.52530946707 
0.37905947815 0.22956072557 0.12533336089 0.044902494996 -0.028533582597 -0.098154321114 -0.22000649647 -0.37141066899 -0.70772301746 
-1.1525148292 -1.3332219612 -1.3533370583 -1.0920274557 -0.65338174079 -0.40311851631 -0.27582719527 -0.20446664677 -0.17091845151 
-0.15313392105 -0.14638395595 -0.14549488582 -0.14885284103 -0.15315517959 -0.15816580566 -0.15934147731 -0.15754076643 -0.1498587476 
-0.13745386027 -0.11871714196 -0.094720133315 -0.066487032717 -0.0346135406 -0.0028520250138 0.028809955879 0.054486288509 0.074659686446 
0.084660262249 0.084988318649 0.076977147702 0.060765736531 0.041183185771 0.018172357463 -0.0099607452232 -0.043481067515 -0.094591308518 
-0.16483444356 -0.3044875269 -0.5222268021 -0.97102858187 -1.6887030942 -1.8032525959 -1.1918182885 -0.72636861957 -0.44271114195 
-0.25197524928 -0.18096524492 -0.12934032413 -0.10356218142 -0.083000358545 -0.069637057041 -0.057293304899 -0.046406051844 -0.034675949179 
-0.021699131466 -0.0077681286433 0.0076246045605 0.021305722378 0.032270580996 0.035845977839 0.02726981532 0.0031226511056 -0.04756599327 
-0.12609458213 -0.25382865425 -0.41806112251 -0.64920731704 -0.79167613354 -0.76544164549 -0.67122564554 -0.44274615956 -0.24871329717 
-0.12534017544 -0.021695928294 0.039894665163 0.09442124492 0.13329244296 0.16809801239 0.19353004919 0.21547160284 0.22903599695 
0.2399038533 0.24403036523 0.24602541562 0.24246574804 0.23700018589 0.2263529729 0.21337171849 0.19376479811 0.17008760388 
0.13433526394 0.089545857306 0.01671038162 -0.081329396241 -0.26128315617 -0.45639106799 -0.70313534923 -0.85134833726 -0.64712246877 
-0.44944350744 -0.27638091707 -0.12696167036 -0.071130659033 -0.025585891406 -0.022975010541 -0.035266752552 -0.11326551361 -0.28383936624 
-0.88643031294 -1.360481322 -1.1982596397 -0.98414126147 -0.49688237837 -0.071672973814 0.0053699121855 0.072012976603 0.076257111527 
0.077433612858 0.058862222933 0.038515855774 0.0058629797936 -0.027715218024 -0.068233329622 -0.10800555337 -0.14169592232 -0.17358821023 
-0.18944760879 -0.20208615671 -0.18310180743 -0.16309816343 -0.13198420701 -0.10091495973 -0.07039215743 -0.040347452761 -0.016936352669 
0.0059141607673 0.0197952877 0.033353037648 0.040820521048 0.04808964984 0.050836293561 0.053498055896 0.053719478377 0.053898951943 
0.052456400791 0.050610997174 0.025198724331 0 0 0 
FrenetTangent 3 240 double
-0.59210122967 -0.69698041712 -0.40451752986 -0.59210122967 -0.69698041712 -0.40451752986 -0.59210122967 -0.69698041712 -0.40451752986 
-0.64701585872 -0.69488759875 -0.28354734454 -0.70239586597 -0.69277704463 -0.16155198815 -0.73069561472 -0.67160009751 -0.061585240274 
-0.75853245306 -0.65009722915 0.038004950192 -0.77073155227 -0.62433162331 0.10480930731 -0.78252622719 -0.59845577426 0.17076575495 
-0.78953900853 -0.57612947638 0.20712844681 -0.79638546313 -0.55392664116 0.24246179064 -0.80448533859 -0.5370288812 0.25292020671 
-0.81264018863 -0.52036379999 0.26228761717 -0.82451423514 -0.50787978388 0.24840908396 -0.83658576111 -0.49561777123 0.23329625285 
-0.85175405773 -0.48477537015 0.19348631111 -0.86711590252 -0.4740216948 0.15213279995 -0.8806782106 -0.46047930219 0.08469596115 
-0.89411082233 -0.44673592094 0.015379242876 -0.89676106522 -0.42606782978 -0.074153589579 -0.8985291143 -0.40483317145 -0.16534046774 
-0.88371737278 -0.37700785477 -0.25890555085 -0.86738454955 -0.34857789054 -0.35268881789 -0.8399409821 -0.32002406223 -0.4298416343 
-0.81136576477 -0.29145761813 -0.50530060852 -0.78229065148 -0.26957576762 -0.55815175214 -0.75315947508 -0.24844359115 -0.60846743812 
-0.72912679188 -0.23692658364 -0.64084433439 -0.70571939557 -0.22658879496 -0.6710211904 -0.68684709888 -0.22625661931 -0.69022020158 
-0.66857948214 -0.22725852539 -0.70795550012 -0.65088853551 -0.23832046258 -0.72038187288 -0.63328076245 -0.2508333658 -0.73204253519 
-0.61039765606 -0.27414441383 -0.74228483074 -0.5866950804 -0.29913284359 -0.75230679748 -0.54978930311 -0.33623167683 -0.76259786309 
-0.51068299221 -0.37534891064 -0.77293377852 -0.44806791428 -0.42630752308 -0.78119851493 -0.3812631551 -0.47937648023 -0.78909413032 
-0.28313988394 -0.53659999799 -0.7860863411 -0.17906609552 -0.59461288227 -0.78100690501 -0.054230442637 -0.63854414282 -0.75531512394 
0.074799526292 -0.6796306309 -0.72545923279 0.19295077196 -0.69486184544 -0.68162776721 0.30877086265 -0.70455264424 -0.6348015357 
0.39356740426 -0.69731240488 -0.59263427591 0.47132767701 -0.68623213625 -0.55152369012 0.52043757147 -0.67173600182 -0.52481781129 
0.56268331279 -0.65642148289 -0.50156306017 0.58463208829 -0.64461545469 -0.49219357667 0.60145320926 -0.63369578204 -0.48633195026 
0.60379474645 -0.62868952332 -0.4900309673 0.60228533051 -0.62525598107 -0.49627270865 0.58941659876 -0.62874239972 -0.50681726644 
0.57337214431 -0.63416343109 -0.51856476216 0.54770956478 -0.64744059609 -0.52889897498 0.51922427462 -0.66302336552 -0.53881842001 
0.48216665464 -0.68761438507 -0.54082429223 0.44247139473 -0.71497717388 -0.54039521897 0.39459655115 -0.75204331871 -0.523761689 
0.34408606395 -0.79223610047 -0.50190672298 0.28524919069 -0.83960050863 -0.45221089105 0.22360567045 -0.88938231895 -0.39313049759 
0.1550749941 -0.93347880448 -0.29303819954 0.084118160479 -0.97557250514 -0.17849852602 0.015764155477 -0.98436919224 -0.026095739953 
-0.051632487276 -0.98091870194 0.14023370819 -0.10006844177 -0.93053419233 0.30510175049 -0.14122878334 -0.86214011718 0.46940902076 
-0.1600579987 -0.77313679363 0.59674171634 -0.16995476359 -0.67588977072 0.70928458205 -0.16798084188 -0.58475098258 0.78673899017 
-0.16106080075 -0.49615729226 0.84957320763 -0.1521473759 -0.42037855818 0.89138101281 -0.14236935088 -0.35015811838 0.92406892833 
-0.13696358253 -0.29021921045 0.9455049712 -0.1335306617 -0.23491953032 0.9618639496 -0.13961545738 -0.18530696876 0.97161546067 
-0.15016535463 -0.13836243815 0.97826717226 -0.17558647162 -0.092164796954 0.97868439726 -0.20825730822 -0.046331264354 0.97606231006 
-0.25971506855 0.0032622152992 0.96256419947 -0.32068519532 0.054759465612 0.9435592416 -0.39549729885 0.11071713328 0.90571036378 
-0.47758531325 0.16901937929 0.85795634855 -0.55464436791 0.22566083885 0.79309285732 -0.62896035361 0.28139641489 0.71889692463 
-0.68253043706 0.32962234335 0.64637176231 -0.72436270739 0.37359939226 0.57479190426 -0.74626763961 0.41151089697 0.52051571359 
-0.75648186681 0.44586394909 0.47639100778 -0.75253994682 0.47782419941 0.4519920812 -0.73998955897 0.50832936757 0.4395885609 
-0.71586269295 0.53775119909 0.44344385174 -0.68444105987 0.56649038014 0.45754442084 -0.64154015721 0.59265302 0.48329940312 
-0.59114584247 0.61713375103 0.51666212734 -0.52966058112 0.6355369601 0.55652668336 -0.46067721504 0.64983142193 0.600786844 
-0.38350185577 0.65429794283 0.64599905077 -0.30059210128 0.65188490508 0.69187768984 -0.21488032496 0.6379458335 0.73401328455 
-0.12713809803 0.61565456347 0.77343652827 -0.042323611666 0.58293113556 0.80670382995 0.040295069274 0.54238358924 0.83535417508 
0.1163330263 0.49411097108 0.85766200937 0.18726355582 0.43984277478 0.87504729793 0.25068250281 0.38049390177 0.88681505937 
0.3080694214 0.31706509141 0.89407177632 0.35875329607 0.25028981364 0.89619074287 0.40386848811 0.18073439372 0.89404142445 
0.44382801792 0.10869188419 0.88641527412 0.47935690051 0.034512032022 0.87408247134 0.51134684128 -0.041949885733 0.85486041517 
0.54019105599 -0.12044030624 0.8295145782 0.56652463547 -0.20123398612 0.79453856587 0.59055005031 -0.28414517866 0.75070900522 
0.6115286847 -0.36855434648 0.69316750548 0.6296103803 -0.45438781866 0.62258842431 0.64141098117 -0.53767731983 0.53505731014 
0.64703517222 -0.6184652495 0.43085669686 0.64185264449 -0.68848474984 0.31393269046 0.62568023323 -0.74755330509 0.18406964021 
0.5990992517 -0.7904146405 0.056567755195 0.56157132559 -0.8162304516 -0.068450835364 0.52055524083 -0.830708649 -0.17719639329 
0.47574501861 -0.83285470518 -0.26824145958 0.43371025144 -0.83264270028 -0.3401033218 0.39479787118 -0.82977787665 -0.39038407943 
0.36091725544 -0.82994006686 -0.42449950046 0.33289178385 -0.83362460045 -0.439804348 0.30985322214 -0.84160655572 -0.44184352947 
0.29281742232 -0.85476133339 -0.42791477956 0.28003026359 -0.8708020979 -0.40231593751 0.27253386544 -0.89043673284 -0.36218452788 
0.26822994507 -0.90978645563 -0.31202939082 0.26803940953 -0.92876908007 -0.24895906648 0.26968851431 -0.94385249038 -0.17946333018 
0.27379047284 -0.95373694851 -0.10140037791 0.27840092329 -0.95795397102 -0.022468979078 0.28371309257 -0.95434993239 0.057660876017 
0.28867198031 -0.94623347552 0.13378758725 0.29312618016 -0.93167070691 0.20419552154 0.29691618233 -0.9151250089 0.26859210341 
0.29972372543 -0.89564622781 0.32409689319 0.30184490499 -0.87615435751 0.37404057702 0.30291463401 -0.85664243565 0.41546511984 
0.30338025416 -0.83797738618 0.45274208247 0.3028871798 -0.82065628637 0.48343701569 0.30195967167 -0.80429378355 0.51133254273 
0.30031776135 -0.7895076402 0.53462460186 0.29856777898 -0.77550710315 0.55601019071 0.2966335829 -0.76284566775 0.57414611432 
0.29514796424 -0.75077748753 0.59078894007 0.29445518012 -0.73975785135 0.60479280217 0.29495993285 -0.72922249277 0.61734700722 
0.29766016981 -0.71957497646 0.62724350769 0.30235647944 -0.71031049455 0.63556291314 0.31085019561 -0.70177471224 0.6408819915 
0.3219881522 -0.6933726581 0.64449226192 0.33834848361 -0.68523471714 0.64472763669 0.35764698543 -0.67666804861 0.64326754025 
0.38297250344 -0.6672219389 0.63832955417 0.41104676437 -0.65643188139 0.63195577202 0.44498018784 -0.64277709303 0.62252147719 
0.48091084423 -0.62676191094 0.61213901003 0.5212678006 -0.60551558599 0.59965518797 0.56237265672 -0.58113947653 0.58690726312 
0.60520183724 -0.54954747498 0.57355043464 0.64727108346 -0.51466267066 0.56067225894 0.68751648732 -0.47187513973 0.54894284993 
0.72560006151 -0.42647870763 0.53827167258 0.75827906151 -0.37456002258 0.53024607437 0.78793083828 -0.32140899282 0.52354930756 
0.80969348786 -0.26504639805 0.52031555594 0.82835698559 -0.20906814549 0.5183182055 0.83859466426 -0.15413482329 0.51968232076 
0.84638205227 -0.10093496307 0.52189858274 0.8472137765 -0.052655898121 0.52653384187 0.84664391861 -0.0068396806569 0.53147495708 
0.84191603377 0.031670089276 0.53732344532 0.83682192001 0.067658575991 0.5429394752 0.83059123371 0.095822390651 0.54783408263 
0.8247466827 0.12186282792 0.55206786514 0.82015707141 0.14100228866 0.5541539667 0.81632855861 0.15864059432 0.55531543957 
0.81509341848 0.171163853 0.55332632578 0.81464474561 0.1828259321 0.55034623728 0.81700920564 0.19140763807 0.54382150844 
0.81991991003 0.19964175502 0.53647547844 0.82488449317 0.20656893729 0.52604135605 0.83004538676 0.21339029665 0.51517350892 
0.83598334254 0.21979277364 0.50258883465 0.84182899071 0.22608484536 0.49003365393 0.84728935497 0.23191609507 0.47760157673 
0.85250910683 0.2374792787 0.46560194471 0.85666797674 0.24186053462 0.45550900277 0.86057531096 0.24575016238 0.44609545314 
0.86330881202 0.24734552535 0.43985240096 0.865888123 0.24823911649 0.43429317059 0.86770419306 0.24565893708 0.4321188581 
0.86949060233 0.24222483225 0.43045739137 0.87112090211 0.23429638316 0.43149511283 0.87280584688 0.22548087937 0.43279511641 
0.87479741069 0.21168801316 0.43556681413 0.87688023751 0.19704479535 0.43834521935 0.87951064236 0.17729946795 0.44116386958 
0.88218408951 0.15683655683 0.44383786894 0.88513462142 0.1317542005 0.44558067838 0.88801796813 0.10612186604 0.4471633647 
0.89043549745 0.076676349847 0.44763586406 0.8926421839 0.046840589158 0.44805918881 0.89326754882 0.01407799474 0.44811370401 
0.89353343547 -0.018969962565 0.44830424039 0.89086819169 -0.054344724949 0.44960387243 0.88770255442 -0.090000424177 0.4512085856 
0.88007507529 -0.1281611436 0.45553360558 0.87179033171 -0.16664546248 0.46027306885 0.85705244624 -0.20830693956 0.46908161176 
0.84148074448 -0.25037412975 0.47827415258 0.81682044518 -0.29686359279 0.49165227054 0.79112504398 -0.34378748676 0.50525116314 
0.75277839748 -0.3960210921 0.52154841238 0.71322296544 -0.44858546466 0.53778510642 0.65689563411 -0.50573923236 0.55318159704 
0.59934911296 -0.5629429402 0.56815615487 0.52229555475 -0.62094569037 0.5763797883 0.4443064057 -0.67859239878 0.58390271378 
0.34869696248 -0.72953365388 0.57822897294 0.25269569744 -0.77981494401 0.57181878676 0.14776089495 -0.81504903285 0.54861764708 
0.042948226605 -0.84961069268 0.52490200177 -0.058353085152 -0.86484001874 0.48639431942 -0.15930989715 -0.87961598731 0.44765921611 
-0.24694605185 -0.87686213253 0.40013050259 -0.33428800764 -0.87389847201 0.35255664184 -0.40441932718 -0.85866117586 0.30234166769 
-0.47396130791 -0.84355192421 0.2525486681 -0.47396130791 -0.84355192421 0.2525486681 -0.47396130791 -0.84355192421 0.2525486681 

FrenetNormal 3 240 double
-0.49092882223 -0.086100934078 0.86693455385 -0.49092882223 -0.086100934078 0.86693455385 -0.49092882223 -0.086100934078 0.86693455385 
-0.41123745871 0.01511211978 0.90134590088 -0.33087074465 0.11718291138 0.9360488695 -0.26531585831 0.20278450295 0.93640266184 
-0.20001416561 0.28810456974 0.93616928877 -0.17019191055 0.36318237857 0.91216305533 -0.14128722714 0.43799530143 0.88754200652 
-0.18193368443 0.54017493786 0.81006009194 -0.22499931183 0.64330645998 0.73073953855 -0.38998816736 0.72261696024 0.29979302245 
-0.5603245329 0.80088267884 -0.146575685 -0.50142618673 0.57771345146 -0.48839752847 -0.43035608595 0.33853882873 -0.82466821103 
-0.35148204839 0.26205483918 -0.89137372426 -0.27212026478 0.19573901419 -0.94123141441 -0.19394542345 0.19471347545 -0.9581892265 
-0.11585612751 0.19839354291 -0.97277587621 -0.026417681709 0.22434433651 -0.96953274051 0.063949330903 0.25211728043 -0.9648308042 
0.15554190802 0.28194809046 -0.94147015764 0.24724692224 0.31196769554 -0.9163977028 0.32563485406 0.32982969258 -0.88187989191 
0.40266641638 0.34645341472 -0.84640005402 0.46549822411 0.33724048547 -0.81532878126 0.526737536 0.32512998785 -0.78475192701 
0.58841072887 0.24940524897 -0.76180622575 0.65013713356 0.16587876352 -0.73979642061 0.69455084443 -0.04317278593 -0.6773047432 
0.73665619612 -0.26896101058 -0.60941548281 0.71043925394 -0.4530145199 -0.49184637268 0.67436813476 -0.63104859912 -0.36711189961 
0.66522128732 -0.68219733804 -0.2950372104 0.66025685102 -0.71363573284 -0.23114268179 0.68836436713 -0.69820089735 -0.18843181756 
0.7219838753 -0.6749538568 -0.14925156406 0.76764600765 -0.62720369867 -0.098015382516 0.81545435026 -0.57508664829 -0.044630619734 
0.85833587341 -0.49778104812 0.030641150683 0.90028130087 -0.41568962348 0.11007145255 0.91870616697 -0.31208364038 0.19787523771 
0.93237940451 -0.20413128184 0.28737063566 0.92050915384 -0.094634040383 0.35702836839 0.90316529855 0.015194247417 0.42243517285 
0.87950883878 0.11235791775 0.45182076367 0.85442065427 0.20664920061 0.47303659468 0.83725968351 0.3002662292 0.44572896447 
0.82199794104 0.3937217177 0.40679592168 0.75121314691 0.54438499576 0.17686683835 0.66640147657 0.70950076801 -0.10131387626 
0.1330412574 0.43491684761 -0.39116666549 -0.51961378858 0.043391519587 -0.68412372988 -0.72193274712 -0.16575799262 -0.63328084944 
-0.79835129411 -0.3239207176 -0.48632185539 -0.82598278553 -0.41854975172 -0.34273183764 -0.83929633673 -0.49453302875 -0.2001305412 
-0.82413230338 -0.54143650198 -0.046079324664 -0.80020593633 -0.57939234327 0.11149494421 -0.75460089553 -0.57984479461 0.26439608928 
-0.7020105043 -0.5682128203 0.41579145001 -0.64271295265 -0.51333759129 0.54805345908 -0.5811545604 -0.44388598428 0.67386602376 
-0.51968866369 -0.3283671872 0.77140905746 -0.45825535065 -0.19662017544 0.85899350639 -0.39043556194 -0.030091950654 0.90080289947 
-0.32026672472 0.14922936398 0.9257754904 -0.24198010531 0.32007849965 0.89691741669 -0.16057852296 0.48767668293 0.84740339026 
-0.083019950001 0.61249125254 0.77132987771 -0.0069985808053 0.72019237668 0.6846325707 0.051648242588 0.79139110477 0.59925300753 
0.1030556719 0.84738050116 0.51442250429 0.12238533014 0.88688301265 0.43914732211 0.12780173828 0.91923458611 0.36801661655 
0.073665008256 0.94535490317 0.30089935062 -0.0073432597177 0.96866355576 0.23559302697 -0.15946775017 0.95457274986 0.15920797271 
-0.34495540673 0.92293651901 0.077625489276 -0.50235136391 0.84379457529 -0.01089197367 -0.64605261766 0.74149359656 -0.10279023913 
-0.71724047351 0.65842130895 -0.1958516388 -0.75171268485 0.58508506746 -0.28950196719 -0.74206982788 0.53477820165 -0.38941970553 
-0.70923828116 0.49657652048 -0.49263185167 -0.64778576045 0.4720068477 -0.58732508411 -0.57072179939 0.45487281585 -0.67737163635 
-0.47499025608 0.46523802937 -0.7387067159 -0.36869679125 0.49116202646 -0.78379714641 -0.20980767797 0.57841981198 -0.75682348289 
-0.020062450944 0.7016600867 -0.68757221752 0.22114039043 0.76388697492 -0.4388784256 0.4936350243 0.78901112811 -0.081064178358 
0.641963335 0.70592868887 0.17901722978 0.71204985301 0.55466127359 0.37751356123 0.75742867532 0.42820467605 0.48013750462 
0.78667886292 0.31794402898 0.52017808357 0.81492106402 0.2150586575 0.5299474516 0.84248180944 0.11715938784 0.51925177562 
0.86353721621 0.018042611022 0.49435607626 0.88003888592 -0.081926420806 0.45952036055 0.88489127126 -0.18165145003 0.41692292027 
0.88130214621 -0.28119966578 0.36870104192 0.86367299372 -0.37767137592 0.31822411239 0.83551382067 -0.47183570685 0.26605589449 
0.79581574149 -0.55821226659 0.21365499973 0.74716209338 -0.63854458602 0.16107351995 0.69178251837 -0.70814723297 0.10828766043 
0.63100182023 -0.76913362779 0.055337677775 0.56968213281 -0.81772507517 0.00032789190978 0.50791466967 -0.85601918161 -0.056393115086 
0.45059622233 -0.8816974843 -0.11750013763 0.39710114794 -0.89653408066 -0.18237639229 0.34918027826 -0.89893489783 -0.25297985602 