# vtk DataFile Version 5.1
vtk output
ASCII
DATASET POLYDATA
POINTS 240 float
0 0 0 -0.299753 -0.134335 -0.102647 -0.599506 -0.26867 -0.205293 
-0.851507 -0.442915 -0.227189 -1.1031 -0.617498 -0.248401 -1.31611 -0.821794 -0.206454 
-1.52846 -1.0266 -0.163427 -1.71126 -1.25112 -0.0746196 -1.89329 -1.47614 0.0153715 
-2.05458 -1.7112 0.133923 -2.21516 -1.9466 0.253468 -2.36342 -2.18295 0.384599 
-2.51114 -2.41933 0.516239 -2.6542 -2.64872 0.64313 -2.79701 -2.87774 0.769768 
-2.9415 -3.09363 0.876738 -3.08609 -3.30871 0.982479 -3.23678 -3.5071 1.05622 
-3.38792 -3.70429 1.12766 -3.54714 -3.88429 1.15864 -3.70703 -4.06289 1.18631 
-3.87425 -4.22693 1.17009 -4.04214 -4.38965 1.14985 -4.21374 -4.54315 1.08789 
-4.38573 -4.69572 1.02168 -4.55527 -4.84601 0.920974 -4.72454 -4.99604 0.816395 
-4.88328 -5.15085 0.687939 -5.04073 -5.30624 0.556555 -5.17849 -5.47212 0.412977 
-5.31362 -5.6394 0.267775 -5.42001 -5.82047 0.120602 -5.52225 -6.00353 -0.0268553 
-5.58805 -6.20098 -0.169414 -5.6482 -6.40067 -0.311211 -5.66683 -6.61302 -0.445531 
-5.67854 -6.82748 -0.578604 -5.64725 -7.05155 -0.705653 -5.6083 -7.27734 -0.831628 
-5.52895 -7.50947 -0.95593 -5.44193 -7.74282 -1.07991 -5.32114 -7.97988 -1.20784 
-5.19353 -8.2177 -1.33656 -5.04198 -8.45751 -1.47426 -4.88531 -8.69776 -1.61388 
-4.71648 -8.93895 -1.76527 -4.54489 -9.18036 -1.91933 -4.37339 -9.42169 -2.08447 
-4.20192 -9.66298 -2.25226 -4.04176 -9.90233 -2.42638 -3.88446 -10.1412 -2.6021 
-3.74739 -10.3748 -2.77542 -3.61571 -10.6069 -2.94811 -3.50991 -10.8286 -3.10672 
-3.41136 -11.0474 -3.26139 -3.34062 -11.249 -3.38905 -3.27804 -11.4455 -3.50879 
-3.24141 -11.6173 -3.58958 -3.21276 -11.7815 -3.65838 -3.20495 -11.9137 -3.67957 
-3.20385 -12.0356 -3.68542 -3.21624 -12.1199 -3.63995 -3.23318 -12.1915 -3.57719 
-3.25539 -12.2225 -3.46471 -3.27945 -12.2391 -3.33472 -3.301 -12.2151 -3.16165 
-3.32162 -12.1761 -2.97273 -3.33352 -12.1001 -2.75094 -3.34208 -12.0099 -2.51653 
-3.33803 -11.889 -2.26085 -3.32893 -11.7559 -1.99665 -3.30596 -11.6007 -1.72205 
-3.2772 -11.4363 -1.44311 -3.2357 -11.2595 -1.1624 -3.18868 -11.0774 -0.880907 
-3.13195 -10.8929 -0.603268 -3.07084 -10.7074 -0.327367 -3.00426 -10.529 -0.0579488 
-2.93512 -10.3538 0.208427 -2.86534 -10.194 0.468047 -2.79524 -10.0416 0.724373 
-2.72932 -9.91072 0.975084 -2.6655 -9.7908 1.22295 -2.61013 -9.69672 1.46681 
-2.55921 -9.61623 1.70855 -2.51997 -9.56371 1.9475 -2.48709 -9.52647 2.18492 
-2.46751 -9.51765 2.4199 -2.45546 -9.52493 2.65349 -2.45615 -9.55985 2.88384 
-2.46432 -9.61099 3.11229 -2.48235 -9.68828 3.33571 -2.50639 -9.78146 3.55608 
-2.53548 -9.89886 3.76903 -2.56777 -10.0315 3.97731 -2.59932 -10.1862 4.17574 
-2.63038 -10.3551 4.36774 -2.65512 -10.5434 4.54797 -2.67557 -10.7447 4.72024 
-2.68545 -10.962 4.87985 -2.68793 -11.1907 5.03058 -2.6777 -11.432 5.16898 
-2.65825 -11.6824 5.29843 -2.62629 -11.9421 5.41711 -2.58493 -12.2086 5.52772 
-2.53327 -12.4811 5.63007 -2.47361 -12.7581 5.726 -2.40722 -13.0383 5.81665 
-2.33544 -13.321 5.90306 -2.26104 -13.6048 5.98707 -2.18446 -13.8896 6.06909 
-2.10906 -14.1743 6.15101 -2.03468 -14.459 6.23284 -1.9644 -14.743 6.31595 
-1.89777 -15.0264 6.40018 -1.83703 -15.3095 6.48603 -1.7817 -15.5921 6.57337 
-1.73292 -15.8748 6.66182 -1.69036 -16.1577 6.75133 -1.6541 -16.4415 6.84089 
-1.62401 -16.7263 6.93051 -1.59933 -17.0128 7.01902 -1.58015 -17.301 7.10641 
-1.56512 -17.5913 7.19185 -1.55444 -17.884 7.27524 -1.54644 -18.1788 7.35652 
-1.54134 -18.476 7.4355 -1.53727 -18.7746 7.51304 -1.53436 -19.0747 7.58896 
-1.53069 -19.3749 7.66494 -1.52612 -19.6751 7.74098 -1.51882 -19.9733 7.81921 
-1.50823 -20.2689 7.90006 -1.49279 -20.56 7.98543 -1.4713 -20.8453 8.07643 
-1.44281 -21.1234 8.17408 -1.40531 -21.3921 8.28029 -1.35881 -21.6511 8.39456 
-1.30033 -21.897 8.5196 -1.23127 -22.1312 8.65312 -1.14762 -22.3493 8.79835 
-1.05243 -22.5545 8.95136 -0.940764 -22.7414 9.11548 -0.81738 -22.9151 9.28569 
-0.676663 -23.0693 9.46493 -0.524848 -23.2109 9.64805 -0.35603 -23.3332 9.83712 
-0.17748 -23.4439 10.0278 0.0165155 -23.5364 10.221 0.218284 -23.6189 10.414 
0.432835 -23.685 10.6067 0.652823 -23.7429 10.7982 0.882077 -23.7868 10.9876 
1.11432 -23.8243 11.1756 1.35186 -23.8505 11.3612 1.59016 -23.8719 11.5459 
1.82983 -23.8846 11.7291 2.06852 -23.894 11.9121 2.30536 -23.8971 12.0951 
2.54021 -23.8979 12.2787 2.77115 -23.8942 12.4637 2.99988 -23.8889 12.6499 
3.2241 -23.8804 12.8383 3.44656 -23.8707 13.0278 3.66528 -23.8583 13.2195 
3.88313 -23.8449 13.4118 4.09901 -23.8289 13.6055 4.31498 -23.8118 13.7992 
4.53113 -23.792 13.993 4.74818 -23.771 14.1862 4.96734 -23.7469 14.3782 
5.18786 -23.7214 14.5693 5.41177 -23.6925 14.758 5.63717 -23.6621 14.9456 
5.86645 -23.628 15.1303 6.09707 -23.5922 15.3137 6.33133 -23.5524 15.4941 
6.56661 -23.5109 15.6733 6.80479 -23.465 15.8494 7.0436 -23.4174 16.0246 
7.28428 -23.3647 16.1967 7.52518 -23.3102 16.3681 7.76676 -23.25 16.5368 
8.00819 -23.188 16.7049 8.24912 -23.1196 16.8709 8.48959 -23.0492 17.0366 
8.72849 -22.9719 17.201 8.96675 -22.8926 17.3653 9.2027 -22.806 17.5291 
9.43799 -22.7176 17.693 9.67077 -22.6221 17.8571 9.90301 -22.525 18.0214 
10.1332 -22.422 18.1862 10.3631 -22.318 18.3513 10.5921 -22.2099 18.5169 
10.8213 -22.1015 18.6825 11.051 -21.9921 18.8483 11.2812 -21.8833 19.014 
11.5138 -21.7774 19.1791 11.747 -21.6731 19.344 11.9836 -21.5764 19.5079 
12.2209 -21.4821 19.6715 12.4618 -21.4004 19.834 12.7032 -21.3218 19.9963 
12.9471 -21.2608 20.1578 13.191 -21.2035 20.3193 13.4349 -21.1682 20.4809 
13.6782 -21.137 20.6427 13.9177 -21.1318 20.8057 14.1561 -21.1307 20.9691 
14.3863 -21.1587 21.1349 14.6148 -21.1908 21.301 14.8311 -21.2542 21.47 
15.0454 -21.3215 21.6393 15.2441 -21.421 21.8111 15.4408 -21.5242 21.983 
15.62 -21.6594 22.1562 15.7973 -21.7978 22.3295 15.9562 -21.9664 22.5024 
16.1135 -22.1375 22.6751 16.2525 -22.3352 22.8463 16.3901 -22.5346 23.0173 
16.5094 -22.7552 23.1862 16.6274 -22.9768 23.3551 16.7264 -23.2123 23.5228 
16.824 -23.4481 23.6907 16.9004 -23.6894 23.8596 16.9756 -23.9305 24.0289 
17.0257 -24.1677 24.2028 17.0745 -24.4043 24.3772 17.0932 -24.6272 24.5606 
17.1106 -24.8492 24.7444 17.0916 -25.0476 24.9421 17.0714 -25.245 25.1403 
17.0082 -25.4088 25.3574 16.9441 -25.5718 25.5749 16.8298 -25.691 25.8163 
16.7149 -25.8097 26.058 16.5427 -25.8743 26.3289 16.3704 -25.939 26.5998 

LINES 2 240
OFFSETS vtktypeint64
0 240 
CONNECTIVITY vtktypeint64
0 1 2 3 4 5 6 7 8 
9 10 11 12 13 14 15 16 17 
18 19 20 21 22 23 24 25 26 
27 28 29 30 31 32 33 34 35 
36 37 38 39 40 41 42 43 44 
45 46 47 48 49 50 51 52 53 
54 55 56 57 58 59 60 61 62 
63 64 65 66 67 68 69 70 71 
72 73 74 75 76 77 78 79 80 
81 82 83 84 85 86 87 88 89 
90 91 92 93 94 95 96 97 98 
99 100 101 102 103 104 105 106 107 
108 109 110 111 112 113 114 115 116 
117 118 119 120 121 122 123 124 125 
126 127 128 129 130 131 132 133 134 
135 136 137 138 139 140 141 142 143 
144 145 146 147 148 149 150 151 152 
153 154 155 156 157 158 159 160 161 
162 163 164 165 166 167 168 169 170 
171 172 173 174 175 176 177 178 179 
180 181 182 183 184 185 186 187 188 
189 190 191 192 193 194 195 196 197 
198 199 200 201 202 203 204 205 206 
207 208 209 210 211 212 213 214 215 
216 217 218 219 220 221 222 223 224 
225 226 227 228 229 230 231 232 233 
234 235 236 237 238 239 
CELL_DATA 1
FIELD FieldData 3
Length 1 1 double
67.978894654 
Tortuosity 1 1 double
0.67435141669 
ClusterLabel 1 1 int
3 
POINT_DATA 240
FIELD FieldData 6
Curvature 1 240 double
0 0.22955351857 0.45910703715 0.45389779471 0.44669903735 0.38930967638 0.33106235636 0.26674481058 0.2022702762 
0.14827109596 0.094636275868 0.050387323895 0.0065500328057 0.051341029579 0.10083795314 0.16149816702 0.22285608655 0.2903555386 
0.35829762362 0.40358820891 0.44702548968 0.43719823532 0.42248432635 0.37218217108 0.31825528703 0.27272736719 0.22814138728 
0.21957451665 0.21542508395 0.2408649505 0.27025005695 0.30821139218 0.3474096835 0.37552458926 0.40191780407 0.40037071426 
0.39416690701 0.36023703565 0.32136588554 0.2723558533 0.22141943346 0.17636055773 0.13248906464 0.10148716058 0.073243025594 
0.062026867989 0.054672725872 0.059477054626 0.06719435036 0.078289134323 0.09023717847 0.1068489161 0.12470099774 0.15910457738 
0.19813545752 0.2941257877 0.4068324782 0.75655196622 1.1791984688 2.331444845 3.7187845137 3.8266505314 3.503233296 
2.5444757276 1.3619050875 0.81041344759 0.49104281931 0.33550235903 0.24282696321 0.18941776404 0.15171504352 0.12580277195 
0.10480318742 0.087721648309 0.072339502382 0.061554772309 0.052844485976 0.058326151227 0.070465769073 0.096958771501 0.13044904891 
0.17393666189 0.22248621693 0.27482751089 0.32916189838 0.37472861381 0.41551296265 0.43527229888 0.44313590429 0.43267024735 
0.41145142318 0.38538903976 0.35638124869 0.33240889131 0.31160954692 0.29670981951 0.28566123097 0.27596947805 0.26719502244 
0.25548140968 0.24171038692 0.22353006756 0.20215460575 0.17800675264 0.15177960606 0.12497462586 0.097721177776 0.071645312859 
0.046515082913 0.028589248038 0.016648602912 0.019508800657 0.035088472743 0.047860820006 0.058137767426 0.065181232726 0.069251980592 
0.070890677431 0.070216932309 0.068234286885 0.064964556162 0.061129094473 0.056718313158 0.05136273971 0.045013505572 0.037164480259 
0.027684103142 0.019376719987 0.01238895504 0.016807156307 0.034497754624 0.054903538772 0.07857760216 0.10442926903 0.13299266853 
0.16299877539 0.1948637552 0.22551031939 0.25453232943 0.27887739886 0.29676829025 0.30755158068 0.30818115544 0.30277390331 
0.28843717806 0.27127037898 0.24976814766 0.2278354173 0.20521950368 0.18302429927 0.16152092778 0.1407659258 0.12128655369 
0.10285672142 0.086281889778 0.071667576936 0.060647548557 0.052570729922 0.05009318836 0.048413747735 0.048310556462 0.047274535226 
0.044325016633 0.040211597151 0.033617231035 0.028065473749 0.024824363062 0.023905174516 0.028339306464 0.033005250159 0.038227542046 
0.042719567416 0.045385926494 0.047393383193 0.047683700363 0.047618936061 0.046588794005 0.045731160826 0.045363230261 0.045156846624 
0.045429718876 0.045886444028 0.046913747148 0.048127162877 0.049945444588 0.051639598518 0.052910798529 0.053759418263 0.053096500856 
0.051641949415 0.047210854007 0.042076015887 0.034155529528 0.025633497269 0.014600664734 0.0073465319359 0.016753029798 0.027113846002 
0.041928147801 0.056812189382 0.072041442882 0.087179229877 0.10183561422 0.11653323821 0.13146226245 0.14644544444 0.1617535729 
0.17717026144 0.19328580546 0.20921673285 0.22386765162 0.23786591412 0.24696925461 0.25509174866 0.25521657171 0.25434176092 
0.24455354827 0.23410138077 0.21713038376 0.20006412982 0.18195957525 0.16409657638 0.1491859249 0.13492439787 0.12966947269 
0.12532163749 0.13548724189 0.14653196841 0.17413349503 0.20237062763 0.24509957664 0.28798463865 0.33535794959 0.38225372149 
0.41068465075 0.43837400388 0.42268115408 0.40541674525 0.20270837263 0 
Torsion 1 240 double
0 0 0 0.0038282124714 0.0076888674214 0.0096200448621 0.011518239781 0.012003534752 0.012452289207 
-0.0068122365581 -0.026762441635 -14.48510726 -29.576715 -15.978013823 -0.85593341078 0.063067160734 0.094375242222 0.11297719187 
0.13066338426 0.1570182234 0.18408231545 0.24259638059 0.30399576436 0.44071902088 0.58511415332 0.80392757394 1.0310869708 
0.99726976869 0.93144600254 0.68825961017 0.42142486763 0.25320235054 0.099202750584 0.013267870476 -0.062093849267 -0.11118502788 
-0.15589778298 -0.19784215475 -0.23929315128 -0.29733047848 -0.3585192085 -0.47526347786 -0.6032310885 -0.87330468095 -1.1738295552 
-1.2900256418 -1.3644151992 -1.142170694 -0.84885761134 -0.72298075638 -0.63940358001 -0.64933923717 -0.68414532879 -0.7550642746 
-0.83607928717 -0.91881186566 -1.0020485124 -0.95112015289 -0.858910253 -0.66118073569 -0.42945045276 -0.37991992176 -0.39180503747 
-0.5058761379 -0.65594457385 -0.64330737335 -0.57082442151 -0.47726832013 -0.3756260102 -0.32039202292 -0.28372136469 -0.29335097826 
-0.32227237175 -0.44799217249 -0.61569682457 -0.95703191174 -1.3767124391 -1.3327968855 -1.0713918122 -0.79665968586 -0.51543062107 
-0.35456324544 -0.25463849723 -0.18701673048 -0.13637473603 -0.089989308291 -0.045925644213 0.0046478775383 0.058904608236 0.12450409037 
0.19675798667 0.27111248263 0.34674437028 0.39714580936 0.43164860961 0.4300500677 0.40488537188 0.36474003249 0.31446693408 
0.26748120407 0.22279663194 0.18609419398 0.15517591121 0.12859143602 0.10525731654 0.077409635399 0.046058891491 -0.059885084339 
-0.2257296858 -1.0953937804 -2.5497694538 -2.3638910952 -0.76841942785 0.02602278839 0.10843882587 0.17378426257 0.22343575984 
0.27106712509 0.31677770907 0.35397076971 0.38278826573 0.3954052067 0.39154700693 0.38309449636 0.36981003822 0.42950903074 
0.568593531 1.5146428084 3.3685274601 3.4159326488 1.3612526441 0.19684379 0.10405761728 0.038636500652 0.0072926236739 
-0.018740577512 -0.037931177198 -0.055030508637 -0.069341482416 -0.082747761824 -0.094905562998 -0.10641397714 -0.11699469551 -0.12583403479 
-0.13209758415 -0.13430815822 -0.13030991909 -0.11971804218 -0.098662348776 -0.069434613853 -0.026768410645 0.029036555065 0.10723713868 
0.20905725716 0.35262353028 0.51035382444 0.69405149046 0.79216558549 0.72746215522 0.61668930105 0.41492933466 0.21559765874 
0.021247091487 -0.21839273556 -0.55457019534 -0.89360854003 -1.2389872243 -1.346957605 -0.90756995262 -0.53377115429 -0.31738560566 
-0.13751367071 -0.048925769986 0.029264287668 0.080356936099 0.13167712557 0.18361594224 0.23253800673 0.27289638758 0.30636701619 
0.31940397983 0.3297952349 0.33197567031 0.32639270229 0.29557867315 0.26216639461 0.21990082182 0.17942715152 0.14536297861 
0.11039304025 0.072017423842 0.025379176673 -0.053965317263 -0.56164973413 -2.8571877424 -4.3307236912 -2.1799778328 -0.38889069637 
-0.2762109289 -0.18208450714 -0.17979714662 -0.17930028812 -0.18822712449 -0.19633552045 -0.19985155628 -0.20154142356 -0.19227427954 
-0.18114907256 -0.15806258529 -0.13447724421 -0.1074331834 -0.080491347751 -0.054316200818 -0.029114058779 -0.011845648954 0.0038203149363 
0.0051978025699 0.0044897888233 -0.016694056656 -0.041093042565 -0.10053705917 -0.16368625089 -0.27212091622 -0.38022742931 -0.48378082993 
-0.57950810477 -0.55001736724 -0.51688894373 -0.41525076759 -0.31494404071 -0.24499435706 -0.17614710187 -0.13899466496 -0.10231824822 
-0.08404794443 -0.065531694492 -0.032627594726 0 0 0 
FrenetTangent 3 240 double
-0.85611062628 -0.4796738759 -0.19232152338 -0.85611062628 -0.4796738759 -0.19232152338 -0.85611062628 -0.4796738759 -0.19232152338 
-0.81537966522 -0.55518366394 -0.07940812385 -0.77430352652 -0.63133336544 0.034462168894 -0.71757726808 -0.67460959396 0.12740284853 
-0.66058348622 -0.71732388277 0.21998575701 -0.61139204083 -0.7354912245 0.28087239625 -0.56240238 -0.75302373139 0.34093930438 
-0.53135078655 -0.7589067072 0.37381514657 -0.50092312587 -0.76438448194 0.40574521255 -0.48985051686 -0.76598663605 0.41607113907 
-0.47962681364 -0.7674188068 0.42544951561 -0.48777637113 -0.76802874575 0.41470682971 -0.49690149999 -0.76859502638 0.40289576882 
-0.52220218874 -0.76792734276 0.36822182658 -0.54851384997 -0.76718253637 0.33211895427 -0.58490550383 -0.76147242546 0.26904366042 
-0.62202364364 -0.75540445476 0.20402440826 -0.65601316153 -0.73939990304 0.11468702825 -0.68974670125 -0.72258235832 0.023359983236 
-0.70541045568 -0.6971745193 -0.075075209211 -0.71941643165 -0.67097857988 -0.17416252528 -0.71166894141 -0.64721461203 -0.2589444381 
-0.70170582036 -0.62369834498 -0.34226931912 -0.67625649176 -0.6135684678 -0.40258516533 -0.64907039221 -0.60493986798 -0.46032055904 
-0.61104074383 -0.61347852837 -0.49742177526 -0.57168122625 -0.62412260746 -0.5319923848 -0.52061268812 -0.64976862237 -0.55044313276 
-0.46798294726 -0.67741489539 -0.56674456584 -0.40010876107 -0.71344143773 -0.56979832115 -0.33003585679 -0.75067667275 -0.57094135369 
-0.2441020262 -0.78538996932 -0.5608413432 -0.15570436239 -0.81971150845 -0.54899484058 -0.059286062562 -0.83999065582 -0.52985327825 
0.03846900994 -0.85792940456 -0.50949587263 0.12975303892 -0.85776630497 -0.48884809007 0.21988381262 -0.85437713339 -0.46814855716 
0.29212930616 -0.83876155257 -0.45387651576 0.36097659646 -0.82082295401 -0.44082569776 0.40891607106 -0.79971236219 -0.43693271049 
0.4526317445 -0.77796096366 -0.43488979003 0.4778125333 -0.75929568524 -0.44085424764 0.49902156111 -0.74129171828 -0.44853457196 
0.50539552496 -0.72912118595 -0.46114119307 0.50840483512 -0.71827370065 -0.47486511861 0.49996637642 -0.71391548741 -0.48989910243 
0.48878522309 -0.71111199561 -0.50524695438 0.46897427002 -0.71471370643 -0.51827071297 0.44698315701 -0.71993357372 -0.53070733219 
0.41857416126 -0.73160214082 -0.53710936238 0.38845828181 -0.74498578766 -0.54190644869 0.35312029578 -0.76575638744 -0.53576460444 
0.31632236598 -0.78859215686 -0.52656456455 0.27360596166 -0.82111194517 -0.49657814588 0.22915261372 -0.85647378251 -0.46049137691 
0.17354330763 -0.90208496892 -0.37556002407 0.11450139904 -0.95084980119 -0.2755995685 0.03293566067 -0.9603596434 -0.050711302038 
-0.055887756181 -0.95722065546 0.21443148127 -0.11984037151 -0.75247625903 0.50895281417 -0.1754095706 -0.47977498332 0.81337702895 
-0.17093678074 -0.23272620791 0.92775771627 -0.14531283569 0.0052858912694 0.97519125187 -0.1119809302 0.15009086667 0.97572731576 
-0.075813912833 0.26061276207 0.95901373487 -0.041758841236 0.33354467833 0.93935890338 -0.0085141674348 0.39205253284 0.91857545248 
0.02233281941 0.4339252805 0.89939999435 0.052220731471 0.46914398541 0.88086773334 0.079725284077 0.49460479555 0.86471470959 
0.10623677024 0.51599981621 0.84955303471 0.13009424802 0.52978639085 0.83769355438 0.15280058963 0.54027291663 0.82726635122 
0.17230109712 0.54335511283 0.82144288371 0.1903550697 0.54309633105 0.81769671156 0.20427341356 0.53452636604 0.81991524658 
0.21625158591 0.52205732743 0.82493203928 0.22264551893 0.49949723636 0.83668278549 0.22631713527 0.47201775721 0.85171633403 
0.22239645608 0.43218473741 0.87252708492 0.21463157662 0.38609676033 0.89626300157 0.19742650736 0.32617314171 0.92172515036 
0.17525928706 0.25897694228 0.94809467758 0.1440231769 0.17983370588 0.96902840455 0.10784039954 0.094173903838 0.98699714956 
0.067283366611 0.0032324957079 0.99303776917 0.024251425921 -0.090697189553 0.99232958099 -0.015660595407 -0.18190974852 0.97879662622 
-0.053742264043 -0.27152826006 0.9577398084 -0.082796316008 -0.35421661636 0.9277983194 -0.10636060108 -0.43269068908 0.89245398984 
-0.11850262747 -0.50397206926 0.85237861375 -0.12344706619 -0.57072106783 0.80932203025 -0.1173566649 -0.63090823657 0.76387305896 
-0.10406296528 -0.68681198862 0.71686239007 -0.082037161759 -0.7359188013 0.66885861411 -0.054107964052 -0.78043050004 0.62018344182 
-0.021178886259 -0.8175215635 0.57215419069 0.015250107595 -0.84941818227 0.52457708438 0.05235427185 -0.87409643932 0.47981048422 
0.089947690019 -0.89354399946 0.43708048272 0.1245820759 -0.90731778648 0.39919007492 0.15699718755 -0.91683624366 0.36492936239 
0.18426908244 -0.92295033306 0.33659847948 0.20754922701 -0.92642222658 0.31286985239 0.22487384424 -0.92850399405 0.29503579449 
0.23741599255 -0.92946944816 0.28193525426 0.24413572161 -0.93027460087 0.27380828634 0.24601836391 -0.9309465801 0.26981320927 
0.24283746148 -0.93191109542 0.26929685692 0.2353050753 -0.93312700894 0.27177003363 0.22389874438 -0.9346463092 0.27587372834 
0.20904890704 -0.93643528658 0.28142677239 0.19183510927 -0.93842270051 0.28678633013 0.17244799304 -0.94059254805 0.2919680053 
0.15231366343 -0.94291987647 0.29556963982 0.13146886864 -0.9453969408 0.29766894059 0.11127813773 -0.94803466971 0.29756988864 
0.091730569624 -0.95083038545 0.29530912318 0.07382120929 -0.95371862869 0.29109771878 0.057577822958 -0.95670096769 0.28490261376 
0.04355518311 -0.95958509905 0.27774618335 0.031868155943 -0.96236594307 0.26957870383 0.02272634832 -0.96478902107 0.26190765076 
0.016353025114 -0.96682295008 0.25477657034 0.012764781468 -0.96824125384 0.24967917726 0.012309752327 -0.96896697919 0.24686968245 
0.014947378562 -0.96875642918 0.24747440307 0.02118373105 -0.96745639513 0.25205202893 0.030980873562 -0.96467606953 0.2610392745 
0.045064152211 -0.96011391152 0.27533439567 0.063283095095 -0.95310722721 0.29443703939 0.086652110421 -0.94305641581 0.31952640933 
0.11458259117 -0.92909547241 0.34896492359 0.14839034468 -0.91009647434 0.38400714306 0.18652295345 -0.88560446759 0.42164047003 
0.23042203589 -0.85378844928 0.46272860702 0.27721979111 -0.81581754825 0.50335041084 0.32801771479 -0.76935290907 0.5433286749 
0.37932170482 -0.71800633832 0.57959941058 0.43134864678 -0.65968557961 0.61057367715 0.48155880886 -0.59945520457 0.63602290172 
0.52908165072 -0.53640018871 0.65329966831 0.57350382993 -0.47446105163 0.66532350586 0.61317605785 -0.4142313459 0.66930030318 
0.64947218386 -0.35693819626 0.66964600576 0.68041058291 -0.30430523348 0.66422931888 0.70814999149 -0.25521371044 0.65716437479 
0.73062883797 -0.21194588829 0.6473889633 0.75022761581 -0.17209008945 0.63769540404 0.76491718575 -0.13805023941 0.62814136565 
0.77706444897 -0.10696069081 0.61990003463 0.78471833286 -0.081085628452 0.61397883756 0.79020919619 -0.057645412976 0.60994629538 
0.79173452178 -0.038669083447 0.60937628715 0.79157324319 -0.021543185827 0.61059222213 0.78820330296 -0.0079376220836 0.61520580515 
0.78378291956 0.0043823435298 0.6209286911 0.7772879109 0.014163252837 0.62884245032 0.77054595071 0.023170560097 0.63688675445 
0.76329742326 0.030590991362 0.64519884303 0.75660595089 0.037703700641 0.65273907226 0.7511018854 0.044160476214 0.65863402237 
0.74665505826 0.050601439893 0.66326462254 0.7445512999 0.057007360996 0.66509314988 0.74356871979 0.063552012584 0.66561086306 
0.74517107842 0.070416515012 0.66310642141 0.74762909173 0.077474676969 0.65953826776 0.75214067628 0.084997621792 0.65341720534 
0.75707116833 0.092709334318 0.64665543019 0.76304892914 0.1008929661 0.63829187323 0.76905076389 0.1092552566 0.62970532639 
0.77511533681 0.11808314252 0.62053765442 0.78095112997 0.12707342827 0.61145456642 0.78616492817 0.13650523855 0.60260144112 
0.79102027536 0.14617412432 0.59400027477 0.79485808419 0.15651599855 0.58611434676 0.79827258128 0.16718769577 0.57855666036 
0.80043125352 0.17883786786 0.57197275742 0.8021328201 0.1908176467 0.56576307833 0.80241578291 0.20382034301 0.56071478362 
0.80220692194 0.21713293499 0.55608085968 0.80039963366 0.23145268792 0.55279364071 0.79813765727 0.24597325412 0.54988458585 
0.7943263732 0.26117807295 0.54826409018 0.79019946174 0.27635300947 0.54691331263 0.78494357536 0.2914210593 0.54652729601 
0.77960628038 0.30611922935 0.546283898 0.77396288909 0.31942665147 0.54657674599 0.76854669016 0.33201880254 0.54686134092 
0.76402979435 0.3417796724 0.5471132675 0.76002613924 0.35053260318 0.54724642559 0.75816470618 0.35507848389 0.54688385438 
0.75699788279 0.35835713288 0.5463798437 0.75889365655 0.35604844203 0.54525221353 0.7614607237 0.35231711354 0.54406271879 
0.76716049329 0.34194680944 0.5425845227 0.77332829093 0.33009216032 0.54117080283 0.78181282739 0.31089000334 0.54007624022 
0.79042957828 0.29022116925 0.53919315654 0.79974219456 0.2618329819 0.53942311981 0.80877794857 0.23205912246 0.54001212602 
0.81626019758 0.19451010296 0.542615762 0.82306431058 0.15571145332 0.54565317991 0.82579960753 0.10941502285 0.55129328936 
0.82752397896 0.062049648006 0.5573050346 0.82274051735 0.0078029436936 0.56570918522 0.81674085975 -0.047257025217 0.57424418547 
0.80230891001 -0.10795562868 0.58368640989 0.78664269212 -0.16905831283 0.59291362704 0.7617194631 -0.23319160224 0.60052828975 
0.7358014067 -0.29721293637 0.6076122417 0.70177168091 -0.36032140447 0.61036885975 0.66718503712 -0.42282836212 0.61249398826 
0.62763254126 -0.47997185151 0.60898833493 0.58797538911 -0.53621212386 0.60502752913 0.54729070238 -0.58358444709 0.59659795367 
0.50676897013 -0.63001746064 0.58804133722 0.46802344174 -0.66621199869 0.57809997406 0.42946465624 -0.70159351629 0.56835892717 
0.39318828385 -0.72703811716 0.56106619013 0.35695489728 -0.75182689344 0.55420353964 0.32131793908 -0.76751610338 0.55330833986 
0.28550496047 -0.78264487523 0.55296489667 0.2468756553 -0.78880663771 0.56144955899 0.20786154905 -0.79439797507 0.57050242403 
0.16160035563 -0.78924630605 0.59025644009 0.11481673568 -0.7834164485 0.61047167179 0.056121790752 -0.76212389255 0.64120261988 
-0.0030623353521 -0.74002259264 0.67214139538 -0.076310420373 -0.69466990356 0.70905520897 -0.14978743109 -0.64855584288 0.74583190987 
-0.23211623551 -0.57300208025 0.77730691967 -0.31434042364 -0.49704525193 0.80845878345 -0.39044455855 -0.39750908041 0.82070660461 
-0.46590916291 -0.2988093473 0.8328515029 -0.46590916291 -0.2988093473 0.8328515029 -0.46590916291 -0.2988093473 0.8328515029 

FrenetNormal 3 240 double
0.16699605195 -0.6089525886 0.77542830969 0.16699605195 -0.6089525886 0.77542830969 0.16699605195 -0.6089525886 0.77542830969 
0.28267895241 -0.52785891884 0.78792842599 0.39934221644 -0.4460780146 0.80053447548 0.48256760868 -0.36454327567 0.78770096665 
0.56522141337 -0.2830127447 0.77443259357 0.61264047399 -0.22110523107 0.75458779159 0.65914829123 -0.15970520928 0.73457290955 
0.68279839661 -0.12409923996 0.71860585833 0.70565345113 -0.089390455081 0.70277960122 0.40201515381 -0.29223349422 -0.040005247979 
0.084056972624 -0.50549547301 -0.81467424596 -0.25960883695 -0.27408207869 -0.81918667353 -0.60463965334 -0.019057602607 -0.78280583187 
-0.59344391586 0.018396382684 -0.80325047938 -0.55998401876 0.0422522123 -0.82724671996 -0.49981583527 0.080560639889 -0.85863264826 
-0.43772273024 0.11991069616 -0.89055116666 -0.34831229142 0.16692719055 -0.91623584773 -0.25666679802 0.21457093897 -0.94141048757 
-0.14303550111 0.24709397856 -0.95082531077 -0.027387158007 0.27822979716 -0.95879427924 0.10864557172 0.26007683296 -0.9491215343 
0.24675448897 0.23690371495 -0.93765194818 0.41051024581 0.12228125777 -0.8768664092 0.57714228372 -0.0025972000741 -0.81055010915 
0.69492710133 -0.17137146061 -0.64229413182 0.80672122211 -0.34552916865 -0.46153611859 0.83896952499 -0.42148605577 -0.29559280184 
0.86061171883 -0.4843495001 -0.13162477795 0.87815933049 -0.46747408118 -0.03126840469 0.89511637741 -0.43909786467 0.059913211272 
0.9174653715 -0.36831047346 0.11645405884 0.94065194962 -0.29093493861 0.16761381617 0.9558829541 -0.19107384749 0.19595997856 
0.96978802964 -0.087465163658 0.22050387512 0.96917192986 0.021190782494 0.22002085107 0.96596789785 0.13074624074 0.21507758374 
0.94913043883 0.23486670299 0.17670213929 0.92970262868 0.33795451599 0.1319745812 0.8873698213 0.43461613055 0.034551651662 
0.84040974176 0.52997952319 -0.07351680746 0.70076048983 0.59887227451 -0.27318773804 0.54124927239 0.66209274556 -0.49248776965 
0.19101194211 0.55774240485 -0.67329064953 -0.20248285705 0.41538631303 -0.84536221663 -0.47074559923 0.21100024928 -0.7872868045 
-0.70900482774 -0.0082471619107 -0.67407201193 -0.81155491565 -0.15431610417 -0.52128861028 -0.87982058909 -0.28189785427 -0.35850892845 
-0.89080898603 -0.36981620957 -0.19031674418 -0.88656406476 -0.44718578965 -0.020685064588 -0.83742249628 -0.49207689797 0.1516227564 
-0.77572917697 -0.52788800344 0.32467874595 -0.68780688421 -0.51800402461 0.47805564971 -0.59218695795 -0.49470953191 0.62565716959 
-0.50310301553 -0.40583875899 0.74329233096 -0.41603014506 -0.29679066908 0.85170707433 -0.33824379832 -0.058524653995 0.89563948322 
-0.26344977589 0.2213782481 0.918794251 -0.15225364414 0.52170491785 0.73556023983 -0.028787138468 0.82891600367 0.48275697732 
0.085656132364 0.93262213753 0.24996721871 0.19692076365 0.96463902695 0.02422767169 0.29185385146 0.93993815312 -0.11097929205 
0.38077993477 0.89437557328 -0.21288691483 0.45624183985 0.83937519799 -0.27772005494 0.52653725794 0.78075334306 -0.32832694008 
0.58683493751 0.7194807192 -0.36166952131 0.64313352168 0.65714778778 -0.38810638098 0.69813985039 0.58716780285 -0.40018848169 
0.75260773933 0.51400154562 -0.40628943285 0.81914053894 0.40284016975 -0.38187211954 0.89090631186 0.27519898339 -0.34421796863 
0.92032874103 0.032159312355 -0.21389200696 0.9306450273 -0.26295040664 -0.041750716044 0.73824205645 -0.51793031225 0.15314180617 
0.45073622423 -0.75408388565 0.35870774553 0.22523141924 -0.84614597417 0.44488607642 0.029952115023 -0.86796346383 0.4728629482 
-0.099601625265 -0.87713999626 0.45978358111 -0.19587659901 -0.87991604403 0.42591624499 -0.2672494995 -0.88557323888 0.37060533356 
-0.32553284868 -0.89274488283 0.30402279922 -0.36739937395 -0.89870426406 0.2213858598 -0.40031126801 -0.90400241109 0.12999197215 
-0.41350024354 -0.90482528307 0.030962097126 -0.41553019938 -0.90311609152 -0.072388139174 -0.39278147621 -0.89774439057 -0.17312624825 
-0.35549592802 -0.89022401743 -0.27233190937 -0.29023697316 -0.87925512208 -0.36156143256 -0.20796716289 -0.86618915242 -0.4447243854 
-0.10421622853 -0.84298552851 -0.51287919024 0.013070756639 -0.81339379372 -0.57157680592 0.13085846417 -0.76817969768 -0.61435537084 
0.24897303213 -0.71276767137 -0.64674233318 0.35052746252 -0.64684522901 -0.66870397824 0.44088630694 -0.57381715327 -0.68361752148 
0.51175239788 -0.49892895841 -0.69393980228 0.56897356139 -0.42273868016 -0.70104819938 0.61190823122 -0.35064032719 -0.70553233454 
0.64449036939 -0.28150713746 -0.70811483062 0.66823036249 -0.22005739823 -0.70869988734 0.68533874679 -0.16437024689 -0.70778686455 
0.69617958347 -0.11889455753 -0.70712188643 0.70215605483 -0.08134418195 -0.70664942059 0.69283835702 -0.060360417378 -0.7180224242 
0.67123897789 -0.052680143467 -0.73890769873 0.21857116458 -0.10514663013 -0.54350181417 -0.5922150402 -0.2075811948 -0.16840788973 
-0.95355693344 -0.21772250507 0.10586521792 -0.92865762145 -0.14854929984 0.29349543614 -0.92314878149 -0.11300215183 0.36637415204 
-0.93487591668 -0.10734483247 0.33725153256 -0.94939215869 -0.10540984039 0.2901265732 -0.96647257956 -0.1068969879 0.22645107558 