# vtk DataFile Version 5.1
vtk output
ASCII
DATASET POLYDATA
POINTS 240 float
0 0 0 -0.147124 -0.16348 -0.202615 -0.294248 -0.32696 -0.40523 
-0.444475 -0.532265 -0.577365 -0.594728 -0.737924 -0.749242 -0.74569 -0.975279 -0.891438 
-0.896664 -1.21318 -1.03313 -1.046 -1.47272 -1.14612 -1.19528 -1.73283 -1.25836 
-1.34064 -2.00444 -1.34341 -1.48586 -2.27644 -1.42752 -1.62492 -2.54961 -1.48703 
-1.76371 -2.82282 -1.54546 -1.89421 -3.08672 -1.58356 -2.02427 -3.35013 -1.62058 
-2.14403 -3.59412 -1.64371 -2.26315 -3.8369 -1.66597 -2.37018 -4.05154 -1.68311 
-2.47633 -4.26415 -1.69988 -2.56907 -4.44268 -1.72204 -2.6607 -4.61842 -1.74464 
-2.7386 -4.75819 -1.78353 -2.81523 -4.89466 -1.82392 -2.87945 -4.99827 -1.89016 
-2.94239 -5.09854 -1.95902 -2.99631 -5.17385 -2.06015 -3.04921 -5.24636 -2.16488 
-3.09823 -5.30512 -2.30429 -3.14677 -5.36219 -2.44794 -3.19741 -5.41776 -2.62442 
-3.24833 -5.47314 -2.80528 -3.30673 -5.53793 -3.01367 -3.36622 -5.60409 -3.22604 
-3.43638 -5.68721 -3.45868 -3.5082 -5.77296 -3.69447 -3.59038 -5.87879 -3.94282 
-3.67429 -5.98798 -4.19327 -3.76434 -6.11609 -4.44938 -3.85548 -6.24757 -4.70649 
-3.94518 -6.39357 -4.96399 -4.0346 -6.54233 -5.22155 -4.11305 -6.69931 -5.47601 
-4.18928 -6.85795 -5.72985 -4.24496 -7.01801 -5.9788 -4.29623 -7.17837 -6.2267 
-4.31931 -7.33404 -6.4693 -4.33598 -7.48863 -6.7107 -4.32017 -7.63393 -6.94737 
-4.29657 -7.777 -7.1829 -4.24015 -7.90821 -7.41493 -4.17545 -8.03644 -7.64608 
-4.08138 -8.1526 -7.8753 -3.9795 -8.26556 -8.104 -3.85445 -8.36861 -8.33234 
-3.72293 -8.46888 -8.56058 -3.57567 -8.56339 -8.78958 -3.4238 -8.6562 -9.0188 
-3.26342 -8.74875 -9.24899 -3.10042 -8.8412 -9.47949 -2.93471 -8.93924 -9.70991 
-2.76812 -9.03906 -9.94031 -2.60255 -9.14949 -10.1679 -2.43732 -9.2635 -10.3946 
-2.27489 -9.39135 -10.6142 -2.11346 -9.52407 -10.8314 -1.95541 -9.67161 -11.0356 
-1.79862 -9.8246 -11.235 -1.64563 -9.99101 -11.4145 -1.4941 -10.1626 -11.5863 
-1.34765 -10.3442 -11.7305 -1.20323 -10.5299 -11.8637 -1.06659 -10.7208 -11.9626 
-0.933207 -10.914 -12.047 -0.811658 -11.1067 -12.0919 -0.695243 -11.2991 -12.1196 
-0.595435 -11.4849 -12.1052 -0.503121 -11.6678 -12.0719 -0.431912 -11.838 -11.9974 
-0.370603 -12.0022 -11.9035 -0.33364 -12.1485 -11.7725 -0.308547 -12.2861 -11.6234 
-0.309088 -12.4018 -11.4435 -0.322609 -12.5064 -11.248 -0.360878 -12.5868 -11.0299 
-0.412156 -12.6544 -10.7999 -0.485295 -12.6969 -10.5557 -0.570358 -12.7257 -10.3036 
-0.67293 -12.7299 -10.0452 -0.785408 -12.7201 -9.78322 -0.910286 -12.6873 -9.52136 
-1.04244 -12.641 -9.25957 -1.18176 -12.5744 -9.00257 -1.32545 -12.4956 -8.74847 
-1.47146 -12.4005 -8.50172 -1.61894 -12.2952 -8.2596 -1.7646 -12.1787 -8.0254 
-1.90908 -12.055 -7.79638 -2.04858 -11.9255 -7.5742 -2.18471 -11.7923 -7.35664 
-2.31382 -11.6591 -7.14368 -2.43801 -11.5259 -6.93394 -2.55434 -11.3977 -6.72595 
-2.66498 -11.273 -6.51924 -2.76812 -11.1571 -6.31134 -2.86562 -11.0478 -6.10257 
-2.95686 -10.9496 -5.89002 -3.04325 -10.8601 -5.67453 -3.12506 -10.7829 -5.4533 
-3.2032 -10.7155 -5.22746 -3.27838 -10.6607 -4.99477 -3.35109 -10.6162 -4.7564 
-3.422 -10.5842 -4.51114 -3.49136 -10.5629 -4.25995 -3.55942 -10.5544 -4.00298 
-3.62633 -10.5572 -3.74086 -3.69173 -10.5736 -3.47517 -3.75575 -10.6025 -3.20618 
-3.81727 -10.6463 -2.93669 -3.87643 -10.7043 -2.66673 -3.93141 -10.7784 -2.39985 
-3.98229 -10.8685 -2.13599 -4.02679 -10.9753 -1.87879 -4.06482 -11.0993 -1.62835 
-4.09413 -11.24 -1.38765 -4.11428 -11.3981 -1.15718 -4.12371 -11.5717 -0.938655 
-4.12149 -11.7621 -0.733114 -4.10735 -11.9658 -0.54055 -4.0798 -12.1847 -0.362587 
-4.04025 -12.4142 -0.197391 -3.98672 -12.6563 -0.0470533 -3.92227 -12.9062 0.0918785 
-3.84465 -13.1655 0.217081 -3.75806 -13.4299 0.333141 -3.66032 -13.7004 0.437816 
-3.55608 -13.9733 0.536183 -3.44347 -14.2492 0.626421 -3.3268 -14.5254 0.713387 
-3.20474 -14.8018 0.795991 -3.08067 -15.0767 0.878219 -2.95383 -15.3496 0.959926 
-2.82639 -15.6198 1.04371 -2.69809 -15.8863 1.13047 -2.56993 -16.1496 1.22111 
-2.44199 -16.4082 1.31746 -2.31444 -16.6636 1.41864 -2.18748 -16.9141 1.52719 
-2.06087 -17.1619 1.6406 -1.93479 -17.4056 1.7617 -1.80895 -17.6476 1.88685 
-1.68348 -17.887 2.01863 -1.55818 -18.1261 2.15295 -1.43317 -18.3645 2.29157 
-1.30833 -18.6039 2.43081 -1.18378 -18.845 2.57114 -1.05937 -19.0881 2.71008 
-0.935205 -19.3348 2.84648 -0.810982 -19.5837 2.97973 -0.686643 -19.8371 3.10697 
-0.561748 -20.0925 3.22976 -0.435754 -20.3517 3.34374 -0.308337 -20.6117 3.45256 
-0.178002 -20.873 3.55079 -0.0450434 -21.1331 3.64375 0.093508 -21.3905 3.72545 
0.236082 -21.6443 3.80223 0.387571 -21.8901 3.8681 0.544454 -22.1298 3.92969 
0.713773 -22.3558 3.98141 0.889567 -22.5739 4.02959 1.0809 -22.7731 4.06929 
1.27927 -22.9633 4.10618 1.49524 -23.1311 4.13605 1.71818 -23.2899 4.16373 
1.95928 -23.4252 4.18574 2.20666 -23.5524 4.20609 2.47113 -23.6575 4.22193 
2.74075 -23.7561 4.23657 3.02494 -23.8362 4.24781 3.31288 -23.9116 4.25831 
3.61193 -23.9733 4.26662 3.91332 -24.0323 4.27472 4.22195 -24.0828 4.28215 
4.53165 -24.132 4.29002 4.84485 -24.1771 4.29928 5.15813 -24.2217 4.30973 
5.47164 -24.2651 4.32424 5.78449 -24.3085 4.34078 6.09496 -24.3515 4.36458 
6.40429 -24.3943 4.39122 6.70928 -24.4359 4.42856 7.01283 -24.4765 4.46943 
7.31064 -24.5136 4.52425 7.60685 -24.5489 4.58303 7.89634 -24.5772 4.65829 
8.18415 -24.6031 4.73761 8.46452 -24.6183 4.83477 8.7432 -24.6306 4.93573 
9.01394 -24.629 5.05444 9.28302 -24.6243 5.17643 9.5439 -24.6036 5.3146 
9.80321 -24.5799 5.45533 10.0543 -24.54 5.6095 10.3041 -24.4974 5.76544 
10.5462 -24.4404 5.93125 10.7873 -24.3815 6.09806 11.0218 -24.312 6.27085 
11.2555 -24.2418 6.44398 11.4845 -24.1669 6.61933 11.7131 -24.0925 6.79455 
11.9392 -24.0209 6.9688 12.1653 -23.9508 7.14264 12.3911 -23.8916 7.31341 
12.617 -23.8347 7.48371 12.8443 -23.7958 7.65026 13.0718 -23.7595 7.8165 
13.3011 -23.7464 7.97994 13.5304 -23.7358 8.14335 13.7605 -23.7506 8.30644 
13.9904 -23.7676 8.46983 14.2187 -23.8091 8.63648 14.4467 -23.8522 8.80373 
14.6697 -23.916 8.97827 14.8921 -23.981 9.1536 15.1063 -24.0611 9.3399 
15.3198 -24.1418 9.52706 15.5222 -24.2312 9.7279 15.7238 -24.3209 9.92954 
15.9124 -24.413 10.1463 16.1004 -24.505 10.3637 16.2746 -24.5938 10.5962 
16.4482 -24.6824 10.8292 16.6081 -24.7631 11.0761 16.7677 -24.8436 11.3233 
16.9142 -24.912 11.5826 17.0606 -24.9802 11.8421 17.195 -25.0327 12.1114 
17.3292 -25.085 12.3808 17.4527 -25.118 12.6577 17.5761 -25.151 12.9345 

LINES 2 240
OFFSETS vtktypeint64
0 240 
CONNECTIVITY vtktypeint64
0 1 2 3 4 5 6 7 8 
9 10 11 12 13 14 15 16 17 
18 19 20 21 22 23 24 25 26 
27 28 29 30 31 32 33 34 35 
36 37 38 39 40 41 42 43 44 
45 46 47 48 49 50 51 52 53 
54 55 56 57 58 59 60 61 62 
63 64 65 66 67 68 69 70 71 
72 73 74 75 76 77 78 79 80 
81 82 83 84 85 86 87 88 89 
90 91 92 93 94 95 96 97 98 
99 100 101 102 103 104 105 106 107 
108 109 110 111 112 113 114 115 116 
117 118 119 120 121 122 123 124 125 
126 127 128 129 130 131 132 133 134 
135 136 137 138 139 140 141 142 143 
144 145 146 147 148 149 150 151 152 
153 154 155 156 157 158 159 160 161 
162 163 164 165 166 167 168 169 170 
171 172 173 174 175 176 177 178 179 
180 181 182 183 184 185 186 187 188 
189 190 191 192 193 194 195 196 197 
198 199 200 201 202 203 204 205 206 
207 208 209 210 211 212 213 214 215 
216 217 218 219 220 221 222 223 224 
225 226 227 228 229 230 231 232 233 
234 235 236 237 238 239 
CELL_DATA 1
FIELD FieldData 3
Length 1 1 double
67.353965158 
Tortuosity 1 1 double
1.022729827 
ClusterLabel 1 1 int
1 
POINT_DATA 240
FIELD FieldData 6
Curvature 1 240 double
0 0.14031609131 0.28063218263 0.25335000911 0.22464751131 0.20305203773 0.18157805173 0.16610902799 0.150795305 
0.1390153155 0.12735823847 0.1164339878 0.10554187864 0.091286894558 0.076853350748 0.052806906687 0.028159656362 0.063343234716 
0.10283894487 0.23849303515 0.38201462926 0.64394333428 0.916735077 1.0856926593 1.2440745402 1.0437780537 0.80325595597 
0.54123891281 0.27658569711 0.14274969618 0.026355990552 0.049282248789 0.092302732583 0.10511191436 0.11322807834 0.10841895384 
0.10145561459 0.092744381242 0.083721642017 0.084399642812 0.086920784212 0.10471351493 0.12559141521 0.15575240535 0.18790262904 
0.21994096265 0.25195391912 0.27131083977 0.28763558517 0.28222665371 0.27132710916 0.24301209042 0.21006529663 0.17139737866 
0.13113000661 0.094738110629 0.059483582619 0.046526368484 0.04042986631 0.05439336799 0.074820648688 0.093547903765 0.1117021165 
0.12872402232 0.14534704731 0.16426041303 0.18401620294 0.21097215764 0.24069096628 0.28227589898 0.3286072813 0.39338334909 
0.46584470248 0.55648073508 0.65499976107 0.74902736153 0.84102834316 0.87966148302 0.89325785759 0.8468638568 0.77122454801 
0.67947891466 0.57957818027 0.49560404119 0.42000157402 0.36174594449 0.31295222639 0.27618209576 0.24621478435 0.22235090535 
0.20206770672 0.18372877908 0.16657217841 0.14890629876 0.13091950361 0.11216199861 0.092901391348 0.075693322962 0.059872886492 
0.059029295017 0.068669495038 0.088616885076 0.11603325339 0.14260913353 0.16855464754 0.18784527016 0.20197090244 0.20827227127 
0.20829051946 0.20370316732 0.19528962415 0.18720707989 0.1794089878 0.17518592972 0.17414067966 0.17665533354 0.18244280234 
0.1915944345 0.20394477939 0.21811652012 0.23407930011 0.25021799845 0.2665355968 0.28023874468 0.29119221189 0.29674232102 
0.29641509329 0.28963612367 0.2755989444 0.25688978049 0.23274412535 0.20679117926 0.17866279036 0.15097639145 0.12384039517 
0.098285638862 0.074768249452 0.054601220433 0.038901338602 0.031629985749 0.035990002886 0.043472490647 0.055415650727 0.065643417381 
0.073333831256 0.078128864347 0.078488420491 0.075781112302 0.06820682376 0.058315395149 0.044613558425 0.031063749204 0.017773077773 
0.013635316168 0.025674790535 0.037925136673 0.050562081054 0.061734228001 0.070119687144 0.077311661129 0.082146501924 0.087378646843 
0.093425774577 0.10172872244 0.11484012899 0.13086234449 0.15333554199 0.17718432368 0.20420459112 0.22964040187 0.25127351652 
0.26778650603 0.27149918266 0.26944921382 0.25238144167 0.23196706573 0.20245411076 0.17264212435 0.14198127453 0.11251566381 
0.086595929119 0.062709981946 0.04513578915 0.031185561755 0.029013221916 0.029584405451 0.039503890859 0.049930285537 0.062169855681 
0.074672945491 0.088166869246 0.10172134735 0.11551551972 0.12891070352 0.14064054373 0.15151395101 0.15861126759 0.16452824422 
0.16493696776 0.16418722654 0.15770308473 0.15020177048 0.13734691705 0.12369190966 0.10554714952 0.086739050948 0.063950921854 
0.042241537841 0.027476575283 0.01800405883 0.045225835364 0.07237427696 0.098972706529 0.12475254555 0.14385772319 0.16174388575 
0.16876049709 0.17468630745 0.16990243542 0.16459767997 0.15361529516 0.14276704534 0.13355822319 0.12468725964 0.1205040842 
0.11655124411 0.11628376954 0.11605269533 0.11650716115 0.11695353576 0.11721543096 0.11746526544 0.11736835399 0.11730800364 
0.1186613491 0.12004344749 0.12310759197 0.12561817986 0.062809089932 0 
Torsion 1 240 double
0 0 0 0.020780101077 0.041736304706 0.048481734867 0.054984245823 0.062943676952 0.070940787051 
0.081854562828 0.092869787847 0.11503838568 0.13769616653 0.22153543661 0.30862328134 2.3501407972 4.5138101676 2.9377739997 
1.0922095046 0.63906060436 0.29983661641 0.20555041887 0.13373557824 0.10877525172 0.088587144235 0.094775656715 0.1039222948 
0.16234848664 0.22681839734 10.913929138 23.01739199 13.875272687 1.668886728 -0.054434709114 -0.14931893897 -0.27144265416 
-0.39810628357 -0.61016231646 -0.83743679748 -0.91520871185 -0.96457513856 -0.78992803922 -0.57002568208 -0.42436394508 -0.29461091238 
-0.22613762665 -0.17156284023 -0.14123065881 -0.1167066015 -0.09990693627 -0.085058696413 -0.064099195077 -0.041514358241 0.025957255531 
0.10597786071 0.54261623246 1.0839141661 1.3976142914 1.6412843218 1.0936564473 0.2910548034 -0.0072836315214 -0.13564570387 
-0.19662275888 -0.23386191005 -0.23917977796 -0.2327564842 -0.20388151401 -0.16639136566 -0.12453180856 -0.080924487961 -0.042366583223 
-0.0059126017579 0.019358024763 0.039778039502 0.050975179682 0.058010778903 0.060030561685 0.059697245395 0.056329189992 0.051481699271 
0.041835015307 0.02975836008 0.011763310108 -0.0093426909499 -0.030374757309 -0.051366495651 -0.071679438666 -0.091608326431 -0.10936248864 
-0.12584081184 -0.14651112184 -0.169730613 -0.21400722611 -0.27155271059 -0.40851852941 -0.5973281776 -1.0569676044 -1.6997032197 
-1.7600805408 -1.412807056 -1.0438401184 -0.65915328741 -0.43265196167 -0.32478976483 -0.25547238621 -0.21607038888 -0.18791259248 
-0.16878423015 -0.15251870581 -0.13863153916 -0.12255860197 -0.1046072682 -0.080607382285 -0.051231005563 -0.020039532287 0.012820658788 
0.041868339336 0.067291009874 0.087296893848 0.10197627104 0.11176526605 0.11658099106 0.11825889405 0.11663667388 0.11336625397 
0.1083030554 0.10290320929 0.097124634696 0.092807529945 0.090191044648 0.092246882257 0.099926812252 0.12077124223 0.1580092005 
0.2508231208 0.41524453062 0.82062469968 1.5472832144 1.7539089651 1.2428895016 0.79715596905 0.44468805222 0.20358019637 
0.12719243073 0.075480527953 0.061569947019 0.061891408764 0.084798503455 0.15223747886 0.29290665811 1.403754049 4.1683143006 
4.9593820402 2.262416503 0.47548740832 0.35695845848 0.28997392266 0.32104949155 0.36696100221 0.44217349787 0.51071124658 
0.56555720665 0.59112724928 0.55429336261 0.50101908183 0.41130933302 0.32753686868 0.25745314357 0.19520221859 0.15175001393 
0.11342139887 0.087901757793 0.065427512597 0.05088975364 0.038874988682 0.033719613659 0.033479808681 0.047193879963 0.079757286611 
0.16824038818 0.3473483111 0.80770567957 1.1625872005 1.1746722169 1.0582630936 0.50402208697 0.043159284054 -0.08369686724 
-0.18877534573 -0.2119697745 -0.22917998849 -0.22270268567 -0.2153448048 -0.20431146771 -0.19322609546 -0.1819112955 -0.17062881115 
-0.15949713292 -0.14834002722 -0.13705705553 -0.12495239688 -0.10852306995 -0.089145513557 -0.053225114011 0.0036177777457 0.18599562277 
0.61648078376 2.6441567913 4.1447916202 1.9912742774 0.081054275478 -0.00443566977 -0.084658207517 -0.12193111487 -0.15955441108 
-0.20030200784 -0.24265980657 -0.30082686093 -0.36032342066 -0.43431158883 -0.50669246662 -0.55942868412 -0.60796776058 -0.59827150511 
-0.58582454645 -0.52936633657 -0.47323514697 -0.42326283924 -0.37424168174 -0.34690674933 -0.32012300225 -0.30918583346 -0.29826767478 
-0.28808457382 -0.2757456499 -0.13729108307 0 0 0 
FrenetTangent 3 240 double
-0.49226164317 -0.61105310283 -0.61991336506 -0.49226164317 -0.61105310283 -0.61991336506 -0.49226164317 -0.61105310283 -0.61991336506 
-0.48865997276 -0.66193501531 -0.56309400234 -0.48502777972 -0.71324813044 -0.50579311959 -0.47920315761 -0.74872491955 -0.45360211315 
-0.47334105808 -0.78393100222 -0.40149845503 -0.46718886656 -0.8080168559 -0.35507256241 -0.46102917266 -0.83181511746 -0.30879350856 
-0.45563810857 -0.8477012882 -0.26808404621 -0.45027377943 -0.86331225578 -0.22756830878 -0.44638806204 -0.87303238644 -0.19304449763 
-0.44256719603 -0.88249414705 -0.15878349025 -0.44089248427 -0.88736862094 -0.13220477036 -0.43933172759 -0.89199952209 -0.10603395954 
-0.44057903219 -0.89293659118 -0.091422435825 -0.44200184062 -0.89364279576 -0.07753336756 -0.44669381186 -0.89080231292 -0.082809594036 
-0.45162139844 -0.88770621296 -0.089467103016 -0.45896178533 -0.87792223036 -0.12904388322 -0.46649958316 -0.86759105736 -0.17131405835 
-0.46933757308 -0.83651157176 -0.26360089994 -0.47174438797 -0.80352857126 -0.36047642653 -0.45190869716 -0.72691198574 -0.49202983062 
-0.42980756597 -0.64585123879 -0.62711524074 -0.38857343003 -0.54689006814 -0.72710085998 -0.34519353655 -0.44592137334 -0.82315005407 
-0.31282754489 -0.38148954694 -0.8664405246 -0.28181231477 -0.32153865722 -0.90326058564 -0.26978509049 -0.30162088295 -0.91426648483 
-0.26028960033 -0.2870408574 -0.92183049578 -0.26269789307 -0.29570311305 -0.91834849696 -0.26682307757 -0.30771762079 -0.91327332366 
-0.27494948436 -0.32974117651 -0.90272890974 -0.28369744024 -0.3533195358 -0.89133490504 -0.29031344517 -0.37903044445 -0.87816045763 
-0.29657412494 -0.40509677798 -0.86468926978 -0.29622612498 -0.4293065694 -0.85278927029 -0.29470034052 -0.45318549192 -0.84116928458 
-0.28318008095 -0.47348786868 -0.83367824511 -0.26976087112 -0.49311070175 -0.82697170542 -0.24355355485 -0.50809080401 -0.82554284621 
-0.21476278273 -0.52213298085 -0.82518018508 -0.17126441988 -0.52993709618 -0.82924443206 -0.12461443045 -0.53640448405 -0.83425730222 
-0.063919975534 -0.53428169377 -0.84049437542 -4.0177933374e-05 -0.53021061567 -0.84700910293 0.072211878344 -0.51599028428 -0.85024655525 
0.14646978826 -0.49933836095 -0.85269882706 0.21869614747 -0.47463156173 -0.84924337253 0.29040927282 -0.4478898465 -0.84429543976 
0.35054082984 -0.41925728015 -0.83503919763 0.40759218252 -0.39012182787 -0.82463712855 0.44948998029 -0.36584640815 -0.81371629944 
0.48715130034 -0.34292970721 -0.80265044063 0.51129374788 -0.32918077026 -0.79350033592 0.53146870023 -0.31812237275 -0.78491246338 
0.54177798781 -0.31774295736 -0.7780874852 0.54905168624 -0.32064938261 -0.77180493604 0.55029438654 -0.33367113479 -0.76520959166 
0.54959376524 -0.34995227008 -0.75851345772 0.54629361651 -0.37438291923 -0.74871699522 0.54211722259 -0.40156059551 -0.73787547816 
0.53808548498 -0.43438851965 -0.72131434176 0.53410470584 -0.46920687202 -0.70273833947 0.53198974737 -0.50750538498 -0.67612417768 
0.53056106777 -0.547083957 -0.64655345148 0.5312025923 -0.58878022839 -0.60634842091 0.53263849748 -0.63128910534 -0.56206278516 
0.53429159652 -0.67480976066 -0.50355595741 0.53603157309 -0.71873512733 -0.43936065285 0.53360861203 -0.76106703812 -0.35603960308 
0.52945109362 -0.80273500896 -0.2647494928 0.51354642451 -0.83566006806 -0.15023470479 0.4925466057 -0.86479302087 -0.025646562579 
0.45093580156 -0.87152507366 0.11758828907 0.40002491868 -0.86814940329 0.26923689985 0.32745811736 -0.8308647284 0.41745413233 
0.24473174937 -0.77767212546 0.5640615824 0.15396969351 -0.69815693305 0.68097827121 0.059290239805 -0.60580947828 0.78342071391 
-0.027820012708 -0.50760623466 0.85089651381 -0.11109775829 -0.40643803466 0.90066768445 -0.18138975445 -0.31200642578 0.92665554657 
-0.24485590797 -0.22111584555 0.94014192601 -0.29665427687 -0.13923675303 0.94103228428 -0.34208839963 -0.062273017431 0.93505208554 
-0.37843909899 0.0072097832222 0.92300905418 -0.40965049302 0.072459949631 0.90753573593 -0.4337128643 0.13191650989 0.88942867847 
-0.45358114222 0.18797415454 0.86977649401 -0.46756485626 0.23878761315 0.84968052759 -0.4779701193 0.28641203972 0.82931469376 
-0.48345931765 0.32838922078 0.81048545467 -0.48585072181 0.36680786358 0.79262448075 -0.48423031415 0.398870395 0.77821664911 
-0.47999108488 0.42678379815 0.76606295201 -0.47262192678 0.44753176464 0.75897543346 -0.46313676047 0.46343549226 0.75531293702 
-0.4513443008 0.47136434419 0.7575717442 -0.4379367358 0.47371078313 0.76397546391 -0.42299116589 0.46749120588 0.77587370357 
-0.40693109969 0.45506437051 0.79175347944 -0.39017393744 0.43417005343 0.81117549834 -0.37289395315 0.40692512505 0.83325419951 
-0.35583300806 0.37286293535 0.85582414751 -0.33894206354 0.33350973687 0.87877536169 -0.32308822968 0.29039827636 0.89949772408 
-0.30806722711 0.24426881756 0.91843025094 -0.29449662439 0.19737984877 0.93394799691 -0.28213096923 0.14985990245 0.94662884798 
-0.27106456363 0.10297503103 0.95608999791 -0.26111470063 0.056635927106 0.96278421719 -0.25182284923 0.010395380786 0.96682354469 
-0.24311589705 -0.035757558775 0.9685029684 -0.23405403476 -0.08314525145 0.96768028381 -0.22466588416 -0.13166812037 0.96455727384 
-0.21364333764 -0.18256360134 0.95847745358 -0.20106677532 -0.23571500851 0.94958623992 -0.18548413056 -0.29152242927 0.93677678937 
-0.16694550472 -0.34994159674 0.92011440587 -0.14431048062 -0.40997692327 0.89842239568 -0.11750962779 -0.47165580138 0.87161551091 
-0.086378643964 -0.53258629801 0.83914881403 -0.050693556856 -0.59272970377 0.80072955615 -0.01180298225 -0.64900561416 0.75737112398 
0.030574262968 -0.70107477519 0.70864025662 0.073819108142 -0.74682696651 0.65741246999 0.11804000327 -0.7854725669 0.60337564918 
0.16060172775 -0.81729669249 0.55017904927 0.20123278095 -0.84118310192 0.49796016095 0.2385853192 -0.85955940255 0.44941874252 
0.27199149686 -0.8713031648 0.40530390823 0.30168213935 -0.87951492185 0.36642145772 0.32674588898 -0.88332833281 0.33405480587 
0.34845071279 -0.88524786743 0.30732843416 0.36582768988 -0.88472721525 0.28786934647 0.38055261806 -0.8832299107 0.27379247552 
0.39174148102 -0.880430403 0.26689189354 0.40100970439 -0.87695490748 0.26473801057 0.4076274451 -0.87254654876 0.26913457224 
0.41295072455 -0.86741359418 0.27732745738 0.41642477363 -0.86124550264 0.29094366175 0.41905492785 -0.85430496001 0.30701932376 
0.42043682092 -0.84622183346 0.3267329335 0.42124936821 -0.83762830533 0.34723406607 0.42118972622 -0.82825288542 0.36894161657 
0.42072074184 -0.81902773304 0.38974483596 0.41960214885 -0.81004104872 0.40911292119 0.41818249024 -0.8020698667 0.42622735815 
0.41626774594 -0.79576862183 0.43963579574 0.41417124313 -0.791157582 0.45001124612 0.41176492465 -0.78942757349 0.45521683194 
0.40936125604 -0.7895399679 0.45719975626 0.40696227093 -0.79290870232 0.45348681374 0.40488579815 -0.79767227815 0.44684391543 
0.40340059797 -0.80499306324 0.43482943151 0.4027231847 -0.81285383531 0.42051994885 0.40358253674 -0.8217418997 0.40184437106 
0.40594636257 -0.83013977152 0.38175107002 0.41128152411 -0.83756951301 0.35885776558 0.41893795606 -0.84353222844 0.33544710536 
0.43135596831 -0.84648565966 0.31097520253 0.44683768953 -0.84709558841 0.28667884484 0.46884994829 -0.84271015663 0.26275667549 
0.49435367524 -0.83507183698 0.23939925503 0.52759525061 -0.8202244145 0.21729344024 0.56397299352 -0.80123271251 0.19583992334 
0.6075813449 -0.77268614389 0.17589031548 0.65280417757 -0.73958472113 0.15654631194 0.70190176534 -0.69555164841 0.13865575877 
0.75015950083 -0.64790289215 0.12136509938 0.79631760564 -0.59121492707 0.10557417442 0.83952926461 -0.53343120954 0.090473842321 
0.87506230713 -0.47279189474 0.07717323709 0.9071229799 -0.41385583525 0.06467281234 0.92974314739 -0.35955050112 0.054347878276 
0.94967617417 -0.30858792217 0.044876424986 0.96198118864 -0.2671144547 0.03782775583 0.97267403665 -0.22924822023 0.031666476355 
0.97858412413 -0.20208344369 0.028137786263 0.98366081199 -0.17793006064 0.025597219063 0.98615108721 -0.16312238151 0.026123240146 
0.98822328594 -0.15037635592 0.02781530375 0.98893673607 -0.1443307043 0.03329700555 0.98940026181 -0.13935731647 0.040151470673 
0.98901219331 -0.13803756821 0.051683499717 0.98840470441 -0.13685213249 0.06474731646 0.98701236558 -0.13614712238 0.083290219975 
0.98533581989 -0.13478141212 0.10337290639 0.98259065643 -0.13093146928 0.12924517651 0.97941780104 -0.12586295413 0.15643607439 
0.9745519984 -0.11597092356 0.18884654043 0.96908398426 -0.10461784062 0.22209889138 0.96110239164 -0.087166452161 0.25886519669 
0.95241233802 -0.068350678506 0.29581066815 0.94059861541 -0.043519206509 0.3335460994 0.9281354034 -0.017739774487 0.37078693805 
0.91264124081 0.012463470989 0.40571967787 0.8967478302 0.042996111837 0.43967459716 0.87887814186 0.075159259775 0.46878930478 
0.86099025591 0.10700628464 0.4967305367 0.84300659307 0.13718950388 0.51849558072 0.82540866748 0.16648457707 0.53915823013 
0.80997515647 0.19079616414 0.55363522097 0.79526031892 0.21376810375 0.56723661074 0.78485752209 0.22870215863 0.57558439413 
0.77535452489 0.24200157988 0.58331096675 0.77164398779 0.24477804707 0.58703849507 0.76879008108 0.24575801772 0.59036533679 
0.77187547846 0.23428227909 0.59091408466 0.77551759602 0.22104625097 0.59122028698 0.7833351149 0.19460805171 0.58970739766 
0.79120898092 0.16675500638 0.58808459776 0.79954229281 0.12736552379 0.5855656039 0.8074376693 0.08718444445 0.58310395736 
0.81142812179 0.039944960711 0.58115365765 0.81471566636 -0.0073542070465 0.57946161002 0.81110193324 -0.055239363356 0.58030512817 
0.80680721481 -0.10260800318 0.58157048879 0.79508975646 -0.14434661335 0.58743393228 0.78287567332 -0.18530803352 0.59376091597 
0.76459173162 -0.21677046482 0.60575339098 0.74600976583 -0.24744704817 0.61812648212 0.7232927158 -0.26721999115 0.63578062215 
0.70043194905 -0.28632102746 0.65366750036 0.67527171496 -0.2946715571 0.67527818942 0.6500774513 -0.30251292568 0.69696908162 
0.62424229732 -0.30076509454 0.72017046632 0.59843736656 -0.29866484049 0.74334980928 0.57332152493 -0.28852934415 0.76602660056 
0.54826525834 -0.2781608285 0.78863669038 0.52492177445 -0.26109300772 0.80932911299 0.50163719498 -0.24387270235 0.82995260498 
0.48063025323 -0.22075632639 0.84791077993 0.45966378083 -0.1975438859 0.8658168559 0.44106476584 -0.16871167108 0.8806751418 
0.42262204509 -0.14012174378 0.89540856815 0.42262204509 -0.14012174378 0.89540856815 0.42262204509 -0.14012174378 0.89540856815 

FrenetNormal 3 240 double
0.018133170537 -0.71922226358 0.69454339224 0.018133170537 -0.71922226358 0.69454339224 0.018133170537 -0.71922226358 0.69454339224 
0.045820716279 -0.66469406941 0.74160384143 0.073742902239 -0.6097037719 0.789063108 0.091139720653 -0.55691880733 0.822975271 
0.10835661825 -0.50417154075 0.85665585959 0.11564756594 -0.45425083435 0.88154170413 0.12268180802 -0.40440322865 0.90620009838 
0.12035339398 -0.35717624678 0.92485307701 0.11769932234 -0.31004041706 0.94329717162 0.10335726803 -0.26457774289 0.95750861587 
0.088502582899 -0.21918845274 0.97153441755 0.048694648883 -0.17052309339 0.98201065681 0.0075617635995 -0.12168378347 0.99229842373 
-0.22469620817 0.014896264458 0.92984300619 -0.46889949784 0.15696010851 0.86284113962 -0.39806290878 0.20298180224 0.031133900669 
-0.30452074287 0.24208153919 -0.85568723899 -0.20979130868 0.24811779055 -0.94075694337 -0.11496473436 0.25144884763 -0.96022880304 
-0.036832532751 0.31737770294 -0.94149257401 0.039768075028 0.38904947552 -0.91925101574 0.12752174654 0.49307461879 -0.84557204932 
0.21641137824 0.60039501277 -0.76665408762 0.28863020705 0.67559326602 -0.66240410033 0.35897941309 0.74718903619 -0.5553131382 
0.40422188729 0.77109550373 -0.48546869872 0.446385234 0.78915328322 -0.42019222899 0.39309229807 0.036328780435 -0.14471320402 
0.32707185779 -0.81928002665 0.1587928283 0.028793116809 -0.89458740244 0.28133882233 -0.30298441754 -0.85735130257 0.37778481084 
-0.32402263446 -0.85193394186 0.40987930928 -0.29679066615 -0.85145929792 0.43197745975 -0.22093815108 -0.86329663922 0.44565751806 
-0.13698221156 -0.87718597807 0.45793456102 0.037256625455 -0.88113408743 0.43056761809 0.2275854838 -0.88331049253 0.39613541035 
0.46696133372 -0.78091175281 0.28501575713 0.71565611205 -0.65864373558 0.15932548927 0.84108339453 -0.48703679176 0.051978452923 
0.9416081526 -0.30546238802 -0.051662880084 0.97292570486 -0.17328698881 -0.090074345855 0.98941314158 -0.051697090565 -0.11450798293 
0.99006998489 0.041333019784 -0.10154046789 0.98713638432 0.12788565247 -0.08009021731 0.97478493027 0.20262122398 -0.040171631374 
0.96017711549 0.27452562459 0.0041716599071 0.93680859232 0.33628009183 0.053300082398 0.91122683756 0.39547036537 0.10363738014 
0.88264105084 0.44078680325 0.14920974929 0.85325631946 0.48241339122 0.1935148502 0.83232823746 0.49998664334 0.23497673337 
0.81376438003 0.51083530693 0.27564373847 0.82148009092 0.42521856791 0.35268715167 0.83690828381 0.3112913303 0.44040624985 
0.58816336765 -0.14998013393 0.4699550196 0.25813441794 -0.71812674482 0.48160522674 0.055059229272 -0.88524506681 0.42587065407 
-0.10710863639 -0.92314316239 0.3484232079 -0.14561097878 -0.92268140655 0.35513104007 -0.14242831331 -0.90928936371 0.39020582 
-0.11576496455 -0.88421463914 0.44615853255 -0.080830011447 -0.85502442443 0.50946597136 -0.044580593435 -0.81249445016 0.57482379064 
-0.0078476940771 -0.76505789765 0.64093577286 0.014223456208 -0.70870161883 0.70065721709 0.0306685865 -0.64892265433 0.75792647815 
0.024397382535 -0.58345003705 0.80777378281 0.0090396448666 -0.51569995866 0.85465230492 -0.028064722617 -0.43766311846 0.89348497367 
-0.074230185856 -0.3553401275 0.92896520353 -0.1381930342 -0.25549903639 0.94879646125 -0.2098752303 -0.14805973316 0.96184021299 
-0.28798035225 -0.021488943259 0.94508880638 -0.36898362368 0.11371434673 0.91489324296 -0.43971190871 0.25155522416 0.84559075256 
-0.50561982976 0.39063348829 0.75794180259 -0.54796606393 0.50831812882 0.64503785659 -0.57882597573 0.61557337786 0.51982210002 
-0.58882990447 0.69303001776 0.39417925432 -0.58827384177 0.7553987543 0.26832016095 -0.57282508968 0.79770438915 0.15645974944 
-0.54954812905 0.82946403466 0.05195761942 -0.51765397849 0.85057392355 -0.037334043527 -0.4810595425 0.86587485429 -0.11832908807 
-0.43709864937 0.87696088911 -0.18606073227 -0.38896989233 0.88566218017 -0.24628808417 -0.33560265636 0.89184030624 -0.29591969985 
-0.27916217942 0.8965381755 -0.33933515028 -0.21767153536 0.89974140815 -0.37262729489 -0.15310984372 0.90203574016 -0.39976337514 
-0.079319890858 0.90400235946 -0.41356708306 0.00028513071327 0.90576247486 -0.41896957004 0.10905857565 0.90360676534 -0.39515780277 
0.23687251917 0.89889489233 -0.35227561952 0.4345115252 0.81445802244 -0.208949542 0.67935620729 0.67612256311 0.0022822668588 
0.77633799291 0.36360999585 0.23574713775 0.769815751 -0.070826546948 0.48477515207 0.69421896448 -0.35652052115 0.59298039529 
0.56856816013 -0.53443002536 0.59914015222 0.47814657705 -0.65304289916 0.5794669345 0.41414690991 -0.72718330016 0.54041898578 
0.36575518327 -0.78546536527 0.49427191848 0.32947708209 -0.8314394682 0.4426150875 0.29939114531 -0.86935200567 0.38820253972 
0.27427770418 -0.90079086179 0.33157706785 0.25194552221 -0.92608669517 0.27516402383 0.23192392475 -0.94627909426 0.21892745833 
0.21442391609 -0.96150711985 0.16435091655 0.1990908978 -0.97246888697 0.11120095765 0.18849965576 -0.97923559209 0.059625895937 