# vtk DataFile Version 5.1
vtk output
ASCII
DATASET POLYDATA
POINTS 240 float
0 0 0 -0.368555 0.0132804 0.154211 -0.737111 0.0265608 0.308421 
-1.0867 -0.033785 0.493218 -1.43612 -0.0947547 0.678275 -1.76225 -0.210024 0.879656 
-2.08799 -0.326222 1.08132 -2.39275 -0.480617 1.29015 -2.69697 -0.636001 1.49917 
-2.98454 -0.818491 1.70989 -3.27153 -1.00192 1.92068 -3.54628 -1.20521 2.12958 
-3.82049 -1.40936 2.33839 -4.08654 -1.62875 2.54224 -4.35215 -1.84895 2.74583 
-4.61354 -2.08166 2.94076 -4.87467 -2.31514 3.13514 -5.13572 -2.56015 3.31476 
-5.39675 -2.80599 3.49332 -5.66229 -3.06487 3.64412 -5.92819 -3.32482 3.79264 
-6.20184 -3.60144 3.88225 -6.47621 -3.87959 3.96646 -6.74433 -4.16759 3.92676 
-7.01181 -4.45659 3.87443 -7.23013 -4.71884 3.67607 -7.44293 -4.97808 3.46134 
-7.60557 -5.20453 3.17635 -7.76206 -5.42696 2.88274 -7.89255 -5.63693 2.56788 
-8.01957 -5.84524 2.25017 -8.13332 -6.05373 1.92759 -8.24515 -6.26225 1.60431 
-8.34842 -6.47722 1.28243 -8.45036 -6.69318 0.960775 -8.5446 -6.91916 0.643746 
-8.63756 -7.14681 0.327489 -8.72101 -7.38649 0.0176244 -8.80277 -7.62831 -0.291101 
-8.87038 -7.88299 -0.592665 -8.93531 -8.14011 -0.892869 -8.97944 -8.40952 -1.18572 
-9.01937 -8.68142 -1.47708 -9.03074 -8.96371 -1.76053 -9.03598 -9.24823 -2.04228 
-9.0066 -9.53933 -2.31509 -8.96936 -9.83193 -2.58587 -8.89424 -10.1261 -2.84622 
-8.81005 -10.4205 -3.10408 -8.68917 -10.7116 -3.35025 -8.55903 -11.0019 -3.59348 
-8.398 -11.2858 -3.82484 -8.22876 -11.568 -4.05304 -8.03569 -11.8436 -4.26981 
-7.83595 -12.1173 -4.48338 -7.61905 -12.3863 -4.68579 -7.39712 -12.6538 -4.88492 
-7.16362 -12.92 -5.07194 -6.92655 -13.1858 -5.25525 -6.68279 -13.4558 -5.42274 
-6.43687 -13.7271 -5.58513 -6.18996 -14.0104 -5.72236 -5.94272 -14.2978 -5.8511 
-5.70655 -14.6085 -5.93042 -5.47429 -14.9275 -5.99235 -5.29075 -15.2697 -5.9518 
-5.12514 -15.6205 -5.87357 -5.05732 -15.9413 -5.67415 -5.02704 -16.2505 -5.42822 
-5.07041 -16.5008 -5.12893 -5.14325 -16.7275 -4.80829 -5.25421 -16.9117 -4.47323 
-5.38106 -17.0783 -4.13216 -5.53085 -17.2147 -3.78779 -5.69058 -17.3381 -3.44199 
-5.86711 -17.4364 -3.09686 -6.05122 -17.5234 -2.75203 -6.24949 -17.5857 -2.4103 
-6.4544 -17.6365 -2.07002 -6.67207 -17.6601 -1.73545 -6.89595 -17.6704 -1.40365 
-7.13085 -17.6491 -1.08113 -7.37132 -17.6119 -0.763298 -7.61969 -17.5373 -0.459909 
-7.87221 -17.4431 -0.164112 -8.12674 -17.3081 0.111441 -8.38238 -17.1508 0.375953 
-8.63226 -16.9547 0.616705 -8.87889 -16.7365 0.844015 -9.1133 -16.4872 1.04932 
-9.34054 -16.2197 1.24171 -9.55272 -15.9308 1.4186 -9.75572 -15.6289 1.58607 
-9.94375 -15.3141 1.74616 -10.1223 -14.991 1.9016 -10.2868 -14.6605 2.05659 
-10.4422 -14.3253 2.2113 -10.5841 -13.9866 2.37079 -10.717 -13.6455 2.53353 
-10.8364 -13.3042 2.70521 -10.9465 -12.9626 2.88317 -11.0419 -12.6241 3.07397 
-11.1269 -12.2877 3.27407 -11.195 -11.9589 3.49113 -11.2506 -11.6358 3.72089 
-11.2855 -11.3275 3.97199 -11.3043 -11.0306 4.23965 -11.2975 -10.7608 4.532 
-11.2699 -10.5127 4.84416 -11.2125 -10.3088 5.17868 -11.1304 -10.1415 5.53176 
-11.0212 -10.0307 5.8947 -10.8887 -9.96828 6.26612 -10.7385 -9.95751 6.63257 
-10.5727 -9.99264 6.99463 -10.3977 -10.0649 7.34487 -10.2141 -10.1713 7.68425 
-10.0256 -10.3016 8.01138 -9.8324 -10.4548 8.32688 -9.63545 -10.6232 8.63167 
-9.43485 -10.8065 8.92595 -9.23024 -10.9998 9.21047 -9.02153 -11.2035 9.48507 
-8.80767 -11.4147 9.74952 -8.58836 -11.6336 10.0033 -8.36204 -11.8595 10.2438 
-8.12809 -12.093 10.4699 -7.88495 -12.3352 10.6743 -7.6315 -12.5872 10.8541 
-7.37005 -12.8521 10.99 -7.0993 -13.132 11.0746 -6.84398 -13.4216 11.0768 
-6.60722 -13.7229 10.9797 -6.41898 -14.0158 10.8144 -6.29115 -14.2983 10.5642 
-6.20087 -14.5737 10.294 -6.15895 -14.84 9.99824 -6.13806 -15.107 9.70173 
-6.1452 -15.375 9.40422 -6.16455 -15.6476 9.11189 -6.20072 -15.9265 8.82669 
-6.24412 -16.2116 8.54911 -6.29783 -16.5055 8.28238 -6.35567 -16.8063 8.02469 
-6.41959 -17.1172 7.78037 -6.48559 -17.4352 7.54645 -6.55475 -17.764 7.32847 
-6.62463 -18.1001 7.123 -6.69565 -18.4477 6.93739 -6.76646 -18.8031 6.76863 
-6.83692 -19.171 6.62757 -6.9062 -19.5461 6.51147 -6.97346 -19.9334 6.43794 
-7.03773 -20.323 6.40084 -7.0967 -20.7169 6.42813 -7.14991 -21.1022 6.49693 
-7.19252 -21.4716 6.64181 -7.22772 -21.8252 6.81753 -7.24882 -22.1485 7.05192 
-7.26257 -22.4586 7.30235 -7.26179 -22.7427 7.58444 -7.25399 -23.0194 7.87332 
-7.23176 -23.2806 8.17613 -7.20241 -23.5387 8.48087 -7.15791 -23.7898 8.78975 
-7.10589 -24.0403 9.0978 -7.03719 -24.2892 9.40399 -6.96026 -24.5388 9.70745 
-6.86432 -24.7896 10.0046 -6.75948 -25.0413 10.2977 -6.63325 -25.2949 10.5808 
-6.49746 -25.5487 10.8587 -6.33774 -25.803 11.1236 -6.16832 -26.056 11.3831 
-5.97358 -26.3057 11.6282 -5.76948 -26.5522 11.8683 -5.53992 -26.7897 12.0947 
-5.30194 -27.0219 12.3171 -5.04003 -27.2392 12.5282 -4.77094 -27.4494 12.7366 
-4.48055 -27.6388 12.9371 -4.18455 -27.82 13.1361 -3.87116 -27.9758 13.3307 
-3.55372 -28.1228 13.5248 -3.22317 -28.2412 13.7174 -2.89009 -28.351 13.91 
-2.54838 -28.4311 14.1029 -2.20533 -28.503 14.296 -1.8575 -28.5459 14.4898 
-1.50916 -28.5817 14.6837 -1.15895 -28.5909 14.8779 -0.808697 -28.5941 15.0718 
-0.458306 -28.5736 15.2648 -0.108055 -28.5484 15.4573 0.24161 -28.5034 15.6475 
0.591155 -28.4548 15.8369 0.940168 -28.3903 16.0227 1.28918 -28.3232 16.2074 
1.63819 -28.2438 16.3874 1.98735 -28.1628 16.5663 2.33722 -28.0731 16.7396 
2.68734 -27.9824 16.9119 3.03881 -27.8861 17.0784 3.39057 -27.7893 17.2438 
3.74397 -27.6892 17.4038 4.09762 -27.5887 17.563 4.45283 -27.4865 17.7176 
4.80822 -27.384 17.8715 5.16483 -27.2802 18.0217 5.52155 -27.1762 18.1715 
5.87909 -27.0709 18.3185 6.2367 -26.9655 18.4651 6.59489 -26.8587 18.6094 
6.95315 -26.7519 18.7535 7.31198 -26.6441 18.8953 7.6709 -26.5362 19.037 
8.03062 -26.4283 19.1765 8.39048 -26.3205 19.3158 8.75162 -26.2144 19.4529 
9.11296 -26.1087 19.59 9.47633 -26.0077 19.7251 9.83995 -25.9074 19.8601 
10.2065 -25.8162 19.9936 10.5733 -25.7261 20.1271 10.9437 -25.6516 20.2601 
11.3144 -25.5785 20.3931 11.6888 -25.5295 20.5267 12.0633 -25.4824 20.6605 
12.4398 -25.471 20.7964 12.8161 -25.4618 20.9325 13.1889 -25.5027 21.0723 
13.5612 -25.5458 21.2122 13.9179 -25.6544 21.3568 14.2738 -25.765 21.5015 
14.5948 -25.951 21.6504 14.9149 -26.1382 21.7994 15.1805 -26.3958 21.9508 
15.4455 -26.6539 22.1022 15.6458 -26.9646 22.2551 15.8461 -27.2752 22.408 

LINES 2 240
OFFSETS vtktypeint64
0 240 
CONNECTIVITY vtktypeint64
0 1 2 3 4 5 6 7 8 
9 10 11 12 13 14 15 16 17 
18 19 20 21 22 23 24 25 26 
27 28 29 30 31 32 33 34 35 
36 37 38 39 40 41 42 43 44 
45 46 47 48 49 50 51 52 53 
54 55 56 57 58 59 60 61 62 
63 64 65 66 67 68 69 70 71 
72 73 74 75 76 77 78 79 80 
81 82 83 84 85 86 87 88 89 
90 91 92 93 94 95 96 97 98 
99 100 101 102 103 104 105 106 107 
108 109 110 111 112 113 114 115 116 
117 118 119 120 121 122 123 124 125 
126 127 128 129 130 131 132 133 134 
135 136 137 138 139 140 141 142 143 
144 145 146 147 148 149 150 151 152 
153 154 155 156 157 158 159 160 161 
162 163 164 165 166 167 168 169 170 
171 172 173 174 175 176 177 178 179 
180 181 182 183 184 185 186 187 188 
189 190 191 192 193 194 195 196 197 
198 199 200 201 202 203 204 205 206 
207 208 209 210 211 212 213 214 215 
216 217 218 219 220 221 222 223 224 
225 226 227 228 229 230 231 232 233 
234 235 236 237 238 239 
CELL_DATA 1
FIELD FieldData 3
Length 1 1 double
95.638980929 
Tortuosity 1 1 double
1.4717333247 
ClusterLabel 1 1 int
3 
POINT_DATA 240
FIELD FieldData 6
Curvature 1 240 double
0 0.12949772257 0.25899544515 0.22795085703 0.19554574086 0.16863487073 0.14181791934 0.12238776474 0.10314864799 
0.08968256119 0.076417275436 0.067721896577 0.05922695223 0.055608359482 0.052248688057 0.056872479416 0.061995237198 0.081824389504 
0.10271346214 0.15344726394 0.20662290722 0.31692237079 0.43246255182 0.50266020555 0.56823963892 0.46494770644 0.3427169292 
0.23934739547 0.13829103311 0.092940072242 0.055016498243 0.045245708771 0.039535417068 0.043047017099 0.047991144001 0.053847428492 
0.059855739247 0.066965736459 0.074272073831 0.083348570768 0.092761398023 0.10441937806 0.11653092431 0.1269927345 0.13710102983 
0.14423587375 0.15069632664 0.15152100468 0.15099544499 0.14369438656 0.13468162318 0.12321950717 0.11110596758 0.09914942735 
0.087236779417 0.078233929187 0.070085041326 0.069827373127 0.071997772516 0.088950770705 0.11066705073 0.16110249415 0.22121855444 
0.34095974135 0.48170523423 0.6051780615 0.7222977244 0.66144105892 0.53229115114 0.41256638094 0.29661166577 0.23000921748 
0.18397021374 0.15843851787 0.14180155794 0.13458452227 0.13161794022 0.13438980167 0.13985377242 0.14887031777 0.15961874324 
0.17356052454 0.18911919486 0.20313109937 0.21632996031 0.22246832425 0.224755508 0.21701768803 0.20360782647 0.1840891841 
0.16098672365 0.13836487338 0.11603528605 0.099512355817 0.086648414984 0.079933221765 0.077231794349 0.078897005327 0.083514309867 
0.091216572264 0.10107830516 0.11425135123 0.12982389959 0.15003724316 0.17373118314 0.2036398588 0.23837191141 0.27651934633 
0.31740943673 0.3468548706 0.36679243596 0.36323809497 0.33949539697 0.30539228409 0.26207991354 0.22200422344 0.18490419116 
0.15404863562 0.12913045139 0.11046297198 0.09794201896 0.090425948224 0.087999588282 0.09174742124 0.1019888019 0.12154728374 
0.15124015634 0.20271695374 0.27870066655 0.38925859585 0.5400483407 0.62475895218 0.62992986609 0.5617732573 0.40230312969 
0.27784997724 0.19851485046 0.14263329931 0.11802318233 0.10127985913 0.095392711343 0.09212024983 0.092583054419 0.094368177323 
0.098109229402 0.10358365954 0.11171347733 0.12361147367 0.14148940553 0.16536940217 0.19911946089 0.23898796805 0.28928564867 
0.33332960515 0.36632046781 0.37695047149 0.34658556708 0.30581317127 0.24524115769 0.19028317167 0.14641289011 0.11061783921 
0.091387364067 0.077918316956 0.076730208555 0.077989964588 0.084674717476 0.091576674214 0.098979406494 0.10630574252 0.11344872753 
0.1196223389 0.12337251615 0.12646046937 0.12782262662 0.12870988885 0.12830603024 0.12806433318 0.12828296565 0.12838428685 
0.12813758462 0.12798573426 0.1281282518 0.12776769715 0.12577215793 0.12344479182 0.11998675633 0.11597881006 0.1100038752 
0.1039032174 0.097329841372 0.090531173039 0.082840722674 0.07525061311 0.068079317324 0.061051264811 0.054654784905 0.048401217056 
0.042814572144 0.037486883454 0.03344102807 0.029570951861 0.026626029202 0.02374667179 0.02123520826 0.01877733732 0.016641021927 
0.014567348906 0.012896936159 0.011328578847 0.010467805893 0.0096352557596 0.0090143767771 0.0084270929841 0.0081137391962 0.0079471955693 
0.0090897092115 0.010503940853 0.014585949218 0.018920517833 0.026007993185 0.033328160312 0.043492338028 0.053892782845 0.067571433699 
0.081526194306 0.099898710964 0.11851380739 0.14169748943 0.16505621412 0.19240591152 0.21966983569 0.24446777954 0.26885992057 
0.27756101907 0.28593660936 0.2752699702 0.26358546471 0.13179273236 0 
Torsion 1 240 double
0 0 0 -0.02148333173 -0.043148725594 -0.055271177989 -0.067230503179 -0.08820281059 -0.10940821237 
-0.14891047917 -0.18904915867 -0.26169123801 -0.33575890506 -0.42364934051 -0.51227372827 -0.49385604747 -0.46874823738 -0.34944992228 
-0.22336310233 -0.13332427342 -0.0462348256 -0.013024539593 0.015242704046 0.025505247221 0.033933978311 0.063865635842 0.096208836525 
0.21871623247 0.35228150142 0.67511281012 1.0231795908 0.96413335632 0.84636889852 0.54785851631 0.22127109729 0.054611877486 
-0.085392642455 -0.1548401901 -0.21171322783 -0.22039444715 -0.21991922098 -0.19698339606 -0.16951007645 -0.14647451707 -0.1243899063 
-0.10546459127 -0.087255817528 -0.070154758008 -0.053319088353 -0.033973467269 -0.013993753191 0.018077832322 0.053365341089 0.12011006259 
0.19564927366 0.32533894803 0.47092060619 0.55826172097 0.62768266855 0.54364700451 0.41016421007 0.29043714365 0.17534683949 
0.10741376437 0.056092894931 0.033730302685 0.022019030784 0.019332021698 0.020107811134 0.021850773524 0.023980605095 0.020770871524 
0.015336319143 0.0064943142966 -0.0038256217388 -0.014856083767 -0.026207148988 -0.035738717623 -0.044416695267 -0.051244409924 -0.057170121374 
-0.061916524641 -0.06606580984 -0.071498950731 -0.077606938843 -0.086706895028 -0.097438833797 -0.11551221767 -0.13773931391 -0.1751932475 
-0.22158025899 -0.29108318091 -0.37464307537 -0.45047869489 -0.52144696306 -0.53193032929 -0.50293049563 -0.44356243179 -0.36366373346 
-0.29516281559 -0.23464034403 -0.18856370593 -0.15295506308 -0.12625339447 -0.10623195653 -0.090002465276 -0.076715977408 -0.064590461744 
-0.05339724194 -0.043461696114 -0.034570987133 -0.026005440652 -0.017719330695 -0.0066529644458 0.006884740729 0.026229736946 0.050913694284 
0.083255444105 0.12287837367 0.16236302633 0.20171170671 0.21913356732 0.21425696714 0.177572147 0.10743385414 0.030520635322 
-0.053761801198 -0.12218364142 -0.17276231081 -0.19367209729 -0.18005809275 -0.1819671231 -0.20256128802 -0.27287558174 -0.40510550754 
-0.53881870124 -0.6744430286 -0.73408600045 -0.69242049827 -0.62346760574 -0.51685811452 -0.41969509966 -0.336027051 -0.26320302576 
-0.20641911848 -0.15545307625 -0.11339950815 -0.075923692019 -0.045712569242 -0.022522592808 -0.01087850147 -0.0048067959722 -0.0082334754266 
-0.014184433153 -0.024596905964 -0.039868300604 -0.064047718595 -0.10200483532 -0.16617318379 -0.25408039644 -0.38887186585 -0.51734133833 
-0.63284261201 -0.67447198113 -0.55863755369 -0.43459018343 -0.29234115614 -0.16985472567 -0.092932060097 -0.023410944725 0.028346450167 
0.077603494853 0.12060966403 0.16050350964 0.19228645145 0.22069036149 0.23990752887 0.254030296 0.25369153982 0.24998317757 
0.2362783173 0.21965111216 0.1939545609 0.16799389611 0.14117486236 0.11423351305 0.086875384762 0.060076139059 0.03527597336 
0.010631148999 -0.013429591927 -0.037821972237 -0.063527091771 -0.089958838212 -0.11942346218 -0.14979152627 -0.18414293997 -0.21896014547 
-0.25595104603 -0.2890710455 -0.30303008456 -0.31037398656 -0.28290137775 -0.250533845 -0.19070035012 -0.12839620713 -0.051268175517 
0.02239739672 0.073773386707 0.11259324448 0.064357252253 0.0044172041612 -0.1433032629 -0.30007158878 -0.53061476345 -0.7413093311 
-0.77502048625 -0.78769350718 -0.59381030115 -0.40771020583 -0.3064460173 -0.20971328978 -0.16836508573 -0.1285888766 -0.11062409689 
-0.093185498627 -0.084165803597 -0.075402901708 -0.071476270627 -0.067688813727 -0.067074528159 -0.066544881344 -0.068448598687 -0.070451455916 
-0.076287722104 -0.081339490582 -0.04049814299 0 0 0 
FrenetTangent 3 240 double
-0.90251555138 -0.059946338732 0.42646467145 -0.90251555138 -0.059946338732 0.42646467145 -0.90251555138 -0.059946338732 0.42646467145 
-0.87465268759 -0.13996549179 0.45517591412 -0.84655369785 -0.22066277327 0.48413047241 -0.8176002852 -0.27961584063 0.49882780351 
-0.78863226703 -0.33819721203 0.51328142132 -0.76401666452 -0.380278782 0.51892567124 -0.73951362448 -0.42193363298 0.52434209267 
-0.72047134206 -0.45253286107 0.52426880473 -0.70161899904 -0.48274754576 0.52400457037 -0.68801022451 -0.50585392062 0.51964413131 
-0.67463143105 -0.5286485275 0.51510403414 -0.66620914405 -0.54708766691 0.50633876612 -0.65805003439 -0.56529554255 0.49734915275 
-0.6549349489 -0.58140428098 0.48220618595 -0.65213511492 -0.59738182334 0.46667863455 -0.65495808365 -0.61403794011 0.43919317004 
-0.65818629942 -0.63074296314 0.41084587394 -0.66728348556 -0.65176890675 0.354953902 -0.67686086018 -0.67314838022 0.29680827476 
-0.68339287709 -0.69661306701 0.17730736944 -0.68964550338 -0.72026905777 0.052177539532 -0.65791439412 -0.71514204677 -0.1332047983 
-0.62231457105 -0.70708343374 -0.32472396564 -0.55055330129 -0.66245372488 -0.47747196257 -0.47473654218 -0.61372258471 -0.62587179086 
-0.41679882944 -0.57743702801 -0.6963175773 -0.36105382993 -0.54267781646 -0.75720296237 -0.32975534701 -0.53058065965 -0.78010666328 
-0.30171639964 -0.52150511015 -0.79794613964 -0.28453873118 -0.52448798501 -0.80229707373 -0.26892759333 -0.5292100557 -0.80470254499 
-0.25668794393 -0.54015949735 -0.80127660616 -0.24497202088 -0.55207629761 -0.79694481721 -0.2325602052 -0.56758822018 -0.78948431242 
-0.22003240741 -0.58369932981 -0.781502355 -0.20336209106 -0.60174306414 -0.77189484123 -0.18595350407 -0.62013122662 -0.76199762436 
-0.16133873841 -0.6388792607 -0.75145268651 -0.1353547988 -0.65769567038 -0.74078468168 -0.1001174547 -0.67519384326 -0.72960740453 
-0.063010735968 -0.69242570568 -0.71832724408 -0.0169047023 -0.70624159413 -0.70594852141 0.031129755996 -0.71932548816 -0.69333439256 
0.085431622171 -0.72692415178 -0.67897831726 0.1411549623 -0.73327874252 -0.66422716131 0.19860726594 -0.73330838475 -0.64751803905 
0.25647380042 -0.73182267472 -0.63033982068 0.31035836622 -0.72527945916 -0.61200655296 0.363236961 -0.717458558 -0.5933814833 
0.40845655684 -0.70752506559 -0.57474904433 0.45163918488 -0.69702971382 -0.55611464543 0.48659336751 -0.68743559969 -0.53780563878 
0.51924712454 -0.67809344447 -0.519587602 0.54454340759 -0.67211827444 -0.50085314401 0.56768043197 -0.66713124137 -0.48196712762 
0.58454429626 -0.66778039468 -0.46006997312 0.59947795745 -0.67016375918 -0.43724631458 0.60812268295 -0.68112078012 -0.40615593491 
0.61474097363 -0.6948404237 -0.37240183398 0.61113447614 -0.72185287976 -0.31755746196 0.60408142084 -0.75334605913 -0.2556040098 
0.56851345575 -0.79763118793 -0.14358746916 0.5229004656 -0.84642257164 -0.013935067802 0.41846463421 -0.86238027577 0.16837278336 
0.29239281522 -0.86626122419 0.37004815628 0.14519479586 -0.80214500651 0.53371951098 -0.010109788767 -0.71193685299 0.68280792846 
-0.12441256603 -0.61800317769 0.76335284219 -0.22231462034 -0.52257929369 0.81648035442 -0.28895380255 -0.44829975929 0.84188649912 
-0.34256678806 -0.38283037055 0.855742074 -0.38351360487 -0.32830284822 0.86122947571 -0.41896666176 -0.27852119566 0.86308730835 
-0.44934531708 -0.23187368218 0.86124023261 -0.47743430341 -0.18664035339 0.85772142993 -0.50331201118 -0.13974250206 0.85116351983 
-0.52815232903 -0.092063763597 0.84317985564 -0.55132159009 -0.039567360485 0.83136022587 -0.57367621099 0.015277654145 0.81767056289 
-0.5932785503 0.077012311542 0.79847688443 -0.61148732932 0.14223539566 0.77649636268 -0.62420046075 0.21390004675 0.74738364956 
-0.63402485433 0.28895064971 0.71452196407 -0.63515459953 0.36559327871 0.67528456923 -0.63154180926 0.44310428554 0.63256951475 
-0.61868290147 0.51488355384 0.58815831896 -0.60059263771 0.58341986481 0.54278746425 -0.57645900227 0.64128180582 0.50223323284 
-0.5487799221 0.69288144979 0.46450475377 -0.51927564841 0.73360773706 0.43576844185 -0.48866145975 0.76772184797 0.41250033969 
-0.45855995254 0.79352870306 0.39857069676 -0.42878150488 0.81410084899 0.39052556238 -0.3998224913 0.82895812982 0.39007943048 
-0.37139838607 0.84008487372 0.39459375852 -0.34313767098 0.84694920674 0.40506268093 -0.31498741684 0.85093190988 0.4195572446 
-0.28588991311 0.85095385678 0.43925312695 -0.25612933468 0.84820327432 0.46258993237 -0.22400899351 0.84060136372 0.49120953807 
-0.19017867934 0.82948399796 0.52365725992 -0.15221584771 0.81102540074 0.56189282687 -0.11115362801 0.78706087994 0.60446927764 
-0.064021479914 0.75085899398 0.65266897579 -0.012178342626 0.70515945148 0.70523298534 0.046151533089 0.64053438852 0.75941499483 
0.10969045633 0.56071155912 0.81489630731 0.17476160486 0.46092460438 0.86109925116 0.24110567903 0.34455206858 0.89959401184 
0.29982831582 0.22212314407 0.91962687576 0.35200127985 0.094489510512 0.92379404714 0.39293936476 -0.021488620726 0.91392642977 
0.42389089043 -0.12710630546 0.89158344461 0.44725109142 -0.21588928656 0.8650249612 0.46363217133 -0.28919520143 0.83459093908 
0.47688222704 -0.34932730567 0.80504896089 0.48715524335 -0.39693349162 0.77635515561 0.4970241653 -0.43630772502 0.74919517985 
0.50649572781 -0.46758720509 0.72354346978 0.51702792748 -0.49435191085 0.69810563304 0.5286387412 -0.5165253207 0.67288529462 
0.5423061452 -0.53698389336 0.64532172519 0.55813651483 -0.55563893035 0.61529372317 0.57683013367 -0.57547188783 0.57784627003 
0.59863816395 -0.59658609216 0.53232853674 0.6222436121 -0.62266963155 0.46737497671 0.64787115536 -0.65434367289 0.38055611163 
0.6607352418 -0.69019399542 0.25331721164 0.65874730578 -0.73090399062 0.079044089218 0.61591843921 -0.7540596137 -0.11429583971 
0.52392919328 -0.75608497402 -0.33058655424 0.41553544725 -0.74284420563 -0.50341519385 0.28671345581 -0.7105927864 -0.62212124959 
0.17704954507 -0.68724068443 -0.70057973537 0.092070084466 -0.67535501046 -0.72718077521 0.022675885818 -0.67172029036 -0.73932836328 
-0.025937963552 -0.67908684208 -0.7322046823 -0.066293542935 -0.69010267012 -0.71998945558 -0.095252709737 -0.70615449951 -0.70074789576 
-0.11939490339 -0.72378882018 -0.67896533861 -0.13665570683 -0.74368384266 -0.65355278528 -0.15083405112 -0.76432253423 -0.62617966744 
-0.16045292458 -0.78606123633 -0.59590654789 -0.16803050832 -0.80831413143 -0.56320291683 -0.17248100992 -0.83135472646 -0.52677594896 
-0.17555921366 -0.85508163481 -0.48600813411 -0.17645964037 -0.87989769255 -0.43835158386 -0.17622157503 -0.90514318519 -0.38245276138 
-0.17411132276 -0.93109485968 -0.31299998013 -0.17029281364 -0.95445780851 -0.2304022246 -0.16356250306 -0.97340815678 -0.12539826292 
-0.15377313118 -0.98224797004 -0.0085837672781 -0.13857704632 -0.97321800047 0.1291051605 -0.12025085968 -0.95102056131 0.26396961393 
-0.096186153084 -0.90468276124 0.39365586436 -0.070989315367 -0.85497278185 0.50763483353 -0.043638667217 -0.79884743691 0.59173165787 
-0.016403939911 -0.74821605113 0.66153778373 0.010601843728 -0.70843523466 0.70311978011 0.037663646671 -0.67487539497 0.73643216624 
0.064840361007 -0.65407653327 0.75278124931 0.092564085318 -0.63747291036 0.76457570521 0.12145380458 -0.62981177016 0.76666161373 
0.15131116065 -0.62449435213 0.76586152876 0.18331300914 -0.62437112918 0.75866545821 0.21647129344 -0.62518737641 0.74933931798 
0.25229580477 -0.62816962435 0.73510218378 0.28927193166 -0.63094238252 0.71919001322 0.32901193594 -0.63321236527 0.69925775539 
0.36959192843 -0.63416107174 0.67828356186 0.41227189147 -0.63180658753 0.65470452906 0.45517776174 -0.62721603709 0.63101251945 
0.49867235993 -0.61679816255 0.60702608539 0.54171403307 -0.60374693633 0.5837953574 0.5835243162 -0.58353628521 0.56261920527 
0.62430775314 -0.56077991706 0.54275676173 0.66217627186 -0.53079699735 0.52662355544 0.69857712496 -0.49872989969 0.51196599662 
0.73062390341 -0.46047974074 0.50168619193 0.76095390811 -0.42078823877 0.49271532284 0.7859559943 -0.37662360327 0.48780666769 
0.80921207391 -0.33175710595 0.48379352811 0.82679363214 -0.28460955778 0.4826908141 0.84280875945 -0.23749292505 0.48200712728 
0.85348641845 -0.19048163387 0.4827512368 0.86296048057 -0.14409163378 0.48349069883 0.86812936929 -0.099923944123 0.48421353713 
0.87252068658 -0.05675139296 0.4846633827 0.87398833528 -0.017320562528 0.48408677562 0.87506672286 0.020943173165 0.483119848 
0.87460428514 0.054587158849 0.48060790159 0.87404758269 0.087018386194 0.47770098719 0.87309742752 0.11438766569 0.47314551082 
0.87223513878 0.14064312422 0.46824984714 0.87176026115 0.16198764491 0.46185426672 0.87145512453 0.18232204039 0.45522116317 
0.87194211265 0.19794251825 0.44747961844 0.87259925577 0.21270550681 0.43962494265 0.87409866617 0.2232239234 0.43121026816 
0.87570627341 0.23309915814 0.42281088633 0.87788333774 0.23958922527 0.4144919922 0.88008101845 0.24566266414 0.40630818669 
0.88239438002 0.24939835553 0.39888237846 0.88466099447 0.25292795478 0.39165049196 0.88664712632 0.25522100122 0.38558213587 
0.88856023136 0.25745460239 0.37969843457 0.89000322636 0.25930552457 0.37500344848 0.89138811066 0.2611528879 0.37043509127 
0.89237009412 0.26297557656 0.3667446943 0.89333102098 0.26477121366 0.36311561445 0.89413402342 0.266363964 0.35994641293 
0.89495342186 0.26786302712 0.35679916321 0.89590651088 0.26859817905 0.35383090509 0.89690905732 0.26915211715 0.35086897716 
0.89835259903 0.26809023201 0.34796349343 0.89987344581 0.26673268931 0.34507389847 0.90215328765 0.26247232699 0.34234030239 
0.90452563239 0.25779024956 0.33964832783 0.90790625868 0.24851147737 0.33741002778 0.91137068703 0.23869102569 0.33524223826 
0.91585936273 0.22225004679 0.33393624408 0.92038745568 0.20515368291 0.33272514914 0.92546246296 0.17896385254 0.33283078123 
0.9304811502 0.15200554193 0.3330466055 0.93459871674 0.11275154755 0.33502550466 0.93849188574 0.07265625449 0.33711046689 
0.938158901 0.016716503086 0.34119295021 0.93736576116 -0.040024980929 0.34534782463 0.92608108517 -0.11504596848 0.35115321631 
0.91412427028 -0.19060736256 0.35696964668 0.88284346205 -0.28170544448 0.3631034392 0.85092098303 -0.37286587712 0.36919487184 
0.79418723322 -0.46643720393 0.37364838921 0.73712950509 -0.55974198406 0.37806520603 0.66111904532 -0.63745378289 0.38033504047 
0.58574732891 -0.71451254139 0.38258580066 0.58574732891 -0.71451254139 0.38258580066 0.58574732891 -0.71451254139 0.38258580066 

FrenetNormal 3 240 double
0.23518584895 -0.89816509485 0.37146612073 0.23518584895 -0.89816509485 0.37146612073 0.23518584895 -0.89816509485 0.37146612073 
0.30844928979 -0.89160984198 0.3185451933 0.38233360724 -0.88499903612 0.26517578343 0.42944561552 -0.87462078413 0.21362478209 
0.47609997749 -0.86417813135 0.16210486465 0.50011851108 -0.85710755909 0.10823885862 0.52355163531 -0.8501241958 0.054312177892 
0.52432517624 -0.8487880712 -0.012066432926 0.52431055776 -0.8476483723 -0.078878154354 0.4910944315 -0.84720215685 -0.17444357577 
0.45642209875 -0.84678635735 -0.27127012437 0.3660670346 -0.82083338473 -0.40516992348 0.27275536524 -0.79352445601 -0.54103821376 
0.14370080665 -0.70971666394 -0.66070779663 0.012412317476 -0.62237769291 -0.77936496029 -0.06687381371 -0.52690885436 -0.83672049166 
-0.1424120272 -0.4308540794 -0.88965788738 -0.14127131116 -0.35644960279 -0.92022662661 -0.13385686453 -0.28381651422 -0.94896520303 
-0.055211450179 -0.1930552505 -0.97128815433 0.029968915336 -0.10063085145 -0.99302251616 0.16445074504 0.028725401957 -0.9664322575 
0.30395402017 0.16184323312 -0.93492004675 0.42286724236 0.26100351786 -0.84979187225 0.53947129974 0.35635547964 -0.75865069248 
0.6306538427 0.36049836624 -0.67680238127 0.71871865278 0.35345523418 -0.5960937615 0.82145859308 0.19279848471 -0.47947804041 
0.92615521742 0.011659919597 -0.35807470581 0.87525902709 -0.26584687154 -0.13703633433 0.8019215654 -0.55725292604 0.098372475167 
0.69706257559 -0.66051852247 0.22203832117 0.58730703773 -0.73455841668 0.32834603692 0.57198301096 -0.73628404777 0.36085042416 
0.57239756937 -0.72595730167 0.38105425665 0.62322579677 -0.68481795019 0.36968677551 0.68303863845 -0.63818724329 0.35269272363 
0.74730598469 -0.57089459528 0.32496653982 0.81241968681 -0.49967617846 0.29520125094 0.85895789525 -0.42325656779 0.27386522529 
0.9017434787 -0.34578621089 0.25423208111 0.92692268488 -0.2705080305 0.24844332271 0.94832909593 -0.19569960221 0.2456212184 
0.95682593781 -0.12398973222 0.2531433715 0.96239483618 -0.052982628025 0.26301164484 0.95765112397 0.012055607277 0.28007842166 
0.95043668215 0.075663801074 0.29886983993 0.93603347068 0.12823590188 0.32270629752 0.91981414899 0.17801993709 0.34781729137 
0.89949826668 0.21088661348 0.3796405987 0.87809287356 0.23925399231 0.41324909579 0.850788448 0.23939708256 0.46374863939 
0.82183483057 0.2316495115 0.51897041104 0.76651048476 0.17045579093 0.60451992254 0.70344690345 0.093576787345 0.69896996639 
0.57119649093 -0.042343744798 0.78729525523 0.41765782266 -0.19643090111 0.87373600408 0.25155860394 -0.30961721886 0.89664055372 
0.081412096755 -0.4096243775 0.89907232807 -0.046878844356 -0.43250841325 0.89351814191 -0.16106116769 -0.42939589071 0.88527205895 
-0.27106067522 -0.35225584126 0.88396366891 -0.37958669082 -0.24903791301 0.88509923888 -0.48467865395 -0.071007884309 0.84086725914 
-0.58850751734 0.1345392388 0.77994836458 -0.63932876527 0.32355721246 0.66021507038 -0.66980988171 0.5062326055 0.51791346005 
-0.66676436894 0.61808116555 0.39172594071 -0.6503082045 0.70159899239 0.27198405778 -0.63031886151 0.74993893839 0.18299990502 
-0.60885736079 0.78362143403 0.10683147316 -0.58600547406 0.80684881592 0.046619048201 -0.56255052835 0.82554144968 -0.0066726990736 
-0.53484409355 0.84175908595 -0.052421906089 -0.50521930391 0.85685995508 -0.094767771768 -0.46931282863 0.8710782736 -0.13450362524 
-0.4304593897 0.88488255604 -0.17301502854 -0.38448357146 0.8963194359 -0.21231561587 -0.33503559331 0.90660220699 -0.25200093041 
-0.27757938398 0.91177505747 -0.2941890592 -0.21606837406 0.91436060637 -0.33764443572 -0.14601410706 0.90879884043 -0.38205032812 
-0.071469153667 0.89895451154 -0.42695585065 0.0099111679291 0.87964016846 -0.46690909594 0.095019872179 0.8551603631 -0.50416109909 
0.18334970767 0.82388463319 -0.52835683318 0.27350202531 0.78876384072 -0.54516546765 0.36686630074 0.75196855032 -0.53897715606 
0.46211492473 0.71419088781 -0.51929730278 0.5632951143 0.67303744545 -0.46150854092 0.66808233698 0.62983116399 -0.38054544277 
0.76277857816 0.56721216388 -0.2512811718 0.85111611867 0.49236049175 -0.091580545363 0.89469409058 0.3945140859 0.078761542748 
0.90905401076 0.28165722889 0.25605014056 0.89025389946 0.17175602064 0.39493089827 0.8490357387 0.063852997476 0.50784579223 
0.80507643223 -0.030951481289 0.58386988062 0.75919832376 -0.11658697897 0.63407040512 0.72011527079 -0.1948540847 0.66180453087 
0.6859561711 -0.26778177596 0.67325865753 0.65712207134 -0.34015759945 0.66896295284 0.63228172154 -0.41211952212 0.65285487465 
0.60863453959 -0.48743500336 0.62045026864 0.58591339835 -0.56535324649 0.57539761119 0.55935872581 -0.64480913946 0.50986514456 
0.52972561147 -0.72549981187 0.42788677054 0.492226026 -0.79700057339 0.32671390277 0.44819121837 -0.8608666397 0.20959484019 
0.3990015363 -0.90436020862 0.088348922219 0.34538188403 -0.9303461626 -0.036443512094 0.29573454459 -0.93829717555 -0.14921163427 