# vtk DataFile Version 5.1
vtk output
ASCII
DATASET POLYDATA
POINTS 240 float
0 0 0 -0.0664007 -0.205815 0.152639 -0.132801 -0.411629 0.305279 
-0.231956 -0.625639 0.446093 -0.331388 -0.839718 0.586807 -0.460541 -1.06089 0.717814 
-0.590201 -1.28218 0.848654 -0.746543 -1.5093 0.971846 -0.903576 -1.73657 1.09484 
-1.0841 -1.96799 1.2121 -1.26543 -2.19955 1.32915 -1.46656 -2.43272 1.442 
-1.66856 -2.66597 1.55465 -1.88561 -2.89713 1.66378 -2.10347 -3.12818 1.77273 
-2.33016 -3.35207 1.87741 -2.5574 -3.57552 1.98184 -2.78557 -3.78546 2.07926 
-3.01382 -3.99442 2.17618 -3.23367 -4.18289 2.26117 -3.45285 -4.36968 2.34518 
-3.65351 -4.52963 2.41064 -3.85247 -4.68712 2.4744 -4.02285 -4.81391 2.51258 
-4.19033 -4.93758 2.54814 -4.32031 -5.03107 2.55242 -4.44609 -5.12117 2.5532 
-4.5279 -5.18723 2.5201 -4.60431 -5.25034 2.48286 -4.63376 -5.30077 2.41302 
-4.65694 -5.3495 2.33884 -4.63453 -5.40032 2.23707 -4.60555 -5.45144 2.13132 
-4.53732 -5.52011 2.00573 -4.463 -5.59151 1.87705 -4.36019 -5.69345 1.73724 
-4.25265 -5.80048 1.59557 -4.13028 -5.94611 1.45061 -4.00527 -6.09863 1.30506 
-3.87966 -6.29171 1.16179 -3.75393 -6.4925 1.01896 -3.63983 -6.72992 0.881065 
-3.52807 -6.97474 0.744162 -3.43587 -7.24749 0.611903 -3.34787 -7.52622 0.48064 
-3.28174 -7.82113 0.351415 -3.22057 -8.11971 0.222651 -3.17771 -8.42166 0.0919988 
-3.13924 -8.72443 -0.0391065 -3.11059 -9.01859 -0.176148 -3.08442 -9.31057 -0.314689 
-3.05659 -9.58436 -0.462094 -3.02832 -9.85332 -0.611858 -2.98632 -10.0981 -0.771231 
-2.94048 -10.3362 -0.93329 -2.87072 -10.5481 -1.1028 -2.79394 -10.7523 -1.27449 
-2.68688 -10.9321 -1.44835 -2.5705 -11.1043 -1.62289 -2.42232 -11.2566 -1.79167 
-2.26391 -11.4025 -1.95859 -2.07723 -11.5339 -2.11009 -1.88103 -11.6604 -2.25639 
-1.66437 -11.7778 -2.3772 -1.44051 -11.892 -2.48904 -1.20679 -12.0007 -2.56647 
-0.969453 -12.1073 -2.63126 -0.733868 -12.2103 -2.65525 -0.498955 -12.3118 -2.6636 
-0.276685 -12.4093 -2.62822 -0.0594725 -12.5053 -2.57537 0.136355 -12.5954 -2.47962 
0.323272 -12.6831 -2.36599 0.483108 -12.7622 -2.21355 0.631197 -12.8376 -2.04426 
0.749811 -12.9016 -1.84246 0.855126 -12.9604 -1.62598 0.931508 -13.0055 -1.38425 
0.994316 -13.0441 -1.13069 1.03093 -13.0682 -0.859015 1.05476 -13.0853 -0.578519 
1.05649 -13.0888 -0.286157 1.04701 -13.0853 0.0122133 1.02019 -13.0709 0.31757 
0.984256 -13.0507 0.626599 0.935881 -13.0232 0.939124 0.880721 -12.9918 1.25356 
0.817691 -12.9574 1.56913 0.750209 -12.9214 1.88535 0.678645 -12.8873 2.2011 
0.604685 -12.8542 2.51656 0.529326 -12.8274 2.8302 0.453115 -12.8044 3.14273 
0.376998 -12.7921 3.45205 0.300942 -12.7866 3.75934 0.225495 -12.7958 4.06181 
0.150446 -12.8145 4.36112 0.0759758 -12.8513 4.65383 0.00189672 -12.9003 4.94207 
-0.0716655 -12.9699 5.22194 -0.144866 -13.054 5.49596 -0.217255 -13.16 5.76018 
-0.289057 -13.2819 6.0173 -0.359273 -13.4258 6.26385 -0.428302 -13.586 6.50249 
-0.494635 -13.7665 6.73072 -0.558875 -13.9628 6.95087 -0.619231 -14.1764 7.16174 
-0.676469 -14.4039 7.36517 -0.728797 -14.6445 7.56134 -0.777046 -14.896 7.75148 
-0.819653 -15.1561 7.93695 -0.85741 -15.4235 8.11841 -0.889078 -15.6948 8.29797 
-0.915332 -15.9698 8.47584 -0.935233 -16.2447 8.6543 -0.949292 -16.5197 8.83333 
-0.956771 -16.7917 9.01484 -0.957991 -17.0608 9.19874 -0.952322 -17.3252 9.38614 
-0.939877 -17.585 9.57699 -0.920103 -17.8395 9.77131 -0.892876 -18.0886 9.96918 
-0.857778 -18.3328 10.1695 -0.814404 -18.5719 10.3724 -0.762583 -18.8073 10.5758 
-0.701573 -19.0386 10.7798 -0.631548 -19.2674 10.9821 -0.551381 -19.4933 11.1824 
-0.461645 -19.7177 11.3784 -0.360774 -19.9401 11.5696 -0.249772 -20.161 11.7547 
-0.126576 -20.3799 11.9324 0.00730605 -20.5962 12.1028 0.154494 -20.8094 12.2642 
0.312815 -21.0182 12.418 0.485482 -21.2214 12.562 0.669454 -21.4182 12.699 
0.868501 -21.6063 12.8267 1.07856 -21.7861 12.9486 1.30381 -21.9544 13.0623 
1.53921 -22.113 13.1718 1.7891 -22.2578 13.2749 2.04772 -22.3924 13.3753 
2.31925 -22.512 13.4716 2.59771 -22.6216 13.5666 2.88679 -22.7161 13.6595 
3.18083 -22.8014 13.7523 3.48275 -22.8721 13.8448 3.78775 -22.9345 13.9379 
4.09783 -22.9832 14.0321 4.40934 -23.0243 14.1273 4.72331 -23.0527 14.2243 
5.03739 -23.074 14.3226 5.3517 -23.083 14.4231 5.66515 -23.0851 14.5249 
5.97703 -23.0745 14.629 6.28737 -23.057 14.7342 6.59479 -23.0262 14.8415 
6.90022 -22.9881 14.95 7.20173 -22.9358 15.0605 7.50099 -22.8761 15.172 
7.79563 -22.8015 15.2856 8.08788 -22.7199 15.4002 8.37504 -22.6238 15.5171 
8.65978 -22.5219 15.6352 8.93917 -22.4074 15.756 9.2162 -22.2891 15.8782 
9.48779 -22.1622 16.0036 9.75714 -22.0342 16.1306 10.0211 -21.9035 16.2616 
10.2831 -21.7748 16.3944 10.54 -21.6509 16.5319 10.7951 -21.5319 16.6715 
11.0456 -21.4257 16.8165 11.2947 -21.3268 16.9637 11.5398 -21.248 17.1168 
11.7838 -21.1779 17.2721 12.0246 -21.133 17.4337 12.2645 -21.0971 17.5974 
12.5019 -21.0882 17.7674 12.7386 -21.0874 17.9394 12.973 -21.1121 18.1177 
13.2065 -21.1431 18.2978 13.4372 -21.1946 18.484 13.6665 -21.2502 18.6718 
13.8911 -21.3196 18.8656 14.1134 -21.3909 19.061 14.3277 -21.4689 19.2625 
14.5385 -21.547 19.4656 14.7366 -21.6259 19.6749 14.93 -21.7039 19.886 
15.1051 -21.7789 20.1036 15.2745 -21.853 20.3228 15.4203 -21.923 20.5486 
15.5599 -21.9925 20.7759 15.6717 -22.0595 21.0095 15.7773 -22.1269 21.2442 
15.8533 -22.1962 21.4838 15.9235 -22.267 21.7239 15.9649 -22.3459 21.9668 
16.0014 -22.4277 22.2096 16.0121 -22.5248 22.452 16.0191 -22.6259 22.6937 
16.0049 -22.749 22.9312 15.9881 -22.8767 23.1674 15.9556 -23.0318 23.3957 
15.9215 -23.1916 23.6221 15.8769 -23.3813 23.8371 15.8315 -23.5751 24.0499 
15.7802 -23.7983 24.2486 15.7286 -24.025 24.4452 15.6748 -24.2778 24.626 
15.6209 -24.5331 24.805 15.5674 -24.8089 24.9684 15.5141 -25.0863 25.1302 
15.4627 -25.3775 25.2785 15.4117 -25.6694 25.4258 15.3637 -25.9679 25.5634 
15.3161 -26.2663 25.7006 15.2721 -26.5645 25.8333 15.2283 -26.8621 25.9662 
15.1882 -27.1536 26.1005 15.1483 -27.4443 26.2354 15.1113 -27.7247 26.3773 
15.0745 -28.0042 26.5199 15.0392 -28.271 26.674 15.004 -28.5372 26.8288 
14.9681 -28.7905 26.9976 14.9321 -29.0433 27.167 14.8926 -29.2849 27.351 
14.8528 -29.5262 27.5354 14.8059 -29.7595 27.7333 14.7586 -29.9926 27.9315 
14.7004 -30.2216 28.141 14.6418 -30.4506 28.3506 14.5681 -30.68 28.5686 
14.4941 -30.9095 28.7867 14.4008 -31.1439 29.0104 14.3074 -31.3784 29.234 

LINES 2 240
OFFSETS vtktypeint64
0 240 
CONNECTIVITY vtktypeint64
0 1 2 3 4 5 6 7 8 
9 10 11 12 13 14 15 16 17 
18 19 20 21 22 23 24 25 26 
27 28 29 30 31 32 33 34 35 
36 37 38 39 40 41 42 43 44 
45 46 47 48 49 50 51 52 53 
54 55 56 57 58 59 60 61 62 
63 64 65 66 67 68 69 70 71 
72 73 74 75 76 77 78 79 80 
81 82 83 84 85 86 87 88 89 
90 91 92 93 94 95 96 97 98 
99 100 101 102 103 104 105 106 107 
108 109 110 111 112 113 114 115 116 
117 118 119 120 121 122 123 124 125 
126 127 128 129 130 131 132 133 134 
135 136 137 138 139 140 141 142 143 
144 145 146 147 148 149 150 151 152 
153 154 155 156 157 158 159 160 161 
162 163 164 165 166 167 168 169 170 
171 172 173 174 175 176 177 178 179 
180 181 182 183 184 185 186 187 188 
189 190 191 192 193 194 195 196 197 
198 199 200 201 202 203 204 205 206 
207 208 209 210 211 212 213 214 215 
216 217 218 219 220 221 222 223 224 
225 226 227 228 229 230 231 232 233 
234 235 236 237 238 239 
CELL_DATA 1
FIELD FieldData 3
Length 1 1 double
70.299914571 
Tortuosity 1 1 double
0.55496826244 
ClusterLabel 1 1 int
2 
POINT_DATA 240
FIELD FieldData 6
Curvature 1 240 double
0 0.11850642366 0.23701284731 0.21348140597 0.18874625391 0.16691810777 0.14513965404 0.12764491762 0.11026096699 
0.097285052216 0.084462460426 0.075661467358 0.0670368602 0.062093092061 0.057344766702 0.056063940081 0.054999832131 0.058532943776 
0.062397386562 0.075807971911 0.089999605287 0.13008953452 0.17255545419 0.30052250776 0.43719801016 0.90049528048 1.4004230295 
2.4571513266 3.5821664835 3.1982053445 2.613047366 1.7895858474 0.93175362589 0.63220546998 0.4193810524 0.35399442226 
0.3131807567 0.29140929801 0.27303149995 0.25493165652 0.23688462447 0.21714524526 0.19706397775 0.17554732073 0.15372308025 
0.13157349369 0.10935011731 0.092822625359 0.077659772388 0.086037449386 0.10036220764 0.13518153676 0.17545154962 0.22024767818 
0.26630917242 0.29997372045 0.33000003426 0.33851036828 0.34040040081 0.33098523079 0.31792727327 0.31053698178 0.30505713951 
0.31469508783 0.32965862147 0.36012737841 0.39629920599 0.44317957228 0.494169029 0.54207892379 0.5887569938 0.61120343045 
0.62355335319 0.60403583424 0.57069629239 0.5204115283 0.46248074928 0.40506565642 0.34789249039 0.29790714048 0.25142585093 
0.21161556394 0.17518299978 0.14383153773 0.1151509114 0.090317625245 0.067582888275 0.051129803464 0.038230811322 0.038277726962 
0.045919575169 0.059724771493 0.07727794978 0.096462639024 0.11667540367 0.1376467968 0.15911340576 0.18015575029 0.20091126817 
0.21804436076 0.23264175564 0.24075389951 0.24416658613 0.24003875117 0.23025552503 0.21494523816 0.19534529222 0.17350269931 
0.14985919293 0.12732295083 0.10570658985 0.087378552936 0.071876419524 0.062465672686 0.058469491692 0.059651349999 0.065593663792 
0.072338560692 0.079846569399 0.086004894693 0.090836031298 0.093913506604 0.095207597538 0.095933219975 0.096060970371 0.097573784407 
0.10059315889 0.10570238922 0.11316270736 0.12170700059 0.13151264664 0.14137060229 0.15129152321 0.16068354894 0.16941695046 
0.17733216478 0.18419317636 0.18949253442 0.19270968778 0.1937482615 0.19178039533 0.18744019176 0.17971093476 0.17042529217 
0.1588374959 0.14717409395 0.13539487056 0.12446989185 0.1149005623 0.10648999462 0.099984946457 0.094830426781 0.091977944302 
0.090389971933 0.091036947666 0.092446077742 0.095252490781 0.098503482797 0.10260025921 0.10627153303 0.10910243924 0.11068240288 
0.10969633049 0.10689427072 0.10022129048 0.092067353506 0.080631296221 0.068696407865 0.055611436761 0.046946021914 0.048887542084 
0.056528813126 0.07841946135 0.10186339163 0.1293552691 0.15582188275 0.1795010604 0.19957784279 0.20942847089 0.21466176367 
0.20619696168 0.19446444575 0.17259074858 0.15031734637 0.12674490275 0.10567282187 0.093120495462 0.084494899869 0.089914918337 
0.09810354982 0.11670216624 0.13619466126 0.15922542576 0.18230185111 0.20556886087 0.22746477398 0.24331539734 0.25734894512 
0.26290280686 0.26714060034 0.26486385584 0.26236168887 0.25867308785 0.25486005221 0.25034880004 0.24525003865 0.23662622187 
0.22733702753 0.21376446503 0.19984372899 0.18350898973 0.16696056456 0.14880949514 0.13069730318 0.11290211196 0.095063152978 
0.076833931351 0.058681514973 0.041283186489 0.025323442329 0.025044267288 0.026029225504 0.042464701302 0.058780665374 0.073438404245 
0.087700218463 0.095627238215 0.10316403447 0.10335162156 0.10329776229 0.097738925999 0.092143724675 0.085503028636 0.078958153587 
0.076118356825 0.073363388093 0.075570859188 0.077434425377 0.038717212689 0 
Torsion 1 240 double
0 0 0 -0.030763813976 -0.061788338239 -0.074395717902 -0.086688274581 -0.10516698819 -0.12380568861 
-0.1437028876 -0.16364386046 -0.16900981345 -0.17373651118 -0.13694926806 -0.097957744891 0.0032077132183 0.10825904226 0.26198308392 
0.41921506884 0.57325730571 0.7270385632 0.85806810318 0.98701032963 1.1213224044 1.2561814082 1.1977240588 1.1175863708 
0.93052688835 0.7303543557 0.9108866531 1.1421795945 1.9142231335 2.7642595472 2.6799783544 2.450560446 1.8274139913 
1.1386461123 0.82205911505 0.57180138386 0.46461900753 0.38462094862 0.35715698096 0.34030596101 0.36721660876 0.40350475673 
0.54103646923 0.70153063966 1.0787779146 1.5079556209 1.405005098 1.1676221803 0.89162116656 0.60534938252 0.48089728917 
0.40168510934 0.38061585487 0.376610285 0.40265871115 0.43795452069 0.48403906115 0.53359997045 0.55100074348 0.55756102113 
0.51108206128 0.44591882457 0.36686821682 0.28270961054 0.21036394879 0.14255116111 0.091630520729 0.047466739268 0.012844863393 
-0.017801218488 -0.042884668565 -0.065555410871 -0.08028959661 -0.091442653165 -0.093790459981 -0.092007408896 -0.080123078827 -0.063314375253 
-0.036978054013 -0.0058176225626 0.045135223198 0.10649177392 0.26423091954 0.47454238965 0.9403341874 1.5506740653 1.4342243205 
0.8913913305 0.51298286743 0.23456229236 0.086433055135 0.020405208878 -0.011955919428 -0.022340162405 -0.021200193253 -0.012269207451 
0.00020611006191 0.015162459773 0.030893177537 0.04718503157 0.064538594677 0.082688439588 0.10504385626 0.13066329878 0.16840126943 
0.21587078538 0.29311019966 0.39508152948 0.54830550326 0.74557471796 0.85311583664 0.88089864774 0.77043055303 0.53286081911 
0.33570679738 0.17698082985 0.047610463586 -0.052893561447 -0.14806143366 -0.23780270977 -0.31715627544 -0.38558483528 -0.42074971883 
-0.41973305974 -0.3817865341 -0.30229390858 -0.21579381579 -0.12113957927 -0.036202738635 0.037037236575 0.099009947497 0.14695172553 
0.18259709366 0.20239901055 0.21433587868 0.21578601513 0.21477993939 0.21038429084 0.20621283172 0.20236164319 0.19950114809 
0.19810605369 0.197409733 0.19778387419 0.19629532048 0.19185075095 0.18342058782 0.16843633745 0.14872930368 0.12097207095 
0.09200544404 0.060901283243 0.035265021948 0.019653243073 0.0083257850374 0.0051489861595 0.0060351788557 0.014945779911 0.02822615342 
0.050470162733 0.07953426003 0.12313591329 0.19104841491 0.31283901289 0.5335025105 0.98212297111 1.3043609745 1.3232810806 
1.2090366297 0.76188078652 0.40179825617 0.26863405632 0.1582811802 0.10994659047 0.067152320736 0.04008541099 0.011372761942 
-0.022222247032 -0.063536842041 -0.12880877302 -0.2152857975 -0.37067937588 -0.53339656012 -0.72106825323 -0.83110648537 -0.66345579941 
-0.48602259402 -0.27180711557 -0.079889639665 0.023764909435 0.11962025908 0.18292242839 0.24508026431 0.30219263028 0.35957824564 
0.41823902486 0.4735826804 0.51250657373 0.54334268299 0.5316115077 0.51350974959 0.45966194339 0.40470365499 0.34308247342 
0.2836813183 0.23857158342 0.19531288189 0.16488801149 0.13636042107 0.12206243044 0.11018909502 0.11808602508 0.1323186204 
0.2030442308 0.32031208756 0.89454018134 1.4252709936 1.4818814374 1.4882621328 0.88072368174 0.30975243729 0.24615118469 
0.18669336278 0.19353043188 0.20205412675 0.24234260711 0.28405367537 0.35819974757 0.43292856963 0.5244114503 0.61405234746 
0.63246988255 0.64513371288 0.32120581485 0 0 0 
FrenetTangent 3 240 double
-0.30801381066 -0.77990124342 0.54486837213 -0.30801381066 -0.77990124342 0.54486837213 -0.30801381066 -0.77990124342 0.54486837213 
-0.35722355571 -0.77736671472 0.51444479154 -0.4068503325 -0.77481070695 0.483763384 -0.44607470252 -0.767816567 0.45737267727 
-0.48512125361 -0.76074656154 0.43105531585 -0.51566443089 -0.75143291908 0.4098491874 -0.54598769332 -0.74206125153 0.388775246 
-0.56986350999 -0.73169580933 0.37276272926 -0.59351506769 -0.72129580105 0.35692626207 -0.61251721091 -0.71052697704 0.34550632355 
-0.63131543244 -0.69974197689 0.33428009243 -0.64696641923 -0.68887821585 0.32628186475 -0.66245029621 -0.67801027281 0.31845503549 
-0.67613443862 -0.66718299071 0.31203542079 -0.68970609763 -0.65635824992 0.30570375701 -0.70280591916 -0.64562741919 0.29813342993 
-0.7158717344 -0.63490335675 0.29047382982 -0.72970463313 -0.62448650377 0.27761336843 -0.74360029325 -0.61409478612 0.26432738203 
-0.75884908341 -0.60496857565 0.23905538074 -0.77422201395 -0.59595846676 0.21268374505 -0.78848778861 -0.59106018161 0.16026359786 
-0.80264079738 -0.58658069332 0.10519036153 -0.79727987916 -0.59135832753 -0.0086815371701 -0.78973048314 -0.59717414371 -0.12914767838 
-0.67565185899 -0.59840807387 -0.34394203639 -0.5485083295 -0.59908007461 -0.57030494929 -0.28677319126 -0.54902624228 -0.71867374697 
-0.0070925051995 -0.49220896554 -0.85664332928 0.17421289957 -0.4617242643 -0.85292841417 0.34132956184 -0.43503753068 -0.828778235 
0.41800860887 -0.452507143 -0.78338701444 0.48063909431 -0.47683599353 -0.73469621464 0.50041731969 -0.52060537793 -0.68858951911 
0.51305350173 -0.56761485131 -0.64291350762 0.50094034569 -0.61873312451 -0.60139557577 0.48441641652 -0.67058365906 -0.56061868782 
0.45233488003 -0.71781255286 -0.5250224712 0.41729739815 -0.76416333492 -0.49041058213 0.37419208355 -0.8012862502 -0.46267227074 
0.32945690377 -0.83654494997 -0.4363225609 0.2837380512 -0.86110297816 -0.41857546339 0.23780841161 -0.8833680053 -0.4026717828 
0.19727594167 -0.89561424377 -0.39666596663 0.15796757206 -0.90558817967 -0.39290502692 0.12953716716 -0.90704224597 -0.39970399648 
0.1037129413 -0.9064550935 -0.4090329443 0.093534106959 -0.89829615714 -0.42860864079 0.087307792581 -0.88822434907 -0.45077298957 
0.10077077225 -0.87004926125 -0.48076501377 0.1194702663 -0.84971904585 -0.51283886655 0.15955869045 -0.81962745329 -0.54642062093 
0.20562681549 -0.78680687356 -0.5804239392 0.26890434075 -0.74440891177 -0.60551845607 0.33723245086 -0.69920019655 -0.62799843339 
0.41197860909 -0.6500429277 -0.63222205663 0.48869955136 -0.59967071928 -0.63082834016 0.56091993896 -0.55409722965 -0.60910565227 
0.63169014784 -0.51006999385 -0.58083251803 0.69276358648 -0.47652963939 -0.53526533741 0.75056845088 -0.44652418875 -0.48386870295 
0.79762273934 -0.427468283 -0.41745849578 0.84088989308 -0.4122696033 -0.34575941641 0.87198552568 -0.40497979137 -0.25870371138 
0.89860427693 -0.40059898828 -0.16599959231 0.9083998239 -0.39911695125 -0.057477203658 0.91173995527 -0.39874723142 0.057114986109 
0.89126689885 -0.39461610504 0.18279030051 0.86126856733 -0.38898041605 0.31289886477 0.80451812378 -0.37372429595 0.44028073579 
0.73662096688 -0.35445966289 0.56652648464 0.65048258851 -0.32453236812 0.67342383992 0.55643235505 -0.28998030443 0.77192912088 
0.45972038581 -0.24915324348 0.84427436049 0.36180738946 -0.20549478133 0.904815679 0.27250634074 -0.16134848436 0.94372151315 
0.18724546499 -0.11697332662 0.97247736699 0.11428057747 -0.076019131893 0.987763988 0.047309984208 -0.036732656638 0.99648435801 
-0.0080231661565 -0.0029340643357 0.998440969 -0.057463940374 0.028085853054 0.99697289187 -0.097211930334 0.052785253504 0.99311135388 
-0.13186499524 0.074162330947 0.98799171466 -0.15883618612 0.089013463589 0.98298354377 -0.1816172639 0.10030498998 0.97803617377 
-0.19856781736 0.10493262275 0.97436578687 -0.21221952153 0.10578989465 0.97141790357 -0.22179583778 0.099957007207 0.96989032248 
-0.22898125977 0.090199226271 0.96919598535 -0.23375248747 0.073538931698 0.96931262399 -0.23705562404 0.052681162616 0.96992242356 
-0.2393482605 0.024533269077 0.97014989806 -0.24100414346 -0.0082084015167 0.97013645541 -0.24251043938 -0.048236990667 0.96806365154 
-0.2439190882 -0.09302231832 0.96464654244 -0.24523548279 -0.14438035089 0.95723752775 -0.24648950833 -0.20018190228 0.94712975997 
-0.24690703535 -0.26042748698 0.93141776331 -0.24673901341 -0.32378389501 0.91178280642 -0.24465214744 -0.38788838854 0.88627440528 
-0.24117481478 -0.45253497299 0.85650988514 -0.2350963269 -0.51377280626 0.82265893317 -0.2270669726 -0.57245407614 0.78574315734 
-0.21659070976 -0.62474775915 0.7480920767 -0.20421535372 -0.67208391204 0.70987031173 -0.19015537408 -0.71208617868 0.67434970147 
-0.17474259064 -0.74619911243 0.6409982003 -0.15844743666 -0.77366215144 0.61257884827 -0.14141923638 -0.79560066251 0.588256974 
-0.12400869341 -0.81213429162 0.56969511793 -0.1062695747 -0.82402310029 0.55608327748 -0.088289252247 -0.83162792979 0.54801622748 
-0.070094526462 -0.83542477779 0.5448778801 -0.051515689945 -0.83580555427 0.54632112006 -0.032583719367 -0.83304574888 0.55197646452 
-0.012976499752 -0.8276535246 0.56067463333 0.0072727599299 -0.81975834467 0.5722659794 0.028489841958 -0.81014836785 0.58500643797 
0.05065861596 -0.79885217411 0.59887685716 0.073994986998 -0.78698081166 0.61196822684 0.098518744854 -0.77452453189 0.62426734277 
0.12429614958 -0.762735755 0.63412137712 0.15139204498 -0.75164900699 0.64140386014 0.17978047826 -0.74206518061 0.64522991618 
0.20957482992 -0.73411611108 0.64529634988 0.24072725075 -0.72776186642 0.64154363368 0.27340749939 -0.72320179972 0.63349437385 
0.30754843354 -0.7194132497 0.62189863911 0.34338907445 -0.71652246453 0.60617609719 0.38075166313 -0.71286959526 0.58771839735 
0.41994622598 -0.70829940253 0.56596837779 0.46051347806 -0.7012704235 0.54256890321 0.50279011673 -0.69117955965 0.51711539028 
0.54585048556 -0.67726591279 0.49122305959 0.58992066055 -0.65842675708 0.46476532909 0.63363381444 -0.63528659893 0.43893746827 
0.6768709402 -0.60641177086 0.41394943371 0.71832322158 -0.57386102651 0.39041928363 0.75731241775 -0.53623751771 0.36890101414 
0.79334761751 -0.49644447447 0.34940852399 0.82516282242 -0.45355209631 0.33281000434 0.85354901371 -0.41032631144 0.31846269289 
0.87686312235 -0.36660736247 0.30744529358 0.89705381953 -0.32393243309 0.2985213446 0.91245971617 -0.28285685285 0.29280438336 
0.92544577502 -0.2433717794 0.28880856554 0.93459165651 -0.20641077107 0.28754412746 0.94202412091 -0.1709607644 0.28753659505 
0.9466389661 -0.13799551598 0.28959597418 0.95007660706 -0.10605370526 0.2924760181 0.95150764993 -0.075856390621 0.29675492248 
0.9520844673 -0.045965923824 0.30148142365 0.95115149078 -0.016617792756 0.30699902613 0.94948327431 0.013039640737 0.31265322882 
0.94646711791 0.043264128674 0.31855786522 0.94266616509 0.074140622508 0.32443315051 0.93737218492 0.10625751781 0.33025259707 
0.93119994124 0.1389580859 0.33594831791 0.92329312715 0.17281140777 0.34139968045 0.91453510906 0.20662792303 0.34673938916 
0.90403103146 0.24036893755 0.35185006437 0.89296888477 0.27303541742 0.3570216164 0.88071716973 0.30341144181 0.36232293216 
0.86846686909 0.33163585203 0.36795651812 0.85621970304 0.35509182005 0.37432648668 0.84463614121 0.37544900395 0.38137551304 
0.83458255574 0.38866176893 0.38999014489 0.82570181807 0.39804911473 0.39960248785 0.8196359151 0.39825545448 0.41160933748 
0.81486915956 0.39413063312 0.4247499331 0.81335027257 0.37917790898 0.44072489372 0.81279350145 0.35959088914 0.45760291944 
0.81474406265 0.32792661384 0.47683438755 0.81679204595 0.29197837344 0.49633249892 0.81910489558 0.24438310287 0.51655554662 
0.82048268356 0.19401333516 0.53616783766 0.81920610297 0.13576757558 0.55404636789 0.81649335663 0.077263013581 0.5707155161 
0.80951998523 0.017990671101 0.58379683104 0.80138435232 -0.039101642575 0.59587832671 0.78964170094 -0.089428349614 0.60485693503 
0.77733908097 -0.13634058155 0.61360423874 0.76321656311 -0.1721557694 0.6215998025 0.7487626711 -0.2046200266 0.63020765082 
0.73317965232 -0.22566629787 0.64090180205 0.71697830791 -0.24407520273 0.6527668247 0.69856526028 -0.25305045079 0.66881996434 
0.67890111305 -0.26032271803 0.68622838835 0.65453283139 -0.2611917774 0.7087326816 0.62820719171 -0.26130767299 0.7323661654 
0.59413367656 -0.25844229531 0.76046936181 0.55767360789 -0.25571052795 0.78900664199 0.51125227233 -0.25353643842 0.81935575005 
0.46265389295 -0.2523910328 0.84903680138 0.40445672949 -0.25578118808 0.87577232989 0.34511334946 -0.26097280138 0.90071547516 
0.28042095881 -0.27457121874 0.91729416536 0.21604722168 -0.29034545906 0.93144194731 0.15325081952 -0.31689002299 0.93355673348 
0.091974457565 -0.34538540222 0.93322934206 0.038698307204 -0.3841482304 0.9200483844 -0.012485109438 -0.42412097985 0.90482849528 
-0.051925964653 -0.47088273192 0.87816793524 -0.089307308266 -0.51788988691 0.85009726122 -0.11433158227 -0.56636945938 0.81356590337 
-0.13772370288 -0.61427563405 0.77635529446 -0.15060883605 -0.65849056043 0.73477200694 -0.16239488256 -0.70173477274 0.693152001 
-0.16656059493 -0.73824870081 0.65127741408 -0.17009792739 -0.77372441426 0.60985641447 -0.16892241052 -0.80141351796 0.57183731968 
-0.16744749714 -0.8281974928 0.53457285652 -0.16353135074 -0.84760118619 0.50346154368 -0.15949677931 -0.86628522611 0.47326911962 
-0.15440625126 -0.878552356 0.45127012047 -0.14929250479 -0.89025345692 0.43026306527 -0.14395079555 -0.89639718252 0.41899509599 
-0.13863470863 -0.90207859564 0.40869358555 -0.13359790491 -0.90272080278 0.40892647635 -0.12862410666 -0.90295893133 0.40999579814 
-0.12442037508 -0.89825832152 0.42128816529 -0.12032501451 -0.89319841254 0.43318659343 -0.11773330169 -0.8831532274 0.45349411779 
-0.11529593414 -0.87282707923 0.4741094181 -0.11532809075 -0.85800552254 0.49964913377 -0.11555304953 -0.84303187797 0.52520982133 
-0.11940911558 -0.82519391162 0.55116547926 -0.12346694259 -0.80734032509 0.5769605267 -0.13212491912 -0.78913059866 0.59909365461 
-0.14095775566 -0.77099744339 0.62100578513 -0.15481781743 -0.75506570932 0.63656424076 -0.16880279489 -0.73923581788 0.65192655094 
-0.18761784545 -0.72734384186 0.65970457092 -0.20650452286 -0.71552712612 0.66735084364 -0.22958137035 -0.70811313708 0.66728990217 
-0.25246429476 -0.70076145047 0.66722947282 -0.25246429476 -0.70076145047 0.66722947282 -0.25246429476 -0.70076145047 0.66722947282 

FrenetNormal 3 240 double
-0.86384494832 -0.010698284994 -0.50364417197 -0.86384494832 -0.010698284994 -0.50364417197 -0.86384494832 -0.010698284994 -0.50364417197 
-0.84882022244 0.043693139123 -0.52338366687 -0.83366816838 0.098545507512 -0.54329044562 -0.81984106616 0.14833471237 -0.55056791174 
-0.80603661268 0.19803736743 -0.55762949218 -0.79613833569 0.24602447092 -0.55060707436 -0.78634108049 0.29396720669 -0.54322041521 
-0.78056115754 0.34330171466 -0.51940502668 -0.77492096788 0.3926846321 -0.49501820409 -0.76976390139 0.4414606775 -0.45676987694 
-0.76462802451 0.49021010571 -0.41791358906 -0.75598269926 0.52960337046 -0.38083540653 -0.74715103161 0.56849984777 -0.34385163666 
-0.73510010243 0.58484591682 -0.3423560858 -0.72284796942 0.59978258535 -0.34307854862 -0.7035776006 0.57835183986 -0.40612586759 
-0.68380141299 0.55430001948 -0.47366506807 -0.63585688602 0.48351152594 -0.58382522624 -0.58560767674 0.40889912278 -0.69747255367 
-0.49509482379 0.30721834944 -0.79472444064 -0.40088805858 0.20305423937 -0.89047215877 -0.27438038592 0.11139010008 -0.94086119023 
-0.14458280601 0.020999105968 -0.98663035545 0.025813047178 -0.019560369696 -0.98342703724 0.20076197775 -0.054531263852 -0.97473147789 
0.43270867407 0.0046494418851 -0.85655195842 0.67164566242 0.075377041949 -0.72494516083 0.81759525742 0.14859885599 -0.44049476491 
0.95114653332 0.2221532319 -0.13566522255 0.94144690611 0.11429827943 0.12758527437 0.91108609095 -0.019721480024 0.38483879359 
0.71461561477 -0.26549313235 0.53326034513 0.49234169609 -0.52862430202 0.66477595993 0.23801788563 -0.65088480338 0.66565834214 
-0.02164757345 -0.74966686001 0.64476851892 -0.20275066267 -0.75115775829 0.60415837202 -0.36985253745 -0.73530963826 0.56003371198 
-0.49210040072 -0.68807258087 0.51681865168 -0.60582600179 -0.63487162538 0.47377641532 -0.6945120792 -0.5691525159 0.42397152277 
-0.77813966698 -0.50090448641 0.37280043704 -0.84480265452 -0.42464078889 0.3007830098 -0.90783037057 -0.34665944821 0.22429850937 
-0.94745698529 -0.25000828301 0.092791476531 -0.98177613371 -0.14912272462 -0.05119489355 -0.87838214021 0.012018825788 -0.31365433136 
-0.74199437312 0.18759670762 -0.60449794165 -0.36538402283 0.31859189577 -0.74570810463 0.071914137954 0.43832408763 -0.84911613355 
0.3327511863 0.47108376326 -0.78163434415 0.54665708771 0.48071245053 -0.66870313499 0.658102937 0.49440332893 -0.54912922424 
0.74090404053 0.50922987366 -0.42769821411 0.7853258495 0.52587985075 -0.29765018634 0.81848416985 0.54306496559 -0.16507325123 
0.82653630983 0.54351019109 -0.020236956146 0.82686347124 0.53880468141 0.12837144969 0.8017907103 0.5019429356 0.28166234593 
0.76853352993 0.45471973592 0.43646204462 0.70447609264 0.37683706686 0.57623032987 0.63003654628 0.28861974521 0.71093184655 
0.53136345916 0.20277968851 0.80773338866 0.42415355654 0.11777707742 0.89118380337 0.30795572031 0.062302412592 0.94064407211 
0.18845197747 0.017688601556 0.97760221819 0.065210705342 0.0058062053814 0.99058423356 -0.059464734996 0.0064835381645 0.99436610576 
-0.18542688466 0.03215223302 0.97352453671 -0.31190371805 0.067817472704 0.94283359117 -0.43019070281 0.1158994704 0.88445992089 
-0.54506525063 0.16915511728 0.81455178197 -0.63718084214 0.22594132088 0.72435981739 -0.7194250791 0.28425885029 0.62537004892 
-0.77474156614 0.33716413006 0.5213633808 -0.81790772701 0.38762729718 0.41509298967 -0.84017322721 0.42954917181 0.31605165088 
-0.85263347919 0.46746402033 0.22040171935 -0.85436868044 0.49539153118 0.13697624258 -0.85087541944 0.51845021492 0.059510187501 
-0.84651917726 0.52943371106 -0.0052462752568 -0.84172598258 0.53430318818 -0.063567501398 -0.84350854745 0.52392834746 -0.11041309419 
-0.84874760131 0.50554046788 -0.15122662329 -0.87328822844 0.44313500392 -0.18118689423 -0.90835698644 0.35671994849 -0.20522720617 
-0.9138744004 0.091574210076 -0.19560701328 -0.90267197498 -0.2746954674 -0.16694206109 -0.70778043076 -0.58163966114 -0.10228956565 
-0.4051246035 -0.85377957111 -0.01652437817 -0.22315757177 -0.96916036906 0.019655970304 -0.11458237517 -0.98921467996 0.025683376142 
-0.060377264059 -0.99759488589 0.010330683931 -0.040432754769 -0.99861880649 -0.01849439883 -0.031164254531 -0.99696662848 -0.057484547226 
-0.028864815756 -0.99356755277 -0.10311022458 -0.024059927389 -0.98623598717 -0.15491838928 -0.017561213945 -0.97624583687 -0.21090626375 
-0.0047120217573 -0.96095603051 -0.26993558394 0.012582505552 -0.94195646492 -0.33109391614 0.036403675773 -0.91716767583 -0.3913602379 
0.06495429738 -0.88818379724 -0.45098017528 0.098894871504 -0.85458957384 -0.50545159047 0.13687791001 -0.81753759183 -0.55606161401 
0.18025567108 -0.77838894351 -0.59785477155 0.22782038101 -0.73761303178 -0.63280498831 0.28433201023 -0.69645579655 -0.6552280918 
0.34802828678 -0.65499234701 -0.66759154373 0.42925853071 -0.60973290416 -0.65895215023 0.52505545522 -0.56131986687 -0.63286423899 
0.64511037117 -0.48970189404 -0.55740549879 0.7860119985 -0.39814217973 -0.43951870246 0.88997019225 -0.26395302089 -0.25701410406 
0.96108977836 -0.091871022465 -0.017071459389 0.96227273319 0.059944458661 0.18231899428 0.89915910765 0.19312781905 0.34442759494 