# vtk DataFile Version 5.1
vtk output
ASCII
DATASET POLYDATA
POINTS 240 float
0 0 0 -0.217079 -0.12332 0.0184951 -0.434158 -0.246641 0.0369902 
-0.643026 -0.382545 0.0610574 -0.851824 -0.518556 0.0851717 -1.0526 -0.665142 0.114831 
-1.25324 -0.811909 0.144584 -1.44628 -0.967427 0.179644 -1.63912 -1.12317 0.214841 
-1.8248 -1.28621 0.255125 -2.01023 -1.44951 0.295585 -2.18889 -1.61892 0.341001 
-2.36726 -1.78859 0.386634 -2.53919 -1.96341 0.437286 -2.71077 -2.1385 0.488204 
-2.87606 -2.31792 0.544509 -3.04096 -2.49762 0.60115 -3.1996 -2.68085 0.663908 
-3.3578 -2.86434 0.727108 -3.50948 -3.05052 0.797867 -3.66063 -3.23692 0.869244 
-3.80469 -3.42472 0.950735 -3.9481 -3.61265 1.03315 -4.0832 -3.79962 1.13018 
-4.21747 -3.9865 1.2287 -4.34092 -4.16727 1.34955 -4.46317 -4.34735 1.4729 
-4.56995 -4.50971 1.62937 -4.67483 -4.66988 1.7899 -4.75945 -4.79286 1.98883 
-4.84138 -4.91087 2.19288 -4.90739 -4.98109 2.42238 -4.9711 -5.04441 2.65556 
-5.03308 -5.07308 2.89586 -5.09478 -5.09638 3.13727 -5.16532 -5.10437 3.37722 
-5.23732 -5.10981 3.61693 -5.31986 -5.1127 3.85324 -5.40428 -5.11513 4.08893 
-5.4943 -5.12181 4.32246 -5.58538 -5.1293 4.55557 -5.67116 -5.14464 4.79021 
-5.75588 -5.16156 5.02515 -5.81678 -5.18928 5.26578 -5.87258 -5.21931 5.50763 
-5.87549 -5.26323 5.75161 -5.8664 -5.3103 5.99607 -5.78365 -5.3698 6.21988 
-5.68325 -5.43227 6.43874 -5.53032 -5.50099 6.62072 -5.36412 -5.57128 6.79337 
-5.17547 -5.64641 6.93822 -4.98084 -5.72283 7.07567 -4.77847 -5.80565 7.19709 
-4.57394 -5.89027 7.31402 -4.36835 -5.98321 7.42233 -4.16245 -6.07859 7.5281 
-3.95948 -6.18409 7.62965 -3.75742 -6.29271 7.72989 -3.56146 -6.41294 7.82866 
-3.36746 -6.53692 7.92696 -3.18262 -6.67371 8.02542 -3.00087 -6.81482 8.12394 
-2.83143 -6.96946 8.22344 -2.66632 -7.12887 8.32327 -2.51662 -7.3018 8.42405 
-2.37258 -7.47971 8.52518 -2.24631 -7.67008 8.62644 -2.12687 -7.86524 8.72774 
-2.02645 -8.07102 8.82772 -1.93363 -8.28106 8.92716 -1.85963 -8.49945 9.02347 
-1.79348 -8.72133 9.11846 -1.7446 -8.94936 9.2084 -1.70321 -9.18007 9.29617 
-1.67651 -9.41513 9.37714 -1.65644 -9.65215 9.45505 -1.64814 -9.89228 9.52453 
-1.64535 -10.1339 9.59005 -1.65115 -10.3777 9.64566 -1.66113 -10.6226 9.69644 
-1.67652 -10.8692 9.73591 -1.69465 -11.1165 9.76965 -1.71501 -11.365 9.79076 
-1.73654 -11.614 9.80525 -1.75716 -11.8632 9.80613 -1.77727 -12.1126 9.79959 
-1.79343 -12.3613 9.77885 -1.80735 -12.6095 9.75007 -1.81461 -12.8557 9.70721 
-1.81796 -13.1007 9.65609 -1.8126 -13.3423 9.59195 -1.80194 -13.5817 9.51989 
-1.7814 -13.8165 9.43667 -1.75462 -14.0484 9.34641 -1.71772 -14.275 9.24738 
-1.6742 -14.4981 9.14261 -1.62106 -14.7159 9.03156 -1.56142 -14.9299 8.91627 
-1.49324 -15.139 8.79708 -1.41908 -15.3447 8.67515 -1.33752 -15.5463 8.55133 
-1.25061 -15.7449 8.42613 -1.15759 -15.9406 8.30078 -1.05998 -16.1341 8.17532 
-0.957459 -16.3258 8.05126 -0.85112 -16.5162 7.9283 -0.741147 -16.7064 7.80827 
-0.628258 -16.8964 7.6906 -0.513145 -17.0879 7.5776 -0.396186 -17.2805 7.46848 
-0.278832 -17.4764 7.36618 -0.161141 -17.6752 7.26975 -0.0456014 -17.8793 7.18298 
0.0680255 -18.0882 7.10481 0.176003 -18.3038 7.03992 0.278786 -18.5258 6.98725 
0.371876 -18.7543 6.95149 0.455748 -18.989 6.93181 0.527433 -19.2276 6.93034 
0.587134 -19.4699 6.94676 0.635809 -19.7123 6.97897 0.673271 -19.955 7.02723 
0.70341 -20.1957 7.08703 0.725847 -20.4344 7.15898 0.744932 -20.6707 7.23871 
0.76037 -20.9045 7.32691 0.775865 -21.1363 7.4202 0.791425 -21.3657 7.51923 
0.809807 -21.5933 7.62171 0.831473 -21.8189 7.72822 0.858263 -22.0425 7.83734 
0.891221 -22.2638 7.94962 0.93125 -22.4826 8.06424 0.980086 -22.6982 8.18175 
1.03774 -22.91 8.30156 1.10675 -23.1169 8.42433 1.1859 -23.3182 8.54934 
1.27857 -23.5123 8.67735 1.38202 -23.6988 8.80731 1.50035 -23.8748 8.93998 
1.62905 -24.0416 9.07395 1.77258 -24.1951 9.20975 1.92501 -24.3385 9.34587 
2.0906 -24.4671 9.48248 2.26306 -24.5861 9.6185 2.44605 -24.6905 9.75361 
2.63407 -24.7864 9.88752 2.83007 -24.8689 10.0195 3.02963 -24.9444 10.15 
3.23505 -25.0085 10.2779 3.44296 -25.067 10.4042 3.65511 -25.1161 10.5277 
3.86902 -25.1612 10.6496 4.08604 -25.1989 10.7686 4.30435 -25.2337 10.8861 
4.52502 -25.2629 11.0007 4.74669 -25.29 11.1139 4.97025 -25.3131 11.2243 
5.19461 -25.3346 11.3333 5.42058 -25.3531 11.4395 5.64724 -25.3705 11.5445 
5.87532 -25.3855 11.6467 6.10403 -25.3995 11.7476 6.33408 -25.4115 11.8457 
6.56469 -25.4225 11.9426 6.79659 -25.4316 12.0366 7.02902 -25.4396 12.1293 
7.26269 -25.4453 12.2191 7.49685 -25.4498 12.3076 7.73219 -25.4515 12.3931 
7.96798 -25.4518 12.4773 8.20485 -25.4484 12.5584 8.44208 -25.4434 12.6382 
8.68022 -25.4339 12.715 8.9186 -25.4224 12.7906 9.15761 -25.4054 12.8633 
9.39668 -25.3862 12.935 9.63597 -25.3608 13.0042 9.87514 -25.3329 13.0727 
10.114 -25.2981 13.1393 10.3525 -25.2608 13.2055 10.5901 -25.2162 13.2707 
10.8272 -25.1693 13.3358 11.0628 -25.115 13.401 11.2978 -25.0587 13.4665 
11.5307 -24.9952 13.533 11.7628 -24.9301 13.6002 11.9925 -24.8585 13.6696 
12.2214 -24.7854 13.7399 12.4475 -24.7069 13.8135 12.6728 -24.6273 13.8881 
12.8951 -24.5433 13.9669 13.1167 -24.4585 14.047 13.3351 -24.3705 14.1321 
13.5528 -24.2821 14.2186 13.7673 -24.1919 14.3109 13.9812 -24.1015 14.4046 
14.1918 -24.0106 14.505 14.4017 -23.9199 14.6069 14.6083 -23.8301 14.7161 
14.8142 -23.7407 14.827 15.0166 -23.6538 14.946 15.2183 -23.5676 15.0667 
15.4161 -23.4855 15.1963 15.6132 -23.4045 15.3276 15.806 -23.3296 15.4687 
15.998 -23.2559 15.6113 16.1849 -23.1905 15.7645 16.371 -23.1267 15.9192 
16.551 -23.0737 16.085 16.7299 -23.0226 16.2522 16.9015 -22.9849 16.4305 
17.072 -22.9493 16.6101 17.2336 -22.9301 16.8002 17.3941 -22.913 16.9914 
17.5441 -22.9149 17.1917 17.6928 -22.9189 17.3928 17.8298 -22.9441 17.6007 
17.9656 -22.9714 17.809 18.0889 -23.021 18.021 18.2112 -23.0725 18.2331 
18.3212 -23.1466 18.4453 18.4303 -23.2224 18.6573 18.5279 -23.3204 18.8659 
18.625 -23.4197 19.0741 18.7122 -23.5402 19.2753 18.799 -23.6618 19.4761 
18.878 -23.8032 19.6669 18.9567 -23.9455 19.8571 19.0298 -24.1062 20.0345 
19.1027 -24.2675 20.2114 19.172 -24.4457 20.3729 19.2413 -24.6243 20.534 
19.309 -24.818 20.6773 19.3767 -25.0119 20.8203 19.4446 -25.2189 20.9437 
19.5125 -25.4259 21.0669 19.582 -25.6437 21.1687 19.6516 -25.8615 21.2706 

LINES 2 240
OFFSETS vtktypeint64
0 240 
CONNECTIVITY vtktypeint64
0 1 2 3 4 5 6 7 8 
9 10 11 12 13 14 15 16 17 
18 19 20 21 22 23 24 25 26 
27 28 29 30 31 32 33 34 35 
36 37 38 39 40 41 42 43 44 
45 46 47 48 49 50 51 52 53 
54 55 56 57 58 59 60 61 62 
63 64 65 66 67 68 69 70 71 
72 73 74 75 76 77 78 79 80 
81 82 83 84 85 86 87 88 89 
90 91 92 93 94 95 96 97 98 
99 100 101 102 103 104 105 106 107 
108 109 110 111 112 113 114 115 116 
117 118 119 120 121 122 123 124 125 
126 127 128 129 130 131 132 133 134 
135 136 137 138 139 140 141 142 143 
144 145 146 147 148 149 150 151 152 
153 154 155 156 157 158 159 160 161 
162 163 164 165 166 167 168 169 170 
171 172 173 174 175 176 177 178 179 
180 181 182 183 184 185 186 187 188 
189 190 191 192 193 194 195 196 197 
198 199 200 201 202 203 204 205 206 
207 208 209 210 211 212 213 214 215 
216 217 218 219 220 221 222 223 224 
225 226 227 228 229 230 231 232 233 
234 235 236 237 238 239 
CELL_DATA 1
FIELD FieldData 3
Length 1 1 double
59.816495717 
Tortuosity 1 1 double
0.54063930994 
ClusterLabel 1 1 int
3 
POINT_DATA 240
FIELD FieldData 6
Curvature 1 240 double
0 0.06399330964 0.12798661928 0.12250639213 0.1164374062 0.11026051119 0.10408177157 0.099081257009 0.094111213784 
0.090149139541 0.086222125088 0.083539059351 0.080910552768 0.079886762929 0.07894817929 0.079595247052 0.080341418027 0.08431540448 
0.088522026282 0.097602248466 0.10708121977 0.12598041229 0.14574384528 0.18328396438 0.22263467188 0.28916008826 0.35873313555 
0.43729097547 0.51695072392 0.52549524522 0.52455773624 0.43894186663 0.34111277193 0.2575740355 0.17625516054 0.13978808039 
0.11079629936 0.090832958993 0.072478647653 0.078758635799 0.089719140849 0.16117846734 0.24485977796 0.37726401771 0.52010888513 
0.65012586105 0.77723341827 0.74678350503 0.67858544783 0.5463561142 0.3979504581 0.2984139859 0.21187463709 0.16605426297 
0.13161768824 0.12156345024 0.11866489802 0.12596247739 0.13639732802 0.14974278204 0.16402609714 0.17868773033 0.19347688646 
0.20710303526 0.2203194883 0.22963805178 0.23752290876 0.24122788766 0.24332895984 0.24090004508 0.23665913553 0.2290918824 
0.22013865277 0.20921244539 0.19743048862 0.18668035877 0.17639580937 0.16782326532 0.16005388427 0.15551588192 0.15255317668 
0.15306400249 0.15533357821 0.15991008074 0.16569919865 0.17301088791 0.18115307064 0.18873185683 0.19599187919 0.20083626953 
0.20426348909 0.20470439793 0.20332930701 0.19885369737 0.19242433622 0.18371888513 0.1735276531 0.16168071827 0.14871443507 
0.13616385314 0.1239042621 0.11174603335 0.09966125555 0.089235920406 0.080055167258 0.073507674412 0.069003905979 0.070046383284 
0.075542663985 0.087381705598 0.10449011782 0.12755170893 0.15572931317 0.18892558645 0.22658289886 0.26457293013 0.3028688481 
0.32976346585 0.34581750308 0.34301241358 0.32166251612 0.28992081896 0.24761118989 0.20655038464 0.16680299752 0.13337221451 
0.10681212368 0.090399019666 0.085401275826 0.088135260672 0.099866166168 0.11404038398 0.13115562588 0.14932920208 0.16882070404 
0.18827299924 0.20767477806 0.22602869362 0.24298545815 0.25674036451 0.26607670659 0.27040620401 0.26758306619 0.26033762566 
0.24655086239 0.23149937275 0.21451042995 0.19721408498 0.17942990611 0.16200875845 0.14518459544 0.12910506602 0.11429479841 
0.10060349288 0.088889887799 0.078260650511 0.069619420844 0.061959703102 0.056167251949 0.051230399444 0.047983354266 0.045370655052 
0.044059178326 0.043106578203 0.042918951888 0.043152521121 0.04431955076 0.045661318546 0.04740595484 0.049478798489 0.052339339792 
0.055308843861 0.058550754844 0.061822079918 0.065170059893 0.068385024843 0.071238355193 0.073847264404 0.075762332962 0.07743487107 
0.078387902178 0.079042384187 0.078770334505 0.078302058366 0.077196046237 0.075990137348 0.074443839499 0.072927002123 0.07151554259 
0.070106960526 0.06870919774 0.067486179088 0.066954855965 0.066616621591 0.06708432286 0.067815092235 0.069705752802 0.071869256343 
0.0753060271 0.078961094023 0.08369672697 0.088598823852 0.094377046711 0.10042239208 0.10796659153 0.11560898512 0.12384054351 
0.13232772131 0.14246044907 0.15257215809 0.16253813725 0.17251072012 0.18253283078 0.19240342362 0.20103856344 0.20943929437 
0.21574987932 0.22165364793 0.22356321969 0.22520745817 0.2239595639 0.22254237901 0.21905608645 0.21548327261 0.21070997601 
0.20597418031 0.20183839886 0.1977781673 0.19514079218 0.19257195956 0.19156589602 0.19059304219 0.1905749674 0.19056469187 
0.19085598772 0.19115050173 0.19163327915 0.19130818372 0.095654091862 0 
Torsion 1 240 double
0 0 0 0.043646297312 0.087662478501 0.085320726385 0.082186530965 0.083868822142 0.085675677628 
0.094667604493 0.10390944688 0.12117958652 0.13880184446 0.16323572042 0.18803127521 0.2210805519 0.25464568621 0.29156163399 
0.32871908184 0.35761201062 0.38582875147 0.38951610659 0.39095305935 0.37005888971 0.3468902539 0.31960512501 0.29185833335 
0.28126479677 0.27277496128 0.31245066255 0.35854843539 0.5386419185 0.73806170598 1.134116889 1.5607173761 1.6160892884 
1.6095897716 1.961574214 2.3774468868 2.3375670115 2.2110941521 1.4690771347 0.6027077622 0.31047598985 0.14127370327 
0.067040997356 0.014347783969 -0.033965234479 -0.081228831222 -0.19013959993 -0.31462439102 -0.5224989001 -0.75255152568 -0.96210962872 
-1.1659380803 -1.0929491808 -0.93872040642 -0.73766570624 -0.52220302888 -0.38186132447 -0.26572526691 -0.19138601781 -0.13113558055 
-0.088173266656 -0.051301087123 -0.021424879054 0.0058780981304 0.031692470433 0.056935633886 0.084336175211 0.11259966769 0.1452614282 
0.1797558004 0.22145214055 0.26627222585 0.31517961722 0.36593128086 0.41538560212 0.46423129364 0.49618594867 0.51990622342 
0.51875437382 0.50500904354 0.4772943746 0.44223684816 0.40427523434 0.36472957287 0.33031535383 0.2988044509 0.27373039599 
0.25243262524 0.23642306814 0.22362931663 0.21588699673 0.21132777072 0.21170442382 0.21530310912 0.227628259 0.24585299057 
0.27483906406 0.3113580769 0.37327305943 0.45359091855 0.56926109788 0.71144551736 0.86954782866 1.0400043246 1.0845258976 
1.0279179112 0.89925240679 0.71072373363 0.55077275384 0.4153807293 0.30904315762 0.22853176625 0.16317929496 0.11176325021 
0.066732696784 0.02777359412 -0.013212270635 -0.056191118113 -0.11314198511 -0.18430168551 -0.294346276 -0.44528704399 -0.66963645975 
-0.97383387833 -1.1345989644 -1.1340026764 -0.98049387609 -0.6490505159 -0.3933933123 -0.22896018609 -0.11006714041 -0.047884383698 
-0.0035670773261 0.017731283413 0.030952407973 0.033403884293 0.031873064995 0.024846677742 0.016363483346 0.0057991358881 -0.0043833811105 
-0.014001107221 -0.023081472779 -0.031338647704 -0.040951947423 -0.052717358228 -0.066569229859 -0.083852170404 -0.10303487986 -0.12545583179 
-0.1490223759 -0.17461368757 -0.19923020247 -0.22205958995 -0.23846391009 -0.24264493138 -0.23591266469 -0.20762665422 -0.17132191488 
-0.11856850094 -0.063532514052 -0.003631042721 0.053279055924 0.10355962591 0.1482316277 0.17997276391 0.20582537186 0.21754551197 
0.22759395435 0.23346315238 0.23916428304 0.24442741996 0.24988225637 0.25585827578 0.26211902158 0.26918802298 0.27654909864 
0.2847766613 0.29387551445 0.30567837259 0.31793934194 0.33168917271 0.3457159121 0.36068619198 0.37504254303 0.38720291788 
0.39969029577 0.41340720514 0.42571523395 0.43244644388 0.43665005267 0.43030367408 0.42137520804 0.40106208365 0.37965542203 
0.35314558661 0.32650617324 0.299225349 0.27256503915 0.2491705946 0.22612320334 0.20502316664 0.18482391305 0.17002935812 
0.15559774322 0.14350255485 0.13209170628 0.12542561366 0.11917412876 0.11603220183 0.11337422417 0.11466229437 0.11634207686 
0.12151462735 0.12713753281 0.13718210524 0.14754036527 0.1613178202 0.17527374764 0.19141100578 0.20746449106 0.22235562802 
0.23687417338 0.24543125323 0.2536216085 0.25490531732 0.25591046626 0.25056445012 0.2450392682 0.23436307008 0.22361289305 
0.21000219836 0.19497489705 0.097076109081 0 0 0 
FrenetTangent 3 240 double
-0.85100653545 -0.518206867 0.085144110878 -0.85100653545 -0.518206867 0.085144110878 -0.85100653545 -0.518206867 0.085144110878 
-0.83473467822 -0.54130401404 0.096244872564 -0.8183249239 -0.56459689961 0.1074397085 -0.80240095479 -0.58425591691 0.11846068343 
-0.78648528971 -0.6038528168 0.12947868638 -0.77130684635 -0.62034800662 0.14013181253 -0.75614746908 -0.63676297979 0.15077550221 
-0.74170398172 -0.65068604282 0.16115940476 -0.72728539488 -0.66452243072 0.17153427123 -0.71347252135 -0.67632832209 0.18193068389 
-0.6996862142 -0.68804515659 0.19232804156 -0.68626406826 -0.69809157664 0.20324618053 -0.67286125831 -0.70804930211 0.21419197161 
-0.65954723444 -0.71650058505 0.22633255409 -0.64623875969 -0.72485771533 0.23854781104 -0.63260720231 -0.73166083025 0.2530470727 
-0.6189523597 -0.73835194406 0.26771094732 -0.60436988135 -0.74299773233 0.28651169417 -0.58971150554 -0.74747617578 0.30565091239 
-0.57320508908 -0.74843720069 0.33206219614 -0.55652912759 -0.74907552664 0.35914064186 -0.53617052917 -0.74246953962 0.39886839475 
-0.51543684736 -0.73512570592 0.43988450301 -0.48772942919 -0.71152668537 0.50046507196 -0.45923990974 -0.68610465322 0.56323978604 
-0.42113972739 -0.62942725811 0.64379138802 -0.38186087884 -0.56891665811 0.72652317436 -0.34070295091 -0.47584758498 0.80066526657 
-0.29929447907 -0.37843738211 0.87366206622 -0.27559973395 -0.28243873339 0.9129915206 -0.25445985327 -0.1866436742 0.94746510786 
-0.25838815411 -0.12363464982 0.95632001273 -0.2662105414 -0.06571860173 0.96119531644 -0.28661040223 -0.039642122494 0.95672463908 
-0.30910650864 -0.018872238067 0.9506962982 -0.32857149259 -0.017460172322 0.94410553289 -0.34749627649 -0.019498014856 0.93741453353 
-0.35079870334 -0.031932794219 0.93579709932 -0.35113288235 -0.04634299158 0.93514364249 -0.32229486323 -0.067518101055 0.94328840246 
-0.28756347074 -0.090059859443 0.95321057996 -0.20476029742 -0.11940196849 0.96656027532 -0.1116560282 -0.15020129552 0.98064443879 
0.03484730369 -0.18363069189 0.96911079004 0.1934617632 -0.21765659883 0.95176691582 0.35178803452 -0.2425736298 0.88714782251 
0.51004526074 -0.2653083259 0.81120237461 0.61460748459 -0.27974261023 0.72710733039 0.70560465521 -0.29207994842 0.64095344079 
0.75368440865 -0.30545235084 0.57799806237 0.79034995539 -0.31910003629 0.52121250075 0.80682928659 -0.33671008478 0.48398014311 
0.81766515969 -0.35542789069 0.45221427259 0.81819918596 -0.37811897258 0.43216082653 0.81570984415 -0.40197612461 0.41554472243 
0.80613528565 -0.42938380575 0.40597969625 0.79438066047 -0.45788395739 0.39858423251 0.7763345409 -0.48936066818 0.39553811011 
0.75626116202 -0.52179649247 0.39389344213 0.72981333754 -0.55644957307 0.39469169638 0.70121682353 -0.59185004344 0.39631340758 
0.66609708334 -0.62828512428 0.3987244652 0.62867938847 -0.66508467018 0.40141358804 0.58541521059 -0.70110814501 0.40325611908 
0.54000060218 -0.73684616841 0.40478726003 0.49052571742 -0.76992384745 0.40401048511 0.43949281964 -0.80198069667 0.40234811455 
0.3869528118 -0.83010727283 0.39735381261 0.33380995992 -0.85666173977 0.39102673812 0.28197954432 -0.87890432927 0.38090188915 
0.23069597717 -0.89935030318 0.36919463413 0.18313924879 -0.91593090595 0.35373854413 0.13719898061 -0.9308349622 0.3366564534 
0.096420858376 -0.94282390439 0.31605532187 0.05797199711 -0.95349749023 0.29386633046 0.025332335812 -0.96218884663 0.26837878808 
-0.004582021798 -0.96995026823 0.24134377733 -0.028379968324 -0.97635356315 0.21121098559 -0.049196164447 -0.9820947713 0.17956802561 
-0.06382444358 -0.98672073007 0.14495343928 -0.075319600187 -0.9907820056 0.10883423202 -0.080576248457 -0.9935587135 0.070117188584 
-0.082553680806 -0.99566019995 0.030034615877 -0.07835707252 -0.99600786138 -0.011982419589 -0.070792805704 -0.99539889097 -0.055054616559 
-0.057405081081 -0.99243240241 -0.098982291418 -0.040722505329 -0.98813205489 -0.14339398666 -0.019123375915 -0.98105433245 -0.18699024448 
0.0053601316485 -0.97234721674 -0.23010811234 0.033276741746 -0.96094302315 -0.27064539372 0.06328104933 -0.94789871464 -0.30961339954 
0.094946745287 -0.93282369701 -0.34463674857 0.12765934351 -0.91646905446 -0.37717442346 0.16035976672 -0.89916615488 -0.40506778792 
0.19305224236 -0.88124425419 -0.42992944974 0.22441275579 -0.86357766079 -0.45009982602 0.25487278773 -0.84608366952 -0.46709862897 
0.28335386004 -0.8297915758 -0.47985797282 0.31044966062 -0.81434081037 -0.4896496953 0.33533428669 -0.8007356454 -0.49577185791 
0.35861661239 -0.78846787208 -0.49923491918 0.37962055795 -0.77851912266 -0.49943065976 0.39891571839 -0.77030964117 -0.49717590984 
0.41589883147 -0.76478361889 -0.49182087485 0.43108751974 -0.76134028136 -0.48405964847 0.4437184625 -0.76102565674 -0.47297710813 
0.45429545812 -0.76322348339 -0.45922745203 0.46173906937 -0.76906099346 -0.4414820463 0.4665795613 -0.77792224053 -0.42041709471 
0.46711845329 -0.79085343182 -0.39419064262 0.46396065783 -0.80728223143 -0.36352852602 0.45476736348 -0.8274974331 -0.32612738217 
0.44020918123 -0.85107832549 -0.28273599187 0.41795484746 -0.8762525386 -0.23163490285 0.38862501955 -0.90289157884 -0.17344586501 
0.35234166952 -0.92651301003 -0.1097201624 0.30944677387 -0.94726523918 -0.040730089996 0.26473841022 -0.96123880535 0.027668865522 
0.21824680306 -0.96854668625 0.095486556106 0.17630698417 -0.97000360456 0.15704922187 0.13899610253 -0.96551039143 0.21225084545 
0.10915139624 -0.95863350369 0.25984873736 0.087159046784 -0.94924964783 0.29944960113 0.072414430111 -0.93982865932 0.3329416607 
0.065553312254 -0.93036728092 0.35978905603 0.06483464216 -0.92148042191 0.38256237293 0.071026225798 -0.91323989723 0.40075235157 
0.082358122404 -0.90511714693 0.41664770095 0.099671474102 -0.89713144319 0.42987293626 0.12140555546 -0.88833329738 0.4421029014 
0.1484608855 -0.87855721204 0.45313485612 0.1794732784 -0.86684359929 0.46395665442 0.2154133345 -0.85271721656 0.47451674852 
0.25476451295 -0.83550908811 0.48509813988 0.29851079136 -0.81433024885 0.49570697195 0.34462342614 -0.78916791115 0.50607138908 
0.39389120275 -0.7586942422 0.51610991963 0.4438049004 -0.72409442894 0.5252400664 0.4946099691 -0.68380053651 0.53311664353 
0.54388770132 -0.64057764506 0.53935213684 0.59098352429 -0.59317046928 0.54324322468 0.63487565887 -0.545073813 0.54522717566 
0.6740290044 -0.49595730012 0.54439015338 0.7095971629 -0.44806928194 0.54200196554 0.73967312 -0.4020632131 0.53723752408 
0.76667228189 -0.35827964503 0.53150111433 0.78878870357 -0.31802308907 0.52422223315 0.80855251938 -0.28040726556 0.5164602443 
0.8244476055 -0.24713397984 0.50790381175 0.83868640223 -0.21648658592 0.4991953477 0.85010197838 -0.19031514392 0.49022773907 
0.86042571648 -0.1664451617 0.48129132303 0.86881969429 -0.14664287585 0.47241003809 0.87652925965 -0.12866947281 0.46362493895 
0.88298406887 -0.11404902158 0.45501618044 0.88901889964 -0.10078198379 0.44650578999 0.89425474702 -0.090089732522 0.43818253878 
0.89923977931 -0.080298708266 0.4299248713 0.90372945178 -0.072287607363 0.4217967317 0.90807609195 -0.064775309717 0.41368313202 
0.91212933252 -0.058286198237 0.40559935782 0.91609643582 -0.05197650371 0.39749631259 0.91987993074 -0.046049250582 0.38935218963 
0.92360960747 -0.040025309235 0.38115530752 0.92722001145 -0.033787085889 0.37284149972 0.93077907847 -0.027227074286 0.3644695176 
0.93421978524 -0.019925161978 0.35596341136 0.93758829303 -0.01212715827 0.34741550009 0.94078352327 -0.003138535201 0.33876725677 
0.94386590051 0.0064680916051 0.3301108939 0.94666614525 0.017619727753 0.32143423218 0.94928303677 0.029432613811 0.31284454213 
0.95142209865 0.042968757213 0.30448150555 0.95329481364 0.057133769078 0.29634397267 0.95444339802 0.07300851708 0.28881952801 
0.95525139568 0.089384244995 0.28168131135 0.95509256649 0.10718210943 0.27563948383 0.95455111762 0.12529037294 0.27012212983 
0.95287456369 0.14431948701 0.26616071391 0.95081629574 0.1634270595 0.26281844975 0.94757339803 0.18277812363 0.26139769103 
0.94399112696 0.20197341819 0.26063731616 0.93930589242 0.22066246161 0.26202318885 0.93434985629 0.23900853658 0.26405452761 
0.92847108882 0.25618597826 0.26828523223 0.92239625532 0.27289409752 0.27310948528 0.91562010872 0.28792348656 0.2800568154 
0.9087246929 0.30239599149 0.2875145445 0.90138082474 0.3147746122 0.29689137379 0.89398072647 0.32654809643 0.30669748532 
0.88635805068 0.33592624877 0.31820283903 0.87871579416 0.34468945232 0.33007613567 0.8709918094 0.35088591307 0.34348519406 
0.86326103558 0.35647759012 0.35721636526 0.85550032815 0.35940272082 0.3723677611 0.84771865871 0.36173817704 0.38782266614 
0.83983916656 0.36132181901 0.40469394743 0.83191283386 0.36031348599 0.4218563714 0.82375464044 0.35637487675 0.44045995168 
0.81551824298 0.35183282214 0.45932863376 0.80687024537 0.34411473926 0.47959258853 0.7980941396 0.33576342446 0.50010843216 
0.78859920474 0.32385897505 0.52203765226 0.77891870076 0.31128913905 0.54418213551 0.76812478207 0.29472698351 0.56761819775 
0.75707875078 0.27745749616 0.59121549064 0.74440974464 0.25563456027 0.61585070592 0.73142525888 0.23308382994 0.64054956096 
0.71625344768 0.20548705818 0.66568965173 0.70072987433 0.17718910721 0.69074262888 0.6825680848 0.14363231216 0.71514225396 
0.66404818965 0.10944332156 0.73928658336 0.64260835629 0.070099505775 0.76134927105 0.62086092945 0.030255627556 0.78298299767 
0.59637079416 -0.014047140687 0.80079182131 0.57169203095 -0.058651367384 0.8180334781 0.54516128462 -0.10621536799 0.82970658756 
0.51859616638 -0.1538779555 0.84075867294 0.49165639433 -0.20261514028 0.84504159587 0.46481720631 -0.25130842823 0.84873575464 
0.43920737872 -0.29946519938 0.84523390702 0.41379599964 -0.34748731465 0.84122807185 0.39113809353 -0.39364107959 0.83022940928 
0.36871845754 -0.43962524955 0.81883188658 0.35011114357 -0.48289589972 0.80105260167 0.33172982406 -0.52600282065 0.78297040911 
0.31760473339 -0.56602617421 0.75918345589 0.30366871836 -0.60590459828 0.73517109634 0.29404362824 -0.64247862965 0.70601947242 
0.28456282001 -0.67892663117 0.67670733489 0.27923011631 -0.7117512742 0.64278043128 0.2739954286 -0.74446998204 0.60875093954 
0.27255069254 -0.77309252947 0.57075470681 0.27116148452 -0.80163739601 0.53270296349 0.2730206672 -0.82563793038 0.49140385071 
0.27486422649 -0.84943677959 0.45045178929 0.27486422649 -0.84943677959 0.45045178929 0.27486422649 -0.84943677959 0.45045178929 

FrenetNormal 3 240 double
0.51278297765 -0.78497800738 0.34765377284 0.51278297765 -0.78497800738 0.34765377284 0.51278297765 -0.78497800738 0.34765377284 
0.53520247529 -0.76020549532 0.36625979569 0.55781196867 -0.73522304671 0.38502349669 0.57688168539 -0.71107350499 0.40048878628 
0.59589089309 -0.68693820099 0.41589769277 0.61155967751 -0.66317602113 0.43031449502 0.62714207166 -0.63942349103 0.4447056394 
0.63937613546 -0.61468485339 0.46079521985 0.65149373559 -0.58991191635 0.47694387634 0.65964158161 -0.5619770352 0.49774852235 
0.66761531561 -0.53390347229 0.51875737842 0.67037686535 -0.49989512143 0.54654585156 0.67286166194 -0.46557164908 0.57469430438 
0.66804609187 -0.42223193419 0.61006684583 0.66277424889 -0.37832870414 0.64589089283 0.64731826746 -0.32207206608 0.68700882237 
0.63112829408 -0.26492509231 0.72850829299 0.60218492195 -0.19306581552 0.76952341985 0.57219808992 -0.12000280485 0.81049891859 
0.53415172177 -0.03677540198 0.83903853093 0.49536594663 0.047384513939 0.86643723626 0.45961693729 0.13674164281 0.87218945183 
0.42417722816 0.22662811745 0.87573693232 0.40130654719 0.32337940994 0.85066817731 0.37984547686 0.42090058853 0.82239012486 
0.36642865878 0.5275652912 0.75534989635 0.35399839993 0.63535136946 0.68355581606 0.32217047743 0.7362159618 0.57463799337 
0.28775619977 0.83615768935 0.46077033837 0.18247250088 0.90584834017 0.33590072194 0.066967250862 0.97117585493 0.20944428414 
-0.18484598872 0.92978038259 0.072224648583 -0.45783328493 0.87180658215 -0.066666940023 -0.68030657196 0.59083048273 -0.17813730347 
-0.89436085748 0.27268733348 -0.28503746273 -0.85643114465 -0.11445741467 -0.29937465506 -0.77359339252 -0.51389947747 -0.29721547705 
-0.21195986743 -0.67851650671 -0.10403780694 0.44064485452 -0.79851677959 0.12543337666 0.68991036501 -0.64708673615 0.18788836116 
0.85769320651 -0.44082228538 0.21660269938 0.91927634053 -0.34354705054 0.15215339942 0.95810239438 -0.2696266477 0.067740462719 
0.95959962485 -0.21745879186 -0.075718026379 0.95263052423 -0.17022450339 -0.23256829025 0.89368487738 -0.1339693055 -0.39100947455 
0.82228651633 -0.10034451474 -0.54983181687 0.73122622786 -0.10841988728 -0.65965054811 0.63519871563 -0.1270300379 -0.75708941972 
0.53260895848 -0.21204532061 -0.80591532065 0.42827392343 -0.3147215427 -0.84181224003 0.28131371028 -0.47483616439 -0.79830572611 
0.12243678067 -0.65100883327 -0.73260040288 -0.046195920675 -0.76823493306 -0.5845954514 -0.21769172895 -0.86816149626 -0.41243734815 
-0.33534592514 -0.88735303108 -0.27278679896 -0.43643347146 -0.88170301871 -0.14313857411 -0.5060185624 -0.85543453244 -0.065227097621 
-0.56545286217 -0.8225223157 -0.0039863511672 -0.61420606921 -0.78637169057 0.027042229952 -0.65935890792 -0.74912946711 0.047886935115 
-0.70020163044 -0.71006337879 0.050859304818 -0.73952601658 -0.67035479261 0.047535738167 -0.77494245067 -0.62874269252 0.031856809424 
-0.80892147709 -0.58643044938 0.011633379682 -0.83745393076 -0.54302719756 -0.018061277702 -0.86389642046 -0.49920530287 -0.051390243368 
-0.88290577522 -0.45609456001 -0.093025427035 -0.89894187602 -0.41326827789 -0.1379830979 -0.90531581391 -0.37339507204 -0.19137425105 
-0.9076638506 -0.33475231464 -0.24827935514 -0.89741362863 -0.30072975329 -0.31403590314 -0.88169910171 -0.2687111324 -0.38363163164 
-0.84865520312 -0.24159982403 -0.46176027187 -0.8077919539 -0.21670279083 -0.54373912838 -0.74408717933 -0.19513802076 -0.62929433078 
-0.66966662744 -0.17513653463 -0.7165273251 -0.57242794828 -0.155389828 -0.79517675139 -0.46406543208 -0.13576732637 -0.86964168828 
-0.34363051903 -0.11340940988 -0.92335920418 -0.21708299998 -0.089666473191 -0.9665716968 -0.094849249232 -0.061922592681 -0.98669142079 
0.025117007918 -0.032075651955 -0.9946726382 0.13190727641 0.0015037173657 -0.98613937922 0.231510642 0.03711895683 -0.96859822405 
0.31729106536 0.075535246352 -0.94125336549 0.39525061351 0.11553634051 -0.90836167476 0.4614387196 0.15677473418 -0.86970012709 
0.52072091301 0.19873901022 -0.82765359667 0.57105607481 0.23995214556 -0.78175529164 0.61595047416 0.28070850615 -0.73351469123 
0.65436172612 0.31872319938 -0.68242005191 0.68868770713 0.3550102666 -0.62952697712 0.71882984149 0.38680296493 -0.57406419715 
0.74624085373 0.41566183913 -0.51692397073 0.77163233335 0.43838620673 -0.45640002972 0.79565849514 0.45696330226 -0.39358850701 
0.8195328378 0.46720607896 -0.3240101571 0.84330090707 0.47161483247 -0.24969502816 0.86652943674 0.46296465042 -0.16168690326 
0.88936699569 0.44485147158 -0.063756317531 0.9028721933 0.40249804704 0.05877181753 0.9093781199 0.34196443824 0.19974811459 
0.87426975014 0.24126463779 0.36403858401 0.80686371755 0.10939107667 0.54642363496 0.67684500856 -0.036942309769 0.69458504644 
0.49654642309 -0.19488737411 0.81526383836 0.31627848784 -0.31354883924 0.87730045586 0.13603601587 -0.39957469887 0.89061895924 
-0.01229791226 -0.44908106554 0.88660563714 -0.13321043552 -0.46720349295 0.86769777751 -0.23287939328 -0.46356511456 0.85159011473 
-0.31366518172 -0.44058379769 0.83797151579 -0.38291380303 -0.40174901916 0.82890331771 -0.44155567391 -0.34833928396 0.82401855267 
-0.49007845707 -0.28358267825 0.82089345455 -0.52897981258 -0.20803724482 0.81944148237 -0.55454165882 -0.12915765557 0.81888033383 