# vtk DataFile Version 5.1
vtk output
ASCII
DATASET POLYDATA
POINTS 240 float
0 0 0 -0.195936 -0.289678 0.0903131 -0.391872 -0.579357 0.180626 
-0.607822 -0.868256 0.299987 -0.823942 -1.15715 0.419594 -1.05091 -1.44416 0.557117 
-1.27807 -1.73114 0.694945 -1.50714 -2.01518 0.839647 -1.73626 -2.29915 0.984527 
-1.95881 -2.57928 1.12517 -2.18113 -2.85929 1.26567 -2.38924 -3.13483 1.39069 
-2.59672 -3.41017 1.51503 -2.7839 -3.68088 1.61267 -2.96999 -3.95133 1.70889 
-3.13199 -4.21754 1.76803 -3.29249 -4.48348 1.82484 -3.42804 -4.74614 1.83639 
-3.5618 -5.00856 1.84468 -3.67298 -5.2692 1.80336 -3.78231 -5.52969 1.75797 
-3.87411 -5.79027 1.66355 -3.96431 -6.05085 1.56462 -4.04345 -6.31354 1.42239 
-4.12147 -6.57645 1.27574 -4.19458 -6.84338 1.09587 -4.26713 -7.11076 0.912287 
-4.33881 -7.38365 0.708235 -4.41038 -7.65722 0.501673 -4.48173 -7.93694 0.28789 
-4.55306 -8.21749 0.0731446 -4.62116 -8.50354 -0.137336 -4.6888 -8.7904 -0.347202 
-4.74727 -9.0805 -0.545111 -4.80432 -9.3711 -0.741162 -4.84465 -9.66107 -0.922735 
-4.88219 -9.95094 -1.1019 -4.89553 -10.2352 -1.26957 -4.90454 -10.5184 -1.4352 
-4.8835 -10.7908 -1.59684 -4.85673 -11.0612 -1.75773 -4.79693 -11.3166 -1.92442 
-4.73046 -11.569 -2.09228 -4.63167 -11.8048 -2.27483 -4.52595 -12.037 -2.46054 
-4.39245 -12.254 -2.66576 -4.25265 -12.4675 -2.8754 -4.09288 -12.6698 -3.10301 
-3.92832 -12.8694 -3.33493 -3.75381 -13.0635 -3.57615 -3.57678 -13.2561 -3.81971 
-3.40074 -13.4483 -4.05771 -3.22496 -13.6403 -4.29422 -3.06061 -13.8349 -4.50654 
-2.89947 -14.0302 -4.71208 -2.7585 -14.2276 -4.87448 -2.62346 -14.4257 -5.02421 
-2.51479 -14.6217 -5.11512 -2.41422 -14.8171 -5.18793 -2.34332 -15.0032 -5.1924 
-2.28197 -15.1864 -5.17485 -2.25091 -15.3516 -5.08721 -2.23005 -15.5107 -4.97594 
-2.23807 -15.6434 -4.80089 -2.25626 -15.7669 -4.60335 -2.30084 -15.8571 -4.35504 
-2.35512 -15.935 -4.08804 -2.43316 -15.9752 -3.78766 -2.5203 -16.0009 -3.47447 
-2.62896 -15.9867 -3.14704 -2.74622 -15.9565 -2.81392 -2.88317 -15.8861 -2.48463 
-3.02832 -15.7988 -2.15694 -3.1912 -15.6726 -1.84757 -3.36177 -15.5296 -1.54613 
-3.54708 -15.3504 -1.27215 -3.73903 -15.155 -1.01056 -3.94079 -14.9281 -0.779481 
-4.14715 -14.6864 -0.562708 -4.35598 -14.4199 -0.373728 -4.56602 -14.1414 -0.198296 
-4.76906 -13.8467 -0.0434679 -4.96855 -13.5439 0.100928 -5.15049 -13.2355 0.234467 
-5.32318 -12.9242 0.362298 -5.46822 -12.6193 0.489435 -5.59816 -12.318 0.616194 
-5.69261 -12.0354 0.750847 -5.76698 -11.7636 0.889968 -5.80192 -11.5223 1.04246 
-5.81374 -11.2991 1.20279 -5.78707 -11.1163 1.37804 -5.737 -10.958 1.56236 
-5.65434 -10.8469 1.75929 -5.55115 -10.7654 1.96418 -5.42525 -10.734 2.17648 
-5.28452 -10.7353 2.39363 -5.13313 -10.7859 2.61159 -4.97453 -10.8698 2.8301 
-4.81722 -10.999 3.04303 -4.6608 -11.1599 3.25206 -4.51539 -11.3594 3.45062 
-4.37795 -11.5869 3.64158 -4.25738 -11.8448 3.81925 -4.14947 -12.1255 3.98695 
-4.05994 -12.4276 4.14036 -3.98467 -12.7464 4.28269 -3.92534 -13.0782 4.41078 
-3.87881 -13.4204 4.52742 -3.84312 -13.7684 4.62991 -3.81643 -14.1213 4.72065 
-3.79436 -14.4747 4.79683 -3.77626 -14.8284 4.86049 -3.75691 -15.1797 4.90867 
-3.73645 -15.5287 4.94309 -3.71023 -15.8742 4.96131 -3.67873 -16.2163 4.96463 
-3.63884 -16.5553 4.95209 -3.59098 -16.8915 4.92447 -3.53388 -17.2261 4.88307 
-3.46772 -17.5591 4.82812 -3.39288 -17.8922 4.76338 -3.30922 -18.2255 4.68867 
-3.21824 -18.5605 4.6096 -3.11955 -18.8971 4.52595 -3.01505 -19.236 4.44404 
-2.90423 -19.5774 4.36401 -2.78879 -19.9207 4.2915 -2.66815 -20.2663 4.22744 
-2.54346 -20.6126 4.17561 -2.41407 -20.9597 4.138 -2.28053 -21.3054 4.11572 
-2.142 -21.6493 4.11189 -1.9987 -21.9892 4.12473 -1.84945 -22.324 4.15832 
-1.6945 -22.6521 4.20819 -1.53221 -22.9714 4.27903 -1.36328 -23.2816 4.36431 
-1.18551 -23.5796 4.46885 -1.0004 -23.8665 4.58497 -0.80516 -24.1382 4.71707 
-0.602266 -24.3976 4.85743 -0.388443 -24.6397 5.00958 -0.167182 -24.8692 5.16682 
0.0650819 -25.0802 5.33159 0.303915 -25.2789 5.49902 0.552813 -25.4591 5.67053 
0.806641 -25.6279 5.84344 1.06829 -25.7788 6.01855 1.33245 -25.9197 6.19509 
1.60071 -26.0442 6.37399 1.86845 -26.16 6.55548 2.13528 -26.2612 6.74139 
2.39844 -26.355 6.93161 2.65513 -26.4355 7.12945 2.90561 -26.5093 7.3331 
3.14473 -26.5707 7.54742 3.37641 -26.6256 7.76813 3.59394 -26.668 8.00099 
3.80453 -26.7037 8.23949 4.0014 -26.7263 8.48911 4.19357 -26.7419 8.74231 
4.37607 -26.7433 9.00285 4.55737 -26.7378 9.26406 4.73611 -26.7177 9.52669 
4.91761 -26.691 9.7869 5.10524 -26.6502 10.0417 5.29911 -26.6038 10.2916 
5.50741 -26.5447 10.5299 5.72422 -26.4816 10.7616 5.96146 -26.4084 10.9777 
6.20786 -26.3327 11.187 6.47716 -26.2503 11.3793 6.75473 -26.1668 11.566 
7.05386 -26.0803 11.7376 7.35923 -25.994 11.9054 7.68154 -25.908 12.0628 
8.00748 -25.8232 12.2189 8.34369 -25.7417 12.3709 8.68093 -25.6621 12.5238 
9.0212 -25.588 12.6793 9.36041 -25.5162 12.8376 9.69628 -25.4518 13.0044 
10.0298 -25.39 13.1749 10.3556 -25.3369 13.3574 10.6787 -25.2865 13.5437 
10.9924 -25.2458 13.7429 11.3037 -25.208 13.9451 11.6065 -25.1808 14.1583 
11.9079 -25.1566 14.3733 12.2037 -25.1439 14.5953 12.4991 -25.1345 14.8176 
12.7931 -25.1377 15.0413 13.0876 -25.1442 15.2643 13.3845 -25.1648 15.4835 
13.6825 -25.1889 15.7011 13.9854 -25.2288 15.911 14.2893 -25.2725 16.1189 
14.5981 -25.334 16.3174 14.9073 -25.3996 16.5141 15.2186 -25.4854 16.7018 
15.5294 -25.5757 16.8882 15.8369 -25.6887 17.0677 16.1425 -25.8064 17.2467 
16.4373 -25.9495 17.422 16.729 -26.0971 17.5973 17.0012 -26.2722 17.7724 
17.2692 -26.4518 17.9478 17.5091 -26.6597 18.1255 17.7438 -26.8717 18.3037 
17.9426 -27.1114 18.4853 18.1359 -27.3545 18.6675 18.287 -27.623 18.8529 
18.4325 -27.8941 19.0386 18.5316 -28.1864 19.2261 18.6254 -28.4803 19.4134 
18.6706 -28.7897 19.6002 18.711 -29.1 19.7867 18.7029 -29.4193 19.9698 
18.6907 -29.739 20.1523 18.6326 -30.0614 20.329 18.5713 -30.3837 20.5051 
18.4694 -30.7038 20.6735 18.3653 -31.0234 20.8412 18.2295 -31.3375 21.0003 
18.0926 -31.6511 21.1589 17.9365 -31.958 21.3088 17.7803 -32.2645 21.4584 
17.6214 -32.5651 21.6003 17.4631 -32.8655 21.742 17.3218 -33.1626 21.8779 
17.1819 -33.4596 22.0136 17.0808 -33.7571 22.1457 16.9813 -34.0548 22.2777 
16.9442 -34.3575 22.4086 16.9084 -34.6603 22.5396 16.9593 -34.9731 22.672 
17.0111 -35.2861 22.8045 17.1743 -35.6141 22.9413 17.3375 -35.9421 23.078 

LINES 2 240
OFFSETS vtktypeint64
0 240 
CONNECTIVITY vtktypeint64
0 1 2 3 4 5 6 7 8 
9 10 11 12 13 14 15 16 17 
18 19 20 21 22 23 24 25 26 
27 28 29 30 31 32 33 34 35 
36 37 38 39 40 41 42 43 44 
45 46 47 48 49 50 51 52 53 
54 55 56 57 58 59 60 61 62 
63 64 65 66 67 68 69 70 71 
72 73 74 75 76 77 78 79 80 
81 82 83 84 85 86 87 88 89 
90 91 92 93 94 95 96 97 98 
99 100 101 102 103 104 105 106 107 
108 109 110 111 112 113 114 115 116 
117 118 119 120 121 122 123 124 125 
126 127 128 129 130 131 132 133 134 
135 136 137 138 139 140 141 142 143 
144 145 146 147 148 149 150 151 152 
153 154 155 156 157 158 159 160 161 
162 163 164 165 166 167 168 169 170 
171 172 173 174 175 176 177 178 179 
180 181 182 183 184 185 186 187 188 
189 190 191 192 193 194 195 196 197 
198 199 200 201 202 203 204 205 206 
207 208 209 210 211 212 213 214 215 
216 217 218 219 220 221 222 223 224 
225 226 227 228 229 230 231 232 233 
234 235 236 237 238 239 
CELL_DATA 1
FIELD FieldData 3
Length 1 1 double
82.109029189 
Tortuosity 1 1 double
0.78118758169 
ClusterLabel 1 1 int
3 
POINT_DATA 240
FIELD FieldData 6
Curvature 1 240 double
0 0.054511582193 0.10902316439 0.085782532275 0.061882983093 0.043720941737 0.025656977438 0.018010512133 0.010633464907 
0.028957060912 0.048174592333 0.074922524413 0.10200073722 0.14011256169 0.17881024164 0.22583622907 0.27338273573 0.309858049 
0.34553543842 0.34374366518 0.33888623316 0.2991155331 0.25614178092 0.20569946566 0.15449646342 0.11272142183 0.072003721635 
0.04334270211 0.016160332102 0.021822132347 0.031863155294 0.046590989564 0.061994806236 0.076442771667 0.090742255351 0.10760692853 
0.12489913329 0.14740744654 0.17084536329 0.19511638816 0.21954570357 0.23119788216 0.24026882098 0.22774040717 0.21058356066 
0.1792592413 0.14472168068 0.10753502545 0.069713691307 0.044288876508 0.021995813966 0.04971619172 0.090738016363 0.1531287042 
0.22149348282 0.34453475151 0.48362238142 0.7250830687 0.99804315825 1.2234686747 1.4335774954 1.3308460353 1.1226627952 
0.88813711019 0.64433170024 0.49494842883 0.3802951394 0.3171246406 0.27370916611 0.25306302919 0.24152462729 0.23927353621 
0.24089215796 0.24239803706 0.24385501574 0.23811769711 0.22913417118 0.21189573363 0.19078462151 0.16708373884 0.14212034303 
0.12332710118 0.10765798793 0.11178601208 0.12632022385 0.16489123198 0.21657321996 0.29403414044 0.38608050958 0.49758165146 
0.62049626003 0.71375696256 0.78898488438 0.79358364307 0.75367635375 0.68563594508 0.59923086126 0.52439705842 0.45738609344 
0.40467909288 0.36198486742 0.32560059289 0.29378874656 0.26387615955 0.23538801704 0.20833406567 0.18239321787 0.15915280157 
0.13808091359 0.12236140409 0.11108848595 0.10756165667 0.11069162252 0.11835475218 0.13004736078 0.13961774024 0.14723703807 
0.14816783071 0.14273906104 0.13099251525 0.11303348962 0.093231830801 0.071556307721 0.056260445459 0.047674226469 0.049264021452 
0.061922463212 0.076093278455 0.091965513867 0.10657437035 0.11971311317 0.13118469536 0.14064951014 0.1484010752 0.1540191595 
0.15806902042 0.16009828586 0.16106186977 0.16060454497 0.15950116425 0.15750622636 0.15521082302 0.15248618333 0.14918100947 
0.14501712882 0.13999821893 0.13366947703 0.12650040008 0.11799774798 0.11046979981 0.10454469812 0.10248507971 0.10701435326 
0.11476325823 0.12820267454 0.14101927417 0.1526940432 0.16053094839 0.16106655164 0.15724810295 0.14483040168 0.13190314963 
0.11793066522 0.10978900335 0.11407620004 0.12296910508 0.14206925564 0.15930115177 0.17222568355 0.18028846617 0.17668305079 
0.16900743103 0.15115630031 0.13158132704 0.10751391559 0.083966681799 0.061833680989 0.043364082114 0.035293817761 0.032226373522 
0.044000628951 0.055560894549 0.066457053774 0.07589569868 0.080597422049 0.083714344402 0.081431204037 0.078203866515 0.071599208393 
0.065561378301 0.061654821602 0.059317792219 0.063193475123 0.067725382156 0.074996311638 0.081828502956 0.086726257821 0.091210333491 
0.093763906251 0.096437531021 0.099705413248 0.10366391583 0.11125726242 0.11956234039 0.13186102225 0.1444865733 0.15907333952 
0.17347440571 0.18668002795 0.19932458557 0.20807909519 0.21607537231 0.21838490563 0.2201568895 0.21754577783 0.21455070248 
0.20813195091 0.20145276635 0.19221660333 0.18272100513 0.17039756358 0.15774487149 0.14106800604 0.12405538241 0.10238411398 
0.080418985706 0.05375210011 0.029077346129 0.041921070886 0.056318763369 0.10614691999 0.15643624806 0.21998425527 0.28329189746 
0.33730542555 0.39039513085 0.38944120299 0.38686978803 0.19343489401 0 
Torsion 1 240 double
0 0 0 -0.036186598521 -0.07267986313 -0.20939664717 -0.34782665376 -1.2394617263 -2.1505762402 
-1.2224117717 -0.23027238212 -0.15377360336 -0.1174345005 -0.10844503489 -0.1009077624 -0.097301968333 -0.093941891667 -0.093121660546 
-0.092484481356 -0.095646701845 -0.099119782308 -0.10575578989 -0.11268197426 -0.1159893265 -0.11892809398 -0.078617886483 -0.033457326648 
1.4927160259 3.2005230229 1.9438802386 0.29197748335 -0.099056829732 -0.3082351175 -0.40198350965 -0.47780104421 -0.51248568417 
-0.5403148417 -0.51681596862 -0.48416952574 -0.42914551077 -0.36986975711 -0.31963192185 -0.27121992869 -0.23529357718 -0.20204272031 
-0.16762060591 -0.13293284548 -0.019549371796 0.11268828318 1.714553364 3.6876927419 2.4963054492 0.46328872276 -0.026778263452 
-0.085482956704 -0.1045865749 -0.11206813846 -0.1040959644 -0.091368794147 -0.079136444476 -0.06706353699 -0.05992638021 -0.054452959622 
-0.037209563636 -0.015819926316 0.016530412811 0.052912274443 0.078163702021 0.099144149091 0.10180812064 0.097145501985 0.081063424784 
0.060223239856 0.03545346424 0.008979287845 -0.022045201027 -0.055122879675 -0.10615393148 -0.1656075534 -0.28008583755 -0.42138864453 
-0.64567351881 -0.91197462969 -0.94816522537 -0.86340029383 -0.70206927479 -0.49897493529 -0.37147861353 -0.28675485444 -0.23512835923 
-0.20291892551 -0.18772596654 -0.18288086385 -0.18917979809 -0.20250100218 -0.21577987384 -0.22903111183 -0.23053798874 -0.22410501591 
-0.20689856147 -0.18215066992 -0.1535216914 -0.12208033103 -0.086650517393 -0.048229363805 0.0027962068772 0.06360431023 0.1508075434 
0.25920686567 0.37536500202 0.49796892237 0.53589392821 0.5010479919 0.42775329089 0.32028191015 0.23979847571 0.18412654027 
0.15425607002 0.14891814042 0.17597741015 0.2348939259 0.39927259165 0.67090090147 0.96153393494 1.272154695 1.1884484541 
0.67582512448 0.32590262265 0.15901855213 0.041864067906 -0.017423261339 -0.064078162328 -0.095527362638 -0.12247654153 -0.14382192018 
-0.16323155839 -0.1801470695 -0.19468090759 -0.20603918165 -0.21285440026 -0.21340020235 -0.20646990577 -0.18885946821 -0.16183265318 
-0.12087744645 -0.06794276479 0.0033434529457 0.092107903099 0.20860954818 0.33195773892 0.46656469366 0.54308680977 0.52060067822 
0.45775445968 0.32357413391 0.19801554877 0.088263488132 -0.018060778563 -0.11786387628 -0.23777194094 -0.39738731531 -0.59082215182 
-0.85363024402 -1.0153437828 -0.96156629978 -0.85358684287 -0.62548409244 -0.43519733375 -0.33209744492 -0.24874266043 -0.21277612637 
-0.18709069398 -0.18710801576 -0.20206146694 -0.25593937658 -0.37441687286 -0.66852449535 -0.99486095002 -1.4126857025 -1.5560671169 
-0.88526662858 -0.34112553925 -0.19006534349 -0.058273269442 0.010897409063 0.082189849068 0.16071199492 0.25152000642 0.38627361425 
0.51457560844 0.61861953538 0.67576511953 0.54727143013 0.41311180269 0.25530304256 0.10691147791 4.1184246087e-05 -0.10218610252 
-0.18274602378 -0.25758777373 -0.30412457573 -0.34123300049 -0.3287183871 -0.31108242242 -0.26470998655 -0.21910589788 -0.17811189237 
-0.13899691405 -0.11197817323 -0.086215305114 -0.069159821075 -0.053058527823 -0.044113665479 -0.035587026317 -0.030470514634 -0.025510957581 
-0.021950912639 -0.018339690905 -0.014226006119 -0.0099181653003 -0.0034940237309 0.0035385513368 0.01800753583 0.035215956654 0.090434056557 
0.18850203022 0.972167984 1.6894309722 1.1561047755 0.63384914825 0.36400250285 0.10213297898 0.069605699267 0.037659559795 
0.028184176453 0.018710151676 0.0093156029442 0 0 0 
FrenetTangent 3 240 double
-0.55632363744 -0.78113948567 0.28341685616 -0.55632363744 -0.78113948567 0.28341685616 -0.55632363744 -0.78113948567 0.28341685616 
-0.5655253094 -0.76425559364 0.3083472841 -0.57480496163 -0.74722861778 0.33348898685 -0.57853122821 -0.73795389002 0.34705614929 
-0.58216256513 -0.72881167932 0.36042545633 -0.58174685106 -0.72737077321 0.36399104473 -0.58122647187 -0.72612903877 0.36730308869 
-0.57710136869 -0.73275794099 0.36041760601 -0.5728508838 -0.73966060448 0.35317742675 -0.5646246962 -0.75464708033 0.33312340887 
-0.55622413568 -0.76998810935 0.31250738052 -0.54254786137 -0.79252545257 0.27438661836 -0.52859146067 -0.81544490097 0.23533640131 
-0.50714269488 -0.84108767983 0.17398862161 -0.48522565628 -0.86690066685 0.11124724425 -0.45445813846 -0.88549498114 0.027505722851 
-0.42305274827 -0.90356903073 -0.057749322442 -0.38640030649 -0.90456452432 -0.14989227405 -0.3493185605 -0.9041626815 -0.24259878163 
-0.3157070069 -0.88824271288 -0.32217633892 -0.28241381957 -0.870899063 -0.40054940535 -0.25899429473 -0.84938004268 -0.45574499639 
-0.23658042069 -0.82743575314 -0.50857991863 -0.22397560017 -0.81069069971 -0.53981040475 -0.21247086042 -0.79452873817 -0.56861796346 
-0.20672222817 -0.78700279171 -0.58113291585 -0.20167953363 -0.78053597918 -0.5916497184 -0.19728074042 -0.78236533265 -0.59072139532 
-0.19296780073 -0.7853008416 -0.5882670555 -0.18438695222 -0.79435511046 -0.57853646959 -0.17519053993 -0.80429189277 -0.56775642511 
-0.15741997812 -0.8170237121 -0.55403977593 -0.13831750958 -0.83018971193 -0.53986695515 -0.10736298632 -0.84177613377 -0.52778178158 
-0.074433120603 -0.8530992926 -0.51604454922 -0.028439574676 -0.85743032273 -0.51155328979 0.019882151882 -0.8605152309 -0.50835339187 
0.078514454879 -0.85097712391 -0.51560276498 0.1391057674 -0.83904064403 -0.52483749958 0.20173112917 -0.81196436325 -0.54300117867 
0.26476740998 -0.78182953683 -0.56296868494 0.31898647602 -0.7417404042 -0.58576675623 0.37131613889 -0.69951820595 -0.60917137717 
0.40883409491 -0.65865297758 -0.62923258113 0.44299269475 -0.61809551558 -0.64853548432 0.46370414075 -0.58869909528 -0.66128799748 
0.48119387281 -0.56197667455 -0.67247114635 0.48979574164 -0.55096186903 -0.67561302451 0.49615225555 -0.54391530313 -0.67672342375 
0.49742387086 -0.55396529459 -0.66734116868 0.49734311952 -0.56856224279 -0.65516831407 0.49361399625 -0.60136470759 -0.62628063473 
0.48886489804 -0.63925688672 -0.59271999363 0.47793458778 -0.69559236279 -0.52792992682 0.46519022616 -0.75734054558 -0.45397470247 
0.43462023029 -0.82493877818 -0.32099873035 0.39856542389 -0.89433702612 -0.16986252815 0.32558418489 -0.91195644751 0.046476658183 
0.24070442872 -0.91289158033 0.28382569496 0.14001100618 -0.82447713647 0.4904064381 0.033987134306 -0.70594485776 0.68661584632 
-0.048153195883 -0.57147400203 0.80051253938 -0.1218800057 -0.4313884203 0.88541270777 -0.17506320562 -0.3126534807 0.92607755253 
-0.22069013522 -0.20177165086 0.95047193341 -0.25788133647 -0.10711817483 0.95586764437 -0.2918355722 -0.018691857826 0.95397316803 
-0.32380033777 0.062188353233 0.94046768451 -0.35496931528 0.14005012191 0.92231779811 -0.3859817463 0.21497761019 0.89324579249 
-0.41692894961 0.28868248163 0.85962290385 -0.44603701967 0.35965689278 0.81503721183 -0.47434739338 0.42944700791 0.76569656894 
-0.49705110185 0.49352993641 0.70868499976 -0.51722497357 0.55503767094 0.64821215896 -0.52870888789 0.60793321713 0.5876752019 
-0.53611603207 0.65678847743 0.52710816561 -0.53408219028 0.69716555369 0.4747608983 -0.52744586784 0.73340951524 0.42642076838 
-0.51180392988 0.76346742847 0.39176047849 -0.49160218659 0.79039316535 0.36402668989 -0.46191898007 0.81288548138 0.35272582939 
-0.42725192749 0.83304740952 0.35006279007 -0.38042239556 0.84757890984 0.36562585563 -0.32695878398 0.85903926772 0.39113043295 
-0.25665828981 0.85782393898 0.43581087016 -0.17683166471 0.84943684019 0.49134080704 -0.077800315366 0.81295428724 0.56103772153 
0.032497805528 0.75998906783 0.63904592954 0.14966004533 0.66478811804 0.71151127045 0.2709964115 0.54390327815 0.78060594893 
0.37161126606 0.39491639773 0.82166838575 0.45916872976 0.22822138219 0.84506667029 0.51343013798 0.065518958943 0.84207385623 
0.54595662111 -0.094577188765 0.82185351948 0.55302300303 -0.23624081103 0.78916687832 0.54287692216 -0.36544300763 0.74805231306 
0.51748863282 -0.47651434077 0.70288155622 0.48143079754 -0.57489406948 0.65487146529 0.43759938016 -0.6577445822 0.60631790292 
0.38813493229 -0.72934203986 0.55737052066 0.33706150153 -0.7876845744 0.50991302259 0.28478133359 -0.8360859166 0.46357293766 
0.23590776238 -0.87418268116 0.41983215208 0.18967811697 -0.90428186307 0.37810873315 0.15012835311 -0.92755286363 0.33879706386 
0.11594273655 -0.94534062765 0.3014221026 0.089925024618 -0.9593060674 0.26504232202 0.070692956528 -0.97009603776 0.22948930694 
0.059784060642 -0.97879472738 0.19295979905 0.056027890868 -0.98569622261 0.15559111766 0.05969145131 -0.99072744886 0.11596248025 
0.069950327499 -0.99409621381 0.074324993062 0.085573406753 -0.99490189124 0.031049242839 0.10612809205 -0.99335118176 -0.013732652429 
0.12906451326 -0.98901713232 -0.057302478088 0.15426553583 -0.9820366285 -0.099719844122 0.17900391607 -0.97354041365 -0.13726084674 
0.20328736467 -0.96355374961 -0.17000675865 0.22553567624 -0.95412868972 -0.19536868871 0.24571435693 -0.94527475269 -0.21322148468 
0.26373216049 -0.9383690027 -0.22294988902 0.27947731742 -0.93351220805 -0.22413367459 0.29375748109 -0.93062277797 -0.21764221986 
0.3064441433 -0.9298732883 -0.20280225811 0.31859018216 -0.93001167825 -0.18131137119 0.33012801973 -0.93114893277 -0.15233819345 
0.34199528702 -0.93156662367 -0.11813131279 0.35424589072 -0.93114700417 -0.077834305096 0.36750867795 -0.92843334089 -0.034096237918 
0.38198983425 -0.9229583286 0.01378384531 0.39790325462 -0.9140876431 0.063028659013 0.4156002491 -0.90098838341 0.1139729484 
0.43484501778 -0.88411864919 0.16415714934 0.45608403395 -0.86239080355 0.21336200554 0.47872790153 -0.83722644039 0.26000139983 
0.50324490429 -0.80748005386 0.30322017821 0.52879797476 -0.77510611645 0.34270400889 0.55578081867 -0.7391061588 0.37703361173 
0.58319340198 -0.70148258989 0.40725028089 0.61121989875 -0.66153957633 0.4315913305 0.63882977831 -0.62097807079 0.45226825101 
0.66582341156 -0.5795017125 0.46752531391 0.69138345757 -0.53833548905 0.48034187975 0.71474736991 -0.49764436574 0.48941981181 
0.73566714272 -0.45805067339 0.49786386886 0.75270817236 -0.42019855623 0.50530199385 0.76649132447 -0.38393712312 0.51406975966 
0.77491707799 -0.35029148154 0.52502404595 0.77956978672 -0.31814198679 0.53880803544 0.77779116912 -0.28854274229 0.55741538264 
0.77204085844 -0.25980763517 0.57919664533 0.75927081115 -0.2325998406 0.60658761911 0.74296311871 -0.20539354595 0.63596127269 
0.7201697435 -0.17819000114 0.66896983924 0.69544460473 -0.1502757111 0.70159623885 0.66704440354 -0.12100927162 0.73349558918 
0.63950655276 -0.090876595887 0.76257272055 0.61367184405 -0.059033103552 0.78607596947 0.59167657685 -0.026680086351 0.80524809955 
0.57755708712 0.0067181100606 0.81553588327 0.56909438366 0.040008041323 0.82092676105 0.57268956673 0.073067196872 0.81587949726 
0.58185893381 0.10517075711 0.80587057138 0.60338189788 0.13515651151 0.78486552954 0.62850571947 0.16319395493 0.75949853249 
0.66193151815 0.18673945914 0.72407480536 0.69601282364 0.20761698161 0.6861008763 0.73166734552 0.22209134792 0.6420064626 
0.76564609299 0.23388654163 0.59808215303 0.79543540443 0.23898380384 0.55458310382 0.82267363769 0.24204650964 0.51366796275 
0.84326360661 0.23980703814 0.47948664294 0.86148592731 0.23631335613 0.44913802231 0.8732712044 0.22940978929 0.42920955261 
0.88315652904 0.2217923182 0.41325689397 0.88764844028 0.21214828022 0.40859040867 0.89058280707 0.20203592343 0.40736729754 
0.88889645867 0.19053422084 0.41635952978 0.88592408986 0.17861055499 0.42776953487 0.87896062323 0.16537734797 0.44668297291 
0.87109625262 0.15172389319 0.46668736122 0.86030394407 0.13670463319 0.49023733791 0.8492228778 0.12126861828 0.51355219875 
0.83715789632 0.10441254961 0.53606592414 0.8255506212 0.087169282072 0.55730111818 0.81558052652 0.068541033996 0.57396310394 
0.80666177971 0.049536727638 0.58877230389 0.80169610089 0.029118442139 0.59661502921 0.79792475618 0.0083034971346 0.60254729789 
0.79888098397 -0.014081558409 0.60091734235 0.80069769448 -0.036906185142 0.59771574836 0.8061059851 -0.061565543793 0.58795427209 
0.81174039662 -0.086719489323 0.57724865852 0.81837179577 -0.11405411337 0.56238025769 0.8245584488 -0.14194087 0.54732887262 
0.82866961994 -0.17240424541 0.53142356106 0.83182156189 -0.2034990856 0.51598925948 0.83022531936 -0.23771967647 0.50288645735 
0.82730088264 -0.27264347077 0.49066530073 0.81738595012 -0.31126833574 0.48308438368 0.80586553136 -0.35058071747 0.47647836394 
0.78533655089 -0.3937508321 0.47534260135 0.7630091399 -0.43741874671 0.47497856984 0.72989114581 -0.48407346113 0.47924492487 
0.69493516742 -0.53082360724 0.48390249274 0.64814716508 -0.57818809483 0.4910784933 0.59973518484 -0.62511940212 0.49822612588 
0.54006362448 -0.66904732608 0.50517707367 0.47926877377 -0.71206608283 0.51176433075 0.4100492455 -0.74826608553 0.51562390752 
0.34030565211 -0.7833127976 0.51897972551 0.26628891239 -0.8089557552 0.51822797191 0.19226612325 -0.83345809747 0.51699162546 
0.11818939341 -0.84778995288 0.5114343261 0.044497697954 -0.861164089 0.50550128872 -0.025413659987 -0.86513516295 0.49587918722 
-0.094667051049 -0.86842844453 0.48602404538 -0.15674860314 -0.86433378933 0.47362876387 -0.2179667059 -0.85988930377 0.46115988322 
-0.268631539 -0.85116911363 0.4477914574 -0.3182983958 -0.84243712646 0.43449793608 -0.35411833143 -0.83354145533 0.42224371472 
-0.38887481786 -0.82491580351 0.41017377992 -0.40661611712 -0.82061046065 0.40105243027 -0.42324071778 -0.81674007369 0.39216997546 
-0.41883416153 -0.82106135621 0.38778670691 -0.41322726519 -0.82581580271 0.38361949623 -0.38025261473 -0.84044638808 0.38437840494 
-0.34601081497 -0.85528161999 0.38523874082 -0.27533847292 -0.87600043987 0.38901510786 -0.20359989885 -0.89648546558 0.39270385096 
-0.090633686818 -0.90793044988 0.39300446887 0.022725889553 -0.91886455963 0.39310621047 0.15909727992 -0.89991250789 0.38157368841 
0.29432269221 -0.88111971709 0.3701380783 0.29432269221 -0.88111971709 0.3701380783 0.29432269221 -0.88111971709 0.3701380783 

FrenetNormal 3 240 double
-0.32051158568 0.51639025588 0.79411172203 -0.32051158568 0.51639025588 0.79411172203 -0.32051158568 0.51639025588 0.79411172203 
-0.28912800977 0.53412458421 0.79358879174 -0.25747847135 0.55200920346 0.79306142983 -0.19996539716 0.54004810787 0.81505503169 
-0.14201021124 0.52757682912 0.83743360728 0.21991092635 -0.062302182586 0.23419682679 0.58969325235 -0.6671141529 -0.38521966119 
0.47685924271 -0.64862193354 -0.55597698388 0.34723857793 -0.60844956846 -0.71112877039 0.32218318706 -0.57286085024 -0.75171414869 
0.30171399241 -0.53747316916 -0.78727468453 0.2995698116 -0.48814779597 -0.81764155003 0.29839864037 -0.43808236833 -0.84773264543 
0.30909571815 -0.36712918768 -0.87385777578 0.3205345615 -0.29487052247 -0.89973503332 0.33772368381 -0.20171969866 -0.9142016071 
0.35532724063 -0.1070631337 -0.92784578926 0.367912409 -0.0040582276362 -0.92394465174 0.38008698195 0.099629724518 -0.91860798806 
0.37855848808 0.19209046146 -0.90058520448 0.37577283211 0.28352117865 -0.88139855669 0.35893368848 0.35260849154 -0.86117821042 
0.34066317111 0.41942008732 -0.84085258006 0.32189873927 0.46090559835 -0.82576924939 0.30307891516 0.49955080081 -0.81127384019 
0.4788018094 0.41673327529 -0.7355424023 0.67838371627 0.31901937746 -0.65230088541 0.59336811292 -0.092192052878 -0.072049702094 
0.47040617487 -0.54520315422 0.57446943674 0.50557042036 -0.57996168497 0.63522002543 0.56354132693 -0.55439532573 0.61148476553 
0.66405004021 -0.49475445962 0.54108232021 0.77116656811 -0.42982046624 0.46343060337 0.85900494795 -0.32795689587 0.34859494622 
0.94363030311 -0.21993839601 0.2275619657 0.97370251125 -0.092926368655 0.10196394994 0.99405237636 0.037470643794 -0.024447636452 
0.96713934183 0.16196129508 -0.1198003248 0.93124635638 0.28532973775 -0.20925182253 0.87287232201 0.39177879542 -0.26149775512 
0.80995666159 0.49480979551 -0.30622741193 0.74139536999 0.57683527526 -0.32672737519 0.67162430027 0.65435957208 -0.34203526127 
0.60922917436 0.70910169317 -0.34645914713 0.54850694292 0.75867672286 -0.34841449684 0.51868567194 0.78557241433 -0.33563293627 
0.49626775606 0.80703451436 -0.31932065761 0.44085354982 0.25908799417 0.099940312669 0.37710343865 -0.43270912482 0.62099884715 
0.18837540837 -0.65737776518 0.68728674475 -0.03359143019 -0.75781010804 0.63262500489 -0.09338344221 -0.75295269935 0.64939913051 
-0.10783625541 -0.71865944614 0.68614457337 -0.1296386009 -0.65147191716 0.74103210975 -0.15359787434 -0.57463063335 0.80124395619 
-0.19942483124 -0.43954607735 0.85962638903 -0.25198030613 -0.28654051454 0.91744592537 -0.31156341242 -0.064566631704 0.91555703808 
-0.37341097772 0.17963037647 0.89442876984 -0.40109099457 0.399833209 0.78672183663 -0.41725386025 0.61194811717 0.64983108377 
-0.40790604215 0.74088245448 0.50436917143 -0.38957150589 0.84051454523 0.35588787337 -0.37457482186 0.89039720733 0.22979986943 
-0.36080585359 0.921981229 0.11194847941 -0.35729081553 0.92907089004 0.0077249086538 -0.3577104251 0.92676155224 -0.091269382626 
-0.36018450409 0.91010795338 -0.1841930682 -0.36348037084 0.88771665009 -0.2746885115 -0.35746058367 0.85698685534 -0.36071654805 
-0.34755927404 0.82278268916 -0.44488316514 -0.3225976451 0.7843592811 -0.52266438557 -0.29110382947 0.74410584041 -0.59767603636 
-0.24375271968 0.70420982112 -0.66137411309 -0.18924648937 0.66447507732 -0.71996728445 -0.11702260797 0.63315897766 -0.76024315644 
-0.036486742121 0.60579236538 -0.79192572748 0.079171404909 0.59732614731 -0.78783233643 0.21195166401 0.59807387142 -0.76629816387 
0.40021978976 0.5983725296 -0.64208956705 0.61658303785 0.59844381264 -0.46589391998 0.76154781328 0.51781403913 -0.19704530115 
0.86898262232 0.3947644795 0.1205055208 0.88767355518 0.25650195533 0.32781507146 0.85795873739 0.10994145051 0.4749930196 
0.82882267518 -0.028309720537 0.54352347182 0.80001406678 -0.161859558 0.56755599872 0.76765072283 -0.30294921007 0.54534107691 
0.73320193402 -0.44846222005 0.49599431852 0.67429391323 -0.58899376589 0.40846345945 0.60051203515 -0.72649604299 0.29771253915 
0.49820294259 -0.82977636029 0.17350925909 0.37791779706 -0.91149215498 0.040829149579 0.24689220205 -0.95242256261 -0.076397229922 
0.1088554803 -0.9667291759 -0.18353575789 -0.02377135641 -0.95301360868 -0.26860175277 -0.15274080605 -0.92035346874 -0.33874547176 
-0.2679794167 -0.87143457649 -0.39346979017 -0.37360644005 -0.81113455762 -0.43740052816 -0.46181792839 -0.74353702724 -0.47328162865 
-0.5374094638 -0.67065144504 -0.50332965849 -0.59489771077 -0.59823259294 -0.53087241795 -0.63880849141 -0.5261637884 -0.55653622463 
-0.66249381062 -0.4607891138 -0.58720104152 -0.67048175679 -0.40060988333 -0.62174723947 -0.64823433713 -0.35020527086 -0.67145718877 
-0.60170700249 -0.30764997285 -0.73334408991 -0.50315719118 -0.27023440646 -0.80703667963 -0.36138870695 -0.23708877096 -0.89053707219 
-0.189968256 -0.19777360473 -0.94441540103 0.0069343538481 -0.15315649803 -0.97283726887 0.16668746652 -0.10376361568 -0.97268116151 
0.29341880391 -0.05012559942 -0.94712240955 0.38466949112 0.0043826327965 -0.9199678225 0.44330087088 0.059690902262 -0.89134609674 