# vtk DataFile Version 5.1
vtk output
ASCII
DATASET POLYDATA
POINTS 240 float
0 0 0 -0.245971 -0.101695 0.120724 -0.491942 -0.20339 0.241448 
-0.727762 -0.349194 0.35987 -0.963496 -0.495371 0.478272 -1.19017 -0.679369 0.598286 
-1.41669 -0.864015 0.718327 -1.63517 -1.0802 0.843533 -1.85343 -1.2972 0.968873 
-2.06442 -1.53927 1.10191 -2.27516 -1.78221 1.23522 -2.47892 -2.04328 1.37667 
-2.68237 -2.30515 1.51848 -2.87848 -2.57728 1.6655 -3.07419 -2.84995 1.81279 
-3.26147 -3.12376 1.95802 -3.44823 -3.39763 2.10313 -3.62507 -3.66202 2.23459 
-3.80121 -3.92572 2.36507 -3.96604 -4.16827 2.46743 -4.12995 -4.40909 2.56749 
-4.28167 -4.61749 2.62465 -4.43227 -4.82291 2.67788 -4.57047 -4.9875 2.67647 
-4.7074 -5.14793 2.6695 -4.83227 -5.26484 2.6022 -4.95579 -5.37687 2.52812 
-5.06799 -5.45052 2.39582 -5.17879 -5.51946 2.25637 -5.27936 -5.56296 2.06822 
-5.37857 -5.60307 1.87357 -5.46912 -5.63602 1.64498 -5.55842 -5.66793 1.41148 
-5.64118 -5.71198 1.16048 -5.72292 -5.75793 0.906748 -5.80065 -5.83171 0.64992 
-5.8777 -5.91013 0.392575 -5.95332 -6.02515 0.14183 -6.02869 -6.14669 -0.10774 
-6.10475 -6.30576 -0.346651 -6.18095 -6.47195 -0.583537 -6.25899 -6.67002 -0.81048 
-6.3374 -6.87454 -1.03541 -6.41718 -7.10145 -1.25385 -6.49725 -7.33316 -1.4709 
-6.57606 -7.57678 -1.68547 -6.65459 -7.8231 -1.89947 -6.72676 -8.07185 -2.11415 
-6.7974 -8.32119 -2.32898 -6.85435 -8.56544 -2.54625 -6.90783 -8.80842 -2.76413 
-6.93903 -9.04088 -2.98505 -6.96431 -9.27054 -3.20678 -6.95905 -9.48619 -3.43141 
-6.94525 -9.69792 -3.65684 -6.89469 -9.89396 -3.88464 -6.83335 -10.0854 -4.11312 
-6.73237 -10.2612 -4.34307 -6.61919 -10.4322 -4.57347 -6.46732 -10.5896 -4.80379 
-6.30299 -10.7426 -5.03409 -6.10446 -10.8854 -5.26163 -5.89439 -11.0248 -5.48824 
-5.65722 -11.1586 -5.70776 -5.41051 -11.2904 -5.92477 -5.14529 -11.4211 -6.12831 
-4.87325 -11.5515 -6.3269 -4.59177 -11.6848 -6.50368 -4.30666 -11.8192 -6.67211 
-4.02087 -11.959 -6.80921 -3.73481 -12.1008 -6.93377 -3.45605 -12.2486 -7.01757 
-3.18033 -12.3988 -7.08439 -2.91876 -12.5536 -7.10286 -2.66333 -12.7104 -7.10035 
-2.42739 -12.8687 -7.04544 -2.20026 -13.0275 -6.96688 -1.99615 -13.1833 -6.83654 
-1.80285 -13.3377 -6.68191 -1.63412 -13.4834 -6.48108 -1.47736 -13.6248 -6.25773 
-1.34487 -13.7511 -5.99798 -1.22466 -13.8698 -5.71979 -1.12718 -13.9668 -5.41773 
-1.04164 -14.0524 -5.10311 -0.976806 -14.1103 -4.77795 -0.92326 -14.1531 -4.44706 
-0.888568 -14.1638 -4.11793 -0.864543 -14.1563 -3.7898 -0.857823 -14.1147 -3.47312 
-0.861255 -14.0531 -3.16317 -0.880326 -13.9584 -2.8707 -0.908908 -13.8436 -2.58884 
-0.950737 -13.7 -2.32632 -1.00091 -13.5382 -2.07598 -1.06093 -13.3548 -1.84286 
-1.12738 -13.1573 -1.62098 -1.19964 -12.9476 -1.41106 -1.27583 -12.7297 -1.20921 
-1.3541 -12.5099 -1.0122 -1.43384 -12.2889 -0.818573 -1.51325 -12.0765 -0.622439 
-1.59242 -11.8702 -0.424484 -1.6706 -11.6811 -0.217965 -1.74802 -11.505 -0.00502252 
-1.82513 -11.3526 0.220174 -1.90199 -11.2184 0.454882 -1.97954 -11.1112 0.702767 
-2.05765 -11.0257 0.961234 -2.13681 -10.9681 1.23123 -2.21682 -10.9336 1.5108 
-2.29702 -10.9262 1.79826 -2.37739 -10.9421 2.0925 -2.45625 -10.9834 2.38963 
-2.53377 -11.0474 2.68932 -2.60804 -11.1351 2.98613 -2.6793 -11.2445 3.28028 
-2.74625 -11.3759 3.56555 -2.80912 -11.5281 3.84238 -2.86758 -11.7006 4.10478 
-2.92173 -11.893 4.35299 -2.97205 -12.1037 4.58239 -3.0185 -12.333 4.79267 
-3.06188 -12.5783 4.98164 -3.10203 -12.8406 5.1482 -3.13964 -13.1161 5.29336 
-3.17449 -13.4061 5.41523 -3.20704 -13.7063 5.51813 -3.23698 -14.0179 5.59971 
-3.26468 -14.3364 5.66698 -3.28978 -14.6628 5.71761 -3.31271 -14.9929 5.76006 
-3.33305 -15.3274 5.79267 -3.35145 -15.6627 5.82364 -3.36744 -15.9991 5.85258 
-3.3818 -16.3341 5.88576 -3.39406 -16.6675 5.92438 -3.40494 -16.9983 5.97149 
-3.41399 -17.3255 6.0299 -3.42166 -17.6497 6.09887 -3.4274 -17.9695 6.18241 
-3.43134 -18.2864 6.27631 -3.43269 -18.5992 6.38501 -3.43134 -18.9098 6.50193 
-3.42603 -19.2172 6.63103 -3.41675 -19.5233 6.76499 -3.40142 -19.8275 6.90639 
-3.38065 -20.1311 7.04882 -3.35123 -20.434 7.19291 -3.31487 -20.7368 7.33452 
-3.26709 -21.0396 7.47207 -3.21105 -21.3424 7.6045 -3.14093 -21.645 7.72821 
-3.06158 -21.947 7.8453 -2.96591 -22.2479 7.95071 -2.86047 -22.5472 8.04918 
-2.73712 -22.8436 8.13494 -2.60395 -23.1371 8.21446 -2.45207 -23.4253 8.28211 
-2.29076 -23.7094 8.34494 -2.11083 -23.9856 8.39824 -1.92226 -24.2565 8.44855 
-1.71598 -24.5169 8.49269 -1.50218 -24.7713 8.53578 -1.27233 -25.013 8.5766 
-1.03626 -25.2483 8.61815 -0.786399 -25.4693 8.66132 -0.531674 -25.6837 8.70669 
-0.26574 -25.883 8.75716 0.00374673 -26.0759 8.81089 0.281761 -26.2535 8.87246 
0.562177 -26.425 8.93791 0.848598 -26.5815 9.01309 1.13649 -26.7324 9.09235 
1.42821 -26.8689 9.18229 1.72072 -27.0004 9.27622 2.01536 -27.1182 9.38097 
2.31034 -27.2315 9.48938 2.60625 -27.3321 9.60816 2.90222 -27.4286 9.73017 
3.19838 -27.5132 9.86175 3.49445 -27.594 9.9961 3.79022 -27.6636 10.139 
4.08578 -27.7297 10.2844 4.38065 -27.7848 10.4375 4.67515 -27.8367 10.5927 
4.96838 -27.8776 10.7551 5.26098 -27.9152 10.9195 5.55135 -27.9412 11.0909 
5.84073 -27.9639 11.2642 6.12636 -27.974 11.4446 6.41052 -27.9804 11.6269 
6.68883 -27.9726 11.8166 6.96515 -27.9609 12.0083 7.23312 -27.9329 12.2079 
7.49862 -27.9008 12.4094 7.7532 -27.8504 12.6191 8.005 -27.7958 12.8306 
8.24382 -27.7213 13.0501 8.47981 -27.6427 13.2711 8.70186 -27.5439 13.4994 
8.9214 -27.4415 13.7286 9.12773 -27.3204 13.9631 9.33222 -27.1966 14.1981 
9.52631 -27.0578 14.4359 9.71947 -26.9175 14.6735 9.90703 -26.7684 14.9102 
10.0947 -26.6192 15.1463 10.283 -26.4692 15.3778 10.4724 -26.3205 15.6082 
10.669 -26.1801 15.8308 10.8673 -26.0419 16.0521 11.0784 -25.9206 16.2634 
11.2915 -25.8021 16.4735 11.5208 -25.7069 16.6734 11.7518 -25.6146 16.8723 
11.9992 -25.5488 17.0628 12.2478 -25.4856 17.2528 12.5096 -25.4485 17.4383 
12.7721 -25.4134 17.6239 13.0417 -25.4008 17.8104 13.3113 -25.3895 17.9973 
13.5802 -25.3954 18.1909 13.8486 -25.4021 18.3854 14.1077 -25.4205 18.5919 
14.3658 -25.4393 18.7994 14.6064 -25.4658 19.023 14.8456 -25.4926 19.2477 
15.0594 -25.525 19.4912 15.2719 -25.5577 19.7356 15.4518 -25.5956 20.0003 
15.6303 -25.6337 20.2657 15.7694 -25.6777 20.5516 15.9074 -25.7219 20.8381 
15.9994 -25.773 21.1449 16.0905 -25.8242 21.4522 16.129 -25.8833 21.7793 
16.167 -25.9424 22.1067 16.1457 -26.0101 22.4535 16.1244 -26.0779 22.8004 

LINES 2 240
OFFSETS vtktypeint64
0 240 
CONNECTIVITY vtktypeint64
0 1 2 3 4 5 6 7 8 
9 10 11 12 13 14 15 16 17 
18 19 20 21 22 23 24 25 26 
27 28 29 30 31 32 33 34 35 
36 37 38 39 40 41 42 43 44 
45 46 47 48 49 50 51 52 53 
54 55 56 57 58 59 60 61 62 
63 64 65 66 67 68 69 70 71 
72 73 74 75 76 77 78 79 80 
81 82 83 84 85 86 87 88 89 
90 91 92 93 94 95 96 97 98 
99 100 101 102 103 104 105 106 107 
108 109 110 111 112 113 114 115 116 
117 118 119 120 121 122 123 124 125 
126 127 128 129 130 131 132 133 134 
135 136 137 138 139 140 141 142 143 
144 145 146 147 148 149 150 151 152 
153 154 155 156 157 158 159 160 161 
162 163 164 165 166 167 168 169 170 
171 172 173 174 175 176 177 178 179 
180 181 182 183 184 185 186 187 188 
189 190 191 192 193 194 195 196 197 
198 199 200 201 202 203 204 205 206 
207 208 209 210 211 212 213 214 215 
216 217 218 219 220 221 222 223 224 
225 226 227 228 229 230 231 232 233 
234 235 236 237 238 239 
CELL_DATA 1
FIELD FieldData 3
Length 1 1 double
76.38140548 
Tortuosity 1 1 double
0.99905344714 
ClusterLabel 1 1 int
3 
POINT_DATA 240
FIELD FieldData 6
Curvature 1 240 double
0 0.12654308087 0.25308616174 0.22418609233 0.19396870809 0.16752561853 0.14114704682 0.1210177845 0.10105014226 
0.086579385507 0.072299824776 0.061091939304 0.050018776431 0.040330636041 0.030716036668 0.031889786528 0.033737808216 0.060838736408 
0.089759693898 0.15429540992 0.22174506073 0.36779809094 0.52106244036 0.7716994095 1.0322539603 1.1124805787 1.1724835038 
0.9476426198 0.68786806112 0.47790358152 0.2745804458 0.1976666935 0.13898506381 0.16462902869 0.20337211505 0.23431915141 
0.2639668461 0.26552417185 0.26207529324 0.23533988926 0.20418004546 0.16668810685 0.12791695716 0.094784817789 0.062861037768 
0.048909717958 0.039034626237 0.053830140413 0.074536320584 0.10290108727 0.13320065477 0.16763753468 0.20317476364 0.23554579885 
0.26703166162 0.28309731819 0.29463747947 0.28533125357 0.2696107547 0.24270646787 0.21219851603 0.18350349534 0.15541957504 
0.13741457812 0.12296011102 0.12201585696 0.12604087666 0.14308362728 0.16512155373 0.19975835916 0.23943471619 0.29045060063 
0.34619128817 0.40087993999 0.45511228717 0.48291507985 0.49879234184 0.48106173028 0.44756446199 0.403902165 0.35528441652 
0.31614771913 0.28181155393 0.26211097856 0.25010346965 0.25051419087 0.25769849215 0.27274295148 0.29223460549 0.31075592152 
0.32870797261 0.33347583979 0.33022629783 0.30903466949 0.2765370689 0.23287471438 0.18192425657 0.12796965912 0.071984094012 
0.055906176226 0.067763611563 0.10654406774 0.1648339593 0.2186910739 0.26922360578 0.30538071327 0.33038077497 0.33828910481 
0.33247225602 0.31770526283 0.29550276506 0.27459109064 0.25478871754 0.24019249906 0.23022397357 0.22577689828 0.22640599495 
0.23105346496 0.23952168339 0.24949169024 0.2609384557 0.27013107257 0.27703133495 0.27726027825 0.27047283423 0.25625066203 
0.2339415925 0.2069351471 0.17464415384 0.14120713992 0.10643657468 0.073466649435 0.042664161235 0.030207355455 0.040596116465 
0.056436457333 0.079300949171 0.098149747712 0.11164428852 0.11971379414 0.1202967512 0.11628438064 0.10570725635 0.093753980967 
0.079765148768 0.069726220141 0.065738207623 0.067625892576 0.078838053948 0.091574844876 0.10681880441 0.12094446602 0.13316393802 
0.14341080672 0.15017121379 0.15496959664 0.15617093509 0.15603511128 0.15335541779 0.1501002783 0.14570863297 0.14133440626 
0.13699591005 0.13300155098 0.1297407474 0.12684797199 0.12477082661 0.12287888198 0.121413928 0.11997246706 0.1185873894 
0.11692670262 0.114576993 0.11208692856 0.10923109094 0.10610483458 0.10224337726 0.098338564572 0.094310678586 0.090294971012 
0.086315392727 0.082624675276 0.079830422483 0.077363650046 0.075961188772 0.075054290118 0.075835975208 0.077126366786 0.080236362341 
0.083862617701 0.089430009921 0.09535958296 0.10272278841 0.11020620718 0.11819138593 0.12580268606 0.1317655214 0.13682402446 
0.13766231023 0.13722823719 0.13049598805 0.12253002121 0.10807080342 0.092628416084 0.071669355179 0.051298448366 0.034456466112 
0.022950846479 0.045798061214 0.069245018613 0.096850191811 0.12367295807 0.14462767224 0.16397308954 0.17019654775 0.17480494659 
0.16501239939 0.15440806773 0.13583348853 0.11759760173 0.10305346218 0.08972511359 0.091256432343 0.093629185053 0.10767683393 
0.12192970646 0.13946615741 0.15701169372 0.17472833763 0.19237630836 0.20845853088 0.22444064475 0.23754463493 0.2504715698 
0.25655236628 0.26247763451 0.25930449974 0.25508623906 0.12754311953 0 
Torsion 1 240 double
0 0 0 0.083890138555 0.16849121049 0.19315672748 0.21679770506 0.22827287429 0.23943341055 
0.21145975368 0.18212490749 0.066082510556 -0.053762849126 -0.5151707723 -0.99471476079 -1.2538171124 -1.4991418618 -0.9928608375 
-0.43241002776 -0.27277099679 -0.14592565681 -0.085916312174 -0.032038710235 0.0019976759176 0.034013197499 0.067343712896 0.10082170424 
0.20797459029 0.32416307664 0.79699766878 1.317385075 1.9371022227 2.5711457754 1.7674666887 0.7404520463 0.42663670273 
0.23168790896 0.15948694925 0.10916184114 0.07829892485 0.051133825006 -0.00486926341 -0.066698208104 -0.3605857381 -0.7042001078 
-1.1975344683 -1.7248259402 -1.1863827101 -0.3926072076 -0.13160767789 -0.0052041834014 0.035329350695 0.053025129368 0.056925261962 
0.056968547265 0.060506514657 0.065070095271 0.079587085048 0.097166662259 0.13412972741 0.17733858313 0.25331475455 0.34033608857 
0.42442392853 0.50747837853 0.49050118662 0.43673074711 0.34142251715 0.23017536761 0.14910098903 0.080095718832 0.036362851194 
0.0031601512869 -0.017952003772 -0.033820067089 -0.04835355003 -0.062284844264 -0.081672640706 -0.10362027769 -0.13173495202 -0.16285605706 
-0.19237727842 -0.22108843211 -0.23048398356 -0.22972646205 -0.20750283519 -0.17357042361 -0.13780571736 -0.10100431807 -0.072843454913 
-0.049751706291 -0.034392083308 -0.02373442862 -0.015475868744 -0.0087290672421 0.011144015071 0.039585641803 0.38257912567 0.93822738618 
0.96089915319 0.61048737476 0.32313484934 0.081477434811 -0.033224141033 -0.052708837859 -0.059356768827 -0.056041836739 -0.047116823045 
-0.033686743818 -0.017799925272 0.00012787670956 0.012668381536 0.020579177871 0.01690018139 0.0029191468511 -0.017106686589 -0.042689835148 
-0.063018485346 -0.078351055136 -0.084864787799 -0.082706663953 -0.075105020427 -0.061967594176 -0.047263337651 -0.030911207906 -0.013590844405 
0.0047826856395 0.027667976219 0.0556289974 0.11148983038 0.19981589891 0.79218603753 1.9912758901 2.2172217348 1.2313278714 
0.55147144617 0.26593248918 0.077609116423 0.018906522637 -0.036507773542 -0.087384219023 -0.15838146121 -0.25812269868 -0.41274895101 
-0.64855928783 -0.83766978892 -0.95524011611 -0.91814914449 -0.63561741607 -0.39965830461 -0.24028527439 -0.11304489927 -0.040576095374 
0.021478584621 0.065126906086 0.10543284223 0.13961107195 0.17226185456 0.20200676218 0.22989330753 0.25410958742 0.27503530675 
0.28921115831 0.2991367551 0.30000259832 0.29678489357 0.2845171636 0.26956175496 0.24840975382 0.2261513631 0.2012376374 
0.17616508873 0.15069548267 0.12541426159 0.10062398321 0.077009333377 0.056590923679 0.03690920648 0.019318745405 0.0032938175836 
-0.0080866949214 -0.01727543082 -0.019662101389 -0.019556713861 -0.011352137521 -0.0029223508228 0.0062748193203 0.014974311725 0.02189364914 
0.027676595097 0.029186709167 0.029369694579 0.024299462386 0.018627098442 0.010441488927 0.002115038708 -0.0068323909823 -0.015965345415 
-0.025964081979 -0.036793411821 -0.051734178384 -0.070338008095 -0.10822111753 -0.16893536958 -0.35775769961 -0.77938538044 -2.5978451661 
-3.9232378075 -2.0745107073 -0.44100640856 -0.29971353258 -0.17278200664 -0.153560606 -0.13808325475 -0.15313430618 -0.1716652608 
-0.22122535231 -0.27740338081 -0.398557518 -0.52540199697 -0.71427120146 -0.88268212882 -0.80104744676 -0.71101303252 -0.50443233434 
-0.30385113235 -0.19926186928 -0.097787641987 -0.054979921684 -0.013365213382 0.0010488212716 0.014997660895 0.0155721434 0.016074259225 
0.013778196727 0.011424315787 0.0056880559614 0 0 0 
FrenetTangent 3 240 double
-0.81346127138 -0.4185851335 0.40381585651 -0.81346127138 -0.4185851335 0.40381585651 -0.81346127138 -0.4185851335 0.40381585651 
-0.78207812852 -0.47689163992 0.39542372757 -0.75042902683 -0.53569226928 0.38696047889 -0.71902793775 -0.57757649954 0.38295042669 
-0.68763108821 -0.61917156059 0.3790164975 -0.65965329715 -0.64744961534 0.37959998742 -0.63176393001 -0.67538326476 0.38030030713 
-0.60855647269 -0.69369599128 0.38414696843 -0.58551186441 -0.71167407701 0.38810306769 -0.56758871156 -0.72328419108 0.39272995194 
-0.54989018395 -0.73461500815 0.3973862566 -0.53770611822 -0.74237621279 0.39943236952 -0.52581485578 -0.74994788049 0.40133988819 
-0.52034837526 -0.75622024988 0.39658207199 -0.5152834436 -0.76241141312 0.39140767237 -0.51851523022 -0.76868468354 0.37399989853 
-0.52234497852 -0.7749638716 0.35571044006 -0.53736749511 -0.78073890319 0.31566148995 -0.55330578364 -0.78647268562 0.2738322178 
-0.58212391859 -0.78486746289 0.19215077609 -0.61212369082 -0.78258893694 0.10681317204 -0.64231024372 -0.74818228766 -0.040765582721 
-0.67251582058 -0.71050332953 -0.19468371394 -0.66050027346 -0.61226843207 -0.37797238737 -0.64374964703 -0.50724221431 -0.5645549534 
-0.584727018 -0.39402360671 -0.68743383472 -0.52052008678 -0.27980027205 -0.8025 -0.46257932346 -0.2161887754 -0.85492687164 
-0.4054740492 -0.15932552382 -0.89900183745 -0.36749239324 -0.15082190802 -0.91693554864 -0.33226895146 -0.14929323969 -0.93109888657 
-0.31093535548 -0.18238499012 -0.93178607695 -0.29175940545 -0.22085466969 -0.93037988518 -0.28063264275 -0.2805681601 -0.91553038121 
-0.27084741127 -0.34382228565 -0.89844032521 -0.26499298917 -0.41185165937 -0.86858799684 -0.25983910734 -0.48073206742 -0.83646120408 
-0.25633592295 -0.53940747378 -0.79920400813 -0.25314637108 -0.59614392981 -0.76097203558 -0.25040146937 -0.63673120439 -0.72765326671 
-0.24774639599 -0.67405601806 -0.69532706424 -0.24398174018 -0.69722781791 -0.67346821112 -0.23997931671 -0.71736682908 -0.65385236142 
-0.23221096123 -0.72770134727 -0.64525682408 -0.22358847684 -0.73581216602 -0.63916073901 -0.20752220754 -0.73762328288 -0.64226948624 
-0.18967253143 -0.73792509616 -0.64758355786 -0.16025459145 -0.73355471894 -0.65954236686 -0.1279141427 -0.72800399885 -0.67317984634 
-0.080665033762 -0.71722019375 -0.69001455537 -0.029450855624 -0.70504461072 -0.70769959141 0.036641289227 -0.68551618089 -0.72341259021 
0.10689286563 -0.66393211647 -0.73857426677 0.18563624683 -0.63397054966 -0.74584909867 0.26687178814 -0.60155036803 -0.75080931313 
0.34538148099 -0.56426515231 -0.74503019732 0.42305245125 -0.52548300303 -0.73594667219 0.48944445879 -0.48877075699 -0.71847175763 
0.5522021339 -0.45272547977 -0.69829295093 0.60227439073 -0.42434036546 -0.6737647622 0.64807066387 -0.39853732853 -0.64777048964 
0.68430295097 -0.38263968265 -0.61914364935 0.71716610662 -0.3702314359 -0.58958942725 0.74427129386 -0.36763147908 -0.55603772306 
0.76925860767 -0.36863916914 -0.52101568063 0.79097858002 -0.37841640961 -0.47817541073 0.81144480506 -0.39155871011 -0.43233512332 
0.82867170733 -0.41177129667 -0.3730342574 0.84460288048 -0.43481199765 -0.30834916008 0.85341889396 -0.46132167356 -0.22428127746 
0.85927025757 -0.4892767557 -0.13213723429 0.84981448187 -0.51313493031 -0.019709758711 0.83371946503 -0.53521613298 0.10151535021 
0.79577238834 -0.54338980364 0.23087602314 0.74796523587 -0.54528812449 0.36390762128 0.68408568663 -0.52964211291 0.48429510341 
0.61266600063 -0.50576542687 0.59875077804 0.53936124605 -0.46962371 0.69010117289 0.46513752053 -0.42750279059 0.77018774384 
0.3977422452 -0.37903052635 0.83056385774 0.33380441299 -0.3273423913 0.88095999338 0.27750110078 -0.27082011334 0.91831701715 
0.22521080548 -0.21175681154 0.94882014876 0.17775248839 -0.14652997544 0.96994511784 0.13292979577 -0.07794121155 0.98595472552 
0.089810769422 -0.0020461129487 0.9923566441 0.047655659515 0.077982832922 0.99332263333 0.0057593732213 0.16334320485 0.98218228446 
-0.035985069887 0.25183134673 0.96393955058 -0.076052123163 0.33853612656 0.93311152365 -0.11509914208 0.42415642947 0.89463027799 
-0.14933510319 0.49905682162 0.84956561 -0.18053943882 0.56720220152 0.8003524841 -0.20516769026 0.6202034619 0.75481397746 
-0.22550322007 0.66331897759 0.71167418062 -0.24008210816 0.69189157611 0.6802880226 -0.25076918213 0.71063234332 0.65684798661 
-0.2578806732 0.71619767481 0.64847941791 -0.26248925624 0.71254020131 0.65066087633 -0.26566856913 0.69518218337 0.66703290956 
-0.26781217902 0.66789623468 0.69368796802 -0.26981621733 0.6254325337 0.72948959494 -0.27171557695 0.5715855185 0.77215114819 
-0.27348604617 0.5040596615 0.8152441634 -0.27515648104 0.42591738997 0.85867204461 -0.27585299734 0.34087962487 0.89463261606 
-0.27576742752 0.25030456948 0.9245967115 -0.27391287057 0.16078309605 0.94483727641 -0.27058869355 0.072136906074 0.95699983136 
-0.26522878046 -0.011690894037 0.96148387788 -0.25811940668 -0.091377890361 0.95936920624 -0.24925409963 -0.16674796918 0.95176350415 
-0.23882796301 -0.238280788 0.9392768861 -0.22734993283 -0.30753377048 0.92181540409 -0.21490483923 -0.37469077438 0.89978025683 
-0.20228262272 -0.44112128888 0.87189251969 -0.18949199425 -0.50686104297 0.83844002494 -0.17719419789 -0.57179371259 0.79794958228 
-0.16538101977 -0.63593274914 0.75053849086 -0.15425300978 -0.69732383358 0.69600821332 -0.14382178095 -0.75592039046 0.63423808548 
-0.13387362474 -0.80878683467 0.56788555092 -0.12443352766 -0.85562678108 0.49671358858 -0.1152184665 -0.89490796815 0.42601738148 
-0.10624818125 -0.9259673468 0.35583866255 -0.097437349013 -0.95021708526 0.2913840834 -0.08880590142 -0.9668059785 0.2333691615 
-0.080453204728 -0.97898075715 0.18433184118 -0.072424872719 -0.98601911154 0.14574118451 -0.064833296524 -0.99088249525 0.11710776166 
-0.05776744492 -0.99312785872 0.10045989803 -0.051205428877 -0.99430698769 0.093235820749 -0.045270830704 -0.99415835296 0.097747024595 
-0.039746387845 -0.99294447222 0.11007062268 -0.034750414331 -0.99035806296 0.13246019026 -0.029854613275 -0.98624473065 0.15997092875 
-0.025092375498 -0.98009550095 0.19430989513 -0.019903843821 -0.97239095125 0.23022654782 -0.014127026563 -0.96254005994 0.26832040763 
-0.0073037302186 -0.95202037804 0.30452256866 0.0010145362483 -0.94054528099 0.33802230286 0.010975906341 -0.92976034097 0.36731404703 
0.023367700545 -0.9199962582 0.39038147261 0.037884586119 -0.91189034418 0.40833148262 0.055656930813 -0.90632460354 0.41844204748 
0.075845570979 -0.90249839618 0.42352844781 0.099868767006 -0.90143275249 0.42064171748 0.12633027271 -0.90134627716 0.41341829573 
0.1568014432 -0.90286998981 0.39906342587 0.18939735808 -0.90414080498 0.38149882058 0.22561499633 -0.90498054493 0.35846307534 
0.26331583657 -0.90436952636 0.33368383137 0.30363815011 -0.90119437646 0.30582305478 0.34461736115 -0.89582213908 0.27781899982 
0.38680088427 -0.88642190798 0.24955226784 0.42885432678 -0.87467251982 0.22256077432 0.47066029885 -0.85845400357 0.19799534419 
0.51173061516 -0.84019358075 0.17568659605 0.55134801134 -0.81790039244 0.15783479483 0.58981516235 -0.79409255785 0.14271698913 
0.62592283609 -0.76717775656 0.13320737938 0.66061589553 -0.73930315135 0.12646340988 0.69229359293 -0.70938264831 0.12561462094 
0.72240950104 -0.67897541966 0.12724716824 0.7490641464 -0.64748950181 0.1343788932 0.77410026596 -0.61588907911 0.14350594781 
0.79540478439 -0.5840246591 0.15723334581 0.81513668643 -0.55230809057 0.17236833209 0.8310943091 -0.52094636559 0.19088153023 
0.84561175573 -0.48993073948 0.21018892378 0.85652876226 -0.45978036055 0.23148180587 0.86623835493 -0.43007603309 0.25301784398 
0.8728013539 -0.40153414275 0.27518756143 0.87843876312 -0.37346530638 0.29717481161 0.88155972519 -0.34668258546 0.3186659789 
0.88402488838 -0.3203690279 0.3397078761 0.88462842894 -0.29538728891 0.35947442589 0.88480674768 -0.27081625596 0.37867855307 
0.88372357504 -0.24746365091 0.3962141598 0.88236692923 -0.22441540248 0.41322212421 0.88016157362 -0.20231170908 0.42859257794 
0.87774166429 -0.18036150342 0.44358134219 0.87462445533 -0.1589101329 0.45732961559 0.8712606788 -0.13743488271 0.47090684387 
0.86705674614 -0.1158782648 0.48390125172 0.8625134616 -0.094070989477 0.496929581 0.85675634148 -0.071367131897 0.51007924462 
0.85051323386 -0.048188506895 0.52342171998 0.84244281324 -0.023224756384 0.53748916743 0.83370697082 0.0023841773987 0.55181953527 
0.82233716714 0.030546961636 0.56719062962 0.81014663714 0.059421274351 0.58274913667 0.79453046684 0.091265445065 0.59908988808 
0.77804773882 0.12369757385 0.61538661501 0.75774427905 0.15872206324 0.631489234 0.73675816151 0.19396604561 0.6472150994 
0.71258630773 0.23023432857 0.66118278135 0.68820624375 0.26617252696 0.67448475493 0.66279553928 0.30047680676 0.68449147216 
0.63785202903 0.33389628981 0.69372669458 0.61536743572 0.3626589478 0.69890141802 0.59404834085 0.3901139185 0.70337938638 
0.57926898728 0.41023131051 0.70394778458 0.56615363274 0.42877743841 0.70398333501 0.56302227242 0.43789598172 0.70082179881 
0.56170836666 0.44529206518 0.69725057332 0.57209432465 0.44159981331 0.69104197309 0.58403894415 0.43611847355 0.68445626965 
0.60679028341 0.41823279109 0.67525598406 0.63043427077 0.3986910632 0.66568159543 0.66077311879 0.36672899457 0.65330143402 
0.69109889991 0.33361551725 0.6406830482 0.72131813548 0.29111363067 0.62612221722 0.75077354667 0.24826079194 0.61169144811 
0.77341819049 0.20227862991 0.5984203974 0.7950225935 0.15667968333 0.58570316628 0.80641372318 0.11484321584 0.57842343659 
0.81685561031 0.073750408171 0.57195360311 0.81695075368 0.040763492543 0.57431163837 0.8162687303 0.008507940461 0.57750505737 
0.80608800211 -0.014808723833 0.59090872186 0.79523796736 -0.037607364016 0.60499974112 0.77510130392 -0.053218419653 0.62862780785 
0.75434071997 -0.068558908459 0.65271309268 0.72359740773 -0.079570327975 0.68411386718 0.69225592817 -0.090495937895 0.71573597447 
0.64964896411 -0.099805467099 0.75152651581 0.60649833884 -0.10911990091 0.78732659792 0.55095223781 -0.11854615977 0.82334420948 
0.49496410829 -0.12799339367 0.85921030742 0.42626766001 -0.13804365987 0.89072038899 0.35728713132 -0.14809022328 0.92199046358 
0.27732216034 -0.15799361213 0.94398026801 0.19724827247 -0.16787348827 0.96574152906 0.11080274676 -0.17637787049 0.97413300274 
0.025083654043 -0.18481078731 0.98245395983 0.025083654043 -0.18481078731 0.98245395983 0.025083654043 -0.18481078731 0.98245395983 

FrenetNormal 3 240 double
0.39893363326 -0.90678918705 -0.13632801071 0.39893363326 -0.90678918705 -0.13632801071 0.39893363326 -0.90678918705 -0.13632801071 
0.46950122391 -0.87071476248 -0.12148049475 0.54066684498 -0.83433462245 -0.10650715238 0.59988348203 -0.79287750039 -0.069439068566 
0.65889586294 -0.75133359231 -0.031993296869 0.70471472353 -0.7036340613 0.02457473336 0.75019237239 -0.65577533314 0.081637304757 
0.77891307722 -0.6056206535 0.14035849429 0.80705093182 -0.55538611469 0.19913737488 0.82127261084 -0.52522423557 0.21964685018 
0.83488393129 -0.49594273627 0.2384778428 0.82302858454 -0.53798724602 0.10823495034 0.80982102537 -0.58381897749 -0.029923369649 
0.47805078391 -0.54963685884 -0.4210369243 0.12637037482 -0.51045387457 -0.82796018112 -0.088550524062 -0.37180802571 -0.88833390633 
-0.29361488166 -0.2259936821 -0.92373108872 -0.33422678691 -0.14499384839 -0.92778568243 -0.3613834915 -0.069297020041 -0.92927588253 
-0.3296791785 0.014550827308 -0.93938408998 -0.29257477214 0.099146474564 -0.95028294032 -0.19463335622 0.2184475495 -0.94254776475 
-0.090495578203 0.34128343651 -0.93291467914 0.059802613739 0.4645327668 -0.85698937284 0.21527767453 0.58782846457 -0.77362942496 
0.35265905404 0.63458553914 -0.66379554474 0.48782139717 0.67195580144 -0.5507148615 0.62641388683 0.58011299275 -0.4865637876 
0.76546372936 0.4710417746 -0.42893666161 0.77273807933 -0.015418156895 -0.31045417621 0.76100634865 -0.55630915281 -0.18319447552 
0.53277358919 -0.77122312729 -0.025207573451 0.27090960197 -0.93549989456 0.13755248611 0.17140884033 -0.94890107265 0.23835557618 
0.098968616282 -0.93715631922 0.32883250467 0.071279910715 -0.90615890007 0.40792297842 0.051566723292 -0.87173031278 0.48498418301 
0.04511367133 -0.83256917384 0.54745311198 0.041180045105 -0.79250885008 0.60714950858 0.051519226172 -0.75937594801 0.64676115136 
0.06474180265 -0.72764252505 0.68231526813 0.15380962431 -0.70992622539 0.67910454923 0.2591299985 -0.695213595 0.66758707984 
0.55615857126 -0.52120038659 0.3863574513 0.89666735401 -0.31105715017 0.043955992845 0.94267687132 -0.11612300039 -0.17049733801 
0.91812927295 0.075167305708 -0.35429642996 0.91165519036 0.1447878366 -0.38254317704 0.90974704859 0.18367074008 -0.37149248962 
0.91740423639 0.21458625483 -0.33029092051 0.92760539483 0.24338278321 -0.2810704999 0.93202389383 0.2795902333 -0.21773230291 
0.93482573535 0.31786955398 -0.1504472007 0.92609586384 0.35927531852 -0.074883643811 0.91398168526 0.40159862638 0.0031094595544 
0.89221010337 0.43467794965 0.084396099412 0.86746701278 0.46491296998 0.16669613511 0.8399059343 0.47443043446 0.24940096945 
0.81143683749 0.47727224206 0.3322362389 0.78426944438 0.44164189156 0.42282838484 0.75754082778 0.39304339789 0.51603520825 
0.71696809811 0.28849113211 0.61399298945 0.67151846496 0.16422787845 0.71362440351 0.59652324911 0.023274348128 0.78315854551 
0.51066069251 -0.12381813452 0.84162242652 0.4225043104 -0.2187793867 0.87216605878 0.33346773944 -0.29373679464 0.89199610723 
0.25113869708 -0.31929445015 0.9103804319 0.17149266616 -0.32509220469 0.92818646706 0.086742056122 -0.29928775648 0.94566905117 
-0.00013546187476 -0.26031572378 0.96301686399 -0.097522316759 -0.19868572077 0.96790586261 -0.19946743824 -0.12722816436 0.9673910382 
-0.30230843489 -0.042240072623 0.94256336949 -0.40555366788 0.048853260663 0.90676527105 -0.49075296368 0.142649204 0.8492210279 
-0.56748626426 0.23771303847 0.78147488972 -0.61587105108 0.32959365805 0.70566001242 -0.65043593744 0.41992246039 0.62591162481 
-0.6578122085 0.50669015546 0.5462738396 -0.65142209208 0.59165475823 0.46669205562 -0.6252413896 0.66933234298 0.38634439685 
-0.58865794315 0.74317957211 0.30559416287 -0.54931158879 0.79956117896 0.22145173343 -0.50845819377 0.84641608275 0.13545901557 
-0.47543482592 0.87372632241 0.044824976486 -0.44684160503 0.88997839684 -0.048435073281 -0.4245459858 0.88866218066 -0.14530137309 
-0.40594495953 0.87703923399 -0.24428333958 -0.38831423538 0.85108707066 -0.34042623787 -0.37127355982 0.81642119449 -0.43484267577 
-0.35337464319 0.77496964144 -0.51735259607 -0.33493491712 0.72924218241 -0.59235977924 -0.3207370034 0.68576318518 -0.65064705591 
-0.30930805052 0.64375193385 -0.69801994917 -0.34779568037 0.59042511485 -0.72306710962 -0.42002973235 0.52944833459 -0.73302081692 
-0.35111488758 0.15341908254 -0.31290954768 -0.18339581508 -0.44314689977 0.40824720514 -0.088056744872 -0.70623137589 0.70094005279 
-0.045166951673 -0.72766258664 0.68315180972 -0.025512213125 -0.76201015573 0.6438739137 -0.023283765563 -0.80604499356 0.58847877795 
-0.019443282752 -0.85038300069 0.51926057029 -0.014351668106 -0.89495630341 0.4393140083 -0.0048927611879 -0.93144542106 0.35339761634 
0.0080732137657 -0.96144269312 0.26268727003 0.026447228529 -0.98102356791 0.17460810859 0.049314076364 -0.99195082035 0.088714854562 
0.075382855724 -0.99454725703 0.0087018689546 0.10420329499 -0.98998439893 -0.066257760982 0.13045361188 -0.97971260285 -0.13748053235 