# vtk DataFile Version 5.1
vtk output
ASCII
DATASET POLYDATA
POINTS 240 float
0 0 0 -0.0643538 -0.235601 0.00625699 -0.128708 -0.471202 0.012514 
-0.230678 -0.708141 0.0412139 -0.332966 -0.945092 0.070104 -0.462503 -1.18127 0.11146 
-0.592505 -1.41744 0.15303 -0.739616 -1.65073 0.197122 -0.88717 -1.88396 0.241279 
-1.04206 -2.11218 0.277928 -1.1972 -2.34024 0.314316 -1.3505 -2.56122 0.333242 
-1.50372 -2.78189 0.351402 -1.64686 -2.99365 0.342926 -1.78946 -3.20493 0.333035 
-1.91502 -3.40608 0.289255 -2.03952 -3.6066 0.243358 -2.14185 -3.7968 0.159544 
-2.24257 -3.98626 0.0729971 -2.31827 -4.16668 -0.0512812 -2.39192 -4.34637 -0.178647 
-2.44026 -4.51985 -0.339324 -2.48629 -4.69275 -0.503058 -2.50946 -4.86348 -0.69228 
-2.5303 -5.03398 -0.884099 -2.53314 -5.20681 -1.09179 -2.53397 -5.37991 -1.30127 
-2.52319 -5.55927 -1.51726 -2.51099 -5.73939 -1.73405 -2.49378 -5.9282 -1.95007 
-2.4759 -6.11816 -2.16599 -2.45839 -6.31708 -2.37712 -2.44093 -6.51728 -2.58756 
-2.42681 -6.72446 -2.79271 -2.41321 -6.93272 -2.99702 -2.40299 -7.14418 -3.19836 
-2.39332 -7.35617 -3.39921 -2.38408 -7.56671 -3.60089 -2.37491 -7.777 -3.80272 
-2.36085 -7.98143 -4.00904 -2.34586 -8.18475 -4.21621 -2.31915 -8.37906 -4.42987 
-2.29009 -8.57155 -4.64484 -2.24218 -8.75378 -4.86557 -2.19023 -8.93381 -5.08753 
-2.11332 -9.10437 -5.31146 -2.03075 -9.27279 -5.53583 -1.91944 -9.43424 -5.75551 
-1.80124 -9.59402 -5.97408 -1.65401 -9.75024 -6.17924 -1.49945 -9.90556 -6.38102 
-1.3197 -10.0605 -6.55975 -1.13326 -10.2154 -6.73235 -0.929474 -10.3717 -6.87255 
-0.720842 -10.5285 -7.00369 -0.505909 -10.6864 -7.0947 -0.289127 -10.8446 -7.17394 
-0.0787687 -11.0004 -7.20804 0.129613 -11.1555 -7.22826 0.318925 -11.3022 -7.2019 
0.502093 -11.4462 -7.16052 0.655306 -11.574 -7.07494 0.798422 -11.6963 -6.97447 
0.903823 -11.7943 -6.83565 0.995938 -11.8837 -6.68334 1.04653 -11.9424 -6.50102 
1.08186 -11.9898 -6.30766 1.07602 -12.0034 -6.09362 1.05438 -12.0041 -5.87164 
0.995645 -11.9722 -5.63778 0.922064 -11.9273 -5.39918 0.81822 -11.8553 -5.15582 
0.701766 -11.7719 -4.91047 0.563483 -11.6702 -4.66514 0.415732 -11.5605 -4.41982 
0.254926 -11.4429 -4.17687 0.0882295 -11.3216 -3.93499 -0.0834817 -11.2026 -3.69587 
-0.257546 -11.0847 -3.45805 -0.43005 -10.9778 -3.22214 -0.601795 -10.8763 -2.98716 
-0.767228 -10.7919 -2.75275 -0.929465 -10.7162 -2.51863 -1.08245 -10.6608 -2.28389 
-1.23057 -10.6162 -2.04883 -1.36805 -10.5924 -1.81249 -1.49972 -10.5801 -1.57545 
-1.62048 -10.5876 -1.33709 -1.73508 -10.6062 -1.098 -1.83921 -10.6424 -0.858143 
-1.93721 -10.6888 -0.617839 -2.02552 -10.7503 -0.377757 -2.10793 -10.821 -0.137811 
-2.18157 -10.9048 0.100592 -2.24968 -10.9968 0.338022 -2.31003 -11.1007 0.572317 
-2.36532 -11.2122 0.804566 -2.41399 -11.3352 1.03194 -2.45817 -11.466 1.25601 
-2.49695 -11.6085 1.47358 -2.53195 -11.7594 1.6866 -2.56268 -11.9225 1.89203 
-2.59032 -12.0944 2.09194 -2.61461 -12.2786 2.28403 -2.63638 -12.4719 2.47024 
-2.65533 -12.6767 2.64937 -2.67209 -12.8904 2.823 -2.68613 -13.1138 2.99111 
-2.69798 -13.3451 3.15478 -2.70684 -13.5838 3.31487 -2.7132 -13.8288 3.47199 
-2.71597 -14.0789 3.62736 -2.71567 -14.3333 3.78121 -2.71097 -14.5906 3.9346 
-2.70237 -14.8504 4.08757 -2.68839 -15.1112 4.24061 -2.66948 -15.3729 4.39372 
-2.64407 -15.6341 4.54675 -2.61248 -15.8949 4.6997 -2.57319 -16.1542 4.85195 
-2.52633 -16.412 5.00352 -2.47064 -16.6672 5.15372 -2.40597 -16.9199 5.30252 
-2.33165 -17.1689 5.44957 -2.24719 -17.4141 5.59478 -2.15279 -17.6544 5.73846 
-2.04758 -17.8894 5.88046 -1.93289 -18.1181 6.02185 -1.80751 -18.3397 6.16254 
-1.67384 -18.5537 6.30414 -1.5305 -18.7587 6.4468 -1.38063 -18.955 6.59223 
-1.22292 -19.1406 6.74097 -1.06079 -19.3167 6.89425 -0.893156 -19.481 7.05318 
-0.723199 -19.636 7.21793 -0.550251 -19.779 7.39019 -0.37681 -19.9136 7.56881 
-0.202714 -20.0371 7.75592 -0.029512 -20.1539 7.9491 0.142456 -20.2616 8.15063 
0.312668 -20.3648 8.35721 0.480371 -20.4616 8.571 0.645992 -20.5559 8.7884 
0.808532 -20.6467 9.01113 0.969162 -20.7365 9.23591 1.12687 -20.8248 9.46384 
1.28325 -20.9127 9.69246 1.43753 -20.9998 9.92217 1.59134 -21.0861 10.1516 
1.7444 -21.1708 10.3804 1.89791 -21.2533 10.6084 2.05221 -21.3318 10.8349 
2.20777 -21.4064 11.0604 2.36557 -21.4739 11.2841 2.52523 -21.5358 11.5069 
2.6883 -21.5875 11.728 2.85364 -21.6326 11.9484 3.02332 -21.6653 12.1673 
3.19561 -21.6914 12.3855 3.37309 -21.7045 12.602 3.55352 -21.7118 12.8174 
3.74004 -21.7074 13.0304 3.92988 -21.6987 13.2417 4.12676 -21.6811 13.4493 
4.32721 -21.6609 13.6545 4.53553 -21.6351 13.8543 4.74743 -21.6082 14.0512 
4.96758 -21.579 14.2412 5.19101 -21.5494 14.4281 5.42231 -21.5193 14.6071 
5.65625 -21.489 14.7831 5.8968 -21.4581 14.9514 6.1391 -21.4263 15.117 
6.38598 -21.3923 15.2758 6.63363 -21.3564 15.4326 6.88338 -21.3152 15.5841 
7.13301 -21.2711 15.7343 7.38231 -21.2183 15.8808 7.63088 -21.1618 16.0265 
7.87728 -21.094 16.1698 8.12269 -21.0223 16.3125 8.36502 -20.9382 16.4534 
8.60646 -20.8507 16.5937 8.84503 -20.7517 16.7321 9.08311 -20.6503 16.8697 
9.31953 -20.5406 17.0046 9.55602 -20.4297 17.1386 9.79278 -20.3152 17.2689 
10.0302 -20.201 17.3982 10.27 -20.0886 17.5232 10.511 -19.9779 17.6471 
10.7564 -19.8741 17.7668 11.0032 -19.7731 17.8856 11.2558 -19.6834 18.001 
11.5097 -19.5969 18.116 11.7697 -19.5242 18.2292 12.0308 -19.4546 18.3425 
12.297 -19.3998 18.4564 12.5637 -19.3477 18.5709 12.8334 -19.3094 18.6887 
13.1031 -19.2734 18.8074 13.3724 -19.2499 18.9317 13.6409 -19.2283 19.0572 
13.9052 -19.2179 19.1896 14.1681 -19.2095 19.3233 14.4228 -19.2129 19.4642 
14.6757 -19.2185 19.6061 14.9166 -19.2383 19.7541 15.1555 -19.2608 19.9027 
15.3797 -19.3018 20.0554 15.6018 -19.3459 20.2083 15.8075 -19.4132 20.3629 
16.0111 -19.4839 20.5175 16.198 -19.5817 20.6719 16.3829 -19.6828 20.8262 
16.5515 -19.8128 20.9796 16.7185 -19.9456 21.1329 16.8699 -20.1061 21.2859 
17.0201 -20.2688 21.4391 17.1554 -20.4549 21.594 17.2896 -20.6425 21.7492 
17.4093 -20.8473 21.9088 17.5279 -21.0528 22.069 17.6312 -21.268 22.2361 
17.7335 -21.4833 22.4039 17.8186 -21.7008 22.5807 17.9027 -21.9179 22.758 
17.9671 -22.1297 22.9454 18.0304 -22.3409 23.1333 18.0709 -22.5394 23.3315 
18.1105 -22.7372 23.53 18.1242 -22.9146 23.7382 18.1371 -23.0913 23.9468 
18.121 -23.2397 24.1643 18.1044 -23.3875 24.382 18.056 -23.4986 24.6079 
18.0072 -23.6093 24.8339 17.9238 -23.6747 25.0673 17.8403 -23.74 25.3006 

LINES 2 240
OFFSETS vtktypeint64
0 240 
CONNECTIVITY vtktypeint64
0 1 2 3 4 5 6 7 8 
9 10 11 12 13 14 15 16 17 
18 19 20 21 22 23 24 25 26 
27 28 29 30 31 32 33 34 35 
36 37 38 39 40 41 42 43 44 
45 46 47 48 49 50 51 52 53 
54 55 56 57 58 59 60 61 62 
63 64 65 66 67 68 69 70 71 
72 73 74 75 76 77 78 79 80 
81 82 83 84 85 86 87 88 89 
90 91 92 93 94 95 96 97 98 
99 100 101 102 103 104 105 106 107 
108 109 110 111 112 113 114 115 116 
117 118 119 120 121 122 123 124 125 
126 127 128 129 130 131 132 133 134 
135 136 137 138 139 140 141 142 143 
144 145 146 147 148 149 150 151 152 
153 154 155 156 157 158 159 160 161 
162 163 164 165 166 167 168 169 170 
171 172 173 174 175 176 177 178 179 
180 181 182 183 184 185 186 187 188 
189 190 191 192 193 194 195 196 197 
198 199 200 201 202 203 204 205 206 
207 208 209 210 211 212 213 214 215 
216 217 218 219 220 221 222 223 224 
225 226 227 228 229 230 231 232 233 
234 235 236 237 238 239 
CELL_DATA 1
FIELD FieldData 3
Length 1 1 double
66.838507323 
Tortuosity 1 1 double
0.71325365358 
ClusterLabel 1 1 int
3 
POINT_DATA 240
FIELD FieldData 6
Curvature 1 240 double
0 0.16290450907 0.32580901814 0.26145128995 0.1951676106 0.15243185155 0.11009862105 0.093298837953 0.077159402638 
0.096143088166 0.11634844746 0.15854130754 0.20169853169 0.25825483159 0.31552258685 0.37073185944 0.42581247687 0.4474929326 
0.46676616947 0.43744205955 0.40414180307 0.3450994593 0.28369545615 0.22553727021 0.16770967676 0.12675775705 0.087698436258 
0.072691832456 0.060635090171 0.062613974172 0.066464275011 0.065303333891 0.063419617488 0.052129513084 0.039378222195 0.026394072848 
0.013371113758 0.032640067753 0.057664016159 0.083818297647 0.11018734242 0.13332080887 0.15580062313 0.17328313717 0.18969480117 
0.2013970665 0.2120312208 0.21992696891 0.22716664054 0.23478305296 0.24249464202 0.2540860665 0.26670936212 0.28672218597 
0.30880089945 0.34309380145 0.38097130227 0.43837328461 0.50178279973 0.59204739501 0.69096529388 0.80460279351 0.92320195631 
0.99043863999 1.0395817231 0.98574223575 0.89402410182 0.76240588049 0.61547716051 0.49171418746 0.37721751317 0.29143363549 
0.21761342307 0.16215934996 0.11467131319 0.080978993193 0.053511569797 0.053849457179 0.067231811346 0.091694865525 0.12155976096 
0.15051249668 0.17900337938 0.20193769064 0.22195124 0.23321951902 0.23971765058 0.23838666436 0.23262604571 0.22332435013 
0.21194522274 0.20070376557 0.18954602678 0.18119294608 0.17460718418 0.1714077738 0.17041889844 0.17235954033 0.17628070094 
0.17987401553 0.1832378379 0.18334049926 0.18108000048 0.17379983875 0.1627549298 0.14813119998 0.13072987783 0.11290116426 
0.094729242411 0.079013439891 0.065338105735 0.056526424772 0.051894445773 0.051307299699 0.054315560668 0.059070168139 0.065430287716 
0.072571591336 0.080455660112 0.088755662665 0.097464666767 0.10599860353 0.11435450572 0.12187550639 0.128518421 0.13389364899 
0.1378899898 0.14118263625 0.14368362656 0.14630104713 0.14905395018 0.15206816567 0.15539692392 0.15789174498 0.15934807822 
0.15841534202 0.15440438174 0.14770944673 0.13743587875 0.12518481151 0.11020479529 0.094994075586 0.079453779484 0.064949999455 
0.051979399448 0.040034497079 0.029660876197 0.021127310333 0.01551383178 0.016635966466 0.028834442923 0.042912095994 0.060192891022 
0.077414410967 0.094531165648 0.10977558266 0.1215873806 0.13034437128 0.13328977738 0.13343790016 0.12806138839 0.12147340208 
0.11240033978 0.10432252003 0.098366138349 0.093826717399 0.092427587809 0.091264378464 0.090645096352 0.088966177082 0.084744128635 
0.079665763751 0.072446607774 0.066328087036 0.063077888437 0.062245054892 0.067984432588 0.074545313055 0.08343820139 0.09118736397 
0.09554347348 0.097786331361 0.093470822113 0.087459680514 0.075937733774 0.063794396791 0.049533730087 0.038289566142 0.037835200522 
0.040646830245 0.055738602454 0.070564763905 0.084339549439 0.096747803372 0.10345227323 0.1088860962 0.10871752154 0.10765362563 
0.10241156386 0.097441887996 0.093820522414 0.090874371342 0.091481980853 0.093005546692 0.099668645266 0.10700454904 0.11837728399 
0.13073051367 0.14939567823 0.16867700608 0.19223039952 0.21554037411 0.23702470738 0.2569119426 0.26377668599 0.2686502568 
0.25576920552 0.24179554628 0.21709446352 0.19246298802 0.16859023157 0.14553347058 0.13244998747 0.12025337257 0.12036205404 
0.12103967916 0.13082040256 0.14094754688 0.1575989519 0.17453637591 0.19799503252 0.22177093593 0.25466768461 0.28775081468 
0.32804069182 0.36831163997 0.40747524264 0.44444233464 0.22222116732 0 
Torsion 1 240 double
0 0 0 0.1744477917 0.35037395452 0.63621246747 0.92392982401 1.3523734866 1.7844566226 
1.3267613043 0.83811717017 0.57924158217 0.33044356199 0.24791761497 0.1742202736 0.15125807357 0.13146681988 0.13397816942 
0.1380969138 0.16071808993 0.18485310138 0.23888984307 0.29566986275 0.42742976922 0.56682651601 0.9157360281 1.2881422989 
1.4354206134 1.5550888954 1.1906149718 0.76158875401 0.58506836446 0.44496708474 0.50340072034 0.59267473114 2.7619324372 
5.2778540924 3.4684920413 0.88828734938 0.42457751956 0.36300171352 0.3548539926 0.35749982423 0.36923805466 0.38292465626 
0.39555554968 0.40794700415 0.41312347158 0.41657134837 0.40894001242 0.39850971747 0.37499104145 0.34799141303 0.30905070333 
0.26677162683 0.21926476719 0.17022366684 0.12142402773 0.072698684382 0.030273789971 -0.010120959784 -0.035750638348 -0.056403326623 
-0.065320461794 -0.070103481666 -0.069206420505 -0.066220134137 -0.055832528958 -0.04260488284 -0.017732243767 0.01179839249 0.063696097659 
0.12491341488 0.27598940467 0.46604024039 1.1765372731 2.1218697849 1.9032246513 1.1385159308 0.67596322272 0.36071157061 
0.20963734642 0.14169093383 0.1030343434 0.079773685129 0.064514185286 0.053618953674 0.043246727082 0.033170411224 0.018937727221 
0.0022666405715 -0.023854093755 -0.055721235452 -0.095212348051 -0.1395076067 -0.17587340553 -0.20706302919 -0.2163454687 -0.2108174175 
-0.19093698988 -0.16100989877 -0.12716823759 -0.090489931448 -0.051075947814 -0.0096102060643 0.041402856053 0.099825778753 0.18420341415 
0.28942347034 0.43064443574 0.60177384879 0.69260547031 0.71443117725 0.62309809044 0.4311794092 0.26924959817 0.13489020007 
0.048597062014 0.008006269564 -0.0060434161205 0.0060056531815 0.029723636731 0.065308312737 0.10594076316 0.15188207977 0.20083013144 
0.25304866687 0.30311576815 0.350762506 0.38600497724 0.4068133928 0.41225710425 0.39920626447 0.37981836815 0.35253904294 
0.32851063908 0.30867092233 0.29676747657 0.29544572544 0.3051857403 0.33019099224 0.36140478328 0.40148791587 0.42459738583 
0.42259997981 0.30812306255 0.021337106808 -0.7182818341 -2.1765270341 -2.5366620905 -1.0910160218 -0.13683083649 -0.020363065926 
0.051769571342 0.045542438141 0.030377716824 -0.0011725827029 -0.039845191546 -0.092067559577 -0.15301179664 -0.23118172506 -0.31636155822 
-0.41592068318 -0.49751501162 -0.54081595799 -0.54531495972 -0.46382046251 -0.36610400886 -0.23098693343 -0.091576181006 0.058139396193 
0.22534795899 0.43628898577 0.63365785703 0.79565686842 0.87088660528 0.71021237702 0.54599471579 0.37171827705 0.21736565556 
0.12212035855 0.031045934812 -0.047084399496 -0.14130778567 -0.28783359039 -0.5248178886 -1.0700311276 -1.5113167606 -1.5808613417 
-1.5196760942 -0.96694669148 -0.50240826013 -0.38695909062 -0.29107927392 -0.27688023421 -0.26963852652 -0.29307232823 -0.32095335441 
-0.36958809478 -0.41265891638 -0.42818834004 -0.42875047411 -0.35053739982 -0.26338898266 -0.12610336378 0.0058383774488 0.10571685281 
0.19531319072 0.21871826872 0.23622222536 0.21281174046 0.18745757791 0.14752583292 0.107155605 0.063210054774 0.018567026166 
-0.032295184698 -0.085567366115 -0.16250107659 -0.24247514029 -0.3555890542 -0.46567866518 -0.5388045737 -0.60322081906 -0.54679048806 
-0.48795893678 -0.39070786114 -0.29546022175 -0.23794396486 -0.18176554887 -0.15608990543 -0.13083987244 -0.11782613988 -0.10486093887 
-0.093772291195 -0.082176534484 -0.040914899026 0 0 0 
FrenetTangent 3 240 double
-0.33175579643 -0.94076674285 0.069971616261 -0.33175579643 -0.94076674285 0.069971616261 -0.33175579643 -0.94076674285 0.069971616261 
-0.38363792812 -0.91556727214 0.10084518727 -0.43595973889 -0.8901542466 0.13198039872 -0.46913568996 -0.87044080439 0.14366331111 
-0.50198436139 -0.85082479095 0.15501370556 -0.52225970293 -0.83914885308 0.1500368251 -0.54220987216 -0.82767826199 0.14463768754 
-0.5528212423 -0.82380863214 0.12291467257 -0.56310778465 -0.82020338355 0.10062387057 -0.56422109111 -0.82239381905 0.059671048149 
-0.56493206266 -0.82483845123 0.017899716059 -0.55348919206 -0.82904925674 -0.04506842748 -0.5414009847 -0.83335384136 -0.10916206543 
-0.51215830471 -0.83227754966 -0.19223036835 -0.48184347019 -0.83086495319 -0.27648458783 -0.43267716037 -0.81690419596 -0.36665946769 
-0.38215218567 -0.80203906677 -0.45726106181 -0.32074245013 -0.77564883202 -0.53397684814 -0.25844214326 -0.74831563409 -0.60955652292 
-0.19886349119 -0.71976302123 -0.66009224608 -0.13953453223 -0.69109853545 -0.70833035899 -0.091991887254 -0.671003887 -0.73365418167 
-0.045649700188 -0.65178209235 -0.75664414146 -0.013432602434 -0.64450339781 -0.76382891372 0.017200373154 -0.63856411637 -0.76924114159 
0.034829859759 -0.64286296092 -0.76498228461 0.050864578847 -0.6484174247 -0.75953735118 0.056388623545 -0.65995395069 -0.74899121911 
0.060511244991 -0.67228808498 -0.73776492722 0.057657568697 -0.68552268846 -0.72552764456 0.053797695613 -0.69888716731 -0.71314454592 
0.047477251511 -0.70872550546 -0.70373651423 0.040774582785 -0.7180160936 -0.69479062887 0.036590987038 -0.72104447162 -0.69190652487 
0.032827236788 -0.72302914795 -0.69003271775 0.036163348076 -0.71788277554 -0.69515127042 0.040764781222 -0.71146552315 -0.70151598622 
0.055901366054 -0.69854747056 -0.71293142785 0.073039629706 -0.68439426592 -0.72530650738 0.10234399602 -0.66561413729 -0.73820737767 
0.13410616085 -0.64589927656 -0.75121446831 0.17719609673 -0.62449514625 -0.7589993847 0.22271341213 -0.60272902961 -0.76566526375 
0.27620888037 -0.58275428291 -0.7620526412 0.33151382658 -0.5631858263 -0.7561088121 0.38984151845 -0.54852904129 -0.73695307122 
0.4488934098 -0.53504901093 -0.71463197648 0.50589104721 -0.52834902337 -0.67845026401 0.56236971521 -0.52336188873 -0.63876692178 
0.61275162791 -0.52542726297 -0.58572656771 0.66151206315 -0.52936830446 -0.52913381688 0.70123221553 -0.53907992044 -0.45940229909 
0.738424977 -0.55040481533 -0.38599757764 0.76390863408 -0.56451742105 -0.29840635502 0.78595592358 -0.57944815931 -0.2066517027 
0.7922029207 -0.59192337604 -0.098264566717 0.7935882894 -0.60364304769 0.015240256552 0.77142853444 -0.60376749639 0.14694202502 
0.74168201742 -0.6001557066 0.28450725361 0.67705103134 -0.57073459678 0.43273768121 0.60066123546 -0.53261371616 0.58456311969 
0.48632372951 -0.45839873555 0.7181800595 0.35861828025 -0.37146878791 0.84538264181 0.21814707374 -0.26321672045 0.92081193695 
0.072980416285 -0.14712203421 0.97719818392 -0.051577465208 -0.039886441554 0.98641462326 -0.16822732802 0.063949731468 0.97753102014 
-0.25608029596 0.14551010685 0.9496421833 -0.33241450596 0.21816016317 0.91415125298 -0.38759524254 0.27037122989 0.87850122047 
-0.43396203186 0.31406605095 0.84278489539 -0.46736743769 0.34212573524 0.81412446787 -0.49515103864 0.36340391442 0.78852442965 
-0.51500575494 0.37227555321 0.771870886 -0.53128280377 0.37554911889 0.75925417527 -0.5420244324 0.36784446087 0.75544065322 
-0.55016919722 0.35498952506 0.75575702215 -0.55333753433 0.33181023372 0.76347165703 -0.55407986293 0.30359781907 0.77479294656 
-0.54942494308 0.26606454312 0.79082052128 -0.54203723921 0.22381184373 0.80923102521 -0.52892494721 0.17466487523 0.828659834 
-0.51280357684 0.12189399606 0.84862390559 -0.49173425999 0.066185582608 0.86613825369 -0.46796606324 0.0088748777321 0.88231638898 
-0.44122737505 -0.047214770678 0.89421434752 -0.41280801407 -0.10261355819 0.90369062712 -0.38364075825 -0.15432270481 0.90890290127 
-0.35403473745 -0.20386726211 0.91161362555 -0.32523696979 -0.24940467542 0.91088902251 -0.29693070741 -0.29250531199 0.90807536906 
-0.27021613925 -0.33281033637 0.90240555941 -0.24450455648 -0.37135374212 0.89493598011 -0.22070777151 -0.40885122557 0.88454386981 
-0.19816092401 -0.44566595419 0.87224399623 -0.17762454641 -0.48276388296 0.85652417823 -0.15844735973 -0.52005327098 0.83849228513 
-0.14120990828 -0.55769170746 0.81678498205 -0.12533027149 -0.59557447787 0.79250489197 -0.11112438468 -0.63250978519 0.76527104936 
-0.098131360183 -0.66875852504 0.73589680638 -0.08635557854 -0.7022288159 0.70548781322 -0.075492729038 -0.73361527001 0.67430275743 
-0.065262064647 -0.7609270201 0.64460543321 -0.055522051386 -0.78507631333 0.61606276632 -0.045805246497 -0.80498618347 0.59093088796 
-0.036107078633 -0.8214916684 0.56853797614 -0.02588202164 -0.8343840873 0.55026185631 -0.01521924137 -0.84427488211 0.5354058406 
-0.0035521687293 -0.85147108191 0.52420412796 0.0089779676659 -0.85635161411 0.51614283203 0.022935339735 -0.85940960521 0.51058521788 
0.038161365736 -0.86084755979 0.50725309866 0.055222079271 -0.86110992371 0.50514015091 0.073969521669 -0.86029150266 0.50414805437 
0.094910685343 -0.85866456835 0.50326502863 0.11793768236 -0.85626888373 0.50248570957 0.14334013701 -0.85304155702 0.50117382381 
0.17107845832 -0.84899644891 0.49933824747 0.20103358032 -0.84370203672 0.49692582218 0.23324307591 -0.83713714578 0.49392677085 
0.26705450686 -0.82867425428 0.49087529526 0.3025507319 -0.81821518976 0.48776868384 0.33856962466 -0.80525376528 0.48556673505 
0.37515703319 -0.78957047558 0.48434880527 0.41093992469 -0.77105643971 0.48515197433 0.44581773452 -0.74935781438 0.48822887961 
0.4786059513 -0.72485556181 0.49421507068 0.50896264164 -0.69709090663 0.50358661251 0.5361527776 -0.66697185375 0.51609129933 
0.55953132032 -0.63401880363 0.53236736438 0.57903377143 -0.59963977624 0.55114300683 0.59370939149 -0.56348500357 0.57303133058 
0.60435631924 -0.52734947691 0.59609189426 0.60981243189 -0.49123874798 0.62066284401 0.61182176674 -0.45681624563 0.64490620184 
0.60923539784 -0.42464471207 0.66871277043 0.60435720256 -0.39554757078 0.69105950295 0.59631628687 -0.37069309083 0.71139166169 
0.58731784695 -0.34951608672 0.72972687528 0.57695151526 -0.33359261951 0.7452093101 0.56681073306 -0.32088975845 0.75867073552 
0.55700357615 -0.31295071064 0.76914275119 0.54829661633 -0.3069523634 0.77787553635 0.54127506484 -0.30392700427 0.78394396836 
0.5359261516 -0.30115611783 0.78871760088 0.53323164255 -0.29878906849 0.79143644291 0.53244559579 -0.29497592104 0.79338739602 
0.53479790926 -0.28878474556 0.79407559845 0.53889696934 -0.27986860122 0.79443176668 0.54597343842 -0.26630762358 0.79422196753 
0.5542979445 -0.24950039488 0.79381011318 0.56482828345 -0.22695560617 0.79304113804 0.575954582 -0.20161551944 0.7918305437 
0.58817347314 -0.17115071968 0.78981031416 0.60048521477 -0.1392948525 0.78691210515 0.6129735988 -0.10479256435 0.78234359374 
0.62547440744 -0.070748038005 0.77655204435 0.63799975471 -0.037607591225 0.76834499495 0.65078280491 -0.0064924072431 0.75885484255 
0.66409447649 0.020468391514 0.746732684 0.67792424124 0.044635530147 0.73348139508 0.6928583625 0.062847761674 0.71782327564 
0.70828255325 0.078374883472 0.70129982342 0.72479284396 0.087951221543 0.68285860667 0.74140874309 0.095642343401 0.6639320697 
0.75826812828 0.098986994542 0.6438866 0.77468774075 0.10166919063 0.6238600461 0.79005189869 0.10276149459 0.60387889015 
0.80449101107 0.10444358567 0.58450991833 0.81661750954 0.10760014459 0.56667140682 0.82756322201 0.11229105945 0.54988087022 
0.8354317346 0.1209805989 0.53582141977 0.84204343001 0.13164119347 0.52293860113 0.8452381537 0.14766059413 0.51325475025 
0.84724790148 0.16545576357 0.50452005417 0.84589384665 0.18829182502 0.49847973297 0.84362520542 0.21214687012 0.49290112539 
0.83864329123 0.23902490004 0.48869226823 0.83324222183 0.26581291043 0.48448087873 0.8265403259 0.29232154985 0.48026163028 
0.82007648411 0.31766776821 0.47575391858 0.81438631826 0.33923611813 0.47030870135 0.80954071142 0.35887763895 0.46449963983 
0.80757286122 0.37195366804 0.45745081259 0.80675953943 0.38271384793 0.45015129098 0.81007587701 0.38519041337 0.44195505492 
0.81447014712 0.38531637184 0.4336894894 0.82291744355 0.3766040481 0.42516324515 0.8320281193 0.3658093153 0.41678330699 
0.84376467149 0.34677171333 0.40898249714 0.8555515637 0.32626701151 0.40158518306 0.86754857078 0.29963876251 0.39587202528 
0.87906596023 0.2723442542 0.39080953584 0.88846867193 0.24211214799 0.38861590222 0.89711173956 0.21197502763 0.38724883657 
0.90220980149 0.18228117459 0.38973908811 0.90652258829 0.15311262811 0.39311120616 0.90694826324 0.12654434903 0.40084856343 
0.90669836896 0.10048544217 0.40937476845 0.90289284716 0.077107441709 0.42205280376 0.89853677538 0.053847372823 0.43531188386 
0.89109150647 0.031249031127 0.45183127078 0.88318237228 0.0081561960547 0.46863584016 0.87249004637 -0.017903599281 0.48715150431 
0.86133263921 -0.04505931067 0.50561599543 0.8471812715 -0.079269981659 0.52375106021 0.83243788435 -0.11491717687 0.54148880808 
0.81358982906 -0.16052427333 0.55647182524 0.79397454342 -0.20739072215 0.57072569241 0.76860503016 -0.26370231368 0.57951093457 
0.74243205115 -0.32051449834 0.58742953606 0.7097077361 -0.38140844248 0.58828168281 0.67645582838 -0.44179387408 0.58850915845 
0.63849955274 -0.49764506891 0.58316665002 0.60046420818 -0.55235986107 0.57769408305 0.56165255057 -0.59591724518 0.57094457781 
0.52305197141 -0.63827297016 0.56450976981 0.48675214747 -0.66753061059 0.56150516162 0.45068616545 -0.69582997888 0.5590161711 
0.41747825141 -0.7124171323 0.56282917438 0.38436727203 -0.7283245705 0.56714319209 0.35260126113 -0.73480096023 0.57840878485 
0.32076947593 -0.74078040695 0.59007571648 0.28788530201 -0.73880876556 0.60816406989 0.25481179806 -0.73641971097 0.62654430995 
0.21817257863 -0.72616937444 0.65042174865 0.18128007344 -0.71550093307 0.67449570342 0.13861265277 -0.69529970102 0.7030502248 
0.095674756076 -0.67463801564 0.73170793196 0.044960673585 -0.64073829717 0.76333223029 -0.0059822516945 -0.6063556012 0.79494003451 
-0.065773764777 -0.55329777542 0.82591006644 -0.12568488948 -0.49983692047 0.85673849548 -0.19259329405 -0.42279885917 0.87928315537 
-0.25893944312 -0.34640817653 0.90163836433 -0.25893944312 -0.34640817653 0.90163836433 -0.25893944312 -0.34640817653 0.90163836433 

FrenetNormal 3 240 double
-0.79239540812 0.31814494658 0.52047412054 -0.79239540812 0.31814494658 0.52047412054 -0.79239540812 0.31814494658 0.52047412054 
-0.79559355433 0.3839513163 0.4597625667 -0.79881880347 0.45031536711 0.39853650817 -0.82369727206 0.48464219211 0.24821827722 
-0.84894588115 0.51842137223 0.09637710315 -0.77337108378 0.43407111096 -0.26018306259 -0.69518878452 0.34666577794 -0.62203768502 
-0.44469395405 0.17944055815 -0.80257726936 -0.18820564422 0.0094389944749 -0.97681024368 -0.04846013649 -0.038224024959 -0.98799595183 
0.0861650729 -0.080521318768 -0.99203046409 0.17196153256 -0.061525718889 -0.97928472626 0.25516531523 -0.03927562908 -0.96564800169 
0.32953648717 0.014128883583 -0.9390970882 0.40335562092 0.069480547674 -0.9117390379 0.4735726501 0.13658494064 -0.86313906311 
0.54353006814 0.20453637713 -0.81300813881 0.6055731173 0.26148465666 -0.743593873 0.66696862718 0.3175326779 -0.67260187925 
0.72299537162 0.34247634946 -0.5913086493 0.77852956878 0.36456641096 -0.5090703518 0.83948965304 0.33384519339 -0.41079003994 
0.90100237396 0.29774504924 -0.3108758192 0.94789752411 0.14824868951 -0.14245124383 0.99315332054 -0.013965002814 0.033656735795 
0.8011536749 -0.28961279288 0.27913578802 0.58005666372 -0.57917231192 0.53312261329 0.28779787267 -0.66843192486 0.6108187099 
-0.013949155681 -0.73098488365 0.66500937602 -0.18780190301 -0.71197864521 0.6577817433 -0.34320835981 -0.681209061 0.64169570209 
-0.47068566566 -0.62941892402 0.6020226967 -0.59382446262 -0.57436345844 0.55868569686 -0.45566238109 -0.041757906968 0.015035102365 
-0.27395015313 0.57043932549 -0.61200109124 0.093971934468 0.63608114182 -0.65026850638 0.49507993764 0.6043170424 -0.58360683228 
0.63001279343 0.57278164799 -0.51169107584 0.71437237122 0.54128970752 -0.43877704376 0.77714833293 0.50991506622 -0.3519343943 
0.83556396817 0.47856412172 -0.26227788275 0.87640810526 0.43905339783 -0.15656149882 0.91348692132 0.39779414978 -0.047403713661 
0.92647459912 0.34483321877 0.072171679911 0.93399830741 0.28921829781 0.19410983003 0.91151290825 0.22427458735 0.31530702002 
0.88183782709 0.1570958544 0.43632668831 0.82266112804 0.089156781984 0.54404588782 0.75603138869 0.021025623802 0.6484049689 
0.6678875321 -0.036712972981 0.73169660904 0.57402183581 -0.091687590668 0.80938520636 0.4702690879 -0.12575339732 0.86544357122 
0.36375221803 -0.15397372993 0.91545477431 0.25600334967 -0.15464039466 0.94795515531 0.14789291654 -0.14722065687 0.9753164907 
0.039134526429 -0.11135512058 0.98633172863 -0.069823235067 -0.066737030905 0.9923173981 -0.18116322379 0.0055361428021 0.97383147414 
-0.29327081907 0.086720399141 0.94746025896 -0.40387942858 0.18751856763 0.87921492273 -0.51398276199 0.29492816718 0.79685471423 
-0.60348577105 0.39825489044 0.66285326785 -0.68573184766 0.50014332772 0.51066002176 -0.72579779669 0.57051013652 0.33503067672 
-0.75034921603 0.62928278311 0.15078115734 -0.74173722419 0.65330430082 -0.012365114086 -0.72039973736 0.66399108301 -0.16741362758 
-0.69137061831 0.65449707925 -0.28672094523 -0.65926484637 0.6369307611 -0.39173178454 -0.63994510223 0.60467548655 -0.46843391451 
-0.62595286967 0.5662998135 -0.53334074892 -0.64255347428 0.49564477276 -0.57706353129 -0.67242326127 0.41098904241 -0.61159805012 
-0.73468914062 0.12969001035 -0.55126184765 -0.81157276896 -0.24033831639 -0.4481181246 -0.61913867466 -0.55434603693 -0.175754316 
-0.30035799443 -0.84207248543 0.17599669323 -0.10230654818 -0.92789324381 0.32891515273 0.03688939649 -0.91528497826 0.38490274423 
0.12895938105 -0.90727318926 0.39481991636 0.19716811998 -0.90158873016 0.38141029389 0.2548205263 -0.89858439349 0.35205044213 
0.30692409112 -0.89698883912 0.31430649549 0.3540316303 -0.89346847663 0.26926905428 0.3984140646 -0.8888982188 0.2202533433 
0.43747732113 -0.88111037941 0.16933951262 0.47353104288 -0.87150206624 0.11735174579 0.50245335189 -0.86038989816 0.065995978607 
0.52719189877 -0.84839546853 0.015010984543 0.5430496238 -0.83755268253 -0.035426487642 0.55350684906 -0.82741022038 -0.085531007332 
0.55058396075 -0.82166509097 -0.13816478278 0.53922976799 -0.81869088357 -0.19239233582 0.51430194492 -0.81800910231 -0.24977044584 
0.48051355763 -0.8188237659 -0.30920516944 0.43910493779 -0.81619052026 -0.36897345334 0.39254461145 -0.81122629371 -0.42896724281 
0.34974556425 -0.79899509666 -0.48508191335 0.30957941244 -0.78167702025 -0.53848120064 0.27831770682 -0.75869528739 -0.58666045541 
0.25350849842 -0.73160945566 -0.63105707793 0.23997139279 -0.70191368136 -0.66929717869 0.23488836425 -0.67026045015 -0.70291988814 
0.24446124204 -0.63838191795 -0.72882856047 0.26540885309 -0.60632852529 -0.74875021892 0.30936538356 -0.57283588859 -0.75633118686 
0.37179877355 -0.5381874953 -0.75400220638 0.46978380995 -0.49039535576 -0.72139463898 0.59730406027 -0.43168379627 -0.66363255324 
0.72674678704 -0.34696550865 -0.55857339364 0.85784164201 -0.23989768904 -0.4128683112 0.93957454872 -0.14026449657 -0.27833868056 
0.9774301681 -0.047239861533 -0.15374278487 0.99574107645 0.019775782952 -0.075151770491 0.99608346017 0.062879936129 -0.038855566349 