# vtk DataFile Version 5.1
vtk output
ASCII
DATASET POLYDATA
POINTS 240 float
0 0 0 -0.293045 -0.277999 0.191796 -0.586091 -0.555998 0.383593 
-0.827092 -0.802973 0.562282 -1.06765 -1.04969 0.740861 -1.26342 -1.26692 0.897519 
-1.45842 -1.48364 1.0538 -1.61587 -1.67255 1.17975 -1.77234 -1.86074 1.3049 
-1.89872 -2.02323 1.39221 -2.02406 -2.18482 1.47819 -2.12713 -2.32366 1.52056 
-2.22924 -2.4615 1.56102 -2.31732 -2.58077 1.55494 -2.40465 -2.69905 1.5464 
-2.48619 -2.80427 1.4921 -2.56736 -2.90866 1.43494 -2.65032 -3.00627 1.33642 
-2.73341 -3.10339 1.23491 -2.82445 -3.19971 1.09932 -2.91614 -3.29596 0.96094 
-3.01989 -3.39568 0.797185 -3.12475 -3.49572 0.631103 -3.24367 -3.60078 0.447947 
-3.36403 -3.70636 0.263054 -3.49863 -3.81549 0.0675471 -3.63483 -3.92503 -0.12915 
-3.78404 -4.03442 -0.33246 -3.93486 -4.14378 -0.536581 -4.09646 -4.24863 -0.745549 
-4.25951 -4.35287 -0.955162 -4.43018 -4.44939 -1.16936 -4.60196 -4.54479 -1.38422 
-4.77712 -4.63174 -1.60408 -4.95281 -4.71737 -1.82471 -5.12633 -4.79667 -2.05072 
-5.29948 -4.87491 -2.27763 -5.46364 -4.95109 -2.50975 -5.62619 -5.02691 -2.7428 
-5.77204 -5.10564 -2.98014 -5.91471 -5.18492 -3.21828 -6.03286 -5.27104 -3.45904 
-6.14605 -5.35854 -3.70032 -6.22768 -5.45457 -3.9421 -6.30255 -5.55244 -4.18399 
-6.34052 -5.65792 -4.4242 -6.37011 -5.76514 -4.66404 -6.35987 -5.87703 -4.90038 
-6.34007 -5.99005 -5.13589 -6.28035 -6.10406 -5.36677 -6.21053 -6.21832 -5.59649 
-6.10367 -6.33056 -5.82124 -5.98695 -6.44227 -6.04468 -5.83879 -6.55083 -6.2636 
-5.68185 -6.6585 -6.48126 -5.50114 -6.76428 -6.69535 -5.31346 -6.86949 -6.90838 
-5.11082 -6.97626 -7.11881 -4.90358 -7.08351 -7.32844 -4.69036 -7.1973 -7.53592 
-4.4752 -7.3132 -7.74271 -4.26224 -7.44106 -7.94664 -4.05002 -7.57296 -8.14961 
-3.84674 -7.72149 -8.34739 -3.64659 -7.87589 -8.54335 -3.46031 -8.04974 -8.72994 
-3.27913 -8.23074 -8.91309 -3.11489 -8.43135 -9.08094 -2.95716 -8.63949 -9.24293 
-2.81796 -8.86443 -9.38251 -2.68617 -9.09608 -9.51314 -2.57351 -9.33901 -9.61403 
-2.46883 -9.58664 -9.70252 -2.38353 -9.8381 -9.75488 -2.30662 -10.0912 -9.79156 
-2.24938 -10.3399 -9.78785 -2.20101 -10.5866 -9.76591 -2.1727 -10.8212 -9.70241 
-2.1538 -11.0502 -9.61941 -2.15523 -11.2608 -9.49703 -2.16657 -11.4624 -9.35545 
-2.19784 -11.6423 -9.17974 -2.23921 -11.8112 -8.98675 -2.29892 -11.9577 -8.76703 
-2.36827 -12.0924 -8.53328 -2.45283 -12.2071 -8.28121 -2.54567 -12.3109 -8.01914 
-2.64905 -12.3995 -7.74692 -2.75837 -12.4795 -7.46897 -2.87238 -12.5506 -7.18782 
-2.98913 -12.6164 -6.9048 -3.10423 -12.6797 -6.62373 -3.21832 -12.7414 -6.34384 
-3.32481 -12.8062 -6.06902 -3.4265 -12.873 -5.7974 -3.51592 -12.9466 -5.53212 
-3.59734 -13.0249 -5.271 -3.66388 -13.112 -5.01617 -3.72036 -13.2052 -4.76561 
-3.76177 -13.3076 -4.52049 -3.79262 -13.4164 -4.2792 -3.81048 -13.5334 -4.04229 
-3.81893 -13.6565 -3.80855 -3.81805 -13.7865 -3.57831 -3.81016 -13.9216 -3.35068 
-3.79715 -14.0622 -3.12607 -3.78014 -14.207 -2.9038 -3.76171 -14.3563 -2.68453 
-3.74213 -14.5092 -2.46768 -3.72365 -14.666 -2.2542 -3.70609 -14.826 -2.04352 
-3.6908 -14.9901 -1.83673 -3.67746 -15.1576 -1.63326 -3.66663 -15.3297 -1.43403 
-3.65803 -15.5056 -1.23856 -3.65178 -15.6866 -1.04724 -3.64769 -15.8723 -0.859723 
-3.64596 -16.0632 -0.67557 -3.64648 -16.2593 -0.494617 -3.64973 -16.4604 -0.315587 
-3.65567 -16.6663 -0.13845 -3.66499 -16.8762 0.0385806 -3.67774 -17.0901 0.215503 
-3.69442 -17.3065 0.394012 -3.71521 -17.5255 0.57419 -3.73994 -17.7455 0.757002 
-3.76896 -17.9665 0.942678 -3.80107 -18.1874 1.13107 -3.83668 -18.4081 1.32251 
-3.87365 -18.6283 1.51575 -3.91218 -18.8479 1.71108 -3.94965 -19.0671 1.90657 
-3.98582 -19.2861 2.10225 -4.01826 -19.5056 2.29616 -4.04603 -19.7259 2.48786 
-4.06777 -19.9479 2.67602 -4.08174 -20.1723 2.85963 -4.08829 -20.3997 3.03852 
-4.08495 -20.6311 3.21112 -4.07402 -20.8663 3.37859 -4.05262 -21.1067 3.53899 
-4.02459 -21.3513 3.69465 -3.98711 -21.6017 3.84352 -3.94467 -21.8558 3.98861 
-3.89489 -22.1151 4.12811 -3.84183 -22.377 4.2651 -3.78374 -22.6426 4.39822 
-3.7234 -22.9088 4.53003 -3.65946 -23.1762 4.65974 -3.5932 -23.4421 4.78903 
-3.52311 -23.7057 4.91764 -3.44948 -23.9656 5.04629 -3.36982 -24.2192 5.17499 
-3.28461 -24.4672 5.30375 -3.1896 -24.7053 5.4326 -3.08684 -24.9363 5.56118 
-2.9699 -25.1543 5.68928 -2.84346 -25.3646 5.81665 -2.69897 -25.5601 5.9426 
-2.54416 -25.7479 6.06732 -2.36898 -25.9205 6.18962 -2.18374 -26.0861 6.31032 
-1.97784 -26.2376 6.42775 -1.76309 -26.3834 6.54339 -1.52944 -26.517 6.65519 
-1.28876 -26.6462 6.76516 -1.0325 -26.7659 6.87108 -0.771267 -26.8824 6.97529 
-0.498564 -26.992 7.07555 -0.222821 -27.0995 7.1743 0.0602194 -27.2019 7.26944 
0.344737 -27.3028 7.36332 0.632946 -27.3999 7.45405 0.921566 -27.4955 7.54378 
1.21125 -27.5873 7.63087 1.50079 -27.6773 7.71716 1.78991 -27.7626 7.80127 
2.07874 -27.8455 7.88474 2.36671 -27.9217 7.96643 2.65452 -27.9947 8.04765 
2.94183 -28.0585 8.12745 3.22923 -28.1186 8.20694 3.51687 -28.167 8.28549 
3.80483 -28.2112 8.36398 4.09378 -28.242 8.44223 4.38314 -28.2685 8.52076 
4.67388 -28.2805 8.6002 4.96493 -28.2887 8.68036 5.25708 -28.2827 8.76307 
5.54927 -28.2734 8.84702 5.84156 -28.2516 8.93567 6.13346 -28.2275 9.02613 
6.42379 -28.1937 9.12375 6.71323 -28.1585 9.22369 6.99894 -28.1175 9.33328 
7.28328 -28.0761 9.44554 7.56157 -28.0333 9.56956 7.83811 -27.9912 9.69638 
8.10651 -27.9525 9.83627 8.37296 -27.9153 9.97885 8.62974 -27.886 10.1347 
8.88455 -27.859 10.2929 9.12899 -27.8437 10.4634 9.37166 -27.831 10.6356 
9.6043 -27.8328 10.8181 9.8355 -27.8372 11.0017 10.058 -27.8569 11.1927 
10.2796 -27.879 11.3843 10.4947 -27.9156 11.5799 10.7092 -27.9541 11.7756 
10.92 -28.0048 11.972 11.1306 -28.0567 12.1681 11.3401 -28.1178 12.362 
11.5498 -28.1797 12.5552 11.7604 -28.2482 12.7439 11.9712 -28.3173 12.9318 
12.1837 -28.3921 13.1132 12.3963 -28.4675 13.2938 12.6095 -28.5499 13.4667 
12.8226 -28.6333 13.6388 13.0333 -28.7272 13.8027 13.2434 -28.8223 13.9659 
13.4464 -28.9322 14.121 13.6485 -29.0433 14.2756 13.8368 -29.1719 14.4236 
14.0239 -29.3016 14.5713 14.1898 -29.4485 14.715 14.3541 -29.596 14.8586 
14.4891 -29.7551 15.0024 14.6224 -29.9144 15.1463 14.7175 -30.0749 15.2958 
14.8109 -30.2349 15.4457 14.8568 -30.3813 15.6077 14.9012 -30.5269 15.7702 
14.8886 -30.6411 15.952 14.8749 -30.7545 16.1343 14.7943 -30.817 16.3437 
14.7131 -30.879 16.5534 14.555 -30.8701 16.7981 14.3969 -30.8612 17.0428 

LINES 2 240
OFFSETS vtktypeint64
0 240 
CONNECTIVITY vtktypeint64
0 1 2 3 4 5 6 7 8 
9 10 11 12 13 14 15 16 17 
18 19 20 21 22 23 24 25 26 
27 28 29 30 31 32 33 34 35 
36 37 38 39 40 41 42 43 44 
45 46 47 48 49 50 51 52 53 
54 55 56 57 58 59 60 61 62 
63 64 65 66 67 68 69 70 71 
72 73 74 75 76 77 78 79 80 
81 82 83 84 85 86 87 88 89 
90 91 92 93 94 95 96 97 98 
99 100 101 102 103 104 105 106 107 
108 109 110 111 112 113 114 115 116 
117 118 119 120 121 122 123 124 125 
126 127 128 129 130 131 132 133 134 
135 136 137 138 139 140 141 142 143 
144 145 146 147 148 149 150 151 152 
153 154 155 156 157 158 159 160 161 
162 163 164 165 166 167 168 169 170 
171 172 173 174 175 176 177 178 179 
180 181 182 183 184 185 186 187 188 
189 190 191 192 193 194 195 196 197 
198 199 200 201 202 203 204 205 206 
207 208 209 210 211 212 213 214 215 
216 217 218 219 220 221 222 223 224 
225 226 227 228 229 230 231 232 233 
234 235 236 237 238 239 
CELL_DATA 1
FIELD FieldData 3
Length 1 1 double
67.453488783 
Tortuosity 1 1 double
0.77132896693 
ClusterLabel 1 1 int
1 
POINT_DATA 240
FIELD FieldData 6
Curvature 1 240 double
0 0.029285754252 0.058571508504 0.055848226475 0.052853681427 0.058862418182 0.06502505719 0.11225725511 0.16055159679 
0.28715584757 0.41648392127 0.65346208356 0.89516174097 1.0599202232 1.2205933334 1.0638778915 0.8873256652 0.65191589673 
0.41226414324 0.27691426982 0.15009818659 0.10290948672 0.063026051381 0.059979990478 0.060685884378 0.06325761665 0.066038601823 
0.068397551639 0.070704742401 0.071782862225 0.072697105924 0.070058000325 0.066906392423 0.062311475365 0.057492354943 0.06273147548 
0.069646969509 0.090688299163 0.11424710447 0.14511847665 0.17737923654 0.2122904089 0.24773701812 0.28087225854 0.31351220565 
0.33665290347 0.35763913238 0.36191641486 0.36219051227 0.34429681223 0.32181335284 0.28755114768 0.25015629735 0.20998935995 
0.16904743045 0.13201637208 0.096133069362 0.073558110972 0.055078027761 0.061773770181 0.076581723083 0.098025430109 0.12170590819 
0.14422400141 0.16633261815 0.18660721963 0.20620724078 0.225983025 0.24582625319 0.2698201784 0.29547438244 0.32948743688 
0.36698334566 0.41315166759 0.46308151811 0.51121995318 0.55855006663 0.58319933726 0.5972082125 0.57688398903 0.53982237993 
0.48431988048 0.41948022135 0.35537749854 0.2916621397 0.23601280333 0.18476311558 0.14014033106 0.099266978628 0.063244934118 
0.030068990255 0.031101015456 0.052935184008 0.082101253501 0.11588742496 0.14605685151 0.17386534736 0.19257928461 0.20514478788 
0.20590619161 0.19840472566 0.18249705811 0.16049794011 0.13684945369 0.11196394095 0.092612138585 0.077555156222 0.07004890616 
0.068606122947 0.071084582562 0.076820690066 0.082248514463 0.087411408067 0.091272782273 0.093977250347 0.094125733641 0.091924359961 
0.086670986685 0.078515712155 0.069778763209 0.060469834419 0.054000980032 0.050420336904 0.04893736062 0.049660551189 0.048768786958 
0.046120405225 0.040371633414 0.031134922766 0.023300348152 0.017097350013 0.022345116552 0.041376210942 0.061487479787 0.082943871539 
0.10231962538 0.11901455729 0.13113230401 0.13714713716 0.13793301554 0.13150293636 0.12151584155 0.10644729584 0.090601797624 
0.073607057145 0.058203225616 0.045236531202 0.037327289851 0.037444006623 0.043430879289 0.059070897203 0.078082993652 0.10284295124 
0.12935898235 0.1589787713 0.18751116607 0.21405000482 0.23566944057 0.24793001209 0.25326831255 0.24493512768 0.23201100088 
0.20966955734 0.18616027756 0.16016166262 0.13518346795 0.11246674525 0.091665538126 0.075280658594 0.060573466884 0.049892725945 
0.04079982666 0.035676531512 0.032046349685 0.032307311664 0.03407702982 0.039948678829 0.046698902286 0.055943143526 0.065257273607 
0.074778740584 0.083808509123 0.091312316992 0.097761189321 0.10078152114 0.10270650065 0.10089916855 0.098354633864 0.0931731822 
0.088065651148 0.083236061594 0.079156999323 0.07804877421 0.077948320756 0.082054218571 0.086801948262 0.094379573042 0.10208830318 
0.11040885831 0.11836789252 0.12453739814 0.13010993411 0.13254052462 0.13407821637 0.13060575407 0.12638100005 0.11764249567 
0.10843555056 0.09621301831 0.08409232696 0.072677732551 0.06205100965 0.057333323055 0.053324754367 0.055098223988 0.05723420491 
0.062602578261 0.06842595786 0.078716671532 0.089524914508 0.1059742269 0.12260474868 0.14145005184 0.16025840828 0.17855412893 
0.1969398931 0.21676635341 0.23750068193 0.27533319501 0.31496674389 0.39566390913 0.47804313613 0.60878163861 0.73838198633 
0.82397368268 0.90648461544 0.80877087745 0.70889969317 0.35444984659 0 
Torsion 1 240 double
0 0 0 -0.46703525115 -0.93802842817 -1.3387316801 -1.7382333948 -1.3347548897 -0.91050965479 
-0.67188582654 -0.43971839504 -0.33588650519 -0.23768336716 -0.20564104621 -0.177111689 -0.20006316534 -0.22623219377 -0.33181063345 
-0.44311227394 -0.83291295731 -1.245499926 -1.7775227883 -2.3205030721 -1.4796425969 -0.49783537767 -0.068987615338 0.2978460023 
0.40744688372 0.4855003541 0.50464273446 0.51593030281 0.60450614816 0.70422934116 0.9634094757 1.2473596206 1.1948922592 
1.0863553135 0.79340105822 0.46758035171 0.29328755942 0.14778507084 0.066362043649 -0.0021156378104 -0.043779073944 -0.079696600366 
-0.099245527201 -0.11508198815 -0.11861218145 -0.11919399812 -0.10888488071 -0.095824369427 -0.068282309207 -0.036888773206 0.029158585869 
0.10489411054 0.3243711551 0.58603321093 1.1332026941 1.7682206163 1.409068762 0.72957331303 0.37674004032 0.13401761354 
0.012796048765 -0.065624075991 -0.11730080454 -0.15914088161 -0.1878591366 -0.2115422738 -0.2193423858 -0.22078928771 -0.2052637966 
-0.18266647505 -0.15072427721 -0.11472888 -0.080744246336 -0.047666908411 -0.020461747631 0.00398856461 0.023438557073 0.040450893645 
0.052732305647 0.062618312802 0.06714701693 0.068859702799 0.060138892255 0.045727083668 -0.01188293837 -0.093934054859 -1.6857973634 
-4.1634171578 -3.6240434928 -1.2500116428 -0.2336665148 -0.072850006029 0.00075792788255 0.017438042092 0.01838508927 0.0086956967648 
-0.013598656106 -0.044716481231 -0.098645193409 -0.16910353389 -0.29514589703 -0.46287627717 -0.65324537856 -0.86118483075 -0.86307557879 
-0.69950297348 -0.49360819294 -0.25255345143 -0.09320576188 -0.0040750701131 0.032218586962 0.021545990979 -0.022519171954 -0.09728395289 
-0.20782283095 -0.3523764243 -0.5379788107 -0.7639458436 -0.89841399112 -0.9398324247 -0.86913314462 -0.68051695878 -0.53987078251 
-0.4514025114 -0.50809505117 -0.72809350317 -1.4878339119 -2.8756376886 -2.8929446347 -1.2605794701 -0.30815928495 -0.20246303645 
-0.1330371574 -0.11034425438 -0.095784585554 -0.092069228981 -0.089697409329 -0.089179670632 -0.083417071107 -0.070161813257 -0.028031400046 
0.056810180469 0.25770919256 0.63639831259 0.8796627673 0.90801416618 0.77312964211 0.36981271143 0.080510981648 -0.0144466557 
-0.0794890198 -0.091657877697 -0.097938119102 -0.093422563606 -0.089301239266 -0.085929915659 -0.083695166241 -0.083705150845 -0.0843886236 
-0.08645361051 -0.089955141668 -0.096518780305 -0.10311307437 -0.10977530747 -0.11177768061 -0.10303648771 -0.081237414753 -0.028099429685 
0.046373066373 0.1741818399 0.28179560604 0.336779959 0.35619495715 0.27890577191 0.20718540202 0.15127328216 0.10584683624 
0.091527889635 0.082700165882 0.090914168214 0.10310901643 0.12824161375 0.15827850188 0.20502630685 0.25827696772 0.33478784395 
0.41437225084 0.50551313303 0.58686495192 0.62946839525 0.65424568352 0.60461815068 0.55143550101 0.48257801811 0.41743431119 
0.36962155884 0.32558564373 0.30024507291 0.27671372864 0.26270462942 0.25132708178 0.25471546244 0.26111457146 0.28557805061 
0.31591602266 0.38407104286 0.45925258126 0.58315131246 0.68886852282 0.65822432684 0.60149142946 0.33203527453 0.065250840345 
-0.17771075059 -0.40409631577 -0.46773544635 -0.5237470162 -0.49661817406 -0.47050019634 -0.45673722829 -0.44644798533 -0.48435667774 
-0.5246832146 -0.60369526273 -0.68008102025 -0.70700497132 -0.72939804901 -0.64848721344 -0.56648220604 -0.45301975877 -0.34067618671 
-0.27159578977 -0.20197200282 -0.10055990014 0 0 0 
FrenetTangent 3 240 double
-0.63904423059 -0.62839254993 0.44355977561 -0.63904423059 -0.62839254993 0.44355977561 -0.63904423059 -0.62839254993 0.44355977561 
-0.62272256542 -0.63647975476 0.45458255831 -0.60626258104 -0.64463549522 0.46569875443 -0.59346805093 -0.65646871683 0.46533658989 
-0.58073617816 -0.66836480138 0.46477821407 -0.57428421897 -0.68617138082 0.44566212572 -0.56799467134 -0.70413081789 0.42606609653 
-0.57044465882 -0.72882262793 0.37408102801 -0.57319863013 -0.75374860746 0.3209693842 -0.58208232555 -0.77634616695 0.21424522958 
-0.59123486852 -0.79884160277 0.10516964904 -0.5896552239 -0.78874608845 -0.055747106893 -0.58750572861 -0.7769200812 -0.2194164916 
-0.5648577539 -0.72252807315 -0.3658266119 -0.54092862422 -0.66547569006 -0.51115802817 -0.51799342661 -0.60787421132 -0.59349869756 
-0.49512986374 -0.55023315811 -0.67129949329 -0.4858023088 -0.5138393023 -0.70551594332 -0.47758224541 -0.47918385355 -0.73616640142 
-0.48030421989 -0.46074504948 -0.74609381691 -0.48403005106 -0.44379401099 -0.75412003584 -0.49386771762 -0.43387359944 -0.75342678627 
-0.50432788594 -0.42466927027 -0.75184544269 -0.51734347001 -0.41572136958 -0.74783511167 -0.53064564278 -0.40680222722 -0.74355237084 
-0.54400197594 -0.39455539859 -0.74029786879 -0.55736495141 -0.3819004575 -0.7371694715 -0.56861528163 -0.36547767599 -0.73668076738 
-0.57958392582 -0.34855251576 -0.73654402234 -0.58626775313 -0.33015346887 -0.73952500102 -0.59233357799 -0.31154184218 -0.74295565139 
-0.59206582707 -0.29542773415 -0.74958923261 -0.59081421971 -0.27970159019 -0.75672035649 -0.58143386428 -0.27049973176 -0.76711651623 
-0.5706987175 -0.26238525425 -0.7780568486 -0.55004275056 -0.26332576953 -0.79208706394 -0.52761871666 -0.2658800459 -0.80666795149 
-0.49310768093 -0.27762826281 -0.82338981801 -0.45630011486 -0.29112332844 -0.84051847053 -0.4051420118 -0.31130899655 -0.85752569238 
-0.35108481036 -0.33284630154 -0.87450838278 -0.28173141374 -0.35611679203 -0.88767479172 -0.20910026102 -0.37975867943 -0.90002342605 
-0.12385047329 -0.39881284027 -0.90428784023 -0.035738727111 -0.41682648583 -0.90671871994 0.057304940618 -0.42521432363 -0.8984161103 
0.15153021455 -0.43129597832 -0.88754193549 0.24014716612 -0.42704745971 -0.86722005113 0.32734727836 -0.42018921311 -0.84451137699 
0.4007053564 -0.40716289141 -0.81731128113 0.47038204238 -0.3924961242 -0.7889166582 0.52345264569 -0.37791804838 -0.76159254362 
0.57188068827 -0.363364768 -0.73456771093 0.60519000165 -0.35417837551 -0.71205516179 0.63406229667 -0.34656704794 -0.69086686979 
0.65062828619 -0.34757016764 -0.67491800261 0.66340772017 -0.35122388649 -0.66058126614 0.66627569078 -0.36490173596 -0.65005439942 
0.66594996763 -0.38180958307 -0.64075515739 0.65738893474 -0.40856964477 -0.63235641971 0.64605195475 -0.43865067769 -0.62426122282 
0.62785881417 -0.47695686386 -0.61333552481 0.60725043519 -0.5181605472 -0.60141271843 0.58140087683 -0.56476346769 -0.58281755079 
0.55362352835 -0.61335231448 -0.56176818129 0.52242765061 -0.66398420904 -0.53068046841 0.48992001165 -0.71540006378 -0.49574083307 
0.45529579362 -0.76553509862 -0.44791509916 0.41982494396 -0.8151578055 -0.39493492582 0.3821417109 -0.85977292642 -0.32643072581 
0.34353665143 -0.90230155319 -0.25145818135 0.30100535826 -0.93407074065 -0.15926173954 0.25677112036 -0.96117318334 -0.059594691643 
0.20658100225 -0.9688215637 0.054434858959 0.15370347477 -0.96769189153 0.17494505102 0.095722770413 -0.93995363071 0.29779697765 
0.035347983071 -0.89973232829 0.42174749581 -0.024790826339 -0.83686826492 0.53067956423 -0.084814596506 -0.76296585558 0.63229013842 
-0.13865807948 -0.68159576187 0.70968122913 -0.18937230312 -0.59644456215 0.77480929023 -0.23162489609 -0.51771541649 0.81916215532 
-0.26942970885 -0.44236196592 0.85259472506 -0.29929234426 -0.37967199912 0.87337754074 -0.32482288295 -0.32388938712 0.88726049057 
-0.34337539079 -0.2816849571 0.89526456485 -0.35797980223 -0.24716291952 0.89994243323 -0.36588209473 -0.2252426488 0.90288196488 
-0.36985247743 -0.21071541464 0.90480167231 -0.36662485511 -0.20732204236 0.90693971188 -0.35902006757 -0.21069926176 0.909210521 
-0.34346952807 -0.22335582073 0.91185477525 -0.32291207639 -0.24185963475 0.91473435108 -0.29454456499 -0.26682136862 0.91671936666 
-0.26107882018 -0.29599868906 0.91812043319 -0.22217890601 -0.32769188047 0.91694129465 -0.17960518721 -0.3610859424 0.91401779213 
-0.1363219386 -0.39316865436 0.90794546195 -0.092542019128 -0.42433342135 0.8996689524 -0.053049420591 -0.45214744867 0.88938394425 
-0.016663576353 -0.47753340377 0.87764350235 0.012581750946 -0.49960566575 0.8656384482 0.036471690543 -0.51919265789 0.85343493486 
0.053044613701 -0.53673498722 0.8418417026 0.063938658431 -0.55269041409 0.83072212133 0.069107859629 -0.5679113658 0.82002525525 
0.069679837992 -0.58254251171 0.80966784227 0.066807040233 -0.5973774279 0.79898379437 0.061072428464 -0.61238163016 0.78802838822 
0.053926598852 -0.62805317334 0.77604524774 0.045568003905 -0.64429821262 0.76317889807 0.037009797662 -0.66100410202 0.74915781845 
0.028274159156 -0.67811963598 0.7341103122 0.01958720451 -0.6949140342 0.71849868555 0.010945007606 -0.71141319471 0.70236843209 
0.0019523825065 -0.72640319033 0.68699518524 -0.007373436616 -0.73995824227 0.67234171517 -0.017525558793 -0.75102987884 0.65986226041 
-0.028490212308 -0.7596594903 0.64952058738 -0.040352237656 -0.76549878769 0.6420582083 -0.053126844529 -0.76850047752 0.63752392476 
-0.066236623762 -0.76906938558 0.6356155765 -0.079698911854 -0.76707967831 0.63646898778 -0.09240352249 -0.7636223068 0.63891134633 
-0.10428399274 -0.75856852858 0.64308203349 -0.11407597433 -0.75342349695 0.64750571471 -0.1215184062 -0.74817580524 0.65221401425 
-0.12566694733 -0.7442100346 0.65601025281 -0.12598259744 -0.74173595395 0.65874518404 -0.12217730026 -0.74154792426 0.65963572826 
-0.11341160357 -0.74411162257 0.65830617698 -0.10034569856 -0.74923680819 0.65441243404 -0.081924817159 -0.75755177046 0.64732554677 
-0.059983065416 -0.76778878483 0.63732250649 -0.033504807659 -0.78050228941 0.62356211519 -0.0053186564852 -0.79384762663 0.60724767772 
0.025144685912 -0.80803540737 0.58752784533 0.054978374836 -0.82159605315 0.56651861226 0.083943141968 -0.83429125271 0.54373000626 
0.11048890214 -0.84568335508 0.52143574899 0.13357893809 -0.85521389 0.49984770418 0.15378764017 -0.86334433413 0.48022562856 
0.16973436924 -0.8694038106 0.46351154904 0.18366086853 -0.87414604331 0.4494371718 0.19449254772 -0.87687037069 0.43940659382 
0.20503049389 -0.87822556905 0.43198563325 0.21510229854 -0.87740801919 0.42870602203 0.22693410592 -0.87497259012 0.42751732245 
0.24166014003 -0.86987664857 0.42976701091 0.26000648602 -0.86267298704 0.43328690202 0.28452381816 -0.85187662098 0.43897191131 
0.3136979465 -0.83824749391 0.44482891136 0.35110269138 -0.81961162644 0.45098989511 0.39268972149 -0.79746671334 0.45600656336 
0.44194427455 -0.76888854991 0.45892531985 0.49311348203 -0.73688883521 0.45962422281 0.54792520277 -0.69837982784 0.4560999898 
0.60149501189 -0.65798410791 0.45014740113 0.65261204554 -0.61386213066 0.43939881004 0.70029923913 -0.57022105353 0.42706278471 
0.74095086337 -0.52756643817 0.41147048404 0.77779017279 -0.48717259613 0.39550812385 0.80650323223 -0.45159777088 0.37875695257 
0.83212355137 -0.4189185917 0.36250023398 0.8508896893 -0.39265679031 0.34733932944 0.86754474017 -0.3689604833 0.33304885515 
0.87933256253 -0.3511790661 0.32076520618 0.88982256688 -0.33519182096 0.30939207273 0.89719780802 -0.32351058878 0.30020417655 
0.90386556348 -0.31274565554 0.29180419541 0.90876460473 -0.30427146965 0.28537400184 0.91338809107 -0.29585222198 0.279543765 
0.91729346463 -0.28757614665 0.27527705175 0.92122112435 -0.2785962219 0.27142093641 0.92520937457 -0.26770270657 0.2686811341 
0.92935959614 -0.25554751974 0.26619988396 0.93396960735 -0.23981081381 0.26445258835 0.93867988083 -0.22262930343 0.2628699032 
0.94368759902 -0.20116153986 0.26177556246 0.94858170357 -0.17842180701 0.26085088486 0.95312321402 -0.15173458334 0.26045274804 
0.95728685877 -0.12426584651 0.26034646062 0.96022243998 -0.094257191923 0.26118868378 0.96259094181 -0.06416306774 0.26253516413 
0.96302717312 -0.033777713812 0.26559985413 0.96285084862 -0.0039945055805 0.26941605654 0.96048345917 0.023634873817 0.27592036103 
0.95756672318 0.050158070051 0.28338237016 0.9525844442 0.072522017591 0.29444534877 0.94714205092 0.093485953311 0.30656125221 
0.93987837188 0.10890817557 0.3228449831 0.93221659816 0.12276353827 0.34013265276 0.92289321188 0.13007896541 0.3616106755 
0.91319897621 0.13577481547 0.38388153534 0.90186963189 0.13432980294 0.409648086 0.89019218606 0.13129928515 0.43585315828 
0.87689026652 0.12086974284 0.46410466475 0.86330474083 0.10902108277 0.49233613768 0.84831536465 0.090147789821 0.52046844449 
0.83317833935 0.07018769261 0.54811689856 0.81726421334 0.044507572943 0.57321875919 0.80141118514 0.018245467866 0.59748399131 
0.78590098348 -0.011282222018 0.61705480795 0.77071532669 -0.040832076728 0.63561580633 0.7574769391 -0.070514920396 0.64811789515 
0.74477780982 -0.099760869239 0.65965829591 0.73555015585 -0.12619430765 0.66500782973 0.72697076612 -0.15193284367 0.66956845415 
0.7228860084 -0.17285338978 0.66865930675 0.71938166183 -0.19313145762 0.66718032064 0.72023039888 -0.20859093846 0.66142754423 
0.72144478923 -0.22369721818 0.65530526547 0.72564066026 -0.23592355026 0.64617012143 0.72991872397 -0.24822467585 0.63682150816 
0.73492967234 -0.26119271019 0.62556946092 0.739711916 -0.27465219171 0.61425305869 0.74224869531 -0.29293679099 0.60230480735 
0.74429081192 -0.31192965821 0.59041809189 0.74094110505 -0.33864264606 0.57920211744 0.73688184062 -0.36599746349 0.56818611637 
0.72415020603 -0.40119686464 0.55961423438 0.71058876483 -0.43673155467 0.55139358751 0.68551375681 -0.47691837783 0.54804632771 
0.65958887588 -0.51701920866 0.54523277255 0.62006602851 -0.55574416199 0.55095849148 0.57967360621 -0.59398604582 0.55741938354 
0.52290418939 -0.62313012079 0.57772603615 0.46513757597 -0.65140456311 0.59886909043 0.38463488007 -0.65985138124 0.63908210271 
0.30299143169 -0.66691514297 0.67989443201 0.18855134946 -0.63421603337 0.73793712569 0.073367347242 -0.59983177667 0.79572192227 
-0.070581561236 -0.50028849909 0.843534698 -0.21420816441 -0.39992147196 0.89045888678 -0.33897990708 -0.25136509643 0.88540073897 
-0.46270314771 -0.10405709381 0.88038509661 -0.46270314771 -0.10405709381 0.88038509661 -0.46270314771 -0.10405709381 0.88038509661 

FrenetNormal 3 240 double
0.71949140258 -0.28447590736 0.63356576592 0.71949140258 -0.28447590736 0.63356576592 0.71949140258 -0.28447590736 0.63356576592 
0.7567305098 -0.39719945026 0.48086251452 0.79428520267 -0.51087827742 0.32686516777 0.65572874521 -0.62570329203 -0.045929788621 
0.51416184073 -0.74054789959 -0.42246487509 0.28719205987 -0.64738424164 -0.62834360514 0.058013583923 -0.54884105958 -0.82980880873 
-0.017817658846 -0.44074454513 -0.88650741495 -0.088315084808 -0.33231574086 -0.93817066125 -0.073990089723 -0.21113794414 -0.96641607732 
-0.055944813013 -0.089400981081 -0.99363439557 0.010496076811 0.061694031484 -0.98372943861 0.079506645208 0.21434787854 -0.97185333429 
0.14245497599 0.35013332529 -0.91154745098 0.20502441691 0.48486449702 -0.84821470648 0.21716183257 0.57624204575 -0.77984555272 
0.22566450767 0.66449500904 -0.7111134145 0.13956614244 0.74361159384 -0.6381181255 0.045727692102 0.82198065677 -0.56477403325 
-0.24919668845 0.8161118464 -0.34481743438 -0.56256931948 0.80251479078 -0.11141014683 -0.69633542442 0.66385729145 0.074284163465 
-0.81180827206 0.51246215434 0.25511881867 -0.80500869952 0.53043358807 0.26203145445 -0.78449633218 0.56739940357 0.24943881702 
-0.72107440392 0.65443492278 0.18111783331 -0.65238998234 0.74761106603 0.10596224109 -0.55367034485 0.81884881299 0.021138089836 
-0.45094601191 0.88716144045 -0.064975202624 -0.31513474433 0.91936504453 -0.16063755123 -0.17455132272 0.94636061639 -0.25767716755 
0.052133941542 0.87525208641 -0.38627130478 0.29219424933 0.78890408429 -0.51976711515 0.51668847415 0.51185465855 -0.57173150273 
0.73858835182 0.2030216622 -0.61010731985 0.80448638475 -0.012569793778 -0.55410080095 0.84258210872 -0.21154394553 -0.48127366772 
0.85744570007 -0.29149255698 -0.41516130214 0.86789518623 -0.34882631577 -0.35032474241 0.88689136786 -0.35378161817 -0.29057987633 
0.90761415463 -0.34815541423 -0.23186363524 0.93112832541 -0.31317166126 -0.1698831224 0.9552406499 -0.27189700492 -0.10720312277 
0.97186627072 -0.21250036194 -0.039384260158 0.98679387626 -0.14899357766 0.029600117763 0.9868886239 -0.078115169926 0.099919957208 
0.98342966599 -0.0054706440779 0.17055975098 0.96507009097 0.062849567491 0.23629015878 0.94294614951 0.13007732071 0.30078030066 
0.91295404606 0.18201757408 0.35691710535 0.88086934634 0.22989200302 0.4108322778 0.85000414234 0.24924213869 0.46053849907 
0.81947987263 0.26061774076 0.5090680243 0.7893004322 0.20163872326 0.57041941645 0.75922219166 0.12201215437 0.6355337478 
0.60083724067 -0.17417401556 0.66765879886 0.40297330184 -0.53699390887 0.68963330215 0.12764075062 -0.73694666476 0.54560281279 
-0.17265390902 -0.8844200097 0.3480818258 -0.30736768778 -0.90890286885 0.26779318394 -0.38626768645 -0.89192826086 0.2270210629 
-0.42613161405 -0.87075710073 0.24091750888 -0.45224419844 -0.84810760973 0.27407220007 -0.46388427287 -0.81882759205 0.33071959451 
-0.47020112523 -0.78710875996 0.39600798326 -0.46612873871 -0.74337440051 0.47125167067 -0.45806978378 -0.69502943171 0.55031541455 
-0.44404131024 -0.63134600792 0.62771880273 -0.42762502927 -0.56152720212 0.70445804863 -0.4130929145 -0.47565355813 0.76926274403 
-0.39934586898 -0.38309039822 0.82909471004 -0.39358559676 -0.27511399596 0.86972560784 -0.39128946719 -0.16045233195 0.90202833149 
-0.39630929658 -0.033445320006 0.90871141459 -0.40463022941 0.099132153812 0.90383441597 -0.41320076257 0.23341544706 0.8695602293 
-0.42188839218 0.36849900126 0.82149476922 -0.4263188359 0.488190894 0.7499498341 -0.4286739015 0.60037935178 0.66695865488 
-0.42696996321 0.68728157715 0.57666407019 -0.42321083308 0.76138064687 0.48267155868 -0.41886219576 0.81281231246 0.39527049387 
-0.41420368927 0.85232906048 0.31133416385 -0.40946149097 0.87772433447 0.24124921868 -0.40467364258 0.89541698625 0.17871957433 
-0.39144785165 0.90939456573 0.13599279402 -0.37344796165 0.92127019641 0.10447026574 -0.16581053756 0.92004021433 0.16346603719 
0.15308090654 0.91112160611 0.27556587784 0.42228972056 0.42824277244 0.26458387906 0.66128612441 -0.34285511724 0.17875481578 
0.74809607698 -0.65104415132 0.12230665194 0.73900771778 -0.66753719418 0.084372479524 0.74544198928 -0.66366663324 0.046344835236 
0.76200908914 -0.64650316425 0.0082561745851 0.77799778707 -0.62528025082 -0.034947327168 0.79359545269 -0.60131292425 -0.081608749667 
0.80224870016 -0.58033455575 -0.1308505996 0.80604085493 -0.56144845789 -0.18189874874 0.79681091004 -0.55452392675 -0.23437651191 
0.77814466108 -0.55626719758 -0.2878902273 0.73180495529 -0.58044409409 -0.34558702846 0.6647101569 -0.62144620986 -0.40642114395 
0.52858682882 -0.68173819283 -0.46779104731 0.33888911949 -0.75700141603 -0.52957678604 0.1282677943 -0.79273792474 -0.55980252771 
-0.099155828483 -0.79673328395 -0.56468463538 -0.24868898737 -0.78292882059 -0.56459055638 -0.33351314547 -0.75433681232 -0.56036241461 