# vtk DataFile Version 5.1
vtk output
ASCII
DATASET POLYDATA
POINTS 240 float
0 0 0 -0.018317 -0.371724 -0.233914 -0.0366341 -0.743449 -0.467827 
-0.121062 -1.13411 -0.613074 -0.206051 -1.52493 -0.75757 -0.342725 -1.92645 -0.84441 
-0.480283 -2.32815 -0.930264 -0.65533 -2.73251 -0.988489 -0.831345 -3.13695 -1.046 
-1.03096 -3.53636 -1.1038 -1.23139 -3.9356 -1.16161 -1.44206 -4.32275 -1.2437 
-1.65318 -4.70937 -1.32686 -1.86211 -5.07776 -1.45211 -2.07092 -5.44519 -1.57961 
-2.26646 -5.78951 -1.75909 -2.46118 -6.13239 -1.94183 -2.63335 -6.44877 -2.17768 
-2.8039 -6.76325 -2.41737 -2.94436 -7.04961 -2.70335 -3.08237 -7.33367 -2.99312 
-3.18411 -7.59 -3.31656 -3.28253 -7.84378 -3.64309 -3.33933 -8.07237 -3.98808 
-3.39191 -8.29839 -4.33496 -3.39833 -8.50388 -4.68593 -3.39957 -8.70707 -5.03737 
-3.35168 -8.89629 -5.38222 -3.29775 -9.08379 -5.72625 -3.19434 -9.26505 -6.05818 
-3.08434 -9.44548 -6.38849 -2.92793 -9.62739 -6.70649 -2.76483 -9.80951 -7.02271 
-2.56161 -9.99955 -7.33028 -2.35216 -10.1908 -7.63652 -2.11098 -10.3942 -7.9389 
-1.86451 -10.5997 -8.24065 -1.59538 -10.8195 -8.54094 -1.3222 -11.0419 -8.84097 
-1.03501 -11.2791 -9.1365 -0.745159 -11.5191 -9.43117 -0.449283 -11.773 -9.71133 
-0.15219 -12.0298 -9.98857 0.14306 -12.2986 -10.2353 0.437915 -12.5699 -10.4754 
0.722297 -12.8493 -10.6661 1.0043 -13.1306 -10.8455 1.26578 -13.4141 -10.9578 
1.52235 -13.6982 -11.054 1.74703 -13.9767 -11.0716 1.96366 -14.2539 -11.0693 
2.13687 -14.5168 -10.9859 2.29855 -14.7758 -10.881 2.40701 -15.0122 -10.7025 
2.50059 -15.2422 -10.5033 2.53495 -15.4427 -10.2453 2.55194 -15.6346 -9.97017 
2.50895 -15.7934 -9.65494 2.44752 -15.942 -9.32738 2.33107 -16.0576 -8.97766 
2.19689 -16.1626 -8.6208 2.01763 -16.2389 -8.25573 1.82317 -16.3056 -7.8879 
1.59675 -16.3517 -7.52053 1.35907 -16.3905 -7.15332 1.10341 -16.419 -6.79053 
0.841129 -16.4436 -6.42937 0.573263 -16.4674 -6.07378 0.303254 -16.4908 -5.72034 
0.0365778 -16.519 -5.37306 -0.228765 -16.5491 -5.02826 -0.486372 -16.5833 -4.69165 
-0.740757 -16.6191 -4.35845 -0.987658 -16.6513 -4.03798 -1.23131 -16.6819 -3.72304 
-1.4714 -16.6952 -3.42773 -1.70987 -16.7007 -3.14128 -1.95028 -16.6734 -2.8821 
-2.1916 -16.6308 -2.63571 -2.4395 -16.5425 -2.42247 -2.69061 -16.4321 -2.22538 
-2.95002 -16.2705 -2.063 -3.21363 -16.0831 -1.9182 -3.48322 -15.8484 -1.80391 
-3.75595 -15.589 -1.70564 -4.02823 -15.2955 -1.62793 -4.30027 -14.9836 -1.56143 
-4.56223 -14.6572 -1.50133 -4.81849 -14.3226 -1.44486 -5.05358 -13.9952 -1.37918 
-5.27625 -13.6721 -1.30808 -5.46737 -13.3755 -1.21382 -5.6393 -13.095 -1.10546 
-5.77214 -12.8545 -0.96452 -5.88035 -12.6392 -0.803041 -5.94609 -12.4703 -0.605807 
-5.98411 -12.3315 -0.385234 -5.98056 -12.2389 -0.132156 -5.94891 -12.1775 0.142898 
-5.87985 -12.158 0.441905 -5.7846 -12.168 0.757679 -5.65777 -12.214 1.08583 
-5.50805 -12.286 1.42295 -5.33254 -12.3883 1.76075 -5.1377 -12.5132 2.09905 
-4.92196 -12.6629 2.42867 -4.69 -12.8316 2.75155 -4.44099 -13.0195 3.06026 
-4.17828 -13.2227 3.3576 -3.90165 -13.439 3.6393 -3.61346 -13.6662 3.90801 
-3.31437 -13.9002 4.16246 -3.00591 -14.1399 4.40463 -2.68985 -14.3806 4.63448 
-2.36703 -14.6219 4.85336 -2.04034 -14.8591 5.06009 -1.71008 -15.0926 5.25563 
-1.37995 -15.319 5.43582 -1.04993 -15.5387 5.6014 -0.72407 -15.7505 5.74503 
-0.402309 -15.9547 5.86706 -0.0886072 -16.1527 5.95891 0.216898 -16.3445 6.02005 
0.51066 -16.5336 6.04405 0.792071 -16.7199 6.02897 1.05823 -16.9083 5.97384 
1.3078 -17.0989 5.87514 1.53873 -17.2965 5.73896 1.7487 -17.5021 5.5606 
1.93683 -17.7191 5.35271 2.09956 -17.9495 5.11046 2.23778 -18.1944 4.85033 
2.34648 -18.4569 4.56867 2.42903 -18.7352 4.28219 2.479 -19.0331 3.98971 
2.50281 -19.3461 3.70481 2.49289 -19.6787 3.4297 2.45884 -20.0242 3.17247 
2.39258 -20.387 2.93907 2.30628 -20.7597 2.73086 2.19232 -21.1461 2.5574 
2.06422 -21.5391 2.41312 1.91592 -21.9415 2.31051 1.76061 -22.3472 2.23786 
1.59491 -22.7579 2.20955 1.42965 -23.1687 2.2094 1.26506 -23.5798 2.2524 
1.10771 -23.988 2.32014 0.961845 -24.3916 2.42711 0.828415 -24.7892 2.55473 
0.715434 -25.1768 2.71629 0.617875 -25.5552 2.89454 0.546604 -25.9181 3.10122 
0.491525 -26.2691 3.32104 0.465062 -26.5991 3.56408 0.453973 -26.9153 3.81711 
0.471068 -27.2062 4.08845 0.502164 -27.4826 4.36683 0.559893 -27.7315 4.65858 
0.630603 -27.9665 4.95449 0.726948 -28.1743 5.25864 0.835892 -28.3701 5.5643 
0.97068 -28.5414 5.87308 1.11787 -28.7029 6.18131 1.29149 -28.8437 6.48834 
1.47673 -28.9765 6.79365 1.68775 -29.0918 7.09513 1.90859 -29.2 7.39464 
2.15207 -29.2921 7.68965 2.40268 -29.3771 7.98309 2.67045 -29.445 8.27278 
2.9426 -29.505 8.56134 3.2257 -29.5457 8.84706 3.51124 -29.578 9.13152 
3.80315 -29.5887 9.41273 4.09691 -29.5912 9.6918 4.39575 -29.5715 9.96511 
4.69717 -29.5449 10.2348 5.00594 -29.4986 10.4944 5.31867 -29.4473 10.7489 
5.64313 -29.3816 10.9886 5.97273 -29.3135 11.2226 6.31826 -29.2381 11.4386 
6.66927 -29.1627 11.6491 7.03812 -29.0873 11.8418 7.41174 -29.0137 12.0304 
7.80167 -28.9462 12.2048 8.19483 -28.8815 12.3773 8.59952 -28.8268 12.5426 
9.0055 -28.7753 12.7081 9.41629 -28.7358 12.8745 9.82658 -28.6995 13.0429 
10.2349 -28.6761 13.2195 10.6415 -28.6558 13.3991 11.0411 -28.649 13.5914 
11.4387 -28.6453 13.7868 11.8273 -28.6558 13.9956 12.2144 -28.6695 14.2068 
12.594 -28.698 14.4286 12.9729 -28.7297 14.6514 13.3487 -28.7768 14.8796 
13.7249 -28.8268 15.1076 14.1035 -28.8923 15.335 14.4834 -28.9607 15.5614 
14.8706 -29.0446 15.7821 15.2595 -29.1312 16.0014 15.6577 -29.234 16.2119 
16.057 -29.3395 16.421 16.4631 -29.4628 16.6208 16.8689 -29.5892 16.8194 
17.2732 -29.7366 17.0102 17.6754 -29.8873 17.2003 18.0619 -30.0633 17.385 
18.4441 -30.2427 17.5692 18.7918 -30.4511 17.7505 19.1332 -30.6629 17.9317 
19.4191 -30.9055 18.1117 19.6974 -31.1511 18.2917 19.9004 -31.4263 18.4709 
20.0951 -31.7039 18.6501 20.1994 -32.0069 18.8279 20.2958 -32.3115 19.0056 
20.2942 -32.6354 19.1805 20.2858 -32.9602 19.3552 20.1818 -33.2975 19.5257 
20.0725 -33.6352 19.6959 19.8795 -33.9793 19.8608 19.6831 -34.3235 20.0254 
19.4229 -34.6696 20.1842 19.161 -35.0156 20.3428 18.8606 -35.3608 20.4957 
18.5599 -35.7059 20.6484 18.2493 -36.0485 20.7961 17.9391 -36.3911 20.9437 
17.6488 -36.7305 21.0873 17.3593 -37.07 21.2309 17.12 -37.406 21.3716 
16.8813 -37.7419 21.5123 16.7237 -38.0744 21.6515 16.566 -38.4068 21.7906 

LINES 2 240
OFFSETS vtktypeint64
0 240 
CONNECTIVITY vtktypeint64
0 1 2 3 4 5 6 7 8 
9 10 11 12 13 14 15 16 17 
18 19 20 21 22 23 24 25 26 
27 28 29 30 31 32 33 34 35 
36 37 38 39 40 41 42 43 44 
45 46 47 48 49 50 51 52 53 
54 55 56 57 58 59 60 61 62 
63 64 65 66 67 68 69 70 71 
72 73 74 75 76 77 78 79 80 
81 82 83 84 85 86 87 88 89 
90 91 92 93 94 95 96 97 98 
99 100 101 102 103 104 105 106 107 
108 109 110 111 112 113 114 115 116 
117 118 119 120 121 122 123 124 125 
126 127 128 129 130 131 132 133 134 
135 136 137 138 139 140 141 142 143 
144 145 146 147 148 149 150 151 152 
153 154 155 156 157 158 159 160 161 
162 163 164 165 166 167 168 169 170 
171 172 173 174 175 176 177 178 179 
180 181 182 183 184 185 186 187 188 
189 190 191 192 193 194 195 196 197 
198 199 200 201 202 203 204 205 206 
207 208 209 210 211 212 213 214 215 
216 217 218 219 220 221 222 223 224 
225 226 227 228 229 230 231 232 233 
234 235 236 237 238 239 
CELL_DATA 1
FIELD FieldData 3
Length 1 1 double
98.560687705 
Tortuosity 1 1 double
1.0897901099 
ClusterLabel 1 1 int
3 
POINT_DATA 240
FIELD FieldData 6
Curvature 1 240 double
0 0.15139681574 0.30279363148 0.2604033052 0.21637071501 0.16895088434 0.12147315212 0.091253861951 0.061480910798 
0.067232624975 0.074219979686 0.096598004868 0.11965105946 0.13977469536 0.15974278691 0.1707650675 0.1812282349 0.18189129648 
0.18184804413 0.176326878 0.17035751891 0.1654182123 0.16057340591 0.16139474192 0.16279318504 0.16935779715 0.1765017927 
0.18178787626 0.18684610269 0.18142147056 0.17459912395 0.1566423414 0.1370796306 0.11454709012 0.091553216883 0.074107727491 
0.05758696874 0.050472110585 0.045033551547 0.048485737297 0.053627164557 0.066412922485 0.080742989639 0.10443538844 0.13013400117 
0.17000862518 0.213098427 0.27516724639 0.34178312207 0.41864873293 0.49810375058 0.54880005079 0.59184775592 0.57839765163 
0.54915246083 0.49255695229 0.42793472007 0.36776080868 0.30895561138 0.26004126231 0.21431396433 0.17572271119 0.13953686643 
0.10835277331 0.07893066088 0.055058317535 0.033227268566 0.024224796062 0.020144916854 0.019129108511 0.019338928515 0.017174956947 
0.014021905559 0.040554293731 0.079962294244 0.13670691411 0.2012741549 0.26902575776 0.33827125886 0.37115186951 0.38630459606 
0.35721802071 0.30573179882 0.24744326257 0.18557915083 0.13686910431 0.095334002452 0.080814570969 0.08158032141 0.11863940308 
0.17699057241 0.27653337552 0.40112514511 0.55439250675 0.72572941954 0.79749585076 0.80426488428 0.71724908566 0.56682945685 
0.44233154879 0.33597884525 0.26402559808 0.21699949322 0.18522628804 0.16489275763 0.1492942314 0.13737063379 0.12570732122 
0.11425302542 0.10233085541 0.090019989906 0.079082679064 0.069325766763 0.062929914806 0.059521672044 0.060643850185 0.065931092704 
0.078059285997 0.096691989863 0.12591197759 0.16554279446 0.21517541649 0.2749793658 0.33009335217 0.38027479129 0.40456421429 
0.40069039171 0.37757969148 0.3328275039 0.2909368924 0.25237611488 0.2237081505 0.20694820192 0.19696200967 0.19541106115 
0.19636329054 0.20054076839 0.2044750966 0.20808522528 0.20982422146 0.20898105481 0.20605669797 0.20015921232 0.19351150978 
0.18575411144 0.17899324844 0.17375899278 0.17043369778 0.17013784033 0.17136230259 0.17508684614 0.17929348435 0.18432187481 
0.18895425574 0.19288671286 0.19589238253 0.19719894188 0.19740769278 0.19552793005 0.19268278285 0.18793100133 0.18268326737 
0.17641819504 0.16930147527 0.16036940173 0.15052772972 0.13867019084 0.12701189769 0.11581297664 0.1061817182 0.10031285005 
0.096122317595 0.096127624371 0.096288281656 0.096853791784 0.097072540527 0.096348531753 0.095750061263 0.095507957513 0.095445449819 
0.095915743762 0.095586160516 0.092774199788 0.088721632584 0.080637094332 0.071912775898 0.061008465731 0.051138069964 0.044965906467 
0.040939993185 0.044983980708 0.0495501992 0.056183581943 0.062046960688 0.064696409696 0.066357001327 0.063657630885 0.060506841695 
0.055249431686 0.050465109044 0.048022568865 0.046264850238 0.048111455562 0.049961604475 0.051831636861 0.053473421279 0.053745717885 
0.054254814107 0.056288307863 0.059202234238 0.068220493442 0.078399597931 0.097285042059 0.11744329418 0.14797982688 0.17984014997 
0.22350427078 0.26760587564 0.31600277833 0.36228701485 0.38554318997 0.40501877504 0.37828714834 0.34976006285 0.29632098662 
0.24316085757 0.19446388354 0.14644840172 0.11126768975 0.076448927728 0.049882624732 0.024286251473 0.02657535819 0.029633674019 
0.062434742199 0.095599420984 0.15003532012 0.2031601606 0.1015800803 0 
Torsion 1 240 double
0 0 0 0.073351684398 0.14732499324 0.27660281516 0.40682601337 0.85145513392 1.3042154421 
1.0350462504 0.74076646736 0.49839660856 0.25830350082 0.19240469059 0.13575513509 0.12151722697 0.1099300468 0.11839254162 
0.12830005806 0.15504049111 0.18315816279 0.21852994137 0.25456723433 0.27129263146 0.28605107622 0.27088181072 0.25235616649 
0.22564763429 0.19793554037 0.17913714888 0.16152725106 0.15812238573 0.15676632318 0.18043520899 0.20799146543 0.27122472265 
0.34040414667 0.34306524833 0.33387159949 0.23195608828 0.11242342323 0.049701305645 -0.001543933663 -0.011724026617 -0.013104445352 
-0.0034066636466 0.0088036996024 0.022014077948 0.035464043243 0.047015643349 0.05808765646 0.067188744738 0.075765650878 0.0836333739 
0.091302830673 0.094890651531 0.097280600978 0.093622973084 0.088104552162 0.083979555268 0.08030355056 0.086824455903 0.096782521936 
0.14475593431 0.20612111643 0.51726574306 0.92028326883 1.0389566145 1.0485211468 0.70935829336 0.23070448555 -0.22883487357 
-0.68040987906 -0.53455858093 -0.12958262098 -0.0026859007204 -0.0012639593498 -0.0041480264382 -0.0090521962603 -0.016438698374 -0.025035337479 
-0.043667552126 -0.067381070845 -0.13104469703 -0.21570773868 -0.50425303757 -0.9040068404 -1.1000223507 -1.1807648798 -0.92158402897 
-0.46298146196 -0.22288386172 -0.11566090345 -0.05540329512 -0.024740290863 -0.0057662931217 0.0055773809212 0.017213754012 0.02904800815 
0.041052828272 0.053177044583 0.060464428291 0.064246860837 0.067871390758 0.071377493711 0.07707705002 0.084478988038 0.097728057285 
0.11567255009 0.1416156202 0.17420366221 0.20364536029 0.23038316907 0.20842638978 0.14318553221 0.037427863406 -0.10557913186 
-0.20203344437 -0.25422455031 -0.26733888261 -0.24202772081 -0.21853719947 -0.19689817689 -0.18589929626 -0.18609090975 -0.19881463744 
-0.2251697876 -0.26431984437 -0.31786417108 -0.36618319567 -0.40842186871 -0.42196154667 -0.40095613798 -0.36562909361 -0.31246755953 
-0.26568997841 -0.22713787514 -0.19829441158 -0.18239580097 -0.17322905688 -0.17335228861 -0.17784129904 -0.1885671362 -0.20024850744 
-0.21334327285 -0.22105061808 -0.22050489413 -0.21057606221 -0.1857566459 -0.15604057956 -0.11827224427 -0.083074364744 -0.052257943916 
-0.028773955706 -0.018249615841 -0.016731847604 -0.03172612735 -0.053431154457 -0.087902969227 -0.12097156407 -0.15126879956 -0.1706161462 
-0.16750218241 -0.15171588657 -0.10891751456 -0.056177619243 0.018594841221 0.094803396549 0.17432294837 0.23348531654 0.24379044399 
0.22601367817 0.1380321792 0.042554351543 -0.072459362976 -0.18262116652 -0.27959183711 -0.36166539375 -0.40145036887 -0.42573914018 
-0.4040558402 -0.38135419908 -0.35549218896 -0.33989970556 -0.35768318401 -0.3981768351 -0.51605329664 -0.63876350317 -0.7787636437 
-0.84475341436 -0.63246419431 -0.42919752252 -0.26164510422 -0.10870670666 -0.016765960935 0.074547595986 0.16309582043 0.2561689175 
0.37035808681 0.47156640746 0.50851952726 0.51993606909 0.39694956896 0.27226394488 0.13804434758 0.0052436884038 -0.11904334205 
-0.23766092192 -0.31978141365 -0.38764632884 -0.35667257995 -0.32182507779 -0.25792442607 -0.19634475356 -0.15368998861 -0.11303770639 
-0.090240895302 -0.068319237517 -0.054989994019 -0.042113170291 -0.03416772205 -0.02645203003 -0.021544469598 -0.016621074421 -0.01147797218 
-0.0061396603298 0.0023220052551 0.011576235331 0.035757096662 0.070408051122 0.34377712893 0.60582139214 0.54227723572 0.47510391581 
0.26760294074 0.063057248341 0.031395592001 0 0 0 
FrenetTangent 3 240 double
-0.12047014963 -0.88924457776 -0.44128338284 -0.12047014963 -0.88924457776 -0.44128338284 -0.12047014963 -0.88924457776 -0.44128338284 
-0.18953239488 -0.90795708113 -0.3564596914 -0.2591799134 -0.92682816504 -0.27091715511 -0.30797956037 -0.92336905549 -0.21760480631 
-0.35642283346 -0.91952823323 -0.16484340088 -0.38822178894 -0.90904279857 -0.14669435247 -0.41959028792 -0.89838552047 -0.12944045122 
-0.43870735781 -0.88689582991 -0.14237074585 -0.45739829105 -0.87537718586 -0.15635092554 -0.46509185898 -0.86242094671 -0.19517580023 
-0.47230308633 -0.84940165514 -0.23509035453 -0.46752034838 -0.83177324337 -0.29285124302 -0.46210076271 -0.81390009956 -0.35155972447 
-0.44383160208 -0.78907442597 -0.41814920019 -0.42475934302 -0.76381421926 -0.48523123805 -0.39408946396 -0.73267775375 -0.5493489554 
-0.36258372041 -0.7011177741 -0.61325302803 -0.32221233808 -0.66786464419 -0.66674554648 -0.28111558532 -0.63447298381 -0.71938621051 
-0.23295444618 -0.60392520633 -0.75909169299 -0.1841451982 -0.57363833554 -0.79761046156 -0.12806577539 -0.54900132077 -0.82328581027 
-0.071245871806 -0.52493975429 -0.84765303288 -0.0066831670714 -0.50737992744 -0.85899418593 0.058747889194 -0.49054926765 -0.86887447135 
0.12923102239 -0.4797060567 -0.86487818576 0.20033374992 -0.46959715551 -0.85918005656 0.26889662819 -0.4642531188 -0.84090514528 
0.33712085989 -0.45954439736 -0.82095332974 0.39398010387 -0.45838855231 -0.79427848556 0.44920016693 -0.45774514137 -0.76663397379 
0.48903897099 -0.45986277368 -0.73977443389 0.52648845327 -0.46240930591 -0.71303683137 0.55048750485 -0.4674975376 -0.6909892799 
0.57224481799 -0.47300938586 -0.6697234036 0.58531355422 -0.48136808587 -0.65207376221 0.5968338312 -0.49023414559 -0.63506859833 
0.60444569633 -0.50284296218 -0.6174672992 0.61131496321 -0.51616290257 -0.59975273437 0.61766420086 -0.53464141049 -0.57586458833 
0.6239083821 -0.55416205327 -0.55072925416 0.63087899885 -0.58007848439 -0.5129577595 0.63800528036 -0.6073654416 -0.47247851617 
0.64382984971 -0.64095302389 -0.41137748677 0.64935918538 -0.67596961393 -0.34559935124 0.64599384801 -0.71310335497 -0.25015464029 
0.64049749522 -0.75074433011 -0.14760231231 0.61137697479 -0.77745623102 -0.012389018643 0.57628824358 -0.80140710265 0.13107546635 
0.50453117139 -0.79462152974 0.28766388845 0.42302188085 -0.77966137053 0.44774271935 0.31430361017 -0.72905079133 0.58132624022 
0.19797852783 -0.66847342805 0.70750247011 0.080868931401 -0.59165022475 0.78723004811 -0.036470902866 -0.51005922057 0.85332595652 
-0.13824678038 -0.43172752074 0.88291861963 -0.23523374813 -0.35439868378 0.90127951494 -0.31341549258 -0.28858393525 0.89991970806 
-0.38553777619 -0.22647928188 0.8922054527 -0.44068049555 -0.17806014114 0.87732654584 -0.49009976629 -0.13425409456 0.86003258792 
-0.52561203949 -0.10401378509 0.84330849132 -0.55622525674 -0.078552314846 0.82678514133 -0.5761197217 -0.065210060725 0.81450292464 
-0.59207165707 -0.056325449317 0.80378066504 -0.60039323882 -0.05632764223 0.79768411832 -0.60578689419 -0.059739887963 0.79336255443 
-0.60705960827 -0.066490051416 0.79183141325 -0.60668394585 -0.074575381956 0.79141644115 -0.60682868755 -0.078372002506 0.79095684423 
-0.6071902643 -0.080381660559 0.79047865364 -0.61338138802 -0.069105903392 0.78652747179 -0.62210098994 -0.052067797455 0.78106993229 
-0.6397173428 -0.012981409418 0.76659595496 -0.66134808327 0.036053593711 0.74805358495 -0.68715187201 0.11046693273 0.71159693507 
-0.71491338711 0.19678615772 0.66673605514 -0.732824535 0.29510035875 0.60060585739 -0.74593362889 0.39926211061 0.52410686721 
-0.74213914941 0.49056223232 0.4423355185 -0.7297858986 0.57535013623 0.35789462117 -0.70919443955 0.63848855071 0.28816880433 
-0.68427264027 0.69024710535 0.2261778375 -0.65953316394 0.72706636957 0.18542413993 -0.63489313648 0.75573692992 0.15625440741 
-0.61185819253 0.77644146561 0.14863414537 -0.58973138792 0.79263890839 0.15320634689 -0.56568645417 0.80289899191 0.18206545033 
-0.540516218 0.80967582466 0.22517286955 -0.50423745817 0.80434983822 0.29929302299 -0.46120351504 0.79166402929 0.39227227156 
-0.39133780863 0.74633065189 0.51311977695 -0.30456441578 0.68042483409 0.65152810171 -0.19245270727 0.57006199681 0.77276325434 
-0.063800709357 0.43067860514 0.88278814184 0.053787402515 0.28843202878 0.94113226695 0.16389570411 0.14424977826 0.96453728508 
0.2501359362 0.025808625988 0.96119487693 0.31966851965 -0.074613757501 0.93912927036 0.37514064871 -0.15568365605 0.91031245851 
0.42042404272 -0.2227300148 0.87660346892 0.45925466001 -0.27940099013 0.84081095913 0.49324569475 -0.32829042789 0.8034558092 
0.52392850798 -0.37063890231 0.76490778714 0.55204374631 -0.40791080814 0.72543395388 0.57778612747 -0.43940985507 0.68615452365 
0.60162303243 -0.46627312135 0.64703120495 0.62344634469 -0.4873207649 0.61018253777 0.64359682611 -0.50353696803 0.57522358109 
0.66223285042 -0.51454606881 0.54386260319 0.67956738817 -0.52108031603 0.51559363831 0.69611864547 -0.52389692523 0.49025410803 
0.71197365349 -0.52340896731 0.46751851961 0.72788122781 -0.52127190675 0.44481267506 0.74383712921 -0.5176187357 0.42213417566 
0.76045938797 -0.51467127772 0.39471675157 0.77771523239 -0.51239482562 0.36279346468 0.79498541073 -0.51300005823 0.32005054026 
0.81226968407 -0.51643894747 0.2666683056 0.82539194234 -0.52365593914 0.19682057086 0.8342816429 -0.53471506889 0.11022825977 
0.83020307605 -0.54762620435 0.0080939490977 0.81248546934 -0.56248513893 -0.11038625769 0.77599555011 -0.57588896441 -0.23013180301 
0.71908662429 -0.58771003963 -0.35125368146 0.65031158254 -0.5984084703 -0.45661707568 0.56818716035 -0.60784392583 -0.54425217513 
0.48467767791 -0.61939541274 -0.61211200346 0.39955648901 -0.6334091907 -0.65696060722 0.31712687317 -0.65104086745 -0.68610308113 
0.2379371138 -0.67302742236 -0.69634002837 0.16145272493 -0.69789227723 -0.69454932545 0.088337287988 -0.72634143016 -0.67778079402 
0.017746214423 -0.75578249355 -0.65085888373 -0.049592314027 -0.7865015954 -0.6108547353 -0.11341224098 -0.81594501198 -0.56215875404 
-0.17254069926 -0.84368751487 -0.50187366235 -0.22619698577 -0.86830595772 -0.43517470546 -0.27230167523 -0.88861319774 -0.35962461459 
-0.3110751609 -0.90505746464 -0.28102110402 -0.33937549829 -0.9159831985 -0.1980555653 -0.35959897471 -0.92355194103 -0.11538946698 
-0.36787542761 -0.9261551339 -0.033166290894 -0.36856472819 -0.92639282353 0.04666013133 -0.35763115711 -0.9230067635 0.12281493062 
-0.34033736494 -0.91777400014 0.19599023549 -0.31295017841 -0.90961059885 0.26443721227 -0.28072962515 -0.89929422372 0.33019467344 
-0.24056086882 -0.88543740271 0.3915293756 -0.19724948137 -0.86865547326 0.45052680408 -0.14858133634 -0.84688756352 0.50554024333 
-0.098449253329 -0.82165609937 0.55817070994 -0.045729745037 -0.79030300415 0.60658941099 0.0072051199235 -0.75574912003 0.65209812226 
0.060534805442 -0.71532712293 0.69227185227 0.11359731511 -0.67287818637 0.72871426819 0.16615153903 -0.62657312106 0.75805808657 
0.21850550966 -0.57993922042 0.78294705181 0.27046398004 -0.53265587002 0.7990376821 0.32211844924 -0.48647574324 0.81060559252 
0.37314932626 -0.44255863926 0.81289612887 0.42307436485 -0.40032657886 0.811589507 0.47064222149 -0.36168632189 0.80261525842 
0.51591751373 -0.32445433806 0.79181784479 0.55611198757 -0.29034339201 0.7769799032 0.59326837698 -0.25678399674 0.76221892047 
0.62342029393 -0.2244962324 0.74763537066 0.65063522506 -0.19193188151 0.73417699743 0.67080139018 -0.15870372287 0.72341904802 
0.68882747525 -0.1247902413 0.71359133133 0.70150336017 -0.08916345237 0.70608919644 0.71320525413 -0.053123759645 0.69841450961 
0.72236886865 -0.016008014595 0.69029014199 0.73178413344 0.020536296949 0.68070847032 0.74188357242 0.05552702365 0.6671647533 
0.75304137692 0.088699070092 0.65145617381 0.76720357388 0.11670841128 0.62960217831 0.78241298428 0.14191885212 0.60582957097 
0.8007291279 0.15882588862 0.57636508182 0.81933844853 0.17265689248 0.5461162763 0.83885762883 0.17694158817 0.51343338548 
0.85773243111 0.17868461461 0.48153077635 0.87451300488 0.17216721595 0.4521640827 0.89007657251 0.16406559051 0.42492122289 
0.90149330439 0.15056585896 0.40491513025 0.91157473753 0.13635696615 0.38768113369 0.91687990979 0.119611458 0.38036271155 
0.92096967175 0.1026546401 0.37569553502 0.92048949101 0.08490329758 0.38099704196 0.91900446614 0.067052993544 0.38822923544 
0.91354193328 0.048810966861 0.40310372977 0.90740973178 0.030418959516 0.41880622034 0.8984823916 0.011400945931 0.4379646952 
0.88938648926 -0.0077992831002 0.45679475947 0.87954738105 -0.027802916603 0.47417683157 0.87008453444 -0.04791573803 0.49037090923 
0.86237757527 -0.068538103108 0.5010210128 0.85539035891 -0.089131433251 0.51012673806 0.85196586948 -0.10958104047 0.51158779072 
0.84924909512 -0.12989613767 0.51163768965 0.85025713694 -0.14950328738 0.50426046366 0.85164368429 -0.16899137013 0.4959755199 
0.85515406817 -0.18781135487 0.48259727091 0.85858612114 -0.20671071666 0.46897495008 0.8615481886 -0.22608634077 0.45388819832 
0.86401168477 -0.24589140592 0.43915082284 0.86326562823 -0.26846099781 0.42666255725 0.86165818776 -0.29184546436 0.41490619448 
0.85407848541 -0.32087972862 0.40822435793 0.84522530726 -0.35105288099 0.40242657922 0.82682106057 -0.38976769424 0.40325923424 
0.80653442697 -0.42978048897 0.40494549247 0.77089910004 -0.48037682488 0.41359189987 0.7325362123 -0.5320611698 0.42282467491 
0.66985257404 -0.59344692842 0.43728589482 0.6037155593 -0.65496224015 0.45171446764 0.5036726664 -0.71774952795 0.46582250554 
0.40071601423 -0.77891961227 0.47902781418 0.26599938598 -0.82246217873 0.48239337398 0.13086893249 -0.86327068155 0.48448939341 
-0.0093193849919 -0.87066285101 0.47106880826 -0.14758748129 -0.87615160744 0.45696931007 -0.25921250866 -0.85523050797 0.43344989349 
-0.36857036927 -0.83386063174 0.40995775474 -0.44165356188 -0.80531032737 0.38690206136 -0.51314546282 -0.77706606595 0.36414409869 
-0.55466803725 -0.75458561349 0.34699339784 -0.59521682914 -0.7325810303 0.33014493477 -0.61356337889 -0.72142626637 0.32018749316 
-0.63126389208 -0.71071137269 0.31047458414 -0.63039085417 -0.71264274838 0.30779198674 -0.62899026115 -0.7149330008 0.30529356498 
-0.60719087035 -0.73109982001 0.30991660167 -0.58487678774 -0.74751357617 0.31466467954 -0.53245323497 -0.77837314343 0.32672766657 
-0.48047021626 -0.80897338659 0.33868928397 -0.48047021626 -0.80897338659 0.33868928397 -0.48047021626 -0.80897338659 0.33868928397 

FrenetNormal 3 240 double
-0.6095407685 -0.28459843761 0.73990795431 -0.6095407685 -0.28459843761 0.73990795431 -0.6095407685 -0.28459843761 0.73990795431 
-0.62376136822 -0.16586460283 0.75401792364 -0.63810248149 -0.046124549117 0.76824746898 -0.68756164712 0.061451045719 0.71128407501 
-0.73762112134 0.16881870109 0.65310370772 -0.82018911728 0.29312086537 0.34386242912 -0.90359785085 0.41786099109 0.028128195907 
-0.65647435562 0.38993285495 -0.40033383441 -0.39785408721 0.35669451838 -0.83271683158 -0.2116834139 0.31892607894 -0.90296962554 
-0.028690354405 0.28095895077 -0.95733951584 0.07345816913 0.29259648352 -0.94815611166 0.17131406244 0.30686789206 -0.93559819627 
0.24913747251 0.33837494798 -0.90295225446 0.32570885238 0.37095923185 -0.869050811 0.39773490338 0.40093195432 -0.82005879691 
0.46943336311 0.43071645615 -0.76997917412 0.54374747925 0.4425602974 -0.70609483216 0.61827560363 0.45293626643 -0.64108101317 
0.69660308425 0.43409742606 -0.55917540319 0.77527912966 0.41257832795 -0.47572008762 0.84303963821 0.36314686025 -0.37331601548 
0.90968837912 0.31087246602 -0.26898197739 0.94582637686 0.25199520906 -0.15618850276 0.97854260902 0.19237744414 -0.042446306271 
0.98027357835 0.14534040731 0.065867579738 0.97820446829 0.099846289972 0.17351572956 0.95564388153 0.067422024085 0.26834962122 
0.93035109789 0.036740405059 0.36147494512 0.89432742748 0.0085910496395 0.43861907769 0.85675603302 -0.019193075452 0.51345823073 
0.81238030276 -0.059386458844 0.57390170824 0.76694758829 -0.10150749401 0.6321089643 0.69911432283 -0.18272869779 0.68047380618 
0.6275476322 -0.27046659634 0.7271982457 0.51876832062 -0.38177796743 0.74742580902 0.40335705679 -0.49729055144 0.76293115679 
0.31642686438 -0.55617234955 0.76271911032 0.23490807554 -0.60429429834 0.75952075894 0.19853799102 -0.60249306622 0.77231370072 
0.17128885687 -0.59060634299 0.78833720678 0.14706349474 -0.5598176673 0.81394300565 0.12348608377 -0.52497857321 0.84160215297 
0.081968785986 -0.47722480784 0.87183377191 0.036382647901 -0.42654194176 0.90264883801 -0.03415101476 -0.35629686094 0.92748963241 
-0.11066168852 -0.28136499951 0.95089909087 -0.20933354085 -0.17974587994 0.94972196735 -0.31360400672 -0.071384716204 0.94233349679 
-0.42093213256 0.054099400497 0.88769994237 -0.52907346583 0.18413749405 0.82050120607 -0.6118806973 0.30125457409 0.70864022685 
-0.68760527665 0.41475932777 0.58429302918 -0.72946769156 0.49393566606 0.44617219892 -0.76139229734 0.5630373607 0.30400910692 
-0.7686445259 0.60238795139 0.17421248749 -0.76830525378 0.63258435623 0.048220936535 -0.75704357696 0.64351539341 -0.057284849951 
-0.74226245862 0.648238701 -0.15618966789 -0.72822803889 0.63915619068 -0.23605312793 -0.71444531531 0.62542003387 -0.30949815273 
-0.71433645157 0.58778601953 -0.37268037225 -0.71904451574 0.54173344174 -0.43224728535 -0.74968830991 0.37413278704 -0.49975924634 
-0.78987168292 0.16182479371 -0.5701935238 -0.5598193495 -0.28523766598 -0.44049993193 -0.22607191941 -0.82238032786 -0.23401308789 
-0.0034089008686 -0.97396948883 -0.084389473189 0.17482035306 -0.97133724944 0.042488849772 -0.031713287799 -0.34723731924 -0.056935739908 
-0.39856480148 0.53580748213 -0.25065320985 -0.477012356 0.82441411721 -0.29961732997 -0.43036903666 0.85519215004 -0.28579686463 
-0.39148103973 0.86396488673 -0.31205722063 -0.35609239559 0.86280840441 -0.35640282528 -0.2962051188 0.8531661371 -0.41847364315 
-0.22482465632 0.83954288424 -0.48885999314 -0.13370000443 0.80814683968 -0.56020647685 -0.032950060205 0.76808655917 -0.63202102575 
0.068323857009 0.71866341422 -0.68237898485 0.169863077 0.66449957841 -0.72187284786 0.26710601669 0.62501156046 -0.72731086043 
0.3620906552 0.59323775445 -0.71484772084 0.48714079384 0.59670788632 -0.60386759277 0.62859029617 0.61940198432 -0.43915092551 
0.67171890773 0.53816192213 -0.045228353562 0.65921859424 0.39811700616 0.47837650657 0.57952970087 0.23800527801 0.74656014193 
0.46042350731 0.066121020048 0.86489665875 0.4207104091 -0.070448621041 0.89791303639 0.42927689589 -0.18554315728 0.87904554563 
0.46534514467 -0.31381628041 0.81133939948 0.51874327085 -0.45039371856 0.71285821021 0.55939332349 -0.57404402796 0.56278225219 
0.59172171702 -0.68925579498 0.37902637569 0.59738557972 -0.75865072999 0.19836564604 0.58502271737 -0.79707090533 0.019797410052 
0.56669873024 -0.80618937336 -0.12582436641 0.54420195576 -0.79479664628 -0.24838362119 0.52386295291 -0.77309149683 -0.34809726447 
0.50508755269 -0.74391357753 -0.43125611679 0.48910283811 -0.70940450037 -0.50288260756 0.47521113776 -0.6708970548 -0.56585982717 
0.46385205822 -0.62779534594 -0.62191607333 0.45445859482 -0.58112794021 -0.67260081773 0.45005266323 -0.52823703821 -0.7172443211 
0.44965187084 -0.47034848013 -0.75703652486 0.4588767007 -0.40113902948 -0.78918637434 0.47609820137 -0.32252452962 -0.81498719103 
0.50164000044 -0.22988581939 -0.82824586983 0.53433205594 -0.12519505336 -0.83072614886 0.56129671687 -0.02367969903 -0.8222683576 