# vtk DataFile Version 5.1
vtk output
ASCII
DATASET POLYDATA
POINTS 240 float
0 0 0 -0.25677 -0.290695 -0.114417 -0.51354 -0.581391 -0.228835 
-0.770616 -0.842869 -0.294244 -1.02769 -1.1041 -0.359238 -1.28027 -1.33792 -0.386649 
-1.53277 -1.57126 -0.413416 -1.7761 -1.77902 -0.413837 -2.01919 -1.98611 -0.413576 
-2.24867 -2.16954 -0.397988 -2.47767 -2.35215 -0.381867 -2.68907 -2.51329 -0.361119 
-2.89971 -2.67348 -0.340169 -3.08953 -2.81482 -0.32475 -3.27826 -2.95516 -0.309626 
-3.44411 -3.07984 -0.30925 -3.60853 -3.20354 -0.309797 -3.74946 -3.3154 -0.33284 
-3.8887 -3.42641 -0.357505 -4.0054 -3.52995 -0.410434 -4.12026 -3.63289 -0.465675 
-4.2149 -3.73304 -0.552642 -4.30769 -3.83293 -0.642519 -4.38347 -3.93468 -0.765139 
-4.45752 -4.03662 -0.891094 -4.51804 -4.14466 -1.04839 -4.57705 -4.2534 -1.20921 
-4.62563 -4.37179 -1.39789 -4.67294 -4.49137 -1.58998 -4.71206 -4.6233 -1.80499 
-4.75009 -4.75687 -2.02305 -4.78111 -4.90462 -2.25823 -4.8111 -5.05442 -2.49588 
-4.83419 -5.21944 -2.74467 -4.8562 -5.38682 -2.99518 -4.8706 -5.56978 -3.25109 
-4.88375 -5.75533 -3.5079 -4.8882 -5.95622 -3.76492 -4.89111 -6.15985 -4.02197 
-4.88436 -6.37803 -4.27461 -4.87578 -6.59898 -4.52642 -4.85722 -6.83316 -4.76963 
-4.83664 -7.07001 -5.01109 -4.80678 -7.31819 -5.23988 -4.77494 -7.56881 -5.46595 
-4.73578 -7.82825 -5.67513 -4.69498 -8.08969 -5.88049 -4.65008 -8.35675 -6.06445 
-4.60422 -8.62516 -6.24328 -4.55847 -8.89531 -6.3959 -4.51275 -9.1659 -6.54189 
-4.47185 -9.43375 -6.65677 -4.43223 -9.70087 -6.76338 -4.40202 -9.96034 -6.83439 
-4.37445 -10.2177 -6.89544 -4.36021 -10.4624 -6.91735 -4.34988 -10.7034 -6.92779 
-4.35564 -10.9272 -6.8971 -4.36635 -11.1457 -6.85376 -4.39444 -11.343 -6.7692 
-4.42814 -11.5335 -6.67137 -4.47897 -11.7002 -6.5343 -4.53556 -11.8589 -6.38401 
-4.60747 -11.9925 -6.19845 -4.68477 -12.1173 -6.00046 -4.77425 -12.2176 -5.77272 
-4.86821 -12.3088 -5.53404 -4.97032 -12.3776 -5.27208 -5.07556 -12.4379 -5.00119 
-5.1844 -12.4795 -4.71383 -5.29467 -12.5136 -4.41989 -5.40388 -12.5338 -4.11605 
-5.51264 -12.5482 -3.80809 -5.61591 -12.5543 -3.49608 -5.7168 -12.5568 -3.18231 
-5.80831 -12.5566 -2.86926 -5.89558 -12.5552 -2.55654 -5.97037 -12.5563 -2.2481 
-6.03929 -12.5585 -1.94165 -6.09357 -12.5674 -1.64176 -6.14069 -12.5795 -1.34507 
-6.17204 -12.6011 -1.05604 -6.1954 -12.6276 -0.770889 -6.20293 -12.6649 -0.49348 
-6.20212 -12.7078 -0.220141 -6.18644 -12.7612 0.0461433 -6.16264 -12.8204 0.30858 
-6.12582 -12.8886 0.565124 -6.08164 -12.9619 0.818333 -6.02695 -13.0422 1.06694 
-5.96611 -13.1267 1.31286 -5.89765 -13.2159 1.55526 -5.82457 -13.3082 1.79554 
-5.74676 -13.4038 2.0329 -5.66598 -13.5017 2.26844 -5.58305 -13.6027 2.50099 
-5.49871 -13.7058 2.7316 -5.41421 -13.8131 2.95843 -5.3296 -13.9232 3.18271 
-5.24609 -14.0396 3.40181 -5.16336 -14.1602 3.61728 -5.08234 -14.2896 3.82588 
-5.00257 -14.4254 4.02949 -4.92464 -14.5722 4.22455 -4.84811 -14.7275 4.41321 
-4.77336 -14.8956 4.59208 -4.70001 -15.0737 4.76336 -4.62845 -15.2654 4.92434 
-4.55834 -15.4679 5.07707 -4.49033 -15.6835 5.21994 -4.42405 -15.91 5.35463 
-4.36049 -16.1479 5.48087 -4.29924 -16.3956 5.59986 -4.24148 -16.6524 5.71263 
-4.18684 -16.9171 5.81988 -4.13645 -17.188 5.92371 -4.08999 -17.4644 6.02437 
-4.0483 -17.744 6.12458 -4.01115 -18.0265 6.22434 -3.97884 -18.3095 6.32638 
-3.95128 -18.5928 6.43065 -3.92802 -18.8745 6.53935 -3.90915 -19.1544 6.65252 
-3.89348 -19.4313 6.77134 -3.88117 -19.705 6.89607 -3.87046 -19.9752 7.02661 
-3.86147 -20.2416 7.16346 -3.85214 -20.5046 7.30529 -3.8424 -20.7639 7.45272 
-3.83019 -21.0205 7.60358 -3.81512 -21.274 7.7584 -3.7955 -21.5257 7.91466 
-3.77041 -21.7751 8.07266 -3.7389 -22.0233 8.23013 -3.6994 -22.2702 8.38695 
-3.65194 -22.5162 8.54162 -3.59422 -22.7612 8.69353 -3.52742 -23.0053 8.84227 
-3.44851 -23.2481 8.98677 -3.35983 -23.4894 9.1277 -3.25768 -23.7287 9.26371 
-3.14554 -23.9654 9.39634 -3.01912 -24.1988 9.52414 -2.8829 -24.4286 9.64917 
-2.73219 -24.6534 9.77011 -2.57225 -24.8737 9.88911 -2.39818 -25.0873 10.0051 
-2.21578 -25.2957 10.1201 -2.02014 -25.4961 10.2333 -1.81727 -25.6908 10.3461 
-1.6025 -25.8766 10.4583 -1.3817 -26.0567 10.5705 -1.15061 -26.2273 10.6829 
-0.914695 -26.3926 10.7956 -0.670233 -26.5485 10.9088 -0.422027 -26.6995 11.0222 
-0.16696 -26.8415 11.1361 0.0909361 -26.9792 11.25 0.354212 -27.1084 11.3638 
0.619609 -27.2338 11.4772 0.889195 -27.3513 11.59 1.1604 -27.4653 11.7021 
1.43491 -27.572 11.8126 1.7107 -27.6754 11.9221 1.98922 -27.7715 12.0292 
2.26883 -27.8644 12.135 2.55083 -27.9498 12.2379 2.83377 -28.0318 12.3394 
3.1189 -28.1059 12.4376 3.40488 -28.1764 12.5345 3.69289 -28.2381 12.6282 
3.98164 -28.2959 12.7208 4.27221 -28.3439 12.8106 4.56337 -28.3878 12.8996 
4.85606 -28.4209 12.9865 5.14913 -28.4498 13.073 5.44325 -28.4671 13.1584 
5.73751 -28.4802 13.2439 6.03216 -28.4814 13.3296 6.32665 -28.4786 13.4158 
6.62067 -28.4643 13.5038 6.91419 -28.4465 13.5927 7.20613 -28.4182 13.6848 
7.4972 -28.3872 13.7784 7.78546 -28.3478 13.8769 8.07246 -28.3068 13.9773 
8.35516 -28.26 14.0843 8.63621 -28.2126 14.1936 8.91133 -28.1628 14.3111 
9.18445 -28.1133 14.4312 9.45007 -28.065 14.5612 9.71344 -28.0177 14.6941 
9.96787 -27.9747 14.8383 10.2199 -27.9335 14.9854 10.4619 -27.8993 15.1448 
10.7015 -27.8672 15.3071 10.9307 -27.8441 15.482 11.1576 -27.8233 15.6595 
11.3744 -27.8129 15.849 11.5893 -27.8049 16.0407 11.7951 -27.8084 16.2428 
11.9994 -27.8143 16.4464 12.1965 -27.8325 16.6577 12.3927 -27.8531 16.8698 
12.5837 -27.8874 17.086 12.7742 -27.9241 17.3022 12.9616 -27.9759 17.5183 
13.1487 -28.0304 17.7338 13.334 -28.102 17.945 13.5191 -28.1765 18.1549 
13.7026 -28.2704 18.3568 13.8857 -28.3672 18.5572 14.066 -28.4857 18.7467 
14.2456 -28.6071 18.9346 14.4199 -28.7516 19.1099 14.5932 -28.8988 19.2838 
14.7575 -29.0698 19.445 14.9205 -29.243 19.605 15.0704 -29.4394 19.7534 
15.2187 -29.6377 19.901 15.3496 -29.8571 20.0392 15.4789 -30.078 20.177 
15.5871 -30.317 20.3084 15.6937 -30.557 20.4395 15.7765 -30.8115 20.5673 
15.8578 -31.0666 20.6951 15.9142 -31.3324 20.8223 15.9693 -31.5986 20.9495 
15.9997 -31.8719 21.0782 16.0291 -32.1453 21.2069 16.0358 -32.4227 21.3378 
16.0417 -32.7002 21.4689 16.0279 -32.9796 21.6017 16.0136 -33.2591 21.7346 
15.9835 -33.5392 21.8676 15.9532 -33.8194 22.0006 15.9111 -34.1 22.131 
15.869 -34.3806 22.2614 15.8189 -34.662 22.3856 15.7688 -34.9433 22.5099 

LINES 2 240
OFFSETS vtktypeint64
0 240 
CONNECTIVITY vtktypeint64
0 1 2 3 4 5 6 7 8 
9 10 11 12 13 14 15 16 17 
18 19 20 21 22 23 24 25 26 
27 28 29 30 31 32 33 34 35 
36 37 38 39 40 41 42 43 44 
45 46 47 48 49 50 51 52 53 
54 55 56 57 58 59 60 61 62 
63 64 65 66 67 68 69 70 71 
72 73 74 75 76 77 78 79 80 
81 82 83 84 85 86 87 88 89 
90 91 92 93 94 95 96 97 98 
99 100 101 102 103 104 105 106 107 
108 109 110 111 112 113 114 115 116 
117 118 119 120 121 122 123 124 125 
126 127 128 129 130 131 132 133 134 
135 136 137 138 139 140 141 142 143 
144 145 146 147 148 149 150 151 152 
153 154 155 156 157 158 159 160 161 
162 163 164 165 166 167 168 169 170 
171 172 173 174 175 176 177 178 179 
180 181 182 183 184 185 186 187 188 
189 190 191 192 193 194 195 196 197 
198 199 200 201 202 203 204 205 206 
207 208 209 210 211 212 213 214 215 
216 217 218 219 220 221 222 223 224 
225 226 227 228 229 230 231 232 233 
234 235 236 237 238 239 
CELL_DATA 1
FIELD FieldData 3
Length 1 1 double
69.161553964 
Tortuosity 1 1 double
0.55571027783 
ClusterLabel 1 1 int
3 
POINT_DATA 240
FIELD FieldData 6
Curvature 1 240 double
0 0.078822317567 0.15764463513 0.1547357511 0.15113422977 0.14201280752 0.13279702798 0.11807113613 0.10320274137 
0.081741622528 0.060051191544 0.048274197808 0.036932003951 0.090815780192 0.14816288228 0.2480366467 0.35056832751 0.48186936326 
0.61524386603 0.69592847653 0.77230209585 0.72278603226 0.66172045648 0.54452802678 0.42161897307 0.32501093061 0.23135253427 
0.17618029769 0.12572806183 0.10209722628 0.082042577436 0.076568101846 0.073196535861 0.074862583724 0.077311173543 0.080744866941 
0.08434274427 0.087719881107 0.091057678055 0.093919212812 0.096690257752 0.099196323805 0.10164885877 0.1046810749 0.10783750842 
0.11327493101 0.11922969133 0.13006123937 0.14206118448 0.16255781315 0.18520097241 0.22095901149 0.26020505053 0.31723293423 
0.37923208632 0.45583392082 0.53672132516 0.60520438341 0.66987071979 0.68145286084 0.67593009449 0.62102221726 0.54946767343 
0.47024923582 0.38833101745 0.32074243865 0.25842453187 0.21117548223 0.16970866846 0.13865051224 0.11175581904 0.092001490242 
0.075222313281 0.06732120756 0.063270831535 0.068653572764 0.078292720559 0.093295778769 0.1108152394 0.12962334026 0.14905965325 
0.1657533856 0.18105846953 0.18977031136 0.19501647465 0.19214414975 0.18484355856 0.17153938178 0.15483843946 0.1361134619 
0.11620105032 0.097945767586 0.080698198344 0.068378404047 0.059163783003 0.058262707237 0.062788529081 0.074372734389 0.090728804573 
0.11067585061 0.13313657975 0.15556769398 0.17797734813 0.19630986918 0.2115845404 0.21976935449 0.22245159289 0.21773676155 
0.20708185904 0.19166824952 0.17230125263 0.15159692486 0.12974332838 0.1092833894 0.090062257071 0.074813582782 0.063217007012 
0.057524571609 0.057445909012 0.060563370894 0.066823688512 0.072413467634 0.077321343201 0.079883125202 0.079977463969 0.077814172805 
0.073195213995 0.068288550544 0.063058219371 0.06098051569 0.062571324001 0.067951571452 0.077893180832 0.089015937409 0.10160955653 
0.1134169358 0.12421127524 0.13345656233 0.14063644628 0.14622493746 0.14961730662 0.15168465659 0.15185912199 0.15109614816 
0.14894654546 0.14609385998 0.14216411151 0.13770065063 0.13239021137 0.12669914992 0.1203821764 0.11383869396 0.10690911676 
0.099962557742 0.092985984337 0.086360506359 0.080378703332 0.074840533972 0.070146350613 0.066014299737 0.062992460511 0.0606784543 
0.059816413248 0.059497654298 0.060336944041 0.061455603182 0.063193405314 0.065230985401 0.067959720216 0.070678424377 0.073373054969 
0.076054574596 0.078703316808 0.081150992802 0.083074678045 0.084594419534 0.085015938939 0.085041553433 0.083943308825 0.082421416702 
0.079642703618 0.076645284921 0.072969124669 0.069676859136 0.067632251435 0.066521414684 0.068592315982 0.071727529787 0.078669707556 
0.086180720935 0.095830556207 0.10543125166 0.11483743532 0.12365128172 0.12999276388 0.13539401015 0.1366496709 0.13699793478 
0.13311167996 0.12870813644 0.1217440139 0.11503327774 0.10965615414 0.10516551156 0.10564901249 0.10715328256 0.11478216748 
0.12291767584 0.13431457258 0.14568190964 0.15684429958 0.16767786143 0.17604521253 0.18395534422 0.18813737928 0.19193532358 
0.19230845867 0.19240565352 0.18979361685 0.18706812673 0.18310599401 0.179118822 0.17482561415 0.17047481955 0.16532500872 
0.16007682815 0.15325473173 0.14632302573 0.13732700592 0.12826041005 0.11758467968 0.10687144587 0.095079987951 0.0833240079 
0.072939838891 0.0626383727 0.057175021324 0.051541021549 0.025770510775 0 
Torsion 1 240 double
0 0 0 0.0152943136 0.030718240028 0.046939992148 0.063175382314 0.1154703818 0.16869795739 
0.51064198184 0.86262831755 2.5074523742 4.2089798396 2.4986141343 0.60708595977 0.34977739109 0.19460754778 0.15091238103 
0.11525142521 0.10776126435 0.10257598672 0.11765096952 0.13458469181 0.18070055887 0.22978868143 0.32683331755 0.42925625426 
0.58383059516 0.74480086299 0.8110694748 0.86471119913 0.71592601861 0.53794464989 0.38371632401 0.23317779118 0.15662868166 
0.092411142679 0.069582196136 0.054129434382 0.059978800917 0.069875571826 0.092216038131 0.11707038229 0.14807282828 0.18039272466 
0.20868248344 0.23605819039 0.24715263511 0.25434636076 0.24276364247 0.2264374015 0.20063225254 0.1723061174 0.14375401316 
0.11513873478 0.090979381446 0.068127745253 0.050516459743 0.034517589827 0.02128492855 0.0089436011681 -0.0042412125941 -0.017710347608 
-0.034489743018 -0.052435252885 -0.076691648428 -0.10326928928 -0.14404367956 -0.19026565974 -0.27152633093 -0.36680247852 -0.53383540917 
-0.73076699941 -0.85887954385 -0.95714286361 -0.84925980441 -0.64835947666 -0.48090802721 -0.32914864412 -0.22987634333 -0.15619149516 
-0.10560506755 -0.066714042762 -0.037758940808 -0.014026567526 0.0042117885973 0.019453408088 0.027563488463 0.031638619076 0.01438946035 
-0.015369948123 -0.11095972387 -0.24658147973 -0.45282350407 -0.70356597158 -0.73255563057 -0.61678998401 -0.44362757726 -0.231661727 
-0.10058580359 -0.026132828975 0.01337572801 0.027562243235 0.029755403614 0.022953547858 0.01010143669 -0.0074463950966 -0.030763218491 
-0.058712716964 -0.095661786996 -0.14008742417 -0.20402573306 -0.2847327442 -0.40975934251 -0.57418112943 -0.77198054309 -1.0004658394 
-1.0698628323 -0.98799553677 -0.84794457123 -0.65067966355 -0.51176006313 -0.43217467348 -0.39439959969 -0.40059744433 -0.44781413426 
-0.53964781383 -0.66934107162 -0.84162635493 -0.92681817025 -0.91066485921 -0.80517323315 -0.59214474643 -0.41039818157 -0.2676064628 
-0.15283215063 -0.074157189255 -0.0081119980334 0.041093499656 0.08302848648 0.11493016831 0.14150264333 0.16046196575 0.17452406399 
0.18134235145 0.18371255919 0.17926868733 0.17220074891 0.16096853093 0.1479574269 0.13202104358 0.11333814147 0.089973673256 
0.06481228496 0.036474944902 0.008580504111 -0.01850195469 -0.04583735717 -0.073653969576 -0.098188363182 -0.11624037466 -0.12421961711 
-0.11153676928 -0.093154954794 -0.062625342984 -0.029130084033 0.010937690202 0.047945844118 0.077899873412 0.1044435682 0.12280246019 
0.14000377503 0.15431114702 0.16702792742 0.17559952973 0.18519000753 0.19755055305 0.21174880015 0.23116374851 0.25629033539 
0.29836144988 0.34786870205 0.4204536229 0.49126200165 0.55629661861 0.60475459932 0.59672922684 0.57211991226 0.48819111246 
0.40532945315 0.32648024212 0.25417452801 0.20777015588 0.16726667364 0.15139299265 0.14002624326 0.14853096504 0.16147315855 
0.19512355343 0.23492886414 0.30520100815 0.37533258083 0.44472430435 0.50185184951 0.49016372721 0.46666101463 0.37227076032 
0.27760371116 0.1811547951 0.088692861653 0.023874007566 -0.03861548089 -0.083634727119 -0.12765862576 -0.16356661328 -0.19849950309 
-0.22473777158 -0.25010689168 -0.26694255486 -0.28281047831 -0.28813003875 -0.29224840324 -0.28168548396 -0.27035628031 -0.24839488093 
-0.22601567134 -0.1969514983 -0.1675333169 -0.1314479783 -0.094793823011 -0.045170647501 0.0056495672841 0.090884661242 0.17777201794 
0.32854686729 0.47279783045 0.23540145145 0 0 0 
FrenetTangent 3 240 double
-0.66290534897 -0.71202879068 -0.23145517828 -0.66290534897 -0.71202879068 -0.23145517828 -0.66290534897 -0.71202879068 -0.23145517828 
-0.68698326114 -0.70150943388 -0.18045267846 -0.71126522341 -0.69090093 -0.12901795407 -0.72890688362 -0.677523995 -0.084973077066 
-0.74643503439 -0.66409973638 -0.041054522236 -0.75854531677 -0.650468026 -0.0075746428254 -0.77051548187 -0.63683095049 0.025635270842 
-0.77858978607 -0.62539172161 0.045805878227 -0.78652858207 -0.61402893956 0.065522944523 -0.79167336173 -0.60696429595 0.069041558553 
-0.79669559681 -0.60008816717 0.07184971415 -0.79860678364 -0.59914536853 0.053576694388 -0.80035278206 -0.59851761396 0.034184320181 
-0.79532348978 -0.60398891188 -0.013158533109 -0.78987074183 -0.60984140058 -0.062248291343 -0.76824980813 -0.61765753697 -0.1437302885 
-0.74546359978 -0.62561519753 -0.22754686143 -0.69592543384 -0.62565701065 -0.33205195742 -0.64419847138 -0.62505116353 -0.43824975075 
-0.57226135791 -0.61121287368 -0.53330373348 -0.49847010216 -0.59616059827 -0.62733534827 -0.42774636252 -0.57659414653 -0.689725184 
-0.35733505509 -0.55656791757 -0.74889224594 -0.30321192208 -0.54203578994 -0.78132864392 -0.25091550022 -0.5281198232 -0.81076721043 
-0.21377654626 -0.52242249824 -0.82460399751 -0.17849652705 -0.51773311992 -0.83652735882 -0.15300485558 -0.52011556013 -0.83992382288 
-0.12881829714 -0.52344090948 -0.84218336731 -0.10976081366 -0.53204411912 -0.83931465796 -0.091443100616 -0.54140855862 -0.83570629663 
-0.075105969435 -0.55451555127 -0.82847571087 -0.059076501457 -0.56820391141 -0.82068244948 -0.043172581134 -0.58441618685 -0.80990522445 
-0.02728958542 -0.60104911484 -0.79863067216 -0.010751762329 -0.61922689622 -0.78461925486 0.0059027626711 -0.637679998 -0.77012007944 
0.023091562766 -0.65694148487 -0.75294370722 0.040381875128 -0.6763565649 -0.7352586676 0.057410934809 -0.69615802555 -0.71482005298 
0.07438721617 -0.7160375429 -0.69382516058 0.089885318333 -0.73624974298 -0.66980349333 0.10506666781 -0.75653323222 -0.64513323147 
0.11737794853 -0.77744372213 -0.61677490366 0.12903828581 -0.79849641839 -0.58758010728 0.13640362114 -0.82064066667 -0.55335370884 
0.14273994558 -0.84304643263 -0.5179218224 0.14329060772 -0.86678013021 -0.47504096396 0.14237962886 -0.89084930525 -0.43027825997 
0.13391052185 -0.91540991161 -0.37422330579 0.12343127437 -0.94010121779 -0.31516509358 0.10321328495 -0.96167559722 -0.23973853697 
0.080272636491 -0.98237857777 -0.15973588408 0.045852282734 -0.9910673048 -0.059584930423 0.0080628850303 -0.9962301096 0.046479111504 
-0.039386496614 -0.97569938212 0.16781979632 -0.08980818101 -0.9472629524 0.29386098665 -0.14132059564 -0.88659685789 0.41578248359 
-0.19318446779 -0.81554564918 0.53637652377 -0.23585399277 -0.72588269108 0.63248542305 -0.27542429959 -0.6299461096 0.72034090406 
-0.30263474225 -0.53623985055 0.78091586875 -0.32549114185 -0.44331927326 0.83188065156 -0.33864505747 -0.36317450014 0.86452077609 
-0.34823024335 -0.28772887337 0.89042079644 -0.35136608987 -0.2262939534 0.90678689154 -0.3520271899 -0.17023523487 0.91949461997 
-0.34822384534 -0.12623398651 0.92806956731 -0.34263472295 -0.087055726217 0.93499140221 -0.33341088297 -0.058049153264 0.94062401871 
-0.32267257733 -0.033280783368 0.94571946087 -0.30839038178 -0.017422627264 0.95089780087 -0.29257107735 -0.0054291422007 0.95611209656 
-0.27288511749 -0.0015499972672 0.96181177296 -0.25145444724 -0.0013322009286 0.9677304626 -0.22572971244 -0.0087422772188 0.97372087495 
-0.19799047822 -0.019730861656 0.97974493499 -0.16583937418 -0.03751653115 0.98469055944 -0.1315374836 -0.058615779609 0.98911044655 
-0.093577321969 -0.084702978556 0.99092024661 -0.053764871199 -0.11331572205 0.99140848359 -0.012272538706 -0.14399082745 0.98823382309 
0.030102808538 -0.17574999487 0.98313379339 0.071350516731 -0.20627066172 0.97469474217 0.11198314908 -0.2361157828 0.96443440649 
0.14894419542 -0.26234983484 0.9525055259 0.18382789705 -0.28654078203 0.93963260018 0.21364659446 -0.30649609903 0.92703274417 
0.24049382274 -0.32396651297 0.91459308905 0.26209233828 -0.3382305498 0.90354585347 0.28049906905 -0.35054476271 0.89334535949 
0.29424500451 -0.36176858816 0.88447336683 0.30505400047 -0.37230532014 0.87643851199 0.31216348055 -0.38425182778 0.86873331737 
0.31685799888 -0.39711860563 0.86124331761 0.31892019664 -0.41361503327 0.85254542909 0.31920279738 -0.43256530866 0.84303093972 
0.31777301067 -0.45650497823 0.83054922935 0.31514455274 -0.48393722372 0.81599046428 0.31137569434 -0.51624115375 0.79689661951 
0.30678045878 -0.55207528996 0.77451648511 0.30122196841 -0.59088557751 0.74691949358 0.29494103692 -0.63192797855 0.7154098592 
0.28761808265 -0.67287639885 0.6795971173 0.27948639426 -0.71375187885 0.64044465016 0.27020272793 -0.75164013041 0.59957375236 
0.2599939884 -0.78712954699 0.55732290265 0.2486623018 -0.81811725796 0.51662107754 0.23639770534 -0.84536509041 0.47720613442 
0.22319262739 -0.86810795294 0.44197905326 0.20917932316 -0.88697935694 0.41035091598 0.19447143139 -0.9021192124 0.38434752862 
0.17914612848 -0.91394213582 0.36334391896 0.1634065206 -0.92285186651 0.34834111453 0.14728601943 -0.92908333936 0.33885517941 
0.1311404945 -0.93293656273 0.33500357306 0.11497117649 -0.93452849971 0.33650919734 0.099353446717 -0.93402018306 0.34273633031 
0.084278112052 -0.93144661699 0.35360628018 0.070504627192 -0.92703479466 0.36777630172 0.058055057386 -0.92075355919 0.38530232837 
0.04773711938 -0.91313887227 0.40432126082 0.039661069992 -0.90412176228 0.42491031832 0.034465557725 -0.89459264701 0.44514056519 
0.032403261272 -0.88450661372 0.46498052678 0.033733716002 -0.87484968409 0.48294717083 0.038881015813 -0.86567549607 0.49880633264 
0.047633780665 -0.85762442372 0.51185042815 0.060581995748 -0.85088024963 0.52161881012 0.077052564847 -0.84542668917 0.52820257626 
0.09776300452 -0.8415266451 0.53095300852 0.12163870243 -0.8384721174 0.53067471519 0.14945604266 -0.83647049685 0.52662480131 
0.17984029995 -0.83442678403 0.52013775184 0.21353193114 -0.83232883694 0.51051054691 0.24900117121 -0.82919892957 0.49932479028 
0.28684055646 -0.82469307516 0.48606096471 0.32557714499 -0.81837096716 0.47223713896 0.36555187406 -0.80954242922 0.45764051294 
0.40554564569 -0.79852465214 0.44337511786 0.44556662099 -0.78437939058 0.42958290985 0.48482836725 -0.76811023191 0.41674697411 
0.52296708722 -0.74869947542 0.40532552444 0.55974398644 -0.72758430367 0.39514353909 0.59443469215 -0.70385811281 0.3868603076 
0.62738024754 -0.67907071678 0.37977619409 0.65755632522 -0.65259923431 0.3745950287 0.68584969631 -0.62575600626 0.37037717974 
0.71104706098 -0.59830146327 0.36774345113 0.734444949 -0.57108451141 0.36574113958 0.75477554726 -0.54427254445 0.36481510708 
0.77356692343 -0.5181505739 0.36413098018 0.78963781404 -0.49324813186 0.36387440735 0.80453794147 -0.46923028052 0.3635290764 
0.81729166972 -0.44683417876 0.36302102221 0.82923504155 -0.42528788696 0.36222743675 0.83963675972 -0.40535830677 0.36089064547 
0.84953074181 -0.38612786803 0.3591315627 0.85842194513 -0.36827823365 0.35653845425 0.86704774478 -0.35085409765 0.35345946936 
0.87512912665 -0.33430277884 0.34938381486 0.88308799649 -0.31783431083 0.34488563023 0.89078572227 -0.30154244581 0.33948678925 
0.89839936156 -0.28505078246 0.33380094799 0.90582664696 -0.26811632282 0.32747905204 0.91314054736 -0.25071854005 0.3210771317 
0.92019303232 -0.23225254008 0.31449071068 0.92705134662 -0.21316219772 0.308032923 0.93344365134 -0.19257343364 0.30188385534 
0.93952829081 -0.17134576946 0.29604783238 0.94484376716 -0.14852085505 0.29099442118 0.94972880846 -0.12514259595 0.28643827536 
0.95349210992 -0.10032228707 0.28317803324 0.95672327875 -0.07520559723 0.28055032636 0.95850771198 -0.049283121686 0.27964232467 
0.95971120626 -0.023418677189 0.27946997467 0.95926558354 0.0022810340163 0.28138592626 0.95826161745 0.027525251108 0.28409469765 
0.95560123264 0.051418168995 0.28915550109 0.95245776702 0.074429647617 0.29507082665 0.94781508512 0.094705625069 0.30363811741 
0.94278027262 0.11376523961 0.31312323163 0.93647103564 0.1288716747 0.32559127211 0.92982877378 0.14257878371 0.33900057455 
0.92205176042 0.15151781866 0.35561713991 0.91392408383 0.15897850744 0.37317685413 0.90454211179 0.16115126571 0.39411013927 
0.89472263248 0.16188660244 0.41589686676 0.88325812585 0.15721723417 0.44089253749 0.87125716962 0.15127085191 0.46650266903 
0.85713276706 0.14026962255 0.49454504123 0.84244947552 0.12824313575 0.52281731494 0.82543342996 0.11193731354 0.55204917753 
0.80800869993 0.094896031436 0.58102648986 0.78878204292 0.074612039796 0.60888146694 0.76946802033 0.053861022681 0.63603305537 
0.74974629169 0.030930553356 0.6599021634 0.73032844623 0.0077166205274 0.68277001461 0.71241482253 -0.016900456638 0.70068164455 
0.69513704802 -0.041788209165 0.71745539679 0.68120584821 -0.068100568863 0.72824031902 0.66802574298 -0.094775111761 0.73790380004 
0.65906011289 -0.12348190484 0.74127474982 0.65072829515 -0.15268594492 0.7436088247 0.64619935152 -0.18487346708 0.73972165019 
0.64200207224 -0.21767082837 0.73490299814 0.63993988225 -0.25439402902 0.72408795936 0.63779359339 -0.29169784856 0.71250018191 
0.63506421896 -0.33302729245 0.69555474973 0.63186093374 -0.37475663526 0.67804803348 0.62510331761 -0.41948522 0.65633168665 
0.61759893125 -0.46433199333 0.63432683749 0.60400549523 -0.51014245823 0.60996958468 0.58955608236 -0.55577803535 0.58562251428 
0.56747420918 -0.5998541964 0.56136623704 0.54460530086 -0.64352087327 0.53736377942 0.51400913834 -0.68316716001 0.51585336891 
0.48281300908 -0.72226855425 0.49473825822 0.44507724228 -0.75543062023 0.47793191551 0.40696185895 -0.78801942213 0.46154754435 
0.36420671799 -0.81360166303 0.45032060315 0.32129055469 -0.83865681518 0.4394489866 0.27614020639 -0.85639861111 0.43350749953 
0.23101906598 -0.87370926562 0.42780934215 0.1863652519 -0.8841216574 0.42600445989 0.14187449848 -0.89423143578 0.42432350443 
0.10045472096 -0.89864199537 0.42497650351 0.059259856771 -0.90288392224 0.42565394183 0.023193016434 -0.90328102313 0.42688859484 
-0.012650209845 -0.90361941581 0.4280822012 -0.042064531934 -0.90226994742 0.42809571633 -0.07130223414 -0.90093003913 0.42803679158 
-0.093710634187 -0.89995978774 0.42517685831 -0.11601062857 -0.89902112161 0.42224678726 -0.13196889158 -0.89993019393 0.41521365658 
-0.14779305155 -0.90083162699 0.40823962783 -0.14779305155 -0.90083162699 0.40823962783 -0.14779305155 -0.90083162699 0.40823962783 

FrenetNormal 3 240 double
-0.45437303468 0.13689401703 0.88023018209 -0.45437303468 0.13689401703 0.88023018209 -0.45437303468 0.13689401703 0.88023018209 
-0.41990846112 0.18305268244 0.88697192572 -0.38515181489 0.22960252297 0.89377080278 -0.35791948403 0.27326750218 0.89137757417 
-0.33081577394 0.31688316752 0.88882721555 -0.32000370646 0.36298658321 0.873694022 -0.30961297456 0.40915433727 0.85823541031 
-0.34633299483 0.48905831254 0.79259141085 -0.38469164996 0.57013572159 0.7252018327 -0.39322011939 0.50787260202 -0.0065663291579 
-0.40044024734 0.43932261715 -0.76747390258 -0.20023669481 0.18898665992 -0.89574522751 0.010980504471 -0.071001649825 -0.99042524722 
0.094368433168 -0.10267177881 -0.98714228419 0.16976703245 -0.1200720215 -0.97773663474 0.25177852754 -0.089925318137 -0.95926867387 
0.33426662773 -0.056351807849 -0.94014757344 0.42663532058 0.0012253151871 -0.89645738889 0.51981242554 0.060766370175 -0.85075700655 
0.60127496906 0.11823697762 -0.78071217057 0.68166278217 0.17551763576 -0.70843389846 0.74090923842 0.20569138399 -0.63146190513 
0.79800240831 0.23310424325 -0.5540118476 0.84548708955 0.21773785612 -0.47922209803 0.89189418327 0.19757379651 -0.40473070076 
0.9327020155 0.11377390853 -0.31402545807 0.97282314585 0.022169626508 -0.2213317249 0.96465384193 -0.13120067314 -0.094614512537 
0.95004581345 -0.2928064418 0.036639163713 0.87529853537 -0.42004902975 0.15183255256 0.79187732706 -0.54233538972 0.2647095538 
0.72475249692 -0.59532079151 0.33277978543 0.66015914301 -0.63754099592 0.39388974216 0.62624161686 -0.6465906311 0.43319231949 
0.59743672868 -0.65011183808 0.4688603336 0.58146086311 -0.64196700733 0.49867760627 0.56777135802 -0.63174308074 0.52745217254 
0.55271312459 -0.61890998408 0.55694878393 0.53739483278 -0.6055811451 0.5865825839 0.51143802603 -0.59388655341 0.61945932684 
0.48333202434 -0.58252211268 0.65299120977 0.43836325556 -0.57357719629 0.68930757853 0.38978103668 -0.5651507494 0.72622062283 
0.32279991776 -0.55578693014 0.762009954 0.25164585244 -0.54621051097 0.7975444224 0.1697412439 -0.52912215625 0.8265722253 
0.085260984378 -0.51023406695 0.85404113958 0.0043527722217 -0.47817595092 0.87385741192 -0.075653027969 -0.44279067023 0.89174038525 
-0.14229609933 -0.39095639429 0.90547195944 -0.20538525344 -0.33474738558 0.9180994381 -0.25323160709 -0.2584521918 0.92776439161 
-0.29681653266 -0.17654150542 0.93660111227 -0.3256966488 -0.07134381794 0.93608694692 -0.35026122304 0.04068809813 0.93282849982 
-0.35863938347 0.17059629025 0.90766600525 -0.36203710889 0.306004875 0.87576380377 -0.34830469127 0.43812415121 0.8158517675 
-0.32905256091 0.5691835391 0.74691434003 -0.29737481206 0.67426864135 0.6629448181 -0.2615086525 0.77059836641 0.57390829804 
-0.22016004545 0.83712238834 0.48951658757 -0.17688012166 0.89314667395 0.40676111684 -0.12974762469 0.92825444556 0.33912927077 
-0.081198089299 0.95566878673 0.27706013722 -0.023187251312 0.96968027997 0.23302035955 0.038454086507 0.97854881994 0.1958988231 
0.12388571047 0.97167228885 0.17869746876 0.21883344888 0.95849772935 0.16946418728 0.36225056203 0.89641280302 0.18388127809 
0.52586324799 0.81394855719 0.20815269069 0.69350416739 0.61674929427 0.23633572548 0.86289227239 0.36978544562 0.26621536748 
0.9261807572 0.11791395784 0.26280906088 0.94159502315 -0.13617195248 0.24438348478 0.92127939452 -0.30078864027 0.21080335908 
0.88420159314 -0.42343211257 0.17011369161 0.85559470879 -0.49748633595 0.12512951085 0.8311173965 -0.5478533005 0.078051754879 
0.81533922155 -0.5759160591 0.027766075593 0.8039656731 -0.59268554887 -0.02414386866 0.79697513755 -0.59693331808 -0.077078929021 
0.79228849339 -0.59459915724 -0.13055283246 0.78948348518 -0.5843309361 -0.18145202577 0.78770482383 -0.56973504572 -0.23094683174 
0.78653757971 -0.55135651598 -0.27485197438 0.78571626902 -0.5308378087 -0.31559454435 0.78289640132 -0.5132527844 -0.35012025319 
0.77890404686 -0.49738885411 -0.38099873684 0.76070513411 -0.50269135003 -0.4088293413 0.7338670981 -0.52086532133 -0.43480650573 
0.65367020899 -0.5866965456 -0.4573790433 0.53984993301 -0.68255836761 -0.47780619956 0.3816395099 -0.76889039988 -0.47726970624 
0.19445218518 -0.84900159717 -0.46304860835 0.065614529859 -0.88482961375 -0.45385371635 -0.023775461651 -0.89071970535 -0.4480568227 
-0.073261160749 -0.88514708417 -0.4584849624 -0.094813855158 -0.87155056404 -0.48027062542 -0.10686105351 -0.85235243966 -0.51041224828 
-0.11202021124 -0.82909518177 -0.54660891448 -0.11808621944 -0.800486687 -0.58564030321 -0.12483236548 -0.76786476457 -0.62679773383 
-0.13576674344 -0.73120486578 -0.66651479349 -0.14995168945 -0.6914110152 -0.70511395329 -0.17041329159 -0.65034633837 -0.73849152667 
-0.19591523879 -0.60826114957 -0.76767600793 -0.23045606754 -0.56791256764 -0.78841225523 -0.27250612095 -0.52900670528 -0.80212996971 
-0.3294521671 -0.49312470031 -0.80215751978 -0.399199457 -0.4598413228 -0.79042008482 -0.49414285312 -0.4252527996 -0.74791802986 