# vtk DataFile Version 5.1
vtk output
ASCII
DATASET POLYDATA
POINTS 240 float
0 0 0 -0.27354 -0.053793 0.0995535 -0.547081 -0.107586 0.199107 
-0.808184 -0.185374 0.314878 -1.06918 -0.263366 0.430787 -1.31617 -0.362253 0.560635 
-1.56291 -0.461497 0.690721 -1.79572 -0.577476 0.832177 -2.02816 -0.693889 0.973926 
-2.24828 -0.822463 1.12458 -2.46796 -0.95146 1.27555 -2.67788 -1.08836 1.43331 
-2.88737 -1.22561 1.59137 -3.09013 -1.36709 1.7544 -3.29253 -1.50881 1.9177 
-3.49127 -1.6518 2.08434 -3.68978 -1.79488 2.25119 -3.88768 -1.93691 2.41965 
-4.08553 -2.07887 2.58823 -4.28568 -2.21805 2.75642 -4.48601 -2.35699 2.92457 
-4.69157 -2.49174 3.08978 -4.89761 -2.62609 3.25473 -5.11201 -2.75495 3.41319 
-5.32726 -2.88324 3.571 -5.554 -3.00558 3.71682 -5.78202 -3.12725 3.86129 
-6.02448 -3.2438 3.9844 -6.26872 -3.35973 4.10488 -6.52848 -3.47351 4.18729 
-6.79032 -3.587 4.26462 -7.05962 -3.70391 4.27449 -7.32999 -3.82132 4.27463 
-7.57406 -3.94669 4.1773 -7.81404 -4.07329 4.06483 -7.9883 -4.20522 3.87217 
-8.1516 -4.33803 3.66614 -8.25084 -4.47315 3.42494 -8.33866 -4.60867 3.17746 
-8.38084 -4.74659 2.91999 -8.41435 -4.88496 2.66061 -8.41565 -5.02629 2.40096 
-8.41043 -5.16823 2.14125 -8.38067 -5.31354 1.8853 -8.34565 -5.45958 1.63016 
-8.29061 -5.60927 1.38091 -8.23102 -5.75979 1.133 -8.15403 -5.91417 0.892536 
-8.07287 -6.06947 0.653862 -7.97596 -6.22882 0.424075 -7.87506 -6.38918 0.196532 
-7.75943 -6.55376 -0.0205422 -7.63989 -6.71947 -0.234833 -7.50622 -6.88959 -0.436703 
-7.36861 -7.06094 -0.6351 -7.21726 -7.23691 -0.818555 -7.06189 -7.41423 -0.997625 
-6.89314 -7.5963 -1.15838 -6.72028 -7.77983 -1.3135 -6.5344 -7.96807 -1.44533 
-6.34433 -8.15782 -1.56965 -6.14215 -8.35157 -1.66304 -5.93587 -8.54667 -1.74601 
-5.7201 -8.743 -1.78479 -5.50099 -8.93975 -1.808 -5.28217 -9.12763 -1.76426 
-5.06345 -9.31223 -1.69589 -4.87477 -9.4597 -1.53906 -4.69761 -9.59292 -1.34829 
-4.58245 -9.66221 -1.0967 -4.49208 -9.70592 -0.820788 -4.45259 -9.69895 -0.532514 
-4.43429 -9.67087 -0.239089 -4.44364 -9.61379 0.0497209 -4.46499 -9.54412 0.336529 
-4.49993 -9.45802 0.617208 -4.541 -9.36449 0.895122 -4.588 -9.26139 1.16859 
-4.63777 -9.15379 1.43998 -4.68879 -9.04111 1.70904 -4.74043 -8.92596 1.97698 
-4.79019 -8.80931 2.24462 -4.83901 -8.69189 2.5121 -4.8837 -8.57629 2.78106 
-4.92623 -8.46164 3.05079 -4.96286 -8.35226 3.32347 -4.99628 -8.24575 3.59776 
-5.02236 -8.14836 3.87603 -5.0443 -8.05612 4.15654 -5.05784 -7.97734 4.44133 
-5.06646 -7.90647 4.72864 -5.0662 -7.85372 5.01947 -5.06053 -7.81199 5.31244 
-5.04622 -7.79288 5.60679 -5.02644 -7.78802 5.902 -4.99903 -7.80937 6.195 
-4.96663 -7.84783 6.48654 -4.92842 -7.91395 6.77135 -4.88627 -7.99877 7.0516 
-4.84047 -8.1105 7.32052 -4.79211 -8.24107 7.58153 -4.74222 -8.39565 7.8276 
-4.69121 -8.56762 8.06286 -4.64034 -8.75986 8.2807 -4.58957 -8.96731 8.48547 
-4.54008 -9.19101 8.67143 -4.49159 -9.42733 8.84281 -4.44498 -9.67596 8.99501 
-4.39989 -9.93449 9.13181 -4.35687 -10.2018 9.24984 -4.31557 -10.4764 9.35227 
-4.27635 -10.7568 9.43673 -4.2389 -11.0422 9.50573 -4.2034 -11.331 9.5581 
-4.16964 -11.6226 9.5957 -4.13774 -11.9157 9.61827 -4.10756 -12.2101 9.62703 
-4.0792 -12.5045 9.62271 -4.05258 -12.799 9.60596 -4.02784 -13.0925 9.57831 
-4.00494 -13.3852 9.53994 -3.98404 -13.6767 9.49295 -3.96517 -13.9669 9.43719 
-3.94851 -14.2559 9.37512 -3.93416 -14.5437 9.30642 -3.92227 -14.8305 9.23373 
-3.91305 -15.1163 9.15671 -3.90656 -15.4017 9.07806 -3.90313 -15.6867 8.99755 
-3.90269 -15.9719 8.9178 -3.9057 -16.2574 8.83893 -3.91182 -16.5436 8.76326 
-3.9217 -16.8307 8.69143 -3.93463 -17.119 8.62522 -3.95134 -17.4087 8.56601 
-3.97069 -17.6995 8.51464 -3.99343 -17.9918 8.47337 -4.01794 -18.285 8.44167 
-4.04483 -18.5793 8.42273 -4.07222 -18.8737 8.41434 -4.10028 -19.1684 8.42048 
-4.12718 -19.4625 8.43722 -4.15243 -19.7557 8.46911 -4.17469 -20.0477 8.51091 
-4.19251 -20.3378 8.5674 -4.20549 -20.6261 8.6326 -4.21104 -20.9115 8.71116 
-4.20992 -21.1945 8.79702 -4.19822 -21.4739 8.89444 -4.17808 -21.7503 8.99763 
-4.14408 -22.0219 9.11032 -4.10001 -22.2899 9.22725 -4.03878 -22.5516 9.35139 
-3.96609 -22.8084 9.47819 -3.87314 -23.0567 9.6097 -3.76779 -23.2987 9.74223 
-3.63969 -23.5291 9.87666 -3.49905 -23.7515 10.0105 -3.33454 -23.9585 10.1432 
-3.15836 -24.1559 10.274 -2.95915 -24.3342 10.4007 -2.7501 -24.5018 10.5245 
-2.52087 -24.6474 10.642 -2.28418 -24.7821 10.7559 -2.0316 -24.8937 10.8624 
-1.77393 -24.9951 10.9653 -1.50499 -25.0739 11.0606 -1.23291 -25.1437 11.1527 
-0.953625 -25.1928 11.2377 -0.672649 -25.2345 11.3202 -0.387624 -25.2581 11.3968 
-0.101846 -25.2757 11.4716 0.185813 -25.278 11.5418 0.473652 -25.2757 11.6109 
0.761964 -25.2609 11.6769 1.05013 -25.2425 11.7423 1.33792 -25.2141 11.8062 
1.62538 -25.1831 11.8702 1.91196 -25.1445 11.9342 2.19812 -25.104 11.9987 
2.48306 -25.0577 12.065 2.76751 -25.0103 12.1323 3.05047 -24.959 12.2031 
3.33286 -24.907 12.2756 3.61339 -24.8527 12.3535 3.89321 -24.7982 12.4337 
4.17061 -24.7429 12.5214 4.44707 -24.6878 12.612 4.72019 -24.6332 12.7126 
4.99205 -24.5791 12.8166 5.25918 -24.5267 12.9331 5.5246 -24.475 13.0535 
5.78332 -24.4261 13.1889 6.03987 -24.3779 13.3284 6.28734 -24.3331 13.4847 
6.53228 -24.2892 13.6448 6.76606 -24.2488 13.8219 6.99724 -24.2092 14.0024 
7.21626 -24.1729 14.1983 7.43296 -24.1373 14.3968 7.63816 -24.1046 14.6078 
7.84164 -24.0724 14.8204 8.03607 -24.043 15.0419 8.22958 -24.0142 15.2642 
8.41791 -23.9884 15.4913 8.60613 -23.9632 15.7186 8.79363 -23.9419 15.9468 
8.98167 -23.9215 16.1747 9.17322 -23.9065 16.4001 9.36574 -23.8925 16.6247 
9.56498 -23.8863 16.8437 9.76532 -23.8814 17.0616 9.97398 -23.8869 17.2717 
10.1836 -23.894 17.4806 10.4014 -23.9142 17.6802 10.6198 -23.9361 17.8789 
10.8443 -23.9737 18.0682 11.0692 -24.013 18.2567 11.297 -24.0702 18.437 
11.5246 -24.1292 18.6168 11.7511 -24.2079 18.7906 11.977 -24.2883 18.9641 
12.1968 -24.3901 19.1345 12.4156 -24.4935 19.3048 12.6222 -24.6199 19.4751 
12.8275 -24.7478 19.6455 13.0131 -24.8998 19.8189 13.1973 -25.053 19.9926 
13.353 -25.23 20.1714 13.5071 -25.408 20.3504 13.6242 -25.6073 20.5351 
13.7398 -25.8071 20.72 13.812 -26.0228 20.9091 13.883 -26.2388 21.0982 
13.9088 -26.4636 21.2888 13.9339 -26.6885 21.4794 13.9165 -26.9154 21.6685 
13.8989 -27.1424 21.8576 13.8448 -27.3665 22.0432 13.7906 -27.5907 22.2288 

LINES 2 240
OFFSETS vtktypeint64
0 240 
CONNECTIVITY vtktypeint64
0 1 2 3 4 5 6 7 8 
9 10 11 12 13 14 15 16 17 
18 19 20 21 22 23 24 25 26 
27 28 29 30 31 32 33 34 35 
36 37 38 39 40 41 42 43 44 
45 46 47 48 49 50 51 52 53 
54 55 56 57 58 59 60 61 62 
63 64 65 66 67 68 69 70 71 
72 73 74 75 76 77 78 79 80 
81 82 83 84 85 86 87 88 89 
90 91 92 93 94 95 96 97 98 
99 100 101 102 103 104 105 106 107 
108 109 110 111 112 113 114 115 116 
117 118 119 120 121 122 123 124 125 
126 127 128 129 130 131 132 133 134 
135 136 137 138 139 140 141 142 143 
144 145 146 147 148 149 150 151 152 
153 154 155 156 157 158 159 160 161 
162 163 164 165 166 167 168 169 170 
171 172 173 174 175 176 177 178 179 
180 181 182 183 184 185 186 187 188 
189 190 191 192 193 194 195 196 197 
198 199 200 201 202 203 204 205 206 
207 208 209 210 211 212 213 214 215 
216 217 218 219 220 221 222 223 224 
225 226 227 228 229 230 231 232 233 
234 235 236 237 238 239 
CELL_DATA 1
FIELD FieldData 3
Length 1 1 double
70.72652258 
Tortuosity 1 1 double
0.86022935698 
ClusterLabel 1 1 int
2 
POINT_DATA 240
FIELD FieldData 6
Curvature 1 240 double
0 0.090184116285 0.18036823257 0.17395017454 0.16671345402 0.15524738469 0.1437090188 0.12941420378 0.11504810128 
0.10019898632 0.085333070935 0.071068685791 0.056830683552 0.044178500441 0.031610520117 0.022159803385 0.012903915628 0.016927357126 
0.0219078674 0.032918080226 0.044421632351 0.058715058078 0.073264435511 0.091297132974 0.10968461303 0.13685637981 0.16501330024 
0.21204496654 0.26139146016 0.3484024183 0.44043530504 0.5601783132 0.6839179735 0.71236833045 0.72601646553 0.63219604347 
0.52046419521 0.4259285901 0.33445766199 0.27892672969 0.2302243966 0.20187506718 0.17763745569 0.16294406287 0.15029585976 
0.14320137894 0.13736650523 0.1345630095 0.13248578141 0.13268840563 0.13346699255 0.13638791159 0.13987859982 0.14553301546 
0.15179234415 0.16066876053 0.17031323525 0.18468170793 0.20050371844 0.22377116527 0.24943769714 0.29174344426 0.33965791561 
0.42222321306 0.51699505153 0.65538950873 0.80982906709 0.88324094112 0.92556079674 0.82163166494 0.65920293817 0.51344088614 
0.3746232819 0.28087422974 0.20667298329 0.15529371451 0.11421216736 0.083199861428 0.056911397058 0.039055796633 0.025311217381 
0.027424042147 0.03756593224 0.051825930419 0.068250575155 0.085614982221 0.10349198692 0.12218566381 0.14134140523 0.16076654497 
0.18034973171 0.19954377245 0.21850117034 0.23595297654 0.25245605371 0.26498596403 0.27492227931 0.28123760155 0.28510492848 
0.28463617096 0.28113215432 0.27623076392 0.27031678382 0.26350588516 0.25602229758 0.24794118781 0.23939632947 0.23063104349 
0.22168874745 0.21327197066 0.20529177911 0.19682206266 0.18793166076 0.17911252855 0.17035674719 0.16107845529 0.1513197908 
0.14109848697 0.13043729654 0.11945248059 0.10814943289 0.096697112332 0.085092988875 0.073649686314 0.062375522969 0.052256854516 
0.043395040153 0.038483910305 0.038017300534 0.042118197746 0.051534012173 0.062575551388 0.075573981549 0.088511498286 0.10137316057 
0.11319690166 0.12368332121 0.13249495348 0.13907353606 0.14386412182 0.14618727199 0.14751217864 0.14741102312 0.14711924616 
0.14654550831 0.14685774813 0.14852723033 0.15155325095 0.15673203908 0.16327909666 0.17207619734 0.18187300189 0.19337384715 
0.20524249171 0.21776120015 0.229678768 0.2404942448 0.24972577446 0.25594394126 0.25995549815 0.25960900045 0.25689342186 
0.24931819016 0.24010903049 0.22741702435 0.21399517484 0.19895583459 0.18360448418 0.16753377701 0.15192289173 0.13741557899 
0.12329164772 0.11012617012 0.097454016356 0.086067494436 0.075243706965 0.065949853775 0.057356981548 0.050753990766 0.045143727553 
0.042478556129 0.041096138124 0.043694679006 0.047241937704 0.053872529308 0.061038762784 0.07003014634 0.079301445345 0.089573980375 
0.099922753843 0.11055818384 0.12082886347 0.12965573956 0.1374944375 0.14120856578 0.14365135534 0.14048869684 0.13613709885 
0.12623711653 0.1154299759 0.10013240165 0.084429524818 0.066593476556 0.04961387661 0.037439903318 0.028311459883 0.037456195589 
0.047383167584 0.062345785694 0.076940989733 0.088988789546 0.10049540257 0.10794311469 0.11494362469 0.11829771746 0.12145171429 
0.12282152237 0.1242395204 0.12613065615 0.1283089904 0.13361778842 0.13929404583 0.14946147357 0.15995350248 0.17494937282 
0.19011550501 0.20800582678 0.22580067201 0.24179737571 0.25749829475 0.26645532354 0.275041613 0.27296914669 0.27064625526 
0.25864025884 0.24654220815 0.22905898238 0.21083680554 0.10541840277 0 
Torsion 1 240 double
0 0 0 0.014419340933 0.02896087967 0.039903711036 0.050785026036 0.06757164264 0.084510982561 
0.11081393479 0.13744257789 0.19174384483 0.24725882335 0.4248070298 0.60883487668 1.822539357 3.100598627 2.2013103642 
1.1450961532 0.75461655922 0.41860616119 0.35792686348 0.32250729974 0.33718090438 0.35695659098 0.37473401669 0.39228733839 
0.39405713288 0.39389121177 0.36382266498 0.32976710143 0.28789081753 0.24488654513 0.23254020488 0.22495626186 0.24116935509 
0.26134862102 0.26738042744 0.27089090446 0.25631771124 0.23830862068 0.21832973232 0.19795290502 0.1812735342 0.16538647549 
0.15176720367 0.13866227528 0.12874654215 0.11959488705 0.11304245958 0.10714667909 0.10296739107 0.099244617008 0.096734504041 
0.094563414607 0.092788972363 0.091130937446 0.088228201914 0.084942481577 0.08026689723 0.075143467815 0.066597759664 0.056898474413 
0.042296751236 0.025968032882 0.010359460472 -0.0049842306711 -0.017028315787 -0.027806273008 -0.044470285167 -0.0634887193 -0.089222388472 
-0.11775407224 -0.14944279083 -0.18250082572 -0.23666725956 -0.30035821487 -0.49062522196 -0.74027358668 -1.6514207938 -2.8850486865 
-2.4840399514 -1.2553671011 -0.66483818702 -0.4097439062 -0.28248623884 -0.22495763338 -0.19093736276 -0.17021786054 -0.15596767555 
-0.14551282333 -0.13674466384 -0.12900219587 -0.12133136919 -0.11370568633 -0.10638680104 -0.099268186375 -0.091450813752 -0.083161041384 
-0.074942428155 -0.066773626323 -0.057943080872 -0.04863301106 -0.038750310042 -0.028438135619 -0.018345320958 -0.0084227556652 -0.00027220109871 
0.0064553751573 0.010870874902 0.013365572622 0.013617291462 0.011941450325 0.007862123086 0.0016463637548 -0.0069980295217 -0.017875199167 
-0.032107133356 -0.049528843668 -0.073106264772 -0.10273680149 -0.14642850609 -0.20441970345 -0.30064920305 -0.43709484811 -0.66268212385 
-0.98523047155 -1.1868475678 -1.2524170061 -1.1342093221 -0.80215189593 -0.55591499476 -0.41298057745 -0.3122907176 -0.26420728779 
-0.23183001365 -0.21968951701 -0.2157805918 -0.22284709518 -0.23522410909 -0.25492962755 -0.27632832913 -0.30014586373 -0.32256092135 
-0.34290148177 -0.35640844404 -0.35944691556 -0.35354088682 -0.33344032507 -0.30795656918 -0.27362044959 -0.23886429012 -0.20339215355 
-0.16952131463 -0.1384806762 -0.10951633371 -0.084358533771 -0.061399298034 -0.042622696634 -0.025626831839 -0.012147921839 0.000287087421 
0.01058076183 0.020281460775 0.028718185704 0.036851360984 0.04431180461 0.052222066632 0.061169409953 0.071280988001 0.084186729396 
0.099852466177 0.12241819142 0.15017303605 0.1914510403 0.24239937695 0.31963892987 0.40885448224 0.53206642016 0.64518178027 
0.72834395952 0.76834632712 0.67440445167 0.57130888742 0.43846383455 0.31662139696 0.23226935216 0.15599316471 0.1086036978 
0.065394479581 0.0379029964 0.012982063399 -0.0017637751422 -0.01470714354 -0.020127158298 -0.023998690676 -0.021042823465 -0.015519122572 
0.0019878021664 0.026326881465 0.084485125834 0.17059974021 0.40385314407 0.73582239708 1.6216972481 2.2587076092 1.4025310309 
0.62230239314 0.33098862301 0.065902755514 -0.017336320454 -0.096470476241 -0.14481773067 -0.1927073643 -0.23686562844 -0.28069157513 
-0.32155435793 -0.36131041825 -0.390200476 -0.41673212948 -0.41755717646 -0.41615781355 -0.38757121868 -0.3581160727 -0.31660978015 
-0.27527845158 -0.23674654656 -0.1987221038 -0.17025486662 -0.14217804881 -0.12300279265 -0.10406027891 -0.091809109588 -0.079661257149 
-0.071508324229 -0.062961098109 -0.031347719733 0 0 0 
FrenetTangent 3 240 double
-0.90415160392 -0.22290912222 0.36444670441 -0.90415160392 -0.22290912222 0.36444670441 -0.90415160392 -0.22290912222 0.36444670441 
-0.88164938275 -0.26082212479 0.38988397848 -0.85895646478 -0.299056424 0.41553682267 -0.83477106636 -0.331427647 0.43726367379 
-0.81056015545 -0.36369864648 0.45892341392 -0.78758937019 -0.38883362409 0.47649415342 -0.76465065714 -0.4137840494 0.49395914291 
-0.74509721694 -0.4314852215 0.50771705659 -0.72566152536 -0.44893424565 0.52134602851 -0.71084020842 -0.45985625721 0.53179192126 
-0.69622127634 -0.47049199628 0.54209820527 -0.68667980036 -0.47565171097 0.54960135634 -0.67740792382 -0.48052066331 0.55695566848 
-0.6732508764 -0.48099270279 0.56155565555 -0.6694135058 -0.48118993523 0.5659834973 -0.6705889274 -0.47797054206 0.56730857068 
-0.67212563132 -0.4745049056 0.5684100211 -0.67863086207 -0.46835536011 0.5656904432 -0.68554260865 -0.46198622206 0.56265823571 
-0.69767830569 -0.45329044838 0.55449022089 -0.71029326424 -0.44438122188 0.54585103109 -0.72837881686 -0.43395300923 0.52952576717 
-0.74702155962 -0.42337008502 0.51241766238 -0.77116272942 -0.41312209555 0.48265191261 -0.79592054523 -0.40291166885 0.45146661388 
-0.82497152534 -0.39611032974 0.3980876646 -0.85454902559 -0.38972708627 0.34198685251 -0.88055937347 -0.3914027246 0.24619296125 
-0.90609410104 -0.3941528805 0.14510665943 -0.8986925333 -0.40694104669 -0.009985459647 -0.88654053836 -0.42117700284 -0.17286687929 
-0.8054641321 -0.43496666393 -0.34927307287 -0.71368102117 -0.44868699764 -0.52778020222 -0.58518482798 -0.45451254866 -0.64872218304 
-0.45056978775 -0.45902230256 -0.76006997244 -0.33549191068 -0.46203124288 -0.8123958662 -0.22389590428 -0.46477271147 -0.85420300629 
-0.13990010528 -0.46913891152 -0.86841732403 -0.061148345683 -0.47381381055 -0.87738900552 0.00011861455242 -0.47974890709 -0.87551404887 
0.057853292089 -0.48593858898 -0.87144785219 0.10571750385 -0.49288221997 -0.86237987836 0.1514666158 -0.49998741148 -0.85224009513 
0.19155909995 -0.507614441 -0.83899952525 0.23036863759 -0.51535982553 -0.82505568416 0.26590378439 -0.52352807857 -0.80851150259 
0.30065444171 -0.53179764386 -0.79134432277 0.33345280388 -0.54045573651 -0.77151040493 0.36575795464 -0.54921198343 -0.75100278486 
0.39697062667 -0.55838197684 -0.7273538837 0.42789274585 -0.56766200921 -0.70286953544 0.45825426063 -0.57738077668 -0.6744096483 
0.4884590473 -0.58722220127 -0.64483832018 0.51833010696 -0.59746626747 -0.61004830605 0.54810322499 -0.60782850022 -0.57372672103 
0.57761312641 -0.61844044576 -0.53005207561 0.60704203809 -0.62912922601 -0.48411495005 0.63586158664 -0.63945312858 -0.42712138552 
0.66448478484 -0.64965945946 -0.36656519064 0.69095723733 -0.65750289606 -0.28772173522 0.71670471937 -0.66454985144 -0.20271403467 
0.73385972146 -0.66213122348 -0.085532821685 0.74798782722 -0.65637812866 0.042982242274 0.73094468812 -0.61943874016 0.21481437913 
0.70243626355 -0.57102853101 0.40257923246 0.61461163673 -0.46938937238 0.587598804 0.5040261416 -0.34732515176 0.77156495347 
0.37106292599 -0.21091490231 0.88024280349 0.2291486222 -0.068766241342 0.95880533373 0.11972060333 0.040901246835 0.98338122871 
0.023828536509 0.13703491301 0.98546269232 -0.040051706787 0.20429829434 0.97540661837 -0.090047303736 0.2590396244 0.96008607029 
-0.12201630397 0.29791347113 0.9459172066 -0.14585135204 0.32962759977 0.93226800539 -0.1594812827 0.35207388761 0.92204991108 
-0.16832362742 0.37017229952 0.91344147185 -0.17067442502 0.38163662126 0.90837894499 -0.16986059341 0.38986682406 0.90504505039 
-0.16450949813 0.39236089991 0.90495030358 -0.15686105415 0.3919506077 0.9064956316 -0.14575003955 0.38582603001 0.91084736043 
-0.13281895578 0.37669778946 0.91667424867 -0.11706109071 0.36132878164 0.92471018213 -0.099761344928 0.34255571896 0.93395104935 
-0.080196672872 0.31667862902 0.94446320318 -0.05935052937 0.28678215525 0.95569463759 -0.037006805648 0.24898116946 0.96669723539 
-0.013784501529 0.20654286995 0.97756558237 0.0098807230641 0.15593840734 0.9860960694 0.033815291188 0.10036803475 0.99320488483 
0.05692096196 0.037395884952 0.99549483354 0.079504313851 -0.030240398428 0.99474823609 0.099871389848 -0.10277691027 0.9869951282 
0.11879173019 -0.17851218237 0.974668326 0.13447238282 -0.25549315212 0.95437425672 0.14796282403 -0.33331628367 0.92869386603 
0.1579090496 -0.40863037628 0.89571621383 0.16537432421 -0.48218814164 0.85763047858 0.16967651502 -0.55066529941 0.81401335373 
0.17168661612 -0.61546085748 0.76638797555 0.17131174229 -0.67416750799 0.71507980616 0.16914813727 -0.72830747782 0.66100954336 
0.16548459449 -0.77611564841 0.60502506443 0.1606569209 -0.81900958676 0.54755492522 0.1551217826 -0.85590521118 0.4896628628 
0.14901852872 -0.88798400774 0.43143198326 0.14271498643 -0.91481431582 0.37376025797 0.13624505071 -0.93728434115 0.31655306085 
0.1298280944 -0.95531117172 0.26070951188 0.12345666728 -0.96951963177 0.20603784805 0.11720869499 -0.98011674685 0.15344136707 
0.11107046034 -0.98750377749 0.10268949307 0.10498819664 -0.99214355873 0.054544696188 0.098957390105 -0.99425764293 0.0087967282711 
0.092867697895 -0.99448224608 -0.033826520709 0.086722016029 -0.99291029349 -0.073478725455 0.080380185916 -0.99027843683 -0.10967681111 
0.073845476692 -0.98660434118 -0.14247834632 0.066980553526 -0.98260329617 -0.17165185198 0.059779819573 -0.97826976028 -0.19713583609 
0.052135542349 -0.97420180088 -0.21889971752 0.044024779963 -0.97041315468 -0.23675107718 0.035398502689 -0.96732092426 -0.25079760206 
0.026211489923 -0.96498619871 -0.26070553471 0.016508086759 -0.96360196865 -0.26668400653 0.0062237443976 -0.96328704602 -0.2682418349 
-0.0044754812862 -0.96397386233 -0.26571543066 -0.01565748029 -0.96582633851 -0.25843646482 -0.026996019692 -0.96849447003 -0.24697031383 
-0.038522987351 -0.97214440891 -0.23046403256 -0.049735566776 -0.97617820502 -0.20987632704 -0.06055664387 -0.98069001201 -0.18420609322 
-0.070394850344 -0.98497934071 -0.15495625816 -0.078966665826 -0.98898201466 -0.12109424457 -0.085789899321 -0.99215967254 -0.084646727075 
-0.090281690167 -0.99423730898 -0.044751871043 -0.092306671936 -0.99510990663 -0.0036487390445 -0.090927457177 -0.99431955076 0.039121813789 
-0.086568107025 -0.99226413058 0.081726148136 -0.077951420598 -0.9884014757 0.1240930275 -0.066123265964 -0.9834252958 0.16521748617 
-0.049544814607 -0.97680202683 0.20450419754 -0.029697510272 -0.96922977192 0.24188668262 -0.0048426013767 -0.96020375129 0.27635205507 
0.023276339447 -0.95022150232 0.30861104629 0.056575157026 -0.93872176055 0.33736860643 0.093056461715 -0.92600322754 0.36378334036 
0.13477118965 -0.91128046002 0.38634542674 0.17944246861 -0.89482233121 0.40646462218 0.22915332319 -0.87540620018 0.42241979898 
0.28130290961 -0.85358448505 0.43579153303 0.33776281279 -0.82751103989 0.44459718222 0.3956409193 -0.79843216191 0.45070772278 
0.45611906525 -0.76384332375 0.45187723085 0.51646756734 -0.72606059803 0.45044467513 0.57656942989 -0.68220169597 0.44406185169 
0.63482428993 -0.63565503969 0.43549983983 0.68943131997 -0.58380006883 0.42263393083 0.74084365024 -0.53045976068 0.40833797831 
0.78570275017 -0.47407260678 0.39110860319 0.82683860177 -0.41766616067 0.37334587899 0.8600380556 -0.36121859168 0.35444627911 
0.88981165105 -0.30592574481 0.33577218991 0.91199280357 -0.25319201185 0.31759788115 0.93146871151 -0.2023394529 0.30014875688 
0.94470752776 -0.15582404516 0.28437158576 0.95605643809 -0.11141844776 0.26955377028 0.96286957421 -0.072076395194 0.25703840831 
0.96847675777 -0.034738314686 0.24553769917 0.97106905991 -0.0024101643289 0.23657362211 0.97293894639 0.028110399472 0.2286180252 
0.97292617386 0.053920283158 0.22329058865 0.97250408086 0.078180371852 0.21893651565 0.97096914782 0.098226955414 0.21722877482 
0.96920035227 0.11697076056 0.21647405623 0.96676768891 0.13201635599 0.21842469113 0.96417889261 0.14595281484 0.22133213548 
0.96112690193 0.15659883516 0.22707811456 0.95791938625 0.16629935202 0.23381215558 0.95422920677 0.17306554781 0.24361259577 
0.95031632696 0.17902786013 0.2544593626 0.9456796711 0.18237755118 0.268706691 0.94069674492 0.18503352927 0.28405836595 
0.93453393469 0.18532574465 0.30317299949 0.927851177 0.18502620765 0.32341359708 0.91930860725 0.18261001793 0.3476816814 
0.91004058946 0.17971161903 0.37301702893 0.89804488702 0.17500011364 0.40236528615 0.88515689746 0.16994802588 0.43254335016 
0.86873693806 0.16354779956 0.46600606599 0.85144493164 0.15698730736 0.4997914185 0.83051307673 0.14975787932 0.53492342845 
0.80901722383 0.1425428323 0.56972509365 0.78503465248 0.13539119256 0.60307023881 0.76102027514 0.12835947278 0.63553864977 
0.73685746991 0.12188737945 0.66391563447 0.71325815075 0.11552886537 0.69110840054 0.69244808763 0.10973256857 0.71243928444 
0.67268186387 0.10393640556 0.73251137778 0.65840953149 0.098140946714 0.74595825763 0.645408917 0.092188512643 0.75823262731 
0.63954405284 0.085355273158 0.76392791211 0.63490661107 0.078203522253 0.76860483045 0.63763370361 0.069140702831 0.76717155003 
0.64133002206 0.059600297636 0.76489454644 0.65126573232 0.046985434028 0.75718607503 0.66177335307 0.033786543863 0.74883599345 
0.67624621991 0.016538402908 0.73603741469 0.69085402938 -0.001299496485 0.72283895678 0.70647390846 -0.023560584163 0.70664140517 
0.72185165148 -0.046338167548 0.69031281219 0.73525505435 -0.073327177469 0.67291572806 0.74816121243 -0.10073264603 0.65563471404 
0.75663360445 -0.1318515375 0.63938865856 0.76447309285 -0.16328982086 0.62343803842 0.76609861836 -0.19786395191 0.61038805603 
0.76702450225 -0.23268917556 0.59773104371 0.76032429258 -0.27025130848 0.58935740515 0.75287425878 -0.30801747825 0.58140098713 
0.7362597079 -0.34827743166 0.5785439312 0.71884483253 -0.38867831476 0.57606424806 0.69032545493 -0.43103459726 0.57882061244 
0.6609798931 -0.47342261803 0.58185177384 0.61841538362 -0.5163184511 0.58927968741 0.57509480946 -0.55907680266 0.59682762965 
0.5175350171 -0.5992459193 0.60663611177 0.45943553468 -0.63910739528 0.61640533815 0.38903111899 -0.67195466421 0.62527953352 
0.31840110756 -0.70442237674 0.63402101474 0.24128521862 -0.7259778431 0.63894696397 0.16420815903 -0.74722184605 0.6437432677 
0.088632501305 -0.7564225971 0.643526612 0.013194790603 -0.76545307929 0.6432377943 -0.054173018956 -0.7645228333 0.6387275 
-0.12097471247 -0.7636004045 0.63425510734 -0.12097471247 -0.7636004045 0.63425510734 -0.12097471247 -0.7636004045 0.63425510734 

FrenetNormal 3 240 double
0.39499498245 -0.76118542974 0.5143692306 0.39499498245 -0.76118542974 0.5143692306 0.39499498245 -0.76118542974 0.5143692306 
0.44094974004 -0.74390094178 0.49947508504 0.48729394473 -0.72646997512 0.4844547179 0.5274330861 -0.70388493415 0.47339728895 
0.56746615801 -0.68121178935 0.46240760253 0.60039832071 -0.65310374647 0.45943997962 0.6331468392 -0.62485514588 0.45667982386 
0.6585877706 -0.58961605078 0.46542901024 0.68377452506 -0.55413380805 0.47457852156 0.70090434532 -0.50419265019 0.50092574813 
0.71768079127 -0.45361732939 0.52802726046 0.71695886139 -0.35619468301 0.58760367264 0.7153078142 -0.25628456801 0.64890441579 
0.52333594839 0.10886205823 0.7216258053 0.3194690314 0.49058596642 0.79506098521 -0.13007247092 0.63261353526 0.37808551387 
-0.59732024966 0.75736569225 -0.074234869271 -0.67025639315 0.67788277124 -0.2430247845 -0.71093067557 0.58168970748 -0.38861675236 
-0.70901162199 0.52215390192 -0.46530784926 -0.70318492291 0.46598114757 -0.53567776534 -0.6800769124 0.4047677865 -0.60383991518 
-0.65520876831 0.3430410303 -0.67177719993 -0.60767715235 0.27239265181 -0.73794892769 -0.55760383862 0.20074371756 -0.80392264906 
-0.47714181652 0.12937019374 -0.86047699891 -0.39295287735 0.058030446688 -0.91587614282 -0.26767195294 0.0036739582872 -0.95262150709 
-0.13691209717 -0.048418095626 -0.98687970074 0.04149076202 -0.066950455102 -0.97948915721 0.22676520824 -0.080642474034 -0.96609158428 
0.41814286064 -0.067672724249 -0.87994576274 0.6104685839 -0.050561340488 -0.78249924239 0.74169527226 -0.038817489833 -0.64213055515 
0.86273878813 -0.02796822803 -0.49460817342 0.92157901311 -0.035436056813 -0.3606008238 0.96933350307 -0.046168317582 -0.22900209375 
0.98489024476 -0.065550825937 -0.12332199675 0.99432941427 -0.086576881334 -0.02256644002 0.98903879728 -0.10833159663 0.059469390856 
0.98077246583 -0.13023351594 0.13772345893 0.96518119565 -0.14951046534 0.20376025443 0.94802029575 -0.16822492119 0.26717906295 
0.92688589641 -0.18307847929 0.32238842086 0.90485029102 -0.19705636986 0.37573584152 0.88030130261 -0.20703751492 0.42357420646 
0.85515014951 -0.21606110638 0.47009269345 0.82775706684 -0.22165250171 0.51303457302 0.79979760197 -0.22637681593 0.55507288861 
0.76925760549 -0.22797492547 0.59485573706 0.73803129741 -0.2287415976 0.63403872722 0.70354584798 -0.22627119994 0.67177108627 
0.66814924074 -0.22289581502 0.70909789252 0.62848983759 -0.21579296468 0.74534455552 0.5875793965 -0.20759618428 0.78127421996 
0.54118893719 -0.19395754789 0.81605543176 0.49311231842 -0.17864449426 0.85048327352 0.43740347201 -0.15490452359 0.88308842018 
0.37923535226 -0.12844921297 0.91510625397 0.30877815272 -0.088119118119 0.9429097881 0.23417856673 -0.043112129706 0.96929277179 
0.13753318212 0.025568516401 0.98212717559 0.033121663897 0.10258874647 0.99018878421 -0.10215074606 0.21018736918 0.95368098094 
-0.24877428861 0.32903321677 0.90077983076 -0.39350601137 0.44595833952 0.7678385503 -0.53751180329 0.56214643994 0.60418419659 
-0.62232793961 0.63117851914 0.41358916068 -0.68346821369 0.68134818986 0.21221785188 -0.695851797 0.7035672808 0.055482203229 
-0.68792009249 0.71414029684 -0.082655253701 -0.65992222028 0.72496925669 -0.17890447625 -0.62322095003 0.73590922832 -0.25698530798 
-0.56953670978 0.75674306877 -0.31174580603 -0.5081894221 0.78204121588 -0.3559837145 -0.39704241951 0.82287608394 -0.38272376636 
-0.26253258771 0.87099978406 -0.40125494722 0.11342969635 0.79811152926 -0.31285857309 0.6071000509 0.66622994642 -0.17233501589 
0.80482212022 0.28983227574 0.01974809731 0.85269695651 -0.21037100906 0.23793731482 0.8135420712 -0.46127323666 0.3254672022 
0.72864079378 -0.58113260086 0.34431718529 0.66481136282 -0.66002898352 0.34203767597 0.61247566632 -0.71658192171 0.32823298896 
0.56713710726 -0.76302365377 0.30398402093 0.52575745492 -0.80374457186 0.27382578864 0.4862857511 -0.83934527065 0.23478582302 
0.44793337707 -0.87194210747 0.19053524052 0.40975577729 -0.89913681624 0.138073275 0.37168445913 -0.92304644713 0.080617900869 
0.33315131537 -0.93983262615 0.016250415205 0.29432715821 -0.95213005469 -0.052472647593 0.25529034988 -0.95549107936 -0.12533101393 
0.2161147276 -0.95301861816 -0.20088881452 0.17764563723 -0.94092359273 -0.27692349373 0.13965420224 -0.92232317176 -0.35328056976 
0.10359917408 -0.895053219 -0.42659134348 0.068899630706 -0.86171459398 -0.49776970559 0.037138726174 -0.82178498422 -0.56366357222 
0.0075072700754 -0.77707929856 -0.62572809429 -0.018436970463 -0.72790832089 -0.6818448472 -0.041615799333 -0.6753883742 -0.73350077324 
-0.060362247113 -0.62036707508 -0.77928597386 -0.075668637929 -0.56340442778 -0.82051479057 -0.087271575037 -0.50565564316 -0.85621272153 
-0.095900526592 -0.44727556643 -0.88746918365 -0.10227040987 -0.38927970722 -0.91374908961 -0.10676352873 -0.33160304411 -0.93589462584 
-0.11036985011 -0.27526002536 -0.95366612195 -0.1132140799 -0.22006310722 -0.96767867735 -0.11667651133 -0.16705517519 -0.97795052651 