# vtk DataFile Version 5.1
vtk output
ASCII
DATASET POLYDATA
POINTS 240 float
0 0 0 -0.0686987 -0.278654 0.0635123 -0.137397 -0.557309 0.127025 
-0.219716 -0.835544 0.185158 -0.302149 -1.11378 0.243246 -0.399254 -1.38903 0.294759 
-0.496609 -1.66424 0.34616 -0.609577 -1.93398 0.389825 -0.722949 -2.20359 0.43329 
-0.852586 -2.46544 0.467923 -0.982788 -2.72701 0.502249 -1.12933 -2.97885 0.526725 
-1.27659 -3.23027 0.550769 -1.43935 -3.47052 0.56402 -1.60293 -3.71018 0.576697 
-1.77998 -3.93801 0.577648 -1.95787 -4.1651 0.577865 -2.14587 -4.38068 0.565342 
-2.3346 -4.59542 0.551901 -2.52885 -4.79995 0.524574 -2.72355 -5.00363 0.49611 
-2.91834 -5.19929 0.452518 -3.11314 -5.39421 0.407537 -3.30228 -5.58378 0.346233 
-3.49084 -5.7728 0.283267 -3.66848 -5.95907 0.203041 -3.84489 -6.14504 0.120881 
-4.00623 -6.33001 0.0209946 -4.16573 -6.51487 -0.0810654 -4.30758 -6.69913 -0.20073 
-4.44707 -6.88332 -0.322741 -4.56779 -7.06578 -0.461644 -4.68579 -7.24799 -0.602984 
-4.78483 -7.42606 -0.760013 -4.88091 -7.6035 -0.919478 -4.95806 -7.77376 -1.09311 
-5.03206 -7.94283 -1.2691 -5.08695 -8.10183 -1.45754 -5.13844 -8.25903 -1.64821 
-5.17048 -8.40394 -1.84952 -5.19881 -8.54651 -2.05286 -5.20756 -8.67563 -2.26491 
-5.21236 -8.80202 -2.47871 -5.1981 -8.91488 -2.69904 -5.17975 -9.02484 -2.92077 
-5.1436 -9.12226 -3.14648 -5.10341 -9.21684 -3.37309 -5.04696 -9.30105 -3.6006 
-4.98663 -9.38276 -3.82834 -4.91131 -9.45743 -4.05352 -4.83222 -9.53031 -4.27805 
-4.7387 -9.60071 -4.49637 -4.64135 -9.67045 -4.71304 -4.52951 -9.74334 -4.92016 
-4.41361 -9.81711 -5.12462 -4.28299 -9.90025 -5.31696 -4.14806 -9.98613 -5.50575 
-3.99867 -10.0873 -5.68093 -3.84484 -10.1931 -5.85193 -3.67787 -10.3185 -6.00884 
-3.50667 -10.4502 -6.16123 -3.32485 -10.6032 -6.29963 -3.13947 -10.7633 -6.43333 
-2.9472 -10.9426 -6.553 -2.75251 -11.1287 -6.66773 -2.55564 -11.3286 -6.76748 
-2.35798 -11.5334 -6.86171 -2.16343 -11.7435 -6.9386 -1.97008 -11.9554 -7.00885 
-1.78529 -12.1624 -7.058 -1.60394 -12.3673 -7.09872 -1.43621 -12.5569 -7.11373 
-1.27417 -12.7402 -7.11803 -1.12993 -12.8995 -7.09215 -0.993419 -13.0484 -7.05318 
-0.877567 -13.1679 -6.98083 -0.771036 -13.2741 -6.89342 -0.686481 -13.3492 -6.77161 
-0.612235 -13.4098 -6.63366 -0.559801 -13.4415 -6.46288 -0.518001 -13.4592 -6.27611 
-0.49665 -13.4536 -6.0606 -0.485652 -13.4362 -5.83053 -0.492992 -13.4029 -5.57778 
-0.509972 -13.3613 -5.3131 -0.542929 -13.3118 -5.03289 -0.584601 -13.2579 -4.74422 
-0.640003 -13.2032 -4.44745 -0.703173 -13.1479 -4.14609 -0.778084 -13.0971 -3.84362 
-0.859882 -13.049 -3.54049 -0.951624 -13.0089 -3.24219 -1.04941 -12.9736 -2.94682 
-1.15532 -12.9482 -2.66081 -1.26634 -12.9289 -2.38069 -1.38336 -12.9199 -2.11284 
-1.5043 -12.9176 -1.85298 -1.62864 -12.9253 -1.60658 -1.75529 -12.9396 -1.36926 
-1.88227 -12.963 -1.14496 -2.00948 -12.9929 -0.929768 -2.13363 -13.0313 -0.725676 
-2.25557 -13.0758 -0.529628 -2.37117 -13.1284 -0.341617 -2.48203 -13.1872 -0.159633 
-2.58385 -13.2542 0.0181007 -2.67868 -13.3275 0.192536 -2.76289 -13.4092 0.36667 
-2.83857 -13.4976 0.540565 -2.9034 -13.5943 0.717717 -2.95921 -13.6979 0.897577 
-3.00519 -13.8091 1.08339 -3.0427 -13.9269 1.27432 -3.07217 -14.0508 1.47269 
-3.09451 -14.1804 1.67765 -3.11069 -14.3144 1.89019 -3.12121 -14.4527 2.10968 
-3.12685 -14.5937 2.3356 -3.12784 -14.7375 2.56763 -3.12425 -14.8831 2.80387 
-3.11616 -15.0306 3.04425 -3.10298 -15.1797 3.28586 -3.08461 -15.3306 3.52872 
-3.0603 -15.4839 3.76946 -3.02976 -15.6399 4.00796 -2.99274 -15.7997 4.24102 
-2.94869 -15.9637 4.46817 -2.89846 -16.1335 4.68701 -2.84129 -16.3095 4.89652 
-2.77925 -16.4928 5.09563 -2.71155 -16.6843 5.28267 -2.64115 -16.8841 5.45819 
-2.56749 -17.0938 5.61987 -2.49373 -17.312 5.76993 -2.41986 -17.5409 5.90552 
-2.34841 -17.7778 6.03031 -2.28009 -18.0252 6.14117 -2.21613 -18.2797 6.24279 
-2.15797 -18.5435 6.33206 -2.10519 -18.8128 6.41412 -2.05983 -19.0896 6.48624 
-2.01986 -19.3703 6.55342 -1.98758 -19.6563 6.61356 -1.95976 -19.9444 6.67104 
-1.93854 -20.2354 6.72457 -1.92017 -20.527 6.77747 -1.90617 -20.8194 6.82942 
-1.89302 -21.1112 6.88245 -1.88123 -21.4018 6.93718 -1.8682 -21.691 6.99426 
-1.85313 -21.9777 7.05518 -1.8349 -22.2624 7.11925 -1.8113 -22.5439 7.18869 
-1.78298 -22.8231 7.26165 -1.74635 -23.0987 7.34081 -1.70391 -23.372 7.42343 
-1.65085 -23.6414 7.5124 -1.59138 -23.9087 7.60447 -1.51972 -24.172 7.70242 
-1.44145 -24.4331 7.80288 -1.35013 -24.69 7.90827 -1.2523 -24.9444 8.01548 
-1.14109 -25.1939 8.12643 -1.02362 -25.4404 8.23854 -0.892824 -25.6807 8.35316 
-0.756127 -25.9171 8.46841 -0.606357 -26.1452 8.58511 -0.451093 -26.3684 8.70211 
-0.28316 -26.5804 8.81982 -0.110169 -26.7864 8.93768 0.0749606 -26.9779 9.0559 
0.264682 -27.1625 9.17427 0.465882 -27.3293 9.29301 0.671173 -27.4882 9.41201 
0.887125 -27.6266 9.53165 1.10662 -27.7568 9.6517 1.33573 -27.8647 9.77282 
1.56778 -27.9646 9.89447 1.80813 -28.0421 10.0177 2.05072 -28.1126 10.1415 
2.29996 -28.1624 10.2672 2.5507 -28.2067 10.3937 2.80608 -28.2338 10.5225 
3.06219 -28.2572 10.6521 3.32067 -28.2685 10.7842 3.57916 -28.2779 10.9172 
3.83765 -28.2808 11.0533 4.0955 -28.2836 11.1905 4.35106 -28.2855 11.3312 
4.60548 -28.2884 11.473 4.85562 -28.295 11.6192 5.10429 -28.3032 11.7668 
5.34716 -28.3181 11.9195 5.5884 -28.3347 12.0738 5.82288 -28.3588 12.2342 
6.05572 -28.3844 12.3963 6.28137 -28.4165 12.5655 6.50547 -28.4495 12.7364 
6.72228 -28.4866 12.9153 6.93763 -28.5238 13.096 7.14565 -28.5621 13.2854 
7.35222 -28.6001 13.4766 7.55109 -28.636 13.6772 7.74842 -28.6713 13.8795 
7.93712 -28.7026 14.0916 8.12411 -28.7332 14.3054 8.30092 -28.7592 14.529 
8.47586 -28.7845 14.754 8.63879 -28.8059 14.9882 8.79976 -28.827 15.2236 
8.94718 -28.8465 15.4667 9.09272 -28.8662 15.7103 9.22418 -28.8881 15.9585 
9.35404 -28.9108 16.2066 9.47089 -28.9406 16.4546 9.58661 -28.972 16.7019 
9.69216 -29.0167 16.9429 9.7971 -29.0635 17.1825 9.89607 -29.1302 17.4091 
9.99491 -29.1992 17.634 10.0923 -29.2938 17.8398 10.1898 -29.3907 18.0437 
10.2893 -29.5164 18.2248 10.389 -29.6441 18.4042 10.4916 -29.8008 18.5603 
10.5943 -29.959 18.7152 10.6977 -30.142 18.8504 10.8008 -30.3259 18.985 
10.8986 -30.5269 19.1079 10.9957 -30.7281 19.2307 11.0783 -30.9353 19.353 
11.16 -31.1421 19.4757 11.2156 -31.3415 19.6118 11.2702 -31.5403 19.7486 
11.2855 -31.7168 19.9142 11.3 -31.8927 20.0805 11.2615 -32.0308 20.2914 
11.2224 -32.1684 20.5029 11.1161 -32.2525 20.7756 11.0098 -32.3366 21.0483 

LINES 2 240
OFFSETS vtktypeint64
0 240 
CONNECTIVITY vtktypeint64
0 1 2 3 4 5 6 7 8 
9 10 11 12 13 14 15 16 17 
18 19 20 21 22 23 24 25 26 
27 28 29 30 31 32 33 34 35 
36 37 38 39 40 41 42 43 44 
45 46 47 48 49 50 51 52 53 
54 55 56 57 58 59 60 61 62 
63 64 65 66 67 68 69 70 71 
72 73 74 75 76 77 78 79 80 
81 82 83 84 85 86 87 88 89 
90 91 92 93 94 95 96 97 98 
99 100 101 102 103 104 105 106 107 
108 109 110 111 112 113 114 115 116 
117 118 119 120 121 122 123 124 125 
126 127 128 129 130 131 132 133 134 
135 136 137 138 139 140 141 142 143 
144 145 146 147 148 149 150 151 152 
153 154 155 156 157 158 159 160 161 
162 163 164 165 166 167 168 169 170 
171 172 173 174 175 176 177 178 179 
180 181 182 183 184 185 186 187 188 
189 190 191 192 193 194 195 196 197 
198 199 200 201 202 203 204 205 206 
207 208 209 210 211 212 213 214 215 
216 217 218 219 220 221 222 223 224 
225 226 227 228 229 230 231 232 233 
234 235 236 237 238 239 
CELL_DATA 1
FIELD FieldData 3
Length 1 1 double
64.784668057 
Tortuosity 1 1 double
0.61462793794 
ClusterLabel 1 1 int
3 
POINT_DATA 240
FIELD FieldData 6
Curvature 1 240 double
0 0.041738953951 0.083477907902 0.089062718654 0.094341138361 0.10030653192 0.10628366862 0.11239385823 0.11850748886 
0.12374984212 0.12896189007 0.1320604866 0.1350663879 0.13508354253 0.13494200265 0.13182297258 0.12851784937 0.12399885635 
0.11939237722 0.11725148246 0.11531231733 0.11996555236 0.12522359474 0.13708579643 0.14962064399 0.16407437053 0.17874329846 
0.19023204785 0.20133077533 0.20724731112 0.21247288801 0.21428245604 0.21559933047 0.21712500943 0.21868312404 0.22239417076 
0.2264640395 0.23176904451 0.23729417281 0.24083878102 0.24400709041 0.24218141902 0.23934686263 0.23093716174 0.22133278702 
0.20854857568 0.19504316429 0.18283168936 0.17093022004 0.16608855112 0.16303041073 0.17106770545 0.18205591376 0.20019522238 
0.22033376335 0.2373061342 0.25334930294 0.25754661409 0.25809904598 0.24703617799 0.23223060225 0.21304138447 0.19237453454 
0.17466814461 0.15800464399 0.14886082984 0.14248287736 0.14880601108 0.1600028174 0.19386693296 0.23679797223 0.32552727784 
0.43333919443 0.61984738604 0.84048890176 1.058384891 1.275042045 1.2590759568 1.133977977 0.91872477869 0.65952091125 
0.4737753598 0.3252238924 0.23223242794 0.16844558041 0.13181517123 0.1099973648 0.1006422002 0.098338267168 0.10066989619 
0.10572105496 0.11219132803 0.11952457601 0.12671729015 0.1338214487 0.13976885512 0.14496115944 0.14822305605 0.1501798883 
0.1516183319 0.15269390347 0.15891232079 0.16885743795 0.18741805276 0.21244029082 0.23732734028 0.26210946725 0.27474748074 
0.27763340309 0.26519116679 0.24001476792 0.20955990246 0.17456885479 0.14321755594 0.11510158937 0.093523437338 0.077955856736 
0.067352736907 0.061469924043 0.059661436982 0.061859370295 0.06820852692 0.078779266575 0.092350190349 0.10907648018 0.12680391542 
0.14562031584 0.16313826155 0.17919544572 0.19260238512 0.20292540333 0.20959861803 0.21187855074 0.21065301066 0.20506216485 
0.19694600015 0.18557605918 0.17256208221 0.15735605723 0.14129536222 0.12405522255 0.10645350367 0.088335243042 0.070441353693 
0.052879346859 0.038098118381 0.027576805681 0.025479649458 0.036751263299 0.049697256358 0.065396673023 0.080198231213 0.093469348824 
0.10520098925 0.11421169327 0.12146597577 0.12550015215 0.12821249695 0.12841013778 0.12812205809 0.1268746804 0.12584735906 
0.12527143534 0.12542682989 0.12714108703 0.12979536488 0.13453293185 0.14021433772 0.14807181663 0.15662204869 0.16683488829 
0.17717195135 0.18781957304 0.19731289276 0.20379803162 0.20814447465 0.20667633845 0.20259889725 0.19111439671 0.17753770735 
0.15775419111 0.13721476713 0.11432942256 0.091718792194 0.070000982972 0.050835698233 0.040367904326 0.034343344607 0.044211891788 
0.054399996656 0.065789638424 0.076249366349 0.083028185316 0.088699630683 0.089748994938 0.090267937641 0.088448203499 0.086778758138 
0.085810660418 0.085419835302 0.087886509574 0.090618387681 0.094746075442 0.098820302404 0.10259455489 0.10614158671 0.1083252946 
0.11015449908 0.10970158794 0.10891827575 0.10584418291 0.10294525196 0.10136003522 0.10109986241 0.11164389402 0.12413320704 
0.15396794593 0.18491537668 0.22678741844 0.26795238195 0.30141019267 0.33257041787 0.33564904219 0.3362852104 0.30303230019 
0.26880885501 0.21905685022 0.17065456711 0.14767204218 0.12810548058 0.18642288284 0.24638177196 0.35353340824 0.46045537464 
0.55849677225 0.65458981971 0.63670438366 0.61637941592 0.30818970796 0 
Torsion 1 240 double
0 0 0 -0.000672640835 -0.0013509820161 0.0014683570082 0.0043474854377 0.01049255101 0.016722080473 
0.028339730903 0.040144794236 0.06067637668 0.08159070119 0.11723253011 0.15365635041 0.21350869427 0.27482532084 0.36369416773 
0.45454876022 0.53739459645 0.6195851708 0.61058936378 0.59322783369 0.50226524156 0.40380624497 0.30894262023 0.21448221476 
0.14251776561 0.073312254489 0.020869073895 -0.029339129296 -0.062434670657 -0.093062039639 -0.10100951553 -0.10543390124 -0.090544001379 
-0.072435053924 -0.048716273066 -0.02399771992 -0.0034921914292 0.016212862376 0.035029857969 0.053667447862 0.086076256146 0.1214360398 
0.18990107574 0.26587451942 0.38444252058 0.5132154678 0.62490745616 0.73228425492 0.72574351355 0.68890555405 0.60153447505 
0.50003585725 0.42018960621 0.34669785411 0.29533886676 0.25078996087 0.21279766857 0.17691806288 0.13438328487 0.089605190342 
0.02614164329 -0.043904279083 -0.12681173898 -0.21444987935 -0.27042023376 -0.31423899589 -0.29891993896 -0.2599457544 -0.20292513831 
-0.13838517574 -0.084317417522 -0.034791820226 -0.0024522570867 0.022132632103 0.049039795127 0.077036419948 0.12956952139 0.19406415517 
0.2876668333 0.39600776172 0.51823837903 0.64776998666 0.69898904762 0.70749217402 0.62086688165 0.48041893128 0.35851571853 
0.24749208517 0.17588691693 0.12825243694 0.1101293771 0.11060255462 0.13759612691 0.18190162358 0.26204763498 0.36642385353 
0.50984784745 0.68060528413 0.79942004605 0.88059518856 0.84762712517 0.72905165735 0.60514698954 0.47710622621 0.38703981642 
0.32746796326 0.29748412782 0.29208110711 0.30155941969 0.32382637808 0.34784520741 0.37342125537 0.33080186812 0.22548667754 
0.042469275614 -0.21442891742 -0.4126175948 -0.55307524847 -0.59792562556 -0.54554826378 -0.48727247391 -0.42279316487 -0.37336581524 
-0.34031077233 -0.31892988439 -0.31068242079 -0.30673700951 -0.30779762276 -0.30911211509 -0.3107322026 -0.31102163807 -0.30965403514 
-0.30681446901 -0.3020783349 -0.29771667706 -0.29385432089 -0.29420852168 -0.30038157108 -0.32309424961 -0.36943496974 -0.49836829506 
-0.74946984889 -1.3322016146 -2.4229626412 -2.644682304 -1.4872711072 -0.68024952071 -0.4494241825 -0.28340996622 -0.22786925324 
-0.18556030159 -0.16663771878 -0.15194423207 -0.14500408818 -0.13842411108 -0.13252932934 -0.12467518545 -0.11295130135 -0.097979395444 
-0.076344880733 -0.052415481644 -0.023594355333 0.0042275421447 0.029834932476 0.052282588036 0.067445299541 0.079548890123 0.084310590489 
0.08686816989 0.083915446881 0.080493835348 0.075850271905 0.072005193286 0.070330995281 0.07048824546 0.075844445326 0.0850620515 
0.10573516306 0.13947183365 0.21375058402 0.34415233226 0.65695382353 1.0353526768 1.6372684674 1.940130468 1.173300066 
0.51682188919 0.2752680788 0.062350525403 -0.037215177426 -0.13310745107 -0.21366715075 -0.29302731296 -0.36709860543 -0.43203634613 
-0.45435084528 -0.46042284037 -0.38609444035 -0.30673724258 -0.20091268821 -0.098790534151 -0.017442959641 0.0623569857 0.13287115604 
0.20459939607 0.2841432098 0.36909155754 0.49151134103 0.62093571735 0.80289453992 0.96462324851 0.96139872012 0.93876150467 
0.74302782965 0.55213887954 0.40881631945 0.27068562356 0.18914624752 0.10880968968 0.0431742432 -0.025750416138 -0.14031290386 
-0.27050960426 -0.65085370732 -1.0466189323 -1.7328152858 -2.3565882679 -1.5571083793 -0.7755937394 -0.51057999705 -0.25045788153 
-0.17947866996 -0.1087744584 -0.054157747221 0 0 0 
FrenetTangent 3 240 double
-0.25628526131 -0.94434999117 0.20620610807 -0.25628526131 -0.94434999117 0.20620610807 -0.25628526131 -0.94434999117 0.20620610807 
-0.27966389885 -0.9395720351 0.1956917651 -0.30324066044 -0.93475358788 0.18508831753 -0.32930943855 -0.92778535089 0.17286293315 
-0.35542081523 -0.92078036536 0.16060982335 -0.38379014407 -0.91110898992 0.14654355987 -0.41221786822 -0.90136865611 0.13243040447 
-0.44214300048 -0.88861252992 0.11637978436 -0.47212021649 -0.8757515066 0.10026177418 -0.50218930086 -0.85997549294 0.0821622388 
-0.53226241454 -0.84407162883 0.063975794418 -0.56050308874 -0.82606202401 0.043783853688 -0.58864646526 -0.80794060995 0.023485426425 
-0.61283557522 -0.78929970773 0.00105461844 -0.63677754352 -0.7706263375 -0.02150946334 -0.65481798536 -0.75353212457 -0.046530437151 
-0.67243309196 -0.73655172477 -0.07172848426 -0.68257226047 -0.72322260424 -0.099877088691 -0.69209976131 -0.71019222473 -0.12826710236 
-0.69294007871 -0.70223021187 -0.16005984228 -0.69298340681 -0.69473318678 -0.19216475893 -0.68355052171 -0.69246046136 -0.22772307424 
-0.67315246675 -0.69071984053 -0.2636331246 -0.65325828036 -0.69275839804 -0.30229244769 -0.63229910727 -0.69522078863 -0.34126010043 
-0.60309777877 -0.69869640858 -0.38150932972 -0.57288561988 -0.70229629252 -0.42191573348 -0.53695917884 -0.70383303975 -0.4619190547 
-0.50027083351 -0.70509470208 -0.50186863158 -0.46071573952 -0.70199205556 -0.54028176464 -0.42074717217 -0.69825994142 -0.57847329523 
-0.37969540999 -0.68905639448 -0.61479107561 -0.33847538453 -0.67900291624 -0.650817788 -0.29636072039 -0.66326218298 -0.68490245737 
-0.25409694979 -0.64657357388 -0.7186634529 -0.21029550768 -0.62449838099 -0.74993840775 -0.16622002509 -0.60146320286 -0.78077030586 
-0.12044640058 -0.57390301057 -0.80781748974 -0.07435012911 -0.54548306558 -0.83414557793 -0.027692100785 -0.51423046884 -0.85514861144 
0.019079413774 -0.48240561923 -0.87507587633 0.064493224134 -0.45029124068 -0.88878122154 0.10961609788 -0.41811482022 -0.90115329824 
0.15207760437 -0.38867603118 -0.90734177064 0.1939355018 -0.35985814825 -0.91212777607 0.23336778766 -0.33670565465 -0.91117493503 
0.27221893741 -0.31491049391 -0.90884716201 0.31010259681 -0.30136022081 -0.90079724093 0.34774183758 -0.28989286669 -0.89130172456 
0.38576725304 -0.28881646389 -0.87524960815 0.42389537454 -0.29050361197 -0.85745371513 0.46202106427 -0.30370193949 -0.83180916892 
0.50014607415 -0.3201184462 -0.80397037558 0.53543962127 -0.3468999251 -0.76782795548 0.56990219562 -0.376723298 -0.72924860143 
0.59759313258 -0.41279156847 -0.68440391554 0.62320048881 -0.45078134588 -0.63763143524 0.639999794 -0.4894156966 -0.58904092269 
0.65396094941 -0.52825774315 -0.53986459976 0.66051879298 -0.56347572464 -0.49306170505 0.66458113818 -0.59747211118 -0.44705884231 
0.66457281962 -0.6262546176 -0.40484117824 0.66313051723 -0.65320041626 -0.36395693643 0.6608183462 -0.67517448119 -0.32514830014 
0.65818622348 -0.69531986245 -0.28710310497 0.65683038314 -0.7112351211 -0.24691039475 0.65596427906 -0.72552719317 -0.20589363806 
0.65728396711 -0.73549528081 -0.15589045885 0.65947797201 -0.74373377468 -0.10229271062 0.66236211707 -0.74451411371 -0.028915699817 
0.66553382052 -0.74218688822 0.052702670401 0.66051216464 -0.72065819121 0.16776225278 0.65193676254 -0.69080114512 0.2973264573 
0.61243983753 -0.61921057248 0.45356610284 0.55899051804 -0.52878901836 0.62184222786 0.46948016373 -0.40551581022 0.75784259663 
0.36305228691 -0.26683071502 0.87870125258 0.26038566702 -0.14749192797 0.94300089146 0.15955265988 -0.037584466132 0.97972800953 
0.080155155011 0.038731264594 0.99234151119 0.011611069005 0.098038523873 0.99274558683 -0.041990938667 0.1349864002 0.98871668915 
-0.08773877696 0.16018126755 0.98235763882 -0.12586870916 0.17231286575 0.97642092017 -0.15984341985 0.17731904441 0.97071456426 
-0.19054130993 0.17434013579 0.96566214367 -0.21938520939 0.16684334884 0.96097971279 -0.24725569377 0.15409614722 0.9561554138 
-0.27455510796 0.13826870232 0.95124788551 -0.30186332902 0.11878808883 0.94534761023 -0.3291769056 0.097085953881 0.93884363746 
-0.35644164919 0.072797835204 0.93079028404 -0.3836756213 0.046880192532 0.92176060857 -0.40986953674 0.019088996619 0.91118665175 
-0.43538452628 -0.0099252132144 0.89960462238 -0.45810166788 -0.04041969288 0.88722470141 -0.47892730666 -0.071914918348 0.87430536077 
-0.49469810995 -0.1048028731 0.86202684725 -0.50693052839 -0.13866573834 0.85019691272 -0.51168057336 -0.1741572935 0.84064630898 
-0.51100860856 -0.21082905875 0.83274739421 -0.50081162878 -0.24906277094 0.82802719225 -0.48347088775 -0.28846794332 0.82569102488 
-0.45623978234 -0.32788596773 0.82587869234 -0.42133257322 -0.36731396686 0.82802515696 -0.37948488144 -0.4038073301 0.83076456267 
-0.33206377175 -0.43794409179 0.83398011803 -0.28353725298 -0.46637654643 0.83647815541 -0.23409239437 -0.49007003829 0.83838010092 
-0.1887274628 -0.50756194116 0.83979714707 -0.14686871853 -0.5197243535 0.84079748281 -0.11087078306 -0.52727860029 0.84198096567 
-0.080082455418 -0.53073669992 0.84332724596 -0.053995972257 -0.5316664849 0.84501096557 -0.032232152575 -0.53027185158 0.84700491167 
-0.012840060521 -0.52834634356 0.84879538874 0.0042969462487 -0.52591606945 0.85039240347 0.02126472249 -0.52471695552 0.85088516836 
0.038066088711 -0.52472848243 0.85029208757 0.056126552184 -0.52739720089 0.84757417693 0.07546745354 -0.53276814803 0.84269542238 
0.09642814679 -0.54181701723 0.83458568607 0.11909241427 -0.55473404583 0.82307784826 0.142586286 -0.57172945022 0.80728921846 
0.16698253426 -0.59316098266 0.78684428861 0.19046718955 -0.61808648776 0.76160672147 0.21292630274 -0.64694271207 0.7309774374 
0.23236516463 -0.67787274898 0.69596663062 0.24828955228 -0.71121594963 0.6558573247 0.25953669831 -0.7447853558 0.6128454367 
0.26515383129 -0.77862704639 0.56633969991 0.26561564831 -0.81093848503 0.51918985974 0.25965763791 -0.84134432691 0.47123792857 
0.24938556194 -0.86911283561 0.42487852233 0.23355497839 -0.89348324194 0.3805710232 0.21510544639 -0.91489609061 0.3394773242 
0.1931639831 -0.93236552907 0.30266869203 0.17053009102 -0.94716839792 0.26989585203 0.14694064724 -0.95829140072 0.24269240523 
0.12435532874 -0.9673521382 0.2196722969 0.10320447495 -0.97346678236 0.20262838637 0.084301882174 -0.97815978047 0.18947214916 
0.068724842161 -0.98074992713 0.18206642872 0.056189161379 -0.98239994986 0.17802462347 0.048312584099 -0.98260978275 0.17913604999 
0.043883205765 -0.98211574593 0.18297231882 0.044924382282 -0.9805046985 0.1911327939 0.04945573466 -0.9781901408 0.20128257235 
0.059726487343 -0.97471869953 0.21470364967 0.073149182438 -0.97040142015 0.22928187677 0.091944506647 -0.96464237127 0.24583251827 
0.11320230453 -0.95790222698 0.26267155313 0.13881238146 -0.94942805358 0.28002030646 0.16598876026 -0.93997700811 0.29688457419 
0.19603669248 -0.92873503051 0.3128606183 0.22678154394 -0.9166824501 0.32782663525 0.25885224175 -0.90308774724 0.3408711371 
0.29103112168 -0.8888735314 0.35274572375 0.32342366129 -0.87343577746 0.36230972788 0.35569139974 -0.85744218185 0.3708471487 
0.3877031358 -0.84030839819 0.37727875758 0.41962629244 -0.82247608671 0.38300484616 0.45136063503 -0.803154808 0.38722706254 
0.48316009739 -0.78279424727 0.39111961722 0.51510387923 -0.76013041285 0.39428157028 0.5472178698 -0.73597608868 0.39742753835 
0.57972428604 -0.70838535761 0.40053665212 0.61232696322 -0.67886161879 0.40381156229 0.64516066669 -0.64469866136 0.40748438382 
0.67775401694 -0.60833215155 0.41134581772 0.70974648412 -0.56645676084 0.41567878252 0.74087514153 -0.52258042809 0.42005575029 
0.76975265836 -0.47348951911 0.42454739247 0.79706875503 -0.42327447082 0.42887832577 0.82013974061 -0.37000316876 0.4327723318 
0.84124591322 -0.31700560022 0.43641422334 0.85677455223 -0.2647850817 0.43934043502 0.8704354955 -0.2143212321 0.44212005533 
0.87855560804 -0.16906883368 0.44446478792 0.88530287297 -0.12655233225 0.44689999044 0.88778957633 -0.09252654559 0.44961596172 
0.88941786 -0.061575982558 0.45271689421 0.88825627968 -0.040619896313 0.4570689506 0.88657338619 -0.022605912523 0.4619817616 
0.88311416637 -0.014616870433 0.46880529204 0.87924126053 -0.0090549671261 0.47623702787 0.87388863166 -0.012174752543 0.4858442676 
0.86807204953 -0.016988740746 0.49602031155 0.86051100315 -0.028172931422 0.50833505934 0.85243510782 -0.040208176747 0.52109236075 
0.84232126875 -0.055612180056 0.53560143694 0.83173363556 -0.07100373303 0.5504083199 0.81916842697 -0.086343319385 0.56645822245 
0.80626720568 -0.10097585759 0.58268770111 0.79188447384 -0.11249095625 0.59970894715 0.77729975385 -0.1229317738 0.61685015434 
0.76177242244 -0.1283592795 0.63455118025 0.74608470423 -0.13268721892 0.65235247913 0.72960307135 -0.13157230521 0.67065012922 
0.71289415118 -0.12963391373 0.68903271036 0.69498898214 -0.12336142874 0.70786229704 0.67675525201 -0.1166982502 0.72673643408 
0.65667792909 -0.10784284682 0.74586054809 0.63622408099 -0.099008071234 0.76495943297 0.61351108178 -0.090297062462 0.78390694303 
0.59049460863 -0.082007813548 0.80271124158 0.56552452195 -0.076433643717 0.82059361607 0.54048203956 -0.071646671121 0.83817309421 
0.5149376135 -0.072317599359 0.85365249092 0.48965816601 -0.0740704036 0.86866374467 0.46636605773 -0.083937277861 0.8801639262 
0.44368638258 -0.095164976176 0.8910169926 0.42600039297 -0.11748862446 0.89659358188 0.40916499807 -0.14136564529 0.90128101764 
0.39991407271 -0.17909357123 0.89804016779 0.39151823544 -0.21831237521 0.89358373639 0.39151780844 -0.27216889095 0.87719250425 
0.39205685608 -0.32698061666 0.85935933642 0.3984761774 -0.39220413101 0.82580906954 0.4049054188 -0.45742098034 0.79110204984 
0.41145590567 -0.52255636818 0.7422569402 0.41758760888 -0.58686533285 0.69317144906 0.41790868878 -0.63970767594 0.64075066452 
0.4176401982 -0.69154229375 0.58907332221 0.40793858017 -0.72725330718 0.54929105567 0.39761117891 -0.76217990911 0.51076090835 
0.37549819354 -0.78233342767 0.49581233966 0.35267149764 -0.80184045937 0.48220601266 0.31357220196 -0.80660759065 0.49920279613 
0.27361006265 -0.81055194057 0.5173610314 0.20884116902 -0.79084132652 0.56891100581 0.14328475399 -0.76998192119 0.62101076955 
0.047277510826 -0.70470258665 0.6943690539 -0.048919080957 -0.63853111654 0.76741763483 -0.1561925672 -0.52016971547 0.82234856636 
-0.26256459558 -0.40280294802 0.87681789342 -0.26256459558 -0.40280294802 0.87681789342 -0.26256459558 -0.40280294802 0.87681789342 

FrenetNormal 3 240 double
-0.90331523985 0.1580694566 -0.3987927085 -0.90331523985 0.1580694566 -0.3987927085 -0.90331523985 0.1580694566 -0.3987927085 
-0.89632449256 0.18283850073 -0.40308114847 -0.88927450164 0.20781745201 -0.40740593116 -0.87952346364 0.23531886033 -0.41252329406 
-0.8697262539 0.26286338757 -0.41765420534 -0.85623812097 0.29239069815 -0.42455613581 -0.84265453314 0.32196928761 -0.4315038685 
-0.82413008818 0.35216517363 -0.44204442324 -0.80543378732 0.38238253084 -0.4527099457 -0.78017987479 0.4106898916 -0.46998373301 
-0.75463834772 0.43891348058 -0.4875473565 -0.71980720329 0.46103285907 -0.51644836978 -0.68448280484 0.4828281202 -0.54595136835 
-0.63360166214 0.49114828759 -0.59345599037 -0.58174822293 0.49862626163 -0.64208571385 -0.50156677626 0.47976227483 -0.71135135433 
-0.41934367139 0.45899976832 -0.7821042681 -0.29504418814 0.3964080521 -0.85431225171 -0.16730209212 0.33039394599 -0.92663928649 
-0.018195123159 0.23557948333 -0.95459967813 0.13287192589 0.13812278613 -0.97848973554 0.25630629659 0.060701301252 -0.95369009279 
0.37692622784 -0.014679560145 -0.92393131391 0.45919898474 -0.048076753769 -0.88208786394 0.53717112396 -0.07676549867 -0.83888912376 
0.58971755438 -0.071055403076 -0.80209937953 0.6391457375 -0.061126581761 -0.76609564423 0.67152935338 -0.027656607859 -0.73848049373 
0.7016403603 0.0089521863877 -0.71198382122 0.71816743876 0.060299465939 -0.69075222241 0.73273529676 0.11377248856 -0.67028000924 
0.73846400734 0.17208403085 -0.64894733088 0.74281964647 0.23114718784 -0.62748098803 0.74502348254 0.28610926104 -0.59944426791 
0.74686868476 0.34038782027 -0.57031248491 0.75124519906 0.38600689217 -0.53210245498 0.75607283829 0.43008268909 -0.49227451964 
0.76294707174 0.46557266571 -0.44451597981 0.77021015811 0.49943133647 -0.39525062511 0.77723449165 0.52533182139 -0.34106932735 
0.7842105923 0.54962459201 -0.28589490977 0.79220017607 0.56301711273 -0.22776256136 0.80040693479 0.57407386562 -0.16899637062 
0.8163392655 0.56384672913 -0.10471668083 0.83402378779 0.54879231875 -0.039186506723 0.86244284458 0.49329964349 0.038567446589 
0.89343371692 0.42811863393 0.11925001367 0.91341757462 0.30434174153 0.21260357348 0.93062071282 0.16576167872 0.30915822618 
0.89982869169 0.0063555795178 0.39459720479 0.85627200053 -0.15858935915 0.47707988708 0.77908453814 -0.2855936138 0.53713186345 
0.69249492464 -0.4019907955 0.59091288978 0.599836386 -0.47530681343 0.6330958342 0.50539674976 -0.53597944635 0.67187499371 
0.41296905379 -0.56944829636 0.70406295538 0.32116041636 -0.59454675164 0.73422285617 0.23655806426 -0.60258227124 0.75768590905 
0.15427773742 -0.6051197338 0.77899108871 0.085781789954 -0.59584735117 0.79584932437 0.021932262493 -0.58259412186 0.81120859016 
-0.020355848051 -0.55730890612 0.8286936397 -0.055048459454 -0.52778514971 0.84692754487 -0.060906349123 -0.48006647258 0.87307083239 
-0.056158364132 -0.42565541082 0.90212331801 -0.031153804627 -0.35204565678 0.93124270367 0.0016236264945 -0.27106896268 0.96038776027 
0.026963969977 -0.18325330108 0.97850686019 0.049329478404 -0.092702052464 0.99221557743 0.040155615269 -0.0029000397725 0.99526696453 
0.017840347317 0.086589791286 0.99387779741 -0.042200692405 0.18780371588 0.97287377666 -0.11860471747 0.29410278948 0.94336210856 
-0.22582737633 0.4092088392 0.86358330202 -0.3469560041 0.52828876839 0.76112298181 -0.45612245474 0.61429272054 0.61127092088 
-0.5596770198 0.68477954765 0.43918569765 -0.63248915262 0.70478534718 0.28490103675 -0.69031434973 0.70018164576 0.13929414999 
-0.74298277962 0.65964278485 0.034345158863 -0.79304018815 0.60090890649 -0.050017556 -0.85076013321 0.49601995091 -0.10368113244 
-0.91250782184 0.3668699932 -0.14120798228 -0.95028812678 0.1923820505 -0.15632282858 -0.97499531335 -0.0068357022098 -0.15921294569 
-0.95768098402 -0.18332592302 -0.15587745303 -0.91659132333 -0.34695714552 -0.14901957591 -0.87098321761 -0.45894801495 -0.15127734534 
-0.82272429081 -0.54064321058 -0.15888296075 -0.78275667418 -0.5949169676 -0.17519341219 -0.74783107048 -0.63251552546 -0.196797345 
-0.71565355171 -0.66067704815 -0.22238428422 -0.68520770291 -0.68289194593 -0.2504810631 -0.64780665861 -0.70797457175 -0.27656316237 
-0.60586541726 -0.73492918671 -0.30133012356 -0.546367088 -0.77131798701 -0.31723488851 -0.47499917818 -0.81408482811 -0.32714830952 
-0.36755649012 -0.86440957323 -0.31597993752 -0.2348614573 -0.92002485116 -0.29005431041 -0.065186378529 -0.95038053089 -0.23656209537 
0.13128583499 -0.96243215393 -0.16309409197 0.311200883 -0.92954755242 -0.091492720748 0.47869805688 -0.86296078249 -0.021291323667 
0.6073778257 -0.78478846872 0.023902919223 0.70593065326 -0.69762438959 0.049688624532 0.78085229844 -0.61617516561 0.057177099771 
0.83679738805 -0.53931514348 0.049972344803 0.88233489954 -0.46250573934 0.041225307275 0.91922611534 -0.38573838706 0.031196988852 
0.94824076427 -0.30792403361 0.027016746656 0.97048648855 -0.22920991352 0.027862194967 0.98526407281 -0.14321852811 0.040085853691 