# vtk DataFile Version 5.1
vtk output
ASCII
DATASET POLYDATA
POINTS 240 float
0 0 0 -0.0551826 -0.275059 0.161948 -0.110365 -0.550118 0.323895 
-0.193298 -0.817921 0.507269 -0.276466 -1.08566 0.690825 -0.385403 -1.34565 0.893725 
-0.494781 -1.6055 1.09696 -0.627871 -1.85714 1.31731 -0.761574 -2.10856 1.53811 
-0.916674 -2.35138 1.77327 -1.07252 -2.59391 2.00893 -1.24689 -2.82765 2.25502 
-1.42208 -3.061 2.50157 -1.61209 -3.28563 2.75261 -1.80289 -3.50981 3.00389 
-2.00377 -3.7258 3.25103 -2.20527 -3.94127 3.49791 -2.41094 -4.14961 3.72911 
-2.61691 -4.35743 3.95917 -2.82009 -4.5597 4.15981 -3.02304 -4.76151 4.35804 
-3.2154 -4.95986 4.51252 -3.40679 -5.15789 4.66298 -3.57953 -5.35483 4.75717 
-3.75037 -5.55166 4.84562 -3.89507 -5.7498 4.86942 -4.03683 -5.94808 4.88598 
-4.14648 -6.14969 4.83553 -4.25218 -6.35172 4.77686 -4.322 -6.55834 4.65538 
-4.38703 -6.76558 4.52553 -4.41476 -6.97754 4.34267 -4.43711 -7.19018 4.15217 
-4.42259 -7.40633 3.92204 -4.40234 -7.62301 3.68576 -4.34667 -7.84071 3.42423 
-4.28508 -8.05858 3.15851 -4.18973 -8.27409 2.88066 -4.08837 -8.48918 2.60064 
-3.95484 -8.69827 2.31881 -3.81521 -8.90621 2.03663 -3.6453 -9.10495 1.7597 
-3.46928 -9.30183 1.48382 -3.26584 -9.48739 1.21754 -3.05654 -9.67053 0.953301 
-2.82436 -9.84179 0.701519 -2.587 -10.0104 0.452562 -2.33339 -10.1683 0.219026 
-2.07589 -10.3237 -0.0108154 -1.81079 -10.4712 -0.220782 -1.54376 -10.6168 -0.425728 
-1.27922 -10.7584 -0.604123 -1.01534 -10.899 -0.775457 -0.764497 -11.0396 -0.911572 
-0.517296 -11.1802 -1.03784 -0.292952 -11.324 -1.11952 -0.0753149 -11.4688 -1.1881 
0.111376 -11.6182 -1.20413 0.288544 -11.7691 -1.20399 0.428976 -11.9235 -1.14712 
0.557571 -12.079 -1.07197 0.64599 -12.2344 -0.941563 0.720866 -12.3898 -0.792524 
0.754083 -12.5393 -0.595847 0.772624 -12.6867 -0.382387 0.749472 -12.821 -0.134121 
0.710985 -12.9504 0.126948 0.631922 -13.0595 0.406835 0.537289 -13.1608 0.693943 
0.404287 -13.2354 0.983395 0.255936 -13.2994 1.27378 0.0725913 -13.3327 1.55216 
-0.125335 -13.3532 1.82553 -0.353711 -13.3418 2.07661 -0.595293 -13.3164 2.31802 
-0.861773 -13.2609 2.53204 -1.13949 -13.1919 2.73369 -1.43581 -13.0976 2.9082 
-1.74086 -12.9915 3.06997 -2.05782 -12.8677 3.20938 -2.38058 -12.7352 3.3379 
-2.70832 -12.5937 3.45207 -3.03859 -12.4477 3.55898 -3.36682 -12.3014 3.66114 
-3.69397 -12.155 3.7608 -4.01205 -12.016 3.86526 -4.32518 -11.8809 3.97234 
-4.62235 -11.7581 4.09226 -4.91049 -11.6423 4.21945 -5.17626 -11.5411 4.365 
-5.42892 -11.4484 4.52132 -5.6537 -11.3697 4.69847 -5.86153 -11.2996 4.88829 
-6.03738 -11.2413 5.09831 -6.19306 -11.1904 5.32108 -6.31431 -11.1487 5.56074 
-6.4131 -11.113 5.81143 -6.4767 -11.0848 6.07383 -6.51649 -11.0615 6.34414 
-6.5217 -11.0457 6.62007 -6.50268 -11.0352 6.89993 -6.45064 -11.0338 7.17949 
-6.37468 -11.039 7.45885 -6.26805 -11.0561 7.73318 -6.13843 -11.082 8.00373 
-5.98136 -11.1224 8.26642 -5.803 -11.174 8.52302 -5.60158 -11.2417 8.77107 
-5.38166 -11.3222 9.01227 -5.1445 -11.419 9.24611 -4.89303 -11.5293 9.47385 
-4.63163 -11.6548 9.69644 -4.36171 -11.7934 9.91461 -4.09028 -11.9452 10.1297 
-3.8175 -12.1087 10.3419 -3.55202 -12.283 10.5518 -3.29325 -12.4671 10.7595 
-3.05004 -12.6596 10.9632 -2.82163 -12.8601 11.1633 -2.61548 -13.0668 11.3557 
-2.43122 -13.2799 11.5405 -2.27342 -13.4979 11.712 -2.14253 -13.7211 11.87 
-2.03913 -13.9488 12.0087 -1.96466 -14.1812 12.1271 -1.91536 -14.4182 12.221 
-1.89343 -14.6601 12.2882 -1.89131 -14.9074 12.3282 -1.91145 -15.1607 12.3376 
-1.94393 -15.4201 12.3204 -1.99075 -15.6868 12.272 -2.0417 -15.9606 12.2009 
-2.09761 -16.2429 12.1022 -2.15019 -16.5326 11.9874 -2.19862 -16.8315 11.8526 
-2.23818 -17.1376 11.71 -2.26634 -17.4528 11.5575 -2.28268 -17.774 11.4062 
-2.28328 -18.1031 11.2566 -2.27162 -18.4361 11.1168 -2.24304 -18.7743 10.9904 
-2.20363 -19.1136 10.8809 -2.14874 -19.4544 10.7955 -2.0854 -19.793 10.732 
-2.00958 -20.1284 10.7011 -1.92778 -20.4582 10.6949 -1.83683 -20.7794 10.7265 
-1.7418 -21.0921 10.7832 -1.64027 -21.3911 10.8798 -1.53559 -21.6793 10.9997 
-1.42574 -21.9496 11.1579 -1.31272 -22.2078 11.336 -1.19433 -22.4453 11.548 
-1.07208 -22.6705 11.7752 -0.942995 -22.8739 12.0296 -0.809032 -23.0657 12.2943 
-0.666125 -23.2363 12.578 -0.517426 -23.3966 12.8672 -0.357709 -23.5373 13.1669 
-0.191746 -23.6691 13.468 -0.0134429 -23.7833 13.7719 0.17089 -23.8894 14.0741 
0.367591 -23.979 14.373 0.569385 -24.0609 14.6684 0.782037 -24.1261 14.9563 
0.998257 -24.183 15.24 1.22238 -24.2217 15.5144 1.44826 -24.2512 15.7848 
1.67816 -24.2596 16.046 1.90807 -24.2581 16.3039 2.13798 -24.2328 16.554 
2.36661 -24.1973 16.8017 2.59202 -24.1363 17.0436 2.81555 -24.0657 17.284 
3.03418 -23.9704 17.5204 3.25113 -23.8671 17.7557 3.4635 -23.7425 17.9882 
3.6751 -23.6123 18.2195 3.88449 -23.4665 18.4479 4.09447 -23.318 18.6748 
4.30616 -23.1611 18.8974 4.51986 -23.0038 19.1181 4.73983 -22.8454 19.3324 
4.96296 -22.6885 19.5441 5.19639 -22.5363 19.7475 5.43357 -22.3865 19.948 
5.68352 -22.2449 20.1388 5.93711 -22.1059 20.327 6.2037 -21.976 20.5056 
6.4732 -21.8483 20.6822 6.75367 -21.7287 20.8512 7.03598 -21.6106 21.0193 
7.32555 -21.4986 21.1831 7.61584 -21.3876 21.347 7.90907 -21.2813 21.5109 
8.2021 -21.1761 21.6759 8.49424 -21.0757 21.845 8.78565 -20.9769 22.0158 
9.07363 -20.8852 22.1942 9.36073 -20.796 22.3746 9.64347 -20.7188 22.5647 
9.92546 -20.6449 22.7566 10.2035 -20.5888 22.9588 10.481 -20.5369 23.1626 
10.7555 -20.5089 23.3759 11.0296 -20.4858 23.5904 11.3012 -20.4915 23.8124 
11.5722 -20.5023 24.0351 11.8397 -20.5454 24.2625 12.1061 -20.5934 24.4899 
12.3656 -20.6753 24.7186 12.6234 -20.7618 24.947 12.8678 -20.8824 25.1729 
13.1095 -21.0072 25.398 13.3289 -21.1656 25.6167 13.5445 -21.3275 25.8342 
13.7273 -21.5218 26.0418 13.9056 -21.7192 26.2481 14.04 -21.9465 26.4413 
14.1696 -22.1763 26.6331 14.2462 -22.4325 26.8103 14.3179 -22.6905 26.9862 
14.3309 -22.9695 27.1471 14.3396 -23.2494 27.3072 14.2884 -23.543 27.4542 
14.2338 -23.8368 27.6005 14.1236 -24.1349 27.7378 14.011 -24.4326 27.8749 
13.8525 -24.7237 28.0092 13.6925 -25.014 28.1437 13.5009 -25.2856 28.2834 
13.3088 -25.5561 28.4238 13.103 -25.7946 28.5793 12.8973 -26.032 28.7355 
12.6982 -26.2234 28.9181 12.4996 -26.4138 29.1013 12.3292 -26.5438 29.3226 
12.1592 -26.673 29.5443 12.04 -26.727 29.8165 11.9207 -26.7809 30.0887 

LINES 2 240
OFFSETS vtktypeint64
0 240 
CONNECTIVITY vtktypeint64
0 1 2 3 4 5 6 7 8 
9 10 11 12 13 14 15 16 17 
18 19 20 21 22 23 24 25 26 
27 28 29 30 31 32 33 34 35 
36 37 38 39 40 41 42 43 44 
45 46 47 48 49 50 51 52 53 
54 55 56 57 58 59 60 61 62 
63 64 65 66 67 68 69 70 71 
72 73 74 75 76 77 78 79 80 
81 82 83 84 85 86 87 88 89 
90 91 92 93 94 95 96 97 98 
99 100 101 102 103 104 105 106 107 
108 109 110 111 112 113 114 115 116 
117 118 119 120 121 122 123 124 125 
126 127 128 129 130 131 132 133 134 
135 136 137 138 139 140 141 142 143 
144 145 146 147 148 149 150 151 152 
153 154 155 156 157 158 159 160 161 
162 163 164 165 166 167 168 169 170 
171 172 173 174 175 176 177 178 179 
180 181 182 183 184 185 186 187 188 
189 190 191 192 193 194 195 196 197 
198 199 200 201 202 203 204 205 206 
207 208 209 210 211 212 213 214 215 
216 217 218 219 220 221 222 223 224 
225 226 227 228 229 230 231 232 233 
234 235 236 237 238 239 
CELL_DATA 1
FIELD FieldData 3
Length 1 1 double
79.644799497 
Tortuosity 1 1 double
0.89595575418 
ClusterLabel 1 1 int
1 
POINT_DATA 240
FIELD FieldData 6
Curvature 1 240 double
0 0.078612416955 0.15722483391 0.14618695314 0.13438932407 0.12390331766 0.11343973214 0.1040700263 0.094728610445 
0.086054660279 0.077403926311 0.069269212572 0.0611571313 0.054613908947 0.048153988838 0.048767793996 0.049823706983 0.065830478362 
0.082914789084 0.11973523747 0.15817046076 0.22723115853 0.29910153287 0.40971731029 0.52427937877 0.6276028108 0.72966583501 
0.71769831203 0.69174591062 0.58950503596 0.47709236488 0.38481565715 0.29544317492 0.24273298351 0.19571790525 0.17184469618 
0.15182846531 0.14328323785 0.13678234763 0.13442986715 0.13286558453 0.13102557671 0.12912986684 0.12485622066 0.12007301669 
0.11325139187 0.1059674448 0.099836902506 0.093982696778 0.096616847012 0.10139542402 0.12526857137 0.15422006191 0.21486483289 
0.28437009086 0.40360448101 0.53743329037 0.69739231733 0.86539141125 0.92549265456 0.95082681267 0.85637643676 0.72154925164 
0.60019435883 0.48358538717 0.41129853592 0.35531407377 0.32686277758 0.30897653344 0.30382479994 0.30376687069 0.30515608362 
0.30714827245 0.30116515556 0.29172286992 0.27112925449 0.24550394147 0.21336718 0.17817566494 0.14200699079 0.1053619516 
0.069821627072 0.034840651741 0.031140481171 0.043882784899 0.073477880164 0.11226540718 0.15502735522 0.20003798885 0.24728789899 
0.29585151801 0.33986156092 0.38110253726 0.40918414091 0.42897353712 0.43444944051 0.43058181387 0.41936826064 0.40318844716 
0.3863244632 0.36898155989 0.35214898535 0.33568621428 0.31692534949 0.29644091441 0.27171001453 0.24368335093 0.21397441462 
0.18291456235 0.15414490673 0.12727787602 0.10673500265 0.091626952012 0.085095345346 0.086187244437 0.093828095136 0.10748975619 
0.12678915824 0.15144903534 0.18447545514 0.22572897528 0.2789924049 0.34446930177 0.4148087136 0.49026214977 0.54014663978 
0.56221929362 0.54350921884 0.47891857437 0.40363686952 0.31591465806 0.24094049463 0.18131120384 0.13852225839 0.11670430903 
0.10669907938 0.11191408475 0.1216206302 0.13731589574 0.154995747 0.17541432657 0.19731398877 0.22132948332 0.24511864373 
0.26857301822 0.28903369219 0.30490827178 0.3146322614 0.31459553218 0.30826031741 0.29156759305 0.2715120429 0.24572440332 
0.21999939002 0.19438506499 0.17116573711 0.15233723732 0.13645329368 0.12617118859 0.11833132769 0.11531489907 0.11345408245 
0.11396375197 0.11514007647 0.11773742869 0.12119518173 0.12655976902 0.13274107041 0.14080535153 0.14839896989 0.15486299762 
0.15910286362 0.15778232531 0.15339984047 0.14103773739 0.12662462753 0.10663534303 0.086741933441 0.067120684879 0.052065776241 
0.050557676045 0.052769489121 0.066525860626 0.07945978397 0.089720750788 0.097802870303 0.098460769379 0.096978716723 0.087842221336 
0.077615507688 0.063289573375 0.049344758791 0.036908543131 0.027348993686 0.029796398881 0.033832612773 0.044874028653 0.056047830092 
0.067839430808 0.079660668546 0.091628609546 0.10354545111 0.11519334831 0.12638442851 0.1350122578 0.14310117473 0.14795661755 
0.1525160988 0.1551703275 0.15798092865 0.16187571213 0.16642866403 0.17591787913 0.18628886794 0.2038497038 0.22211429306 
0.24665401681 0.27119137105 0.29570546109 0.3189926525 0.328906649 0.33710745867 0.32436931834 0.31053986588 0.28156845779 
0.25249059785 0.22170950839 0.19140531586 0.17008268236 0.14967230987 0.15006148828 0.15157994324 0.18556509867 0.22058639377 
0.2956717558 0.37122849725 0.47436093458 0.57421404871 0.28710702435 0 
Torsion 1 240 double
0 0 0 0.0030464290668 0.006118675329 0.010498782935 0.014901247145 0.027603934432 0.040521282661 
0.073175452445 0.10651612037 0.18890646569 0.27344811265 0.46628980143 0.66488193492 0.79892854012 0.9289410498 0.75483132704 
0.55880288482 0.42677706215 0.29998781744 0.24218586329 0.19071301837 0.16459629358 0.14106213659 0.1314124122 0.12331982043 
0.13065840302 0.13988948812 0.16418072215 0.19047997604 0.22047689947 0.25100714062 0.2629173098 0.27193504061 0.24791839611 
0.21839602239 0.17391087597 0.1267590968 0.091370655616 0.058217248653 0.045151591204 0.03614406497 0.050936845504 0.070829691774 
0.12794748016 0.19350803891 0.3126163946 0.44455390998 0.53535734533 0.61576901309 0.54333375983 0.43024772971 0.31553033013 
0.20035684877 0.1281467626 0.06854549892 0.038781279087 0.018197688128 0.0096215473458 0.0049144738434 0.0056054874025 0.00811608087 
0.016464702208 0.026869901547 0.037016343266 0.047067609769 0.050192894681 0.050660535493 0.046449803434 0.040367722226 0.034514713051 
0.028757150558 0.025319504667 0.022888087665 0.022960445632 0.02416255572 0.028354989206 0.033950290459 0.045322440386 0.059510804041 
0.20529930531 0.41772078766 0.40432763067 0.27223703505 0.19688988205 0.15249369773 0.1396189476 0.14457869312 0.14926702671 
0.15379613197 0.1529465881 0.14882624407 0.13810209573 0.12321664604 0.098302354409 0.066841457624 0.027249425567 -0.017839712027 
-0.06027271268 -0.10084641747 -0.13055242391 -0.1523832866 -0.16488606899 -0.17039279117 -0.17835165965 -0.18821368645 -0.21346898366 
-0.25108554347 -0.31786768768 -0.408879702 -0.51061369377 -0.6215618849 -0.62395121939 -0.52984379243 -0.39312500991 -0.21723127147 
-0.071062730852 0.046842506923 0.13820535129 0.20346817547 0.24873323586 0.2736615873 0.28716269812 0.28864550415 0.29395568701 
0.30342898149 0.33017520232 0.3763534653 0.45150955287 0.56038529086 0.71428009294 0.92236450918 1.077516497 1.1667526306 
1.1161584052 0.88539814054 0.68616604749 0.52897151667 0.40460003539 0.32552436249 0.25756930918 0.20550085531 0.15833079334 
0.11840626938 0.080953820878 0.047288381591 0.01470296456 -0.016168504108 -0.047613416701 -0.080001325972 -0.11466682436 -0.15321457694 
-0.19435644719 -0.24008326959 -0.28299847593 -0.32075905281 -0.34195176446 -0.33162512271 -0.30047868665 -0.22821315681 -0.1481533692 
-0.052105360559 0.040405938314 0.1253784611 0.19687596847 0.23850992816 0.2644742833 0.2543114946 0.23626736303 0.19930800858 
0.16098286265 0.11924323804 0.073837389913 0.018877141111 -0.054623144027 -0.17852915295 -0.37743250056 -0.78923151925 -1.10230738 
-1.1225045391 -1.0394417945 -0.63591728028 -0.30156162711 -0.19200477249 -0.10124474195 -0.074533149047 -0.056745432765 -0.070877736721 
-0.10541755729 -0.21668964031 -0.41312705649 -0.94667724975 -1.3105884024 -0.96644095072 -0.61740773854 -0.24683276408 0.073091453924 
0.15664547514 0.22686363673 0.23106929314 0.23080740964 0.20703215813 0.18245036475 0.15334297528 0.12377425548 0.091437553659 
0.058708697475 0.023455347592 -0.011358390909 -0.043124157158 -0.073641996761 -0.094800386515 -0.11420655291 -0.11932535966 -0.1235526439 
-0.11983051911 -0.11607274131 -0.11196491581 -0.10839808159 -0.1107280523 -0.11391122251 -0.12752238651 -0.1425562844 -0.17733061481 
-0.21457731546 -0.29138193997 -0.37132873541 -0.51045308365 -0.64655571884 -0.71376329692 -0.77427929893 -0.64241248917 -0.51077816301 
-0.38813320277 -0.26531059441 -0.13209557021 0 0 0 
FrenetTangent 3 240 double
-0.21021547336 -0.82475167546 0.52497059783 -0.21021547336 -0.82475167546 0.52497059783 -0.21021547336 -0.82475167546 0.52497059783 
-0.24583110269 -0.79953371421 0.54581546113 -0.28174855938 -0.77410204142 0.56683697581 -0.31236862814 -0.74878979172 0.58300404674 
-0.34289814326 -0.72347958344 0.59908813573 -0.36878902645 -0.69941324238 0.61108280268 -0.39455994503 -0.6753790703 0.62297170872 
-0.4163981849 -0.65365799538 0.63113622047 -0.43809963594 -0.63201737603 0.63917118807 -0.4566679787 -0.61392656776 0.64332498328 
-0.47509890442 -0.59599145296 0.64730855163 -0.4913498998 -0.5831297603 0.64661648554 -0.50748514666 -0.57053745288 0.64567615569 
-0.52249671405 -0.56490142058 0.63841465733 -0.53743805148 -0.55970015547 0.63075808593 -0.55213183403 -0.5637889858 0.61379274386 
-0.56680777479 -0.56854737255 0.5961564994 -0.58109493732 -0.5854621729 0.5638365935 -0.59535029072 -0.6033715889 0.53031529713 
-0.6060628619 -0.63595969409 0.47264612952 -0.61645040718 -0.66989446801 0.41276156087 -0.61289490045 -0.71582552377 0.31540658674 
-0.60791926805 -0.76297842305 0.21423518241 -0.5699575744 -0.80331021975 0.072784854617 -0.5282965094 -0.84287703298 -0.073182735624 
-0.4486068176 -0.84815048416 -0.22311794504 -0.36425323761 -0.84921814565 -0.37353974925 -0.27037441274 -0.8207953468 -0.4822676219 
-0.17522555522 -0.78844048658 -0.58543630367 -0.093713890972 -0.75165465644 -0.64481005946 -0.014169129599 -0.7142297441 -0.69786723937 
0.050737870702 -0.68349929811 -0.72456634972 0.11337104404 -0.65380876922 -0.74717100266 0.16732117384 -0.63062053057 -0.75569923896 
0.21982412972 -0.60851600696 -0.76188140583 0.26845631414 -0.58981080115 -0.75990667505 0.3163986581 -0.57171141436 -0.75647823973 
0.36264877362 -0.5542073722 -0.74757989033 0.40857736573 -0.53681644553 -0.73764225725 0.45261142172 -0.51861675219 -0.72372118465 
0.49626274313 -0.50025367163 -0.7089953768 0.53645872089 -0.48151476128 -0.69149956535 0.57591426786 -0.46269531598 -0.67341018171 
0.61043789329 -0.44561603815 -0.65347756177 0.64384293858 -0.42893143748 -0.63312688825 0.67196594567 -0.41701678113 -0.61094258242 
0.69882346444 -0.40624492393 -0.58831896886 0.72117971956 -0.40344987715 -0.56212376854 0.74239881333 -0.40267002458 -0.53502627263 
0.76007340291 -0.41306535734 -0.49988637104 0.77680530519 -0.42643281387 -0.46260753177 0.78904998753 -0.45400691318 -0.4085284167 
0.80004017828 -0.48555276209 -0.34975245032 0.79880588442 -0.53159043104 -0.25982803771 0.79398397008 -0.58188113412 -0.16076223327 
0.75595175716 -0.63317397729 -0.019868419224 0.70770099082 -0.68477517126 0.13389555162 0.61043430129 -0.70453641254 0.30137409273 
0.49737359207 -0.71403811353 0.47327177314 0.36652186696 -0.68383568602 0.60459590591 0.2296731702 -0.64024984443 0.72224356194 
0.10922515681 -0.58277770765 0.79348837087 -0.005445343117 -0.52041380779 0.8483867223 -0.10258224213 -0.45811499261 0.87635673921 
-0.19327000057 -0.39584011662 0.89442208135 -0.27476118691 -0.33411299677 0.89649065707 -0.35272345605 -0.27259606242 0.89242093869 
-0.4262704671 -0.20939159902 0.87488760275 -0.4980513749 -0.14551212402 0.85196881979 -0.56490122469 -0.079683663726 0.81544928387 
-0.62969646698 -0.013043126232 0.77326276756 -0.68550635583 0.052231250235 0.71967402907 -0.73741898295 0.11691307493 0.66113974843 
-0.77711171378 0.17479970157 0.59827077315 -0.81129058897 0.22962020226 0.53344589907 -0.83435540602 0.27388611052 0.47343197425 
-0.8522062205 0.31320048158 0.41567503798 -0.8630830895 0.34158493759 0.36929988869 -0.87056016009 0.36464106 0.32847336056 
-0.87477635818 0.37841070616 0.30192601044 -0.8773414816 0.38747833902 0.28260862386 -0.8781220211 0.38906901864 0.27840568007 
-0.87796451008 0.38672950487 0.28214750748 -0.87486139413 0.37831872228 0.30115413873 -0.8701515846 0.36659633849 0.32848702662 
-0.85881415577 0.34989525783 0.37049311839 -0.84372688972 0.33037728287 0.42080115446 -0.81651804582 0.3071056652 0.4829588224 
-0.78219787624 0.28163191048 0.55206827437 -0.73095640616 0.25432194745 0.62606258963 -0.66942495605 0.22589537126 0.70302742986 
-0.59119850129 0.19783283997 0.77457784542 -0.50245190661 0.16999970683 0.84271643175 -0.40357660529 0.1438356962 0.8970563813 
-0.29808950936 0.11876125164 0.9423888874 -0.19081853347 0.09456715774 0.97158772568 -0.082341554222 0.070968230487 0.98987929557 
0.022400911534 0.046060164424 0.9940213705 0.12452921785 0.020235701192 0.98825879897 0.2200569283 -0.0086243351187 0.97126585269 
0.31080159826 -0.039684062066 0.9461349537 0.39258364443 -0.073771036089 0.91294014968 0.46764372275 -0.11012844542 0.87369741689 
0.53164692044 -0.14757713093 0.83076648407 0.58706865852 -0.18587277705 0.78497306765 0.63099907042 -0.22306949952 0.7406372634 
0.66570159918 -0.259383753 0.69747196589 0.69041107058 -0.2936029526 0.65968616136 0.7068186174 -0.32608164591 0.62636947406 
0.71540527641 -0.3568002996 0.59989674335 0.71727085995 -0.38600641923 0.57930553783 0.71286455693 -0.41473197522 0.56484774744 
0.70288324364 -0.44303036353 0.5558418816 0.68718830912 -0.47248791069 0.55087579603 0.66624052928 -0.50301113616 0.54962370197 
0.63915630714 -0.53655821923 0.54930518892 0.60623743494 -0.57298044558 0.54987434304 0.56581320731 -0.61428647975 0.54692856816 
0.51800871352 -0.66039492494 0.54052644642 0.46075465254 -0.71181622451 0.52413733702 0.39389086223 -0.76864042684 0.497591969 
0.31747002556 -0.82622128586 0.45341514514 0.23099781254 -0.88459793898 0.3906948936 0.14244418958 -0.93247314143 0.30911518122 
0.051626576863 -0.96892571332 0.20702166934 -0.027132907943 -0.98842643239 0.099787494691 -0.09232699885 -0.98885631702 -0.01322992556 
-0.13901141631 -0.98022320555 -0.11554919043 -0.16415730466 -0.96104406226 -0.20541969268 -0.17482473241 -0.94259747175 -0.28009553446 
-0.16806438353 -0.92503265774 -0.33648150713 -0.15276209963 -0.91190655013 -0.37959168272 -0.12682268911 -0.90430788825 -0.40616973363 
-0.096584320854 -0.90104164729 -0.42179521507 -0.060806910907 -0.90335756406 -0.42330873201 -0.023489301015 -0.90867996999 -0.41513796989 
0.015881908805 -0.91801102814 -0.39405483567 0.054992475251 -0.9285932807 -0.36381335284 0.093743353841 -0.94090218154 -0.32093334893 
0.13101730934 -0.9522338991 -0.26924073356 0.16618137472 -0.96216964052 -0.20495867324 0.19901578122 -0.96832352716 -0.13293670215 
0.22840423394 -0.96888342029 -0.049466113064 0.25494792284 -0.96288597873 0.038912579799 0.2771336757 -0.94684325852 0.13481006994 
0.29655631927 -0.92304720777 0.23082130617 0.31159402854 -0.88694695855 0.3270130525 0.3247933014 -0.84473698337 0.41824303504 
0.33496936773 -0.79247990326 0.50131367268 0.34477289702 -0.73771625535 0.57656005913 0.35394141999 -0.6786800487 0.63846965376 
0.36403977531 -0.62048929274 0.69247325932 0.37578155527 -0.56379282173 0.73250348885 0.3891365123 -0.50970813588 0.76610505859 
0.40544896066 -0.46041172283 0.78792075204 0.42340638576 -0.41397079318 0.80504515858 0.44449327883 -0.37296224659 0.81324467783 
0.46673741692 -0.33405829364 0.8182563243 0.49126711396 -0.29931091311 0.81697192203 0.51615330068 -0.26544176256 0.81373812911 
0.54177074831 -0.23337410942 0.80650558616 0.5668077439 -0.20085822479 0.79838658706 0.59060746017 -0.16738689936 0.7883780367 
0.61291811471 -0.1323382897 0.77832428412 0.6319286865 -0.093794077189 0.76817035366 0.64870345833 -0.053132994843 0.75840630791 
0.66032346913 -0.0075913514938 0.74954116302 0.66927691415 0.03966642898 0.74103396855 0.6718306013 0.091042938554 0.73338585507 
0.67194432153 0.14271247068 0.72575929505 0.66595812448 0.1951145592 0.71818661867 0.65860310669 0.24590622143 0.71037916332 
0.64768085905 0.29250101515 0.70195985973 0.63700897691 0.33603543822 0.69327603108 0.62701777596 0.37124947857 0.68387302495 
0.61873115398 0.40287972627 0.67423762604 0.61528333679 0.42433662712 0.6639425315 0.6142728098 0.4424271297 0.65331558091 
0.62049291039 0.45053065076 0.64170412404 0.62903415228 0.45584862685 0.62954267755 0.6447789361 0.45252180817 0.61567436676 
0.66200884709 0.44718342833 0.60116083619 0.6840654214 0.4353074747 0.58455034135 0.70640704105 0.42238443241 0.56755194659 
0.72971992629 0.40589353246 0.54923181879 0.75225877551 0.38932801578 0.53118033136 0.7720289574 0.37249560082 0.51408974986 
0.79048615818 0.35626438929 0.49800327132 0.80400654994 0.34229370262 0.4856922199 0.81618057203 0.32905614013 0.47487532767 
0.82302521412 0.3187205275 0.46997281562 0.82877085996 0.30874890923 0.4666727023 0.829929391 0.30029657182 0.4700608619 
0.8303500506 0.29154190728 0.47481162333 0.82751736792 0.28145425492 0.48557022013 0.82431643217 0.27034460628 0.49723743947 
0.81939698213 0.25446564163 0.51314489733 0.81438652202 0.23707586495 0.52940428106 0.80892556206 0.21220756872 0.54740569785 
0.80346984802 0.18569965808 0.56523798464 0.79804174414 0.15056219792 0.58218011352 0.79254151935 0.11404065636 0.59855091944 
0.78663661614 0.069752880277 0.61171596875 0.7804887106 0.024592610746 0.62411856804 0.77288279109 -0.025802619507 0.63194646719 
0.76482726609 -0.07659325846 0.63908056133 0.75387740568 -0.12992934092 0.64174828563 0.74224814935 -0.18341319313 0.64393996066 
0.72590841458 -0.23792158233 0.64283102735 0.70860281989 -0.2925969878 0.64143306036 0.68405327574 -0.34852501539 0.63786734072 
0.65814881026 -0.40472322279 0.63406748544 0.62119652465 -0.46312443483 0.62835852409 0.5824854925 -0.52169739463 0.6223041103 
0.52809230366 -0.58180177198 0.61316941221 0.47175968914 -0.64158967279 0.60348141529 0.39638544079 -0.69827034925 0.58836102979 
0.31950810944 -0.75382451178 0.57259944488 0.22624717342 -0.79709967232 0.5498487865 0.13255861683 -0.8386859139 0.52671290823 
0.033643586491 -0.85962981262 0.49886878698 -0.064648553329 -0.8790370827 0.47114365654 -0.15429808726 -0.87712363013 0.44506952348 
-0.24289240914 -0.87426090362 0.41953715413 -0.31460333823 -0.85620979415 0.4026730043 -0.38534887194 -0.83770145372 0.38654448501 
-0.43791279253 -0.81058193023 0.38427034076 -0.48974863825 -0.78319985064 0.38278842348 -0.52498437708 -0.74983149158 0.39936928101 
-0.55963734318 -0.71614946611 0.41675494671 -0.57753559317 -0.67344953101 0.45727884708 -0.5948209454 -0.63025000055 0.49853216305 
-0.5884075841 -0.56773278322 0.56798954858 -0.5812639486 -0.50458934825 0.63782597788 -0.53139927221 -0.40481218149 0.7298364669 
-0.48195362672 -0.30587347832 0.82107375854 -0.48195362672 -0.30587347832 0.82107375854 -0.48195362672 -0.30587347832 0.82107375854 

FrenetNormal 3 240 double
-0.74671676069 0.48204681012 0.4583066137 -0.74671676069 0.48204681012 0.4583066137 -0.74671676069 0.48204681012 0.4583066137 
-0.73572992684 0.52030360323 0.43079574518 -0.72464998423 0.55888460645 0.40305173371 -0.71307084996 0.59019183326 0.3759642419 
-0.7014831825 0.62137472202 0.34888797265 -0.69298273019 0.64493587671 0.31994423924 -0.68456211966 0.66829991759 0.29095220934 
-0.68540204288 0.68142668862 0.25354460467 -0.68656407162 0.69419738069 0.21584428435 -0.70887701718 0.68533963436 0.15083838885 
-0.73211763454 0.6755332723 0.084634880402 -0.78047988096 0.59943806707 -0.052380139528 -0.83017601918 0.51982310025 -0.19315506272 
-0.80813787792 0.29593938914 -0.39954727189 -0.78161634418 0.063038881503 -0.61004056142 -0.64351284439 -0.13769429141 -0.70590588504 
-0.49736740111 -0.33610909786 -0.79350973363 -0.37910605072 -0.4112166749 -0.81797984401 -0.2631261261 -0.47623547863 -0.83728446672 
-0.16707714407 -0.47767575396 -0.8570962918 -0.072856688872 -0.47328313677 -0.87695464922 0.029200651287 -0.42093699916 -0.8986864605 
0.13205619269 -0.36370670669 -0.92060908653 0.24767955253 -0.25904137401 -0.91967873372 0.36473481724 -0.14905622374 -0.91618543002 
0.47008511079 -0.021173192737 -0.86469594715 0.57399988902 0.10890486137 -0.80732014043 0.64755242144 0.20819412824 -0.71743188574 
0.71705665443 0.30337822348 -0.623208638 0.76758572329 0.35205261086 -0.5220216085 0.81537798964 0.39401886729 -0.41983018741 
0.85310229606 0.39973798978 -0.3174092313 0.88926264754 0.39982648952 -0.21495261927 0.91049372345 0.3837592814 -0.11867263761 
0.92923658676 0.36499945531 -0.023422094342 0.93100396224 0.3527971175 0.055071524387 0.92974600324 0.34176344097 0.13057876052 
0.91743699658 0.34558219375 0.18885405715 0.90302829085 0.35222290808 0.24385528528 0.88273916868 0.36691783715 0.28912798736 
0.86126208359 0.38323988031 0.33243533065 0.83741083733 0.39492617553 0.37465412377 0.81305084225 0.4056190962 0.41663965614 
0.78870600686 0.39238479235 0.4691770162 0.76436460976 0.37372369531 0.52410757428 0.73162420667 0.29985997466 0.59995667145 
0.69687154173 0.21277062543 0.68081750193 0.62098846464 0.057966971239 0.75510164963 0.53471454659 -0.11394345474 0.82772431957 
0.42113163564 -0.25569704584 0.85198130418 0.30028569467 -0.38943020212 0.8633750746 0.19364714091 -0.44448691073 0.86819876223 
0.090980544872 -0.47754805332 0.87118565253 -0.015263666687 -0.45467809109 0.88337703714 -0.12255783063 -0.4153935655 0.89826974075 
-0.24886281331 -0.3252715115 0.89720846853 -0.38101727868 -0.21950714107 0.89123828068 -0.50648127572 -0.081808474842 0.834632094 
-0.62978945519 0.066180131139 0.76170986326 -0.70804664591 0.19816980326 0.6533788341 -0.7711181101 0.32476657633 0.53311225491 
-0.79801488005 0.41512353908 0.41473612042 -0.81216829181 0.49271420502 0.29702593804 -0.81056981958 0.54352511074 0.18924659405 
-0.80317755095 0.58448598971 0.085119972211 -0.78614338388 0.61022147291 -0.013518168648 -0.76540941857 0.63011465307 -0.11005026448 
-0.7333552219 0.64142916947 -0.20379576328 -0.69677293269 0.64931222036 -0.29642662327 -0.64754639753 0.65017751812 -0.38505332932 
-0.59305142656 0.64811875207 -0.4720116379 -0.52947290103 0.63794642249 -0.55063497356 -0.4619545205 0.62425495692 -0.62564314024 
-0.39373801511 0.60354044625 -0.68777676975 -0.32520650216 0.5796570006 -0.74410115686 -0.26558277283 0.55198661076 -0.78737972304 
-0.21013800372 0.52253962981 -0.82453802753 -0.17032567582 0.49151121596 -0.85267833071 -0.13813416302 0.45971185356 -0.87642235825 
-0.13291918307 0.41091910175 -0.89998986242 -0.14136320711 0.35352210215 -0.92346798766 -0.065993317434 0.081601479445 -0.33594444978 
0.053432603815 -0.30308156052 0.57274662897 0.12829786317 -0.4179070074 0.89759828583 0.17885730694 -0.38553740351 0.90399207621 
0.24013793557 -0.36184560039 0.89832553777 0.30748449772 -0.34306360559 0.88583539224 0.3862777456 -0.32405939897 0.8590899423 
0.47178638242 -0.30492482808 0.82398138043 0.56046112619 -0.28543593577 0.7702964174 0.65106120526 -0.26573157773 0.7053149942 
0.73349327787 -0.24713542597 0.62295763539 0.81077838751 -0.22923759597 0.52965105686 0.87129162625 -0.21570939173 0.42657361642 
0.92085656038 -0.20503358207 0.31711797446 0.95102696201 -0.20526130517 0.20675905247 0.96808556703 -0.21286043068 0.095789462292 
0.96753971881 -0.23225782659 -0.011040980569 0.95467075335 -0.25991401177 -0.11497402031 0.92635456314 -0.29484644673 -0.21249752734 
0.88684473182 -0.33505152646 -0.30537644546 0.83537386133 -0.37558357481 -0.38957281761 0.77493221145 -0.41636084964 -0.46725728029 
0.70760886238 -0.4544947631 -0.53355503917 0.63494449303 -0.49057711251 -0.59101535629 0.55546158537 -0.53135321245 -0.6332314111 
0.47050318483 -0.57589853628 -0.66320586131 0.37045454171 -0.63308976164 -0.66934903459 0.25786938939 -0.70078681287 -0.65569391626 
0.11368800765 -0.77280981233 -0.5949704808 -0.057646383726 -0.84855042354 -0.49379771031 -0.22708854493 -0.88088427764 -0.36023018465 
-0.39484872376 -0.87463434763 -0.19786732105 -0.5167589066 -0.84567602263 -0.080787266266 -0.59651667379 -0.79584062482 -0.0053381808736 
-0.65268560824 -0.75608884729 0.020903074182 -0.68642581647 -0.72592477428 0.00035655613098 -0.70981382244 -0.69865997223 -0.050411103948 