# vtk DataFile Version 5.1
vtk output
ASCII
DATASET POLYDATA
POINTS 240 float
0 0 0 -0.00890922 -0.0517853 0.290275 -0.0178184 -0.103571 0.58055 
-0.0820874 -0.210414 0.77793 -0.146825 -0.317723 0.974523 -0.247658 -0.467455 1.08554 
-0.349108 -0.617911 1.19509 -0.468282 -0.798311 1.22644 -0.587914 -0.979485 1.25577 
-0.708813 -1.17835 1.21458 -0.829756 -1.37782 1.17093 -0.938815 -1.58326 1.06495 
-1.04735 -1.78896 0.956237 -1.1355 -1.99014 0.794059 -1.22256 -2.19107 0.629042 
-1.28609 -2.37904 0.419995 -1.34815 -2.56619 0.208196 -1.38865 -2.73458 -0.0378992 
-1.4276 -2.90162 -0.286466 -1.45079 -3.04699 -0.559771 -1.47268 -3.19059 -0.835099 
-1.48619 -3.31218 -1.12631 -1.49893 -3.43174 -1.41897 -1.50965 -3.53086 -1.71979 
-1.52016 -3.62789 -2.02145 -1.53182 -3.7071 -2.32497 -1.54361 -3.7843 -2.6287 
-1.55533 -3.84658 -2.92958 -1.56705 -3.90702 -3.2301 -1.57348 -3.95517 -3.5246 
-1.5792 -4.00168 -3.8183 -1.57208 -4.03826 -4.1042 -1.56311 -4.07342 -4.38897 
-1.53392 -4.10115 -4.66534 -1.50159 -4.12773 -4.94039 -1.44411 -4.1501 -5.20733 
-1.38244 -4.17177 -5.47292 -1.29454 -4.19369 -5.73135 -1.20197 -4.21565 -5.98851 
-1.08611 -4.24365 -6.23993 -0.965827 -4.27281 -6.49026 -0.82832 -4.31473 -6.7365 
-0.687333 -4.35922 -6.98192 -0.536723 -4.42321 -7.22489 -0.384051 -4.49136 -7.46733 
-0.229319 -4.58438 -7.70857 -0.0741193 -4.68304 -7.94955 0.0767679 -4.80952 -8.18983 
0.226622 -4.94267 -8.42994 0.367482 -5.10347 -8.66862 0.50607 -5.27126 -8.90694 
0.632672 -5.46334 -9.14136 0.756086 -5.66188 -9.37474 0.865825 -5.87876 -9.59971 
0.971742 -6.10076 -9.82233 1.06321 -6.33347 -10.03 1.15044 -6.56931 -10.2332 
1.22302 -6.80757 -10.4134 1.29109 -7.04657 -10.5864 1.34463 -7.27998 -10.7276 
1.39349 -7.51161 -10.8585 1.42798 -7.73071 -10.9495 1.45762 -7.9456 -11.0271 
1.47275 -8.14264 -11.0593 1.48276 -8.33339 -11.0756 1.47753 -8.50277 -11.0443 
1.46668 -8.66428 -10.9956 1.43932 -8.80257 -10.9016 1.40562 -8.93195 -10.7902 
1.35407 -9.03753 -10.6393 1.29538 -9.1336 -10.4727 1.2182 -9.20621 -10.2753 
1.13332 -9.26905 -10.0649 1.03066 -9.30954 -9.83321 0.92029 -9.34033 -9.59221 
0.794547 -9.35089 -9.33868 0.661869 -9.35232 -9.07949 0.517929 -9.33678 -8.81483 
0.368707 -9.31328 -8.5476 0.213692 -9.27719 -8.27948 0.055852 -9.23498 -8.01092 
-0.101569 -9.18523 -7.74352 -0.258777 -9.13166 -7.47669 -0.409405 -9.07563 -7.211 
-0.556575 -9.0183 -6.9459 -0.691908 -8.96305 -6.6807 -0.820784 -8.90892 -6.41545 
-0.934191 -8.86073 -6.14861 -1.03884 -8.8159 -5.88086 -1.12645 -8.7804 -5.61061 
-1.20405 -8.75037 -5.33889 -1.26507 -8.733 -5.06491 -1.316 -8.72333 -4.78954 
-1.3524 -8.72984 -4.51341 -1.37964 -8.74654 -4.23679 -1.39534 -8.78293 -3.9619 
-1.40352 -8.83218 -3.68815 -1.40339 -8.90403 -3.41912 -1.39765 -8.99114 -3.15328 
-1.38656 -9.10242 -2.89496 -1.37174 -9.2306 -2.64191 -1.35381 -9.38258 -2.3984 
-1.33363 -9.55182 -2.16181 -1.31163 -9.74249 -1.93562 -1.28826 -9.94924 -1.71723 
-1.26333 -10.1734 -1.50883 -1.23718 -10.4111 -1.30818 -1.20886 -10.6611 -1.11606 
-1.17881 -10.9212 -0.930774 -1.14555 -11.1885 -0.751906 -1.10962 -11.462 -0.578368 
-1.06957 -11.7383 -0.408974 -1.02598 -12.017 -0.24314 -0.977973 -12.2953 -0.0794752 
-0.926055 -12.5732 0.0822608 -0.87044 -12.849 0.243176 -0.811427 -13.1229 0.403337 
-0.750397 -13.3944 0.563236 -0.68745 -13.6636 0.722884 -0.624766 -13.9312 0.88204 
-0.562339 -14.1973 1.04071 -0.502439 -14.4635 1.19802 -0.445109 -14.7297 1.35394 
-0.391914 -14.9977 1.50723 -0.343069 -15.2675 1.65777 -0.298845 -15.5407 1.80434 
-0.259646 -15.8173 1.94658 -0.224259 -16.0981 2.0837 -0.193159 -16.3836 2.21507 
-0.1639 -16.6732 2.34062 -0.136782 -16.9676 2.45939 -0.108716 -17.2656 2.57221 
-0.0795101 -17.5677 2.67787 -0.0461847 -17.8716 2.77795 -0.00773013 -18.178 2.87111 
0.0379705 -18.4843 2.95946 0.0930073 -18.7905 3.0416 0.158003 -19.0943 3.11978 
0.236276 -19.395 3.19269 0.326517 -19.6912 3.26235 0.433274 -19.9812 3.32755 
0.553114 -20.2649 3.38994 0.691643 -20.5394 3.44833 0.843407 -20.8063 3.50406 
1.01475 -21.062 3.55587 1.19857 -21.3095 3.60505 1.40152 -21.5443 3.6502 
1.61545 -21.771 3.69284 1.8468 -21.9847 3.7315 2.08709 -22.1907 3.76816 
2.34206 -22.3843 3.80152 2.60359 -22.5713 3.83391 2.87629 -22.7468 3.86466 
3.15307 -22.9168 3.89608 3.43709 -23.0768 3.92868 3.72289 -23.232 3.96399 
4.01195 -23.3785 4.00427 4.30086 -23.5207 4.04938 4.5895 -23.6548 4.10369 
4.87663 -23.7844 4.16459 5.16078 -23.9054 4.23853 5.4427 -24.0213 4.32005 
5.72007 -24.127 4.41713 5.99515 -24.2267 4.52171 6.26536 -24.3135 4.64229 
6.53375 -24.393 4.76918 6.79812 -24.4567 4.91008 7.06149 -24.512 5.05524 
7.32253 -24.5482 5.21023 7.58344 -24.5754 5.36704 7.84401 -24.581 5.52825 
8.10511 -24.5774 5.68908 8.36752 -24.551 5.84896 8.63069 -24.516 6.00699 
8.89586 -24.4587 6.16023 9.16152 -24.3941 6.31122 9.42849 -24.3099 6.45613 
9.6952 -24.2204 6.5995 9.96113 -24.1158 6.73849 10.2257 -24.0083 6.87748 
10.4862 -23.8917 7.01649 10.7443 -23.7745 7.15743 10.9945 -23.6551 7.3044 
11.2413 -23.5372 7.4551 11.4769 -23.4235 7.61795 11.7087 -23.3128 7.78574 
11.9273 -23.2121 7.97037 12.1422 -23.1152 8.16028 12.3439 -23.0324 8.36907 
12.5426 -22.9539 8.58256 12.7303 -22.892 8.81374 12.9163 -22.8346 9.0483 
13.0955 -22.7951 9.29627 13.2742 -22.76 9.54589 13.4512 -22.7434 9.80245 
13.6289 -22.7312 10.0589 13.8094 -22.7381 10.3151 13.9912 -22.7494 10.5698 
14.1786 -22.7807 10.8176 14.3671 -22.8165 11.0631 14.561 -22.874 11.2972 
14.7553 -22.936 11.5286 14.9516 -23.0217 11.7464 15.1471 -23.112 11.9619 
15.3385 -23.228 12.164 15.528 -23.3484 12.3642 15.706 -23.4961 12.5531 
15.881 -23.648 12.7407 16.0372 -23.8274 12.9198 16.1897 -24.0106 13.098 
16.3174 -24.2202 13.2703 16.4412 -24.4329 13.442 16.5362 -24.6697 13.6094 
16.6275 -24.9088 13.7763 16.6883 -25.1683 13.9396 16.7458 -25.4295 14.1024 
16.7735 -25.7068 14.2611 16.7985 -25.9852 14.4193 16.7964 -26.2751 14.5723 
16.7923 -26.5657 14.7248 16.766 -26.8632 14.871 16.7385 -27.161 15.0166 
16.6959 -27.4615 15.1553 16.6529 -27.7619 15.2935 16.6041 -28.061 15.4247 
16.5557 -28.3598 15.5555 16.5129 -28.6531 15.6803 16.4712 -28.946 15.8048 
16.4487 -29.2296 15.925 16.4277 -29.5125 16.0451 16.4406 -29.7822 16.1632 
16.4553 -30.0513 16.2814 16.5195 -30.303 16.4004 16.5854 -30.5541 16.5195 
16.7168 -30.7839 16.6425 16.8496 -31.0132 16.7655 17.0642 -31.2172 16.8956 
17.2796 -31.421 17.0257 17.5932 -31.5953 17.1661 17.9068 -31.7696 17.3065 

LINES 2 240
OFFSETS vtktypeint64
0 240 
CONNECTIVITY vtktypeint64
0 1 2 3 4 5 6 7 8 
9 10 11 12 13 14 15 16 17 
18 19 20 21 22 23 24 25 26 
27 28 29 30 31 32 33 34 35 
36 37 38 39 40 41 42 43 44 
45 46 47 48 49 50 51 52 53 
54 55 56 57 58 59 60 61 62 
63 64 65 66 67 68 69 70 71 
72 73 74 75 76 77 78 79 80 
81 82 83 84 85 86 87 88 89 
90 91 92 93 94 95 96 97 98 
99 100 101 102 103 104 105 106 107 
108 109 110 111 112 113 114 115 116 
117 118 119 120 121 122 123 124 125 
126 127 128 129 130 131 132 133 134 
135 136 137 138 139 140 141 142 143 
144 145 146 147 148 149 150 151 152 
153 154 155 156 157 158 159 160 161 
162 163 164 165 166 167 168 169 170 
171 172 173 174 175 176 177 178 179 
180 181 182 183 184 185 186 187 188 
189 190 191 192 193 194 195 196 197 
198 199 200 201 202 203 204 205 206 
207 208 209 210 211 212 213 214 215 
216 217 218 219 220 221 222 223 224 
225 226 227 228 229 230 231 232 233 
234 235 236 237 238 239 
CELL_DATA 1
FIELD FieldData 3
Length 1 1 double
71.582818039 
Tortuosity 1 1 double
0.77331063397 
ClusterLabel 1 1 int
2 
POINT_DATA 240
FIELD FieldData 6
Curvature 1 240 double
0 0.39364980509 0.78729961018 0.93322924442 1.0770595552 1.0300668363 0.97981218525 0.85155591287 0.72128235717 
0.62617942345 0.5322998157 0.47382154938 0.41689597346 0.37583464018 0.33561565607 0.30106100527 0.26686037531 0.23636021408 
0.2061267533 0.18136976761 0.15706085715 0.13953042962 0.12262188126 0.11092029706 0.099749051804 0.090715468712 0.081921623432 
0.078364098725 0.075448764276 0.087796149661 0.10217856436 0.1272405934 0.15384295145 0.17687711438 0.19935699458 0.20716726091 
0.21253259159 0.20307070884 0.1909663524 0.17571490957 0.15986552033 0.15409354023 0.15035740036 0.15571139193 0.16301326881 
0.1693562315 0.1754817085 0.17542985675 0.17389801997 0.16750518838 0.159884316 0.1518271593 0.14365396954 0.13924818189 
0.13589564644 0.14094714041 0.14846503433 0.17184084755 0.20009602057 0.25999567207 0.33009187775 0.46062944104 0.61154049566 
0.82616039402 1.0632231805 1.1939501171 1.2855650168 1.1738394187 0.98408781554 0.78920902637 0.59227936279 0.45936919031 
0.35313380579 0.28349766947 0.22973590587 0.19094952322 0.15892032467 0.13204928024 0.1075981106 0.085653819759 0.064931632338 
0.054482506482 0.049234930785 0.060731751093 0.081030112892 0.10491973285 0.13076822091 0.15381126264 0.17526701238 0.19172256508 
0.20524466886 0.21550564794 0.22378351065 0.23224655056 0.24082627745 0.25021808404 0.2601399982 0.26759267985 0.27337602121 
0.27274651474 0.26762801479 0.25548686446 0.23825683704 0.21676005703 0.19206321258 0.1668220879 0.14115853678 0.11767589934 
0.095944601679 0.077917564522 0.062967913011 0.052538700183 0.045994239349 0.04128016989 0.038193114987 0.03356336562 0.027515332632 
0.019203286901 0.0087385733152 0.0093686222666 0.020908521047 0.033471999862 0.047076407527 0.058696279497 0.068228967374 0.074936664033 
0.078571563228 0.079890149991 0.078602885267 0.07685851559 0.074582241968 0.074234931827 0.076209522175 0.08135083995 0.090435629615 
0.10166452268 0.11565601052 0.13025395276 0.14566050088 0.16016404306 0.17342143705 0.18435462067 0.19196750377 0.19641226047 
0.1961708302 0.19285329022 0.18482341198 0.17452682859 0.1606330827 0.14588494777 0.12973181753 0.11405273918 0.099181703801 
0.087228900876 0.080433904147 0.07793629863 0.083317243667 0.091500252766 0.10501401789 0.11852857965 0.13204471477 0.14409601828 
0.15314253897 0.1602710602 0.16331121414 0.1653874982 0.16532763822 0.16549274119 0.16617650875 0.16699365607 0.16813091483 
0.16824677563 0.16580914155 0.16102705461 0.15013518145 0.13714108368 0.11843156278 0.099470325948 0.079794540658 0.064930548563 
0.064341542946 0.06966461081 0.093335492922 0.11720272992 0.14170812028 0.16377631515 0.17753999205 0.18767951081 0.18485569465 
0.17961808983 0.16530463963 0.15108720266 0.13724981802 0.12560086872 0.12308625821 0.1224078508 0.12982542978 0.13766483946 
0.1474727924 0.15691821597 0.16456911913 0.17215932877 0.17943009877 0.18698324472 0.19612083352 0.20534835967 0.21511550998 
0.22437059097 0.23032922572 0.23530729341 0.2334867628 0.23076856192 0.22131783396 0.21135239038 0.19719003479 0.18283208501 
0.16673008693 0.15056086635 0.13373164305 0.11678048027 0.098500177178 0.080093173874 0.060137612347 0.041094389147 0.034709860233 
0.030649077022 0.063768225044 0.097705361261 0.14704794182 0.19694092323 0.25938304411 0.32152950514 0.37517574497 0.4275881488 
0.43229222665 0.43607960548 0.38624009115 0.3354101101 0.16770505505 0 
Torsion 1 240 double
0 0 0 0.071256580008 0.14311702934 0.16781542669 0.19170763511 0.20499790048 0.21801397767 
0.19358282736 0.16784916478 0.12008444628 0.071353453399 0.021504035282 -0.028404768246 -0.07701059591 -0.12553498758 -0.17754003522 
-0.22979594095 -0.27767289577 -0.32519157278 -0.32975115071 -0.33036952689 -0.23672631771 -0.13348239151 0.09881276066 0.34558094752 
0.63741144211 0.93476844614 0.84895059488 0.71204276292 0.55029639178 0.38496753901 0.32466647535 0.28068040804 0.29802999503 
0.32560219106 0.41080914717 0.50628764469 0.63643962902 0.77317957585 0.78678370915 0.77551192052 0.6516772465 0.50372195418 
0.38829067083 0.28023596682 0.21016238912 0.14918845627 0.10207980848 0.058473969549 0.012234463507 -0.034705485916 -0.090054120684 
-0.14775357071 -0.19640612161 -0.24240360429 -0.25097933807 -0.24804068758 -0.21031817679 -0.16138753324 -0.1047653 -0.04555039607 
0.00095600362993 0.042985543886 0.075459563963 0.10441890995 0.14283809181 0.18488721069 0.2240638148 0.262091413 0.26594986794 
0.25557117986 0.21900101249 0.17107068541 0.10913620138 0.040882768496 -0.062520038294 -0.18241267481 -0.48409262871 -0.87439389982 
-1.2476993328 -1.6123992782 -1.3489564289 -0.75533595681 -0.45593625698 -0.31702061478 -0.25941968586 -0.24782576579 -0.26139100529 
-0.28971628507 -0.31940860349 -0.34993222919 -0.36001725679 -0.35722316779 -0.33349378154 -0.29609829847 -0.25367700926 -0.20785799194 
-0.16543673218 -0.12539390269 -0.087620770305 -0.051492345965 -0.011977816099 0.030076292914 0.084416838189 0.14829312504 0.23933708331 
0.35219750499 0.49507662508 0.66289435614 0.75364170166 0.7781566846 0.72261218382 0.59590369749 0.51291255974 0.47011317793 
2.7509248617 7.2410716571 7.1873663975 2.6655399507 0.35311358671 0.28753476449 0.25913011488 0.26982243992 0.29538213586 
0.33711335804 0.39583060083 0.47365711681 0.55980905439 0.6556487553 0.71168308759 0.71980355024 0.6759536342 0.56738588808 
0.46029311638 0.35510079248 0.26587150067 0.19792625165 0.14133170789 0.10040113738 0.066563233236 0.042857709601 0.024588731688 
0.01436131099 0.009727612241 0.013663019457 0.025908860789 0.051342999741 0.09208715513 0.15800778199 0.25088098315 0.38969607228 
0.52356459901 0.64869036428 0.68589086181 0.56189503516 0.42311068205 0.25619205906 0.11153302504 0.010836679201 -0.080732893184 
-0.153580879 -0.2240569796 -0.28947721961 -0.34935346016 -0.39694299922 -0.4291747298 -0.42599817974 -0.40837698124 -0.35608862646 
-0.29845543993 -0.22746017407 -0.15387494129 -0.073540097763 0.024529923759 0.17081746047 0.3942270828 0.83656391589 1.1913125192 
1.286216041 1.2480795172 0.79706009323 0.42549021412 0.31213135582 0.22049522291 0.20287726541 0.19642743364 0.22992512849 
0.27399236397 0.35780107223 0.44598017852 0.55145877697 0.6300644728 0.59650500987 0.53957672005 0.37961314803 0.22336651881 
0.084465622587 -0.047972244856 -0.14841811984 -0.24221094858 -0.30098774441 -0.35205810487 -0.35988680017 -0.36206236286 -0.33031912994 
-0.29715569412 -0.25484970224 -0.21350265953 -0.17880433113 -0.14466341249 -0.11470306707 -0.085204855757 -0.059474814785 -0.034067352011 
-0.011536211507 0.011598353969 0.040657455521 0.072591077508 0.13585697223 0.22183056835 0.58534273714 0.97892669998 1.7897568053 
2.4878811446 1.3827132296 0.32780930724 0.21954391265 0.11461290217 0.085705849444 0.057363945949 0.045270082676 0.033350586775 
0.028173295883 0.02288985495 0.011396636642 0 0 0 
FrenetTangent 3 240 double
-0.14232180915 -0.30744744476 0.94086161116 -0.14232180915 -0.30744744476 0.94086161116 -0.14232180915 -0.30744744476 0.94086161116 
-0.26139810547 -0.4493358058 0.82513758991 -0.38148352294 -0.59242661058 0.70843285661 -0.45218457718 -0.68827962709 0.52170795208 
-0.52204145426 -0.78332516005 0.33378612154 -0.52874391287 -0.81444270562 0.15391695597 -0.53381306757 -0.84390694118 -0.025743951029 
-0.50241778773 -0.83628059301 -0.16612335432 -0.46975417973 -0.82736413759 -0.30513644444 -0.42174747005 -0.8000365629 -0.41003642117 
-0.37306781732 -0.77190148298 -0.51344020873 -0.321040514 -0.73320908822 -0.59094859981 -0.26883545933 -0.69395612808 -0.6670820141 
-0.22151072996 -0.64905790153 -0.72277593773 -0.17449102093 -0.60380684584 -0.77719239319 -0.13792499179 -0.55744942773 -0.81570554801 
-0.10211238103 -0.51101227179 -0.853072519 -0.079078031856 -0.46711395689 -0.87893768601 -0.057089176818 -0.42342336534 -0.90386179633 
-0.046801096998 -0.38437558427 -0.92098753598 -0.037586482794 -0.34575374911 -0.93739782878 -0.036122156049 -0.31246280269 -0.94861798512 
-0.035447210435 -0.27971481716 -0.95930951645 -0.036506902293 -0.25203026688 -0.96662558666 -0.037761132933 -0.22491357849 -0.97356310048 
-0.033894689852 -0.2020432852 -0.97851428687 -0.029400239617 -0.17969377621 -0.98322186707 -0.013745105003 -0.16068604024 -0.98658333004 
0.0033981208611 -0.142123874 -0.98976531072 0.034962930687 -0.12652797191 -0.99066519814 0.068607776661 -0.11135989639 -0.99123593749 
0.11515532663 -0.099954861334 -0.9870545599 0.16370718014 -0.089134376254 -0.98213498939 0.21821198552 -0.084262644404 -0.97060380607 
0.27370894955 -0.080382371425 -0.95797068728 0.32564118419 -0.085155232119 -0.94006797169 0.37693812053 -0.091470235447 -0.92122612004 
0.41740032207 -0.10830693818 -0.90102143891 0.455803924 -0.12714276381 -0.88055782017 0.48033860473 -0.15672427505 -0.86193815587 
0.50207148319 -0.18847663186 -0.84369100762 0.5099528486 -0.22909177515 -0.82791977674 0.51486603265 -0.27160608696 -0.81267909958 
0.50775533451 -0.31901600113 -0.79865221361 0.49791757031 -0.3675362581 -0.7849006205 0.47936455636 -0.4160100215 -0.77088474103 
0.45872351382 -0.46447264581 -0.75680554297 0.43356058608 -0.5090055039 -0.74176350672 0.40725528733 -0.55254557895 -0.72647822714 
0.38010882057 -0.59087332535 -0.70998545947 0.35273863892 -0.62781481415 -0.69317155136 0.32666813699 -0.66067648397 -0.67441755568 
0.30096098638 -0.69239755924 -0.65512116993 0.27710230082 -0.7225404968 -0.63183697785 0.25378609957 -0.75222028524 -0.6073824513 
0.23155265619 -0.78324308661 -0.57475478555 0.20965236909 -0.81467912273 -0.53961230773 0.18661916354 -0.84962293651 -0.48842104722 
0.16322090648 -0.8856970342 -0.43205851228 0.13404858894 -0.92275258371 -0.34580292576 0.10292995888 -0.96013895969 -0.24947102972 
0.05904312471 -0.97941029372 -0.10792669507 0.010658400459 -0.99230019252 0.04954474862 -0.049899285713 -0.94935222392 0.23242463389 
-0.11493438317 -0.88586618914 0.42465015283 -0.17505585863 -0.77528588164 0.57658552913 -0.23329187449 -0.64663451599 0.71306073441 
-0.27882134393 -0.52333566261 0.79381223993 -0.31926819481 -0.40217781413 0.85227426554 -0.35186125008 -0.30345635443 0.88076005787 
-0.38118189053 -0.21408339006 0.896755753 -0.40612185217 -0.14217686637 0.90032128325 -0.42916176036 -0.077846148276 0.89849541668 
-0.44848166643 -0.025323638395 0.89210434337 -0.46612303495 0.021870777536 0.88365335971 -0.47944542992 0.060284514373 0.87478301879 
-0.49074163976 0.094578920276 0.86571594237 -0.49671816133 0.1214064672 0.85907599437 -0.50010133487 0.14459392037 0.85361927147 
-0.49710090167 0.16087172864 0.85254288765 -0.49086826252 0.17365098254 0.85368439704 -0.47735081432 0.17975172289 0.8599313904 
-0.46000417163 0.18234196253 0.8688620356 -0.43511609563 0.17822644654 0.88198970102 -0.40611451057 0.17045324566 0.89740665019 
-0.37073939061 0.15578374825 0.91453073048 -0.33175819168 0.13721239886 0.93262068758 -0.28935438525 0.11155573209 0.94927703101 
-0.24494264908 0.081742345796 0.96509232107 -0.20091875486 0.044744202391 0.97694625156 -0.15713071047 0.0033769499339 0.98639124717 
-0.11685456891 -0.045026982944 0.9902972136 -0.078791407203 -0.097864988416 0.99071283288 -0.045868619049 -0.15677688076 0.98443983703 
-0.016301352515 -0.21965367148 0.97380066187 0.0077925088411 -0.2860024674 0.95570153629 0.028186039936 -0.35469853442 0.93255906393 
0.043731134293 -0.42258193474 0.90254664127 0.055882322934 -0.48989646836 0.8677252534 0.064621537107 -0.55198957653 0.82874739579 
0.070888306014 -0.61029904307 0.78675760357 0.075630418818 -0.66087037665 0.74458306434 0.079229039544 -0.70563811052 0.70226996485 
0.083070137633 -0.74255899794 0.66319770015 0.087099427107 -0.77338979559 0.62664071022 0.092536785589 -0.79770166176 0.59512382644 
0.099104866153 -0.81677862841 0.56765430063 0.10744164461 -0.83092155014 0.54554497504 0.11724780287 -0.84096541916 0.52788873887 
0.12834467483 -0.84747262409 0.51490467783 0.1405507539 -0.8509405083 0.5059357673 0.15282798228 -0.85217119501 0.50032265141 
0.1651684545 -0.85141326172 0.49769246408 0.17598503842 -0.84973789484 0.49689089218 0.18540062826 -0.84721908094 0.49777046672 
0.19186881856 -0.84512681131 0.49893183709 0.19553456341 -0.84344010835 0.50036114451 0.19554248737 -0.8432544281 0.50067315112 
0.19195355413 -0.84454475351 0.49988647862 0.18503886863 -0.84776118522 0.49693263278 0.17474206219 -0.8529363691 0.49177488184 
0.16245760614 -0.85974777156 0.48388881116 0.14808269103 -0.86828002459 0.47313330075 0.13371322707 -0.87768131435 0.45975392436 
0.11934969246 -0.88802787214 0.4435205183 0.1070701234 -0.89838784596 0.42543070235 0.097135015567 -0.90876291281 0.40525242526 
0.090925043538 -0.9184810913 0.38435353144 0.089049774987 -0.9274348906 0.3626161018 0.091887055883 -0.93525214738 0.34128154645 
0.10039685 -0.94170134372 0.32043193238 0.11400139686 -0.94659559061 0.3007417103 0.1339503528 -0.94955348536 0.28249525937 
0.15888444627 -0.95044421158 0.26566846044 0.19024169773 -0.94867147065 0.25067082852 0.22599588641 -0.94418495305 0.23690501773 
0.26761265806 -0.93608006657 0.22478163512 0.31244722729 -0.92465258771 0.2133790943 0.36172235718 -0.90863993138 0.20297131514 
0.41242510604 -0.88908849988 0.19270064223 0.46516731058 -0.8644816753 0.18262583538 0.51724533153 -0.83685892153 0.17232054495 
0.56834091424 -0.80477510585 0.16167433086 0.61699076801 -0.77093985554 0.15086971218 0.66189397319 -0.73442155646 0.13982243112 
0.70336132795 -0.69776297462 0.12915150046 0.73937613749 -0.66088177017 0.11907782153 0.77186162824 -0.62523243659 0.11022372264 
0.79854335029 -0.5916088462 0.10337515536 0.82217945492 -0.55999562772 0.098679844661 0.84062416621 -0.53180917952 0.097654857682 
0.85670354583 -0.50569142116 0.099598763708 0.86860233923 -0.48322995182 0.10679001551 0.8786982336 -0.46227850444 0.11746419385 
0.88548881306 -0.44409543066 0.1345237375 0.89081224005 -0.42639393597 0.15508592771 0.89334449891 -0.4096086161 0.1823116894 
0.89458858101 -0.39205665883 0.2123369851 0.89328851402 -0.3729905927 0.24789136048 0.8909345913 -0.35206791239 0.2847388559 
0.88641891327 -0.32733679278 0.32423890525 0.88136736319 -0.30009986142 0.36302777722 0.87517355956 -0.26752159448 0.40030071845 
0.86916062437 -0.23242120442 0.43498037281 0.86354853273 -0.19173124419 0.46391274274 0.85865845516 -0.14903402244 0.48907402522 
0.85543302113 -0.10170894775 0.50554085608 0.85294436191 -0.053325224343 0.5180061753 0.85222396224 -0.0024007440471 0.52086786656 
0.85175820867 0.048379046421 0.5204613763 0.85192907034 0.098797112321 0.51188443222 0.85174456801 0.14777486461 0.50160482672 
0.85063396555 0.19299907236 0.48688798234 0.84882404714 0.23574497844 0.47246400601 0.84511286345 0.27175300187 0.45883626468 
0.84063146639 0.30483314418 0.44732780849 0.83396365712 0.32960188198 0.44183538753 0.82650963761 0.35134284576 0.43965847083 
0.81672319434 0.36410141329 0.44731755009 0.80597065815 0.3738769799 0.45861370872 0.79221990257 0.37439495744 0.48119735505 
0.77725358586 0.3720064173 0.50672171728 0.75833669547 0.36017169469 0.54180340622 0.73826854422 0.34569283828 0.57820746393 
0.71427757824 0.32220434076 0.6191173708 0.68986621495 0.29681789407 0.65936013671 0.66395112288 0.26464262919 0.69721659067 
0.63888379111 0.23154735122 0.7329634059 0.61700403807 0.19499282401 0.76077797947 0.5970090331 0.15824727466 0.78605579748 
0.58447448922 0.12074559604 0.80129229141 0.57413012942 0.083265675615 0.81421541272 0.57292740752 0.045876572014 0.81748271791 
0.57347426377 0.0083398554751 0.81885694528 0.58173516908 -0.029847699925 0.81188442047 0.59078963476 -0.068489721313 0.80350144913 
0.60354738217 -0.10925258398 0.78853639401 0.61595097995 -0.15070285735 0.77273047066 0.626601537 -0.1955558137 0.75276224955 
0.63587835574 -0.24115629265 0.73255789707 0.63792497285 -0.29069110102 0.71111074787 0.63792864693 -0.34081792341 0.68988293437 
0.62646914063 -0.39426660222 0.66988583791 0.61272897612 -0.44787380097 0.65030837064 0.58530486234 -0.50243211927 0.63324867852 
0.55584853639 -0.55654411111 0.61653953692 0.51330984458 -0.60778287639 0.60208706422 0.4694100053 -0.65802446078 0.58778917981 
0.4160728769 -0.70135225774 0.57456310753 0.36220723968 -0.74341858504 0.56135210122 0.30437778624 -0.7760238899 0.5482540897 
0.24672982524 -0.80746177823 0.53510510784 0.19056172561 -0.82938073178 0.52154052156 0.13501326767 -0.85042431898 0.50793430301 
0.084989948168 -0.86366255625 0.49395686332 0.035791099433 -0.87634650143 0.47999314603 -0.0053129454416 -0.8835883062 0.46616415773 
-0.045492995926 -0.89054481166 0.45242105833 -0.075601507564 -0.89439155485 0.43961414805 -0.10472194509 -0.89814535503 0.42697589777 
-0.12176592123 -0.90076318507 0.41639904748 -0.13775496909 -0.90339602769 0.40606853866 -0.13910688702 -0.90623716984 0.39915601792 
-0.13929947204 -0.90910502984 0.39253454584 -0.12094273056 -0.91240037526 0.39056985237 -0.10131286544 -0.91559837588 0.38887817075 
-0.057705838478 -0.9169630496 0.39232821247 -0.012805836098 -0.91793245346 0.39594085333 0.061574005856 -0.90988970451 0.40326075443 
0.13693161733 -0.90107595523 0.41053045261 0.24040010259 -0.87009594662 0.41635681686 0.34409830967 -0.83828300157 0.4219463675 
0.45667909403 -0.77426318056 0.41837912522 0.56890065346 -0.70986541605 0.41461602359 0.66010755395 -0.62335795701 0.39939515051 
0.7505480099 -0.53757745141 0.38430218392 0.7505480099 -0.53757745141 0.38430218392 0.7505480099 -0.53757745141 0.38430218392 

FrenetNormal 3 240 double
-0.6182115258 -0.71473075871 -0.32706949097 -0.6182115258 -0.71473075871 -0.32706949097 -0.6182115258 -0.71473075871 -0.32706949097 
-0.5320212734 -0.63451885741 -0.5140684637 -0.44510059513 -0.55362719423 -0.70265217349 -0.30690031948 -0.4218347833 -0.82246252605 
-0.16782346952 -0.28917227411 -0.94109726567 -0.027614168137 -0.16497386659 -0.96754086763 0.11262442079 -0.04099435826 -0.99160021603 
0.22412238189 0.056266630504 -0.96120413339 0.33462066899 0.15259827946 -0.9289139488 0.4082574386 0.23287382872 -0.87429648627 
0.48027747499 0.31244516308 -0.81869975717 0.51601429116 0.38530088405 -0.75838681386 0.54982456466 0.45780002379 -0.6978234521 
0.54994171414 0.52701144498 -0.64180694992 0.54795304338 0.59601738377 -0.58607462647 0.51120153034 0.66292840815 -0.53950571781 
0.47194458723 0.72968844771 -0.49359723544 0.39514920346 0.79043304315 -0.45568903047 0.31528249273 0.85068546589 -0.41843539365 
0.20992952046 0.89160645953 -0.382848389 0.10223835906 0.93075392757 -0.34741428638 0.018559173979 0.94562061892 -0.31220866794 
-0.062674346848 0.95801426821 -0.27702632104 -0.044557292732 0.96633223476 -0.25027362631 -0.015298118061 0.97419311539 -0.22446631312 
0.17783506707 0.93853118538 -0.20002112046 0.39106600819 0.89753155217 -0.17574298032 0.59705144239 0.74477037096 -0.12937247557 
0.80207080899 0.57710765002 -0.080056322213 0.88218466973 0.44539940023 -0.025613300052 0.94428331328 0.31887689147 0.02956917434 
0.96305404975 0.23457632374 0.08863774639 0.97509423756 0.15683450413 0.1483099841 0.96917955208 0.080390742577 0.21091984479 
0.96027238772 0.0041633240287 0.27401930933 0.92915452055 -0.10225723731 0.33108347863 0.8940783103 -0.2140587548 0.38707205076 
0.80463272853 -0.37387639869 0.41755349184 0.70485696619 -0.5428171066 0.44318857801 0.52801277687 -0.6962345765 0.42085073391 
0.33559920837 -0.84651603873 0.38882138874 0.15105436683 -0.90681234577 0.34410730802 -0.031804318922 -0.94782611955 0.29667506968 
-0.16170515228 -0.9408207439 0.27304734587 -0.27959492634 -0.92292442714 0.25481858412 -0.36171350314 -0.89266656885 0.25680869288 
-0.43526189726 -0.85944709123 0.26364290604 -0.48558308532 -0.82518235484 0.28242408573 -0.53003634764 -0.79065355307 0.30422344644 
-0.5543786963 -0.76003120305 0.33572227044 -0.57337239771 -0.73044780297 0.36980073893 -0.56972419197 -0.70656300216 0.41620689477 
-0.55974599067 -0.68427135814 0.46605950083 -0.52647737034 -0.66273218979 0.52697777634 -0.48637351834 -0.6414138567 0.59114358528 
-0.43668533784 -0.6099970763 0.65537376641 -0.3840481332 -0.57547308134 0.71962375436 -0.34371618879 -0.52162689754 0.77610309091 
-0.30734927269 -0.4615546751 0.83007855088 -0.29178789509 -0.37040413578 0.87531114772 -0.28323962036 -0.2687777593 0.91759671204 
-0.28671638407 -0.12051888693 0.93682853145 -0.29442924087 0.044167341944 0.94793914527 -0.29786911734 0.23639403349 0.90161000079 
-0.29973732289 0.43875055038 0.83415358889 -0.29497178144 0.60055521104 0.71798618978 -0.28766073242 0.7467992757 0.58312736536 
-0.28879260442 0.83374275069 0.44827235068 -0.29330164482 0.89696598982 0.31341885991 -0.30612343457 0.92533081098 0.19655376487 
-0.32240886987 0.93917129132 0.087183834701 -0.33601719131 0.9384506629 -0.0033585942498 -0.34846435492 0.93141437285 -0.085734878097 
-0.34846950679 0.92389967857 -0.14895494421 -0.34286058018 0.91616911897 -0.2035313511 -0.31275918055 0.9192787506 -0.23476081698 
-0.27116748494 0.92747390404 -0.25503739694 -0.15385787742 0.94948808141 -0.22296733115 0.00036421216906 0.97823903294 -0.16537827554 
0.2943643564 0.83235414964 0.015040534496 0.65913819918 0.59804605881 0.25765162525 0.81401741802 0.31670352078 0.38506798532 
0.85856741146 0.010637747663 0.451933269 0.86485683765 -0.16868853962 0.4606717391 0.85027686351 -0.27888419826 0.43770467452 
0.83727298809 -0.36317312443 0.40126122592 0.82516085273 -0.43280429407 0.3571929811 0.80435424238 -0.50266887373 0.30423655603 
0.77844687338 -0.57267038727 0.24606573189 0.73556944461 -0.64427972853 0.18077138914 0.6823723849 -0.71686680286 0.11114517697 
0.61349890522 -0.78038191609 0.036889001912 0.53474713349 -0.83818045109 -0.040284684003 0.45399489234 -0.8765291523 -0.11846019762 
0.3719367892 -0.90218143422 -0.19728968209 0.29882179185 -0.90919528354 -0.27453138419 0.23175283786 -0.90360850237 -0.35069965595 
0.17697298614 -0.88505422302 -0.42296690454 0.13079550601 -0.85742269495 -0.49250343691 0.096630954416 -0.82294693934 -0.55565974437 
0.071171423509 -0.78351159855 -0.61419270046 0.059238577901 -0.742415377 -0.66496345779 0.057450746265 -0.70007349489 -0.70991256606 
0.074619711147 -0.65863561519 -0.74678715017 0.10650141362 -0.61789934931 -0.7773949394 0.16904173577 -0.57433059683 -0.79604235717 
0.25620185857 -0.52848727179 -0.80508523421 0.38546037246 -0.46238694266 -0.77993102332 0.54969293433 -0.37945771784 -0.726366924 
0.70704992665 -0.26442790113 -0.61122029357 0.85849822639 -0.12181163827 -0.44315117549 0.94342576006 0.0099915225822 -0.27107999742 
0.96922372389 0.13218303721 -0.095451432716 0.96183510911 0.23129242394 0.054955987891 0.92393625271 0.30918114471 0.18217622763 