# vtk DataFile Version 5.1
vtk output
ASCII
DATASET POLYDATA
POINTS 240 float
0 0 0 -0.154683 -0.332917 0.199434 -0.309367 -0.665835 0.398867 
-0.473904 -0.979256 0.54878 -0.638524 -1.29251 0.698273 -0.814808 -1.58764 0.801148 
-0.991291 -1.88246 0.903226 -1.18113 -2.16057 0.961721 -1.37132 -2.43824 1.01909 
-1.57621 -2.70083 1.03631 -1.7816 -2.9629 1.05214 -2.00236 -3.21188 1.03201 
-2.22379 -3.46029 1.01031 -2.46014 -3.69813 0.957663 -2.69728 -3.9354 0.903374 
-2.94735 -4.16505 0.823647 -3.19823 -4.39423 0.742331 -3.45825 -4.6189 0.640787 
-3.71893 -4.84325 0.537785 -3.98308 -5.06597 0.418524 -4.24752 -5.28856 0.297934 
-4.50804 -5.51165 0.163146 -4.76819 -5.73478 0.0270565 -5.01586 -5.95947 -0.12319 
-5.26225 -6.18431 -0.274878 -5.48709 -6.41047 -0.44225 -5.70951 -6.63678 -0.611382 
-5.90174 -6.86294 -0.79845 -6.09027 -7.08909 -0.987719 -6.24128 -7.31279 -1.19692 
-6.38728 -7.53615 -1.40878 -6.49037 -7.75449 -1.64142 -6.58727 -7.97211 -1.87705 
-6.63815 -8.18272 -2.13247 -6.68189 -8.39224 -2.39098 -6.6789 -8.59423 -2.66601 
-6.66812 -8.79497 -2.9438 -6.61216 -8.98967 -3.23246 -6.54815 -9.18331 -3.52306 
-6.44277 -9.37465 -3.81662 -6.32952 -9.56556 -4.11075 -6.181 -9.75963 -4.3982 
-6.02536 -9.95433 -4.68429 -5.84298 -10.1583 -4.95299 -5.65487 -10.3643 -5.21796 
-5.45083 -10.5848 -5.45467 -5.24318 -10.8086 -5.68496 -5.03221 -11.0498 -5.87695 
-4.82045 -11.2952 -6.05976 -4.6188 -11.5571 -6.19609 -4.41972 -11.8232 -6.32069 
-4.24373 -12.1005 -6.39347 -4.07389 -12.3807 -6.45246 -3.93812 -12.6623 -6.45774 
-3.81188 -12.9443 -6.448 -3.72728 -13.215 -6.38626 -3.65491 -13.4823 -6.30925 
-3.62734 -13.7242 -6.18509 -3.61356 -13.9584 -6.04643 -3.64294 -14.1547 -5.86778 
-3.68623 -14.3389 -5.67625 -3.76667 -14.4767 -5.45298 -3.85964 -14.5988 -5.21903 
-3.98046 -14.6716 -4.96161 -4.1111 -14.7269 -4.69592 -4.25862 -14.7357 -4.41416 
-4.41233 -14.7275 -4.1265 -4.57199 -14.6807 -3.82876 -4.73392 -14.6191 -3.52716 
-4.89237 -14.5295 -3.21998 -5.04944 -14.4289 -2.91056 -5.19614 -14.3112 -2.59871 
-5.33853 -14.1865 -2.28585 -5.46652 -14.0536 -1.9726 -5.58828 -13.9173 -1.65918 
-5.69433 -13.7782 -1.34657 -5.79329 -13.6379 -1.03433 -5.87736 -13.4969 -0.723423 
-5.95444 -13.3556 -0.413147 -6.01886 -13.2126 -0.104168 -6.0771 -13.069 0.204181 
-6.12564 -12.9219 0.511652 -6.16926 -12.7732 0.81868 -6.20629 -12.6198 1.12531 
-6.23985 -12.4639 1.43172 -6.26972 -12.3039 1.7378 -6.29756 -12.1415 2.04369 
-6.32406 -11.9779 2.34834 -6.34978 -11.8135 2.65228 -6.37567 -11.653 2.95273 
-6.40166 -11.4949 3.25113 -6.42833 -11.3479 3.54247 -6.45542 -11.2077 3.82952 
-6.48264 -11.0871 4.10507 -6.50995 -10.9787 4.37338 -6.53575 -10.8983 4.62586 
-6.56056 -10.8361 4.86801 -6.58131 -10.8088 5.09121 -6.59932 -10.8051 5.3016 
-6.61028 -10.8408 5.49219 -6.61629 -10.904 5.6689 -6.61251 -11.0071 5.82764 
-6.60162 -11.1392 5.97334 -6.57907 -11.3081 6.10517 -6.54776 -11.5047 6.22659 
-6.50413 -11.7319 6.33958 -6.45093 -11.9829 6.44602 -6.38595 -12.2564 6.54942 
-6.31152 -12.5481 6.65038 -6.2268 -12.854 6.75241 -6.13354 -13.1717 6.85532 
-6.03214 -13.4965 6.96141 -5.92375 -13.8276 7.07023 -5.80983 -14.1607 7.18232 
-5.69098 -14.4956 7.29732 -5.56948 -14.8298 7.41422 -5.44554 -15.1632 7.53287 
-5.32192 -15.4949 7.65137 -5.1986 -15.8249 7.76972 -5.07831 -16.1536 7.88587 
-4.96099 -16.481 7.99986 -4.84879 -16.808 8.11016 -4.74177 -17.1346 8.21672 
-4.64091 -17.4617 8.31896 -4.54655 -17.7892 8.41666 -4.4582 -18.1176 8.51044 
-4.37641 -18.4468 8.59996 -4.29929 -18.7764 8.68696 -4.22742 -19.1065 8.77112 
-4.15787 -19.4358 8.85501 -4.09103 -19.7643 8.93857 -4.02355 -20.0904 9.0246 
-3.95529 -20.4136 9.11358 -3.88318 -20.7328 9.2077 -3.8063 -21.0468 9.3082 
-3.72257 -21.3551 9.41582 -3.63 -21.6561 9.53258 -3.52805 -21.9503 9.65715 
-3.4136 -22.2353 9.79214 -3.28791 -22.5129 9.93412 -3.14674 -22.7801 10.0858 
-2.99327 -23.0394 10.2423 -2.82225 -23.2875 10.4058 -2.63863 -23.5275 10.5713 
-2.43638 -23.7555 10.7397 -2.22195 -23.9751 10.9071 -1.98884 -24.1816 11.073 
-1.74459 -24.3791 11.2356 -1.48266 -24.5623 11.3929 -1.21117 -24.7358 11.5456 
-0.923957 -24.8935 11.6907 -0.629218 -25.0408 11.8311 -0.321642 -25.1707 11.9636 
-0.00885159 -25.2899 12.0923 0.313157 -25.3901 12.2146 0.638002 -25.4795 12.3349 
0.968044 -25.5489 12.4518 1.29872 -25.6075 12.5688 1.63061 -25.6456 12.6862 
1.96134 -25.6733 12.8059 2.28981 -25.6806 12.93 2.61592 -25.6783 13.0578 
2.9372 -25.6564 13.1933 3.25553 -25.6261 13.3333 3.56758 -25.5779 13.4831 
3.87663 -25.5228 13.6376 4.17901 -25.4524 13.8024 4.47868 -25.3768 13.9716 
4.77207 -25.2893 14.1506 5.06317 -25.1984 14.3332 5.34874 -25.0992 14.5245 
5.63243 -24.9983 14.7187 5.91145 -24.893 14.9201 6.18891 -24.7873 15.1238 
6.46231 -24.6807 15.3335 6.73448 -24.575 15.5449 7.00331 -24.4712 15.7612 
7.27133 -24.3691 15.9787 7.53701 -24.2713 16.1999 7.80235 -24.1756 16.4219 
8.0667 -24.086 16.6464 8.33137 -23.9987 16.8712 8.59708 -23.9188 17.097 
8.86384 -23.8412 17.3227 9.13401 -23.7715 17.5477 9.40591 -23.7043 17.772 
9.68369 -23.6453 17.9941 9.96366 -23.5887 18.2152 10.2514 -23.5405 18.4327 
10.5415 -23.4948 18.649 10.8403 -23.4583 18.8606 11.141 -23.4243 19.0711 
11.4494 -23.4007 19.2767 11.759 -23.3802 19.4812 12.0732 -23.3722 19.6811 
12.3873 -23.3678 19.8801 12.7008 -23.3792 20.0755 13.0124 -23.3949 20.2703 
13.3159 -23.4309 20.4627 13.616 -23.472 20.6549 13.8989 -23.5384 20.8462 
14.1769 -23.6104 21.0376 14.4286 -23.7121 21.2296 14.6742 -23.8195 21.422 
14.8852 -23.9596 21.6165 15.0896 -24.105 21.8114 15.2535 -24.2831 22.0095 
15.4107 -24.4656 22.2081 15.5249 -24.6776 22.4106 15.633 -24.8929 22.6136 
15.6991 -25.1314 22.8206 15.7602 -25.3719 23.0281 15.7838 -25.6272 23.2394 
15.8037 -25.8832 23.451 15.7934 -26.1449 23.6661 15.7807 -26.4063 23.8815 
15.7466 -26.6647 24.1 15.7113 -26.922 24.3188 15.6634 -27.1691 24.5406 
15.615 -27.4149 24.7627 15.5617 -27.6455 24.9882 15.5084 -27.8748 25.2139 
15.4555 -28.0869 25.443 15.4028 -28.2979 25.6722 15.3541 -28.4928 25.9044 
15.3058 -28.6868 26.1367 15.2639 -28.8685 26.3707 15.2226 -29.0497 26.6048 
15.1911 -29.2241 26.8388 15.1604 -29.3985 27.0728 15.1449 -29.5728 27.3044 
15.1303 -29.7472 27.5359 15.1388 -29.9288 27.7627 15.1481 -30.1107 27.9894 
15.1904 -30.307 28.209 15.2334 -30.5037 28.4285 15.3202 -30.7223 28.6385 
15.4074 -30.9412 28.8484 15.5496 -31.1895 29.0463 15.6919 -31.4378 29.2443 

LINES 2 240
OFFSETS vtktypeint64
0 240 
CONNECTIVITY vtktypeint64
0 1 2 3 4 5 6 7 8 
9 10 11 12 13 14 15 16 17 
18 19 20 21 22 23 24 25 26 
27 28 29 30 31 32 33 34 35 
36 37 38 39 40 41 42 43 44 
45 46 47 48 49 50 51 52 53 
54 55 56 57 58 59 60 61 62 
63 64 65 66 67 68 69 70 71 
72 73 74 75 76 77 78 79 80 
81 82 83 84 85 86 87 88 89 
90 91 92 93 94 95 96 97 98 
99 100 101 102 103 104 105 106 107 
108 109 110 111 112 113 114 115 116 
117 118 119 120 121 122 123 124 125 
126 127 128 129 130 131 132 133 134 
135 136 137 138 139 140 141 142 143 
144 145 146 147 148 149 150 151 152 
153 154 155 156 157 158 159 160 161 
162 163 164 165 166 167 168 169 170 
171 172 173 174 175 176 177 178 179 
180 181 182 183 184 185 186 187 188 
189 190 191 192 193 194 195 196 197 
198 199 200 201 202 203 204 205 206 
207 208 209 210 211 212 213 214 215 
216 217 218 219 220 221 222 223 224 
225 226 227 228 229 230 231 232 233 
234 235 236 237 238 239 
CELL_DATA 1
FIELD FieldData 3
Length 1 1 double
80.871167473 
Tortuosity 1 1 double
0.76905501943 
ClusterLabel 1 1 int
3 
POINT_DATA 240
FIELD FieldData 6
Curvature 1 240 double
0 0.066561898872 0.13312379774 0.14911814337 0.16468395041 0.17781119536 0.19089675549 0.19698741786 0.2028971777 
0.19852035615 0.19378574048 0.17967747766 0.16515808998 0.14605526325 0.12670906808 0.10822396336 0.089792676805 0.076714630571 
0.064022403459 0.060972007042 0.058710487682 0.066716907655 0.075665340412 0.091318976487 0.10765554994 0.12830002742 0.14942763433 
0.1724904052 0.1957905075 0.21654143489 0.2369524723 0.24873786842 0.25927918166 0.25735775091 0.25350035992 0.23955871624 
0.22393636378 0.20477034842 0.18497278918 0.16836446226 0.15236208947 0.14432996221 0.13790798556 0.14132459932 0.14684948245 
0.16103153212 0.17717706287 0.2003775583 0.22526830568 0.25683855614 0.29009626 0.33051878271 0.37284684235 0.42173644306 
0.4724604531 0.52381656059 0.57535817494 0.60978314632 0.63894145834 0.63138388529 0.61199563816 0.56086661207 0.49903844701 
0.43055913523 0.35973680585 0.29927418193 0.24262202437 0.19925646659 0.16098925523 0.13435666508 0.11237792342 0.099763734894 
0.091051443517 0.087439668407 0.086040165414 0.084977469638 0.084066747849 0.08134395898 0.077771064566 0.072718354698 0.066944234796 
0.060482175571 0.053671792638 0.045968119278 0.037794895822 0.028264306003 0.017993334532 0.013847016052 0.013165961765 0.024898585807 
0.043913901136 0.071067757616 0.10317072696 0.15450598435 0.21796021777 0.32297175328 0.4551109721 0.63490672607 0.84692098266 
0.97621496996 1.0476047687 0.96426720607 0.76880836697 0.57989588506 0.39589317104 0.26437982647 0.17360449998 0.11321174857 
0.077217125632 0.055563536842 0.045824037959 0.03945624218 0.035986003756 0.031203956006 0.025255855522 0.017498635225 0.0080781918743 
0.0076760049954 0.015848553779 0.025481142481 0.036549437102 0.045766399525 0.053100651238 0.057267515417 0.058103161675 0.055248250118 
0.048379047608 0.038713136059 0.025900926842 0.021313771395 0.026297587607 0.038717969993 0.060089774624 0.081203776246 0.10199674016 
0.12042495694 0.13580628799 0.147634002 0.15472355996 0.15902036042 0.15946315553 0.15876798246 0.15644714059 0.15442805617 
0.15285532132 0.15165286049 0.15101762794 0.15016376547 0.1489629468 0.14710734844 0.14417500124 0.1407229693 0.13638511107 
0.13220100701 0.12828865451 0.12534577188 0.1241802507 0.12393930124 0.12545729312 0.12715975504 0.12922654527 0.13019684583 
0.12891793681 0.12602788334 0.11970354825 0.11221189351 0.10213320603 0.091642653496 0.080202523182 0.069154154422 0.059046013392 
0.049931879168 0.043302761956 0.037675302124 0.034658222135 0.032371267406 0.032069340729 0.032173035849 0.03342817349 0.034817506947 
0.036604954656 0.038662057189 0.041556019523 0.044625214373 0.048263914899 0.051775125661 0.054851926858 0.057702546099 0.05974412988 
0.061398087801 0.061594572483 0.061900440036 0.062639281446 0.064019672421 0.068077835491 0.073524602144 0.085093848229 0.098245005138 
0.11877841255 0.14061083806 0.16887340314 0.19770884279 0.22955941178 0.26011432305 0.28339915491 0.30372015517 0.30625816586 
0.30584149946 0.28640409925 0.26564042043 0.23568120992 0.20583899064 0.17687420553 0.14855737504 0.12552386685 0.10339679287 
0.089352090673 0.076317529608 0.073200717878 0.070592577496 0.073528954797 0.076312812924 0.077232547822 0.077814640446 0.073711946538 
0.069685608334 0.066880961393 0.064930903255 0.079075600895 0.093837817169 0.1226794583 0.15160654288 0.18299012654 0.21408044364 
0.23383112036 0.25323687171 0.25246448919 0.25064546506 0.12532273253 0 
Torsion 1 240 double
0 0 0 -0.024243107031 -0.048691664121 -0.048688336632 -0.04826702821 -0.046809023338 -0.04532420735 
-0.041498462819 -0.037591294687 -0.027041482261 -0.016200325787 0.012432055883 0.042009104377 0.11664751619 0.1941022632 0.34020844778 
0.49126248372 0.53826330267 0.5767506766 0.43983457739 0.28682641643 0.18363738309 0.085522520157 0.042692478164 0.0060626030057 
-0.0056308794189 -0.014266124999 -0.01065512232 -0.0054112865393 0.0085543627762 0.023777965967 0.048412523117 0.074508976029 0.11383107953 
0.15535745813 0.21405629957 0.27581557993 0.34776018256 0.42163999643 0.46608877985 0.50459190055 0.48130890903 0.44478603631 
0.38586881711 0.32187246779 0.26829857308 0.21722172479 0.17798767146 0.14174548213 0.11106444934 0.081862447554 0.05453091576 
0.027722311061 0.0026400744781 -0.021935510593 -0.043195792306 -0.063435980679 -0.081460762603 -0.098771691337 -0.11692442647 -0.13536091656 
-0.15818268927 -0.18254927744 -0.21749667407 -0.25633586232 -0.31298947915 -0.37647886507 -0.44313478274 -0.5110573131 -0.51621773726 
-0.49522728384 -0.40844867661 -0.29313544846 -0.1758427271 -0.057656819782 0.043428278468 0.13649077493 0.20772851376 0.26832668324 
0.29952597167 0.31583975071 0.30546299887 0.281056609 0.1914578574 0.06629963576 -0.030645802997 -0.11162874617 -0.044024902321 
0.11074985659 0.17392268475 0.18139163609 0.18444058322 0.1847043222 0.17945273955 0.17060087749 0.1573761228 0.14119504633 
0.13422575548 0.13370471456 0.15165161096 0.18298107064 0.23828660485 0.31157419497 0.42798243948 0.57785746053 0.76664840803 
0.98669002372 1.0153453947 0.88500296249 0.70115861326 0.47133605411 0.32109688769 0.24159851479 0.92934019911 2.3224477425 
2.2570936231 0.80500546383 0.064357365357 0.023291993362 -0.0042029736102 -0.017897528693 -0.035350811479 -0.056757238918 -0.10416363069 
-0.17985068542 -0.59008608269 -1.3766883653 -1.613209844 -1.2096372964 -0.81442113411 -0.4292635839 -0.19902172348 -0.16169374092 
-0.14292331143 -0.14806357533 -0.15898839375 -0.17762595153 -0.19672617713 -0.2164648843 -0.22969772489 -0.23363647039 -0.22603317749 
-0.20135728611 -0.16978493303 -0.12764778756 -0.082232327677 -0.03161432534 0.019668955127 0.072046248516 0.12384723662 0.17466588615 
0.22438835738 0.27217339719 0.31006779744 0.32982935848 0.33520604523 0.31321638577 0.28641660029 0.25011681595 0.21622558352 
0.18727497039 0.16245598104 0.14644387395 0.13728238989 0.14330336767 0.15685497181 0.18776885342 0.23114685629 0.30443875019 
0.38489385328 0.48325697934 0.56619356914 0.60892767045 0.63219636192 0.60254347038 0.57300880533 0.54380975096 0.51838158041 
0.5041403652 0.48143907367 0.43248237289 0.37921787198 0.31195302066 0.2444212396 0.17597992017 0.10659304962 0.033824015452 
-0.040380985425 -0.11998522112 -0.20004532782 -0.28190992386 -0.35510468506 -0.39211230948 -0.41404629856 -0.36951925908 -0.32232816122 
-0.26270479092 -0.20703167666 -0.17091232981 -0.13758147483 -0.11892689284 -0.10213371973 -0.095785118697 -0.090687581497 -0.09309642731 
-0.096632910358 -0.1074285581 -0.11971258645 -0.14231605365 -0.16768408588 -0.21378635585 -0.26556403162 -0.36361809326 -0.46543490376 
-0.60080289163 -0.72205758592 -0.70474539775 -0.67895208085 -0.56071446087 -0.44923249064 -0.42031957297 -0.40250206894 -0.53863342925 
-0.68199596327 -0.94105727675 -1.1749338964 -0.93449878303 -0.6948098466 -0.4721337453 -0.25432369872 -0.17641272526 -0.099802039999 
-0.07346916497 -0.047180709819 -0.023490817547 0 0 0 
FrenetTangent 3 240 double
-0.39874189937 -0.80693250171 0.43573482231 -0.39874189937 -0.80693250171 0.43573482231 -0.39874189937 -0.80693250171 0.43573482231 
-0.42908407605 -0.8135714649 0.38817470922 -0.45968338982 -0.82026669048 0.34021154432 -0.49196642101 -0.82011620621 0.28503185841 
-0.5242782337 -0.81984870127 0.22972881318 -0.55544978233 -0.81107753032 0.17028539442 -0.58659184137 -0.80208643697 0.11073489703 
-0.61352155709 -0.78510991335 0.052165190312 -0.64030475653 -0.76785563563 -0.0063704019526 -0.66083828638 -0.74581892198 -0.058537295882 
-0.68109770793 -0.72357245237 -0.11042486094 -0.69470625316 -0.70116099578 -0.15270850794 -0.70796165451 -0.67874077882 -0.1944822124 
-0.71517943759 -0.66012680585 -0.22663776964 -0.72201986952 -0.64175072313 -0.25819219267 -0.72336669192 -0.62938097767 -0.28266619918 
-0.72431757849 -0.61744412139 -0.30662990539 -0.71962958973 -0.61200620787 -0.32728374001 -0.71448023844 -0.60710002603 -0.34766676695 
-0.7027474362 -0.60800032445 -0.36862648757 -0.69041064765 -0.60943332748 -0.38963911586 -0.66983257195 -0.6151436642 -0.41447648779 
-0.64841510591 -0.62128965528 -0.43970341693 -0.61658548874 -0.62936634832 -0.47070846513 -0.5835881537 -0.63765956869 -0.50236152669 
-0.53805653355 -0.64466116879 -0.5396472062 -0.49098768975 -0.65150436263 -0.57762367848 -0.43060388322 -0.65335102443 -0.618228039 
-0.36844474833 -0.65453148195 -0.65918278462 -0.29528763271 -0.64799048778 -0.6970834518 -0.22054426988 -0.64033582269 -0.7345436269 
-0.14079043594 -0.62532738476 -0.76273357163 -0.060258276398 -0.60917661319 -0.78948348058 0.017923613646 -0.58975014822 -0.80335105518 
0.095713792107 -0.56977773435 -0.81507157406 0.1658182664 -0.55234480481 -0.81392506771 0.23455301125 -0.53536445665 -0.81048542815 
0.29345388104 -0.52584449848 -0.79614754693 0.35048631458 -0.51774201442 -0.77973899979 0.39750665993 -0.51996719581 -0.7542492087 
0.44250436119 -0.52427877427 -0.72692482288 0.47761695408 -0.53984208329 -0.69115639672 0.51061130946 -0.55781647743 -0.65357853336 
0.53311847253 -0.58635642123 -0.60690668123 0.55324709713 -0.61729267526 -0.55817227495 0.56113139172 -0.65648942728 -0.49876161322 
0.5660821489 -0.69766525695 -0.43679309862 0.55597911001 -0.74268184385 -0.3622889013 0.54207300684 -0.78866872732 -0.28461779465 
0.50981498519 -0.83130131834 -0.19317383174 0.47267613415 -0.87304181031 -0.098066875138 0.41466196599 -0.9008617517 0.0099471222 
0.35081168767 -0.92478992626 0.12156953953 0.26687520172 -0.92143524701 0.24058292576 0.17704385049 -0.91007364327 0.36176540069 
0.075498152058 -0.86031381798 0.47722526677 -0.029651960894 -0.79873915528 0.59092433013 -0.12917656371 -0.70155423866 0.68145388092 
-0.22688850214 -0.59289490688 0.7645176999 -0.30255975659 -0.46977381022 0.81629214751 -0.370801567 -0.34177796134 0.85751961602 
-0.41331607824 -0.22264878584 0.87512216754 -0.44676756363 -0.10664309756 0.88440230511 -0.46080955412 -0.010142290672 0.88319417657 
-0.46771242004 0.079184306969 0.87812829498 -0.46273816848 0.1490157289 0.87173780465 -0.45320641836 0.21136644387 0.86483903422 
-0.43687547688 0.25801883863 0.860648001 -0.41782485887 0.2983919053 0.85754006267 -0.39483863346 0.32725869868 0.85785257875 
-0.37021257164 0.35133121152 0.85959028418 -0.34341765337 0.36773111784 0.86368661281 -0.31568202629 0.38080314662 0.86880595873 
-0.28731080757 0.38976556215 0.87447748074 -0.25865279749 0.39687363999 0.88039815536 -0.23098506252 0.40298045532 0.8851773125 
-0.20378190105 0.40861754256 0.88942094291 -0.17913584992 0.41515876883 0.89163702479 -0.15573639007 0.42214076288 0.89286467677 
-0.13600816664 0.4302552589 0.89220371328 -0.11813879709 0.43894317366 0.89058648881 -0.1043655489 0.4475962836 0.88801529468 
-0.092745390151 0.45623109871 0.88494265498 -0.084959086295 0.46301116222 0.88223534033 -0.079263976018 0.46877954304 0.8797272939 
-0.076652515556 0.47082258342 0.87889124205 -0.075785751699 0.47075786539 0.87900118712 -0.077048474569 0.46502567103 0.88188449139 
-0.07956049632 0.45596855724 0.88639483305 -0.083155159301 0.4383974296 0.89461526917 -0.087408185192 0.41564886112 0.90509184382 
-0.091294052403 0.37893189973 0.91980061627 -0.094948559349 0.33341293733 0.9371762531 -0.095438054269 0.26361885296 0.95645670673 
-0.093861499671 0.17797850842 0.97698058244 -0.083718265007 0.055760393859 0.98563657099 -0.067783471989 -0.09118635395 0.9862691992 
-0.039508306209 -0.25897754491 0.94809085718 -0.0025948794941 -0.44135984607 0.88274483599 0.037804118933 -0.59137742414 0.78955962903 
0.080728893965 -0.71794230433 0.67620109904 0.1181313169 -0.80251950268 0.57634524995 0.15139197575 -0.85560593966 0.48661641152 
0.17956709705 -0.88820486086 0.41973486968 0.20379523396 -0.90490302354 0.37058555802 0.22506310601 -0.91379141427 0.33718105692 
0.24395379565 -0.91640832147 0.3164201158 0.26091902885 -0.91598611063 0.30442984235 0.27628465209 -0.91303909402 0.29972596973 
0.28990523525 -0.90905995049 0.29903844759 0.3020261746 -0.9041938229 0.30180247663 0.31211521133 -0.89954119758 0.30549057694 
0.32039811242 -0.89507835204 0.31000007393 0.32612745757 -0.89180991167 0.31352532456 0.3295091787 -0.88963955347 0.31614570355 
0.3298979666 -0.88926846648 0.31679928461 0.32744101471 -0.89060816195 0.31558279551 0.32193064261 -0.89375415723 0.31219825538 
0.31341774064 -0.89867634734 0.3066817984 0.30241488772 -0.90477869388 0.29947211046 0.2888798813 -0.91208119952 0.29054049272 
0.27413263262 -0.91955873001 0.28098376279 0.25811043949 -0.92722033837 0.27076958727 0.24263337647 -0.93410606779 0.26140721537 
0.227749262 -0.94014785874 0.25297136672 0.21521400174 -0.94478366771 0.24694374112 0.20532120248 -0.94783774697 0.24362536646 
0.19919213876 -0.94910455193 0.24393783749 0.19744269457 -0.94829161953 0.24847529262 0.20028218774 -0.94527668258 0.25716687459 
0.2086454018 -0.93961118462 0.27085879444 0.22174509096 -0.93117513389 0.28819954572 0.24074303213 -0.91928896084 0.31008412484 
0.26390304972 -0.90418356743 0.33393962525 0.2924257427 -0.88493033239 0.36033458195 0.32393817188 -0.86263045586 0.38623518717 
0.359436916 -0.83626839067 0.41147665711 0.39657229112 -0.80777915319 0.43393258748 0.43596621701 -0.77635441793 0.45254447324 
0.4759112761 -0.74394761986 0.46707425616 0.51664366832 -0.71013787491 0.47577246362 0.55719953593 -0.67605451699 0.48026639461 
0.59749429421 -0.64156643989 0.4785415 0.63705903962 -0.6068635682 0.47336961816 0.67550546744 -0.57183164946 0.46291724525 
0.71265292996 -0.53634994316 0.45021718588 0.74773899102 -0.50015444356 0.43395014583 0.78094698263 -0.46326582319 0.41695536417 
0.81106659337 -0.42523740425 0.39876385185 0.83887494367 -0.3864728067 0.38138858381 0.86274364551 -0.34645335924 0.36540464127 
0.88411884509 -0.30585194106 0.35145685574 0.9010869244 -0.26422192345 0.34110785936 0.91554465795 -0.22217493616 0.3335948404 
0.92540009093 -0.17936350448 0.33128111337 0.93277542768 -0.13639707092 0.33200112577 0.93543253257 -0.093135755733 0.33849264243 
0.93573044241 -0.050143204251 0.34750536348 0.93136894204 -0.0076814610953 0.36149746321 0.92496603432 0.03384937474 0.37705633473 
0.91437562435 0.073470657098 0.39582909714 0.90240764425 0.11139017993 0.4150639362 0.88750326466 0.14568226799 0.43528372811 
0.87211141344 0.1777414333 0.45509339659 0.85563921969 0.20485195901 0.47399414289 0.83945452408 0.22953955541 0.49211538133 
0.8239326714 0.24864095371 0.50843942111 0.80915602182 0.26547146789 0.52397264697 0.79616785968 0.27685186018 0.53760791939 
0.78402452308 0.28627788113 0.55065846688 0.77399325034 0.29081797377 0.56224720205 0.76473430783 0.29376799111 0.57341708667 
0.7574881047 0.29257417589 0.58349542139 0.75095035273 0.29014331216 0.5931533196 0.74633870233 0.28434922283 0.60166815605 
0.74239660761 0.27761299738 0.60968534246 0.74035518706 0.26820232104 0.61628984491 0.73902679203 0.25811482508 0.62220928766 
0.73981370608 0.24601943093 0.62609638664 0.74136923138 0.23348675722 0.62909929337 0.74531010195 0.21959700899 0.62935815519 
0.74995983987 0.20546055926 0.62867083587 0.75691339669 0.19052232963 0.6249084278 0.76438659076 0.17546519774 0.62029930237 
0.77363040064 0.1600029174 0.61280506595 0.78311223294 0.14442182933 0.60472738692 0.79344545317 0.12841577514 0.59456277856 
0.80367995741 0.11217465941 0.58422796833 0.81354328954 0.09504971229 0.57325319908 0.82300571005 0.077470761555 0.56255385249 
0.83088118875 0.058094713164 0.55294472057 0.83809797568 0.037933208353 0.54400350814 0.84256544045 0.014493276744 0.53785013358 
0.84608404076 -0.01016560387 0.53266682367 0.84541901142 -0.040198941466 0.53176061699 0.84339085997 -0.071924255686 0.53195795019 
0.83500147201 -0.11154546082 0.53730513618 0.82462536498 -0.15312469158 0.5436603833 0.80441499849 -0.20439614923 0.55500553303 
0.78146995584 -0.25738981545 0.56695613519 0.74413188074 -0.31944773733 0.58209332914 0.70367446175 -0.38216610609 0.59711806694 
0.64571405767 -0.4485903157 0.61151180084 0.58531977879 -0.51399771072 0.62510023223 0.51032225111 -0.57330421824 0.63385684853 
0.43459612925 -0.63032271847 0.64166871766 0.3541796823 -0.67261217179 0.64339877684 0.27469784716 -0.71247269089 0.64461791729 
0.20169598714 -0.73549259946 0.64229468795 0.13040509931 -0.75671450395 0.64000252855 0.07194650298 -0.76445137786 0.63794339366 
0.015235710457 -0.77107924394 0.63626176044 -0.027223758687 -0.76866443078 0.6376582177 -0.068212025667 -0.76558992804 0.63956724513 
-0.096082073359 -0.75663319319 0.6460466899 -0.12282313371 -0.74725963032 0.65300676644 -0.13847959103 -0.73379357419 0.66468577321 
-0.1533358763 -0.7200689139 0.67668297319 -0.15947028626 -0.70352546842 0.69214847921 -0.16506269996 -0.68689882585 0.707699368 
-0.16403071502 -0.66925532993 0.72429382388 -0.16261302207 -0.65173954648 0.74076046636 -0.1558436304 -0.63599577355 0.75545369794 
-0.14871694853 -0.62057919875 0.76988435628 -0.1358736234 -0.61039779405 0.78011384267 -0.1225898854 -0.60064617864 0.79003041225 
-0.10101170489 -0.59898892834 0.79405371515 -0.078910284228 -0.5977272695 0.79774265318 -0.04487898822 -0.60548509604 0.7938080722 
-0.010343610643 -0.61349431209 0.78951150708 0.038684112063 -0.62873097686 0.77480789774 0.088040940483 -0.64402876514 0.75975429865 
0.15012318988 -0.66168999628 0.73116776234 0.21229423834 -0.67928342101 0.70234314529 0.2796600323 -0.69291017085 0.65959080511 
0.34645972716 -0.7064224102 0.6171977283 0.34645972716 -0.7064224102 0.6171977283 0.34645972716 -0.7064224102 0.6171977283 

FrenetNormal 3 240 double
-0.54368203696 -0.17463134447 -0.82092249099 -0.54368203696 -0.17463134447 -0.82092249099 -0.54368203696 -0.17463134447 -0.82092249099 
-0.53292339916 -0.11768651113 -0.83574716887 -0.52207358646 -0.060259094461 -0.85069747962 -0.50354162146 0.0026903525369 -0.86137558218 
-0.48487833762 0.065734193216 -0.87198065554 -0.45902556283 0.1304402982 -0.87599015514 -0.43298685294 0.19518939278 -0.87982907956 
-0.40246393027 0.25628950523 -0.87614571108 -0.37178503498 0.31726269657 -0.87220069763 -0.33915145249 0.36827992078 -0.86348964688 
-0.3064321381 0.41886047977 -0.8545695594 -0.27071681969 0.45291778824 -0.84801857665 -0.23484242142 0.48609775597 -0.84159338708 
-0.18339683935 0.49057469053 -0.85020192679 -0.1309780583 0.49325768551 -0.85975007459 -0.030323282977 0.43494828762 -0.89106198959 
0.073807960401 0.3722430416 -0.9239424644 0.22397750932 0.22992379873 -0.9225017374 0.37791382868 0.081090683377 -0.91825291206 
0.47983901402 -0.031643672545 -0.86235012596 0.57699253569 -0.14106621568 -0.80170844438 0.62685648438 -0.17260873955 -0.75683729922 
0.67190390248 -0.19621903924 -0.7135724124 0.70536779351 -0.17938754344 -0.68411419731 0.7375325974 -0.15802051916 -0.65620439401 
0.76854947861 -0.11746720625 -0.62595780214 0.79942557685 -0.074560857938 -0.595424623 0.82913185248 -0.022601868695 -0.55361491697 
0.85868215176 0.030564139338 -0.51030167403 0.88388947529 0.083934078507 -0.45244239868 0.90847040809 0.13733343082 -0.39248513789 
0.92632648595 0.18044090206 -0.31892214443 0.94313792616 0.22194963449 -0.2432456391 0.95349557216 0.24150758178 -0.15602665234 
0.9627775858 0.25740706487 -0.066883918671 0.96476971469 0.23810450527 0.03493248355 0.96546265619 0.21252831429 0.13900755938 
0.94542454794 0.13996182347 0.25594851532 0.92144754023 0.058467175681 0.37533398849 0.84902316335 -0.061724814957 0.48995249489 
0.76681143915 -0.18973445061 0.6036079777 0.63902626342 -0.30545583726 0.68028555452 0.50147534807 -0.4185440277 0.74903929434 
0.36091590264 -0.48268117659 0.78353307354 0.21967411018 -0.5357160274 0.81025655238 0.095995646115 -0.5445114572 0.82481556466 
-0.023474937195 -0.54270785906 0.83646017349 -0.12733139808 -0.50764424108 0.84531148093 -0.22724323855 -0.46417809178 0.85345711223 
-0.31478976643 -0.39215287392 0.85684552868 -0.39904764733 -0.3125321591 0.85896872841 -0.46871089377 -0.2063674289 0.84915376434 
-0.53429391983 -0.092781791169 0.83600124909 -0.57824946016 0.041729618662 0.80126876074 -0.6158578036 0.1823822877 0.7602030194 
-0.62272946394 0.32869054003 0.69106046363 -0.62014368333 0.47673897183 0.61327888805 -0.5840540917 0.60641081587 0.51358680752 
-0.53716882763 0.73016131496 0.40683467541 -0.4657520792 0.81918986416 0.29882280717 -0.3860662911 0.89651438531 0.19038630877 
-0.29495084037 0.94170693269 0.10031645 -0.19980903121 0.97558026203 0.016716657473 -0.097056894213 0.98826039416 -0.039227087677 
0.0084944438323 0.9931453273 -0.084998493562 0.12844988988 0.97909780209 -0.099056214103 0.25393249365 0.95778549634 -0.1009447298 
0.39563367881 0.90102633869 -0.06910033482 0.54382229654 0.83008844029 -0.023762775566 0.6736793744 0.71417410665 0.037744193816 
0.79589831065 0.57951959166 0.10598841742 0.86870963404 0.45140610535 0.15323836111 0.92009114946 0.32612969171 0.19138235207 
0.94588952457 0.25101771048 0.19889353352 0.9601442876 0.19854089996 0.19258259361 0.96605867863 0.19569822037 0.1630007136 
0.96806030254 0.21614068864 0.12250160243 0.95670790888 0.26871962494 0.067107918087 0.93884543165 0.33696508942 0.004453129327 
0.90056085949 0.41519670454 -0.062909312856 0.8519359861 0.49848459846 -0.13265537702 0.79112480016 0.57047832046 -0.19453303099 
0.7239079884 0.63653536234 -0.25227472574 0.66618639585 0.68220965059 -0.29386321237 0.61364401378 0.71676607322 -0.32664085821 
0.31707936718 0.22500350307 -0.092598459208 -0.11755050803 -0.56454481299 0.29240791253 -0.26314173679 -0.86240549824 0.43176065785 
-0.23916362631 -0.87180944008 0.42699660901 -0.20025188017 -0.88590017919 0.41549591208 -0.1522588691 -0.90284099772 0.39989860483 
-0.10413686485 -0.9214685706 0.36926152138 -0.055933577239 -0.94115902977 0.32914731869 -0.0086170858295 -0.96045678327 0.26383804011 
0.038120524724 -0.97949818722 0.18208197589 0.083526564635 -0.98476825777 0.062785378448 0.12803238777 -0.98072813109 -0.081890734408 
0.16744182976 -0.93635950253 -0.24880107524 0.20328380493 -0.86376092264 -0.43127537567 0.23367460323 -0.76182157124 -0.58176221392 
0.26011527336 -0.6386207912 -0.70906973177 0.2951835307 -0.52444097084 -0.79063494793 0.33672247846 -0.41702687024 -0.83789343784 
0.40661675956 -0.31873780809 -0.84802244545 0.49851816504 -0.22753086534 -0.82933454142 0.62535171663 -0.1189399394 -0.7386038881 
0.78023684009 0.0036108518368 -0.590020724 0.87740800784 0.12757251741 -0.36760651321 0.926632197 0.25270629397 -0.083855740547 
0.91733542166 0.33725289711 0.13597703324 0.85774719243 0.38691989809 0.30088027674 0.8048694645 0.41959873671 0.41325418443 
0.7579566266 0.43717698655 0.47893534917 0.66855006266 0.4462100548 0.57407966123 0.54007668608 0.44738706902 0.69631106034 