# vtk DataFile Version 5.1
vtk output
ASCII
DATASET POLYDATA
POINTS 240 float
0 0 0 -0.175077 -0.171469 0.180365 -0.350153 -0.342938 0.360731 
-0.52286 -0.546936 0.528372 -0.695547 -0.75121 0.695905 -0.864824 -0.979264 0.8491 
-1.03404 -1.20773 1.00205 -1.19884 -1.45133 1.13911 -1.36352 -1.69532 1.27575 
-1.52276 -1.94589 1.39505 -1.68181 -2.19669 1.51375 -1.83436 -2.4456 1.61385 
-1.98662 -2.69443 1.71314 -2.13121 -2.93323 1.79294 -2.27539 -3.1715 1.87171 
-2.41056 -3.39232 1.93051 -2.54518 -3.61205 1.98805 -2.66941 -3.80828 2.02536 
-2.79291 -4.00281 2.0612 -2.90489 -4.16985 2.07608 -3.01594 -4.33465 2.08925 
-3.11509 -4.47078 2.07942 -3.21314 -4.60428 2.06748 -3.30006 -4.71123 2.02877 
-3.38584 -4.81548 1.98732 -3.46264 -4.89842 1.91428 -3.53844 -4.97896 1.83769 
-3.6087 -5.0461 1.72548 -3.67827 -5.11158 1.6089 -3.74647 -5.17332 1.45556 
-3.8145 -5.23455 1.29732 -3.88513 -5.3022 1.1057 -3.95615 -5.37078 0.909251 
-4.03262 -5.45519 0.687505 -4.10995 -5.54206 0.46183 -4.19366 -5.65201 0.222364 
-4.27843 -5.76581 -0.0194003 -4.36816 -5.90663 -0.26229 -4.45878 -6.05226 -0.50538 
-4.55053 -6.22475 -0.738315 -4.64249 -6.40235 -0.969321 -4.72962 -6.60247 -1.18253 
-4.81577 -6.80714 -1.39215 -4.88974 -7.02651 -1.58132 -4.96109 -7.24902 -1.76612 
-5.01262 -7.47639 -1.93302 -5.05965 -7.70486 -2.09587 -5.0804 -7.92815 -2.24763 
-5.09485 -8.1502 -2.39675 -5.07912 -8.35885 -2.54406 -5.05575 -8.5641 -2.69091 
-5.00167 -8.75103 -2.84552 -4.93941 -8.93309 -3.00219 -4.84917 -9.09586 -3.17449 
-4.75111 -9.25324 -3.35117 -4.63023 -9.39427 -3.54816 -4.50265 -9.5305 -3.7511 
-4.3583 -9.65615 -3.975 -4.20879 -9.77854 -4.20534 -4.04793 -9.8973 -4.45312 
-3.88341 -10.0149 -4.70652 -3.71131 -10.1354 -4.97007 -3.53666 -10.257 -5.23704 
-3.35641 -10.3861 -5.50387 -3.17419 -10.5179 -5.77065 -2.98721 -10.6594 -6.02503 
-2.79846 -10.8045 -6.27484 -2.60574 -10.9585 -6.49931 -2.41149 -11.1161 -6.71406 
-2.21507 -11.2796 -6.89129 -2.01779 -11.4456 -7.05353 -1.8219 -11.6127 -7.16839 
-1.6266 -11.7802 -7.26351 -1.43806 -11.9429 -7.30516 -1.25246 -12.1036 -7.32362 
-1.08031 -12.2536 -7.28735 -0.914238 -12.3988 -7.22639 -0.768698 -12.5279 -7.11439 
-0.632791 -12.6494 -6.97845 -0.523772 -12.7508 -6.79958 -0.427863 -12.8424 -6.59978 
-0.363362 -12.9118 -6.36812 -0.314764 -12.9699 -6.12032 -0.299376 -13.0059 -5.85269 
-0.301444 -13.0303 -5.57464 -0.335311 -13.0352 -5.28779 -0.386522 -13.0295 -4.99615 
-0.464987 -13.0089 -4.70428 -0.558872 -12.9799 -4.41228 -0.673056 -12.9421 -4.12541 
-0.799149 -12.8991 -3.84155 -0.937324 -12.854 -3.56496 -1.08285 -12.8076 -3.2928 
-1.23234 -12.7657 -3.02742 -1.38433 -12.7265 -2.76631 -1.53352 -12.6972 -2.50982 
-1.68087 -12.6744 -2.25636 -1.82071 -12.6656 -2.00474 -1.95547 -12.6663 -1.75437 
-2.08035 -12.6833 -1.50342 -2.1983 -12.7117 -1.25207 -2.30617 -12.7568 -0.998734 
-2.40673 -12.814 -0.74395 -2.49868 -12.8869 -0.487152 -2.58416 -12.9716 -0.228845 
-2.66348 -13.07 0.0300743 -2.73801 -13.179 0.289467 -2.80906 -13.3 0.546851 
-2.87731 -13.4305 0.802621 -2.94425 -13.572 1.05294 -3.01011 -13.7226 1.29874 
-3.07575 -13.8841 1.53541 -3.14123 -14.0552 1.76423 -3.20627 -14.2382 1.98066 
-3.27095 -14.4318 2.18606 -3.33373 -14.6386 2.37684 -3.39477 -14.8576 2.55419 
-3.45154 -15.0902 2.71622 -3.50426 -15.3358 2.8637 -3.5499 -15.5943 2.99691 
-3.58858 -15.8655 3.1161 -3.61747 -16.1472 3.22371 -3.6364 -16.4397 3.31957 
-3.64337 -16.7389 3.40787 -3.63777 -17.0452 3.48824 -3.61906 -17.3534 3.56594 
-3.58608 -17.6636 3.64074 -3.54006 -17.9703 3.71801 -3.47936 -18.2731 3.79805 
-3.40696 -18.5673 3.8853 -3.32094 -18.8516 3.98093 -3.2256 -19.1233 4.08749 
-3.11904 -19.3796 4.20718 -3.00618 -19.6207 4.33999 -2.88548 -19.8427 4.48912 
-2.76156 -20.0486 4.65179 -2.63351 -20.2339 4.8319 -2.5048 -20.4043 5.0243 
-2.37521 -20.555 5.23306 -2.2465 -20.6935 5.45147 -2.11899 -20.8155 5.68321 
-1.99257 -20.9293 5.92114 -1.86771 -21.0316 6.16791 -1.74291 -21.13 6.4172 
-1.6182 -21.2227 6.67019 -1.49165 -21.3154 6.92235 -1.36226 -21.4082 7.17325 
-1.22881 -21.5035 7.42077 -1.08891 -21.6029 7.66295 -0.943017 -21.7059 7.90027 
-0.787274 -21.8146 8.12959 -0.62434 -21.9262 8.35364 -0.449149 -22.0425 8.56871 
-0.266519 -22.1596 8.77902 -0.0707409 -22.278 8.98092 0.131805 -22.3944 9.17921 
0.34676 -22.507 9.3709 0.567069 -22.6146 9.56051 0.797563 -22.7129 9.74617 
1.03157 -22.8039 9.93134 1.27252 -22.8804 10.1156 1.51507 -22.9479 10.3007 
1.76091 -22.9971 10.4879 2.0067 -23.0366 10.6772 2.25237 -23.0555 10.8707 
2.49682 -23.0652 11.067 2.73855 -23.0542 11.269 2.97847 -23.0348 11.4737 
3.21419 -22.9962 11.6846 3.44801 -22.9509 11.8976 3.67724 -22.8892 12.1161 
3.90478 -22.8225 12.336 4.12808 -22.743 12.5595 4.34995 -22.6603 12.7836 
4.5681 -22.569 13.009 4.78493 -22.476 13.2342 4.99818 -22.3786 13.4586 
5.20991 -22.281 13.682 5.41736 -22.1831 13.9028 5.62284 -22.0865 14.1225 
5.82249 -21.9935 14.3387 6.0196 -21.9029 14.5537 6.20882 -21.8193 14.7651 
6.39508 -21.7388 14.9755 6.57173 -21.6678 15.1827 6.74546 -21.6001 15.3891 
6.90924 -21.5432 15.5931 7.07078 -21.4892 15.7964 7.22433 -21.4458 15.9974 
7.37699 -21.4048 16.1978 7.52633 -21.3727 16.3957 7.67656 -21.3422 16.5927 
7.83032 -21.3181 16.7862 7.98675 -21.2948 16.9786 8.15435 -21.275 17.1662 
8.32601 -21.2554 17.3524 8.51563 -21.2369 17.5324 8.71 -21.2184 17.7109 
8.92659 -21.1996 17.8824 9.14787 -21.1808 18.0524 9.39241 -21.162 18.2153 
9.64096 -21.1436 18.3768 9.91065 -21.1269 18.5319 10.1832 -21.1111 18.6862 
10.4719 -21.1005 18.8354 10.7621 -21.0915 18.9841 11.0615 -21.0919 19.1301 
11.361 -21.0945 19.2761 11.6617 -21.1108 19.4221 11.9614 -21.1297 19.5686 
12.2537 -21.1662 19.7183 12.5439 -21.2053 19.869 12.8189 -21.2642 20.0262 
13.0911 -21.3256 20.1846 13.3409 -21.4072 20.3527 13.5875 -21.4909 20.5223 
13.8064 -21.5931 20.7042 14.0221 -21.6969 20.8876 14.2066 -21.8161 21.0853 
14.3882 -21.9363 21.2843 14.5377 -22.0675 21.4982 14.6847 -22.1992 21.7133 
14.8012 -22.3372 21.9428 14.9158 -22.4753 22.1732 15.0036 -22.6154 22.4164 
15.09 -22.7555 22.6603 15.155 -22.8946 22.9141 15.2192 -23.0336 23.1683 
15.2683 -23.1708 23.4286 15.3171 -23.3081 23.6889 15.3578 -23.4452 23.9504 
15.3985 -23.5824 24.2116 15.4382 -23.7235 24.4682 15.4781 -23.8649 24.7245 
15.5242 -24.0155 24.9695 15.5706 -24.1665 25.2142 15.6304 -24.3331 25.4407 
15.6904 -24.4999 25.667 15.7712 -24.6892 25.8682 15.852 -24.8784 26.0693 

LINES 2 240
OFFSETS vtktypeint64
0 240 
CONNECTIVITY vtktypeint64
0 1 2 3 4 5 6 7 8 
9 10 11 12 13 14 15 16 17 
18 19 20 21 22 23 24 25 26 
27 28 29 30 31 32 33 34 35 
36 37 38 39 40 41 42 43 44 
45 46 47 48 49 50 51 52 53 
54 55 56 57 58 59 60 61 62 
63 64 65 66 67 68 69 70 71 
72 73 74 75 76 77 78 79 80 
81 82 83 84 85 86 87 88 89 
90 91 92 93 94 95 96 97 98 
99 100 101 102 103 104 105 106 107 
108 109 110 111 112 113 114 115 116 
117 118 119 120 121 122 123 124 125 
126 127 128 129 130 131 132 133 134 
135 136 137 138 139 140 141 142 143 
144 145 146 147 148 149 150 151 152 
153 154 155 156 157 158 159 160 161 
162 163 164 165 166 167 168 169 170 
171 172 173 174 175 176 177 178 179 
180 181 182 183 184 185 186 187 188 
189 190 191 192 193 194 195 196 197 
198 199 200 201 202 203 204 205 206 
207 208 209 210 211 212 213 214 215 
216 217 218 219 220 221 222 223 224 
225 226 227 228 229 230 231 232 233 
234 235 236 237 238 239 
CELL_DATA 1
FIELD FieldData 3
Length 1 1 double
68.864172124 
Tortuosity 1 1 double
0.74924812373 
ClusterLabel 1 1 int
1 
POINT_DATA 240
FIELD FieldData 6
Curvature 1 240 double
0 0.086549185113 0.17309837023 0.15452920124 0.13506919874 0.12214826491 0.10933911003 0.10139435165 0.093575396624 
0.089875650924 0.086319182069 0.086934960793 0.087733732832 0.094079720784 0.10072025117 0.11691325486 0.13370328813 0.17106217077 
0.20990349301 0.29626777665 0.38652030259 0.56145750113 0.74416393568 0.93937339835 1.1358563176 1.0863635391 1.009284701 
0.77357895212 0.51841895941 0.340154822 0.1721434653 0.11794700647 0.080166157899 0.098291716039 0.12510176454 0.14400458402 
0.16158953199 0.17201289998 0.18115994679 0.18458021087 0.18691238623 0.18507417115 0.18239345295 0.18088574171 0.1796293891 
0.19132461646 0.20595731557 0.23997783981 0.27864336382 0.31866311077 0.35902497721 0.36965561959 0.37237902153 0.33898982759 
0.2955046391 0.24123944013 0.18381054245 0.13465333172 0.088041255452 0.052263349026 0.019976452885 0.023449858363 0.038977298093 
0.061015187422 0.085346530586 0.113225175 0.14240857389 0.18063102948 0.22232196031 0.27916202919 0.34206175328 0.42456946235 
0.51524716516 0.61147957273 0.71012124984 0.77269314738 0.81898965658 0.80659499563 0.76666620549 0.7005046913 0.62155472416 
0.54818585415 0.47764285612 0.41790648646 0.36385052403 0.31706545507 0.27424632801 0.23505556565 0.19791769383 0.1629666227 
0.12929847464 0.1010084868 0.07598900181 0.072160372415 0.081684884903 0.10458613574 0.13621942412 0.16461839802 0.19083079311 
0.20598845552 0.21340780507 0.21015348775 0.19916462923 0.18376859932 0.16506719087 0.1491863159 0.13549451169 0.1291378646 
0.12867157094 0.13497124559 0.14689187852 0.16260720115 0.18158358522 0.20019044977 0.21846885253 0.23131205937 0.23915839256 
0.23959148357 0.23297591807 0.22102903229 0.20383968157 0.18612260208 0.16786884926 0.1533104263 0.14263847095 0.13823141945 
0.14063882479 0.14899125375 0.16403183429 0.18263188938 0.20537387848 0.22797770053 0.25041521039 0.26809852029 0.27986150569 
0.28313392302 0.27546656994 0.25984254895 0.23360963739 0.20269387281 0.16531577107 0.12699920034 0.08734195964 0.056695448276 
0.039377307388 0.040105076272 0.068477643105 0.093691364411 0.11389213521 0.12895768198 0.13557863816 0.13817009632 0.13389309196 
0.12858775289 0.12146489203 0.11610050858 0.11396000038 0.11449450197 0.12011804657 0.12697489103 0.13626750273 0.1448634225 
0.15203023063 0.15715396495 0.15792272614 0.156489572 0.15017649738 0.14197101318 0.12940247354 0.11617366576 0.10136021441 
0.086564499277 0.071813124669 0.057650458224 0.045022000928 0.032920917818 0.022253633277 0.014634691581 0.015669110217 0.019451187108 
0.031384650155 0.043714594588 0.05727499849 0.070289768872 0.081531230311 0.090847289482 0.093602718705 0.0942156923 0.08716526692 
0.081396243831 0.080445293354 0.083794922971 0.10416768213 0.12436306303 0.14381808251 0.16022770775 0.16320991296 0.16372467933 
0.15272473109 0.14066617939 0.12336754057 0.10633598567 0.090710135651 0.076305313812 0.068751816791 0.062911303873 0.067348695579 
0.07296892711 0.086203690011 0.099909204273 0.11687859464 0.13405284491 0.15276354444 0.17130739045 0.18849073849 0.20516400346 
0.21728902757 0.22854322802 0.23124752343 0.23304338768 0.22493735234 0.21622643447 0.20012250775 0.18369637504 0.16279963423 
0.14176185844 0.11846752281 0.095126739963 0.070911201176 0.047405866511 0.040093185819 0.034002135203 0.063032949262 0.092260554994 
0.12909743876 0.16595427246 0.20397817702 0.24067132891 0.12033566445 0 
Torsion 1 240 double
0 0 0 -0.057769205901 -0.11602798134 -0.13969284048 -0.16276635062 -0.1925497493 -0.22250667957 
-0.25390254772 -0.28534846588 -0.30665979933 -0.32752663346 -0.32191885831 -0.31490535171 -0.26654484035 -0.21560014119 -0.12422197395 
-0.029929682879 0.057800925906 0.14499466978 0.17319746374 0.19598824395 0.19191111451 0.18509743871 0.20687456887 0.23185814455 
0.34842426305 0.47622220284 1.1399869457 1.8752139289 2.4443233564 2.9894735211 1.9091765202 0.57638287226 0.23489548552 
0.058625808997 -0.026572450191 -0.095540159756 -0.16531222677 -0.23523712171 -0.34124659061 -0.45454587243 -0.60914244002 -0.77258842599 
-0.84429976454 -0.89520530677 -0.80278871566 -0.6760345301 -0.56257800879 -0.45248089738 -0.38817987932 -0.33605867332 -0.31045413168 
-0.29226285104 -0.28063927229 -0.27094317127 -0.23164601518 -0.18324084214 1.5397407265 3.8023080225 2.7692834684 0.62538525683 
-0.010894367125 -0.11608107954 -0.13983420099 -0.13363473726 -0.11920909204 -0.10162688882 -0.082019303921 -0.061601566344 -0.042269683222 
-0.023390239457 -0.0077561773719 0.0064702492859 0.018872653672 0.030452023619 0.042207527427 0.054045661935 0.065076370343 0.075713458528 
0.084152994592 0.091479846037 0.098593251017 0.10559445978 0.116984067 0.1307673461 0.16436157542 0.20916463182 0.32676042435 
0.48706128874 0.9300568139 1.5449612544 1.5743342569 1.2347422436 0.86411112928 0.47321837962 0.25181758712 0.1450029065 
0.070830907702 0.019508786169 -0.032152659196 -0.084059991395 -0.14997196402 -0.22638741697 -0.30361698905 -0.38147841478 -0.39718252467 
-0.36297242638 -0.28456535291 -0.16944079238 -0.070904843495 0.01337526726 0.076506204525 0.12083787647 0.15791905132 0.1883344466 
0.2219064869 0.25847992739 0.30632353396 0.36524947051 0.43860268398 0.52662770449 0.61077456021 0.69084265642 0.7227765999 
0.70235409656 0.64772803298 0.55462296414 0.4679504635 0.38876313313 0.32300065257 0.27339771345 0.23244437758 0.20226224576 
0.17611677571 0.15517238907 0.13350216843 0.11086416912 0.077296322437 0.028645286393 -0.12146531328 -0.4165181467 -1.0763744508 
-2.2758358886 -2.4317198331 -0.98893187294 -0.057452394107 0.062602755746 0.16392210707 0.23443147859 0.31128848065 0.3989653075 
0.48986256966 0.58645176401 0.6590046247 0.68749087371 0.67975342417 0.60310259689 0.52108818296 0.42848068538 0.34524453776 
0.28123167211 0.22421784403 0.18212301706 0.1434250565 0.11225528639 0.082640153502 0.056609323075 0.030626538258 0.0047590629021 
-0.018228626146 -0.034016849424 -0.032924889308 0.012157851775 0.22997915789 0.91743343769 1.3904485732 1.2547332344 1.0204035893 
0.49351816864 0.085993640542 0.048899468751 0.032028992435 0.080885526412 0.14865211128 0.28085294364 0.46119131412 0.81371395557 
1.1430263215 1.3850680515 1.4864438764 1.0310171606 0.62227970386 0.40841915436 0.21751057182 0.12779929817 0.042265907482 
-0.023770696053 -0.095025937903 -0.19211343941 -0.30093779738 -0.4715350841 -0.64086913239 -0.80311500944 -0.9262394572 -0.81463532922 
-0.69764806942 -0.54600689843 -0.40477540009 -0.33571763209 -0.27148873721 -0.24347639075 -0.21705548488 -0.20361094075 -0.19083695907 
-0.18404215909 -0.17777092658 -0.17664017473 -0.17552143807 -0.17453366702 -0.17318813759 -0.16747000555 -0.16071289977 -0.1395400334 
-0.11503761429 -0.037262351276 0.058576468714 0.49461227844 0.94523182916 1.7283606746 2.4490152729 1.3735352696 0.32227340525 
0.20744624558 0.093757749494 0.046681073588 0 0 0 
FrenetTangent 3 240 double
-0.56181879963 -0.60702050153 0.56203714033 -0.56181879963 -0.60702050153 0.56203714033 -0.56181879963 -0.60702050153 0.56203714033 
-0.54908001494 -0.64226930182 0.53260943072 -0.53623327444 -0.67781682075 0.50293233375 -0.52626599147 -0.70379542706 0.47559893386 
-0.51634792999 -0.7296104622 0.44830559717 -0.50956473595 -0.74869023901 0.42278538269 -0.50286261606 -0.7675958281 0.39731102482 
-0.4994097269 -0.78154801334 0.37278128903 -0.49606985446 -0.79532790627 0.34828440966 -0.49608218264 -0.8052096678 0.32379207279 
-0.49624153716 -0.81492045865 0.29929993515 -0.49987916397 -0.82129509989 0.27363555095 -0.5037014778 -0.82749260044 0.24790892358 
-0.51116866959 -0.83055856716 0.2189980632 -0.51886366626 -0.83342881301 0.18988818826 -0.53037760155 -0.83286462751 0.15335340056 
-0.54216677565 -0.83205291543 0.11628348401 -0.55730100562 -0.82594116984 0.062803260335 -0.57270892199 -0.81939578514 0.0079803751712 
-0.58689418507 -0.80062889349 -0.077923598185 -0.60096727812 -0.78074076267 -0.16667904752 -0.59818099839 -0.73351025074 -0.29167872016 
-0.59367756031 -0.68349486665 -0.42036993406 -0.55806827336 -0.60618857971 -0.54553015807 -0.51897047999 -0.52582163077 -0.67029438321 
-0.46999247326 -0.4567893801 -0.7472339348 -0.41980274225 -0.38914723393 -0.81830819623 -0.38382836777 -0.35542203622 -0.85065591368 
-0.34974937415 -0.3262190983 -0.87784009193 -0.33140993172 -0.32499566885 -0.88558298974 -0.31534061687 -0.32780774544 -0.89052185673 
-0.30905886062 -0.34872969328 -0.88443790154 -0.30429750183 -0.372464825 -0.87664166329 -0.30372245271 -0.40727186555 -0.8603768389 
-0.30384512187 -0.44392422422 -0.84270058347 -0.30358921921 -0.48637268639 -0.81776340734 -0.30326584831 -0.5298541175 -0.79153220573 
-0.29853676424 -0.57443368413 -0.76018209566 -0.29297059466 -0.6192218965 -0.72785939298 -0.27937423455 -0.66089000869 -0.69439790749 
-0.26415561371 -0.70192779762 -0.66070636487 -0.2377194114 -0.73633670703 -0.63137751681 -0.20887944163 -0.76932514226 -0.60298353187 
-0.16619142879 -0.79230316408 -0.58474714717 -0.12036262267 -0.81301078286 -0.56881454809 -0.059832759024 -0.81899526738 -0.56716899325 
0.0042192329884 -0.82145233431 -0.5689463761 0.078462608786 -0.8034657239 -0.58456407154 0.15528064996 -0.78031439499 -0.60367826701 
0.22959479709 -0.73638459351 -0.62983558241 0.30324301494 -0.68692860252 -0.65786606802 0.36064050636 -0.62846742125 -0.68416675906 
0.41349478393 -0.56748865991 -0.70998385161 0.44698100279 -0.51346498244 -0.73001499538 0.47478311746 -0.46148247088 -0.74834808895 
0.48946814225 -0.42447379053 -0.76093708079 0.50011713939 -0.39207244285 -0.7717586567 0.5053025952 -0.37479253755 -0.777193665 
0.50872757658 -0.36238509701 -0.78089300152 0.51236163084 -0.36213917886 -0.77865065896 0.51606615909 -0.36599265028 -0.77440550323 
0.52357403168 -0.37883967507 -0.76278898851 0.53242171875 -0.39485488342 -0.74857574506 0.54701813519 -0.41733935782 -0.72460445295 
0.56372902679 -0.44220333239 -0.69704399352 0.58658961941 -0.471538445 -0.65579576942 0.61180998103 -0.50258922686 -0.60929526352 
0.64134493174 -0.53552663477 -0.54299465018 0.67260571808 -0.5692186931 -0.46877399386 0.70188296883 -0.59937104293 -0.36730052836 
0.73033374641 -0.62804851421 -0.25447172571 0.74326821924 -0.64257252905 -0.1122794425 0.74947272857 -0.65095769531 0.042648808181 
0.72464229007 -0.63338645197 0.21030690164 0.68580827755 -0.60410317014 0.38370894855 0.61586469147 -0.55009807366 0.53746842767 
0.53132649064 -0.48449508882 0.68201287498 0.43304227271 -0.40952247235 0.78877839111 0.32805687143 -0.32998216045 0.87712667828 
0.22477959637 -0.25404976847 0.93238712108 0.12236719533 -0.17994417139 0.97089422496 0.028288650569 -0.11468005705 0.98773904069 
-0.061409277426 -0.054063388785 0.99319726905 -0.14068252303 -0.0035756385305 0.98665803688 -0.21426957824 0.041387247354 0.97357473533 
-0.27697712686 0.076200506036 0.95581153543 -0.33352916518 0.10527121249 0.9354004983 -0.37953853879 0.12445306693 0.91575588717 
-0.41936288243 0.13783346153 0.89656091263 -0.44930892913 0.14160040426 0.88172844999 -0.47324790337 0.13952132898 0.8695488662 
-0.48788646373 0.12798034997 0.863281063 -0.49666448931 0.11047707548 0.8607384914 -0.49653764381 0.083908991704 0.86339593846 
-0.49059789637 0.051423601872 0.86944784215 -0.47663239588 0.011586363475 0.87783584997 -0.45724103416 -0.033221138742 0.88780319581 
-0.43239001196 -0.081500139739 0.89638896619 -0.40371722741 -0.13220918988 0.90400763376 -0.37384045032 -0.18182766958 0.90797712461 
-0.34309121486 -0.23065588084 0.90930228453 -0.31516361604 -0.27577421625 0.90696219287 -0.28935224469 -0.31811014477 0.90187316254 
-0.26844617219 -0.35690712095 0.89396616114 -0.25134719729 -0.39295744757 0.88387207773 -0.23915063854 -0.42754316637 0.87113770148 
-0.23089086851 -0.46095276072 0.85628309008 -0.22609386177 -0.49532788466 0.83796280443 -0.22417361223 -0.53050514087 0.81676334324 
-0.22339641063 -0.56819736622 0.79073997929 -0.22360151586 -0.60805089319 0.76057107392 -0.22219871009 -0.65018028742 0.72459322559 
-0.21936665009 -0.69433267478 0.68345187243 -0.21249886968 -0.73831646061 0.63730873697 -0.20192083017 -0.78214524181 0.58656718876 
-0.18617209998 -0.82249312248 0.53405376751 -0.16550697539 -0.85953129447 0.4798556145 -0.14014733478 -0.89099877687 0.42833871016 
-0.11017142009 -0.91698841451 0.379458367 -0.076861585272 -0.93725271449 0.33690458304 -0.040161323197 -0.95169463716 0.3007845881 
-0.0014682086892 -0.96125101995 0.27289611426 0.039320836826 -0.96566916249 0.25366492987 0.081080151615 -0.96584976397 0.24331593756 
0.12389484702 -0.96142111026 0.242628277 0.16677430922 -0.9526629191 0.25082048875 0.20972663406 -0.93903399829 0.26900255687 
0.25154468139 -0.92026445277 0.29546207449 0.29204284218 -0.89551308943 0.33155353334 0.3296383833 -0.86469215353 0.37416992381 
0.36374003036 -0.82656525067 0.42464039863 0.39294185977 -0.7825853704 0.47818787982 0.41604202945 -0.73131687676 0.53556710482 
0.43321383821 -0.67675531961 0.59150839352 0.44274718194 -0.61795077679 0.64559695662 0.44742055363 -0.56023645603 0.69468434024 
0.4456139626 -0.5039757647 0.73710348457 0.44172045581 -0.45283858858 0.77329522521 0.43494700526 -0.40877186343 0.80089314877 
0.4290859022 -0.37191331325 0.82277850084 0.42452815268 -0.3453521559 0.83650303647 0.42300261027 -0.32602945071 0.8454098453 
0.42596220753 -0.31741362267 0.84719043326 0.43282003153 -0.31444869674 0.84475613554 0.44564960714 -0.32014047191 0.83586499165 
0.46199742886 -0.32877561065 0.82331096419 0.4839285542 -0.34208173938 0.80494409974 0.50806815813 -0.35526269288 0.78401950273 
0.53583948239 -0.36823780264 0.75888885661 0.5642686037 -0.37850133644 0.73303825109 0.59381897 -0.38414286578 0.70596044205 
0.62281781243 -0.38566860389 0.68010005945 0.65084186847 -0.37991992031 0.65639140727 0.67752632193 -0.36979632182 0.63522783349 
0.70175483734 -0.351652046 0.61873023677 0.72409343881 -0.32951734876 0.60528135088 0.74283659424 -0.29979111806 0.59763245145 
0.75921676559 -0.26682093494 0.59283000837 0.77093004338 -0.22744394579 0.59364931659 0.77995093235 -0.18594429008 0.59657972577 
0.78344897243 -0.14009044654 0.60384059846 0.78432308555 -0.093580941783 0.61218364869 0.77960409118 -0.045673843387 0.6228334458 
0.77290421663 0.0014239769369 0.63356607228 0.7618142833 0.046728262075 0.64448226655 0.74980330749 0.090093189302 0.65479267906 
0.73566881708 0.12898681912 0.66370642807 0.72167358436 0.16541227207 0.67174771893 0.70801257011 0.19591410056 0.67769511025 
0.69517919208 0.22396204531 0.68283869244 0.68441490462 0.2458752807 0.68597275179 0.67467574699 0.26560313294 0.68858431174 
0.66760813983 0.27963574429 0.68983420655 0.66135895323 0.29176121733 0.69097704805 0.65733484752 0.29870165811 0.69182883836 
0.65369966309 0.30389806966 0.69304936937 0.65116851325 0.30414368854 0.69531664818 0.6485504099 0.30278898867 0.6983329394 
0.64567434445 0.29668667651 0.70357130078 0.64235910794 0.28911900505 0.70970299797 0.63768092678 0.2770036668 0.71860711663 
0.63247862904 0.26365773092 0.72818420007 0.62557295246 0.24631235273 0.73994841907 0.61855281676 0.22820572393 0.75170702469 
0.61114267223 0.20750520419 0.76344650321 0.60454831128 0.18672367127 0.77424484925 0.60087194546 0.16565236048 0.78167683678 
0.59905453626 0.14522925881 0.7873432841 0.60422680391 0.12724342339 0.78637130026 0.61174539767 0.11036584984 0.78318262968 
0.62855153223 0.097875146136 0.77121957409 0.64719463164 0.086520779149 0.75710498334 0.67350506264 0.079909382803 0.73401007193 
0.70042039458 0.074032573879 0.70944186814 0.73000278975 0.07139462768 0.67837778432 0.75906520532 0.068922210512 0.646899162 
0.78570104942 0.067222262154 0.61348602662 0.81131186977 0.065203375821 0.58060687971 0.83184882256 0.061605746509 0.55037097575 
0.85134432456 0.057332607672 0.52123806644 0.86535850662 0.049504155542 0.4979103921 0.87848585146 0.040799193551 0.47588483285 
0.8866370541 0.027176037336 0.46116558603 0.89400014852 0.012609635282 0.44775623818 0.89663459356 -0.0076162418031 0.44220628418 
0.89845412395 -0.028761121578 0.43790636003 0.89502764128 -0.055822081164 0.44165350295 0.89065121761 -0.083664859172 0.44655358961 
0.87968853638 -0.11692824489 0.45944741948 0.8675949155 -0.15070731657 0.47334434793 0.84701924724 -0.18835403286 0.49476451576 
0.82518809042 -0.22612528349 0.51695135652 0.79311987297 -0.26491196802 0.54538953036 0.75986465633 -0.30337198923 0.57424258455 
0.71602536352 -0.33891926253 0.60679498857 0.67133951279 -0.37375713788 0.63936239676 0.61834200252 -0.40163001533 0.67207711853 
0.56504868561 -0.42860776329 0.70449496397 0.50853107637 -0.44582859971 0.73367685742 0.45224971326 -0.46225100237 0.76242422052 
0.39885580288 -0.46891477004 0.78586065714 0.34603125743 -0.47506195223 0.80887370275 0.30110665044 -0.47404151073 0.8260121981 
0.25686524802 -0.47283423036 0.84279572198 0.2235551184 -0.46863752797 0.85389970229 0.19089013091 -0.46453842874 0.86470818181 
0.17037532013 -0.46227752238 0.86995139646 0.15040480229 -0.46029273229 0.87493008084 0.14284416352 -0.4646033934 0.87387747509 
0.13571813771 -0.46924823544 0.87256294333 0.14108723452 -0.48350077932 0.86371803865 0.14678391003 -0.49803986738 0.85460035516 
0.16514696186 -0.52365866331 0.83493522488 0.18371895942 -0.54944353718 0.81501173229 0.21451428141 -0.58494397078 0.7799740451 
0.24505081919 -0.62014608141 0.74523079226 0.24505081919 -0.62014608141 0.74523079226 0.24505081919 -0.62014608141 0.74523079226 

FrenetNormal 3 240 double
0.2623774256 -0.7750689603 -0.57482709863 0.2623774256 -0.7750689603 -0.57482709863 0.2623774256 -0.7750689603 -0.57482709863 
0.2645012249 -0.73837605041 -0.61771252802 0.26664302251 -0.70137218366 -0.66096139325 0.25187356962 -0.66305610383 -0.70247526399 
0.23681503553 -0.62471759301 -0.7439594767 0.20303222976 -0.58140106622 -0.78484572657 0.16876517558 -0.53795579764 -0.8257165119 
0.11512016847 -0.4850696949 -0.86270743441 0.060801145613 -0.43185521532 -0.89956340517 -0.0061933822323 -0.36805261679 -0.9247372357 
-0.073743853278 -0.30378562707 -0.94939869166 -0.13924263839 -0.23421458975 -0.95734005543 -0.20463248442 -0.16436192157 -0.96439362669 
-0.24884894131 -0.10003392388 -0.96025198336 -0.29174206138 -0.036051218081 -0.95541063912 -0.29990803402 0.015614707838 -0.95246220644 
-0.3055711492 0.066392937911 -0.94965019982 -0.27193963529 0.1109382567 -0.95415507553 -0.23509310628 0.15497361002 -0.95925860525 
-0.16223383137 0.21226045665 -0.95885118872 -0.086070634821 0.2707630366 -0.9579381808 0.019345345752 0.35206894794 -0.92500728228 
0.12774077655 0.4356974208 -0.88881530231 0.24065683625 0.50875748887 -0.81152750868 0.35407988238 0.58063231528 -0.72963083876 
0.44956579768 0.60036340356 -0.64986176924 0.54285187618 0.61369950508 -0.57035363185 0.66466718189 0.51137531982 -0.51426857772 
0.79028638456 0.39362976299 -0.46130660136 0.67998904009 -0.1543755564 -0.20010356528 0.53566527054 -0.76443757231 0.091134239024 
0.30760515593 -0.87919705792 0.23999881009 0.066537453749 -0.91701634464 0.36674715074 0.0088157567285 -0.90350225736 0.42458975635 
-0.018348272765 -0.88143260774 0.47094807278 0.00091776412704 -0.85846275659 0.51023924835 0.028458466315 -0.83533247349 0.54827093347 
0.087970462846 -0.80878569262 0.57661850556 0.1535570053 -0.78158977717 0.60312609618 0.2570503588 -0.74444596525 0.60508186831 
0.36820165393 -0.70529247728 0.60207767712 0.51933793986 -0.63261306354 0.54212225098 0.6790424381 -0.55274952285 0.46996298879 
0.81254085104 -0.41118276751 0.32632837324 0.94009561577 -0.25562146863 0.16648285281 0.97086488938 -0.084030918952 0.019451558303 
0.97844597241 0.091399972067 -0.12450966124 0.93425285265 0.24085591965 -0.20540167424 0.87697993429 0.38374977626 -0.270360414 
0.80181374865 0.50198024728 -0.29459518068 0.72188871534 0.61365130725 -0.30799910345 0.6347006436 0.69921387847 -0.30778943802 
0.545482045 0.77747730231 -0.3037738232 0.45796146473 0.83005206309 -0.30350454389 0.37093921594 0.87508775971 -0.30433473262 
0.2975729501 0.89998992241 -0.3106838266 0.22840852517 0.91869715159 -0.31873104528 0.32809033453 0.89640955793 -0.21946768127 
0.48217815271 0.86091252136 -0.085626462835 0.45987284482 0.2633175106 0.18507049537 0.37810917983 -0.52374872742 0.5018986018 
0.36773481479 -0.70649006124 0.60330289732 0.38250895315 -0.67634421288 0.62881925944 0.39747532403 -0.63079861858 0.66340310225 
0.41251240113 -0.5795887499 0.70132211038 0.40902268005 -0.52485504193 0.74326524862 0.39842383874 -0.46876916306 0.7867525298 
0.36639014139 -0.40564920138 0.83283371797 0.32578250162 -0.33971560658 0.87995246894 0.25840927789 -0.26267766887 0.92244816731 
0.17988372752 -0.1810129216 0.96301759374 0.075062660359 -0.084834386487 0.9824055959 -0.041163691193 0.017639285529 0.99260647427 
-0.16973717382 0.12531711235 0.96227373527 -0.30388192291 0.23534315537 0.91365143722 -0.42519467574 0.33016205898 0.82513583508 
-0.54048747972 0.41784674904 0.7179048557 -0.6289349042 0.47855990432 0.5937519117 -0.70429520618 0.52612443638 0.46134950996 
-0.75546479943 0.55040502761 0.33210105329 -0.79438593255 0.5628962817 0.20444953084 -0.81792889332 0.55864181505 0.088290862825 
-0.83338845579 0.54558511058 -0.021826689391 -0.84057643548 0.52134588573 -0.11795581751 -0.84325264273 0.49100710431 -0.20645489613 
-0.84595012367 0.44644010825 -0.28070983095 -0.84865964103 0.39382293813 -0.34690557913 -0.8583481175 0.30593712477 -0.39721196701 
-0.87213091664 0.19736037404 -0.43819659686 -0.85167971801 -0.042283423171 -0.4263660456 -0.81041054778 -0.36163015406 -0.38241815449 
-0.56476126821 -0.64069213899 -0.22476042547 -0.19032452248 -0.89436921549 0.0045500781096 0.064767793313 -0.97351153071 0.13157622056 
0.24195471734 -0.93872143231 0.19183340504 0.35440694863 -0.9098279655 0.20441915467 0.42309488062 -0.88492095385 0.18477632861 
0.47216094969 -0.86708942955 0.14891918039 0.50749171472 -0.85421074639 0.10171200664 0.52749079903 -0.84647475897 0.047672312533 
0.53637996978 -0.84246536265 -0.011318483298 0.52457875047 -0.84550942817 -0.074789829765 0.49725973862 -0.85384359007 -0.14162158921 
0.44075368317 -0.86616175046 -0.21342279066 0.36159499686 -0.88157196939 -0.28908087248 0.26706443024 -0.88591922746 -0.36148358715 
0.1601897779 -0.88138259273 -0.43127214335 0.079308740489 -0.86506492906 -0.48996555797 0.02002239856 -0.83895994902 -0.53944147036 
-0.0052333437459 -0.8105541756 -0.58391391224 -0.0012440394998 -0.78017115786 -0.62408649664 0.023691386068 -0.74633613218 -0.66243021915 
0.067245586143 -0.70943265499 -0.69914828663 0.12198919586 -0.66654488026 -0.73151952968 0.18701984347 -0.61815541265 -0.75989449864 