# vtk DataFile Version 5.1
vtk output
ASCII
DATASET POLYDATA
POINTS 240 float
0 0 0 -0.19809 -0.243806 -0.0804306 -0.396179 -0.487611 -0.160861 
-0.601665 -0.669601 -0.126322 -0.807213 -0.851067 -0.0908087 -1.01482 -0.985574 0.0319172 
-1.22245 -1.11928 0.156134 -1.42695 -1.22046 0.340323 -1.63137 -1.3208 0.526062 
-1.82774 -1.40224 0.745295 -2.02383 -1.48302 0.965693 -2.20758 -1.5569 1.19447 
-2.3908 -1.63048 1.42361 -2.55852 -1.70668 1.63829 -2.72542 -1.78301 1.8522 
-2.87545 -1.86834 2.03215 -3.02444 -1.95424 2.20997 -3.15762 -2.05226 2.33875 
-3.28966 -2.15116 2.464 -3.40965 -2.26259 2.53053 -3.52865 -2.37505 2.59225 
-3.64148 -2.49874 2.59157 -3.75375 -2.62347 2.58516 -3.86653 -2.75757 2.51893 
-3.97936 -2.89263 2.44661 -4.09833 -3.03561 2.32291 -4.21799 -3.17948 2.19344 
-4.34672 -3.33079 2.02552 -4.47657 -3.48301 1.85288 -4.61476 -3.64327 1.65698 
-4.75406 -3.80459 1.45799 -4.89716 -3.97519 1.25052 -5.04082 -4.14712 1.04183 
-5.18071 -4.32943 0.836544 -5.32001 -4.51336 0.631782 -5.44623 -4.70783 0.437585 
-5.57028 -4.90406 0.245148 -5.67185 -5.10957 0.0650956 -5.76942 -5.31672 -0.112749 
-5.83659 -5.53049 -0.281164 -5.89799 -5.74551 -0.447788 -5.9238 -5.96369 -0.611115 
-5.94242 -6.1825 -0.773775 -5.92377 -6.40121 -0.940187 -5.89712 -6.61989 -1.1074 
-5.83504 -6.8363 -1.28401 -5.76491 -7.0522 -1.46275 -5.66416 -7.26536 -1.65322 
-5.55607 -7.47786 -1.84651 -5.42428 -7.68884 -2.0495 -5.2865 -7.89943 -2.25495 
-5.13307 -8.11089 -2.46357 -4.97547 -8.32258 -2.67304 -4.81067 -8.53774 -2.87542 
-4.64385 -8.75387 -3.07581 -4.4781 -8.97514 -3.25657 -4.31266 -9.19792 -3.43156 
-4.15597 -9.42538 -3.57411 -4.00198 -9.65429 -3.70667 -3.86335 -9.88451 -3.79587 
-3.72968 -10.1152 -3.8711 -3.61647 -10.3406 -3.89579 -3.51017 -10.5643 -3.90345 
-3.4275 -10.7737 -3.8583 -3.35317 -10.978 -3.79455 -3.30353 -11.1577 -3.68087 
-3.26298 -11.3283 -3.54883 -3.2461 -11.4647 -3.37411 -3.23831 -11.588 -3.18303 
-3.25143 -11.6703 -2.95951 -3.2729 -11.7362 -2.723 -3.3113 -11.7584 -2.46543 
-3.35674 -11.7624 -2.19908 -3.41459 -11.7254 -1.92235 -3.47782 -11.6705 -1.64113 
-3.54907 -11.5817 -1.35815 -3.62394 -11.4775 -1.07438 -3.70314 -11.35 -0.794557 
-3.78436 -11.2114 -0.516585 -3.86716 -11.0615 -0.245158 -3.95073 -10.9059 0.0230771 
-4.03412 -10.7504 0.284888 -4.11743 -10.5949 0.543445 -4.19956 -10.4486 0.797652 
-4.28107 -10.3071 1.04957 -4.36074 -10.1803 1.30024 -4.4394 -10.0616 1.55023 
-4.51549 -9.95965 1.80223 -4.59013 -9.86719 2.05536 -4.6611 -9.79063 2.31318 
-4.72994 -9.72339 2.57374 -4.79365 -9.66965 2.84058 -4.85425 -9.62411 3.11122 
-4.90804 -9.58969 3.38834 -4.95754 -9.56227 3.66954 -4.99856 -9.54478 3.95604 
-5.03404 -9.53376 4.24599 -5.05965 -9.53319 4.53882 -5.07859 -9.53967 4.8336 
-5.08682 -9.55855 5.12804 -5.08756 -9.58612 5.42224 -5.07752 -9.62883 5.71254 
-5.05968 -9.68251 6.00004 -5.03195 -9.754 6.28031 -4.99682 -9.83883 6.55518 
-4.95365 -9.94329 6.82022 -4.90425 -10.063 7.07763 -4.84943 -10.2027 7.3237 
-4.79025 -10.3584 7.56066 -4.72857 -10.533 7.78607 -4.66479 -10.7232 8.00187 
-4.60116 -10.9295 8.20714 -4.53763 -11.1497 8.40337 -4.4761 -11.3823 8.59106 
-4.41633 -11.6258 8.77114 -4.35923 -11.8775 8.94515 -4.3046 -12.1367 9.11359 
-4.25208 -12.3999 9.2784 -4.20158 -12.667 9.43978 -4.15162 -12.9348 9.59955 
-4.10219 -13.2033 9.75776 -4.05117 -13.4702 9.91572 -3.99853 -13.7354 10.0734 
-3.94227 -13.9979 10.2315 -3.88221 -14.2575 10.3901 -3.81716 -14.5144 10.5491 
-3.74669 -14.7683 10.7087 -3.67086 -15.0202 10.8684 -3.58901 -15.2698 11.0284 
-3.50245 -15.5187 11.1882 -3.41042 -15.7668 11.3477 -3.31506 -16.0155 11.5065 
-3.21568 -16.2649 11.6644 -3.11456 -16.5159 11.8213 -3.0113 -16.7689 11.9767 
-2.90758 -17.024 12.1307 -2.80331 -17.2818 12.283 -2.69913 -17.5414 12.4334 
-2.59511 -17.8035 12.5816 -2.49076 -18.0663 12.7277 -2.38598 -18.3302 12.8711 
-2.27949 -18.5933 13.0122 -2.17056 -18.8552 13.1501 -2.05783 -19.1141 13.2855 
-1.93947 -19.3686 13.4172 -1.81495 -19.618 13.5463 -1.68099 -19.8595 13.6715 
-1.5388 -20.0938 13.7943 -1.38355 -20.3169 13.9133 -1.21875 -20.5314 14.0303 
-1.03828 -20.7316 14.1442 -0.848045 -20.9224 14.257 -0.641181 -21.097 14.368 
-0.425441 -21.262 14.4789 -0.194013 -21.4097 14.5899 0.0445426 -21.5479 14.7021 
0.296165 -21.6688 14.8166 0.552716 -21.7807 14.9332 0.818643 -21.8755 15.0542 
1.0873 -21.9618 15.178 1.36134 -22.0315 15.3078 1.63629 -22.0934 15.4406 
1.91311 -22.1391 15.5798 2.1896 -22.1774 15.7218 2.4654 -22.2001 15.8696 
2.74027 -22.2159 16.0193 3.01306 -22.2166 16.1734 3.28478 -22.2111 16.3284 
3.55406 -22.1911 16.4856 3.82246 -22.1657 16.6428 4.08873 -22.1269 16.8001 
4.35441 -22.0834 16.9568 4.61858 -22.028 17.1121 4.88239 -21.9688 17.2665 
5.14527 -21.8997 17.4186 5.40795 -21.8276 17.5701 5.67006 -21.7478 17.7197 
5.93202 -21.6661 17.869 6.19356 -21.5791 18.0173 6.45495 -21.4912 18.1657 
6.71593 -21.4008 18.3143 6.97676 -21.3106 18.4635 7.23717 -21.2207 18.6142 
7.49747 -21.1318 18.7656 7.75739 -21.0463 18.9194 8.01722 -20.9626 19.074 
8.27677 -20.8851 19.2313 8.53623 -20.81 19.3893 8.79539 -20.7436 19.55 
9.05434 -20.6801 19.7113 9.31255 -20.6274 19.8751 9.57036 -20.5777 20.0396 
9.82658 -20.5403 20.2066 10.082 -20.5059 20.3743 10.3343 -20.4845 20.5449 
10.5853 -20.4661 20.7164 10.831 -20.4611 20.8918 11.0751 -20.4591 21.0681 
11.3116 -20.4709 21.2493 11.5461 -20.4855 21.4315 11.7708 -20.5146 21.6194 
11.9933 -20.5467 21.8083 12.2042 -20.5943 22.003 12.4128 -20.6451 22.1987 
12.6084 -20.713 22.3996 12.8015 -20.7841 22.6013 12.9803 -20.8741 22.8074 
13.1566 -20.9671 23.0141 13.3168 -21.0801 23.2245 13.4744 -21.196 23.4353 
13.6135 -21.3316 23.6492 13.7499 -21.4696 23.8636 13.8651 -21.6257 24.0811 
13.9775 -21.7836 24.299 14.0661 -21.9557 24.5204 14.1519 -22.1287 24.7421 
14.2117 -22.3101 24.9679 14.2689 -22.4915 25.1941 14.2989 -22.6732 25.4248 
14.3264 -22.8541 25.656 14.3269 -23.0263 25.8921 14.3253 -23.197 26.1287 
14.2982 -23.35 26.3702 14.2696 -23.5013 26.612 14.219 -23.6279 26.858 
14.1674 -23.7528 27.1041 14.0997 -23.85 27.3531 14.0315 -23.9458 27.602 
13.9557 -24.0157 27.8514 13.88 -24.0847 28.1007 13.8077 -24.1347 28.3473 
13.7359 -24.1844 28.5938 13.6808 -24.2261 28.8342 13.6265 -24.2679 29.0743 
13.6036 -24.3156 29.3046 13.5815 -24.3637 29.5347 13.6064 -24.4333 29.751 
13.6319 -24.5032 29.9672 13.7207 -24.6106 30.1656 13.8094 -24.7181 30.364 

LINES 2 240
OFFSETS vtktypeint64
0 240 
CONNECTIVITY vtktypeint64
0 1 2 3 4 5 6 7 8 
9 10 11 12 13 14 15 16 17 
18 19 20 21 22 23 24 25 26 
27 28 29 30 31 32 33 34 35 
36 37 38 39 40 41 42 43 44 
45 46 47 48 49 50 51 52 53 
54 55 56 57 58 59 60 61 62 
63 64 65 66 67 68 69 70 71 
72 73 74 75 76 77 78 79 80 
81 82 83 84 85 86 87 88 89 
90 91 92 93 94 95 96 97 98 
99 100 101 102 103 104 105 106 107 
108 109 110 111 112 113 114 115 116 
117 118 119 120 121 122 123 124 125 
126 127 128 129 130 131 132 133 134 
135 136 137 138 139 140 141 142 143 
144 145 146 147 148 149 150 151 152 
153 154 155 156 157 158 159 160 161 
162 163 164 165 166 167 168 169 170 
171 172 173 174 175 176 177 178 179 
180 181 182 183 184 185 186 187 188 
189 190 191 192 193 194 195 196 197 
198 199 200 201 202 203 204 205 206 
207 208 209 210 211 212 213 214 215 
216 217 218 219 220 221 222 223 224 
225 226 227 228 229 230 231 232 233 
234 235 236 237 238 239 
CELL_DATA 1
FIELD FieldData 3
Length 1 1 double
69.444590311 
Tortuosity 1 1 double
0.67268075916 
ClusterLabel 1 1 int
3 
POINT_DATA 240
FIELD FieldData 6
Curvature 1 240 double
0 0.35347721018 0.70695442037 0.69465072485 0.67924719115 0.55303911606 0.42493694624 0.32190229361 0.21951593884 
0.155663064 0.093150484118 0.072351521077 0.053382102634 0.10508427765 0.16053892665 0.2698933253 0.3826164583 0.58593057477 
0.79577377112 1.0004484036 1.2047001535 1.1247401849 1.0187057467 0.78716513804 0.54284149355 0.38350704419 0.23370409334 
0.15229764672 0.079279450611 0.048350111352 0.023032619673 0.041394818426 0.066056972529 0.090486965635 0.1148808949 0.14088332461 
0.16715383773 0.19567045942 0.22458737768 0.25088432116 0.27668346944 0.28928443158 0.29921909349 0.28893030712 0.27430792468 
0.2450774514 0.21253380287 0.1769513939 0.14064094858 0.1097553348 0.080240204789 0.068217024132 0.060845957667 0.078174360089 
0.10240799037 0.14017220938 0.18190736204 0.23911236409 0.30107731979 0.38334881692 0.47216353296 0.57397627874 0.68017038287 
0.76412156638 0.84023717559 0.8554876727 0.84835100213 0.79277057796 0.7186012716 0.63517163192 0.54803785891 0.47019126065 
0.39621431853 0.33414457537 0.27723940044 0.22900394083 0.18468042593 0.14502521514 0.10756007295 0.072108264454 0.037637956138 
0.032990487268 0.04344319027 0.068220962918 0.10052857987 0.1267786394 0.14972457672 0.16266554482 0.16994580666 0.16877465532 
0.16264534156 0.15475183582 0.14578551062 0.13995860106 0.1361099534 0.13641375549 0.1394281845 0.14617318774 0.15544026933 
0.16778312746 0.18227902917 0.19801112124 0.2146390034 0.22939512319 0.24274742118 0.25043497193 0.25372600244 0.25016814756 
0.24111043019 0.22615394578 0.20629694722 0.1841792489 0.16011876171 0.13594822185 0.11167985739 0.08866688516 0.066808063852 
0.04638408187 0.027324373347 0.0182819431 0.01908983649 0.025892356707 0.038791107596 0.04928223373 0.057241202794 0.061965262346 
0.063170648392 0.061404935722 0.056296736996 0.049782641879 0.041632594597 0.034682201628 0.029175836998 0.026110604807 0.026085273387 
0.026544244131 0.027627219584 0.027587934454 0.02605230188 0.02680691651 0.030722072284 0.039197588396 0.054187904992 0.071940913635 
0.093780404264 0.11659532309 0.14090451491 0.16367366066 0.18399882024 0.20013966108 0.2093996222 0.21412299795 0.21111355771 
0.20508254029 0.19371106087 0.1819650699 0.16953247444 0.15829907436 0.14934707038 0.14160157913 0.13623895051 0.1313681724 
0.12750631843 0.12359347119 0.11957192774 0.11537833682 0.11080345149 0.10610672873 0.10112910301 0.095987837719 0.09045383749 
0.084558273663 0.077758800841 0.070551185858 0.062279927666 0.053665817379 0.044119577959 0.034501806208 0.024680974938 0.016518522144 
0.013275925502 0.0128094208 0.020958373847 0.029160012776 0.037532880822 0.045698887966 0.053160035744 0.060385572969 0.066768349368 
0.07278437856 0.077421438251 0.081840607282 0.085397292447 0.089156800063 0.093762870955 0.098507087055 0.10386039793 0.10959954034 
0.11713922993 0.12472298172 0.13252484142 0.1403528936 0.14831880094 0.1561464039 0.16319796567 0.17005337556 0.17573187425 
0.18105080405 0.18405500909 0.18672094821 0.18704157697 0.18699065754 0.18415312673 0.18126772487 0.17799198991 0.17495483793 
0.17404505085 0.17359936384 0.17771029578 0.1822499282 0.19146239576 0.20063545727 0.20932688918 0.21743313433 0.21741991317 
0.21652033479 0.20143904113 0.18574366207 0.1584830081 0.13220104425 0.12823321483 0.12676285395 0.19709471332 0.26863474909 
0.38689093925 0.50473543387 0.59849573888 0.68857497003 0.34428748501 0 
Torsion 1 240 double
0 0 0 -0.022378722324 -0.044947094838 -0.071433073767 -0.097986020327 -0.17252389835 -0.24830276599 
-0.63316024696 -1.0287682884 -2.1304243445 -3.2630474187 -2.0689281138 -0.75126496584 -0.53746627955 -0.39265912212 -0.33319331183 
-0.27987822927 -0.24733341977 -0.21648799626 -0.21975517004 -0.2261519399 -0.2466785095 -0.26864422536 -0.25584742806 -0.23915203115 
-0.041972646276 0.17734156731 1.9760382861 3.985319339 2.3467270707 0.18199922711 -0.21089272346 -0.32854803046 -0.37521007725 
-0.410039914 -0.41734135362 -0.41973674226 -0.40193675389 -0.38029964388 -0.34924223468 -0.31628173473 -0.27873634367 -0.24020847595 
-0.18835584918 -0.13348111212 -0.030301738571 0.084450620796 0.3976151402 0.76090483686 1.0767716322 1.3800259537 1.0426853897 
0.52625378237 0.29073953741 0.13766843141 0.063830896177 0.014372921175 -0.015590427143 -0.039272173531 -0.056183311295 -0.070812221433 
-0.08158300621 -0.090994678643 -0.097801356982 -0.10364987657 -0.10590360307 -0.10677793221 -0.10215020736 -0.095321660921 -0.084656175548 
-0.072391965622 -0.059024984253 -0.04517969238 -0.028064898974 -0.0094748426815 0.027853660256 0.073973039399 0.56960983214 1.284386364 
1.1956618393 0.70010133671 0.40647968542 0.21900537905 0.15293260359 0.15307884499 0.17087799978 0.19866498715 0.23184069673 
0.26817779001 0.28463297816 0.2889978186 0.25077212747 0.18570856713 0.1037058458 0.010645616599 -0.062681660219 -0.12266834951 
-0.15915103771 -0.17918092514 -0.18794736298 -0.18855188083 -0.18663587703 -0.18282948199 -0.18056808707 -0.17950579671 -0.17951965548 
-0.18039769463 -0.18255199471 -0.18576657312 -0.18831030357 -0.19027752406 -0.18805916198 -0.18212028208 -0.15610894479 -0.11164389669 
0.2049500764 0.78028958473 0.991104628 0.84347061399 0.56501065466 0.15350736111 -0.080220179649 -0.12697667007 -0.16681612699 
-0.19913179306 -0.24696005598 -0.31223999034 -0.42772727728 -0.6016376654 -0.79561244793 -1.0137388164 -1.0140993035 -0.74327963661 
-0.43853353978 -0.090074542838 0.29694216218 0.73536914462 1.0094996407 1.0569009856 0.95041108743 0.62407655619 0.38268660893 
0.26694385879 0.18424895167 0.15218052747 0.13001232637 0.12355534891 0.12340534467 0.13362680753 0.14819124758 0.17015848968 
0.19333357492 0.21864345267 0.24138500124 0.2594179463 0.26689813093 0.25430233228 0.22912826751 0.17911212718 0.12545463918 
0.064327720101 0.0047424147599 -0.051556819184 -0.10320729516 -0.14455511833 -0.17766679648 -0.19178958472 -0.19856724916 -0.1877166165 
-0.16972314323 -0.13387256847 -0.093284198292 -0.040348846141 0.02067430311 0.10368615072 0.2744328552 0.69423334689 1.1961671075 
1.9417628991 2.2567932228 1.2355858873 0.42509705206 0.29944334241 0.19046009259 0.13827989104 0.088253047716 0.045928601135 
0.0027736712837 -0.043503875666 -0.088702518465 -0.129630499 -0.16480053486 -0.17593741036 -0.18216863091 -0.16677037285 -0.14646317409 
-0.1032475854 -0.06045299317 -0.019742333478 0.017492898737 0.036436407391 0.05140144434 0.044042834504 0.033492055713 0.0037882631923 
-0.027020798915 -0.064945033986 -0.10310957459 -0.14294023355 -0.18330701332 -0.2276946992 -0.272395302 -0.3196473812 -0.36567889851 
-0.40082707244 -0.43275711725 -0.43309098528 -0.43058829346 -0.39716709926 -0.36379071176 -0.33096196164 -0.30035655685 -0.30060006845 
-0.3057623195 -0.3896244015 -0.48986064521 -0.8984769343 -1.30937993 -1.7724198354 -2.195097264 -1.4573534846 -0.73233850222 
-0.49950367596 -0.26831775519 -0.13359280638 0 0 0 
FrenetTangent 3 240 double
-0.68640649692 -0.72319541564 -0.07638397593 -0.68640649692 -0.72319541564 -0.07638397593 -0.68640649692 -0.72319541564 -0.07638397593 
-0.72274374754 -0.6523567837 0.10638655274 -0.75938894095 -0.58091782438 0.2907059842 -0.74418562736 -0.49826228284 0.4179408095 
-0.72809601449 -0.41541500485 0.54419982956 -0.69931382604 -0.35960584342 0.61108663475 -0.67020338132 -0.30449594362 0.67643795163 
-0.64734538596 -0.27916060638 0.70780304248 -0.6247048671 -0.25486090609 0.73798600374 -0.61206642634 -0.25515142042 0.74835154799 
-0.59986667322 -0.25652045293 0.75784790728 -0.59839137218 -0.28034307107 0.7500865594 -0.59748551107 -0.30535791498 0.74140887309 
-0.60834389754 -0.35431549484 0.70739932712 -0.61993754948 -0.40476949569 0.67180653992 -0.64113309341 -0.47849297617 0.58842534574 
-0.66302066558 -0.55389353625 0.50159994205 -0.6756820328 -0.62707078111 0.34299748273 -0.68758852869 -0.70006611837 0.17852235521 
-0.66566401126 -0.72010304629 -0.012230921356 -0.64063573114 -0.73528140454 -0.20539503729 -0.60277197583 -0.707200878 -0.34187340694 
-0.5636009036 -0.67471435393 -0.47257822836 -0.53654868745 -0.64075112911 -0.54368541433 -0.51085559536 -0.60662229299 -0.60810875334 
-0.49751164619 -0.58572621443 -0.6388975293 -0.48568221455 -0.56645302124 -0.66556131168 -0.47948360858 -0.56124806648 -0.67454572821 
-0.47403577937 -0.55791887684 -0.68117289597 -0.4677356678 -0.56688921332 -0.67799981661 -0.46131263089 -0.57763351992 -0.67341324008 
-0.44818175485 -0.59826396119 -0.66363989514 -0.4340088844 -0.6204301127 -0.6530608386 -0.40773636737 -0.64889771493 -0.64100225308 
-0.37944724259 -0.67841555894 -0.6286970794 -0.33497928102 -0.7086265718 -0.61840736348 -0.28762796241 -0.7389611197 -0.60847683805 
-0.22370233364 -0.76233189555 -0.60323755684 -0.15662758594 -0.78437955471 -0.59888961202 -0.07908224642 -0.79234666078 -0.59974378143 
0.00057836417654 -0.79746921067 -0.601648883 0.079010936946 -0.78704943668 -0.60673800679 0.15718035875 -0.77329916472 -0.61250942106 
0.22359390148 -0.75029689006 -0.61843376472 0.28734116236 -0.72519622304 -0.6243927934 0.33574826234 -0.70023382032 -0.62800830954 
0.38048011544 -0.67530454343 -0.63106235914 0.4121390128 -0.65755265316 -0.62987206621 0.44049526871 -0.64161399742 -0.62760951834 
0.45975799372 -0.63633827785 -0.61912718254 0.47660222646 -0.63389844556 -0.60899064783 0.48743377578 -0.64323602621 -0.58989412247 
0.49658435984 -0.65586621692 -0.56829265349 0.50096939213 -0.67985154905 -0.53356218248 0.50395583858 -0.70716936832 -0.49497863477 
0.50115219657 -0.74325318953 -0.43715765859 0.49656698887 -0.78203424209 -0.37341747365 0.48251433175 -0.82215902193 -0.28308484534 
0.46541105203 -0.86271678055 -0.18418354083 0.43314404423 -0.88847889766 -0.055310229209 0.3957656674 -0.90925371987 0.08366600615 
0.34039715867 -0.8928609041 0.24019911257 0.27869121712 -0.86337494313 0.40291702585 0.20673066059 -0.78750575997 0.55172168231 
0.13099829167 -0.6945760813 0.69540881903 0.059888427389 -0.57366252042 0.79961483867 -0.0094476851042 -0.44201095824 0.88867112733 
-0.065328501131 -0.30912255619 0.93825219807 -0.11582719857 -0.1757394182 0.97204318163 -0.15288515009 -0.05664628559 0.98016956153 
-0.18434279082 0.056492678114 0.97760235658 -0.20607552307 0.15080618729 0.96299776073 -0.22359022274 0.23695443907 0.94317212786 
-0.23525875585 0.30509847951 0.92071202533 -0.24428938455 0.36511866849 0.8970631987 -0.25041531693 0.40932269091 0.87645374928 
-0.25517855227 0.44610678333 0.85727018054 -0.25889207624 0.468976662 0.84421747821 -0.26209386591 0.48506336147 0.83415357326 
-0.26503013945 0.48846719046 0.83135011441 -0.26783197443 0.48544931289 0.83222283081 -0.27003336264 0.47085444363 0.83957900871 
-0.27191913139 0.45017423259 0.85034315995 -0.27190626362 0.42022785308 0.86495631333 -0.27085777593 0.38522719986 0.88166892242 
-0.26640966625 0.34531589935 0.89882587769 -0.26003808624 0.3026262063 0.91623423935 -0.24957461444 0.26021893015 0.93173251254 
-0.23671056613 0.2179773386 0.94611020048 -0.22013726793 0.1792679849 0.95804497658 -0.2013083448 0.14270661369 0.9684941982 
-0.17961892497 0.10958718971 0.97692975773 -0.15612700038 0.078636663997 0.9840964343 -0.13052716603 0.048730970679 0.98955992626 
-0.10355133505 0.019507320731 0.99391161717 -0.075043045304 -0.011707334427 0.99629428472 -0.045498727089 -0.044268021276 0.99734578156 
-0.015043048851 -0.081283269761 0.99549026185 0.016050581405 -0.12141671139 0.99159983056 0.047008713366 -0.16712065957 0.98331772701 
0.077868658156 -0.2168612067 0.97185325227 0.1069012896 -0.27135903894 0.95454338421 0.13456343604 -0.32942483501 0.93284947115 
0.15836178952 -0.38932308756 0.90502665751 0.1791613783 -0.45064354512 0.87244708522 0.19463521777 -0.50986143732 0.83550579172 
0.20583231915 -0.56739090582 0.79506190391 0.21170414239 -0.61957899524 0.75369968353 0.21315188841 -0.66732963127 0.71157454072 
0.21070402336 -0.70843123621 0.6720184252 0.20490836754 -0.74381883005 0.63467006751 0.19734696254 -0.77294947944 0.60205584734 
0.18821600272 -0.79651840045 0.5736497494 0.17945016414 -0.81497822425 0.55059171376 0.17102000153 -0.82874097481 0.53245044508 
0.1646892653 -0.83863465186 0.51910120731 0.16035470499 -0.8448495377 0.5103083268 0.15925622803 -0.84823283883 0.50510674575 
0.1613398997 -0.84883174832 0.50343660916 0.16695585117 -0.84747445624 0.50382160458 0.17616395157 -0.84412780662 0.50629656477 
0.18824681306 -0.83962517761 0.50930330565 0.20335313017 -0.83390677718 0.51286933313 0.21987202002 -0.82785529319 0.51579002445 
0.2379273925 -0.82144150779 0.51800877118 0.25558670288 -0.81554647726 0.51896471321 0.27280044339 -0.81023504596 0.51849999993 
0.28814963309 -0.80610652069 0.51674455802 0.30132916367 -0.8033544679 0.51348717734 0.31197890211 -0.80205219479 0.50923427124 
0.31958352038 -0.80249502687 0.5037830475 0.32488871178 -0.8041362689 0.4977647246 0.32733046596 -0.8072698705 0.49104020276 
0.32850391963 -0.81099405284 0.48406961578 0.32804321687 -0.81547917573 0.47678198336 0.32783091366 -0.81979330848 0.46948736849 
0.32794980985 -0.82387945437 0.46218344369 0.32997595055 -0.82704647764 0.45503970135 0.33463408868 -0.82894511171 0.44811701082 
0.34273222969 -0.82919649876 0.44139127491 0.35574466055 -0.82709467577 0.43494690275 0.37318000275 -0.8225058066 0.42869734121 
0.397157568 -0.81423818163 0.42273593705 0.42561665057 -0.80255799295 0.41683608623 0.46094103626 -0.78565004712 0.4110305299 
0.49955437567 -0.76454469488 0.40522565762 0.54338714164 -0.73677824116 0.39942187091 0.58806884911 -0.70489032466 0.3937717103 
0.63414659372 -0.66622489157 0.38837417929 0.67841186101 -0.62469577703 0.38363036569 0.71958767834 -0.57828538729 0.38000084312 
0.75728565336 -0.53089310143 0.37767984473 0.78883674431 -0.48176537126 0.37767158674 0.81661161002 -0.4332194843 0.37931831436 
0.83746339614 -0.38574030992 0.38399918227 0.85510334939 -0.33947816557 0.39028141625 0.86663298649 -0.29553134665 0.39961015153 
0.87576165268 -0.25274973489 0.41004588592 0.88014840134 -0.21226940728 0.42266794356 0.88293926476 -0.17266316593 0.43556643104 
0.88245651744 -0.13484992203 0.44903195405 0.88107588657 -0.097686948549 0.46194379576 0.87778134604 -0.061910077809 0.47367542205 
0.87416174068 -0.026728797545 0.48422970765 0.86982172135 0.0071325254505 0.49217475173 0.86554458074 0.040292086142 0.49867991624 
0.86141241052 0.071833694855 0.50186535844 0.85749743123 0.10245414073 0.50377363677 0.85410371018 0.13086379579 0.50261672179 
0.85092304647 0.15810022452 0.50063162455 0.84827502613 0.18240358739 0.49657607169 0.845737953 0.20534488988 0.49230750369 
0.84349001503 0.22473658045 0.48748380535 0.84128645762 0.2426572966 0.48296530101 0.83920355984 0.25657880105 0.47927654286 
0.83716756093 0.26898061153 0.47620128304 0.83526469424 0.277068452 0.47486756685 0.83344357708 0.28363422188 0.47425670898 
0.83186498349 0.28568451569 0.47579033082 0.83043418623 0.28627606988 0.47792378376 0.82946206724 0.28234050109 0.48191878153 
0.82868469982 0.27706594458 0.48627633746 0.82854027502 0.26743967794 0.49181220745 0.82857023976 0.25663283793 0.49750007871 
0.82919442069 0.24180330349 0.50370588022 0.82987868667 0.22599745563 0.50996498804 0.83077787222 0.20669940974 0.51641476839 
0.83155277125 0.18668662722 0.52293029997 0.83186035294 0.16398643496 0.52969305614 0.83181542937 0.14086169634 0.53665103886 
0.83037517246 0.11605646177 0.54438179332 0.82836935749 0.09098673703 0.55249043816 0.82400295239 0.06481305332 0.56217636457 
0.81893798885 0.038433111594 0.57231158681 0.8107930177 0.011143759526 0.58442779524 0.80187999507 -0.01639449042 0.59693911275 
0.78938273223 -0.045094263796 0.61129427269 0.77613114388 -0.074183527876 0.62582512681 0.75914564418 -0.10520077094 0.64122566709 
0.74147481777 -0.13671029011 0.65649506262 0.72019700859 -0.17081073616 0.67107422264 0.69827603302 -0.2053879642 0.6852825144 
0.67274617927 -0.24264046897 0.69740982322 0.64656954669 -0.28018630402 0.70906295103 0.6165122411 -0.31949212065 0.71787099285 
0.58577650657 -0.35875441768 0.72626410558 0.55067338575 -0.39773655728 0.73198611234 0.51490747758 -0.43629173111 0.73744796161 
0.47454624377 -0.471886609 0.7411060523 0.43364950226 -0.50669457875 0.74469593423 0.38873645302 -0.53560073744 0.74777425048 
0.34347888717 -0.56345954366 0.75098271574 0.29541218593 -0.58277839887 0.75525239593 0.24717832528 -0.60090629594 0.75981455255 
0.19745395982 -0.60841481631 0.76698462402 0.14770701588 -0.61467832191 0.77452097903 0.097738392302 -0.60871804611 0.78565357246 
0.047871831781 -0.60153998075 0.79710106686 -0.00088224145116 -0.58108800924 0.81198098177 -0.049372113343 -0.55957372839 0.82699788356 
-0.094632857738 -0.5250756667 0.84368906944 -0.13939412288 -0.48987479677 0.8602966643 -0.17722511331 -0.44492246237 0.8757444338 
-0.21431529557 -0.39980448234 0.89099595075 -0.23955254716 -0.35203617217 0.9031074268 -0.26390242882 -0.30463987211 0.91508171272 
-0.27154017665 -0.26424976249 0.92447225129 -0.27823443492 -0.22458395464 0.93385135439 -0.26341713123 -0.20143222721 0.94296972895 
-0.24761854568 -0.17914434425 0.95208092803 -0.20360810667 -0.18169198977 0.9609858322 -0.15863340914 -0.18505193977 0.96963518856 
-0.076374048836 -0.21982099688 0.9684033628 0.0065110058808 -0.25506555652 0.96656143534 0.12599918374 -0.31812701419 0.92902855838 
0.24448325927 -0.38065854364 0.89181108374 0.24448325927 -0.38065854364 0.89181108374 0.24448325927 -0.38065854364 0.89181108374 

FrenetNormal 3 240 double
-0.33449830627 0.22071478348 0.91618549839 -0.33449830627 0.22071478348 0.91618549839 -0.33449830627 0.22071478348 0.91618549839 
-0.17972935068 0.34564822012 0.89851935979 -0.023648793777 0.4716404147 0.88070350815 0.10464470654 0.53495940338 0.82413126199 
0.23246321444 0.5972070552 0.76689651336 0.32594147255 0.59808522043 0.72504233485 0.41853162076 0.59737624378 0.68358592971 
0.52671398918 0.49135667902 0.676078856 0.6354386957 0.38167413728 0.6697526286 0.54520672258 -0.2302795837 0.37182689037 
0.4462485793 -0.86426274238 0.061111699913 0.17688596974 -0.88867746759 -0.19334840099 -0.10152466457 -0.8807257273 -0.44482150599 
-0.1583911601 -0.81457997619 -0.54447699551 -0.20141114695 -0.74479709941 -0.63464388406 -0.17842228731 -0.65197322325 -0.72472518123 
-0.15067603334 -0.55748873452 -0.81480030964 -0.068375686611 -0.41244612958 -0.88885698566 0.018388176794 -0.26326695148 -0.96160306104 
0.11516191118 -0.090032536857 -0.96864947926 0.21285398235 0.085408780204 -0.96966840601 0.26519637501 0.22177605509 -0.92651600021 
0.31291981893 0.35416356642 -0.87886466239 0.32071696828 0.43921165782 -0.83422001964 0.32403640235 0.51895065539 -0.78991257633 
0.33429654108 0.54997498266 -0.76452332016 0.34540789831 0.57502486923 -0.741454219 0.50863876455 0.018656359484 -0.38265097004 
0.692152232 -0.6152346031 0.020916831963 0.58316375328 -0.74546320173 0.2216208513 0.43198749386 -0.80304819017 0.39306567122 
0.4733642604 -0.78601486292 0.38896802145 0.5446521766 -0.75739034101 0.35760163853 0.63297311047 -0.70037075511 0.30650198179 
0.72413288061 -0.63861865854 0.25211344607 0.80317314828 -0.5471050037 0.19201223152 0.88005350461 -0.45028730878 0.13089291579 
0.92955885169 -0.33318557542 0.076463932731 0.973862947 -0.21222987476 0.023306112884 0.98761280804 -0.087141833073 -0.015057584251 
0.99519009649 0.038781024984 -0.050432569728 0.97925078527 0.15265494936 -0.070520918112 0.9582722027 0.26394695938 -0.087333558548 
0.92813994967 0.35075094563 -0.089997445497 0.89593160645 0.43200094711 -0.089452336811 0.87434306976 0.47816368848 -0.065711450522 
0.85529886171 0.51592010713 -0.036413242515 0.86570635753 0.47695798724 0.068311484024 0.8835542838 0.41861434183 0.19209133104 
0.78135468305 0.14953013306 0.42594056772 0.64722754852 -0.17560209788 0.68906357825 0.44083287238 -0.37138177787 0.77019659638 
0.21423436741 -0.53099837911 0.80045069191 0.096833776968 -0.56711491994 0.81362325309 0.011480400565 -0.56698687783 0.82178275526 
-0.047044582725 -0.5283872783 0.84443576442 -0.097314675827 -0.47795027648 0.87154831419 -0.14570034365 -0.39561422651 0.90063313257 
-0.19347880776 -0.30299959437 0.93035345973 -0.2425354299 -0.17695667061 0.94325518194 -0.29202289181 -0.039645783394 0.95048771146 
-0.33414342919 0.11981323443 0.91888592043 -0.37366879998 0.28707443463 0.87360385737 -0.39371815526 0.44534049363 0.78318918741 
-0.40660391863 0.60029799496 0.67617401836 -0.3976203173 0.71839606158 0.54517965507 -0.380244983 0.82235039162 0.40498397305 
-0.34973778851 0.88633350296 0.26767066759 -0.31397784994 0.93432812681 0.13151031275 -0.27598696198 0.95425814879 0.012104462801 
-0.23706651178 0.96249458666 -0.10032034345 -0.20217190486 0.9561685958 -0.1929982722 -0.16902344682 0.9435263708 -0.27711129023 
-0.14409739523 0.92588546229 -0.34363196871 -0.12288145385 0.90598905026 -0.40221464032 -0.1167416155 0.88588221943 -0.44707908189 
-0.11767451684 0.8656766736 -0.48550781059 -0.19794608272 0.82273473265 -0.51753585702 -0.31689524757 0.76870879907 -0.54644357084 
-0.29978816855 0.21348644631 -0.22383844276 -0.21379185212 -0.59550624528 0.2767478711 -0.13367675143 -0.87976721462 0.45034795632 
-0.05665305902 -0.88820766329 0.45207066495 0.0033767930552 -0.89775690987 0.43721571888 0.054137277674 -0.90791095531 0.4133184157 
0.11238572343 -0.91393496897 0.38442809715 0.17487077877 -0.91762225412 0.35271278305 0.24839288092 -0.91037277448 0.32079635228 
0.32839005052 -0.8967070595 0.28876193307 0.41207612337 -0.86928678179 0.25735859459 0.49800544819 -0.83350224296 0.22633902143 
0.5690084001 -0.79569753773 0.19387708948 0.63060569236 -0.75661985094 0.1605062739 0.66588544353 -0.73455949916 0.12400615411 
0.68398568872 -0.72360768551 0.085463294079 0.68000268403 -0.73035685448 0.042634769099 0.66109015829 -0.74907288496 -0.0030911068306 
0.62928152258 -0.7724811311 -0.053574185204 0.58844560989 -0.7991739282 -0.10738730529 0.54113219555 -0.82109242747 -0.16543061919 
0.48912493945 -0.83955129061 -0.22653929092 0.43356876273 -0.84946544854 -0.29005226729 0.37535089556 -0.85297107754 -0.35536847213 
0.31431010494 -0.84762518638 -0.41963070834 0.25107838866 -0.83540945867 -0.48307493902 0.18554043428 -0.81614688463 -0.54126506581 
0.11815050082 -0.79122547944 -0.59523598795 0.050125285687 -0.76234258389 -0.64074816265 -0.018427701913 -0.73016860406 -0.67923307023 
-0.086599082052 -0.69740251539 -0.70801399493 -0.15444251828 -0.6641275832 -0.72845555934 -0.21958176981 -0.63259059136 -0.74014526815 
-0.2823173016 -0.6025984354 -0.74405554977 -0.33598259454 -0.57635324775 -0.7435872504 -0.38130911952 -0.55355285357 -0.73909348144 