# vtk DataFile Version 5.1
vtk output
ASCII
DATASET POLYDATA
POINTS 240 float
0 0 0 -0.24878 0.0158958 0.125961 -0.497561 0.0317916 0.251923 
-0.741765 0.0219394 0.387219 -0.985931 0.0118689 0.522595 -1.2264 -0.0184418 0.661568 
-1.46681 -0.0490986 0.800603 -1.70464 -0.0951134 0.939851 -1.94241 -0.141525 1.07911 
-2.1783 -0.199395 1.21726 -2.41413 -0.257663 1.35537 -2.64825 -0.324387 1.49257 
-2.88229 -0.391482 1.62973 -3.11449 -0.464803 1.76684 -3.34659 -0.538455 1.90394 
-3.57663 -0.616674 2.04198 -3.80654 -0.695179 2.18008 -4.03417 -0.777063 2.31996 
-4.26165 -0.859191 2.45998 -4.48669 -0.943874 2.60237 -4.71153 -1.02877 2.74496 
-4.93387 -1.11576 2.89019 -5.15598 -1.20295 3.03565 -5.37563 -1.29213 3.1836 
-5.59504 -1.38152 3.33181 -5.81217 -1.4732 3.48194 -6.02906 -1.56513 3.63229 
-6.24403 -1.66012 3.78346 -6.45878 -1.75549 3.93474 -6.67222 -1.85534 4.08493 
-6.8855 -1.95578 4.23498 -7.09844 -2.06318 4.38056 -7.31133 -2.17159 4.52551 
-7.5251 -2.291 4.6599 -7.739 -2.41212 4.79265 -7.95447 -2.55041 4.90344 
-8.17019 -2.69157 5.01057 -8.38411 -2.85676 5.07554 -8.59771 -3.02624 5.133 
-8.7956 -3.21897 5.124 -8.99049 -3.41613 5.10237 -9.15205 -3.62134 5.01245 
-9.30687 -3.82818 4.90874 -9.42646 -4.0303 4.76066 -9.5385 -4.23142 4.60307 
-9.62297 -4.42584 4.4222 -9.70119 -4.61875 4.23605 -9.75851 -4.80697 4.03812 
-9.81082 -4.99407 3.83738 -9.84614 -5.17871 3.6309 -9.87718 -5.36273 3.42297 
-9.8934 -5.54609 3.21292 -9.90568 -5.72927 3.0023 -9.90408 -5.9132 2.7921 
-9.89861 -6.09733 2.58202 -9.87943 -6.28337 2.37459 -9.85623 -6.46998 2.16793 
-9.81902 -6.65953 1.96625 -9.7775 -6.84999 1.7661 -9.72131 -7.04444 1.57379 
-9.66038 -7.24017 1.38401 -9.58358 -7.44115 1.20628 -9.50144 -7.6439 1.03261 
-9.40156 -7.85347 0.878351 -9.29544 -8.06545 0.730929 -9.16863 -8.28558 0.619018 
-9.03421 -8.5087 0.52017 -8.87995 -8.73183 0.497965 -8.71807 -8.95498 0.50517 
-8.57044 -9.1277 0.633797 -8.42852 -9.28025 0.810993 -8.3282 -9.36173 1.04685 
-8.24523 -9.41359 1.30714 -8.18556 -9.42754 1.5775 -8.136 -9.42505 1.85222 
-8.09685 -9.40283 2.12747 -8.0624 -9.3717 2.40296 -8.03232 -9.3288 2.67727 
-8.0043 -9.28038 2.95104 -7.97742 -9.22436 3.22342 -7.95108 -9.16464 3.49514 
-7.92391 -9.09995 3.76561 -7.89631 -9.03275 4.03545 -7.86661 -8.96251 4.30427 
-7.83581 -8.89068 4.57257 -7.8021 -8.81745 4.84013 -7.76681 -8.74345 5.10729 
-7.72816 -8.66964 5.37401 -7.68761 -8.59592 5.6405 -7.64354 -8.52409 5.90692 
-7.5974 -8.45336 6.1733 -7.54787 -8.38655 6.44005 -7.49628 -8.32213 6.70702 
-7.4419 -8.26423 6.97487 -7.38578 -8.21044 7.24326 -7.32819 -8.16662 7.51301 
-7.26964 -8.12929 7.78364 -7.21196 -8.10627 8.05574 -7.15487 -8.09291 8.32885 
-7.10222 -8.09867 8.60257 -7.05268 -8.1178 8.87671 -7.01176 -8.15961 9.14891 
-6.97709 -8.21783 9.4197 -6.95436 -8.29909 9.68478 -6.94057 -8.39762 9.94557 
-6.93956 -8.51592 10.1974 -6.94848 -8.64957 10.4424 -6.96885 -8.79838 10.677 
-6.99841 -8.95938 10.9033 -7.03723 -9.13173 11.1189 -7.08377 -9.31352 11.3258 
-7.13751 -9.50425 11.5222 -7.19746 -9.70266 11.7094 -7.263 -9.90869 11.8858 
-7.33351 -10.1215 12.0524 -7.40827 -10.3412 12.2073 -7.48693 -10.5673 12.3513 
-7.56854 -10.7998 12.482 -7.65294 -11.0384 12.6 -7.73874 -11.2831 12.7026 
-7.82593 -11.5336 12.79 -7.91263 -11.789 12.8597 -7.99883 -12.0495 12.9114 
-8.08237 -12.3132 12.9436 -8.1631 -12.5802 12.9553 -8.23908 -12.8479 12.9474 
-8.30988 -13.1164 12.9182 -8.37445 -13.3832 12.8713 -8.43202 -13.6481 12.8043 
-8.48278 -13.9098 12.7231 -8.52564 -14.1679 12.6251 -8.56191 -14.4223 12.5166 
-8.59023 -14.6725 12.3955 -8.61257 -14.9196 12.2676 -8.62746 -15.163 12.1311 
-8.63704 -15.4044 11.991 -8.63979 -15.6432 11.846 -8.63784 -15.8814 11.7001 
-8.62964 -16.1188 11.5528 -8.61723 -16.3569 11.4072 -8.59901 -16.596 11.2638 
-8.57689 -16.8373 11.1248 -8.5492 -17.0816 10.992 -8.5179 -17.3291 10.8667 
-8.48126 -17.5814 10.7526 -8.44132 -17.8375 10.6495 -8.39633 -18.0993 10.5634 
-8.34858 -18.3643 10.4919 -8.29646 -18.6343 10.4437 -8.24246 -18.9055 10.4121 
-8.18536 -19.1787 10.4079 -8.12735 -19.4506 10.42 -8.06781 -19.7205 10.4599 
-8.0081 -19.9872 10.5135 -7.9481 -20.2486 10.5914 -7.88824 -20.5063 10.6796 
-7.82863 -20.7573 10.7869 -7.76912 -21.0046 10.9017 -7.70977 -21.2452 11.0309 
-7.65024 -21.4826 11.1653 -7.59033 -21.7138 11.3103 -7.52982 -21.9424 11.459 
-7.46806 -22.1656 11.6154 -7.40517 -22.3865 11.7744 -7.33988 -22.6026 11.9392 
-7.27282 -22.8166 12.1058 -7.20186 -23.0261 12.2766 -7.12839 -23.2335 12.4487 
-7.04915 -23.4364 12.6237 -6.96653 -23.6371 12.7996 -6.87579 -23.8327 12.9773 
-6.78065 -24.0257 13.1554 -6.67454 -24.2124 13.3341 -6.56293 -24.3959 13.5125 
-6.437 -24.5709 13.6901 -6.30458 -24.7417 13.8667 -6.15453 -24.9009 14.0403 
-5.99736 -25.0547 14.2118 -5.82002 -25.1928 14.3774 -5.63573 -25.3244 14.5399 
-5.43087 -25.4362 14.6931 -5.22018 -25.5408 14.8424 -4.99143 -25.6231 14.9798 
-4.75867 -25.6986 15.1133 -4.51282 -25.7522 15.2345 -4.2646 -25.8001 15.3526 
-4.00828 -25.8287 15.4599 -3.75074 -25.8528 15.5649 -3.48886 -25.861 15.662 
-3.22649 -25.8657 15.7576 -2.96225 -25.8576 15.8481 -2.69793 -25.8469 15.9379 
-2.43331 -25.8259 16.0252 -2.16886 -25.8028 16.1124 -1.90514 -25.7712 16.1992 
-1.64175 -25.7381 16.2864 -1.37985 -25.698 16.3753 -1.1184 -25.6567 16.4648 
-0.859072 -25.6096 16.5576 -0.600286 -25.5616 16.6514 -0.344203 -25.5089 16.7501 
-0.0887426 -25.4556 16.85 0.163445 -25.3988 16.9561 0.414949 -25.3415 17.0635 
0.662619 -25.282 17.1784 0.909562 -25.2224 17.2947 1.15214 -25.162 17.4196 
1.39397 -25.1017 17.5459 1.63098 -25.0423 17.6815 1.86724 -24.9833 17.8185 
2.09831 -24.9272 17.9652 2.32866 -24.8718 18.1133 2.55362 -24.8212 18.2711 
2.77791 -24.7714 18.4301 2.99677 -24.7284 18.5984 3.21504 -24.6864 18.7677 
3.42801 -24.6529 18.9454 3.64047 -24.6204 19.1239 3.84797 -24.5977 19.3097 
4.05505 -24.5761 19.496 4.25761 -24.5653 19.6882 4.45985 -24.5555 19.8807 
4.65816 -24.5571 20.0776 4.85625 -24.5595 20.2746 5.05113 -24.5736 20.4744 
5.24586 -24.5883 20.6742 5.43817 -24.6146 20.8752 5.63039 -24.6414 21.0762 
5.82107 -24.6793 21.277 6.01171 -24.7176 21.4776 6.2017 -24.7664 21.6766 
6.39169 -24.8156 21.8756 6.58192 -24.8745 22.0716 6.77217 -24.9337 22.2675 
6.96353 -25.0019 22.4594 7.15493 -25.0703 22.6511 7.34826 -25.1471 22.8377 
7.54161 -25.2239 23.0243 7.73766 -25.3084 23.2046 7.93372 -25.3929 23.3849 

LINES 2 240
OFFSETS vtktypeint64
0 240 
CONNECTIVITY vtktypeint64
0 1 2 3 4 5 6 7 8 
9 10 11 12 13 14 15 16 17 
18 19 20 21 22 23 24 25 26 
27 28 29 30 31 32 33 34 35 
36 37 38 39 40 41 42 43 44 
45 46 47 48 49 50 51 52 53 
54 55 56 57 58 59 60 61 62 
63 64 65 66 67 68 69 70 71 
72 73 74 75 76 77 78 79 80 
81 82 83 84 85 86 87 88 89 
90 91 92 93 94 95 96 97 98 
99 100 101 102 103 104 105 106 107 
108 109 110 111 112 113 114 115 116 
117 118 119 120 121 122 123 124 125 
126 127 128 129 130 131 132 133 134 
135 136 137 138 139 140 141 142 143 
144 145 146 147 148 149 150 151 152 
153 154 155 156 157 158 159 160 161 
162 163 164 165 166 167 168 169 170 
171 172 173 174 175 176 177 178 179 
180 181 182 183 184 185 186 187 188 
189 190 191 192 193 194 195 196 197 
198 199 200 201 202 203 204 205 206 
207 208 209 210 211 212 213 214 215 
216 217 218 219 220 221 222 223 224 
225 226 227 228 229 230 231 232 233 
234 235 236 237 238 239 
CELL_DATA 1
FIELD FieldData 3
Length 1 1 double
66.738999642 
Tortuosity 1 1 double
0.88420291225 
ClusterLabel 1 1 int
1 
POINT_DATA 240
FIELD FieldData 6
Curvature 1 240 double
0 0.089196083063 0.17839216613 0.15769791364 0.13607238713 0.11919402182 0.10239680457 0.089845254084 0.07740350533 
0.067736520872 0.058166049954 0.051009985766 0.043959816609 0.039316790639 0.034801577582 0.03260704313 0.030557551091 0.029916091873 
0.029376112498 0.029285183531 0.029230995053 0.028802786875 0.028340264964 0.02753755651 0.026700199427 0.026532115855 0.026439090995 
0.030068576711 0.034154596743 0.045929847145 0.058730328263 0.083103776357 0.10914640238 0.15403817321 0.20185796653 0.27756767693 
0.35792570685 0.45249273873 0.54959206797 0.58276087185 0.60378287591 0.54192091729 0.46331472378 0.3839026842 0.30431796333 
0.25077717336 0.20314325432 0.17421897773 0.14977721965 0.13540056531 0.12356667401 0.11813088972 0.11439672962 0.11464925308 
0.11601633322 0.12027062402 0.12537224838 0.13343448856 0.14240768745 0.15649841584 0.17223812596 0.19831834021 0.22788411764 
0.28535326965 0.35265201952 0.50462791114 0.68774941811 0.96885248239 1.287553121 1.245710984 1.0596517367 0.8012227922 
0.51263980719 0.34966923781 0.24118116197 0.1768776952 0.13251118619 0.10333179001 0.081277212191 0.065937748321 0.0538719025 
0.04566604368 0.039414608657 0.035724306875 0.033380241798 0.032982179187 0.033645572468 0.035963294809 0.039217019118 0.044456619789 
0.050861267926 0.059798943218 0.07027697286 0.084355377304 0.10070251107 0.12136502305 0.14484451802 0.17198129719 0.20159060652 
0.23011344768 0.25787576113 0.27807659742 0.29279810243 0.29582721922 0.29008704486 0.27715989956 0.25865480668 0.23983172835 
0.22075329807 0.2048842925 0.19168157824 0.18259418436 0.17704339392 0.17477801256 0.17543299481 0.17904779757 0.18538372561 
0.19418146214 0.20531993461 0.21773452767 0.23140397266 0.24419083621 0.25608015933 0.26427505381 0.26858442852 0.2676635538 
0.26105363584 0.24986360311 0.23352094127 0.21481786516 0.19336812516 0.17166056051 0.14964265136 0.12889454174 0.1097276919 
0.09306395904 0.079625396119 0.071403189337 0.070136124073 0.07508095255 0.08859819439 0.10578658712 0.12821948111 0.15278259132 
0.18049664634 0.20809494355 0.23551590964 0.25882324862 0.27560244026 0.28582469128 0.28526441773 0.27833747434 0.26055825284 
0.24040679287 0.21606253932 0.19227760848 0.1695181026 0.1481425235 0.1293997807 0.11248007997 0.099160887338 0.087496309401 
0.079225812891 0.072641714389 0.069652306375 0.068395251373 0.070977465204 0.075160638691 0.083034913604 0.092243205664 0.10465313887 
0.11829891895 0.13503431617 0.1525342576 0.17202664754 0.19170334604 0.21188113339 0.23074576557 0.24588273143 0.2581112584 
0.26171141664 0.26122822647 0.2480725757 0.23294916076 0.21143051226 0.18979629381 0.16776828146 0.14643946502 0.12761161857 
0.10987458288 0.096238995678 0.083525842665 0.074463991642 0.06619322898 0.061224400346 0.056877836365 0.055274893805 0.054090354045 
0.05485836068 0.055854969369 0.05798315822 0.060217291826 0.063009029409 0.065838106339 0.068876698486 0.071909397874 0.074906740711 
0.077888976204 0.080773958169 0.083598499287 0.086003983861 0.088312487679 0.089893635827 0.091411981955 0.092418250082 0.093301015181 
0.093082544955 0.092831507707 0.092260721525 0.091608349202 0.090066687952 0.08848287165 0.086383826933 0.084278130817 0.082080146533 
0.079861596155 0.077313988271 0.07478768161 0.072662547979 0.070559296427 0.068954956301 0.067373357785 0.066445580563 0.065535695118 
0.065317625071 0.065110065065 0.065517342427 0.065645376382 0.032822688191 0 
Torsion 1 240 double
0 0 0 -0.13168054158 -0.26447701994 -0.2516994409 -0.23643341642 -0.17323070292 -0.10878824746 
-0.0088872126992 0.092247163948 0.20026031342 0.30857516346 0.39186521925 0.47382652491 0.47710000052 0.47545548675 0.40332833992 
0.32612136367 0.22294798501 0.11765008251 -0.00046148730482 -0.11974862293 -0.2833253488 -0.45141305146 -0.66949290783 -0.89317936089 
-0.93182764518 -0.94778256914 -0.77377918882 -0.57444803459 -0.43136201369 -0.29638827163 -0.21696327048 -0.14616719995 -0.10180527474 
-0.06184904042 -0.035968991919 -0.012597570593 0.0059596080587 0.023602080602 0.050657761056 0.079615099674 0.12276066436 0.1689465632 
0.2171249145 0.26575516222 0.30087952088 0.33276809361 0.34605028842 0.35463192459 0.34550647993 0.33167170527 0.31177419019 
0.29018171543 0.27174268928 0.25422913174 0.24571250147 0.23996415651 0.24159317015 0.24559933267 0.25261309538 0.26064065591 
0.26021312128 0.25680708723 0.21424325955 0.15727656525 0.10494205024 0.054384999378 0.022714095646 -0.0014023492342 -0.051416174242 
-0.1122205743 -0.17095680568 -0.22879600003 -0.28097225461 -0.33059328026 -0.39473690472 -0.46569360022 -0.55368949278 -0.64999199391 
-0.74226638605 -0.83250122933 -0.88760825027 -0.92425064663 -0.91735553926 -0.88671270259 -0.83751765893 -0.77782597184 -0.71563922406 
-0.65198870733 -0.592071855 -0.53442547426 -0.47803104448 -0.42242551531 -0.37117536193 -0.32276830108 -0.27892728295 -0.23817316692 
-0.20390814345 -0.17418548477 -0.14874836357 -0.1264167043 -0.1054324195 -0.085458665566 -0.062977021475 -0.038548955174 -0.011037407225 
0.018950269927 0.047866860978 0.075893626654 0.09799159234 0.11499449553 0.12738481541 0.13567506124 0.14133260402 0.14456975852 
0.14478050061 0.14211367024 0.13729105762 0.13034859246 0.12349408755 0.11672903375 0.11171466894 0.10854154598 0.10792806875 
0.11009876757 0.11600906023 0.12612639597 0.14272944739 0.16687951344 0.20480832538 0.2593226648 0.34475081776 0.46867541776 
0.64298198918 0.88220379303 1.044518696 1.1042910646 1.0326416309 0.77963011002 0.56556039966 0.40712184713 0.28294984927 
0.20946379687 0.15093872268 0.1153325938 0.086325114309 0.067789404479 0.051753955662 0.039830047177 0.028309168113 0.017475271018 
0.0051991924155 -0.0096258581523 -0.027683993814 -0.051669452148 -0.081361593824 -0.12191035259 -0.16998850055 -0.23293719216 -0.30098512969 
-0.37949305886 -0.44721447113 -0.49194357107 -0.51186787018 -0.47681936742 -0.42983634639 -0.35533763047 -0.28450957426 -0.22249110134 
-0.16664090694 -0.12621140884 -0.090453530278 -0.066870175366 -0.045817988763 -0.031647416001 -0.018461455063 -0.0080705212371 0.0025889149587 
0.014044908187 0.026404290345 0.041567293321 0.057981889195 0.078464161987 0.10103372015 0.13071550995 0.16345723193 0.20714409594 
0.2532847982 0.3086519322 0.3647758745 0.42389551629 0.47876836451 0.51591546562 0.54488413208 0.53779333663 0.52535779456 
0.4879801016 0.45056173886 0.41294206062 0.37725135008 0.35171310109 0.32785843047 0.31345050517 0.30002959447 0.29253077142 
0.28522245375 0.27914051446 0.27291932621 0.26573267849 0.25861804599 0.25204352769 0.2454911812 0.23911962025 0.23304403467 
0.22960756273 0.22614152561 0.22238521215 0.21892078827 0.2186379607 0.21858433835 0.22133211328 0.22422415264 0.22911786122 
0.23420731456 0.24242868421 0.25061030535 0.25804332942 0.26538241058 0.27057959369 0.27559135802 0.27527233266 0.27479094318 
0.26803147389 0.25919828186 0.12905230911 0 0 0 
FrenetTangent 3 240 double
-0.88346876467 0.010440341139 0.46837371952 -0.88346876467 0.010440341139 0.46837371952 -0.88346876467 0.010440341139 0.46837371952 
-0.8757544498 -0.030726593566 0.47976874242 -0.86797475939 -0.072242400598 0.49126033332 -0.86205654942 -0.10477355327 0.49475051782 
-0.85617015962 -0.13715112211 0.49810392615 -0.8519454799 -0.16193639998 0.49733079451 -0.84776377543 -0.18652532549 0.49645094201 
-0.84435817651 -0.20514903101 0.49458719594 -0.84097957257 -0.22356525062 0.4926892275 -0.83762476049 -0.23746124136 0.49172750676 
-0.83427099192 -0.25115897645 0.49080684952 -0.83059400322 -0.26149743843 0.4915429777 -0.82689985239 -0.27165753192 0.49236707679 
-0.82279608866 -0.27936032378 0.49485682411 -0.81866672412 -0.28690953429 0.49745067443 -0.81417706773 -0.29272467702 0.50135711861 
-0.80966144436 -0.2984148419 0.50535816414 -0.80490258378 -0.30301049675 0.51014668502 -0.80012382198 -0.30751660078 0.51499963569 
-0.7952812013 -0.31156363801 0.51999161033 -0.79043272202 -0.31556855901 0.52499633946 -0.78575667133 -0.31977954779 0.52940441797 
-0.7810981828 -0.32401152494 0.5337517265 -0.77689558743 -0.32922495095 0.53664817981 -0.77274412027 -0.33454844598 0.53938192037 
-0.76944047726 -0.3418878757 0.53945015714 -0.76624081269 -0.34947454268 0.53919149249 -0.76445084927 -0.36064066576 0.53421412462 
-0.76284884601 -0.37228404966 0.52860759632 -0.7632996261 -0.38993639481 0.51453957387 -0.76404648071 -0.40845541706 0.4992511436 
-0.76688647324 -0.43655458413 0.46832559085 -0.77005161341 -0.46614192905 0.43497097053 -0.77187280017 -0.50854171056 0.3731915454 
-0.7734699947 -0.55307689817 0.30667465282 -0.76057918431 -0.60490698993 0.19879276429 -0.74510635324 -0.65803716362 0.083538896282 
-0.69851966246 -0.69562786724 -0.057669956652 -0.64602133832 -0.73026607154 -0.20381025672 -0.57311083894 -0.73670544514 -0.32946591602 
-0.4960766678 -0.73744808526 -0.45098326405 -0.4248495125 -0.72550345932 -0.53202331645 -0.35486671774 -0.7108401335 -0.60438966265 
-0.2981299338 -0.69722824687 -0.64855352434 -0.24439739973 -0.68385483098 -0.68632094624 -0.19997881894 -0.67463055836 -0.70903945255 
-0.15779170614 -0.66640035131 -0.7281524895 -0.12077319767 -0.66186672719 -0.73893766124 -0.085060441867 -0.65826697666 -0.74761895124 
-0.051846125461 -0.65756612868 -0.75092981431 -0.019296287616 -0.65763626543 -0.75281237234 0.012535352197 -0.66003911714 -0.75047390969 
0.044166205464 -0.66309412572 -0.74695537674 0.076189303365 -0.66818235751 -0.73934848955 0.10832751654 -0.67386729611 -0.73054175928 
0.14163222919 -0.68150296542 -0.7170349193 0.17529586476 -0.68973885957 -0.70208189173 0.21095283396 -0.70017716285 -0.68070922426 
0.24725209954 -0.7113251313 -0.65726800616 0.28673027174 -0.72533827293 -0.62336834692 0.32727998551 -0.74031720326 -0.58594337045 
0.37308230335 -0.75894918589 -0.52747498011 0.42073497035 -0.77886803922 -0.46159356897 0.47419558022 -0.79767076124 -0.34368363166 
0.52979244494 -0.81606295222 -0.20663676518 0.5604118717 -0.78708834842 0.020351912236 0.58144693273 -0.73993811407 0.28185314502 
0.52868054407 -0.60457650562 0.52184132218 0.44639357552 -0.43393034752 0.7532242771 0.35798045652 -0.28022422353 0.87242035486 
0.26701477483 -0.13357644709 0.94487190046 0.2086487655 -0.037293052859 0.97371955571 0.1644223731 0.037145549079 0.9836546802 
0.1373554039 0.088474568297 0.98561804703 0.11803110127 0.12937609287 0.98398440126 0.10691852704 0.15976018405 0.98102012068 
0.09965836859 0.18521017068 0.97743159168 0.097019215518 0.20478728836 0.97385157232 0.096632802566 0.22150138244 0.97027570141 
0.099147213664 0.23427766904 0.96703539403 0.10313039643 0.24506012907 0.96396499224 0.10899335529 0.25274244232 0.96133370065 
0.11584440157 0.25879519124 0.95893322341 0.12388008447 0.26201789989 0.95704188661 0.13256193279 0.2636969502 0.95542826279 
0.14187555908 0.26244593689 0.95441282138 0.1515466387 0.25953712441 0.95373582527 0.16132486839 0.25324847934 0.95377972269 
0.17116595945 0.24497699913 0.95424654431 0.18042796324 0.23247141484 0.95558111481 0.18933781935 0.21739103752 0.95744337044 
0.19660684176 0.19676424045 0.96025437033 0.20284191416 0.17264243915 0.96366320907 0.20586405113 0.14132783669 0.96774342865 
0.20678885524 0.10531793346 0.97226191071 0.20243270146 0.060741526606 0.97628388301 0.19450632264 0.01037368068 0.97997018673 
0.17952619977 -0.048022324596 0.98066697076 0.15960845608 -0.11203804142 0.979271091 0.13272236717 -0.18017128823 0.9719972796 
0.10078675275 -0.25128825244 0.96046409745 0.064807505696 -0.32030146278 0.94221983855 0.025795534175 -0.38773685772 0.91894227209 
-0.013066624108 -0.44851593638 0.89113744984 -0.051812509431 -0.50412891882 0.85981893655 -0.087678229023 -0.55260596702 0.82680424517 
-0.12123108826 -0.59535264378 0.7924274714 -0.15125173862 -0.63290054335 0.75770232064 -0.17833793854 -0.66612945879 0.72268774899 
-0.20235323699 -0.69633311463 0.68715780518 -0.22372947949 -0.72393693799 0.65118496342 -0.24263261871 -0.7499912425 0.61382491802 
-0.2593374439 -0.77466819691 0.57523180273 -0.27381445745 -0.79856255173 0.53416461934 -0.28624332158 -0.82173741984 0.49082288949 
-0.2962366566 -0.84431649181 0.44385584438 -0.30391424263 -0.86632906909 0.39344177823 -0.30858257515 -0.88722278074 0.33861124663 
-0.31029180838 -0.90701627451 0.27943785733 -0.30833885078 -0.92445296051 0.21608474437 -0.30266163133 -0.93949289284 0.14848106498 
-0.29305529257 -0.95073031881 0.078582174371 -0.2793166042 -0.95796855707 0.0062693547148 -0.26221488698 -0.96076470831 -0.065079349131 
-0.24145513837 -0.95872911576 -0.1353793656 -0.21867591504 -0.95306955977 -0.20147354417 -0.19362478264 -0.94333304492 -0.26283615511 
-0.16805512862 -0.93181379356 -0.3181169402 -0.14188210398 -0.91822008518 -0.36632069158 -0.11624570637 -0.90471705184 -0.4081471913 
-0.091255248689 -0.89132316439 -0.44229736957 -0.067231485997 -0.8793185792 -0.47067028927 -0.044411532154 -0.8690440685 -0.491848887 
-0.022571501562 -0.86087440709 -0.50794868386 -0.0019940643909 -0.85541676303 -0.51750464114 0.017771672496 -0.85239707951 -0.52236546407 
0.036455142338 -0.85262801005 -0.52096610788 0.054588055115 -0.85539513749 -0.5147638531 0.071961199142 -0.86166221665 -0.50193359827 
0.088954417031 -0.87028710727 -0.48370732761 0.10540488329 -0.88228029997 -0.45777246289 0.12147451911 -0.89593359495 -0.4255698211 
0.13698084323 -0.91204245785 -0.38409609237 0.1518620345 -0.92825986489 -0.33583323668 0.16578557547 -0.9446435523 -0.27717001627 
0.17854588144 -0.95879700832 -0.21290871722 0.18946018408 -0.96941118408 -0.13976351076 0.19875794775 -0.97594933626 -0.064438521177 
0.2053974029 -0.97578469411 0.014471000656 0.21050285695 -0.97160817877 0.091298337248 0.21299353638 -0.96059324324 0.16457649446 
0.2145598859 -0.94726810931 0.23306999775 0.21449253603 -0.92985983403 0.29310690344 0.21421036507 -0.91188832915 0.34805984703 
0.21353435542 -0.89288423668 0.39369219344 0.21316534655 -0.87430515433 0.43511993872 0.21338038792 -0.85653462781 0.46854868672 
0.21423492233 -0.83949769133 0.49887730567 0.21635245552 -0.82390959517 0.52308316977 0.21934465847 -0.80897271774 0.54512901293 
0.2241310558 -0.79537167361 0.56274404394 0.23000684347 -0.78220505494 0.57883177642 0.23820475267 -0.76996444843 0.59166395153 
0.24771793447 -0.75788017349 0.60336927385 0.26014604473 -0.74614236313 0.61257724677 0.27415326974 -0.7342248103 0.62088220858 
0.29180123155 -0.72189285123 0.62710522814 0.31131702355 -0.70897363199 0.63248597344 0.33531560798 -0.69464498834 0.63584526053 
0.36144635545 -0.67921722809 0.63825599275 0.39290751052 -0.6610416764 0.63829533777 0.42655943072 -0.64117455936 0.63710781667 
0.46592061764 -0.61689912052 0.63272300807 0.50710502389 -0.59037124049 0.62670614921 0.55324630769 -0.55771953593 0.61625215374 
0.60018834562 -0.5225862134 0.60383553821 0.64940349208 -0.48040829793 0.58584761414 0.69781220426 -0.43627090698 0.56604091562 
0.74382849471 -0.38632040548 0.54083851954 0.78749089357 -0.33582927285 0.51476365274 0.82384811159 -0.2836603195 0.48598111817 
0.85734669641 -0.23246768386 0.45760644502 0.88155472335 -0.18444808084 0.43055732147 0.90343352201 -0.13811763654 0.40471809195 
0.91737569105 -0.097542844215 0.38300146433 0.92976149477 -0.058685016663 0.36273090808 0.9365802995 -0.02596864004 0.34763283789 
0.94245174441 0.0053439684124 0.33387002572 0.9447611164 0.031378408538 0.32512778365 0.94649771455 0.056377220248 0.31749102553 
0.94596708296 0.077276669476 0.31423014139 0.94506446632 0.097414333603 0.31186525326 0.94260921649 0.11437237295 0.31324017457 
0.9398830312 0.13075462392 0.31534700688 0.93596226687 0.14459817156 0.32068090134 0.9318191751 0.1579744855 0.32662355432 
0.92663855522 0.16917037552 0.33540708043 0.92126074582 0.17994716285 0.34470066112 0.91490684826 0.18864939191 0.35651901194 
0.90837326719 0.19693639306 0.36876108784 0.90089398349 0.2030379842 0.38323329578 0.89325400794 0.20870047244 0.39804464898 
0.88471237261 0.21189910552 0.41475898394 0.87603642497 0.21462411113 0.4317199128 0.86655460355 0.21450735189 0.45016040505 
0.8569716122 0.21388993109 0.46874781366 0.84673733949 0.21004950148 0.48828099646 0.83644150233 0.20570841642 0.50785283706 
0.82571881828 0.19789612022 0.52769270503 0.81497906915 0.18962636452 0.5474596435 0.80411133194 0.17792566257 0.56667961064 
0.79326436513 0.16583959952 0.58574026301 0.78258675694 0.15061136142 0.60350188723 0.77196397827 0.1350917667 0.62104136005 
0.76183009608 0.11697424209 0.63659998289 0.75177503317 0.098658144212 0.65190770673 0.74249383226 0.078392417923 0.66475205869 
0.73330428817 0.058012619681 0.67734568324 0.72511380349 0.03638943715 0.68720637909 0.71702416861 0.014728866778 0.69683166234 
0.71016714247 -0.0073886660925 0.70357968047 0.70341017827 -0.029495968956 0.71012364134 0.69804157368 -0.051461330477 0.71383630754 
0.69276759692 -0.073383777805 0.71738027439 0.68900766564 -0.094619598061 0.71822505158 0.68533235434 -0.11579729644 0.71893670566 
0.68325071927 -0.13588036613 0.71714120761 0.68123936587 -0.15590761258 0.71524486302 0.68083043453 -0.17466208913 0.71104921756 
0.68047630938 -0.19336876336 0.70677985558 0.68169786198 -0.21070112122 0.7003911439 0.68295833303 -0.22799726271 0.69395144732 
0.68572365069 -0.24389303787 0.68554033409 0.68851281447 -0.25976505257 0.67709753132 0.69269697686 -0.27424708012 0.66680088986 
0.69684597823 -0.28860740996 0.6565907748 0.69684597823 -0.28860740996 0.6565907748 0.69684597823 -0.28860740996 0.6565907748 

FrenetNormal 3 240 double
0.16672861667 -0.92729092068 0.33516132953 0.16672861667 -0.92729092068 0.33516132953 0.16672861667 -0.92729092068 0.33516132953 
0.17252521494 -0.94783952585 0.25428415496 0.17837093692 -0.96856227174 0.17272158061 0.17260521885 -0.97725545683 0.093844839105 
0.16664101463 -0.98574300839 0.015014009271 0.16405486295 -0.98417854942 -0.039411380401 0.1615560747 -0.98235412467 -0.093205594897 
0.17914379537 -0.97852873817 -0.10004835014 0.19743017722 -0.97463375301 -0.10525801114 0.23917582524 -0.96697131907 -0.059526140908 
0.28195038846 -0.95914364615 -0.011559992991 0.34102611903 -0.92903067627 0.082053046733 0.40096739831 -0.89773441628 0.17808981522 
0.45455460674 -0.8319378236 0.28615645074 0.50774468573 -0.76398496013 0.39497495294 0.53914505245 -0.68578090339 0.47514345222 
0.56897498946 -0.60683802191 0.55324708642 0.58302860507 -0.55461861484 0.59046943717 0.59579143076 -0.50458567386 0.62434695564 
0.60268378085 -0.49848007426 0.6230770063 0.6090375552 -0.49640450598 0.61858251864 0.60715406963 -0.54789437313 0.57020936374 
0.60443160389 -0.60483997907 0.51736708533 0.56458448111 -0.70735751621 0.3833877459 0.52057384538 -0.81498592414 0.240308923 
0.40640453151 -0.87528705153 0.024795168498 0.28363085146 -0.92978388979 -0.19960211535 0.16842877529 -0.89470237763 -0.36324614275 
0.054236246308 -0.84767708542 -0.51878973596 -0.0037217165448 -0.78961290615 -0.60407462132 -0.053568924667 -0.72995657972 -0.67922603919 
-0.060342698488 -0.67712338098 -0.73008115969 -0.060425453387 -0.62535008558 -0.77716209809 -0.021821865335 -0.5676479973 -0.81870015749 
0.023229446542 -0.50895777687 -0.85931440374 0.10724033361 -0.42693468091 -0.88883460148 0.1981945113 -0.3407532507 -0.91637764206 
0.30725225964 -0.23316577456 -0.9090541281 0.41974968641 -0.12151114969 -0.89510596876 0.51536444701 -0.023220970997 -0.84457859692 
0.60756856799 0.072369319577 -0.78666148518 0.6769029702 0.12913256132 -0.71669387604 0.74133671839 0.17757572118 -0.64414401746 
0.79493020036 0.18955216963 -0.5692710275 0.84606506525 0.19325781757 -0.49387114178 0.88926000632 0.17106635213 -0.41363795111 
0.93055267397 0.14267036994 -0.33224678113 0.95879264015 0.10014807104 -0.24644810201 0.98373508175 0.054057018441 -0.15953594689 
0.99257523589 0.0060207194421 -0.073813674385 0.99713286678 -0.042532932323 0.011592139984 0.98827867039 -0.085266682209 0.09150262529 
0.9756749309 -0.12637336275 0.16987678204 0.95415006668 -0.15858466063 0.24165411494 0.9300070463 -0.18818535707 0.31149542344 
0.89908368601 -0.20994493431 0.3771466659 0.86607406728 -0.22929185948 0.44150865726 0.82509511773 -0.24221012703 0.50485993999 
0.78154827269 -0.25305693823 0.56788554992 0.72725934707 -0.25527077087 0.63159661556 0.66934949542 -0.25457461074 0.69553873367 
0.59669859815 -0.23512894985 0.76048714954 0.51885483254 -0.2090783512 0.82579005666 0.41320491226 -0.13647953217 0.88724963979 
0.29732744084 -0.046759528643 0.9472955865 0.1337100188 0.11982248504 0.9491554392 -0.048226221505 0.31589806075 0.92868806979 
-0.21596288183 0.4942747745 0.79143415047 -0.37801971016 0.66557194345 0.60746561118 -0.45702395841 0.75693705818 0.43069968974 
-0.50142296497 0.81499715032 0.25693485907 -0.4984320444 0.85035121529 0.13943570028 -0.47488645665 0.87585688293 0.046340929287 
-0.42628650877 0.90063234719 -0.021377920236 -0.36638154474 0.92507832942 -0.077646658853 -0.27891451046 0.94652096266 -0.12367838549 
-0.17851712223 0.96655461736 -0.16490756329 -0.042754173645 0.96776124139 -0.19917161252 0.11024948562 0.95978968799 -0.23004016157 
0.28983172732 0.90274372725 -0.2483462295 0.4828714791 0.82084996534 -0.26029154748 0.65650851769 0.67229299529 -0.25114741093 
0.81994669422 0.48869510814 -0.23091779186 0.91402837742 0.2703552264 -0.19234057622 0.97027924609 0.033065165793 -0.14375558063 
0.95600572435 -0.18581700775 -0.091057528738 0.90183024488 -0.39428419256 -0.036032352892 0.80985242958 -0.56017510549 0.011700741248 
0.69569724393 -0.70108793893 0.055155814121 0.57105328016 -0.80342625158 0.087569001144 0.44003100537 -0.88230708538 0.11326752785 
0.31472182444 -0.9333882344 0.12675872643 0.19301267526 -0.96695177384 0.13255763604 0.083165003119 -0.98394728128 0.12594877315 
-0.018939760409 -0.99012754562 0.11124039209 -0.10924957927 -0.98698915844 0.084021059447 -0.19158535103 -0.97755083785 0.048343618681 
-0.26320158155 -0.96144055301 0.0010818525667 -0.32731413319 -0.9406598932 -0.05428894129 -0.38163373899 -0.91326363447 -0.1171797137 
-0.42885700723 -0.88107346349 -0.18551974593 -0.46581685138 -0.84378876422 -0.25479962879 -0.49507912746 -0.80268316876 -0.32478439963 
-0.51370106602 -0.76086879963 -0.39048209197 -0.52406483216 -0.7185043375 -0.4528524995 -0.52421084034 -0.67965125959 -0.50984402881 
-0.51615167926 -0.64361792962 -0.56251615589 -0.4988721551 -0.61236103085 -0.61108154537 -0.47393263701 -0.58507224416 -0.6562351836 
-0.44229574762 -0.56048965308 -0.69821858619 -0.40490330478 -0.53823269886 -0.73747756751 -0.3634664396 -0.51581560206 -0.77391153766 
-0.31843453236 -0.49325615631 -0.80783438679 -0.27043762145 -0.46856251857 -0.83912021815 -0.21971482006 -0.4419068011 -0.86798169446 