# vtk DataFile Version 5.1
vtk output
ASCII
DATASET POLYDATA
POINTS 240 float
0 0 0 -0.160173 -0.341813 0.0740454 -0.320347 -0.683626 0.148091 
-0.514585 -0.966853 0.237879 -0.709113 -1.24958 0.3278 -0.928928 -1.48371 0.424285 
-1.14918 -1.717 0.520883 -1.3861 -1.91151 0.615069 -1.62346 -2.10501 0.709193 
-1.86914 -2.26936 0.792257 -2.11511 -2.4327 0.874937 -2.3615 -2.57623 0.938486 
-2.60791 -2.71889 1.0012 -2.84756 -2.85062 1.03767 -3.08685 -2.98175 1.07276 
-3.31341 -3.10995 1.07604 -3.53917 -3.23795 1.07733 -3.74783 -3.36975 1.04336 
-3.95524 -3.50182 1.00685 -4.14307 -3.64286 0.93424 -4.3293 -3.78462 0.858679 
-4.4953 -3.93889 0.74903 -4.65944 -4.0943 0.636253 -4.8042 -4.26427 0.494131 
-4.94698 -4.43572 0.34902 -5.07209 -4.62266 0.181617 -5.19521 -4.81134 0.0117135 
-5.30239 -5.0157 -0.171952 -5.40761 -5.22199 -0.357306 -5.49792 -5.44375 -0.547576 
-5.58624 -5.66757 -0.738502 -5.65944 -5.90634 -0.926395 -5.73045 -6.14726 -1.11385 
-5.7848 -6.40215 -1.29227 -5.83656 -6.6592 -1.46929 -5.86899 -6.92855 -1.63396 
-5.89819 -7.19994 -1.79656 -5.90479 -7.481 -1.9464 -5.90737 -7.76377 -2.09397 
-5.88419 -8.05248 -2.23104 -5.85612 -8.34231 -2.36611 -5.79995 -8.63321 -2.4949 
-5.7381 -8.92433 -2.62242 -5.64721 -9.21077 -2.74868 -5.55009 -9.4962 -2.87466 
-5.42472 -9.77066 -3.00403 -5.29295 -10.0426 -3.13416 -5.1356 -10.2973 -3.27077 
-4.97213 -10.5478 -3.40893 -4.78757 -10.7752 -3.55416 -4.59769 -10.9969 -3.70119 
-4.39277 -11.191 -3.85286 -4.18385 -11.3778 -4.00577 -3.9671 -11.5343 -4.15777 
-3.74816 -11.6824 -4.30953 -3.52922 -11.7997 -4.45226 -3.31029 -11.908 -4.59234 
-3.09917 -11.9874 -4.71371 -2.89046 -12.0578 -4.82933 -2.69671 -12.1031 -4.91639 
-2.50779 -12.1402 -4.99424 -2.33972 -12.1575 -5.03499 -2.17869 -12.1682 -5.06322 
-2.04265 -12.1649 -5.04845 -1.91542 -12.1568 -5.01853 -1.81529 -12.1407 -4.94329 
-1.72512 -12.1217 -4.85138 -1.66204 -12.0993 -4.71565 -1.60936 -12.0756 -4.56311 
-1.58174 -12.0514 -4.3717 -1.56415 -12.0271 -4.16475 -1.56792 -12.0028 -3.92648 
-1.58059 -11.9787 -3.67516 -1.60978 -11.9533 -3.40145 -1.64614 -11.9273 -3.11801 
-1.69369 -11.8969 -2.8213 -1.74629 -11.8646 -2.51859 -1.80504 -11.8241 -2.21091 
-1.86666 -11.7797 -1.90091 -1.93027 -11.7238 -1.5927 -1.99486 -11.6622 -1.28535 
-2.05862 -11.5867 -0.984605 -2.12196 -11.5041 -0.687205 -2.18312 -11.4076 -0.399147 
-2.24312 -11.3037 -0.115999 -2.30083 -11.1881 0.157047 -2.35728 -11.0662 0.424584 
-2.41216 -10.9374 0.682904 -2.46616 -10.8046 0.936009 -2.51971 -10.6716 1.182 
-2.573 -10.5384 1.42381 -2.62693 -10.4127 1.66125 -2.68124 -10.2915 1.89605 
-2.73694 -10.1855 2.12932 -2.79352 -10.089 2.36162 -2.85179 -10.0143 2.5948 
-2.91117 -9.95398 2.82854 -2.97211 -9.92055 3.06474 -3.03409 -9.90532 3.3026 
-3.0971 -9.91991 3.54343 -3.16083 -9.95536 3.78634 -3.22475 -10.0213 4.03153 
-3.28881 -10.1094 4.27837 -3.3521 -10.2268 4.5256 -3.4148 -10.3661 4.77312 
-3.47575 -10.5318 5.01806 -3.53533 -10.718 5.26101 -3.59231 -10.9268 5.49759 
-3.6472 -11.1536 5.72907 -3.69884 -11.3985 5.94988 -3.74779 -11.6585 6.16184 
-3.7931 -11.932 6.35872 -3.83528 -12.2171 6.54264 -3.87368 -12.5114 6.70741 
-3.90871 -12.814 6.85515 -3.94001 -13.1221 6.98039 -3.9679 -13.4352 7.08496 
-3.9923 -13.7507 7.16484 -4.01339 -14.0684 7.22125 -4.03133 -14.386 7.25221 
-4.0462 -14.7035 7.25814 -4.05832 -15.019 7.23944 -4.06765 -15.3327 7.1957 
-4.07462 -15.6432 7.12977 -4.07909 -15.9504 7.04051 -4.08148 -16.254 6.93303 
-4.08159 -16.5535 6.80573 -4.07975 -16.8491 6.66545 -4.0757 -17.1403 6.51059 
-4.06961 -17.4278 6.34892 -4.06115 -17.7109 6.17932 -4.05035 -17.9908 6.00955 
-4.03673 -18.2668 5.83955 -4.02022 -18.5402 5.67592 -4.00012 -18.8103 5.5202 
-3.97638 -19.0784 5.37673 -3.94794 -19.3439 5.24905 -3.91495 -19.6079 5.13833 
-3.87587 -19.8698 5.05021 -3.83123 -20.1303 4.98212 -3.77889 -20.3889 4.94166 
-3.71998 -20.646 4.9224 -3.65167 -20.9007 4.93344 -3.57588 -21.1533 4.96512 
-3.48904 -21.4027 5.02732 -3.39404 -21.6488 5.10807 -3.28655 -21.8899 5.21722 
-3.17053 -22.1265 5.34173 -3.04099 -22.3557 5.49062 -2.90291 -22.5786 5.65113 
-2.75081 -22.7913 5.83075 -2.59056 -22.9961 6.01823 -2.41642 -23.1875 6.21911 
-2.23485 -23.3695 6.42441 -2.04018 -23.5349 6.63755 -1.83906 -23.6897 6.85229 
-1.62612 -23.8251 7.06996 -1.40783 -23.9492 7.28706 -1.17935 -24.0519 7.50309 
-0.94658 -24.1433 7.71703 -0.705347 -24.2122 7.92685 -0.460759 -24.2704 8.1336 
-0.209293 -24.3064 8.33407 0.0448013 -24.3327 8.53093 0.304497 -24.3384 8.72012 
0.566326 -24.336 8.90551 0.832884 -24.3158 9.0825 1.10129 -24.2895 9.25576 
1.37393 -24.2489 9.42043 1.64828 -24.2042 9.58165 1.92669 -24.1495 9.73456 
2.20671 -24.0923 9.88445 2.49076 -24.0291 10.0268 2.77634 -23.9649 10.1666 
3.06589 -23.8982 10.3 3.35681 -23.8314 10.4315 3.65149 -23.7647 10.5579 
3.94731 -23.6984 10.6829 4.24637 -23.6333 10.8045 4.54623 -23.5688 10.9254 
4.84847 -23.5057 11.0444 5.15108 -23.4429 11.1632 5.45482 -23.3807 11.2818 
5.75842 -23.3183 11.4008 6.06154 -23.255 11.5211 6.36396 -23.1912 11.6422 
6.66398 -23.125 11.7662 6.96273 -23.0578 11.8916 7.25694 -22.9872 12.0214 
7.54934 -22.9156 12.1529 7.83494 -22.8405 12.2906 8.11828 -22.7646 12.4304 
8.39263 -22.6861 12.5782 8.66437 -22.6075 12.7283 8.92521 -22.5287 12.8882 
9.18325 -22.4505 13.0507 9.42893 -22.3756 13.2246 9.67179 -22.3023 13.4012 
9.90146 -22.2365 13.5904 10.1284 -22.1731 13.7823 10.3421 -22.1217 13.9874 
10.5533 -22.0733 14.1949 10.7517 -22.0412 14.4152 10.948 -22.0125 14.6376 
11.1325 -22.0032 14.8716 11.3151 -21.9976 15.1072 11.4871 -22.0135 15.3521 
11.6575 -22.033 15.5979 11.8181 -22.075 15.8501 11.9773 -22.1203 16.1027 
12.1271 -22.1886 16.3578 12.2757 -22.2599 16.6128 12.4146 -22.354 16.8662 
12.5522 -22.451 17.1189 12.6792 -22.5708 17.3661 12.8048 -22.6932 17.6121 
12.9182 -22.8388 17.8488 13.0302 -22.9868 18.0843 13.1281 -23.1584 18.3074 
13.2246 -23.3323 18.5291 13.3051 -23.53 18.7365 13.3842 -23.7297 18.9426 
13.4459 -23.9529 19.1337 13.5062 -24.1776 19.3238 13.5481 -24.4244 19.4993 
13.5888 -24.6723 19.674 13.6105 -24.9395 19.8359 13.6312 -25.2074 19.9973 
13.6325 -25.4906 20.1484 13.6329 -25.7741 20.2992 13.6137 -26.0679 20.4427 
13.5938 -26.3619 20.5861 13.5537 -26.6605 20.7249 13.5131 -26.959 20.8638 
13.4516 -27.2566 21.0003 13.3897 -27.5541 21.1368 13.3061 -27.8456 21.2721 
13.2224 -28.1371 21.4074 13.1162 -28.4185 21.5412 13.0099 -28.7 21.675 

LINES 2 240
OFFSETS vtktypeint64
0 240 
CONNECTIVITY vtktypeint64
0 1 2 3 4 5 6 7 8 
9 10 11 12 13 14 15 16 17 
18 19 20 21 22 23 24 25 26 
27 28 29 30 31 32 33 34 35 
36 37 38 39 40 41 42 43 44 
45 46 47 48 49 50 51 52 53 
54 55 56 57 58 59 60 61 62 
63 64 65 66 67 68 69 70 71 
72 73 74 75 76 77 78 79 80 
81 82 83 84 85 86 87 88 89 
90 91 92 93 94 95 96 97 98 
99 100 101 102 103 104 105 106 107 
108 109 110 111 112 113 114 115 116 
117 118 119 120 121 122 123 124 125 
126 127 128 129 130 131 132 133 134 
135 136 137 138 139 140 141 142 143 
144 145 146 147 148 149 150 151 152 
153 154 155 156 157 158 159 160 161 
162 163 164 165 166 167 168 169 170 
171 172 173 174 175 176 177 178 179 
180 181 182 183 184 185 186 187 188 
189 190 191 192 193 194 195 196 197 
198 199 200 201 202 203 204 205 206 
207 208 209 210 211 212 213 214 215 
216 217 218 219 220 221 222 223 224 
225 226 227 228 229 230 231 232 233 
234 235 236 237 238 239 
CELL_DATA 1
FIELD FieldData 3
Length 1 1 double
71.903056597 
Tortuosity 1 1 double
0.88001902576 
ClusterLabel 1 1 int
3 
POINT_DATA 240
FIELD FieldData 6
Curvature 1 240 double
0 0.11606475781 0.23212951561 0.22728301799 0.22141184871 0.20600193521 0.19042896625 0.17282374458 0.15516596465 
0.14588632593 0.13689810083 0.14854283671 0.16109252702 0.19457959896 0.22917839027 0.27124330874 0.31377486017 0.3427392738 
0.3707258757 0.36812803191 0.36302782438 0.33202860789 0.29865333554 0.25896856234 0.21864115479 0.18708252418 0.15650730781 
0.14020885377 0.12566132341 0.12356785664 0.12313493169 0.12872040842 0.13517392385 0.14232262446 0.149579315 0.15488744317 
0.15987081096 0.16235329477 0.16439007648 0.16519121167 0.16575757401 0.16683005336 0.16800477856 0.17037031758 0.17299103099 
0.17622226412 0.17959196564 0.18248780643 0.18527011807 0.18703576708 0.18854457499 0.18989305593 0.19119889672 0.19465397518 
0.19870991579 0.21213973498 0.22832058375 0.27305357456 0.32657183985 0.46129368876 0.62218113684 0.96898128683 1.3784486397 
1.7906484726 2.2038108836 2.0360763284 1.6546785211 1.2325660454 0.79483049908 0.53629191021 0.34943210428 0.24098102015 
0.16520023676 0.11985874591 0.087719839793 0.073957806255 0.068487776201 0.073384045338 0.083143516564 0.094917016687 0.1076723559 
0.11713713113 0.12493579803 0.12601135664 0.1235529737 0.11286851454 0.097697104693 0.074207836559 0.046012411761 0.040950852992 
0.049461162292 0.084928409729 0.13678838982 0.1925715059 0.25082673508 0.30331316512 0.35203385128 0.38190456432 0.39903163357 
0.39518854976 0.37666635882 0.34847191965 0.31326860495 0.27971627939 0.24740219569 0.22114266496 0.19958219027 0.18396023914 
0.17310710236 0.16716032189 0.16528959129 0.16743014977 0.1730179098 0.18154898034 0.19269632688 0.20509158352 0.21863411235 
0.23065497726 0.24122901418 0.24719352805 0.24862534426 0.24398888111 0.23318128641 0.21743397643 0.19649144866 0.17320920484 
0.14738200671 0.12097896288 0.09392809266 0.068294787847 0.044311013693 0.037123717935 0.050154405432 0.074086704322 0.11159459476 
0.15318901926 0.20004878574 0.24749721021 0.29573051201 0.33659848303 0.36730229756 0.38440874409 0.38209037919 0.36911649301 
0.34038131492 0.30949966539 0.27532980429 0.24430671528 0.21827741678 0.19649241076 0.18168690792 0.17010398894 0.16401411065 
0.1599935866 0.15963052586 0.16016478681 0.1623441375 0.16451791301 0.16668108204 0.1680887986 0.16800449652 0.16660542858 
0.16250940505 0.15701392652 0.14853539917 0.13897288623 0.12700802682 0.11479298042 0.10200111401 0.089541989496 0.077881445538 
0.067002948507 0.058079568797 0.050004289372 0.044139210689 0.038524413286 0.033590068111 0.028562058648 0.023268163468 0.017705295405 
0.011344474455 0.0068680183497 0.008239591075 0.011207193264 0.01936189121 0.027437840045 0.035245458579 0.04296090993 0.05034668636 
0.057645345898 0.064616445926 0.071686147245 0.07914614534 0.086852450288 0.095586818619 0.1045689139 0.11464325984 0.12478001774 
0.13520803146 0.14528075593 0.15359479861 0.16124211867 0.16538037235 0.1688510369 0.16857578468 0.16786275869 0.16452309009 
0.16116524238 0.15769036671 0.15451412724 0.15340843215 0.15270828808 0.15504977665 0.15780029391 0.16388596824 0.17015983779 
0.17811178138 0.18589121683 0.19197693601 0.19759347021 0.19809588816 0.19805885723 0.19142856238 0.18443401707 0.17238549654 
0.16025214272 0.14676145613 0.1333772111 0.1219976153 0.11083407379 0.10459657016 0.098542863044 0.097773305787 0.097098525226 
0.10008844354 0.10310980584 0.10797064161 0.1123187027 0.056159351351 0 
Torsion 1 240 double
0 0 0 0.081583734295 0.16385885617 0.23256919651 0.30104766025 0.43969455968 0.58015616003 
0.75786420645 0.93686778142 0.8951755396 0.84380365669 0.67765365892 0.50540924796 0.39879801817 0.29628886219 0.24772276582 
0.20304445752 0.19023238682 0.18002755375 0.19642955367 0.21527254745 0.26729002077 0.32268637626 0.40534326577 0.49105741143 
0.52367449006 0.54977966424 0.46106030189 0.35703100133 0.23520741541 0.11081734602 0.017474476945 -0.07104552606 -0.13731108469 
-0.19986756926 -0.24928071997 -0.29635149434 -0.32687534763 -0.35425528591 -0.35802180569 -0.3570179379 -0.33433961259 -0.30701676068 
-0.26739302217 -0.22497939185 -0.17884169862 -0.13181178199 -0.080687588206 -0.028529050725 0.036443925612 0.10482499739 0.20117252364 
0.30533862856 0.44393192513 0.59262885404 0.718079428 0.83637727736 0.83357539844 0.79175249596 0.6634077449 0.50589832577 
0.39505274578 0.30064556366 0.2686741833 0.25966769555 0.23558932877 0.20572756656 0.12247519835 0.01786658774 -0.14197303366 
-0.32482557621 -0.59770284837 -0.90962699119 -0.99634072214 -0.98143512091 -0.781943458 -0.49585586492 -0.31439144354 -0.18393081835 
-0.10493413498 -0.051995143675 -0.012752429314 0.019290959987 0.064609668639 0.11716946058 0.51357529222 1.1045255937 1.1784458164 
0.94904172608 0.64214725654 0.28813025908 0.12794852491 0.089909559377 0.067808457819 0.056111239687 0.048495887858 0.043640107615 
0.039797444434 0.036663963195 0.032662424177 0.028031857781 0.021368363775 0.01318017406 0.003107770025 -0.008427009303 -0.01992244062 
-0.031386274292 -0.040526365995 -0.04773596437 -0.051724749405 -0.052945647978 -0.05185049584 -0.048696631959 -0.044681506795 -0.039874576903 
-0.034962755513 -0.029951201222 -0.024790204525 -0.019482256127 -0.013395586779 -0.0065169978219 0.0029521431909 0.015145830331 0.036144042482 
0.0667191064 0.1401143114 0.26168217513 0.8491921735 1.9788893831 2.2058346208 1.3461339664 0.71067647942 0.35446520092 
0.12483378881 0.058295666083 0.008516914547 -0.018916008736 -0.042583992635 -0.061056360185 -0.080019532521 -0.099683854552 -0.12167982013 
-0.14712467512 -0.17325246049 -0.2004264371 -0.22358343842 -0.24036567459 -0.24829751284 -0.24167536341 -0.22775860386 -0.2014078498 
-0.17359900557 -0.14321307173 -0.11574705449 -0.093634217683 -0.075428269765 -0.06465493973 -0.057460171364 -0.057333062295 -0.060217968304 
-0.069281366783 -0.081646250093 -0.10104850897 -0.12436254346 -0.15634591851 -0.19209562466 -0.23652881642 -0.28554122175 -0.34554373967 
-0.40394240682 -0.45833144706 -0.49625185636 -0.49125401532 -0.47683838638 -0.43681814658 -0.40012561083 -0.37287946081 -0.43177117857 
-0.74620523742 -0.91328745607 -0.6230708603 -0.35372224024 -0.15219454125 0.01609389759 0.071122635172 0.12294096193 0.1632758961 
0.20372078556 0.2445791069 0.28234647006 0.30787879043 0.32898267572 0.33160265807 0.33183005942 0.32150835363 0.30967707299 
0.29080110969 0.27181462774 0.25228107842 0.2335135549 0.21877774603 0.20460001968 0.1935537563 0.18296107385 0.17508987697 
0.16707829155 0.15816295488 0.14811868648 0.13024715799 0.11188716982 0.089863734036 0.067983453735 0.047270441232 0.026801460813 
0.0085084331362 -0.0093636975895 -0.023103385525 -0.036686965555 -0.048568969407 -0.060808119293 -0.077412387361 -0.094774056762 -0.12264466966 
-0.1511882424 -0.19049917263 -0.2299903901 -0.27287701708 -0.31472007328 -0.33276971531 -0.3489342083 -0.31090066589 -0.27221649997 
-0.20837489182 -0.14438778951 -0.071889279168 0 0 0 
FrenetTangent 3 240 double
-0.48146120724 -0.84773838929 0.22256398913 -0.48146120724 -0.84773838929 0.22256398913 -0.48146120724 -0.84773838929 0.22256398913 
-0.5414782052 -0.79959186684 0.2465623584 -0.6020038218 -0.75103732302 0.27076410368 -0.6502632426 -0.70234837637 0.28114717938 
-0.69831298484 -0.65365713225 0.2912940385 -0.73458984195 -0.61232228574 0.28706868675 -0.77056222789 -0.57117769089 0.28247163988 
-0.79681987864 -0.5419795711 0.26352347831 -0.82273962556 -0.51319698088 0.24407614753 -0.84013697178 -0.49849090176 0.20963160983 
-0.85716052849 -0.48440221348 0.17452929989 -0.8643929378 -0.48461001386 0.12330872547 -0.87110546317 -0.48557691983 0.071232313992 
-0.86389405814 -0.4986909872 0.0036363332608 -0.85581240745 -0.51256425216 -0.064929620549 -0.82930522966 -0.53327261937 -0.14294028713 
-0.80147008596 -0.55447360656 -0.22163165373 -0.75622345069 -0.57560642196 -0.29741358015 -0.70955223884 -0.59673365967 -0.37295746146 
-0.65443570634 -0.61374897315 -0.43369880897 -0.59854437379 -0.63038704587 -0.49308212586 -0.54475379479 -0.64366560698 -0.5333269825 
-0.49117718143 -0.6566019956 -0.57162255151 -0.44509380376 -0.66916808705 -0.59290240652 -0.39985078896 -0.68169264985 -0.61227395716 
-0.3620289692 -0.69627779183 -0.61849456941 -0.32511729599 -0.71111564635 -0.62310233072 -0.29273208623 -0.72893313054 -0.61772687978 
-0.26095040493 -0.74714789868 -0.61102033387 -0.23004721961 -0.767718521 -0.59672361193 -0.19927074045 -0.78862892996 -0.58133215306 
-0.16612764196 -0.80993021496 -0.56071207631 -0.13261691328 -0.83129221856 -0.53927978708 -0.094602935561 -0.85021243709 -0.51555255247 
-0.055838416334 -0.86872569145 -0.49144282696 -0.01199586522 -0.88186736824 -0.4685544182 0.032751681677 -0.89405173418 -0.44588366984 
0.081637130621 -0.89863646857 -0.42786469011 0.13130878095 -0.90177727297 -0.41072954641 0.18317879334 -0.89620676769 -0.40056552246 
0.23549291927 -0.88887640188 -0.39180980554 0.28772628638 -0.87271881764 -0.39063652307 0.33994234803 -0.85466968659 -0.391088048 
0.38999257493 -0.82838926564 -0.39805533849 0.43955158157 -0.80024195419 -0.40650043147 0.48539840938 -0.76505880219 -0.41906820755 
0.53035586101 -0.72818998006 -0.43262370979 0.57084299029 -0.68601655773 -0.44719313168 0.61020077499 -0.64250302587 -0.4620187017 
0.64537558075 -0.59568352185 -0.47456065419 0.67943789211 -0.54798476991 -0.48649526159 0.71068096391 -0.49883049602 -0.49278285296 
0.74113586119 -0.44926930201 -0.49749170866 0.77107039902 -0.39940480458 -0.49258401607 0.80085222265 -0.34945129419 -0.48485407561 
0.83293835257 -0.29912221893 -0.4609834024 0.86573349982 -0.24867758525 -0.4321463499 0.90204481515 -0.19615700915 -0.37335633251 
0.93948911798 -0.14296751828 -0.30491480422 0.96792635489 -0.084570114246 -0.1783602269 0.99332750215 -0.024417233867 -0.032216981358 
0.95107520391 0.03437950057 0.1826393841 0.88499044191 0.092698501776 0.42170150772 0.73314293824 0.1232355805 0.619850158 
0.5497505181 0.14355402107 0.80295017442 0.38782519469 0.1422961591 0.89667710609 0.23413724561 0.13275901824 0.95610971455 
0.12636898769 0.1212379225 0.9806631469 0.036968606244 0.1089232448 0.99126490879 -0.02502740741 0.10095724612 0.99337434656 
-0.075604934484 0.094803197024 0.99194531595 -0.11119556901 0.094654929841 0.98888001482 -0.14028586459 0.097111580114 0.985105006 
-0.16050584671 0.10618974387 0.98110901597 -0.17672337031 0.1182556637 0.97701331492 -0.18719486772 0.13693240891 0.97247310326 
-0.19497069851 0.15871052898 0.96772435577 -0.19886764158 0.18635365886 0.96168849533 -0.20087362688 0.21685598102 0.95502516733 
-0.2004672471 0.2511055269 0.94631146532 -0.19883941664 0.28725240123 0.93655959926 -0.19623736215 0.32341602334 0.9249781189 
-0.19312321554 0.35958844877 0.9124349182 -0.19046784466 0.39144856115 0.8997638289 -0.18806271509 0.42095650278 0.88702298217 
-0.1873121393 0.44222023165 0.87695514728 -0.18749769263 0.45881947171 0.86839967436 -0.19000554623 0.46395922218 0.86523092005 
-0.193875816 0.46237607209 0.86522237401 -0.19999139155 0.44665419443 0.87169475979 -0.20747235575 0.42233444189 0.88210825277 
-0.21621426483 0.38162914582 0.8972314554 -0.2257507419 0.33059871273 0.91532242026 -0.23456657351 0.26312312752 0.93286705728 
-0.24291198379 0.18491251245 0.95005506361 -0.24820485746 0.095727105311 0.95986529714 -0.2514340444 -0.00087787956008 0.96468774061 
-0.25057006896 -0.098201976865 0.95886245333 -0.24684087984 -0.19602945287 0.94558375453 -0.23996498933 -0.28617777749 0.92406575534 
-0.23080888041 -0.37076149966 0.89657724864 -0.220200967 -0.44525679098 0.86515747207 -0.20850420023 -0.51218575917 0.83078924311 
-0.1965661519 -0.57075434923 0.79509553745 -0.18444084029 -0.6228342876 0.75837310361 -0.17261387375 -0.66928380042 0.72080394579 
-0.16102648737 -0.71121191088 0.68255484298 -0.14986363764 -0.74970097796 0.64266885402 -0.13905347991 -0.78533299361 0.60142299044 
-0.12859880404 -0.81879024065 0.55717082184 -0.11844962038 -0.85037854592 0.51033510986 -0.10852316082 -0.87999750685 0.45908802311 
-0.09879467822 -0.90786593947 0.40391971432 -0.089174256019 -0.93288898801 0.34353116957 -0.079653179668 -0.95529611895 0.27834337564 
-0.070219787498 -0.97321715869 0.20852997522 -0.060869767172 -0.98687273466 0.13431845715 -0.051717363597 -0.99460632184 0.058038223459 
-0.04275928316 -0.99651662005 -0.020276247266 -0.034168879793 -0.99256849698 -0.096706336743 -0.025952385311 -0.98266265738 -0.17122010631 
-0.018193319898 -0.96889830226 -0.24016580731 -0.010915343679 -0.95107585324 -0.30325543621 -0.0039912552397 -0.93237735585 -0.35875740411 
0.0025479026317 -0.91272596374 -0.40600612672 0.0090441963176 -0.89486700281 -0.4452604353 0.015492267795 -0.87902452697 -0.4755210281 
0.022359946938 -0.86675787573 -0.49801196518 0.029715896819 -0.85865218402 -0.51146184833 0.038077956648 -0.85499846678 -0.51715727624 
0.047651074747 -0.85670360769 -0.51351863767 0.058920839137 -0.86284741624 -0.50144631847 0.072303408342 -0.87451862221 -0.47887168 
0.088064209865 -0.88935874379 -0.44655857683 0.10688927226 -0.90828189125 -0.40169783647 0.12840483638 -0.92718591605 -0.34626057923 
0.15350773616 -0.94606444396 -0.27672129951 0.18068678545 -0.96014068829 -0.19859748449 0.21073092109 -0.96758978126 -0.10862701075 
0.24131205954 -0.96678469702 -0.016083169912 0.27266034486 -0.95418793106 0.080136909639 0.30320545692 -0.93413057703 0.17195946088 
0.33256254183 -0.90303776982 0.25727733482 0.36091006967 -0.86804269614 0.33467114275 0.38771104198 -0.82706968233 0.39992595596 
0.41401342902 -0.78510314484 0.45751095242 0.43952458291 -0.74155992847 0.50292428316 0.46505692476 -0.69813105374 0.54243168561 
0.49062410902 -0.65489020746 0.5722271171 0.5164319298 -0.61170330837 0.59780476421 0.54264992647 -0.5686083647 0.61619300613 
0.56903142469 -0.5251118885 0.63151870343 0.59570190238 -0.48090572689 0.6414315312 0.62223383646 -0.43592392565 0.64894385316 
0.64851177391 -0.38952011844 0.6520552478 0.67420557031 -0.34233461182 0.65310383498 0.69878807396 -0.29366196974 0.65022805675 
0.72234623865 -0.24464526806 0.64550466682 0.7438813339 -0.19494904867 0.63713224375 0.76411224577 -0.14574549047 0.62717261019 
0.78166790972 -0.097552519309 0.61395716024 0.79791315897 -0.050855247019 0.59956275881 0.81136515587 -0.007346174952 0.58265532919 
0.82377251356 0.033795993096 0.56509480715 0.83386472488 0.069692590076 0.54608689108 0.84330580305 0.10277507382 0.52695391343 
0.85124565756 0.12936946318 0.50753259935 0.85885501201 0.15318594194 0.48842672736 0.86567116632 0.17033543526 0.47007791639 
0.87232124727 0.18506904494 0.45234934892 0.87855614484 0.19376294553 0.43617139017 0.88463942388 0.20064489754 0.42077457744 
0.89032757587 0.20280480177 0.40741347857 0.89576610687 0.20388758753 0.39493443169 0.90052598078 0.20204195744 0.38485346364 
0.90492560707 0.19981601459 0.37570437573 0.90830259492 0.19651047419 0.369200625 0.91125567939 0.19340187883 0.36359437452 
0.91295118383 0.19087755377 0.36065070806 0.9141790844 0.18895003118 0.35857259302 0.91395580055 0.18887465416 0.35918067204 
0.91322952251 0.18954763903 0.36065157497 0.91086851332 0.19265280002 0.36492665562 0.9079818295 0.19641606919 0.37005434509 
0.90330395809 0.20242178105 0.3780872202 0.89807689157 0.20879504717 0.38699180611 0.89088539643 0.21648302658 0.39901443454 
0.88313103699 0.22412234246 0.41193517131 0.8732603078 0.23157868341 0.42823279548 0.86283958123 0.23848300107 0.44543297733 
0.85024178174 0.24320222649 0.46620578334 0.83712468407 0.24688068909 0.48782022371 0.82184008099 0.24621509814 0.51294757272 
0.8060818502 0.24414094941 0.53872120483 0.78823535182 0.2358563413 0.56734435792 0.76998127956 0.22594514942 0.59627905595 
0.74982519588 0.20844323331 0.62666763044 0.7293640268 0.1893484241 0.65691040935 0.70739268496 0.16236879404 0.68643150023 
0.68526525944 0.13411675551 0.71534143399 0.66231634092 0.09916783029 0.74103475133 0.63938596262 0.063427416931 0.76580345762 
0.61655961554 0.023245875704 0.78538406855 0.59389443532 -0.017261336571 0.80395506192 0.57219625632 -0.05972257514 0.81646834992 
0.55072106128 -0.10221931828 0.82806296151 0.53068132548 -0.14494462214 0.83374359369 0.51081841531 -0.18763652331 0.83865777278 
0.4921814962 -0.2300968326 0.83825787703 0.4735776784 -0.27257905672 0.83722027934 0.45522212046 -0.31522564206 0.8313999171 
0.43672191945 -0.35798309487 0.82499722014 0.41704232107 -0.40164454407 0.81384625548 0.39706381649 -0.44543404068 0.80211397623 
0.37442006494 -0.49036529341 0.78519830865 0.35139577876 -0.53528954844 0.76773052009 0.32463533435 -0.58014509874 0.74484190733 
0.29753550277 -0.62474887789 0.72152480368 0.26673635108 -0.66660835152 0.69353714939 0.23574114289 -0.70799443542 0.66534507066 
0.20234968858 -0.74359464466 0.63465447115 0.16891793019 -0.77863159249 0.60401598336 0.13492695265 -0.80585328809 0.57410054575 
0.10098407395 -0.83256239571 0.54442646848 0.067810776707 -0.8510700958 0.51861415657 0.034703122482 -0.86918681522 0.4931127395 
0.0028317450455 -0.87994006528 0.47346650847 -0.029004567841 -0.89042483291 0.45410051572 -0.06004140897 -0.89478820097 0.44112395575 
-0.091086621575 -0.89897345213 0.42834758894 -0.12237251409 -0.89803784256 0.42132677576 -0.15368923404 -0.89698792598 0.41441229992 
-0.1861979481 -0.89151813796 0.41160953437 -0.21873785624 -0.88598047807 0.40883953298 -0.25310261738 -0.87647231395 0.40798623486 
-0.28717859902 -0.86704405037 0.4071401073 -0.28717859902 -0.86704405037 0.4071401073 -0.28717859902 -0.86704405037 0.4071401073 

FrenetNormal 3 240 double
-0.76952795629 0.53041457553 0.35565025313 -0.76952795629 0.53041457553 0.35565025313 -0.76952795629 0.53041457553 0.35565025313 
-0.74338152823 0.59380148775 0.29319389536 -0.71701352028 0.6577255772 0.23020824641 -0.69446076272 0.69842953056 0.13875222214 
-0.67197322312 0.73873655852 0.046809524777 -0.65252618416 0.73679319737 -0.097648220196 -0.63315777883 0.73375715374 -0.24346411295 
-0.58104753816 0.63525544157 -0.44940045205 -0.52779845103 0.53343318441 -0.6574279371 -0.40332781664 0.34222022805 -0.80309153208 
-0.27573343018 0.14708662698 -0.94601986873 -0.14310668019 0.0086270229621 -0.97102493414 -0.010212725048 -0.12682334228 -0.98976858693 
0.10171180848 -0.18311333482 -0.96989041346 0.21232575315 -0.23445580407 -0.94759837585 0.31274278032 -0.24176122954 -0.91238481233 
0.41242489451 -0.24589281402 -0.87623996767 0.50163951317 -0.23169438407 -0.82709060645 0.58999770037 -0.21599622567 -0.77687723934 
0.66309438786 -0.20248686373 -0.71406551835 0.73479093775 -0.1891783088 -0.65009798507 0.79105779673 -0.19639660401 -0.57104441443 
0.84575311312 -0.20570559693 -0.49045430295 0.88144068239 -0.24894209289 -0.38086870385 0.91499654171 -0.29598354247 -0.26803127437 
0.90855334706 -0.36363944023 -0.1225469062 0.89720460805 -0.43382352504 0.026941331802 0.85183623858 -0.47738075684 0.15967675857 
0.80193191837 -0.51738774158 0.29017847718 0.7686268608 -0.51693671552 0.3687685762 0.73771592764 -0.51065039946 0.43987142239 
0.7403119944 -0.47777843349 0.47079582567 0.74811303202 -0.44077665783 0.49547891743 0.77881834308 -0.38431368233 0.49087923748 
0.81334103305 -0.32460717353 0.48139909557 0.85504500419 -0.24785160458 0.44460538122 0.89802880761 -0.16805758926 0.40294390148 
0.93092391506 -0.075326494129 0.33584487131 0.96190217028 0.019862646164 0.26391270655 0.96801455341 0.11790067567 0.17891864763 
0.96910352804 0.21651423836 0.091285822203 0.94366860532 0.30712144674 0.0089683975874 0.9125499903 0.39601300777 -0.07221001257 
0.86556890546 0.47152990965 -0.13323477186 0.81499014705 0.54401338369 -0.18968860003 0.76145096105 0.60402962133 -0.22074894353 
0.70720250594 0.66105891692 -0.24572543132 0.65858501001 0.70829758327 -0.24587924315 0.61139007219 0.75306282749 -0.23976206316 
0.57558610079 0.78875095737 -0.20730120269 0.54281164172 0.82202496108 -0.16783404422 0.52437263769 0.84207462217 -0.096186947039 
0.50994139528 0.85842715522 -0.015543307853 0.50487707973 0.84732219457 0.10323233862 0.50256175359 0.82815905642 0.23319890028 
0.48716313143 0.76592958205 0.38338189101 0.46773887973 0.69044892732 0.53978532147 0.4070246341 0.59441007341 0.67175534933 
0.33300583486 0.49174691087 0.79585239192 0.19619155376 0.40465383823 0.87418000342 0.038210256296 0.32280911051 0.9370797168 
-0.18506136599 0.24611148201 0.91690518698 -0.43133298907 0.1712270362 0.86746586694 -0.63052776745 0.093588268161 0.72722125782 
-0.81240692479 0.01493641608 0.55357700213 -0.901960997 -0.046676491862 0.3975464628 -0.95608800165 -0.10175120031 0.24827467509 
-0.97721474528 -0.13098897146 0.14211968441 -0.9851413845 -0.14989196769 0.053211412552 -0.98985171705 -0.12373241399 -0.012339301336 
-0.99322192181 -0.078796797822 -0.068157699402 -0.97438478214 0.062880879178 -0.11538778275 -0.94591554126 0.24651896811 -0.15889281393 
-0.80156840642 0.47919626191 -0.18295112596 -0.60493490479 0.73400100181 -0.19823469886 -0.41168922747 0.86691583926 -0.20145360786 
-0.22003289983 0.94264775951 -0.19901255106 -0.10110112992 0.969383035 -0.20877394474 -0.017622581917 0.97223244616 -0.22448403302 
0.031495834703 0.96683424034 -0.24988017047 0.063216716444 0.95726002593 -0.28018063661 0.078606957558 0.94549969524 -0.31391459192 
0.085413143982 0.93259025213 -0.34945333 0.076740395405 0.91946688885 -0.38377260485 0.059624591373 0.90622684184 -0.41742671794 
-0.024178264168 0.8840939943 -0.45084116233 -0.14571195148 0.85692969383 -0.48412000471 -0.25799787263 0.31709671129 -0.22843953173 
-0.36485843762 -0.52350189807 0.19676373958 -0.34735998957 -0.86057280942 0.36114806859 -0.25423781737 -0.89144444495 0.36692628404 
-0.19447808006 -0.91713359527 0.34321971878 -0.15574124692 -0.93955706997 0.30093370265 -0.11927927778 -0.960227673 0.24084552208 
-0.08430228931 -0.97975404035 0.16913648416 -0.048597199296 -0.9910497068 0.086270019522 -0.012399871617 -0.99678095573 -0.0041394941571 
0.02304991085 -0.99101367194 -0.095471322227 0.05797641167 -0.97719741523 -0.18744877037 0.089769116208 -0.95452217434 -0.27229814092 
0.11929095388 -0.92542737969 -0.35198223785 0.14416013741 -0.89216558391 -0.42246471161 0.16553983036 -0.85577853728 -0.48604596799 
0.1813900581 -0.81816673003 -0.54247200715 0.1929487606 -0.7796043623 -0.59334474339 0.19889370136 -0.74042912091 -0.6398762675 
0.20033062131 -0.70076172339 -0.6829216667 0.19736937305 -0.65959246939 -0.72341877094 0.19075426195 -0.61717551922 -0.76179883012 
0.18200725378 -0.5717429966 -0.79819713209 0.17142814657 -0.52371896642 -0.83289236145 0.16088931677 -0.47125724169 -0.86529294148 
0.15038628912 -0.4148508996 -0.89565383321 0.14105004165 -0.35326583807 -0.92271170706 0.13278647919 -0.28691969576 -0.94673293544 