# vtk DataFile Version 5.1
vtk output
ASCII
DATASET POLYDATA
POINTS 240 float
0 0 0 -0.24351 -0.153345 0.0989288 -0.487019 -0.306691 0.197858 
-0.735469 -0.466365 0.279917 -0.98396 -0.626092 0.361833 -1.23286 -0.790847 0.425688 
-1.48177 -0.955687 0.489234 -1.72683 -1.12419 0.533472 -1.97179 -1.29278 0.577211 
-2.20918 -1.46343 0.600244 -2.44631 -1.63415 0.622557 -2.67314 -1.80508 0.622555 
-2.89951 -1.97603 0.621574 -3.11406 -2.14523 0.596588 -3.32799 -2.31434 0.570328 
-3.52979 -2.48016 0.51864 -3.73084 -2.64578 0.465362 -3.92036 -2.80751 0.386021 
-4.10905 -2.96895 0.304801 -4.28704 -3.12732 0.198155 -4.46416 -3.28544 0.0894289 
-4.6309 -3.44265 -0.0425951 -4.79668 -3.59978 -0.176756 -4.95132 -3.7592 -0.330688 
-5.10483 -3.91886 -0.486633 -5.24498 -4.08441 -0.657697 -5.38363 -4.25063 -0.830457 
-5.50564 -4.42616 -1.01303 -5.6256 -4.60284 -1.1968 -5.72529 -4.79144 -1.38498 
-5.82227 -4.98163 -1.57375 -5.89586 -5.18512 -1.76206 -5.96608 -5.39053 -1.95031 
-6.01094 -5.60922 -2.13437 -6.05185 -5.82998 -2.31777 -6.0668 -6.06261 -2.49497 
-6.07741 -6.29722 -2.67114 -6.0627 -6.54126 -2.84097 -6.04348 -6.78699 -3.00968 
-6.00057 -7.03926 -3.17359 -5.95317 -7.29278 -3.3366 -5.88446 -7.55015 -3.49738 
-5.81144 -7.80831 -3.65771 -5.72013 -8.0684 -3.81841 -5.6249 -8.32891 -3.97918 
-5.515 -8.59043 -4.14195 -5.40177 -8.85218 -4.30518 -5.27818 -9.11493 -4.47018 
-5.15209 -9.37791 -4.63561 -5.02057 -9.64231 -4.80019 -4.88768 -9.90706 -4.96455 
-4.75475 -10.1733 -5.12297 -4.62182 -10.4399 -5.27981 -4.4944 -10.7073 -5.42346 
-4.36853 -10.9748 -5.56342 -4.25337 -11.2406 -5.68157 -4.14136 -11.506 -5.79332 
-4.04426 -11.7657 -5.87442 -3.95175 -12.0238 -5.94609 -3.87669 -12.2709 -5.97934 
-3.80726 -12.5146 -6.00022 -3.75574 -12.7416 -5.97731 -3.71026 -12.963 -5.93963 
-3.68099 -13.1622 -5.85618 -3.65744 -13.3536 -5.75659 -3.64667 -13.5187 -5.61311 
-3.6406 -13.6743 -5.45348 -3.64307 -13.8017 -5.25544 -3.6488 -13.9183 -5.04266 
-3.65892 -14.0076 -4.79967 -3.67079 -14.0859 -4.54459 -3.68376 -14.1404 -4.26892 
-3.69719 -14.185 -3.98466 -3.70953 -14.2113 -3.68947 -3.72139 -14.2297 -3.38952 
-3.73078 -14.237 -3.08715 -3.73906 -14.2393 -2.78369 -3.74377 -14.2379 -2.48439 
-3.74681 -14.2348 -2.18704 -3.74497 -14.235 -1.8982 -3.74076 -14.2368 -1.6135 
-3.72996 -14.248 -1.33942 -3.71582 -14.264 -1.07071 -3.69334 -14.294 -0.812782 
-3.66648 -14.3314 -0.560522 -3.63027 -14.3861 -0.317769 -3.58895 -14.4503 -0.080202 
-3.53884 -14.5336 0.150023 -3.48375 -14.6276 0.376093 -3.42246 -14.7409 0.597298 
-3.35753 -14.8655 0.815649 -3.29079 -15.0081 1.0314 -3.22294 -15.1616 1.24558 
-3.1587 -15.3307 1.4588 -3.09672 -15.5096 1.67143 -3.04362 -15.7012 1.88387 
-2.99631 -15.901 2.09618 -2.96186 -16.1106 2.30809 -2.93612 -16.3266 2.51972 
-2.92515 -16.5499 2.72983 -2.9245 -16.7782 2.93887 -2.93803 -17.012 3.14457 
-2.96182 -17.2497 3.34785 -2.9969 -17.492 3.54561 -3.04045 -17.7376 3.73924 
-3.09082 -17.9876 3.92516 -3.14648 -18.2409 4.1051 -3.20374 -18.4988 4.27551 
-3.26229 -18.7604 4.43827 -3.31746 -19.0268 4.59033 -3.36984 -19.2974 4.73351 
-3.41486 -19.5729 4.86569 -3.45357 -19.8528 4.98843 -3.48245 -20.1375 5.10086 
-3.50258 -20.4265 5.20414 -3.51202 -20.7196 5.29873 -3.51162 -21.0163 5.38533 
-3.50115 -21.3158 5.46565 -3.4811 -21.6179 5.54001 -3.45278 -21.9213 5.61108 
-3.41631 -22.2258 5.6789 -3.37407 -22.5298 5.74671 -3.32597 -22.8332 5.81451 
-3.2749 -23.1343 5.88555 -3.22071 -23.433 5.95999 -3.16621 -23.728 6.04054 
-3.11135 -24.0189 6.12776 -3.05824 -24.3052 6.22326 -3.00709 -24.5862 6.32808 
-2.95879 -24.8622 6.44229 -2.9138 -25.1324 6.56743 -2.87157 -25.3977 6.70184 
-2.83266 -25.6573 6.84742 -2.79519 -25.9127 7.00093 -2.75953 -26.1632 7.16434 
-2.72298 -26.4105 7.33342 -2.68528 -26.6539 7.50981 -2.64379 -26.8952 7.68912 
-2.59725 -27.1338 7.87232 -2.54398 -27.3711 8.05573 -2.48143 -27.6065 8.23944 
-2.40972 -27.8408 8.42118 -2.32494 -28.0732 8.60009 -2.22939 -28.3041 8.77563 
-2.11794 -28.5324 8.94617 -1.99509 -28.7579 9.11273 -1.85478 -28.9791 9.27321 
-1.70333 -29.1958 9.4298 -1.53419 -29.4056 9.5802 -1.35483 -29.6091 9.72718 
-1.15866 -29.8025 9.86854 -0.953576 -29.988 10.0071 -0.733312 -30.1601 10.1408 
-0.505636 -30.3231 10.2723 -0.26486 -30.4699 10.3998 -0.0181487 -30.6069 10.5255 
0.239446 -30.7259 10.6477 0.501632 -30.8351 10.7684 0.772554 -30.9256 10.886 
1.04689 -31.007 11.0023 1.32799 -31.0705 11.1159 1.6115 -31.1263 11.2283 
1.89999 -31.1662 11.3383 2.19008 -31.1999 11.4475 2.48357 -31.2206 11.5547 
2.77799 -31.2368 11.6614 3.07445 -31.2432 11.7669 3.3713 -31.2466 11.872 
3.66906 -31.2432 11.9765 3.96682 -31.2378 12.0809 4.26458 -31.2277 12.1852 
4.56207 -31.216 12.2896 4.85887 -31.2006 12.3941 5.15523 -31.1835 12.4988 
5.45044 -31.1622 12.6036 5.74511 -31.1386 12.7083 6.03833 -31.1091 12.8129 
6.33096 -31.0766 12.9173 6.62193 -31.0355 13.0211 6.91229 -30.9906 13.1247 
7.20084 -30.9346 13.2274 7.48875 -30.8742 13.3298 7.77468 -30.8005 13.4312 
8.05994 -30.7224 13.5326 8.34299 -30.6302 13.6336 8.62532 -30.5342 13.7348 
8.90516 -30.4252 13.8366 9.18418 -30.3135 13.9389 9.46027 -30.1924 14.0433 
9.73547 -30.0702 14.1487 10.0073 -29.9443 14.2578 10.2781 -29.8193 14.3682 
10.5451 -29.698 14.4838 10.811 -29.5797 14.601 11.0725 -29.4737 14.7244 
11.333 -29.3724 14.8493 11.5887 -29.2918 14.9809 11.8433 -29.2171 15.1138 
12.0927 -29.1703 15.2532 12.341 -29.13 15.3937 12.5837 -29.1221 15.54 
12.8252 -29.1205 15.6872 13.0603 -29.1522 15.8392 13.2942 -29.1894 15.992 
13.5206 -29.2575 16.1493 13.7456 -29.3297 16.3074 13.9615 -29.4274 16.47 
14.1756 -29.5279 16.6333 14.3783 -29.6468 16.8019 14.579 -29.7675 16.9714 
14.7657 -29.9 17.1468 14.9502 -30.0335 17.3231 15.1182 -30.1742 17.506 
15.2838 -30.3155 17.6897 15.431 -30.4621 17.88 15.576 -30.6094 18.071 
15.7018 -30.7626 18.2676 15.8256 -30.9166 18.4645 15.9309 -31.0792 18.6651 
16.0346 -31.2428 18.8657 16.1215 -31.418 19.0672 16.2072 -31.5945 19.2683 
16.278 -31.7853 19.4666 16.3478 -31.9773 19.6643 16.4039 -32.1855 19.855 
16.4592 -32.3948 20.045 16.5002 -32.6212 20.2235 16.5404 -32.8484 20.4011 
16.5638 -33.0924 20.5627 16.5863 -33.3371 20.7233 16.5879 -33.5975 20.8636 
16.5886 -33.8583 21.003 16.5629 -34.1333 21.1176 16.5363 -34.4086 21.2315 
16.4775 -34.6962 21.3166 16.4179 -34.984 21.4012 16.3198 -35.2819 21.453 
16.2213 -35.5799 21.5044 16.0776 -35.8858 21.5191 15.934 -36.1917 21.5337 

LINES 2 240
OFFSETS vtktypeint64
0 240 
CONNECTIVITY vtktypeint64
0 1 2 3 4 5 6 7 8 
9 10 11 12 13 14 15 16 17 
18 19 20 21 22 23 24 25 26 
27 28 29 30 31 32 33 34 35 
36 37 38 39 40 41 42 43 44 
45 46 47 48 49 50 51 52 53 
54 55 56 57 58 59 60 61 62 
63 64 65 66 67 68 69 70 71 
72 73 74 75 76 77 78 79 80 
81 82 83 84 85 86 87 88 89 
90 91 92 93 94 95 96 97 98 
99 100 101 102 103 104 105 106 107 
108 109 110 111 112 113 114 115 116 
117 118 119 120 121 122 123 124 125 
126 127 128 129 130 131 132 133 134 
135 136 137 138 139 140 141 142 143 
144 145 146 147 148 149 150 151 152 
153 154 155 156 157 158 159 160 161 
162 163 164 165 166 167 168 169 170 
171 172 173 174 175 176 177 178 179 
180 181 182 183 184 185 186 187 188 
189 190 191 192 193 194 195 196 197 
198 199 200 201 202 203 204 205 206 
207 208 209 210 211 212 213 214 215 
216 217 218 219 220 221 222 223 224 
225 226 227 228 229 230 231 232 233 
234 235 236 237 238 239 
CELL_DATA 1
FIELD FieldData 3
Length 1 1 double
70.858197279 
Tortuosity 1 1 double
0.57368201699 
ClusterLabel 1 1 int
1 
POINT_DATA 240
FIELD FieldData 6
Curvature 1 240 double
0 0.049761256814 0.099522513629 0.10063713799 0.10133950275 0.10494589175 0.10860192218 0.11538671945 0.1222524331 
0.13249132559 0.14284754603 0.15614322946 0.1695678367 0.18383165276 0.19814002858 0.20849302558 0.2185988114 0.21955042524 
0.21984227894 0.21036701966 0.20009263295 0.18579287177 0.17112381019 0.16086155588 0.15104814306 0.15042035258 0.15082272534 
0.15818672377 0.16640450648 0.1760993547 0.18599114499 0.19274624219 0.19904893172 0.1994978968 0.19903754545 0.19256532406 
0.18509112433 0.17353393958 0.16124909414 0.14753813237 0.1335562085 0.11980261618 0.10609515145 0.092861502269 0.079729384997 
0.066585011665 0.053437858609 0.041384568137 0.029593348909 0.029354004397 0.032033028233 0.047576275541 0.066540858878 0.092569263322 
0.12057249947 0.15976535437 0.20224211913 0.26323612058 0.32992773333 0.41912326505 0.51557005955 0.61103576158 0.70617075827 
0.74154308043 0.75586264224 0.70112319573 0.62098273467 0.52822807161 0.43063307523 0.35072441187 0.27789028172 0.22251290748 
0.17440918155 0.13595460369 0.10168519848 0.073853285784 0.048926095318 0.044590930139 0.049916221269 0.073478215602 0.10593060275 
0.14211287159 0.18018368813 0.21471359315 0.2473822498 0.26501038613 0.27443460228 0.26723567066 0.25063153699 0.22662821094 
0.19828402536 0.17514161599 0.15516244892 0.14444665007 0.13956804214 0.1392916759 0.14201955076 0.14383337059 0.14502923771 
0.1427305306 0.13798562153 0.13056692898 0.12121071218 0.11204633201 0.10302582932 0.098325001524 0.096976757218 0.10116977529 
0.10981259497 0.11993672562 0.13129148384 0.14002846527 0.14651579478 0.14819814603 0.14560940551 0.13862004576 0.12758495544 
0.11397848745 0.097927102994 0.08216561485 0.066689191414 0.056800813463 0.052595193632 0.056299346597 0.068322398537 0.082184766792 
0.098047794901 0.11167448333 0.12278528963 0.12933080964 0.13056399652 0.12685768521 0.11720568164 0.10496824333 0.089511207057 
0.077376400172 0.069522158077 0.069833412386 0.081031995232 0.09489328218 0.11242910079 0.12850842211 0.14250703303 0.15402160494 
0.16186186918 0.1675693889 0.17000972552 0.17155999708 0.17169777411 0.17181156687 0.17188591882 0.17201833901 0.17224973917 
0.17237696013 0.17232005041 0.17119022747 0.16809339699 0.16361035959 0.15649014804 0.14801388893 0.13685943592 0.12489294078 
0.11126071817 0.097502857738 0.083477190364 0.070076877886 0.058062487071 0.047235821587 0.039147522835 0.032484288969 0.029241210824 
0.027415718434 0.029134190426 0.032019638631 0.037946297571 0.04464776271 0.0534557322 0.062320732054 0.071347624553 0.079799687873 
0.086546424628 0.09199082847 0.093393509483 0.093282619341 0.088252622949 0.081977697811 0.071460793243 0.060578555536 0.048389549296 
0.039204866395 0.041316439249 0.04717851078 0.067886306238 0.089850127087 0.1170564887 0.14450237122 0.17300432318 0.20041415598 
0.22272743267 0.24247082784 0.24949330941 0.25378757967 0.24372284298 0.23208683653 0.21163426082 0.19125801507 0.171339749 
0.15261444795 0.14156885919 0.13184437694 0.13127956662 0.13129723232 0.13568346821 0.13998480188 0.14359385594 0.14682307581 
0.14666544081 0.1463087937 0.14399820956 0.14179204715 0.14072408162 0.13990932423 0.14218933281 0.14473987107 0.15104400868 
0.15751846724 0.16671806102 0.17604230202 0.1877140657 0.19947100064 0.21316984049 0.22680775565 0.23869408601 0.2504475146 
0.25706207464 0.26353079494 0.26146789131 0.25833687394 0.12916843697 0 
Torsion 1 240 double
0 0 0 0.053523563693 0.10750071691 0.088972525068 0.06920492562 0.038755728945 0.0080302840655 
-0.022578941983 -0.053184125638 -0.069451233626 -0.085089478647 -0.080138717659 -0.074094735113 -0.048865810824 -0.022437827677 0.021700721207 
0.067115707261 0.13524295534 0.2052284794 0.30085305316 0.39882983333 0.47745158499 0.55410199116 0.53644360746 0.50820853704 
0.42629147881 0.33779078058 0.26212559311 0.18817180708 0.13297969463 0.080493592795 0.036434557152 -0.0063154196659 -0.046507014713 
-0.086272212798 -0.1243159998 -0.16205300067 -0.19086805788 -0.21798794578 -0.22342747831 -0.22448714106 -0.19033656782 -0.14864094402 
-0.027915925973 0.11073328458 0.62496603299 1.2291823374 1.251107527 1.1259275929 0.73512385732 0.2736754937 0.098277881285 
0.0028514466251 -0.045226447797 -0.079408574976 -0.10054589603 -0.11766943059 -0.12749235832 -0.13496286831 -0.13812510346 -0.13983511114 
-0.14261210869 -0.14576497767 -0.15118812534 -0.15744631804 -0.16074458877 -0.16290707548 -0.16215345075 -0.16023338145 -0.16872821285 
-0.18156258621 -0.25861541766 -0.36352203818 -0.93679810378 -1.7214116019 -1.7591693681 -1.4465503713 -0.97721542414 -0.43148145129 
-0.19762730809 -0.12168700269 -0.095420565572 -0.095264751519 -0.11773879903 -0.1525564074 -0.2115510924 -0.28422491286 -0.38729841349 
-0.50820639314 -0.61241867076 -0.7064781566 -0.69393815505 -0.61422587378 -0.49280454245 -0.34415647012 -0.21779634731 -0.10650413404 
-0.0062415275642 0.086300354144 0.19258740244 0.30883471638 0.44403246682 0.59344304462 0.68760320159 0.73888243492 0.69785070674 
0.58269047917 0.47394925224 0.37054073352 0.2955736696 0.24504848088 0.21431246343 0.20116682044 0.20591091054 0.22710201332 
0.28463220785 0.37671432569 0.56719459972 0.8544330607 1.0885668465 1.2686958779 1.170793776 0.78047962002 0.49060299224 
0.30997420216 0.17705254506 0.097801412554 0.026675558602 -0.034995425766 -0.11405856817 -0.21405671563 -0.37816414385 -0.62210577075 
-0.87449368834 -1.1377643266 -1.1443983196 -0.80885011891 -0.52606643912 -0.31609779822 -0.1554291759 -0.065189151543 0.0090335238946 
0.059563870727 0.10306366188 0.13579324008 0.16259781969 0.17999968415 0.19037386833 0.18919142269 0.18229684216 0.16566566808 
0.1466146643 0.12328675221 0.10200449929 0.084472621517 0.068091016777 0.053897736354 0.042211537618 0.035476825215 0.032315384123 
0.03648373034 0.042430247719 0.052167077313 0.069069024275 0.10185042054 0.13797390499 0.18180275944 0.2020965404 0.16590614496 
0.11130412883 0.010673060947 -0.066470460732 -0.082404013531 -0.088696306703 -0.068776425263 -0.048542188169 -0.027415586641 -0.0054220392454 
0.019143447556 0.044006195076 0.069791475858 0.10004399705 0.14481504959 0.20852195625 0.33675103253 0.54577685099 1.0438064011 
1.4378883853 1.4411275215 1.3446281532 0.85333053762 0.43274235242 0.30728918111 0.19616657722 0.14822874785 0.10367159813 
0.074890953416 0.046229711146 0.018159510983 -0.01146000106 -0.04923378616 -0.090525066158 -0.15155340087 -0.21553824717 -0.29726216308 
-0.37212687376 -0.40283545084 -0.4191293361 -0.33548135805 -0.24722369714 -0.12439341473 -0.004064020116 0.095873520165 0.19313750015 
0.26656223421 0.33685705862 0.37642186115 0.41171453315 0.40044098228 0.38509921874 0.32003485584 0.25387835399 0.17256842427 
0.092458799919 0.031554061395 -0.027746368435 -0.056832317865 -0.08490466216 -0.089866809369 -0.094504822314 -0.089823975179 -0.085057461474 
-0.076978507082 -0.068457631901 -0.034084390567 0 0 0 
FrenetTangent 3 240 double
-0.80581802379 -0.51276293047 0.29619501966 -0.80581802379 -0.51276293047 0.29619501966 -0.80581802379 -0.51276293047 0.29619501966 
-0.80957825083 -0.52166241198 0.26740562737 -0.8133703442 -0.53063731282 0.23837225718 -0.81453214143 -0.5405370364 0.20817373097 
-0.81564897634 -0.55045256891 0.17795528756 -0.81421624185 -0.56103532077 0.14523331975 -0.81271757023 -0.5716353283 0.11244660562 
-0.80868514653 -0.58207383088 0.075581942125 -0.80456459232 -0.5925067159 0.038575436909 -0.79776065712 -0.60132765852 -0.0039660205466 
-0.79083902977 -0.61007790191 -0.046750239065 -0.78072121701 -0.6154559308 -0.095547219198 -0.7704336953 -0.62065490406 -0.14466346101 
-0.75611972493 -0.62120253258 -0.19817117811 -0.74155410151 -0.62145945206 -0.25195336242 -0.7223721377 -0.61740958714 -0.30601913044 
-0.70285746467 -0.61304932334 -0.36010533694 -0.67900061954 -0.60691545673 -0.40937851302 -0.65478850579 -0.60063647715 -0.45825789571 
-0.62712577053 -0.5963546192 -0.49869819556 -0.59914646449 -0.59225598343 -0.53836426762 -0.56818377838 -0.59345069942 -0.56846810448 
-0.53691722948 -0.5951845531 -0.59759800997 -0.50222372432 -0.60383731144 -0.61763673858 -0.46714588762 -0.6132660217 -0.63665589595 
-0.42780258615 -0.62928116171 -0.64732795231 -0.38793616164 -0.6461040714 -0.65697630761 -0.34341248722 -0.6674793754 -0.65881216029 
-0.29826784614 -0.6894616653 -0.65960634595 -0.24918098337 -0.71280810015 -0.65327297632 -0.19952553094 -0.73635128666 -0.64591159391 
-0.14786295446 -0.75771478348 -0.63301520222 -0.095888591708 -0.77873968771 -0.61925900327 -0.044497255822 -0.79475281792 -0.60272652045 
0.0067969089215 -0.80993065246 -0.58573132365 0.055091439234 -0.81881147672 -0.5691576619 0.10285138123 -0.82657006153 -0.55265912522 
0.14589590112 -0.82835272006 -0.53910694142 0.18804449082 -0.82899995259 -0.52611456468 0.22443781088 -0.82518653848 -0.51709988046 
0.25966845021 -0.82047198363 -0.50888877049 0.28856905622 -0.8135250267 -0.50407793541 0.31611322651 -0.80609969791 -0.49999573065 
0.33715750071 -0.79895520255 -0.49756406465 0.35672757169 -0.79187440137 -0.49550674764 0.37002952045 -0.78746724039 -0.4927642113 
0.38182973161 -0.78370063905 -0.48985750782 0.38793149461 -0.78444707914 -0.48382069762 0.39259364966 -0.78633365601 -0.47699312361 
0.39216481318 -0.79388205301 -0.46441861078 0.39038198959 -0.80293625323 -0.45031565677 0.38388741233 -0.8179743309 -0.42731647021 
0.37607557061 -0.83468532054 -0.40183016486 0.36341264739 -0.85655064412 -0.36304308902 0.3493260372 -0.87992865267 -0.3203525262 
0.32946638138 -0.90518523184 -0.25799339657 0.30783040383 -0.93101983274 -0.18958240023 0.27889987117 -0.94970121299 -0.094601401178 
0.24761887075 -0.96607766658 0.0089410431955 0.20882986212 -0.95790962312 0.13804148816 0.16751006421 -0.9414681537 0.2757569895 
0.12415823594 -0.88638426981 0.41676364296 0.080090578796 -0.81768771719 0.55892967955 0.043661538951 -0.72306873998 0.67368288896 
0.01004210547 -0.61891507788 0.77835321941 -0.012030041357 -0.51605800475 0.84880062164 -0.029671252608 -0.41369845994 0.90611597003 
-0.038618153675 -0.32665421012 0.94080695713 -0.044087330667 -0.24573607829 0.96644819973 -0.04475092813 -0.18156485316 0.98078397951 
-0.043412200789 -0.12437150581 0.99040914979 -0.039648800024 -0.08177199683 0.99524386902 -0.034833733678 -0.045502345453 0.99800080225 
-0.028359294957 -0.021997252855 0.99918864429 -0.021136115043 -0.0042517782429 0.99966848176 -0.011763816491 0.0016763274666 0.99988063215 
-0.0013832894432 0.0020604823328 0.99996720093 0.012431897567 -0.0093140275262 0.99963996883 0.027921481309 -0.026420886439 0.9991110088 
0.047975924729 -0.055106193838 0.99656328893 0.070341689505 -0.089654006799 0.99299341219 0.096645872135 -0.134065325 0.98472767655 
0.12502024876 -0.18366130621 0.97399360481 0.15373594055 -0.23845532249 0.95679931061 0.18263780424 -0.29608463061 0.93608125869 
0.20657175869 -0.35255813722 0.91061603712 0.22769492238 -0.40837770351 0.88246491692 0.24005785178 -0.4587104421 0.85397220922 
0.24728144372 -0.50582424177 0.82527910352 0.24485213486 -0.54651163643 0.79979316416 0.23655281876 -0.58329108208 0.77625752865 
0.21965924226 -0.61460275155 0.75675402915 0.1973501044 -0.64246897302 0.73979132769 0.16852034234 -0.66600493952 0.72568407772 
0.13543406168 -0.68671421182 0.71344080303 0.098615675527 -0.70412372233 0.70206038314 0.059274175787 -0.71930240796 0.69126330171 
0.01957103402 -0.73225936334 0.67959166782 -0.020385257166 -0.74366110752 0.6673078472 -0.057347970324 -0.75420992427 0.65314192475 
-0.09214142404 -0.76414067766 0.6376121604 -0.12131526969 -0.77470413374 0.61983336901 -0.1462744093 -0.78574211682 0.60036780734 
-0.16402048596 -0.79843051332 0.5786896224 -0.17616836452 -0.81239982771 0.55529417759 -0.18054860334 -0.82814095723 0.52986195362 
-0.17869119206 -0.84530490799 0.50279413426 -0.16956038271 -0.86329365032 0.47412228844 -0.15438705803 -0.8819676041 0.44411786679 
-0.13353264331 -0.89983191701 0.4134525537 -0.10779604183 -0.9170004448 0.38221928702 -0.078906877456 -0.93185334098 0.35188888878 
-0.047215434947 -0.94464789794 0.32236104026 -0.015176902335 -0.95451826246 0.29556020282 0.017180729242 -0.96170025649 0.27126645619 
0.047594527736 -0.96633351963 0.25121319259 0.076160091495 -0.9685433993 0.23519186365 0.10142295258 -0.9690102948 0.22436317365 
0.12343815604 -0.9677632559 0.2186405786 0.14159538179 -0.96541680438 0.21848890172 0.15582924036 -0.96195230616 0.22400256535 
0.16614829282 -0.95756803773 0.23495217867 0.17235004919 -0.95221642478 0.25161891149 0.17497644618 -0.94567594124 0.27298458508 
0.17371385578 -0.9378423002 0.29946138723 0.1697370554 -0.92841763845 0.32909864673 0.16270676881 -0.91720307839 0.36229142072 
0.15449157545 -0.90439506927 0.39636158133 0.14489758149 -0.88973286487 0.43145270091 0.13614307985 -0.87425181269 0.46498232365 
0.12839907823 -0.85778511041 0.49663236686 0.12352248588 -0.84178666329 0.52494261741 0.1222166296 -0.82637132636 0.54909388087 
0.12523437681 -0.812487944 0.56910772747 0.13382292083 -0.80057842619 0.58379067156 0.14733331922 -0.79041352811 0.59431319941 
0.1674061901 -0.78257478968 0.5992885056 0.19211483237 -0.77572645734 0.60055365544 0.22322083918 -0.77024488537 0.59669878951 
0.25788031605 -0.76446327784 0.58987256821 0.29761617875 -0.75825304807 0.57880155352 0.33936014135 -0.75042495385 0.56583941323 
0.38407441839 -0.74020376846 0.55007998301 0.42924399657 -0.72748658685 0.53367112511 0.47511105734 -0.71094575147 0.51626739925 
0.52028297551 -0.69160672883 0.49924411358 0.56435173261 -0.66782710468 0.48282456995 0.60708984085 -0.64132378676 0.46735539492 
0.64763977098 -0.61034150575 0.45344904824 0.686491792 -0.57698163742 0.44058514902 0.72244964979 -0.53956906341 0.42949814886 
0.75648750989 -0.50033038927 0.41918533607 0.78713188569 -0.45786418931 0.41024085444 0.81567189829 -0.41440979954 0.40169007167 
0.84035391166 -0.36914372846 0.39386107018 0.8628299145 -0.32400003003 0.38622588945 0.8811091168 -0.27908913811 0.37895944093 
0.89735814895 -0.23543792834 0.37182540723 0.90959759507 -0.19427459081 0.36495289283 0.92020652208 -0.15523449776 0.35834370991 
0.92747079452 -0.12054977803 0.35227469416 0.93359787354 -0.088377239867 0.34666645237 0.93730093499 -0.061559615071 0.34204038666 
0.94032474322 -0.03714030979 0.33795222459 0.94184317944 -0.018036199108 0.33505617327 0.94298806152 -0.0007726670354 0.33269314734 
0.94327169374 0.012247308798 0.33155904106 0.94335824715 0.024228518335 0.33082126175 0.94297181144 0.033716688763 0.33103466717 
0.94247837264 0.043050250182 0.33142295116 0.94171742615 0.051997289082 0.33224843159 0.94087166959 0.061602202088 0.33302165231 
0.93980489282 0.072921574887 0.33365868103 0.93859328196 0.08547072893 0.33409287331 0.93698790344 0.10136335073 0.33397560401 
0.93510491553 0.11867141405 0.33359402446 0.93243387517 0.13999750488 0.33246214488 0.92932927183 0.16250522277 0.33110296936 
0.92493843166 0.18851843426 0.32906948254 0.92002106763 0.21507874009 0.32701463 0.91346966403 0.24333692489 0.32489347003 
0.90650020738 0.27125100543 0.32303459753 0.89817207833 0.29804674709 0.32202815934 0.88973572044 0.32363112555 0.32158194013 
0.88093058283 0.34508789608 0.32304461522 0.87241394441 0.36463444474 0.32533031505 0.86492924543 0.37734827675 0.33055991103 
0.85805972127 0.38766167193 0.33675933221 0.85350325449 0.38894942462 0.34660529613 0.84971292185 0.38745200468 0.35739954108 
0.84895520354 0.37492994307 0.37194739848 0.84882884319 0.35934246762 0.38724495109 0.85133771602 0.3309602213 0.40567166634 
0.85401200646 0.29946236674 0.42444451741 0.85741563818 0.25422751223 0.44474351285 0.86027850927 0.20632962185 0.4648176554 
0.86061783084 0.14600423072 0.48384248448 0.85978198664 0.084270291866 0.50212894852 0.85312907191 0.015564041751 0.51676050566 
0.84516197475 -0.052866210959 0.53055702315 0.83027812801 -0.11984384575 0.53995859511 0.81446276295 -0.18525581444 0.54890264491 
0.79342054511 -0.24188265661 0.55527948704 0.77192209394 -0.29650972417 0.56175103552 0.74768624285 -0.33913814408 0.56879082209 
0.72322265125 -0.38002758489 0.57628894379 0.69729298014 -0.4097223477 0.58673759785 0.67110650327 -0.43823477934 0.59768999264 
0.64313950656 -0.45854971491 0.61213498976 0.61480825639 -0.47825836178 0.6268581375 0.58374510533 -0.4934198434 0.64366741484 
0.55231915459 -0.50844806197 0.66036852449 0.51793499115 -0.52238967414 0.67618765147 0.48337032385 -0.53650282826 0.69151712873 
0.44719616378 -0.55214556467 0.7024805626 0.41111170565 -0.56808310386 0.71273037802 0.3759079574 -0.58691507039 0.71597375764 
0.34097299879 -0.60602233442 0.71848791467 0.30896784727 -0.62813034129 0.71305354535 0.2772275537 -0.65043618426 0.70699516744 
0.2487244128 -0.67516002413 0.69331001786 0.22032574673 -0.69999757032 0.67912903844 0.19337666884 -0.72641279157 0.65806841994 
0.16632509547 -0.75286066737 0.63660818211 0.13763359441 -0.77983101581 0.60875403489 0.10868464 -0.80674424303 0.58056451939 
0.074886980658 -0.83258168729 0.54605890105 0.040770016598 -0.85827103667 0.51125642141 -0.00062709511982 -0.88058382279 0.46968550394 
-0.042299891423 -0.90266375979 0.42786807528 -0.091898619558 -0.91804928458 0.37896344992 -0.14165805511 -0.93316114163 0.32989826606 
-0.19763151082 -0.93769117948 0.2746248198 -0.25364458898 -0.94198935612 0.21928698727 -0.31197558077 -0.93272365143 0.16018255847 
-0.36981639616 -0.92353580981 0.10157480554 -0.36981639616 -0.92353580981 0.10157480554 -0.36981639616 -0.92353580981 0.10157480554 

FrenetNormal 3 240 double
-0.16948059804 -0.27956175363 -0.94505108475 -0.16948059804 -0.27956175363 -0.94505108475 -0.16948059804 -0.27956175363 -0.94505108475 
-0.12443456962 -0.29232254278 -0.94700156125 -0.079006795201 -0.30519147421 -0.9489685672 -0.036375568349 -0.3106141551 -0.94886224589 
0.006207854271 -0.31590954966 -0.94872048308 0.042073565265 -0.30699811979 -0.95005777334 0.077765542339 -0.29771927205 -0.95143331496 
0.10561715697 -0.27087099383 -0.95599515249 0.13319606334 -0.24341160499 -0.9606678177 0.15597714667 -0.2005569809 -0.96591956741 
0.17854779917 -0.15702712719 -0.97119671556 0.20292746658 -0.10655827995 -0.9717329334 0.22740318787 -0.055720990575 -0.97201742043 
0.2591750982 -0.0079234629319 -0.96404004146 0.29140302034 0.039684079603 -0.95554629586 0.33471688804 0.073145499307 -0.93768939694 
0.37882974281 0.10558737863 -0.91915767615 0.43622728387 0.11251400304 -0.89034504878 0.4947117538 0.11735301568 -0.86069125631 
0.56777547847 0.082957392259 -0.81323696525 0.64217674944 0.044962260944 -0.76414960093 0.71804854808 -0.036228794396 -0.67992533089 
0.79407012269 -0.12181943459 -0.59212230194 0.83954459491 -0.2145037079 -0.47291827042 0.88159322387 -0.30798352886 -0.35019263114 
0.89206347408 -0.36508655543 -0.23456999471 0.89866090427 -0.41772827704 -0.11981848126 0.89713175845 -0.43209586827 -0.029833110462 
0.89451906916 -0.44136024212 0.056850107983 0.89415902317 -0.42540270677 0.12311249293 0.89412387765 -0.40580739605 0.18642956536 
0.89815588547 -0.36901027483 0.23190689797 0.90281968411 -0.32954102771 0.27461300885 0.91115199059 -0.27766043285 0.29885404936 
0.92009571505 -0.22371128004 0.32001757814 0.93117375491 -0.16033495078 0.32078833181 0.94263216781 -0.095278530665 0.31792472952 
0.95225398699 -0.023861958196 0.29434352665 0.96152685336 0.048763043221 0.26682597968 0.963128447 0.12031315107 0.22599666741 
0.96318028857 0.19164610871 0.18247810963 0.95507592164 0.25083181617 0.14190958541 0.94522379575 0.30741454145 0.10197321123 
0.93688472875 0.33531864751 0.096415320201 0.92888882974 0.35671832447 0.098654610913 0.90906460654 0.27787731831 0.2382739071 
0.88640651399 0.17502031516 0.41080716294 0.57732765797 -0.094177138571 0.6161347783 0.19588987224 -0.40539744298 0.82974728448 
-0.013577463947 -0.5024867023 0.84785877234 -0.17730797844 -0.54262621558 0.81397530852 -0.23684639218 -0.53453444357 0.8104444232 
-0.26725583152 -0.51295865633 0.815399205 -0.27858701592 -0.47203074165 0.83482637311 -0.28431914724 -0.42542339826 0.85850087199 
-0.28613056837 -0.35662044688 0.88585480692 -0.28673561713 -0.28098807767 0.91434087603 -0.28723878786 -0.17745110364 0.93472692775 
-0.28770913123 -0.064922645853 0.95250297386 -0.28536409076 0.073923385802 0.9445968009 -0.28207004449 0.22164050977 0.92803370016 
-0.26938729363 0.37272718306 0.87297720501 -0.25339715819 0.52500085667 0.80436053683 -0.2257655529 0.64873158418 0.71093815728 
-0.19385202767 0.76196375682 0.6083918379 -0.15509734502 0.83878777696 0.50779332369 -0.11371756708 0.90164122696 0.4079422231 
-0.071077402318 0.93932016563 0.32323851948 -0.027933082833 0.96692929976 0.24459377465 0.01692633657 0.98065077295 0.18233009475 
0.062500380939 0.98858572076 0.12689185858 0.12641354324 0.98526316262 0.086031026605 0.19828102174 0.97705783081 0.051492924155 
0.38153308879 0.88858671485 0.030875946053 0.61504405553 0.76389811091 0.016540450888 0.73667909683 0.28889038592 0.0077565392484 
0.80582913607 -0.35046458106 0.0015770742 0.74520941717 -0.6448786853 -0.015503434847 0.62132694118 -0.77113411895 -0.037898202843 
0.55782723723 -0.82513732555 -0.072491351529 0.52490108875 -0.84255712605 -0.1132608955 0.49756073019 -0.84969348579 -0.16451660641 
0.47315649198 -0.85142444719 -0.22128427685 0.43988182224 -0.84964126422 -0.28242961713 0.40176873531 -0.84594127524 -0.34596277731 
0.34238493952 -0.84385901442 -0.40437099639 0.27096640057 -0.84269204717 -0.45987957775 0.16544984983 -0.84223161923 -0.49884255036 
0.039929132184 -0.84218569435 -0.52809876584 -0.12445995295 -0.82329221014 -0.52434015023 -0.31248520749 -0.79293737229 -0.50050494816 
-0.4869399094 -0.72608902615 -0.44836838368 -0.65284330417 -0.63624477068 -0.37839808398 -0.76621177998 -0.54315819147 -0.3205980494 
-0.84528662813 -0.44795509537 -0.27074249345 -0.89147445824 -0.37351681898 -0.24939652909 -0.91542881137 -0.31311673056 -0.2473246548 
-0.92287100347 -0.27345597604 -0.26807139071 -0.91875468285 -0.24831275523 -0.30479115375 -0.89448771897 -0.24727396143 -0.36405716883 
-0.85561883969 -0.26370214372 -0.4396610477 -0.77427938439 -0.30541751818 -0.53317503424 -0.66108699708 -0.36609828675 -0.64012160152 
-0.48817240673 -0.42812744443 -0.72901862625 -0.26890625582 -0.49120311307 -0.80390705079 -0.053914674979 -0.51986445518 -0.83105025373 
0.15764429657 -0.52089005022 -0.81985259689 0.32282073905 -0.49960949481 -0.79434556756 0.44946400352 -0.45979767595 -0.75695075185 
0.54662920538 -0.41348760166 -0.72338705761 0.61846169717 -0.36159308911 -0.69311573338 0.67756151676 -0.30820164266 -0.66422158018 