# vtk DataFile Version 5.1
vtk output
ASCII
DATASET POLYDATA
POINTS 240 float
0 0 0 -0.164752 -0.253637 -0.0088285 -0.329504 -0.507274 -0.017657 
-0.50247 -0.770345 -0.0198234 -0.675505 -1.0335 -0.0219334 -0.859222 -1.30413 -0.0164835 
-1.04312 -1.57489 -0.0109043 -1.24001 -1.85113 0.00281237 -1.43723 -2.12752 0.0167395 
-1.64927 -2.40724 0.0385309 -1.86182 -2.68708 0.0605959 -2.08994 -2.9679 0.0887698 
-2.31874 -3.24877 0.117212 -2.56175 -3.52823 0.148148 -2.80552 -3.80762 0.179216 
-3.05899 -4.0835 0.207444 -3.31306 -4.35916 0.235494 -3.56852 -4.62988 0.254233 
-3.82409 -4.90025 0.2723 -4.06911 -5.16513 0.274265 -4.31326 -5.42955 0.274912 
-4.53258 -5.68875 0.253189 -4.74963 -5.94747 0.229413 -4.92743 -6.20178 0.178259 
-5.10124 -6.45564 0.124317 -5.22385 -6.70618 0.0398312 -5.34073 -6.95634 -0.0480806 
-5.39918 -7.20434 -0.167535 -5.45046 -7.45207 -0.290859 -5.44204 -7.69875 -0.44454 
-5.42565 -7.94529 -0.60227 -5.35412 -8.19171 -0.787293 -5.27464 -8.43811 -0.976254 
-5.14923 -8.6848 -1.18809 -5.01667 -8.93154 -1.40348 -4.85012 -9.17801 -1.63647 
-4.67791 -9.42444 -1.87238 -4.48435 -9.66887 -2.11998 -4.28698 -9.91295 -2.36966 
-4.08008 -10.1523 -2.62434 -3.87137 -10.3907 -2.87996 -3.66326 -10.6213 -3.13267 
-3.45527 -10.8503 -3.3848 -3.25606 -11.0689 -3.62456 -3.05873 -11.2853 -3.86166 
-2.87657 -11.4903 -4.07541 -2.69785 -11.6927 -4.28387 -2.53918 -11.8849 -4.45734 
-2.38531 -12.0746 -4.62242 -2.25518 -12.2571 -4.74183 -2.13103 -12.4379 -4.8497 
-2.03322 -12.6157 -4.90423 -1.9424 -12.7928 -4.94457 -1.87947 -12.9709 -4.92858 
-1.82434 -13.1492 -4.89683 -1.79766 -13.3304 -4.81081 -1.77933 -13.5125 -4.70886 
-1.78904 -13.6962 -4.55929 -1.80737 -13.8804 -4.39507 -1.85247 -14.0611 -4.19288 
-1.9062 -14.2407 -3.97846 -1.98476 -14.4085 -3.73694 -2.0717 -14.5723 -3.48629 
-2.18114 -14.7145 -3.21911 -2.29852 -14.8491 -2.94612 -2.43588 -14.9521 -2.66599 
-2.58059 -15.0436 -2.38324 -2.74256 -15.0953 -2.10103 -2.91115 -15.1319 -1.81904 
-3.09354 -15.1234 -1.54328 -3.28146 -15.097 -1.27002 -3.47823 -15.0238 -1.00649 
-3.67869 -14.9312 -0.747026 -3.88084 -14.7942 -0.498564 -4.08372 -14.6379 -0.254875 
-4.27885 -14.4433 -0.0214295 -4.47049 -14.2315 0.207394 -4.64343 -13.9911 0.428233 
-4.80759 -13.7374 0.645326 -4.94208 -13.4679 0.857477 -5.0621 -13.1907 1.06722 
-5.14334 -12.912 1.27511 -5.20492 -12.6325 1.48207 -5.22224 -12.3665 1.68974 
-5.21629 -12.1076 1.89777 -5.16553 -11.8761 2.10816 -5.09033 -11.6595 2.31984 
-4.97519 -11.4819 2.53449 -4.83744 -11.3263 2.75081 -4.66939 -11.2175 2.96973 
-4.48356 -11.1361 3.19018 -4.28021 -11.1053 3.41193 -4.06622 -11.1052 3.63448 
-3.8484 -11.1549 3.8562 -3.62818 -11.2358 4.07739 -3.41639 -11.3617 4.2947 
-3.21012 -11.517 4.50948 -3.02127 -11.7094 4.71645 -2.8442 -11.9269 4.91814 
-2.6894 -12.1722 5.1073 -2.55019 -12.4368 5.28769 -2.43415 -12.7194 5.45041 
-2.33489 -13.0151 5.60032 -2.25676 -13.3203 5.72757 -2.19447 -13.6325 5.83784 
-2.14969 -13.9478 5.9215 -2.11849 -14.2654 5.98449 -2.10077 -14.5821 6.01877 
-2.09386 -14.898 6.02999 -2.09651 -15.2113 6.01284 -2.1071 -15.5224 5.97213 
-2.12354 -15.8311 5.90594 -2.145 -16.1377 5.81785 -2.1687 -16.4431 5.70932 
-2.1944 -16.7474 5.58262 -2.21882 -17.0521 5.44192 -2.24208 -17.3574 5.28837 
-2.261 -17.6649 5.12793 -2.27581 -17.9744 4.96095 -2.28418 -18.2872 4.79428 
-2.28624 -18.6033 4.62791 -2.2812 -18.9234 4.46869 -2.26896 -19.2475 4.31674 
-2.25047 -19.5754 4.17814 -2.22542 -19.9073 4.05358 -2.19607 -20.242 3.94758 
-2.16205 -20.58 3.86177 -2.12603 -20.9194 3.79837 -2.08775 -21.2604 3.76019 
-2.04928 -21.6008 3.74659 -2.01058 -21.9405 3.7616 -1.9724 -22.2774 3.80157 
-1.93486 -22.6109 3.87157 -1.89725 -22.939 3.96517 -1.85957 -23.2607 4.08816 
-1.82013 -23.5747 4.23198 -1.77841 -23.8788 4.40266 -1.73265 -24.1733 4.59047 
-1.68149 -24.4549 4.80115 -1.62404 -24.7249 5.02483 -1.5579 -24.979 5.26644 
-1.48375 -25.2201 5.51689 -1.39815 -25.4425 5.77995 -1.30358 -25.6503 6.04799 
-1.19575 -25.8367 6.3234 -1.07862 -26.0072 6.60043 -0.947285 -26.1533 6.87995 
-0.806731 -26.2824 7.15827 -0.651554 -26.3842 7.43469 -0.487346 -26.4682 7.70763 
-0.30829 -26.5226 7.97485 -0.120459 -26.559 8.23689 0.0823302 -26.5647 8.49008 
0.293432 -26.5534 8.73704 0.519225 -26.512 8.97297 0.752501 -26.4555 9.20233 
0.999493 -26.3716 9.41965 1.25272 -26.2757 9.63081 1.51779 -26.1572 9.83024 
1.78756 -26.0304 10.0245 2.06658 -25.8873 10.2085 2.34868 -25.7399 10.3886 
2.6371 -25.5837 10.5608 2.9272 -25.427 10.7306 3.2209 -25.2694 10.8952 
3.51532 -25.1144 11.0585 3.81131 -24.9656 11.2189 4.10753 -24.8218 11.3788 
4.4043 -24.6895 11.5374 4.70126 -24.5631 11.6957 4.99869 -24.4509 11.8533 
5.29655 -24.3441 12.0104 5.59547 -24.2509 12.1662 5.89511 -24.1614 12.3211 
6.19663 -24.0814 12.4736 6.49905 -24.0025 12.6246 6.80394 -23.9264 12.7718 
7.1097 -23.8486 12.9173 7.41798 -23.7658 13.0581 7.72686 -23.6791 13.1975 
8.03754 -23.5807 13.3325 8.34839 -23.4771 13.4666 8.65975 -23.3575 13.598 
8.97076 -23.2329 13.7295 9.28061 -23.092 13.8614 9.58958 -22.9476 13.9944 
9.89551 -22.7908 14.1316 10.2001 -22.6328 14.271 10.5001 -22.4706 14.4186 
10.7983 -22.3101 14.5692 11.0904 -22.1562 14.7315 11.3806 -22.0071 14.8974 
11.6634 -21.8768 15.0774 11.9442 -21.7538 15.261 12.2168 -21.6613 15.4599 
12.4872 -21.5779 15.662 12.7485 -21.5348 15.8787 13.0077 -21.5016 16.098 
13.2571 -21.5149 16.3296 13.5044 -21.5379 16.5629 13.741 -21.6096 16.8049 
13.9755 -21.6903 17.0477 14.198 -21.818 17.2948 14.4181 -21.9533 17.5419 
14.6242 -22.1308 17.7888 14.8274 -22.3143 18.0351 15.0134 -22.5332 18.2774 
15.196 -22.7565 18.5186 15.3569 -23.0076 18.7529 15.5139 -23.2616 18.986 
15.6443 -23.5357 19.2105 15.7706 -23.8115 19.4338 15.8655 -24.1005 19.6481 
15.9561 -24.3903 19.8613 16.0121 -24.6869 20.0665 16.0642 -24.9836 20.271 
16.0809 -25.2813 20.4697 16.0943 -25.5784 20.6683 16.0748 -25.871 20.8649 
16.0528 -26.1627 21.0618 16.0038 -26.4442 21.2618 15.9532 -26.7245 21.4625 
15.8841 -26.9893 21.6718 15.8146 -27.2527 21.8821 15.737 -27.4961 22.1063 
15.6596 -27.738 22.3316 15.5853 -27.9565 22.5752 15.5116 -28.1737 22.8199 
15.4519 -28.3653 23.0854 15.3932 -28.5558 23.3518 15.3584 -28.7207 23.6398 
15.3248 -28.8848 23.9285 15.3245 -29.0247 24.2378 15.3254 -29.1641 24.5476 
15.369 -29.2822 24.876 15.4135 -29.3999 25.2047 15.51 -29.4999 25.5492 
15.6071 -29.5998 25.8938 15.7656 -29.6858 26.2514 15.9241 -29.7718 26.609 

LINES 2 240
OFFSETS vtktypeint64
0 240 
CONNECTIVITY vtktypeint64
0 1 2 3 4 5 6 7 8 
9 10 11 12 13 14 15 16 17 
18 19 20 21 22 23 24 25 26 
27 28 29 30 31 32 33 34 35 
36 37 38 39 40 41 42 43 44 
45 46 47 48 49 50 51 52 53 
54 55 56 57 58 59 60 61 62 
63 64 65 66 67 68 69 70 71 
72 73 74 75 76 77 78 79 80 
81 82 83 84 85 86 87 88 89 
90 91 92 93 94 95 96 97 98 
99 100 101 102 103 104 105 106 107 
108 109 110 111 112 113 114 115 116 
117 118 119 120 121 122 123 124 125 
126 127 128 129 130 131 132 133 134 
135 136 137 138 139 140 141 142 143 
144 145 146 147 148 149 150 151 152 
153 154 155 156 157 158 159 160 161 
162 163 164 165 166 167 168 169 170 
171 172 173 174 175 176 177 178 179 
180 181 182 183 184 185 186 187 188 
189 190 191 192 193 194 195 196 197 
198 199 200 201 202 203 204 205 206 
207 208 209 210 211 212 213 214 215 
216 217 218 219 220 221 222 223 224 
225 226 227 228 229 230 231 232 233 
234 235 236 237 238 239 
CELL_DATA 1
FIELD FieldData 3
Length 1 1 double
81.433702939 
Tortuosity 1 1 double
0.89433174027 
ClusterLabel 1 1 int
1 
POINT_DATA 240
FIELD FieldData 6
Curvature 1 240 double
0 0.018605177552 0.037210355104 0.040404002539 0.043467043787 0.04654990423 0.049633103463 0.051335521163 0.053002228996 
0.052545793183 0.052015508896 0.049233443838 0.046352616465 0.042364597238 0.038317789062 0.038331085343 0.038598138153 0.051113765967 
0.064512173962 0.092102349835 0.12085367035 0.16628482521 0.2132462401 0.27605652905 0.34048105518 0.39764890351 0.45400291881 
0.4603181331 0.4604965133 0.41073182595 0.35430806294 0.2910023762 0.22670410431 0.17836463944 0.13250421256 0.1022542556 
0.074606043636 0.056915534066 0.040999664527 0.030206837388 0.020387388304 0.012896524087 0.0058760810553 0.017691751841 0.03354373273 
0.067219068671 0.10493681504 0.18160365254 0.26760204314 0.42707449273 0.60510880985 0.81055254277 1.0232860139 1.0423301179 
1.0072245062 0.84543012601 0.64645534631 0.50390433737 0.37871448865 0.31035148892 0.26029936275 0.23885501785 0.22705374528 
0.2301493565 0.2384927336 0.25326643896 0.27040532253 0.28542474751 0.29963089187 0.30343986129 0.30308996074 0.290903548 
0.27378525518 0.25226077399 0.22882517495 0.20988388212 0.19297050794 0.18641119367 0.1847093396 0.19570534294 0.21289155176 
0.24185581229 0.2767836433 0.3197201547 0.36686635707 0.41143154288 0.45458890149 0.48021995004 0.49593479685 0.49166615058 
0.47567385505 0.45031652574 0.41926424345 0.38908506472 0.35945606083 0.33358511166 0.31016733709 0.29044880723 0.27323117519 
0.25992004501 0.24934346615 0.24362285921 0.2414210725 0.24444395274 0.25138533318 0.26033533881 0.27084427744 0.2761429524 
0.27725762773 0.2680145576 0.25016659122 0.22441121958 0.19186042152 0.15810328338 0.12327384294 0.093307677015 0.067812586055 
0.054782528833 0.053604470904 0.061032471181 0.076923095361 0.094029810829 0.1123732293 0.13111433108 0.15027368598 0.16902224339 
0.18732396844 0.20361799995 0.21765337623 0.22780193622 0.23342765545 0.2346928637 0.23070930872 0.22410681449 0.21424299968 
0.20400427558 0.19328249527 0.18418711977 0.17726028403 0.17244541815 0.17054507068 0.17079934635 0.1741316551 0.17955050621 
0.18805570121 0.19813362351 0.21062083016 0.22374662913 0.23788584635 0.25015522773 0.25934976794 0.26391270711 0.2605808718 
0.25219284486 0.23486829319 0.21447322648 0.18844888223 0.16212395587 0.13522719037 0.10928596637 0.085231936844 0.063312562204 
0.045771966823 0.033869966004 0.03398707465 0.037641128676 0.049133818411 0.059649416412 0.067912275136 0.07381127003 0.074036991731 
0.071609488882 0.062548924658 0.052461041503 0.039695902951 0.031574950168 0.036080377447 0.042967945327 0.056617718785 0.068650816092 
0.075887774149 0.080884441398 0.078928482002 0.075465310142 0.067103697778 0.059162506575 0.052653861547 0.049660327919 0.059240077377 
0.07155350435 0.094145558776 0.11781729249 0.1457627567 0.17349673568 0.2003479937 0.225349383 0.24219453297 0.2561959296 
0.25692647732 0.25540920709 0.24276523802 0.22927239445 0.21131179033 0.19370337223 0.17807110906 0.16327095374 0.15346344553 
0.14446681446 0.140690205 0.13757377325 0.13903457367 0.14071880421 0.14407876062 0.14724322336 0.14881366082 0.14985185557 
0.14614421952 0.14208453697 0.13456839789 0.127075748 0.11983913038 0.11323214996 0.11432073526 0.11607669602 0.12709249129 
0.13834985354 0.15347228747 0.16846560002 0.1810271267 0.19339960464 0.20146177106 0.20933692983 0.21183561872 0.21421366358 
0.21192680572 0.20955763126 0.20237293609 0.19443167669 0.097215838343 0 
Torsion 1 240 double
0 0 0 0.19197141223 0.38556970083 0.33031259391 0.27080154861 0.26108261744 0.25265141337 
0.27830848098 0.30515122762 0.37919118559 0.45530119669 0.64456656567 0.83984018374 1.011584157 1.1818575274 0.9539791318 
0.69740511339 0.5183038077 0.34554117849 0.26123160213 0.18503698475 0.14300536083 0.10445330107 0.082065450031 0.061490407453 
0.049257742771 0.038048199906 0.028753780962 0.019714711873 0.006802243811 -0.0066688875645 -0.028929165665 -0.05255474811 -0.086926673448 
-0.12308965593 -0.15573541347 -0.18775433883 -0.12043214361 -0.034235135472 2.7178984039 6.0086049798 3.9280095054 0.69642073443 
0.064534368979 0.022271229518 0.022320506697 0.032507133695 0.042166705411 0.051693126319 0.055587543128 0.057984086507 0.065674434762 
0.074844771478 0.088825192472 0.10421726864 0.1018946886 0.094121445127 0.068120235598 0.036245570342 0.0087412686712 -0.017289876735 
-0.030287592292 -0.038693985969 -0.042994955797 -0.045785884669 -0.053096242747 -0.062140800404 -0.079412006753 -0.09997387258 -0.13334830416 
-0.1720613048 -0.22779900302 -0.29092090743 -0.36137132711 -0.43512851589 -0.47717469423 -0.50434410225 -0.4868548891 -0.44759459813 
-0.40082385832 -0.35025035959 -0.31297307916 -0.28268483654 -0.26439199865 -0.25264210879 -0.24878882931 -0.24940336885 -0.25151474639 
-0.25450426887 -0.25061726752 -0.24254859626 -0.22284774846 -0.195817036 -0.15926479577 -0.11649711382 -0.067736157635 -0.014923410426 
0.04016915211 0.096857585374 0.14600432173 0.18968606032 0.2138759438 0.22344693594 0.21777311925 0.20026751063 0.18282158556 
0.16542358819 0.15759366173 0.15771259418 0.17631407347 0.21079899145 0.29500275143 0.42340103764 0.71892584918 1.1680992405 
1.3579987876 1.3013756632 1.0828976046 0.70526219417 0.46303671702 0.3585162568 0.28120449572 0.23250878027 0.1888670776 
0.15072272217 0.11375858112 0.078122181252 0.042675670053 0.0074501202112 -0.028547737253 -0.065475224264 -0.10254705646 -0.13979863925 
-0.1740169097 -0.20432687385 -0.226194284 -0.23680495548 -0.23708307083 -0.22310225872 -0.20293547686 -0.17393159535 -0.14564948091 
-0.11843498025 -0.095497959834 -0.079113675116 -0.066476424429 -0.059785553833 -0.055200675545 -0.054078984609 -0.05363853457 -0.054359290603 
-0.055779926853 -0.058437560698 -0.063199326228 -0.071818666516 -0.086555993399 -0.11293241673 -0.16474365125 -0.26678863785 -0.49122461078 
-0.96671901721 -1.2512504052 -1.1287290434 -0.91572805372 -0.50220464551 -0.1805353404 -0.07064077298 0.027195168757 0.096090408869 
0.18602935518 0.328577567 0.612737349 1.2659454654 1.6518205055 1.3108837441 0.97050961014 0.631732612 0.3655808857 
0.31488413259 0.28458444552 0.31758599792 0.37909516167 0.5332540623 0.72187227251 1.0279073895 1.2145302218 0.97402449741 
0.73783728861 0.51788769839 0.32630270906 0.2469942649 0.17675213515 0.14435201338 0.11497675792 0.098938412961 0.083892497777 
0.073477921524 0.062636157554 0.049679814382 0.035617573814 0.015734820644 -0.0056895284069 -0.035763943227 -0.066431104959 -0.10065474817 
-0.1331396584 -0.15443147517 -0.17390116994 -0.18073748553 -0.18705090164 -0.18944257155 -0.19284541028 -0.204493164 -0.21885591083 
-0.25742734616 -0.29959993343 -0.37712928512 -0.45702896093 -0.56276516971 -0.6618059133 -0.67901319342 -0.68914083025 -0.60103841639 
-0.5136301842 -0.43732885887 -0.36308182669 -0.32752398226 -0.29276422665 -0.27620089632 -0.25973923355 -0.24620051294 -0.23256111212 
-0.21502874343 -0.19613588128 -0.097654151863 0 0 0 
FrenetTangent 3 240 double
-0.54703632305 -0.83692141684 -0.017714494199 -0.54703632305 -0.83692141684 -0.017714494199 -0.54703632305 -0.83692141684 -0.017714494199 
-0.55134556816 -0.83415700519 -0.0063014770516 -0.55569133231 -0.83136916633 0.0052082605797 -0.56338039156 -0.82587995482 0.017071959717 
-0.57112660115 -0.820344566 0.028941709479 -0.58151618373 -0.81234815662 0.040299780184 -0.59197412939 -0.80428810015 0.051644617811 
-0.60418434368 -0.79429516598 0.06096520021 -0.61645550644 -0.78423500129 0.070215373732 -0.62921352449 -0.77335305615 0.075528229251 
-0.64199289584 -0.76243506801 0.080668395384 -0.6535008444 -0.75252962125 0.080035931306 -0.66494128378 -0.74267793776 0.07909695589 
-0.67283883102 -0.73626798661 0.070880957967 -0.68051494749 -0.73007314374 0.062210146136 -0.68172110352 -0.73001244841 0.044876634602 
-0.68246095609 -0.7303938538 0.02691878435 -0.67258461266 -0.73929937658 -0.0014587679822 -0.66183967137 -0.74890232715 -0.030688841394 
-0.63405321855 -0.76784755754 -0.072620649226 -0.6047033243 -0.78764987782 -0.11571775379 -0.54929205044 -0.81303750911 -0.17264575419 
-0.4912263768 -0.83899401467 -0.23098245694 -0.40099243289 -0.85838027871 -0.2977903537 -0.30715083249 -0.87702969324 -0.36554829091 
-0.19238914206 -0.87400820657 -0.42635742562 -0.075061780199 -0.86832896787 -0.48631434871 0.034673580668 -0.84136334122 -0.52621414619 
0.14339667474 -0.8115595295 -0.56343966025 0.22602913317 -0.77559470962 -0.58272916977 0.30489851916 -0.73874128279 -0.59943175555 
0.35830583782 -0.70683753363 -0.60710846861 0.40775788388 -0.67570266644 -0.61338310435 0.43924472897 -0.65215179535 -0.61681618421 
0.46773737389 -0.62986492363 -0.61977567141 0.48491538109 -0.61406625793 -0.62236337613 0.5000769182 -0.59942390619 -0.62488482258 
0.50851580148 -0.58984926335 -0.6271852842 0.51567738052 -0.5812374852 -0.6294437587 0.51916480754 -0.57740823133 -0.63012071313 
0.52190998162 -0.57454514399 -0.63047816855 0.52298414895 -0.57788714116 -0.62648911523 0.52370024341 -0.58255879931 -0.62156866716 
0.52362755071 -0.59703843503 -0.60731130243 0.52337595784 -0.61374256051 -0.59093628649 0.5208294468 -0.64593586883 -0.55561130005 
0.51773311162 -0.68184012722 -0.51574621651 0.50445766693 -0.7362720796 -0.43889742026 0.48861065773 -0.79538471257 -0.35270537026 
0.44379086629 -0.8538196661 -0.21179923961 0.39126554764 -0.91207438574 -0.056341491769 0.3050437729 -0.92328842373 0.11925441483 
0.20940148355 -0.92135130342 0.3004803443 0.11544272872 -0.87781898502 0.436393133 0.021978054674 -0.82207938024 0.55900749996 
-0.051777453063 -0.76228817982 0.63604850103 -0.11946860194 -0.70125033459 0.69906692799 -0.17379251774 -0.64524628251 0.73974482729 
-0.223809214 -0.59086423043 0.77322411211 -0.26793203452 -0.53684086973 0.79699761569 -0.31006815535 -0.48293841623 0.81749950762 
-0.35023268125 -0.42336379596 0.83242018588 -0.38970266802 -0.36179102602 0.84537475478 -0.42781609843 -0.2903204456 0.85210293545 
-0.46543056558 -0.21520929122 0.85654095033 -0.49901956605 -0.12994003447 0.85187525981 -0.5310639107 -0.040772901227 0.84371628697 
-0.55426987819 0.053335914264 0.8249603475 -0.57394049482 0.14942140266 0.80196562138 -0.58105231931 0.2418000982 0.77154994175 
-0.58293131374 0.33263429673 0.73804219816 -0.57187928208 0.41331078403 0.70389791087 -0.55521861259 0.48958151706 0.66947753233 
-0.52711288053 0.55410723186 0.64053487275 -0.49384291292 0.61333336526 0.61406386685 -0.44993649539 0.66174291012 0.59634562594 
-0.40104013839 0.70507800604 0.58273362045 -0.340722691 0.73779650407 0.5787774174 -0.27483746204 0.76533941063 0.57952841805 
-0.19613085003 0.7794776038 0.58926876213 -0.11093239849 0.78682860033 0.60356067251 -0.01353330777 0.77443656546 0.62413345872 
0.090278939439 0.75166678333 0.64800773095 0.1992640372 0.70197986494 0.67254071925 0.31107068982 0.63761087223 0.69743300722 
0.41323086691 0.54606260673 0.71601434789 0.50993316971 0.4391365948 0.731025021 0.5827727166 0.31662904008 0.73624783024 
0.64161278003 0.18498031359 0.73572842601 0.67305086952 0.053343442448 0.72723872437 0.68782559648 -0.078286219362 0.71390222025 
0.6808778666 -0.20003099849 0.69586819889 0.66024201322 -0.31554694743 0.67487409817 0.62603377266 -0.41806679252 0.65088154181 
0.58296577937 -0.51210306981 0.62493166024 0.53340355321 -0.5936985966 0.59601499488 0.47945085976 -0.66688347518 0.56509261652 
0.42413817419 -0.7297585406 0.53023057953 0.36787349414 -0.7854167368 0.4926107815 0.31336471986 -0.83313639206 0.44949058658 
0.26012834107 -0.87510348141 0.40238459682 0.21009540939 -0.91055241796 0.34815215797 0.16246506303 -0.94111273991 0.2885748823 
0.11865803079 -0.96483196254 0.22150061686 0.07781834682 -0.98324167523 0.14860779219 0.041544541172 -0.99349484058 0.071095568932 
0.0089372741753 -0.99719805124 -0.010126171369 -0.018064115179 -0.99311507421 -0.089645347827 -0.040408313876 -0.98256357202 -0.16775008663 
-0.056600067357 -0.96783262898 -0.23785469425 -0.067504563232 -0.94950997895 -0.30108418914 -0.072671351594 -0.93173223865 -0.35345551743 
-0.0727379555 -0.91443886256 -0.39617514207 -0.068112596599 -0.90076570258 -0.42830842748 -0.059173658988 -0.89042080581 -0.45070911069 
-0.046893709 -0.88459042986 -0.46379099894 -0.03143705872 -0.88305254912 -0.46801239363 -0.014228233042 -0.88556736489 -0.46383940849 
0.0047035651116 -0.89206733224 -0.45141194986 0.023647696375 -0.90148370845 -0.4310153756 0.042604369785 -0.91386592418 -0.40251461597 
0.059971066031 -0.927609452 -0.36623054463 0.075665544914 -0.94278470458 -0.32176057651 0.088692992992 -0.9572942227 -0.26999113947 
0.098819460195 -0.97107960859 -0.21028192921 0.10608342126 -0.98182707292 -0.14472761954 0.11012706293 -0.98915687548 -0.072597573016 
0.11215470176 -0.99144575189 0.0026276043073 0.1118364464 -0.98786882333 0.081454388382 0.11117218379 -0.97858498359 0.15984432774 
0.11009143096 -0.96243171373 0.2377084355 0.11051620743 -0.9414744623 0.3121937196 0.11281579398 -0.91453489421 0.38247141197 
0.11794304608 -0.88443205518 0.44789538767 0.12671363648 -0.85025346324 0.5070655361 0.13882767202 -0.81426774265 0.56123370814 
0.15539963442 -0.77587251719 0.60873257833 0.17516758624 -0.73626056628 0.65176789294 0.19934600344 -0.69496953425 0.68864350087 
0.22618071972 -0.6523611569 0.72169828113 0.25681014896 -0.60787085768 0.74929473615 0.28948209303 -0.56140131398 0.77355189974 
0.32517525694 -0.5120041378 0.79286969476 0.36232461572 -0.45979046271 0.80883518076 0.4017047411 -0.40326215099 0.81966521465 
0.44180663613 -0.34343111813 0.82652311218 0.48305394822 -0.27835881045 0.82707740203 0.5238252916 -0.21057523618 0.82278132303 
0.56381393086 -0.13833313464 0.81050908194 0.60172284953 -0.065618052136 0.79324050578 0.63608678992 0.0079032479401 0.76745544939 
0.66720155595 0.078816114788 0.73816031408 0.69257359521 0.14511872756 0.70266131837 0.71470502133 0.20650634757 0.66629917366 
0.73089532337 0.25888314751 0.62835458912 0.74481062959 0.30567665875 0.59192107169 0.75439789497 0.34184830369 0.55836226731 
0.76285973401 0.37288844306 0.52761221977 0.76909885601 0.39379385893 0.50240946698 0.77509611891 0.41030173964 0.4803065767 
0.78059726059 0.4177890354 0.46456237877 0.78636934575 0.421519741 0.45153573865 0.79271896835 0.41724297813 0.44430178756 
0.79948578886 0.40981969718 0.43900929175 0.80717721015 0.39542305184 0.43801948062 0.81513112493 0.37876651573 0.43796158831 
0.82369023306 0.35689967593 0.44005228664 0.83221888015 0.33416449715 0.4420380927 0.84067442073 0.3093453048 0.44377215732 
0.84884631154 0.28548340408 0.44463925361 0.85630907791 0.26401473244 0.44333892905 0.86334413541 0.24523184375 0.44090917967 
0.86926455769 0.23344826818 0.4355360808 0.87461277701 0.2252936748 0.4292447179 0.87840531954 0.22700537673 0.42045682466 
0.88136548219 0.23216706242 0.41126979651 0.88196275997 0.24712225036 0.40094974025 0.88147495196 0.26437746854 0.39090399827 
0.87776805609 0.28845610976 0.38167205533 0.87302219475 0.31315256093 0.37339476471 0.86505195781 0.33976635332 0.36808018823 
0.85648637593 0.36537539753 0.364248837 0.84598592298 0.38771901019 0.36523796783 0.8355117223 0.40784227172 0.36802890424 
0.82512697376 0.4203998924 0.37695932635 0.81525354053 0.42993628713 0.38777558166 0.80720904281 0.42866598903 0.40533731722 
0.79980616068 0.42382222422 0.4246162405 0.79481575316 0.40554222458 0.45035178954 0.79016187961 0.38327997568 0.47732543613 
0.7868401197 0.34525465683 0.5091998855 0.78315735473 0.30321782472 0.54139406107 0.77796778601 0.24443728508 0.57492274599 
0.77162960687 0.18247845409 0.60747869307 0.76022709999 0.10650624759 0.63574575059 0.74731088565 0.029168442091 0.66196050599 
0.72733070316 -0.054542158742 0.67859785149 0.70614296711 -0.13763411444 0.69296943942 0.67897784093 -0.21766377671 0.69612552736 
0.65119624258 -0.2958870931 0.69763983816 0.6201700538 -0.36460332587 0.69051321667 0.58891711598 -0.43133013296 0.68258563714 
0.55639186414 -0.48689405156 0.67016379303 0.52364680968 -0.54084595115 0.65757008971 0.48958293954 -0.58512573662 0.64394523114 
0.45510067803 -0.62823321277 0.6304763443 0.4179250221 -0.66379394764 0.61801152552 0.38013510038 -0.69847139926 0.60580210377 
0.33808626922 -0.72702475367 0.59536343477 0.29536798184 -0.75476692919 0.58519974589 0.24762877285 -0.77642526305 0.57709840798 
0.1994267547 -0.79719368534 0.56930398701 0.14745106182 -0.81070590563 0.56401211954 0.095463128381 -0.82325524142 0.5591172866 
0.043366049829 -0.82721885701 0.55776267823 -0.0082348963541 -0.8302635945 0.55695404749 -0.054964724726 -0.82428661978 0.56150592437 
-0.10080955049 -0.81754884255 0.56672537129 -0.13700784778 -0.80251831784 0.57922133159 -0.17212048044 -0.78691241197 0.59239468572 
-0.19396387869 -0.76427406966 0.61384729784 -0.21470104509 -0.74119686672 0.6358471381 -0.22008924458 -0.71203047251 0.66543976884 
-0.22445008205 -0.68252966267 0.69532861498 -0.21237312715 -0.6476782027 0.72995690772 -0.19943005096 -0.61261266649 0.76457863384 
-0.17017502383 -0.57351536135 0.79907668856 -0.14026704242 -0.53434283597 0.83332559309 -0.095471703623 -0.49345528912 0.86189387358 
-0.050255548713 -0.45260850951 0.89009910711 0.0070590695214 -0.41293378804 0.9078667404 0.064577718382 -0.3733569879 0.92528673882 
0.12998555146 -0.33756647934 0.92926485541 0.19544061835 -0.30186910141 0.93299941713 0.26365886253 -0.27161986487 0.9224860181 
0.33130384416 -0.24162482361 0.91206096696 0.33130384416 -0.24162482361 0.91206096696 0.33130384416 -0.24162482361 0.91206096696 

FrenetNormal 3 240 double
-0.21170730624 0.11784253028 0.97020263581 -0.21170730624 0.11784253028 0.97020263581 -0.21170730624 0.11784253028 0.97020263581 
-0.32475809347 0.20783095981 0.9088861129 -0.43876693821 0.29858200315 0.84704995843 -0.49812563362 0.35602326317 0.78382740616 
-0.55655013844 0.41289512519 0.72058115477 -0.59410864561 0.45782378972 0.65557780405 -0.63112751491 0.50244357846 0.5905290111 
-0.66261198178 0.54288483799 0.50630339335 -0.69390394769 0.58318075736 0.42141075561 -0.72005411177 0.61431550291 0.29161919706 
-0.74597875823 0.64504844258 0.1598583876 -0.73618272199 0.6321852161 -0.066109608395 -0.72449001233 0.61700714894 -0.29707975588 
-0.55065366573 0.44675251115 -0.58673109894 -0.36668334182 0.2668055877 -0.88005001673 -0.11524900635 0.051028354097 -0.93228195645 
0.14104760023 -0.1673312442 -0.96713825811 0.28491254312 -0.25708335998 -0.90759975831 0.41957853172 -0.33631304537 -0.84033804748 
0.50651433633 -0.34396668994 -0.78440675976 0.58907122497 -0.34505372526 -0.72951496041 0.65956511124 -0.300748636 -0.68202397665 
0.72883035837 -0.2518202748 -0.63528677967 0.78757881322 -0.16629737042 -0.58114856103 0.84514781473 -0.076670405125 -0.52618032127 
0.87825149588 0.03034022018 -0.45849670812 0.90835471322 0.13948280379 -0.38925366238 0.90976012276 0.23722656313 -0.31935607901 
0.90733915792 0.33345047923 -0.24937122396 0.88895344328 0.40516446977 -0.19445405873 0.8682651205 0.47334337488 -0.14171011799 
0.84264225938 0.5233104282 -0.11196254298 0.81625286804 0.57044845599 -0.085787218954 0.78519789187 0.61101999905 -0.086888245575 
0.75336531822 0.65049712799 -0.092535330637 0.71034854769 0.68887973994 -0.12626716028 0.66533855396 0.72706728946 -0.16500419193 
0.6188717082 0.75444466562 -0.20778639628 0.57212806055 0.77976810885 -0.25133718345 0.61509078473 0.39515407238 0.14259777606 
0.67617600826 -0.072275616552 0.6249136945 0.40926788988 -0.38836970163 0.7015001863 0.072075483945 -0.67203472875 0.69114465812 
-0.0049534092183 -0.71502929992 0.69866420006 -0.022976144847 -0.70343881924 0.71023788163 -0.050890462652 -0.67361686923 0.73542088653 
-0.081174638687 -0.63942696303 0.76386445849 -0.1352537036 -0.57124012185 0.80282940621 -0.19534410887 -0.4944645813 0.84445238572 
-0.27698955745 -0.36076066095 0.8739516386 -0.36436773031 -0.21191621405 0.9002264961 -0.44061014744 -0.032655106125 0.87423311446 
-0.51373934254 0.15510958445 0.83362710683 -0.5564218675 0.30295841547 0.75662529709 -0.59016895665 0.43909280944 0.66894211065 
-0.60640262507 0.52836492383 0.58387820177 -0.61724754865 0.60321787528 0.49962022444 -0.6162426258 0.65639635888 0.42776872233 
-0.61141941911 0.70259084728 0.35991486223 -0.59400994149 0.74290622137 0.30071372757 -0.57235790064 0.78123987153 0.24442924192 
-0.54002944518 0.81705854016 0.18833804426 -0.50393998003 0.85199124939 0.13231493668 -0.45933030655 0.88168087345 0.069780298898 
-0.41158676334 0.90944200642 0.0048506155166 -0.35352154435 0.92847451894 -0.065466726207 -0.29149568233 0.9441576771 -0.1378514252 
-0.21738429759 0.94850089891 -0.2073793239 -0.13843870377 0.94830814619 -0.27576450248 -0.04696709006 0.93734618792 -0.32912244339 
0.049723698597 0.92189706066 -0.37621903527 0.16161015712 0.89669327462 -0.39516470328 0.28008750861 0.86725855224 -0.40190033203 
0.41255916876 0.81908388743 -0.36894075398 0.55134533404 0.76245339494 -0.31806992409 0.67955421984 0.67134039518 -0.23222259959 
0.80280092514 0.5640504167 -0.12996654922 0.88416995534 0.43211245087 -0.030523463176 0.94512361894 0.28815859121 0.067548302762 
0.9692529687 0.14117807123 0.13565522677 0.97473709626 -0.007334934983 0.18859007892 0.95593245573 -0.15230936503 0.2095995226 
0.92436064223 -0.29542377426 0.21382766184 0.86756944015 -0.43342196595 0.1952871858 0.79702220795 -0.56862949352 0.16432746507 
0.69961332701 -0.68719714891 0.12030746702 0.58700640797 -0.79635013976 0.068898101526 0.45501629133 -0.87688162573 0.016964169854 
0.31165469876 -0.94062182883 -0.03527750731 0.16474032037 -0.97235513219 -0.081108839166 0.015665464104 -0.9846247803 -0.12304198806 
-0.12212978301 -0.97122720894 -0.15966010891 -0.25281733121 -0.94165577326 -0.192929034 -0.36339415133 -0.8972081571 -0.22675155628 
-0.46084313506 -0.8430497009 -0.26093545452 -0.53541580685 -0.78383564677 -0.30161771983 -0.59452280297 -0.7212037236 -0.34669324738 
-0.63053472871 -0.65866019081 -0.40214093193 -0.6503801052 -0.59617853129 -0.46484912638 -0.64813818361 -0.53296357843 -0.53598715527 
-0.62989097355 -0.46921725358 -0.61323375984 -0.59569789162 -0.40071256303 -0.68853575842 -0.5495454058 -0.3286390982 -0.7623793025 
-0.49877785167 -0.25041999697 -0.82361842001 -0.4444284535 -0.16743114809 -0.87507499749 -0.39218098713 -0.081627203616 -0.91145053203 
-0.3416214357 0.0064373479164 -0.93571553209 -0.29138677363 0.090902156693 -0.94843410063 -0.24142201965 0.17237640995 -0.95156024914 
-0.18446519359 0.24392967664 -0.94875924308 -0.12149955559 0.30695709549 -0.94086458854 -0.031735638332 0.35458880992 -0.92846366154 
0.081848971595 0.38853545374 -0.91205715904 0.27459704489 0.38030477785 -0.84469303305 0.54012443128 0.33329817898 -0.73048076935 