# vtk DataFile Version 5.1
vtk output
ASCII
DATASET POLYDATA
POINTS 240 float
0 0 0 -0.108597 -0.175256 0.124539 -0.217194 -0.350511 0.249077 
-0.34179 -0.51293 0.431684 -0.466521 -0.675239 0.614784 -0.607041 -0.828051 0.839585 
-0.747831 -0.9807 1.0651 -0.904221 -1.12707 1.31626 -1.06101 -1.27328 1.56808 
-1.23323 -1.41623 1.82991 -1.40597 -1.55905 2.09209 -1.59383 -1.70131 2.34931 
-1.78235 -1.84355 2.60632 -1.98523 -1.98762 2.84451 -2.18888 -2.13179 3.0817 
-2.40523 -2.27997 3.28794 -2.62238 -2.42841 3.49224 -2.84916 -2.58296 3.65586 
-3.07663 -2.73794 3.81655 -3.30887 -2.90105 3.92982 -3.54149 -3.06483 4.03922 
-3.77219 -3.23864 4.09782 -4.00272 -3.41336 4.15176 -4.22317 -3.59961 4.15488 
-4.4426 -3.78704 4.15282 -4.64299 -3.9867 4.10296 -4.84125 -4.18774 4.04774 
-5.01165 -4.40051 3.94996 -5.17864 -4.61472 3.84697 -5.31004 -4.83867 3.70789 
-5.4367 -5.06392 3.56401 -5.52197 -5.29539 3.39068 -5.60128 -5.52775 3.21311 
-5.63592 -5.76161 3.01205 -5.66362 -5.9957 2.80735 -5.64616 -6.22602 2.58396 
-5.62117 -6.45571 2.35746 -5.55337 -6.67669 2.11583 -5.47795 -6.89611 1.8715 
-5.36472 -7.10303 1.61471 -5.24432 -7.30758 1.35555 -5.09338 -7.4977 1.08637 
-4.93627 -7.68491 0.815175 -4.75746 -7.8579 0.53699 -4.57401 -8.02785 0.257309 
-4.37851 -8.18575 -0.0250211 -4.18027 -8.34093 -0.307952 -3.97962 -8.48769 -0.587447 
-3.77839 -8.63242 -0.866118 -3.58356 -8.77301 -1.13346 -3.39034 -8.91254 -1.39793 
-3.21087 -9.05194 -1.64177 -3.03506 -9.19131 -1.88012 -2.87847 -9.33354 -2.08796 
-2.72726 -9.47658 -2.28727 -2.59876 -9.62401 -2.4468 -2.47692 -9.77272 -2.59465 
-2.37947 -9.92581 -2.69532 -2.28952 -10.0802 -2.78147 -2.22424 -10.2377 -2.81602 
-2.1669 -10.3961 -2.83395 -2.13358 -10.555 -2.79962 -2.10836 -10.7141 -2.74768 
-2.10609 -10.8707 -2.64679 -2.1119 -11.0264 -2.52865 -2.13948 -11.1761 -2.3684 
-2.17506 -11.3235 -2.19265 -2.23117 -11.4609 -1.98404 -2.29515 -11.5945 -1.76282 
-2.3782 -11.7139 -1.51922 -2.46887 -11.8275 -1.26667 -2.57666 -11.9222 -1.00213 
-2.6916 -12.0091 -0.732587 -2.821 -12.0727 -0.460159 -2.95668 -12.1262 -0.186479 
-3.10336 -12.1528 0.0831532 -3.255 -12.1671 0.350959 -3.41342 -12.1523 0.610455 
-3.57502 -12.1239 0.866054 -3.73864 -12.0661 1.11187 -3.90325 -11.9941 1.35293 
-4.06499 -11.8952 1.58518 -4.22527 -11.7825 1.81298 -4.37806 -11.6474 2.03477 
-4.52691 -11.5005 2.25342 -4.66439 -11.3374 2.46991 -4.79567 -11.1655 2.68523 
-4.91278 -10.9848 2.90247 -5.02187 -10.7992 3.12078 -5.1153 -10.6126 3.34453 
-5.19953 -10.4255 3.57147 -5.2679 -10.2451 3.80624 -5.32662 -10.0688 4.04577 
-5.37035 -9.90615 4.29416 -5.40462 -9.75214 4.54815 -5.42553 -9.61789 4.8106 
-5.43773 -9.49654 5.07858 -5.43865 -9.39999 5.35329 -5.43196 -9.32021 5.63256 
-5.41624 -9.26902 5.91576 -5.39421 -9.23784 6.20172 -5.36535 -9.23763 6.48814 
-5.33155 -9.25986 6.7749 -5.29296 -9.31385 7.05836 -5.2508 -9.39166 7.33936 
-5.20573 -9.50046 7.6134 -5.15842 -9.6333 7.88203 -5.10989 -9.79495 8.14038 
-5.06039 -9.97971 8.39047 -5.01107 -10.1899 8.62747 -4.9619 -10.4213 8.85361 
-4.91393 -10.674 9.06449 -4.86697 -10.9451 9.26226 -4.82173 -11.2331 9.44327 
-4.77799 -11.5361 9.60936 -4.73595 -11.8516 9.75783 -4.69545 -12.1786 9.89008 
-4.65611 -12.514 10.0045 -4.61787 -12.8574 10.1019 -4.5798 -13.2057 10.1818 
-4.54191 -13.5589 10.2444 -4.50284 -13.9141 10.2904 -4.46258 -14.2715 10.3193 
-4.41956 -14.6287 10.3328 -4.37363 -14.9857 10.3302 -4.32323 -15.3409 10.3138 
-4.26799 -15.6941 10.2825 -4.20664 -16.0444 10.2396 -4.13842 -16.3914 10.1837 
-4.0627 -16.7346 10.1187 -3.97825 -17.0734 10.043 -3.88532 -17.4078 9.96112 
-3.78217 -17.7371 9.87178 -3.67008 -18.0615 9.77955 -3.54686 -18.38 9.68371 
-3.41487 -18.6933 9.58861 -3.27157 -18.9999 9.49446 -3.12023 -19.3009 9.40487 
-2.9582 -19.5944 9.32135 -2.78937 -19.8819 9.24614 -2.61119 -20.1611 9.1824 
-2.42779 -20.4338 9.13033 -2.23695 -20.6972 9.09495 -2.04259 -20.9535 9.07388 
-1.84303 -21.1995 9.07397 -1.64155 -21.438 9.08999 -1.43712 -21.665 9.1304 
-1.23202 -21.8839 9.18716 -1.02588 -22.09 9.26987 -0.819834 -22.2875 9.36812 
-0.613945 -22.4709 9.49196 -0.408278 -22.6451 9.62942 -0.202988 -22.8038 9.79012 
0.0025861 -22.9529 9.96164 0.208663 -23.0849 10.1523 0.416003 -23.2069 10.3504 
0.625658 -23.3106 10.5622 0.837798 -23.404 10.778 1.05466 -23.4781 11.0013 
1.27523 -23.5422 11.2253 1.5031 -23.5866 11.4504 1.73565 -23.6216 11.6732 
1.97782 -23.6375 11.8914 2.22528 -23.6451 12.1051 2.484 -23.6349 12.3092 
2.74814 -23.6178 12.5075 3.0243 -23.5856 12.6927 3.30556 -23.548 12.8715 
3.59857 -23.4983 13.0354 3.89597 -23.445 13.1931 4.20389 -23.3829 13.3359 
4.51519 -23.3186 13.4733 4.83496 -23.2486 13.5972 5.15696 -23.1776 13.7169 
5.48478 -23.1035 13.8259 5.81366 -23.0288 13.9322 6.14545 -22.9528 14.0313 
6.47724 -22.8764 14.1293 6.80906 -22.7992 14.2241 7.14005 -22.7217 14.3192 
7.4686 -22.6431 14.4151 7.79577 -22.5639 14.5124 8.1187 -22.483 14.614 
8.44002 -22.4012 14.7177 8.75613 -22.3167 14.8283 9.0707 -22.2314 14.9415 
9.38003 -22.1428 15.0632 9.68812 -22.0535 15.1875 9.99178 -21.9611 15.3208 
10.2946 -21.8681 15.4565 10.5943 -21.773 15.6008 10.8937 -21.6778 15.7469 
11.1915 -21.5823 15.9004 11.4893 -21.4872 16.0553 11.7869 -21.3942 16.2159 
12.0845 -21.3024 16.3774 12.3826 -21.2157 16.5432 12.6806 -21.1307 16.7096 
12.9785 -21.0543 16.8791 13.2761 -20.9805 17.0491 13.5718 -20.9189 17.2218 
13.8666 -20.8605 17.395 14.1568 -20.8186 17.5714 14.4456 -20.7802 17.7486 
14.7259 -20.7623 17.9301 15.004 -20.7484 18.1125 15.2696 -20.7586 18.3007 
15.5326 -20.773 18.49 15.7789 -20.8144 18.6865 16.0224 -20.8599 18.8841 
16.2459 -20.934 19.0895 16.4665 -21.0121 19.2959 16.6648 -21.1192 19.5098 
16.8602 -21.2298 19.7244 17.032 -21.3685 19.9449 17.2012 -21.5102 20.1659 
17.3466 -21.6781 20.3901 17.4896 -21.8485 20.6143 17.6091 -22.0426 20.8382 
17.7264 -22.2386 21.0617 17.8206 -22.4557 21.2809 17.9129 -22.6743 21.4995 
17.9823 -22.9117 21.71 18.0501 -23.1502 21.9196 18.095 -23.4053 22.1178 
18.1385 -23.6613 22.3152 18.1593 -23.9319 22.4989 18.179 -24.2031 22.682 
18.1764 -24.4872 22.8505 18.173 -24.7716 23.0185 18.1484 -25.0667 23.1727 
18.1231 -25.3621 23.3266 18.0784 -25.6659 23.4689 18.0332 -25.9697 23.6109 
17.9709 -26.2796 23.7446 17.9082 -26.5894 23.8782 17.831 -26.9028 24.0072 
17.7537 -27.2162 24.1362 17.6647 -27.5309 24.2643 17.5758 -27.8456 24.3925 

LINES 2 240
OFFSETS vtktypeint64
0 240 
CONNECTIVITY vtktypeint64
0 1 2 3 4 5 6 7 8 
9 10 11 12 13 14 15 16 17 
18 19 20 21 22 23 24 25 26 
27 28 29 30 31 32 33 34 35 
36 37 38 39 40 41 42 43 44 
45 46 47 48 49 50 51 52 53 
54 55 56 57 58 59 60 61 62 
63 64 65 66 67 68 69 70 71 
72 73 74 75 76 77 78 79 80 
81 82 83 84 85 86 87 88 89 
90 91 92 93 94 95 96 97 98 
99 100 101 102 103 104 105 106 107 
108 109 110 111 112 113 114 115 116 
117 118 119 120 121 122 123 124 125 
126 127 128 129 130 131 132 133 134 
135 136 137 138 139 140 141 142 143 
144 145 146 147 148 149 150 151 152 
153 154 155 156 157 158 159 160 161 
162 163 164 165 166 167 168 169 170 
171 172 173 174 175 176 177 178 179 
180 181 182 183 184 185 186 187 188 
189 190 191 192 193 194 195 196 197 
198 199 200 201 202 203 204 205 206 
207 208 209 210 211 212 213 214 215 
216 217 218 219 220 221 222 223 224 
225 226 227 228 229 230 231 232 233 
234 235 236 237 238 239 
CELL_DATA 1
FIELD FieldData 3
Length 1 1 double
76.518271649 
Tortuosity 1 1 double
0.8672554688 
ClusterLabel 1 1 int
2 
POINT_DATA 240
FIELD FieldData 6
Curvature 1 240 double
0 0.19692047213 0.39384094425 0.29861679546 0.20091684481 0.15017884901 0.10024362167 0.078667456386 0.057824715122 
0.061685376229 0.066405286114 0.083402284761 0.10093775221 0.12367641389 0.14669135136 0.17350662458 0.20055941878 0.22912890105 
0.25780769417 0.2835283847 0.30900704865 0.32645849204 0.34317349318 0.35001149623 0.35584350873 0.3545945404 0.35255144338 
0.34725435459 0.34155819133 0.33426396022 0.3267566534 0.31711165458 0.3071583348 0.29399772756 0.2803389009 0.2631424668 
0.24535643146 0.22487385739 0.20391071205 0.18191999816 0.15973404624 0.13816579322 0.11672232786 0.096609281132 0.076781324106 
0.057957836927 0.039362167652 0.025020324292 0.011697626724 0.02704579924 0.049637138936 0.084272358877 0.12211073846 0.18566184336 
0.25640145212 0.38459896308 0.52965911924 0.75712834611 1.0099542101 1.1982264041 1.3656979711 1.2790947882 1.1068484313 
0.89257867784 0.66350522781 0.5113337742 0.38744811237 0.31462576775 0.26139748671 0.23297887078 0.2144841209 0.20839904577 
0.20748466845 0.21279574915 0.2208070285 0.23001675151 0.23976723569 0.24585958376 0.25023576921 0.2471523289 0.24043232102 
0.22707339461 0.21035299045 0.19183863963 0.17238131686 0.15719481152 0.14433784297 0.13981604753 0.14001020531 0.14729184116 
0.15873146414 0.17379714026 0.1910678487 0.209540811 0.22877135794 0.24786414546 0.26686700668 0.28435644524 0.3008227248 
0.31382073195 0.3243909484 0.32959934604 0.33092236772 0.3266321598 0.31813202969 0.30573376482 0.29031008193 0.27352866011 
0.25565693279 0.2384596666 0.22182272196 0.20681446203 0.19320585304 0.18127163584 0.17082576691 0.16178962237 0.15404951477 
0.14745948977 0.14196298593 0.13706121277 0.1327442581 0.12875276861 0.12509226064 0.12170674835 0.11861045565 0.11552566429 
0.11245338317 0.10935111981 0.10621512642 0.103047485 0.099843016773 0.096964059282 0.094476920267 0.092991909685 0.092754832623 
0.094385180304 0.098421632942 0.10488842672 0.11459567535 0.12663138131 0.14188035839 0.15856233379 0.17729144969 0.19593541181 
0.21445341733 0.23077494213 0.2437316454 0.25267894048 0.25526347907 0.25375999383 0.24553398051 0.23475173478 0.2196122747 
0.20450839042 0.18946738429 0.17614709677 0.16598146001 0.15806376581 0.15442264525 0.15231667909 0.15324264286 0.15429562272 
0.1556091484 0.15585483128 0.15382432294 0.15049891739 0.14430373961 0.13695795748 0.12695939311 0.11629691354 0.10404103749 
0.091561054091 0.078520802342 0.065449492384 0.052297242851 0.039292590155 0.026689216356 0.016572529025 0.013514822634 0.013770329568 
0.023855036034 0.03347263617 0.041640595968 0.048936079691 0.053396016171 0.0568384204 0.056813677702 0.055977548811 0.052239153921 
0.048063642851 0.042244574945 0.036771522562 0.03266811496 0.029644713718 0.031129165112 0.033437439071 0.03937802161 0.045758797418 
0.054193808481 0.06304192002 0.073934878917 0.085251276405 0.098796298054 0.11278633484 0.12927340102 0.14579102876 0.16249202583 
0.17877982499 0.19240766256 0.20519451465 0.212150534 0.218097013 0.21647193933 0.2142094468 0.20674953886 0.1991099965 
0.18986871385 0.18078924885 0.1732985389 0.16607820389 0.16180495579 0.15769859934 0.1556320296 0.15355922657 0.15139993657 
0.14916012023 0.14563188237 0.14192234478 0.13479832865 0.12756419324 0.11781933844 0.10802524654 0.096815588129 0.085613409588 
0.07470045265 0.063820646866 0.054880183603 0.045822319529 0.022911159764 0 
Torsion 1 240 double
0 0 0 0.14853422884 0.29832722233 0.49070619296 0.68381312901 1.0320932458 1.3843864621 
1.1186634088 0.83144413746 0.58848956786 0.34747643253 0.26747798994 0.19602900005 0.17541000031 0.15796787495 0.15900100801 
0.16136569122 0.17136591759 0.18199087022 0.19469975631 0.20759982895 0.21639596784 0.22477411349 0.22174739599 0.21744162841 
0.19838010633 0.17750891625 0.14618207377 0.11346114431 0.078748100616 0.043747732758 0.013031103091 -0.017020091517 -0.04041070469 
-0.062691220958 -0.078304890846 -0.092730409894 -0.10117035363 -0.10847303806 -0.10964037983 -0.10956825844 -0.097046431044 -0.081856809501 
0.015158198754 0.13073154214 2.3171540702 4.9997175488 3.349141542 0.60387766529 -0.034009021054 -0.11142305038 -0.13692174723 
-0.14790648016 -0.14148000448 -0.12994371758 -0.10880279767 -0.084706606068 -0.063982737804 -0.044345507061 -0.025013196914 -0.0057836689898 
0.024085239657 0.057702111968 0.089676085029 0.12104577331 0.12971214203 0.12966677186 0.10642643839 0.073908119605 0.034642783499 
-0.0074338098221 -0.043873018829 -0.077867097289 -0.1067999682 -0.13344912351 -0.15997123232 -0.18643373907 -0.22025673259 -0.25766796339 
-0.31265375268 -0.37653805258 -0.46589711194 -0.56864674998 -0.67011511058 -0.77088459258 -0.79367764163 -0.77235244573 -0.69842850638 
-0.59364663756 -0.50106426648 -0.4159005089 -0.35029659215 -0.29701805454 -0.25432405671 -0.21853941124 -0.18810572363 -0.161289585 
-0.13833625802 -0.11808689917 -0.10138298389 -0.087248230597 -0.075794366234 -0.066351168565 -0.05818288757 -0.051004094144 -0.043728379401 
-0.036374833904 -0.027834056493 -0.018306963339 -0.0071330477908 0.0054561057535 0.019355221606 0.034418748399 0.050394277543 0.067208260463 
0.084601937499 0.10254679911 0.12097493252 0.13987828323 0.1587889049 0.17770692078 0.19626311171 0.21443876261 0.23271073639 
0.25108748243 0.2704060689 0.29078422585 0.31459943848 0.34241413408 0.37347400753 0.40844011359 0.44076687782 0.46980691449 
0.48390388371 0.47874728525 0.45657001271 0.41169850806 0.36207065247 0.30587903257 0.25279278131 0.20414277097 0.1594274277 
0.12053211279 0.083860152606 0.050594182636 0.016345528294 -0.019462603419 -0.058431080583 -0.10259657026 -0.15132204587 -0.20782022475 
-0.26669334752 -0.32976404554 -0.38583580365 -0.42907617192 -0.45593175854 -0.45161629712 -0.43534872489 -0.3954757338 -0.35518673326 
-0.31404438002 -0.27707472524 -0.24899950666 -0.22363060719 -0.20425949599 -0.18662065808 -0.17297567248 -0.15995443393 -0.14843018828 
-0.13485024415 -0.11613105382 -0.088360006044 -0.036999269198 0.092854417798 0.43611081302 0.81900000799 1.3143952152 1.4903604355 
0.71868336137 0.12329535192 0.07501133623 0.038440955407 0.039939887911 0.045877158676 0.066937656105 0.094918017845 0.14765020193 
0.21562240271 0.34089706625 0.47567363866 0.64806193366 0.76596036391 0.65642283697 0.53121065706 0.33688750721 0.15874880652 
0.056137535207 -0.035416190899 -0.072235068241 -0.10416719115 -0.11037955389 -0.114209836 -0.10467399898 -0.094380163654 -0.079538338466 
-0.064842001394 -0.051082244075 -0.037482034542 -0.024988022987 -0.012270593245 0.0021224729092 0.016646993219 0.032243370487 0.047524160058 
0.059990959328 0.071965137477 0.079102671893 0.085404204632 0.082593319098 0.078978196348 0.065533507615 0.051990446263 0.037082464818 
0.022042323394 0.0048876223021 -0.012461631947 -0.033474970657 -0.054637311608 -0.079196903654 -0.10419774854 -0.14188461246 -0.18013222837 
-0.24006225415 -0.29648308563 -0.14761605107 0 0 0 
FrenetTangent 3 240 double
-0.45494813189 -0.65819148788 0.59983844706 -0.45494813189 -0.65819148788 0.59983844706 -0.45494813189 -0.65819148788 0.59983844706 
-0.45626450019 -0.60122888437 0.65137826124 -0.45759202416 -0.54378354692 0.7033548535 -0.46230194362 -0.50677621043 0.72633848598 
-0.46706968179 -0.47011824147 0.74882651231 -0.47720675506 -0.4491377051 0.75497225636 -0.48748269044 -0.42856261958 0.76069535518 
-0.50365772349 -0.41969867906 0.75485125974 -0.52003794256 -0.41124208272 0.74860482711 -0.54232692615 -0.41206900385 0.73161512815 
-0.56487506608 -0.4133030968 0.7141542333 -0.59250663844 -0.42243681396 0.68461118402 -0.62040812758 -0.43198998019 0.65442660443 
-0.65091776471 -0.44848096885 0.60979999821 -0.68159041108 -0.46540557142 0.56427076533 -0.70996955748 -0.48807583361 0.50239748892 
-0.73818340658 -0.5111601974 0.43934626344 -0.75696568416 -0.53804065841 0.36059807853 -0.77497628771 -0.5652317092 0.28056559695 
-0.7762183898 -0.59349860412 0.18975367856 -0.77592209726 -0.62186420032 0.097952821016 -0.75452172597 -0.64849457775 0.0038883509938 
-0.73097186517 -0.67494821993 -0.090406672151 -0.68668426729 -0.69744334306 -0.17832692544 -0.64007094188 -0.71949452013 -0.26553225126 
-0.57660919755 -0.73584423287 -0.34076341671 -0.5110811377 -0.75149470941 -0.41452605305 -0.4340582134 -0.75971786977 -0.47425046522 
-0.3555026405 -0.76695072131 -0.53210311417 -0.27123397213 -0.76511560789 -0.57626151023 -0.18614129961 -0.76197261491 -0.61844477366 
-0.10125682407 -0.74896765705 -0.64859259318 -0.016404689804 -0.73443074348 -0.67687082918 0.062635317449 -0.71092651463 -0.69551596932 
0.14070663687 -0.68592773324 -0.71255559348 0.20857362564 -0.65477307482 -0.72275336837 0.27462202084 -0.62252132942 -0.73173180378 
0.32816284443 -0.58818769893 -0.73659661973 0.37932722941 -0.55345851028 -0.74067984797 0.417974304 -0.520812826 -0.74280239354 
0.45409262902 -0.4885880517 -0.7445288416 0.47933479423 -0.46179142456 -0.74554190349 0.50224635377 -0.43615797182 -0.74640209691 
0.51662724753 -0.41827275708 -0.74682020406 0.52907335111 -0.40214487467 -0.74713804422 0.53534189333 -0.39538666611 -0.7463480322 
0.54013039482 -0.39087327524 -0.74529259727 0.5407106407 -0.39721522236 -0.74145275127 0.54022774833 -0.40629957066 -0.73690947511 
0.53682562717 -0.42825593971 -0.7263863125 0.53264711537 -0.45363571853 -0.71427275455 0.52554757568 -0.49497280596 -0.68992090213 
0.51763140453 -0.54077107643 -0.66214759105 0.50356158206 -0.60565504599 -0.60921966641 0.4876857967 -0.67614025333 -0.54890940953 
0.4549894428 -0.75883039251 -0.44086832737 0.41711752936 -0.84527589532 -0.31814083742 0.34854983926 -0.90261143677 -0.14085720385 
0.27009128779 -0.95056710178 0.05400563156 0.17726402513 -0.93133222538 0.24145774201 0.079593376688 -0.88944885187 0.42641185529 
-0.0017198729608 -0.81815040503 0.55492404445 -0.077270857125 -0.73648983008 0.66355328308 -0.13506734722 -0.66047621159 0.73165953646 
-0.1863334487 -0.58653963456 0.78486078378 -0.22841544845 -0.52226495837 0.8183232808 -0.26697331614 -0.46169775576 0.84421160619 
-0.30183857494 -0.40602808805 0.86034827481 -0.33522679018 -0.35231743431 0.87258428071 -0.36711287843 -0.29855017255 0.87893298486 
-0.39837308043 -0.24475932412 0.88282864662 -0.42798717873 -0.18733914507 0.8819166149 -0.45688730435 -0.12834479853 0.87891931852 
-0.48217625637 -0.064323183582 0.87107590741 -0.5058357764 0.0019668329595 0.86104583477 -0.52285326588 0.07178281234 0.84641961378 
-0.53675474104 0.14325294713 0.82963717506 -0.54150451799 0.21396641772 0.81003140563 -0.54179284206 0.28431101453 0.7890492625 
-0.53254454456 0.34872024742 0.76869352174 -0.51846757791 0.41012423274 0.74865494674 -0.49660529503 0.46195533264 0.73299563551 
-0.47065073054 0.50875453123 0.71963824498 -0.43949776156 0.5444871219 0.71314403967 -0.40550929922 0.57418338097 0.71039338994 
-0.36863606733 0.59258127235 0.71516465512 -0.3301306632 0.60458666621 0.72419174058 -0.29050390337 0.60537072451 0.73984023828 
-0.25021928154 0.59957159929 0.75937329781 -0.21012886902 0.5825672625 0.7835592846 -0.17015655675 0.55874894571 0.81057475418 
-0.13142703164 0.52376640243 0.83956561805 -0.093480632675 0.48174886713 0.86980125092 -0.057688882195 0.4289437771 0.89886281019 
-0.023303638361 0.36909681108 0.9271579603 0.0081640646872 0.29963606999 0.95089398165 0.037659345796 0.22367587534 0.97154777511 
0.063634115149 0.14059936509 0.9844773662 0.087144526272 0.052541433921 0.99200001563 0.10673247688 -0.038614008658 0.98974061167 
0.12347806479 -0.13201402472 0.98039276321 0.13624106963 -0.22376046172 0.9612430969 0.14601713717 -0.31426671441 0.9347420672 
0.15222443883 -0.39919551136 0.90047374653 0.15566195204 -0.47979553669 0.86017708061 0.15635398773 -0.55281906019 0.81510836726 
0.15484132178 -0.61975842311 0.7662075552 0.15157870017 -0.67899764614 0.71520324967 0.14686226925 -0.73183982987 0.66245142648 
0.14135355558 -0.77793902327 0.60930484831 0.13516397392 -0.81824345936 0.55581902757 0.12901061316 -0.85303629639 0.50277853251 
0.12288944876 -0.88292993426 0.45013388247 0.11748639506 -0.90839752031 0.39825824809 0.11274353991 -0.92979599419 0.34708961197 
0.1092819416 -0.94759962838 0.29676496713 0.1070385875 -0.96198521827 0.24724280579 0.10655936383 -0.97334382144 0.1986755903 
0.10781486843 -0.98172588769 0.15104740488 0.1112271135 -0.98747947236 0.10467772774 0.11683265395 -0.99056002491 0.059587889517 
0.12484159263 -0.99135329219 0.016160066042 0.13537824322 -0.98974096632 -0.025519776409 0.14837596813 -0.98617832007 -0.065002386375 
0.16405065106 -0.98049427268 -0.10209502416 0.18201196426 -0.97325161783 -0.13634904746 0.20254573648 -0.96425552961 -0.16740962946 
0.22496830165 -0.95417465928 -0.19498579111 0.24958873499 -0.94283149705 -0.21850735455 0.27557445221 -0.93093301754 -0.23795634145 
0.30320356672 -0.91836610057 -0.25250315289 0.33165550968 -0.90574205729 -0.2624992464 0.36113210694 -0.89304687557 -0.26682840814 
0.3909420069 -0.88065155239 -0.26618826613 0.42118135455 -0.8686425854 -0.25914536735 0.45131100639 -0.85702223757 -0.24673900172 
0.48129439713 -0.84592004864 -0.22718134698 0.51068940671 -0.83490288172 -0.20193599608 0.53927245028 -0.82400304517 -0.16884162451 
0.56660378185 -0.81244845537 -0.13000596648 0.5921469534 -0.79995850379 -0.082968470678 0.61556650717 -0.78573011569 -0.030826501592 
0.63584487631 -0.76893029027 0.028865834221 0.65317397254 -0.7493149203 0.091939387955 0.66598503366 -0.72538637571 0.16019267978 
0.67556963159 -0.69814932648 0.22904893441 0.68003397272 -0.66566182422 0.2988620648 0.68203377916 -0.6302421275 0.36625727395 
0.67998079521 -0.59000059988 0.42967634592 0.67705402005 -0.54783747674 0.48850139314 0.67263782804 -0.50239890667 0.53949571635 
0.66902302051 -0.4560792479 0.5850349413 0.66682461342 -0.40820231606 0.62093259724 0.66655999646 -0.36013522934 0.65144136409 
0.6698406614 -0.31171952535 0.67207050095 0.6754378999 -0.26358123881 0.6876992807 0.68544227837 -0.21597072203 0.69381518597 
0.69748383798 -0.16905189576 0.69541071328 0.71354883036 -0.12349915824 0.68807849409 0.73090294938 -0.079140963727 0.67685039968 
0.75090143076 -0.037233113828 0.65763076637 0.77124109846 0.0028597912006 0.63544767971 0.79230803174 0.039083997955 0.60694775831 
0.81289513828 0.07299477679 0.57673606563 0.83241884505 0.10177849916 0.54273071769 0.85095987732 0.12812009414 0.50838751081 
0.86723529893 0.14883122879 0.47326535136 0.88236829327 0.16734575543 0.43901522447 0.89475946212 0.18058842286 0.40685797571 
0.90609174043 0.19215188055 0.37639472953 0.91477679236 0.19951731389 0.35016648982 0.92255972355 0.20584891207 0.32607441256 
0.92799167343 0.20948627314 0.3075493041 0.93265275147 0.21271536419 0.29130509918 0.9352180217 0.21483447113 0.28126210077 
0.93709674927 0.21700407553 0.27341412742 0.93702658159 0.21931702754 0.27179719291 0.93631795299 0.22194604894 0.27207464227 
0.93371522369 0.22551274284 0.27797209713 0.93052034766 0.22946655438 0.28529840443 0.9254877749 0.23462176547 0.29705908139 
0.91997069538 0.24001472206 0.30969357256 0.91287896892 0.24618035149 0.32516795988 0.90551711498 0.25229919266 0.34092355906 
0.89723482667 0.25825860714 0.35763736165 0.88896868316 0.26386716297 0.37413667092 0.88076028838 0.2682207244 0.38986875415 
0.87284841475 0.27196440349 0.40507603267 0.86605146062 0.27341492505 0.41831004549 0.8597291424 0.27408284385 0.43092616596 
0.85528559129 0.27165296006 0.44109646248 0.85132574019 0.26835765837 0.45076648449 0.84938481086 0.26145017768 0.45834840412 
0.84779972988 0.25363346088 0.46566700335 0.84778361664 0.24180783946 0.47182459899 0.84791098576 0.22901588992 0.47800515103 
0.8487079392 0.21171440916 0.48429283298 0.84937127267 0.19336314155 0.49090403331 0.84937318727 0.16981542902 0.49911664961 
0.84893201527 0.14514270505 0.50786794707 0.8461588085 0.11454886826 0.51945440847 0.84261057295 0.082789687533 0.53165315894 
0.83471356483 0.044491632537 0.54728753141 0.82573200665 0.0051246464332 0.56340193482 0.81024314815 -0.04065592632 0.58239652389 
0.79350253182 -0.087198666733 0.60152125929 0.76870372438 -0.13864786146 0.62148381167 0.74272439979 -0.19038687447 0.64115296255 
0.70856015626 -0.24413529426 0.65878786301 0.67356458784 -0.2976568041 0.67579727713 0.63233408272 -0.34947648938 0.68811554367 
0.59075489124 -0.40073966705 0.69967704692 0.54633256479 -0.44746516736 0.7050680187 0.50193936515 -0.49357128119 0.7097550928 
0.45780587957 -0.53415453229 0.70816574599 0.4138613361 -0.57422343777 0.70600611791 0.37177186079 -0.60924240444 0.69824736477 
0.32986390649 -0.64389744498 0.69003460069 0.28993453123 -0.67458569066 0.6768731174 0.25011805288 -0.70500894693 0.66334926771 
0.21168142566 -0.73219344366 0.64539649526 0.1733126549 -0.75913422076 0.627184721 0.13588539252 -0.78269338812 0.60537929674 
0.098527372656 -0.8060050677 0.58342676287 0.062277233068 -0.82535694292 0.55912047515 0.026129744526 -0.84446120949 0.53479550603 
-0.008084482657 -0.85890217995 0.51011870378 -0.042164408188 -0.87312611744 0.48553548505 -0.073182256034 -0.88240170341 0.46308597064 
-0.10406253978 -0.89152099801 0.44078346768 -0.1309878556 -0.89614691589 0.42270754391 -0.15779828506 -0.90067896229 0.40477707551 
-0.18016644224 -0.90158131165 0.39247088175 -0.2024571362 -0.90243844021 0.38026838633 -0.22021623116 -0.900650152 0.37413224441 
-0.23782609003 -0.89887689142 0.36804766671 -0.23782609003 -0.89887689142 0.36804766671 -0.23782609003 -0.89887689142 0.36804766671 

FrenetNormal 3 240 double
-0.013271737022 0.67852035132 0.73446170345 -0.013271737022 0.67852035132 0.73446170345 -0.013271737022 0.67852035132 0.73446170345 
-0.02769324998 0.74070305726 0.66436034236 -0.042236979149 0.80341273528 0.59366490194 -0.13622011378 0.84289769063 0.5016626387 
-0.23156118697 0.88198564218 0.40929615627 -0.45503871611 0.80555846043 0.1923604959 -0.68183011912 0.72614381834 -0.027796781147 
-0.76540393845 0.44339279385 -0.26459739994 -0.84399627661 0.15356919954 -0.50197691758 -0.78962951725 -0.0019267986378 -0.58667703224 
-0.72943121854 -0.15153123559 -0.66468068185 -0.66771066004 -0.21071596182 -0.70796918433 -0.60590927358 -0.26509964147 -0.74941440466 
-0.53980262497 -0.28707710919 -0.78736558645 -0.47342689747 -0.30702918866 -0.82509839083 -0.39390381421 -0.31223690504 -0.86001433646 
-0.31343317378 -0.31638196463 -0.89472726524 -0.21672612392 -0.31143522316 -0.91966883558 -0.11869064057 -0.30574460706 -0.94381093113 
-0.0076991386667 -0.2934119355 -0.94925039032 0.1044809888 -0.28046990105 -0.95297401131 0.2206105214 -0.26226262005 -0.93169964764 
0.33714230823 -0.24351906393 -0.90787919293 0.44547105871 -0.21880914845 -0.85961279539 0.5528798425 -0.19343010854 -0.80860479678 
0.64170637753 -0.15963871491 -0.74111669245 0.72825395752 -0.12481561752 -0.67160744307 0.79111063275 -0.079267419573 -0.59708412521 
0.85080852068 -0.032289208222 -0.52189226488 0.88693074118 0.025173545223 -0.45088316781 0.91965262503 0.084148492238 -0.3804773539 
0.93136275383 0.15040926035 -0.3190886066 0.93980892069 0.2178018065 -0.25910056868 0.9306127779 0.28748598419 -0.21004962562 
0.91847625017 0.35755210048 -0.16282153171 0.89282801711 0.42476260158 -0.1271611867 0.86477175736 0.49146418115 -0.093562420704 
0.82819360724 0.55121756038 -0.071198376317 0.78999629795 0.60965078154 -0.050968929037 0.74868502461 0.65868082619 -0.040560837781 
0.70674466764 0.70581123921 -0.032136858852 0.66801788323 0.74184442076 -0.030021678036 0.6299797215 0.77549962413 -0.02925838253 
0.61235671899 0.79009019323 -0.018897653185 0.59936395878 0.80035682466 -0.0063601862679 0.54990124687 0.24535910241 0.26049212196 
0.49170094237 -0.4450665379 0.58827402759 0.22973097319 -0.7126278309 0.55063659136 -0.083717648105 -0.87336023617 0.42068268983 
-0.15088688452 -0.89587025837 0.41667106123 -0.15255628454 -0.88161900849 0.446154718 -0.15232899623 -0.85268913792 0.49573111466 
-0.15157145097 -0.81965556695 0.55092483646 -0.16754217254 -0.76150980095 0.61859340627 -0.18842227676 -0.69599415163 0.68992307279 
-0.23200095074 -0.58279783247 0.76371183368 -0.28256380003 -0.45493053797 0.83825723899 -0.34094903691 -0.26838182723 0.87612531657 
-0.4018548209 -0.062924660129 0.9021751441 -0.43941913645 0.14004792404 0.86277848877 -0.46911554129 0.34218300834 0.80132122124 
-0.47973589942 0.48587455886 0.71486280531 -0.48363628656 0.60897804634 0.61959716665 -0.48846326213 0.68605087828 0.52914098802 
-0.49363105183 0.74619289437 0.44045380619 -0.5024043946 0.78238766091 0.359102816 -0.51256126355 0.80939336656 0.2805668761 
-0.51678149399 0.8274305379 0.20918971537 -0.51862706902 0.84188029552 0.14067606631 -0.50594430384 0.85677363025 0.079700260599 
-0.48720806357 0.8718517888 0.021865222952 -0.45199624114 0.88912510441 -0.030480659232 -0.40963838309 0.90735053635 -0.080445702902 
-0.3526539095 0.92399407292 -0.12698052639 -0.28906962158 0.93992382744 -0.1719675676 -0.21232870823 0.95003458554 -0.21173176749 
-0.12941555084 0.95741544408 -0.24904574553 -0.035095809594 0.95563668341 -0.27587524782 0.064784641275 0.94939260838 -0.29759356818 
0.17704629925 0.93050264961 -0.29941115887 0.29557692286 0.90520971173 -0.29115243075 0.42694922211 0.8555022239 -0.24974954697 
0.56507163293 0.792961447 -0.19092473523 0.69560634733 0.68081459479 -0.090897992191 0.82200231824 0.54160988332 0.031602531556 
0.88923341365 0.35793072425 0.16177325734 0.92298964528 0.14908839089 0.29628370269 0.89937637674 -0.045166782226 0.38995030272 
0.84210633477 -0.23086415466 0.45965518017 0.77186962698 -0.38059946677 0.48986607621 0.69374778458 -0.50846595841 0.49606036194 
0.62039162847 -0.61174621436 0.4787108037 0.55003850756 -0.69953377386 0.44652539857 0.48610322836 -0.77150217601 0.39934298197 
0.42635737363 -0.83314418379 0.34237084955 0.3720391348 -0.88197291215 0.27471476895 0.3213902701 -0.92213914174 0.19983573747 
0.27500661905 -0.94988890967 0.11788032959 0.23160861754 -0.96894715442 0.030971458234 0.19129803098 -0.97560014489 -0.058692569377 
0.15322470163 -0.97326382065 -0.15035308703 0.11736154473 -0.95962110067 -0.24001693531 0.083156017174 -0.93749858388 -0.32818328158 
0.051080163431 -0.90663489677 -0.41056150897 0.020657190854 -0.86898701777 -0.48844746499 -0.0070624439254 -0.82586999757 -0.5587626566 
-0.032611216534 -0.77836109125 -0.62299829499 -0.054499408348 -0.72824654258 -0.67982998229 -0.07334650227 -0.67596730642 -0.73051069484 
-0.087293123405 -0.62293165391 -0.77508598533 -0.097028400738 -0.5692459561 -0.81441442874 -0.10079936388 -0.51569090316 -0.8490790548 
-0.099268714404 -0.46225197898 -0.87959806544 -0.091177572429 -0.40916885717 -0.90638479495 -0.07705500993 -0.35641284399 -0.92974023376 