# vtk DataFile Version 5.1
vtk output
ASCII
DATASET POLYDATA
POINTS 240 float
0 0 0 -0.0540897 -0.396708 -0.220704 -0.108179 -0.793415 -0.441409 
-0.208403 -1.16512 -0.558153 -0.309018 -1.53661 -0.674017 -0.442543 -1.88273 -0.7142 
-0.576631 -2.2284 -0.75309 -0.730577 -2.54846 -0.744065 -0.885037 -2.86786 -0.7338 
-1.04648 -3.16182 -0.702555 -1.20817 -3.45488 -0.67058 -1.36432 -3.72347 -0.642765 
-1.52023 -3.99098 -0.615133 -1.65894 -4.23625 -0.613148 -1.79673 -4.48033 -0.612524 
-1.90726 -4.70603 -0.652989 -2.01609 -4.93058 -0.696023 -2.08999 -5.14228 -0.787561 
-2.16138 -5.35304 -0.882596 -2.19313 -5.55754 -1.02494 -2.22164 -5.76153 -1.17115 
-2.20885 -5.96566 -1.35625 -2.19226 -6.16979 -1.54491 -2.13562 -6.37856 -1.75976 
-2.07491 -6.58781 -1.97728 -1.97794 -6.80285 -2.20776 -1.87691 -7.01854 -2.43969 
-1.74549 -7.23747 -2.67407 -1.61034 -7.45679 -2.90876 -1.45205 -7.6739 -3.13989 
-1.29067 -7.89071 -3.37056 -1.11401 -8.09878 -3.59637 -0.935139 -8.30558 -3.82147 
-0.748419 -8.49835 -4.04396 -0.56048 -8.68894 -4.26604 -0.370784 -8.86319 -4.48966 
-0.180795 -9.03471 -4.71355 0.00692787 -9.19137 -4.94343 0.194247 -9.34538 -5.17438 
0.377636 -9.48937 -5.41481 0.560278 -9.63146 -5.65704 0.739397 -9.77057 -5.91049 
0.917804 -9.90907 -6.16619 1.09428 -10.0524 -6.43267 1.27035 -10.1967 -6.70145 
1.44604 -10.3534 -6.97813 1.62164 -10.5127 -7.2566 1.79714 -10.6903 -7.53771 
1.97262 -10.8723 -7.81945 2.1462 -11.0762 -8.09634 2.31931 -11.2856 -8.372 
2.48656 -11.5173 -8.63353 2.65227 -11.7549 -8.8913 2.8067 -12.0113 -9.12433 
2.95799 -12.2729 -9.35044 3.09239 -12.5458 -9.54056 3.22184 -12.822 -9.72012 
3.32995 -13.099 -9.85272 3.43149 -13.3763 -9.97088 3.5093 -13.6424 -10.0328 
3.57947 -13.905 -10.0766 3.62587 -14.145 -10.0582 3.66425 -14.3776 -10.0189 
3.68067 -14.5788 -9.9162 3.68936 -14.769 -9.79127 3.67875 -14.9228 -9.60758 
3.66104 -15.0632 -9.40229 3.62639 -15.1663 -9.14811 3.58525 -15.255 -8.87517 
3.52836 -15.3088 -8.56722 3.46517 -15.3486 -8.24527 3.3859 -15.3579 -7.90415 
3.29993 -15.3546 -7.55505 3.19642 -15.3257 -7.20238 3.08531 -15.2858 -6.84816 
2.95516 -15.224 -6.50366 2.81641 -15.1524 -6.16354 2.65846 -15.0607 -5.84261 
2.4915 -14.9595 -5.53068 2.30771 -14.8381 -5.24282 2.11573 -14.7068 -4.9667 
1.91235 -14.5537 -4.71478 1.70322 -14.3897 -4.47512 1.49074 -14.2029 -4.25562 
1.27652 -14.0042 -4.04671 1.06832 -13.7833 -3.85082 0.863414 -13.5504 -3.66203 
0.673577 -13.2991 -3.47748 0.492266 -13.0374 -3.29533 0.333117 -12.7645 -3.10866 
0.18697 -12.4851 -2.91934 0.0669976 -12.2051 -2.71844 -0.0370579 -11.9247 -2.51049 
-0.114513 -11.6564 -2.28694 -0.175207 -11.3958 -2.05356 -0.212205 -11.1603 -1.80439 
-0.233736 -10.9413 -1.54491 -0.236938 -10.7593 -1.27321 -0.227747 -10.6024 -0.993251 
-0.206791 -10.4912 -0.707525 -0.177599 -10.4121 -0.417762 -0.143045 -10.3834 -0.130059 
-0.104606 -10.3913 0.156153 -0.0658603 -10.4496 0.432849 -0.0268834 -10.5458 0.702407 
0.00945241 -10.6884 0.956918 0.0437384 -10.8669 1.19975 0.0746702 -11.0842 1.42491 
0.102909 -11.3325 1.63588 0.128747 -11.6098 1.82956 0.152592 -11.9111 2.00886 
0.175608 -12.2308 2.17347 0.197912 -12.5662 2.32544 0.220409 -12.9103 2.46614 
0.243077 -13.262 2.59684 0.265579 -13.6146 2.7191 0.287929 -13.968 2.83362 
0.308279 -14.3173 2.9409 0.326727 -14.6626 3.04131 0.340538 -15.0018 3.13384 
0.349789 -15.3349 3.21863 0.352122 -15.6622 3.29365 0.347421 -15.9836 3.35872 
0.335055 -16.3011 3.41203 0.314628 -16.6145 3.45297 0.288066 -16.9267 3.48144 
0.25483 -17.2374 3.49635 0.21935 -17.5491 3.5002 0.181344 -17.8619 3.49163 
0.146766 -18.177 3.47567 0.116174 -18.4947 3.45111 0.095402 -18.8149 3.42441 
0.0864495 -19.1379 3.39514 0.0931226 -19.4625 3.3695 0.119254 -19.789 3.34838 
0.165002 -20.1155 3.33607 0.236024 -20.442 3.33512 0.328044 -20.7664 3.34677 
0.448061 -21.0883 3.37521 0.587689 -21.4061 3.41827 0.754381 -21.7184 3.48151 
0.936965 -22.0246 3.55972 1.14225 -22.3222 3.65929 1.35825 -22.6118 3.77289 
1.59007 -22.8894 3.90724 1.82695 -23.157 4.05385 2.07154 -23.4094 4.21928 
2.3159 -23.6502 4.39486 2.55989 -23.8725 4.58655 2.79943 -24.082 4.78622 
3.03165 -24.2703 4.99898 3.25673 -24.4452 5.2176 3.46964 -24.5973 5.44619 
3.67454 -24.7362 5.67859 3.86529 -24.8518 5.91773 4.04915 -24.9551 6.1586 
4.22039 -25.0357 6.40268 4.38775 -25.1054 6.64631 4.54775 -25.1541 6.88911 
4.7083 -25.1934 7.12923 4.86997 -25.214 7.36407 5.03708 -25.2267 7.59416 
5.21533 -25.2231 7.81453 5.40316 -25.2132 8.02865 5.61138 -25.1898 8.22947 
5.83148 -25.1615 8.42349 6.0779 -25.1225 8.60246 6.3361 -25.0799 8.77528 
6.62143 -25.029 8.93394 6.91608 -24.9755 9.08827 7.23306 -24.9154 9.23224 
7.55519 -24.8529 9.37453 7.89019 -24.7846 9.51264 8.22545 -24.7137 9.65199 
8.5614 -24.6363 9.79458 8.89311 -24.5558 9.94096 9.2133 -24.4671 10.0976 
9.52608 -24.3748 10.2596 9.81783 -24.2721 10.4369 10.1009 -24.1654 10.6198 
10.3583 -24.0467 10.8196 10.6079 -23.9239 11.0242 10.8332 -23.7888 11.2437 
11.0532 -23.6503 11.4663 11.2559 -23.5009 11.6988 11.4568 -23.3493 11.9322 
11.6515 -23.1904 12.169 11.8479 -23.0308 12.4049 12.0503 -22.869 12.638 
12.257 -22.7083 12.8692 12.4801 -22.5517 13.0931 12.7089 -22.3977 13.3149 
12.96 -22.2542 13.528 13.2165 -22.1147 13.7394 13.4954 -21.9918 13.9438 
13.7781 -21.8738 14.1474 14.0773 -21.7773 14.3479 14.3777 -21.6862 14.5487 
14.684 -21.6202 14.7511 14.9887 -21.5598 14.9547 15.2853 -21.5268 15.1642 
15.5775 -21.4992 15.3754 15.8468 -21.5001 15.5953 16.1095 -21.5061 15.8169 
16.3355 -21.5409 16.0474 16.5536 -21.5806 16.279 16.7241 -21.6494 16.5177 
16.8864 -21.7229 16.7569 16.995 -21.8264 16.9992 17.0958 -21.9343 17.2414 
17.1422 -22.0732 17.4822 17.182 -22.2163 17.7223 17.1723 -22.3906 17.957 
17.1575 -22.5685 18.1907 17.1021 -22.7765 18.4163 17.0433 -22.9876 18.6408 
16.9548 -23.2255 18.8562 16.8643 -23.4656 19.0708 16.755 -23.7274 19.2769 
16.6448 -23.9907 19.4823 16.5242 -24.2694 19.6811 16.4033 -24.5488 19.8794 
16.2782 -24.8369 20.0735 16.1531 -25.1252 20.2675 16.0279 -25.4161 20.4605 
15.9029 -25.707 20.6536 15.7812 -25.9953 20.8492 15.66 -26.2833 21.0452 
15.5463 -26.5648 21.248 15.4331 -26.8458 21.4514 15.3323 -27.117 21.6667 
15.2322 -27.3877 21.8826 15.1506 -27.6456 22.1164 15.0697 -27.903 22.3507 
15.0139 -28.1447 22.6092 14.9587 -28.3862 22.8683 14.9357 -28.6088 23.1582 
14.913 -28.8313 23.4484 14.9295 -29.0321 23.7763 14.9461 -29.2329 24.1042 

LINES 2 240
OFFSETS vtktypeint64
0 240 
CONNECTIVITY vtktypeint64
0 1 2 3 4 5 6 7 8 
9 10 11 12 13 14 15 16 17 
18 19 20 21 22 23 24 25 26 
27 28 29 30 31 32 33 34 35 
36 37 38 39 40 41 42 43 44 
45 46 47 48 49 50 51 52 53 
54 55 56 57 58 59 60 61 62 
63 64 65 66 67 68 69 70 71 
72 73 74 75 76 77 78 79 80 
81 82 83 84 85 86 87 88 89 
90 91 92 93 94 95 96 97 98 
99 100 101 102 103 104 105 106 107 
108 109 110 111 112 113 114 115 116 
117 118 119 120 121 122 123 124 125 
126 127 128 129 130 131 132 133 134 
135 136 137 138 139 140 141 142 143 
144 145 146 147 148 149 150 151 152 
153 154 155 156 157 158 159 160 161 
162 163 164 165 166 167 168 169 170 
171 172 173 174 175 176 177 178 179 
180 181 182 183 184 185 186 187 188 
189 190 191 192 193 194 195 196 197 
198 199 200 201 202 203 204 205 206 
207 208 209 210 211 212 213 214 215 
216 217 218 219 220 221 222 223 224 
225 226 227 228 229 230 231 232 233 
234 235 236 237 238 239 
CELL_DATA 1
FIELD FieldData 3
Length 1 1 double
81.076518217 
Tortuosity 1 1 double
0.99056796452 
ClusterLabel 1 1 int
1 
POINT_DATA 240
FIELD FieldData 6
Curvature 1 240 double
0 0.14158409209 0.28316818417 0.28134781341 0.27831215058 0.24688363042 0.21496976228 0.16994134437 0.12457375707 
0.081791099586 0.039098352701 0.090220804533 0.14545795806 0.24157939893 0.33987168691 0.43375613225 0.52736508742 0.54104775268 
0.54896996462 0.48181612029 0.40851968953 0.33608153391 0.26372211913 0.2194204956 0.17797661007 0.15469167806 0.13344326421 
0.11896213386 0.10531095337 0.09446091892 0.083984370605 0.077870637554 0.072386156704 0.072786232262 0.074100413668 0.076865042277 
0.079871412086 0.078414799309 0.076162803497 0.06815121648 0.059045307134 0.049781329315 0.040485418471 0.041487977988 0.044697352581 
0.05451452444 0.065830371969 0.077500771044 0.089256114762 0.10037399569 0.11133083338 0.12390426892 0.1369076507 0.15528677745 
0.17516880064 0.20827766519 0.24526832013 0.31056193673 0.38456415692 0.50468046405 0.63965575475 0.77730001461 0.91584392699 
0.92310947815 0.88412924298 0.75578063083 0.59456089153 0.46576314093 0.34940638599 0.2749564669 0.21726928213 0.18549326552 
0.16451356897 0.1583031746 0.15849874263 0.16546543343 0.17548738695 0.18534798484 0.19513288502 0.19913406444 0.20031567999 
0.19430841177 0.18466120241 0.17282557043 0.15983961374 0.15068509758 0.14362045808 0.14328035649 0.14674492768 0.15532907767 
0.16691671388 0.18201907021 0.19925875636 0.22049326379 0.24424505586 0.27383750241 0.30724259841 0.34740197718 0.39212763163 
0.43816393682 0.48511769754 0.51788609461 0.54037524266 0.53457876171 0.50756805903 0.4611523339 0.39967599434 0.33792727651 
0.27595983069 0.2224389979 0.17593535131 0.13797831066 0.10736600949 0.083327079043 0.065131144784 0.052937298418 0.046261500599 
0.047043957748 0.054917870441 0.06803665248 0.086312889376 0.10478333216 0.12345127245 0.13603264778 0.14221263584 0.13960353692 
0.1274343785 0.11302770018 0.096103811964 0.091671278804 0.10177414062 0.12117991875 0.15178365172 0.18079750217 0.20783149892 
0.22790006299 0.23899393497 0.24221155511 0.23492750611 0.22342818741 0.2061117965 0.18895136696 0.17201373935 0.15743179349 
0.14633429356 0.13824027923 0.13474734924 0.13383314188 0.13701125525 0.1418838217 0.14954282214 0.15745372877 0.16579402097 
0.17236531387 0.17581000335 0.1764264726 0.17185787144 0.1682362227 0.16641609319 0.1711933014 0.18900025158 0.20821032461 
0.23029859835 0.24522410603 0.24488161237 0.23648863268 0.21025403529 0.18099809261 0.14477627052 0.1094399934 0.076229024228 
0.049762133712 0.040155439828 0.040293026897 0.065824800691 0.091644520712 0.11824709454 0.1426098904 0.16061460686 0.17381061568 
0.17274079181 0.16638909497 0.14364537854 0.1178301107 0.082032300751 0.052135191924 0.04234417582 0.040998522674 0.069861283189 
0.096191316035 0.11299829285 0.12695296911 0.12961728897 0.13067752137 0.12504243219 0.11973186144 0.11585212195 0.11373525829 
0.11984514851 0.12812083506 0.14711721343 0.16812569915 0.1997242236 0.23316679477 0.27695651701 0.32103068929 0.36681156183 
0.40938238672 0.43128852986 0.44745073222 0.42378827847 0.39676430638 0.3445289468 0.29239857931 0.24112430118 0.19121408744 
0.15346678135 0.11691733966 0.092128748474 0.067999830391 0.05106134917 0.03442290976 0.02145164805 0.0096294641464 0.013750734797 
0.018423835243 0.03192621243 0.04554640064 0.061385363117 0.07735065569 0.096196274458 0.11505647889 0.13433602132 0.15352804907 
0.16933617633 0.18499807405 0.19210554428 0.19832001051 0.099160005255 0 
Torsion 1 240 double
0 0 0 0.020826265519 0.041829024814 0.069731383272 0.097751683597 0.23036954004 0.36569250568 
2.7625103789 5.2379889445 3.0674806234 0.69320094764 0.41091699018 0.2397124514 0.21181000427 0.19286393787 0.21105222407 
0.23191686001 0.28300780806 0.336571818 0.38847375192 0.44022320181 0.42124995049 0.39507346108 0.29426470691 0.18508597913 
0.049148755564 -0.090070170317 -0.24836986328 -0.40921365852 -0.54215775066 -0.67107784716 -0.66448756481 -0.63684712654 -0.56797929688 
-0.49224023534 -0.46991825458 -0.45711614962 -0.54902468579 -0.66082824377 -0.96055493977 -1.2982459061 -1.1651962925 -0.93127369758 
-0.65141392317 -0.36113540702 -0.22612195456 -0.1283074236 -0.082707238643 -0.050298046361 -0.041450297437 -0.038868889831 -0.05049811573 
-0.06610020691 -0.086074083398 -0.10733098384 -0.12086839464 -0.13203057788 -0.12676815312 -0.11621335467 -0.099594758416 -0.080932185371 
-0.064159613247 -0.048052836902 -0.022555418948 0.0063960281032 0.056065036963 0.11368380791 0.18128080602 0.25286909499 0.28793403819 
0.30778092066 0.2701925128 0.20769241275 0.13175418142 0.049752403038 -0.023831982065 -0.093467466619 -0.16054061542 -0.22636462553 
-0.30315564535 -0.38549958146 -0.47801210641 -0.57586965882 -0.64635308415 -0.70190516743 -0.69878415348 -0.66246651873 -0.60888765198 
-0.54518219579 -0.49175016148 -0.4445654783 -0.4056539461 -0.37195563234 -0.3398097928 -0.30867737392 -0.27563949613 -0.24131342074 
-0.20671729085 -0.1719321228 -0.13962103045 -0.10910274657 -0.081547188005 -0.056213673424 -0.031834371729 -0.0081956531685 0.015353099338 
0.038829606378 0.060126882603 0.079613720922 0.085588775673 0.079952141421 0.020447073425 -0.086941046787 -0.24598448075 -0.45251747735 
-0.4761386964 -0.3258437991 -0.17784715097 -0.032110447855 0.070872616031 0.13037740273 0.19060957506 0.25160675641 0.3603023102 
0.52088030418 0.79719539596 1.2037147228 1.3238937638 1.1108768359 0.85713280591 0.5543654123 0.34425303501 0.24952237614 
0.1831259361 0.15323704725 0.13386207331 0.1285056526 0.12860436587 0.13623116406 0.14646966849 0.16043918185 0.17259996148 
0.18208532248 0.18496545817 0.17772695083 0.16378427305 0.13920236828 0.10956086271 0.071599124716 0.027350360162 -0.027614926942 
-0.095950733928 -0.18791815745 -0.30834447001 -0.48094541248 -0.65358170863 -0.826285263 -0.90142181403 -0.7838635335 -0.65070679119 
-0.48555320422 -0.34519719784 -0.25769919223 -0.180670003 -0.12684197437 -0.065919266082 0.01136062032 0.17268628493 0.53572181723 
0.96038699606 1.5391262912 1.7162213272 0.8466070818 0.18483394125 0.088128804426 0.0093428334757 -0.018575827908 -0.044992977427 
-0.066955641747 -0.095412781203 -0.14402518832 -0.2609563769 -0.59992360526 -0.97750936936 -1.4866842182 -1.7135790283 -0.93077985385 
-0.30485924804 -0.26880206043 -0.24621309483 -0.27693584138 -0.31503312694 -0.3839110971 -0.45176587103 -0.51510927977 -0.56228713047 
-0.53402571032 -0.49477982545 -0.40116084021 -0.30930473793 -0.22672696701 -0.14757771381 -0.087666254448 -0.030722867304 0.0084120865388 
0.045750658319 0.071525020566 0.096747773641 0.11814603645 0.13946579686 0.16019678927 0.18094016009 0.20178446259 0.22194681776 
0.23602847595 0.24873829608 0.24797916078 0.24948204638 0.27564095971 0.36556997335 1.234911324 1.9927829703 1.2040124676 
0.44812179477 0.2183084001 -0.00099317315756 -0.022322109721 -0.042696555398 -0.041308608842 -0.03975800877 -0.033531120087 -0.027343313801 
-0.022666693525 -0.017917469634 -0.008920934248 0 0 0 
FrenetTangent 3 240 double
-0.18139835653 -0.90075118143 -0.39464154038 -0.18139835653 -0.90075118143 -0.39464154038 -0.18139835653 -0.90075118143 -0.39464154038 
-0.24226937926 -0.91569738251 -0.2989861555 -0.30365625812 -0.93077024631 -0.20252013177 -0.3502216581 -0.92399512597 -0.12186501171 
-0.39653369946 -0.91684653581 -0.041480163503 -0.42688394697 -0.90223565704 0.0093838087326 -0.45682138946 -0.88743178805 0.059484310038 
-0.47371279885 -0.87703693333 0.076062473517 -0.49015043319 -0.86679543563 0.091474642636 -0.49392339556 -0.86631337652 0.071002043027 
-0.49714088986 -0.86625936296 0.048955550053 -0.48165841568 -0.87375618141 -0.012519502044 -0.46518302281 -0.88165392899 -0.076088105952 
-0.41868983661 -0.88424921305 -0.17420425209 -0.37032053833 -0.88651309315 -0.27447961961 -0.29125519671 -0.8678985928 -0.37922591666 
-0.20997752764 -0.84777934432 -0.48429444287 -0.1204096282 -0.81248149553 -0.55755975697 -0.030163437173 -0.77594176127 -0.62822299008 
0.048017053095 -0.74284357688 -0.66177695462 0.12509059834 -0.71006113101 -0.69192639911 0.1867944325 -0.68788493017 -0.69846058826 
0.24693283313 -0.66678899503 -0.70258951993 0.29516861246 -0.65339097317 -0.6953654106 0.34206951837 -0.64085626869 -0.68686806302 
0.3801910018 -0.63088344749 -0.67515619596 0.41723576361 -0.62122481952 -0.66305009537 0.44715164053 -0.61008937552 -0.65329674134 
0.47611699948 -0.59875702271 -0.64385708685 0.4984537213 -0.58382542137 -0.64030823009 0.51983438968 -0.56837469765 -0.63760900761 
0.5343011908 -0.54919312145 -0.64211690109 0.54769399312 -0.52943199535 -0.64774434657 0.5537150131 -0.50778113418 -0.659468753 
0.55850740269 -0.48581531717 -0.6722093196 0.55637020731 -0.46544696145 -0.68785604818 0.55299803639 -0.44536330179 -0.70402070663 
0.54476254553 -0.43081433389 -0.71913371662 0.53560302388 -0.41731695743 -0.7340469134 0.52460966069 -0.41210962389 -0.74479242769 
0.51324582446 -0.40857704651 -0.75469598592 0.50246566802 -0.41415650503 -0.75883350359 0.49181058582 -0.42168854269 -0.76173544113 
0.48254100922 -0.43756004954 -0.75847834801 0.473585671 -0.4553229824 -0.75382436133 0.46532359827 -0.47996228531 -0.74312426316 
0.45722762041 -0.50624905188 -0.73097561745 0.44847536696 -0.5377818079 -0.71285956267 0.43955731756 -0.57063986653 -0.69323595191 
0.42870325794 -0.60736088416 -0.66714772916 0.41733430198 -0.64510928451 -0.6393401947 0.40310543355 -0.68587415942 -0.60314323914 
0.38807701971 -0.72748234981 -0.56460085402 0.36939257843 -0.77144551705 -0.51304522469 0.34963517258 -0.8160998188 -0.45767049108 
0.32460156579 -0.8607294168 -0.38002441421 0.29794451256 -0.90535141364 -0.29552561633 0.26234970311 -0.93901948087 -0.17470281044 
0.22387494999 -0.96915794857 -0.042175601982 0.17286213232 -0.95825565212 0.12869892449 0.11762300076 -0.93351939022 0.31249951321 
0.058113616353 -0.84618204414 0.48784894348 -0.002900061671 -0.73679204341 0.6602212611 -0.052428177509 -0.60624158432 0.77563124336 
-0.097731718749 -0.46790796812 0.87008956203 -0.13140377997 -0.34987638656 0.92043303008 -0.16061259886 -0.23963512061 0.95384870662 
-0.18593000905 -0.15292944883 0.96745477298 -0.20969085576 -0.075638014721 0.97313699527 -0.23519221806 -0.013529143447 0.97003407859 
-0.26141879519 0.042253659979 0.96327068734 -0.29207847734 0.090509650752 0.95050549568 -0.32466095203 0.13550099989 0.93513711348 
-0.36155342112 0.17823396562 0.91323445581 -0.40039064379 0.21994790469 0.88838340556 -0.44020207478 0.26255543235 0.85615232418 
-0.48047054176 0.3055821744 0.82045900596 -0.51567018044 0.35055402128 0.77881830703 -0.54839876532 0.39647410675 0.73427826001 
-0.57005457313 0.44333371626 0.68874639031 -0.58610391153 0.49066903414 0.64271233192 -0.58820991879 0.5368493282 0.60223324652 
-0.58298673917 0.58242249435 0.56467408282 -0.56460046563 0.62428599356 0.53770216736 -0.53903432268 0.66412603808 0.51650511458 
-0.50328863695 0.69734235158 0.50808096613 -0.46178347306 0.7268110278 0.50688359251 -0.41381060864 0.7466435647 0.51815243056 
-0.36204335991 0.76082289985 0.53673477946 -0.30753514497 0.76247537229 0.56587259431 -0.25136012624 0.75651015794 0.60142927358 
-0.19576099763 0.73536799551 0.64461101083 -0.14052475868 0.70466227678 0.69259757912 -0.088600224453 0.6561247019 0.74430162469 
-0.038837497469 0.59594688759 0.79843235683 0.0052635940698 0.51533211593 0.85050796077 0.045537101081 0.42090080973 0.90119418226 
0.077827339729 0.30584833532 0.94072139864 0.10452929052 0.17636104317 0.97243731143 0.12149414324 0.034113404745 0.98232086966 
0.13140312778 -0.11738086142 0.97638388109 0.13262595457 -0.26383447246 0.94554248065 0.12733416305 -0.40650759215 0.89602277131 
0.11796571188 -0.52853874562 0.83242953512 0.10543328605 -0.63454926858 0.75791356166 0.093549169779 -0.71799306995 0.6839882385 
0.082185665724 -0.78331511004 0.6105372254 0.073529745109 -0.83263065894 0.54548839232 0.067123201504 -0.86864850747 0.48741983188 
0.063158973122 -0.8954241575 0.43893246275 0.061293609384 -0.9142572932 0.39867892993 0.060357389533 -0.92830828919 0.36606466476 
0.06024707536 -0.93810849433 0.34024085974 0.059033905733 -0.94579137802 0.31896362311 0.056806820608 -0.95152769199 0.30186629614 
0.051543632804 -0.95678281425 0.2857718438 0.043393658845 -0.96158040996 0.27063094439 0.031174566995 -0.96666872007 0.2530975409 
0.014954175886 -0.97204289935 0.2332115084 -0.0045281355472 -0.9774274948 0.2087228622 -0.027327654089 -0.98282268298 0.17955359191 
-0.050251841543 -0.98723864821 0.14620520335 -0.073307146301 -0.99062474103 0.10846153523 -0.092040993505 -0.99265066509 0.070024186527 
-0.10607430793 -0.99319710733 0.030832308056 -0.11221653426 -0.99332089664 -0.0045026191596 -0.10948128648 -0.99296920137 -0.035498476212 
-0.097279616052 -0.99320131512 -0.059392258686 -0.074062472006 -0.99411277024 -0.075021808925 -0.041556978381 -0.99507320086 -0.082149009922 
0.0021289360342 -0.99609258344 -0.079041901647 0.053130037643 -0.99486205562 -0.067582034772 0.11324061764 -0.99082975258 -0.045720619454 
0.17653411815 -0.98200273386 -0.017300133378 0.2439286893 -0.96699790839 0.019571463098 0.30933163568 -0.94667824691 0.059841148499 
0.37207908237 -0.9192721374 0.10464161913 0.42921701921 -0.88853176358 0.14978066158 0.47861383245 -0.85319010501 0.19538693314 
0.52160267032 -0.81703941247 0.23981039678 0.55543725763 -0.77973295714 0.28254413483 0.58377688628 -0.74302476774 0.32404379704 
0.60398855523 -0.70720151337 0.36371805542 0.61995319778 -0.6720894947 0.40278127816 0.62941175733 -0.6380670286 0.44090844628 
0.63554818991 -0.60411068226 0.47905726112 0.63641255145 -0.57025926514 0.51724042834 0.63451917806 -0.53565172545 0.5556263064 
0.6280908628 -0.49980078421 0.59434553115 0.61952165494 -0.46254467801 0.63272185635 0.6073031983 -0.42289340429 0.67051369367 
0.59422585835 -0.38166133023 0.70661010268 0.57963049209 -0.33763528345 0.73970994074 0.56653062673 -0.29253989948 0.76928220409 
0.55617251301 -0.24548406399 0.79238724714 0.55027503925 -0.19832720072 0.81027058082 0.55286366106 -0.15097813822 0.81821993079 
0.56186019385 -0.10454765545 0.81971287588 0.58351235083 -0.059931367627 0.80845442132 0.61067898167 -0.017362435833 0.79029630867 
0.64915735373 0.021006791283 0.75798505118 0.689322378 0.056292888331 0.72034210597 0.73308263457 0.085007050234 0.67133424744 
0.77446181031 0.11044173025 0.62100992248 0.8105639961 0.12860836931 0.56776802326 0.84266625219 0.14446018803 0.51743097399 
0.8655464481 0.15497505982 0.47379121765 0.88483768643 0.16467204881 0.43533490362 0.89551542658 0.17240611905 0.40931885116 
0.90333865706 0.18058051497 0.38898441474 0.90402561338 0.18985572507 0.38285401843 0.90205076072 0.20041150189 0.3820062204 
0.89313907255 0.21430451321 0.39492519363 0.88125509144 0.22984869004 0.41206963634 0.86129018888 0.24988197315 0.44070207419 
0.83819883816 0.27127600917 0.4716328132 0.80623240878 0.29653282768 0.50908776192 0.77219732919 0.32215201774 0.54619016471 
0.73202525396 0.34884624338 0.58224668121 0.69238221326 0.37470101382 0.61569177439 0.65438100385 0.39795057845 0.64103245034 
0.61974262984 0.41954111511 0.66295662406 0.59603347085 0.43573981086 0.67377716551 0.57710117541 0.44984988731 0.68158953293 
0.57444560022 0.45684318693 0.6791518259 0.57614559414 0.46143482638 0.67449929208 0.59342512372 0.45743591217 0.66192449323 
0.61331325348 0.4508895981 0.6480599616 0.64300971996 0.43476506057 0.62934603474 0.67313961414 0.41640280972 0.61050460393 
0.70498515969 0.38918294364 0.59115847004 0.73563591958 0.36045320339 0.5728737561 0.76129974802 0.32542137967 0.55901931681 
0.78500991267 0.28960578624 0.54707123993 0.80010619607 0.25033448096 0.54352848828 0.8130339736 0.21063959136 0.54223196619 
0.81584205706 0.16896797493 0.55141784877 0.8163028124 0.12684428875 0.56281327879 0.80514429361 0.08248285731 0.58514596868 
0.79123453336 0.037380580044 0.60931594053 0.76284455498 -0.011620885796 0.64315581739 0.73104942533 -0.061734522052 0.67799424165 
0.68014761353 -0.11808867009 0.71843562628 0.62535008127 -0.1756098435 0.758292918 0.54717822632 -0.24013316914 0.79464565233 
0.46587370006 -0.30501843552 0.82832628207 0.36440260227 -0.37223369539 0.84480523846 0.26244880463 -0.43837568439 0.85758954143 
0.15714828798 -0.49707632876 0.84475758068 0.054126012922 -0.5539279849 0.82940941619 -0.031809450279 -0.59691222932 0.79518972362 
-0.11463316522 -0.6383436272 0.76039219355 -0.1720841636 -0.66711335325 0.72088306543 -0.22704973852 -0.69492293421 0.68193116814 
-0.25985362094 -0.71417122146 0.64794791254 -0.2911262375 -0.73284121805 0.6148206361 -0.30736460731 -0.74583345195 0.59009751859 
-0.32279498806 -0.75842509645 0.56616127107 -0.32941828798 -0.76665031637 0.55080190633 -0.33564082359 -0.77456031258 0.53608966798 
-0.33696512883 -0.77861757436 0.52928675212 -0.3380470459 -0.78241934533 0.52301369317 -0.33576582711 -0.78267618109 0.52409239905 
-0.33323917325 -0.78272200055 0.52562625608 -0.32678555806 -0.77939155909 0.53444253156 -0.32003049989 -0.77586645849 0.54365773076 
-0.30759826543 -0.76867527751 0.56038599324 -0.29481905794 -0.76127569368 0.57744559625 -0.27412886548 -0.74912452493 0.60205976326 
-0.25309691009 -0.73674013433 0.62689980147 -0.22223927036 -0.71765061567 0.65823363703 -0.19111546835 -0.69833102244 0.68965402097 
-0.14970005808 -0.67011521274 0.72442094262 -0.10814120914 -0.6417290963 0.75915752022 -0.058191197748 -0.6033800353 0.79211897145 
-0.0086609343543 -0.56535323532 0.82480343569 -0.0086609343543 -0.56535323532 0.82480343569 -0.0086609343543 -0.56535323532 0.82480343569 

FrenetNormal 3 240 double
-0.54747963708 -0.24086146314 0.80140614083 -0.54747963708 -0.24086146314 0.80140614083 -0.54747963708 -0.24086146314 0.80140614083 
-0.53004553848 -0.13067171542 0.82969505046 -0.51246369327 -0.019548156277 0.85822369661 -0.4994269066 0.076182486956 0.85756141613 
-0.48646781323 0.17165000342 0.85640014545 -0.51065292855 0.25001355198 0.8175410655 -0.53579866995 0.32793475653 0.77770704221 
-0.6886135834 0.39079074747 0.27957755638 -0.84586916371 0.45312273098 -0.2344926412 -0.39240891034 0.18168498092 -0.60452263913 
0.087837125201 -0.10439179254 -0.96823508443 0.21720758377 -0.10572408439 -0.96360463985 0.32794748073 -0.091937200227 -0.93941616571 
0.41928949445 -0.021354743429 -0.89907934493 0.50941914047 0.052777436658 -0.85773325248 0.59198026373 0.14202975712 -0.77969041502 
0.67399590787 0.23237181742 -0.6990027671 0.74124653214 0.29255005558 -0.58650157913 0.80728910933 0.35026034465 -0.47139746516 
0.85908691389 0.35632795634 -0.3378588463 0.90957785858 0.35765770773 -0.20262898847 0.93357667693 0.32191333891 -0.067523973548 
0.95487722315 0.2823929023 0.067568325889 0.94827687096 0.25131733968 0.16633532829 0.93854744605 0.22118886574 0.26102846561 
0.923616372 0.2375793538 0.29810240917 0.90804735984 0.25967499759 0.32810984784 0.88796984115 0.34304329201 0.28736565454 
0.86729118827 0.43458127319 0.23718791032 0.79298335727 0.56174433197 0.10496022245 0.71094054866 0.6940456231 -0.039101591913 
0.55240732963 0.77133082204 -0.20005871353 0.3819921051 0.84006983189 -0.3636403489 0.2102702688 0.83624993359 -0.46731891546 
0.038330663879 0.82033688393 -0.56101363722 -0.11028574768 0.76875724509 -0.60942881883 -0.25474555051 0.71082118442 -0.64977437942 
-0.40039520368 0.60286875181 -0.66460963255 -0.54627092841 0.48541320852 -0.67459792727 -0.68808926011 0.21395693818 -0.60349417147 
-0.82908791645 -0.088610590141 -0.51600818325 -0.75181722871 -0.40960520682 -0.27384495963 -0.62777453867 -0.73454848529 0.0014633858613 
-0.49120512947 -0.8310396136 0.16717457474 -0.35179460871 -0.87571685217 0.30802867655 -0.2879856093 -0.87392559968 0.38414930301 
-0.24228947439 -0.8610012712 0.44476086767 -0.230028837 -0.84012395969 0.48907793206 -0.22621506215 -0.81723747353 0.52927849111 
-0.23393922994 -0.78815884029 0.56720101423 -0.2447319995 -0.75743335942 0.60451767671 -0.2546162408 -0.71744329801 0.64568366666 
-0.26424648496 -0.67486313881 0.68792581267 -0.26832248417 -0.61751863939 0.73535476872 -0.27076843323 -0.55584112707 0.78430594077 
-0.2707003208 -0.47017246888 0.83371951091 -0.269858651 -0.37712191966 0.88327535738 -0.27215333572 -0.24702552939 0.91916181117 
-0.27545862357 -0.10499214589 0.95064368287 -0.28032928011 0.075411838771 0.93794708758 -0.28572758902 0.26874973394 0.9103588742 
-0.28140259219 0.45340961605 0.8199701171 -0.27365233992 0.63501247084 0.70745844119 -0.26077604989 0.75753107239 0.57446759944 
-0.24601432069 0.85831753482 0.43394419093 -0.24540287151 0.91070194361 0.3111507395 -0.25022118094 0.94451347134 0.19516064369 
-0.28526040427 0.94834357421 0.09512709579 -0.33238799316 0.94018110714 0.0014761670487 -0.40157712859 0.90414349288 -0.08471685586 
-0.47995857508 0.85649123397 -0.16780241801 -0.54291307386 0.79682727853 -0.24271727808 -0.5991763664 0.7319534306 -0.31408821917 
-0.61993063134 0.68348459408 -0.37883273979 -0.62466253017 0.6424180188 -0.4405872902 -0.59715978765 0.62469234521 -0.4986121431 
-0.5545346208 0.61791672427 -0.55488726138 -0.48179887158 0.62942602158 -0.60231593807 -0.39438421347 0.64984921653 -0.6454319745 
-0.27491161224 0.68085192138 -0.66571660421 -0.13920714107 0.71721134011 -0.67444102799 0.031218034702 0.74766535543 -0.63577088641 
0.21989383725 0.77501524845 -0.57218821689 0.41275780294 0.75709834549 -0.44539716328 0.60790622125 0.71449046289 -0.28412880925 
0.74573886552 0.61163210942 -0.10094236406 0.85114284817 0.47468467376 0.094645106397 0.89027731222 0.3162292754 0.25501400138 
0.8905336587 0.14515587227 0.39472133208 0.85496359974 -0.018820483245 0.48978557099 0.79760721315 -0.17848106656 0.55770198382 
0.72558487506 -0.32356385136 0.58933234536 0.64432097851 -0.45946062615 0.5980975239 0.5592236283 -0.57952007074 0.5773454769 
0.47162388473 -0.68924125813 0.537325241 0.3868301177 -0.78173794029 0.47121830877 0.3039333489 -0.86258988654 0.38747530014 
0.22719241356 -0.92239573488 0.28107241072 0.15476056165 -0.9674693147 0.15880760476 0.090175046863 -0.98535310145 0.023061812571 
0.031275283618 -0.98353413962 -0.12245281021 -0.017401876718 -0.95443848908 -0.26387433878 -0.058412084872 -0.90488532202 -0.4022260467 
-0.087245981934 -0.84066470213 -0.52140347844 -0.1066296077 -0.76506038752 -0.6256993824 -0.11392949925 -0.69022301271 -0.70895377568 
-0.11152578604 -0.61600151381 -0.77531119827 -0.098480302112 -0.55022308165 -0.82657030609 -0.076593962496 -0.49145888953 -0.86528619855 
-0.049261762967 -0.4418731139 -0.89431360049 -0.017249527575 -0.40017503992 -0.91501495589 -0.0031601140323 -0.36690965511 -0.92993006591 