# vtk DataFile Version 5.1
vtk output
ASCII
DATASET POLYDATA
POINTS 240 float
0 0 0 -0.144018 -0.226348 -0.132124 -0.288036 -0.452696 -0.264248 
-0.461947 -0.666714 -0.371994 -0.636111 -0.880627 -0.479533 -0.833586 -1.08218 -0.56449 
-1.03146 -1.28352 -0.64906 -1.24614 -1.47248 -0.712951 -1.46125 -1.66111 -0.776308 
-1.68675 -1.83729 -0.821255 -1.91262 -2.01303 -0.865563 -2.1426 -2.17618 -0.894512 
-2.37275 -2.33878 -0.922787 -2.60104 -2.48847 -0.939938 -2.82923 -2.63747 -0.956499 
-3.05017 -2.77308 -0.967588 -3.27065 -2.90785 -0.978336 -3.47941 -3.02874 -0.990511 
-3.68733 -3.14863 -1.00279 -3.88023 -3.25453 -1.02399 -4.07191 -3.35929 -1.04591 
-4.24669 -3.45081 -1.08388 -4.41992 -3.54111 -1.12331 -4.57591 -3.62031 -1.1846 
-4.73015 -3.69839 -1.24811 -4.8684 -3.76904 -1.33737 -5.00484 -3.83885 -1.42952 
-5.12779 -3.90599 -1.5492 -5.24909 -3.97279 -1.67225 -5.36008 -4.04175 -1.82254 
-5.46969 -4.11099 -1.97646 -5.57205 -4.18621 -2.15561 -5.67336 -4.2623 -2.3384 
-5.7696 -4.3465 -2.54299 -5.86504 -4.43197 -2.75096 -5.95609 -4.52597 -2.97609 
-6.04641 -4.62139 -3.20408 -6.13134 -4.7247 -3.44365 -6.2153 -4.82942 -3.68529 
-6.2913 -4.94126 -3.9324 -6.36578 -5.05446 -4.18054 -6.42855 -5.17455 -4.42807 
-6.48895 -5.29603 -4.67548 -6.53323 -5.42493 -4.91688 -6.57405 -5.55541 -5.157 
-6.59437 -5.69428 -5.38718 -6.61005 -5.83505 -5.6151 -6.6016 -5.98514 -5.83109 
-6.58737 -6.13745 -6.04421 -6.54669 -6.29937 -6.24546 -6.49933 -6.46373 -6.44373 
-6.42489 -6.63709 -6.63185 -6.34324 -6.81285 -6.81729 -6.23566 -6.99613 -6.99514 
-6.12082 -7.1815 -7.17087 -5.98288 -7.37226 -7.34128 -5.83816 -7.56461 -7.51014 
-5.67463 -7.75991 -7.6746 -5.5053 -7.95613 -7.83771 -5.3226 -8.1529 -7.99522 
-5.13557 -8.34985 -8.15093 -4.94142 -8.5451 -8.29742 -4.74486 -8.73977 -8.44081 
-4.54779 -8.93065 -8.5692 -4.35055 -9.12019 -8.69231 -4.15922 -9.30397 -8.79316 
-3.97007 -9.48563 -8.88582 -3.79245 -9.65964 -8.94861 -3.61925 -9.83072 -8.99994 
-3.46171 -9.99233 -9.01478 -3.31044 -10.1502 -9.01504 -3.17701 -10.2969 -8.97458 
-3.05101 -10.439 -8.91717 -2.94295 -10.5687 -8.81802 -2.84266 -10.693 -8.70077 
-2.75864 -10.8039 -8.54415 -2.68195 -10.9088 -8.36977 -2.61865 -11.0001 -8.16143 
-2.56162 -11.0851 -7.93715 -2.51476 -11.1571 -7.68636 -2.47284 -11.2228 -7.42263 
-2.43831 -11.277 -7.14071 -2.40752 -11.3255 -6.84958 -2.38243 -11.3651 -6.54836 
-2.36033 -11.4 -6.24184 -2.34357 -11.4297 -5.93237 -2.32971 -11.4565 -5.6213 
-2.32208 -11.4821 -5.313 -2.31798 -11.5069 -5.00627 -2.32181 -11.5347 -4.7064 
-2.33032 -11.5642 -4.41057 -2.3486 -11.6001 -4.12414 -2.37283 -11.6401 -3.84343 
-2.40797 -11.6891 -3.57324 -2.44999 -11.7439 -3.30968 -2.50267 -11.8092 -3.05654 
-2.56232 -11.8813 -2.81021 -2.6307 -11.964 -2.57323 -2.705 -12.0537 -2.34258 
-2.78465 -12.1526 -2.11947 -2.86803 -12.2578 -1.90165 -2.95254 -12.3698 -1.68913 
-3.03787 -12.4868 -1.48047 -3.12019 -12.6077 -1.27481 -3.20025 -12.7316 -1.07142 
-3.27405 -12.8568 -0.869139 -3.34298 -12.9832 -0.667725 -3.40378 -13.1092 -0.466362 
-3.45804 -13.2351 -0.26504 -3.50371 -13.3605 -0.0638714 -3.54223 -13.4856 0.137169 
-3.5728 -13.6119 0.33674 -3.59652 -13.7393 0.535049 -3.61355 -13.8707 0.729706 
-3.62463 -14.0057 0.921116 -3.63046 -14.1482 1.10647 -3.63148 -14.2976 1.28626 
-3.62856 -14.4576 1.45815 -3.62191 -14.6276 1.62251 -3.61231 -14.8097 1.77825 
-3.59983 -15.0038 1.92551 -3.58494 -15.21 2.06481 -3.56761 -15.4286 2.19601 
-3.54797 -15.6577 2.32111 -3.52589 -15.8979 2.43979 -3.50114 -16.1458 2.55495 
-3.47349 -16.4023 2.66627 -3.4425 -16.6634 2.77674 -3.40774 -16.9297 2.88625 
-3.36874 -17.1976 2.99712 -3.32481 -17.4673 3.10955 -3.27566 -17.7361 3.22467 
-3.22024 -18.0037 3.34304 -3.15865 -18.2685 3.46451 -3.0894 -18.5298 3.58984 
-3.01316 -18.787 3.71782 -2.92792 -19.0389 3.84924 -2.83503 -19.2858 3.98236 
-2.73195 -19.526 4.11776 -2.62079 -19.7604 4.25375 -2.49846 -19.9868 4.39053 
-2.36783 -20.2066 4.52691 -2.22535 -20.4169 4.66271 -2.07459 -20.6196 4.79743 
-1.9116 -20.811 4.93054 -1.74064 -20.9939 5.06228 -1.55745 -21.1637 5.19189 
-1.36685 -21.3241 5.32017 -1.16448 -21.4698 5.44632 -0.955534 -21.6057 5.57141 
-0.735777 -21.7256 5.69475 -0.510508 -21.8359 5.81743 -0.275844 -21.9299 5.93898 
-0.0368775 -22.015 6.0603 0.209694 -22.0843 6.18123 0.459336 -22.1461 6.30232 
0.714606 -22.1937 6.42374 0.971799 -22.2353 6.54567 1.23265 -22.2652 6.6686 
1.49443 -22.2907 6.79234 1.75807 -22.3076 6.91769 2.02185 -22.3217 7.04411 
2.28593 -22.3304 7.17273 2.54957 -22.3377 7.30266 2.81226 -22.3424 7.43539 
3.07408 -22.3468 7.56963 3.33398 -22.3506 7.70724 3.59273 -22.3546 7.84652 
3.84883 -22.3591 7.98966 4.10363 -22.3637 8.13451 4.35528 -22.3685 8.28347 
4.60557 -22.3729 8.43402 4.85245 -22.376 8.58852 5.09802 -22.3778 8.74426 
5.34018 -22.3759 8.90324 5.5812 -22.3716 9.06289 5.81911 -22.3608 9.22439 
6.05615 -22.3466 9.38584 6.29072 -22.3231 9.54715 6.52477 -22.2959 9.70762 
6.75726 -22.2576 9.86561 6.9896 -22.2157 10.0221 7.22149 -22.1624 10.1739 
7.45358 -22.1063 10.3237 7.68634 -22.0407 10.4671 7.91958 -21.9736 10.6083 
8.15444 -21.9009 10.7426 8.38994 -21.8282 10.875 8.62773 -21.7552 11.0008 
8.86619 -21.6837 11.1253 9.10717 -21.6178 11.245 9.34873 -21.5546 11.3641 
9.5926 -21.5022 11.4811 9.83686 -21.4532 11.5983 10.0828 -21.4185 11.7166 
10.3288 -21.3874 11.8358 10.5755 -21.3722 11.9593 10.822 -21.3604 12.0842 
11.068 -21.3641 12.2162 11.3135 -21.3707 12.3498 11.557 -21.3916 12.4919 
11.7998 -21.4148 12.6358 12.0391 -21.4509 12.7885 12.2775 -21.4891 12.9425 
12.5108 -21.5396 13.1045 12.7431 -21.5922 13.2673 12.9684 -21.6579 13.4359 
13.1923 -21.7258 13.6049 13.4071 -21.8089 13.777 13.6202 -21.8944 13.949 
13.8213 -21.9978 14.1213 14.0203 -22.104 14.2932 14.204 -22.2307 14.463 
14.3854 -22.3603 14.6324 14.5474 -22.5126 14.7981 14.7069 -22.6675 14.9632 
14.8433 -22.8463 15.1238 14.9771 -23.0275 15.2838 15.0845 -23.2324 15.4389 
15.1893 -23.4392 15.5935 15.266 -23.6679 15.7434 15.3404 -23.8981 15.8929 
15.3868 -24.1467 16.0379 15.4313 -24.3961 16.1826 15.4503 -24.6585 16.3237 
15.468 -24.9211 16.4647 15.4653 -25.1891 16.6031 15.4618 -25.4569 16.7415 
15.4456 -25.7203 16.8793 15.4293 -25.9829 17.0171 15.4101 -26.2292 17.1568 
15.3911 -26.4745 17.2966 15.3811 -26.6897 17.4415 15.3716 -26.9038 17.5866 
15.384 -27.0726 17.7404 15.397 -27.2404 17.8943 15.4456 -27.3468 18.0608 
15.4947 -27.4526 18.2274 15.5935 -27.4804 18.4107 15.6924 -27.5083 18.594 

LINES 2 240
OFFSETS vtktypeint64
0 240 
CONNECTIVITY vtktypeint64
0 1 2 3 4 5 6 7 8 
9 10 11 12 13 14 15 16 17 
18 19 20 21 22 23 24 25 26 
27 28 29 30 31 32 33 34 35 
36 37 38 39 40 41 42 43 44 
45 46 47 48 49 50 51 52 53 
54 55 56 57 58 59 60 61 62 
63 64 65 66 67 68 69 70 71 
72 73 74 75 76 77 78 79 80 
81 82 83 84 85 86 87 88 89 
90 91 92 93 94 95 96 97 98 
99 100 101 102 103 104 105 106 107 
108 109 110 111 112 113 114 115 116 
117 118 119 120 121 122 123 124 125 
126 127 128 129 130 131 132 133 134 
135 136 137 138 139 140 141 142 143 
144 145 146 147 148 149 150 151 152 
153 154 155 156 157 158 159 160 161 
162 163 164 165 166 167 168 169 170 
171 172 173 174 175 176 177 178 179 
180 181 182 183 184 185 186 187 188 
189 190 191 192 193 194 195 196 197 
198 199 200 201 202 203 204 205 206 
207 208 209 210 211 212 213 214 215 
216 217 218 219 220 221 222 223 224 
225 226 227 228 229 230 231 232 233 
234 235 236 237 238 239 
CELL_DATA 1
FIELD FieldData 3
Length 1 1 double
64.641929833 
Tortuosity 1 1 double
0.76018153885 
ClusterLabel 1 1 int
2 
POINT_DATA 240
FIELD FieldData 6
Curvature 1 240 double
0 0.11457898216 0.22915796431 0.21630890626 0.20237994957 0.1883732219 0.17436516482 0.16131633938 0.14829232166 
0.13575460547 0.12323380412 0.10999725032 0.096729303862 0.081977934867 0.067147800073 0.06074523043 0.054869383608 0.083516781164 
0.11465234048 0.1739318821 0.23551411318 0.31342799115 0.39284018535 0.45569041435 0.51685377652 0.51926964882 0.51509701758 
0.45882743743 0.39616860883 0.32756657098 0.25817210523 0.20751595528 0.15956244704 0.13062170638 0.10463440535 0.092046464923 
0.081691751264 0.080780331969 0.081551876027 0.090220932633 0.10039051662 0.11805238004 0.13722783527 0.1621706173 0.18834925508 
0.21509040653 0.2419591384 0.25982757031 0.27553968036 0.27501737823 0.27039375091 0.25211029085 0.23019389654 0.20411273304 
0.17686722548 0.15286132037 0.12980616816 0.11251450019 0.096996211984 0.088267055221 0.081725507479 0.084806386996 0.09113078132 
0.11149439027 0.13680363164 0.18284040357 0.2365010948 0.32212754896 0.42001993541 0.54576522688 0.68265168035 0.77838994115 
0.85698312169 0.82835457274 0.75322021341 0.63790626563 0.50446250355 0.39707882103 0.30192085485 0.23411554373 0.17964465196 
0.140950828 0.11024539281 0.087375799441 0.068625046005 0.058275245455 0.052507782842 0.058345101449 0.070748283114 0.089575195382 
0.11217069627 0.13550475677 0.15928794136 0.17813735107 0.19387780675 0.20006654384 0.2000201313 0.18972520359 0.17250170226 
0.15041138388 0.12491429358 0.1032952125 0.084486283046 0.07965971675 0.085319922825 0.095902780803 0.11030620444 0.12061291865 
0.12762985105 0.13076651537 0.13067957234 0.1344866632 0.14164018943 0.15736639245 0.18071275261 0.20454572093 0.22882605481 
0.24383207061 0.25001988234 0.2444904574 0.22743908309 0.20362696267 0.17293950724 0.14188747133 0.11045199735 0.08366368837 
0.061930190459 0.05035335788 0.0502027738 0.055406142438 0.066839565149 0.077772235972 0.088102149894 0.097384317213 0.10536174348 
0.11273510703 0.11933015902 0.12605764291 0.13296170267 0.14014738163 0.14772169507 0.15561706812 0.16397109776 0.17219093811 
0.18021229012 0.18730465391 0.1929738868 0.19713831151 0.19891467108 0.19826914605 0.19364096634 0.18710719548 0.17732525787 
0.16582742992 0.15129686554 0.13637095398 0.12072023928 0.10494422193 0.088929823921 0.073662000088 0.059868660249 0.047832572192 
0.039401103174 0.033514493784 0.033052453599 0.033653952259 0.036612482955 0.039213412348 0.040989872074 0.042397785835 0.04292118928 
0.043921753621 0.046115220204 0.049379191397 0.055432962487 0.062346563716 0.071597828136 0.080377779331 0.087819809114 0.094260953637 
0.097732805217 0.09950860351 0.096020788154 0.091125705678 0.081657005064 0.072298851167 0.063317374968 0.056987972716 0.060144834967 
0.065633384889 0.079889080457 0.093940006983 0.10718038938 0.11924264445 0.12638749849 0.13226479109 0.1325532901 0.13208827297 
0.12810684725 0.12396172865 0.11900633029 0.11435281496 0.1112881576 0.10877578905 0.10936237432 0.11083695439 0.11763950327 
0.12520228069 0.13765902937 0.15061703027 0.16705037979 0.18354280964 0.20047834186 0.21706931777 0.23085083458 0.24385358768 
0.24991236442 0.25496962268 0.25019379029 0.24457712271 0.22979535161 0.21450300292 0.19297026147 0.17124096864 0.14678452527 
0.12236880209 0.098604601914 0.07569543396 0.068889372824 0.064207930746 0.1079678032 0.15368892282 0.25579589861 0.36033194527 
0.55879206515 0.75732827505 0.96031575069 1.1567372089 0.57836860443 0 
Torsion 1 240 double
0 0 0 -0.022250760059 -0.044690085881 -0.048307184103 -0.051602534845 -0.046804377238 -0.041796904761 
-0.014481869257 0.013609081481 0.10624656491 0.20171503662 0.56169810018 0.93572618632 1.6694320593 2.4256177939 1.7415864619 
0.95375570171 0.65708349806 0.40059699449 0.32384273701 0.26357767642 0.24908531064 0.23925497859 0.25004381687 0.26314508547 
0.2905832399 0.31977969165 0.35072596496 0.3819055478 0.39765923701 0.41118803772 0.40097564076 0.38707529076 0.35631790789 
0.32275101954 0.27808270313 0.23143591439 0.18420516212 0.13686345679 0.0973850898 0.059495276017 0.030423175708 0.0032405854305 
-0.01837281722 -0.038723105151 -0.056180855442 -0.072945601924 -0.088437168346 -0.10360708928 -0.11632954583 -0.128401081 -0.12967412139 
-0.12792822774 -0.097339579908 -0.05828621074 0.031815521951 0.13762444342 0.27727076109 0.42782023977 0.4822212417 0.50421264473 
0.42896177859 0.31945511308 0.22515114868 0.13643898238 0.077164462999 0.02918578488 -0.0016383995236 -0.025600786442 -0.042279602841 
-0.055923598191 -0.070767594453 -0.086132073037 -0.10409565251 -0.12323199701 -0.13506559132 -0.14347320405 -0.12787424055 -0.10057207113 
-0.026861292896 0.070347515117 0.28327801218 0.55703657656 0.83999830185 1.1279799331 1.0277992688 0.70800046361 0.47791685971 
0.3004661739 0.20260291676 0.15313742029 0.13319759099 0.1318629766 0.14793777451 0.17537704989 0.23379097693 0.31314551354 
0.47858484259 0.70428352633 1.0587422068 1.5065052327 1.5065722442 1.1708672449 0.80426243678 0.41367568746 0.1026071378 
-0.14460588788 -0.39946242898 -0.6606689675 -0.82878350245 -0.91689709683 -0.8586584644 -0.6703289637 -0.50252264563 -0.35358441482 
-0.24086921595 -0.16259558843 -0.096914671818 -0.043616587594 0.017607671876 0.086892448546 0.2068695929 0.38016112394 0.71332635199 
1.2203892856 1.3946401502 1.1944774373 0.89427786559 0.47767176733 0.18893820037 0.054125272963 -0.044246051191 -0.09723726563 
-0.13324480292 -0.14736952541 -0.14938876903 -0.13526737415 -0.11428233865 -0.083825479095 -0.052245181009 -0.019059970733 0.010834974842 
0.035863070548 0.05739473851 0.073570176736 0.086299759321 0.093560918823 0.099631583712 0.10374454635 0.10792402712 0.11221689108 
0.11829342031 0.12752247424 0.14119117068 0.16299921175 0.19685129899 0.25361644969 0.34183131067 0.49215934947 0.67163111058 
0.91088486618 1.020502113 0.85378890697 0.64585763212 0.34657820482 0.075053219152 -0.13248235943 -0.33126801376 -0.50905384987 
-0.6578366357 -0.7341117958 -0.77044752375 -0.70269867098 -0.6267764152 -0.52863272002 -0.44335636382 -0.39460664735 -0.35671655983 
-0.35104337153 -0.35745944658 -0.40139392517 -0.4709653179 -0.62385668161 -0.8201449699 -1.1643042605 -1.4131616822 -1.32113165 
-1.183708708 -0.87560842504 -0.60662982923 -0.49250791181 -0.39274074374 -0.35288905117 -0.3165326237 -0.29558713783 -0.27319879557 
-0.24407712352 -0.21008790572 -0.15200433647 -0.089951292982 -0.0070062798861 0.07295543961 0.13617756724 0.1909632309 0.19513011074 
0.19332733104 0.15309486817 0.11214403839 0.066212531376 0.022391782992 -0.0055982756424 -0.032094567552 -0.046410915394 -0.060044788418 
-0.06759326098 -0.074602228847 -0.076314241521 -0.07848736489 -0.085686594836 -0.094238893269 -0.11932869543 -0.14809923332 -0.22793997933 
-0.32491565102 -0.69605013348 -1.0799413458 -1.7040843039 -2.2681489776 -1.4624287686 -0.67640037013 -0.45651152502 -0.2404074874 
-0.17064933991 -0.10120950957 -0.050391232614 0 0 0 
FrenetTangent 3 240 double
-0.53590905728 -0.74152480938 -0.40366129292 -0.53590905728 -0.74152480938 -0.40366129292 -0.53590905728 -0.74152480938 -0.40366129292 
-0.58280038997 -0.72308297503 -0.36520514239 -0.63008910683 -0.70448485395 -0.32642309229 -0.66648333572 -0.68470162073 -0.2896683264 
-0.70269133404 -0.66489812919 -0.25294821495 -0.72980310249 -0.64575440961 -0.21947428244 -0.75667962362 -0.6266277531 -0.18608430284 
-0.77636311343 -0.60917163257 -0.15697270703 -0.79579641084 -0.59177361765 -0.12800992456 -0.80981865245 -0.57641875603 -0.10477553394 
-0.82360356704 -0.5611535064 -0.081792388578 -0.83362829642 -0.54782806193 -0.066798187102 -0.84345336995 -0.53460561597 -0.052228177337 
-0.85089172174 -0.52287025799 -0.048925144218 -0.85818090342 -0.511227843 -0.04632629714 -0.86359547301 -0.50034493217 -0.0592755232 
-0.86887493541 -0.48951676038 -0.073345331107 -0.87069897474 -0.47839736698 -0.10767774502 -0.87224029764 -0.46725414635 -0.14366800852 
-0.86512418127 -0.45448921919 -0.20259184082 -0.8572138044 -0.44157551162 -0.26361967026 -0.83293099072 -0.42630327085 -0.34222824106 
-0.80698061402 -0.41079080911 -0.42262744292 -0.76256978354 -0.39474824316 -0.50367153721 -0.71608862179 -0.37864622627 -0.5847879559 
-0.66138462536 -0.36629166273 -0.64908684496 -0.60567216807 -0.35439669253 -0.71132320681 -0.55494356197 -0.34882839654 -0.75257850505 
-0.50487946935 -0.34410365711 -0.79103632813 -0.46519956955 -0.34476589925 -0.81415300515 -0.42701738986 -0.34620510989 -0.83505701688 
-0.39789607779 -0.35079915436 -0.84718284053 -0.37018227913 -0.35588327009 -0.85794506216 -0.34781711516 -0.36275939791 -0.86422958582 
-0.32634339029 -0.3699341944 -0.86976782648 -0.30634066414 -0.37897027244 -0.87296015253 -0.28660009617 -0.38833806402 -0.87573439479 
-0.26480024865 -0.40062053709 -0.87677728718 -0.24260913802 -0.41345679964 -0.87749122309 -0.21506383374 -0.43048492091 -0.8759632602 
-0.18643687419 -0.44835988232 -0.87398238847 -0.14960246041 -0.47086919205 -0.86825535653 -0.11100930643 -0.49437157641 -0.86172557598 
-0.062824905851 -0.52093673842 -0.84929617831 -0.012465170989 -0.54819655102 -0.83552872315 0.045686707591 -0.57445726932 -0.81440486947 
0.10570545394 -0.60047862127 -0.79151854532 0.16796765128 -0.62065397564 -0.76257955945 0.23079661519 -0.6393524464 -0.7321114801 
0.28924798429 -0.64982968583 -0.69985790277 0.34653509946 -0.65812042756 -0.66712945897 0.39547891292 -0.65946847602 -0.63701357807 
0.44209019042 -0.65887555646 -0.60762809109 0.47995162651 -0.65452063671 -0.58266297395 0.51524517436 -0.64906165167 -0.55899513925 
0.54338520658 -0.64296171551 -0.53880171687 0.56932415706 -0.63666456361 -0.51967734442 0.59018307269 -0.63211746675 -0.50143926198 
0.60940508822 -0.62813427652 -0.48348676187 0.6253951618 -0.62763640687 -0.46293730819 0.64029581675 -0.62831336438 -0.44151247689 
0.65329423521 -0.63369860095 -0.41296286953 0.66562254764 -0.64074243583 -0.38190339787 0.6762964176 -0.65291602955 -0.33725857751 
0.68636175699 -0.66697643113 -0.28761684729 0.69232203508 -0.68405016863 -0.21523626526 0.69670711522 -0.7022801862 -0.13413030986 
0.68881881983 -0.714509607 -0.022206028187 0.67602117422 -0.72433878909 0.102045584 0.63951843624 -0.7112539407 0.24698855489 
0.59313857645 -0.68862157962 0.40055292523 0.52754560572 -0.63867053077 0.53821246944 0.45361923748 -0.57687041253 0.66897353484 
0.38231739049 -0.5075389531 0.76261636551 0.31219977871 -0.43480920557 0.83951072439 0.25604683312 -0.37023718584 0.88914520387 
0.20644521242 -0.3094922483 0.92599109795 0.16913874243 -0.25952922456 0.94926879052 0.13782615842 -0.21482238381 0.96593198487 
0.11408109137 -0.1792695951 0.97651951647 0.094167678485 -0.14835176946 0.98403076313 0.077687334393 -0.12517170866 0.98882341341 
0.063011552101 -0.1060589345 0.9921870579 0.048529926304 -0.094157020231 0.99425333711 0.03415420405 -0.086188302257 0.99561196254 
0.017440934809 -0.08537805953 0.99604851676 -0.00059489391092 -0.088618006746 0.9959633728 -0.022644088054 -0.099063080345 0.99446709524 
-0.047047789912 -0.11373516142 0.99214295262 -0.075716645797 -0.13505907233 0.98721418965 -0.10697917643 -0.1604280149 0.98070153592 
-0.1407159925 -0.19068369309 0.97040410232 -0.17601194734 -0.22401868414 0.95772173892 -0.2101471229 -0.25929157339 0.94139769413 
-0.24352456755 -0.29582947952 0.92269644066 -0.27181203369 -0.3310262466 0.90258271359 -0.29665838762 -0.36531632813 0.8815140748 
-0.31396492602 -0.39599657605 0.86230017273 -0.32599359354 -0.42414994044 0.84438458636 -0.33000032531 -0.44776165103 0.83076660705 
-0.32819406017 -0.46808230814 0.82026283576 -0.3192717023 -0.48389801006 0.81462326722 -0.30501227489 -0.49633499558 0.81263185074 
-0.28537851812 -0.50511932321 0.81419190323 -0.26157364006 -0.51106875217 0.81850831969 -0.23469258854 -0.51527782655 0.82381858802 
-0.20534127651 -0.51808934347 0.82992694952 -0.17532542928 -0.52219192705 0.83414824416 -0.14475750665 -0.5273670891 0.83680182172 
-0.11543395486 -0.53701808877 0.83515781717 -0.087179784262 -0.55051551139 0.829820578 -0.061220092649 -0.57035917522 0.81839097507 
-0.037299937914 -0.59584394234 0.8015459377 -0.016022205318 -0.62677270484 0.77776509123 0.0028262036991 -0.66270643083 0.74760777512 
0.019130382614 -0.70035204148 0.71168543297 0.033015457498 -0.73962534575 0.67028159065 0.044890914805 -0.77625756759 0.62680542324 
0.054790248162 -0.81029272505 0.5812914695 0.063595633434 -0.83935676417 0.53826503783 0.071288529128 -0.8633654287 0.49776828961 
0.07893423152 -0.88247007135 0.4628179801 0.086530299577 -0.89641703581 0.43370099403 0.094975948662 -0.90654037586 0.41096337122 
0.10434570343 -0.91250468583 0.39516470493 0.11518569271 -0.91563721639 0.38498968565 0.12767969581 -0.91558399509 0.38114126925 
0.14201576204 -0.91332099121 0.38137611571 0.15849531991 -0.90848660395 0.3863623953 0.17695355134 -0.90183638439 0.39363219871 
0.19779351947 -0.89300044078 0.4036506882 0.22057844018 -0.88266155817 0.41426771798 0.24578537732 -0.87045109115 0.42563009982 
0.27278537134 -0.85697312095 0.43631677784 0.3020956502 -0.84186202166 0.44613283748 0.33297689853 -0.82553509794 0.45457049778 
0.36595277282 -0.80758707501 0.46117029229 0.40021510381 -0.78821586845 0.46622684869 0.43625274504 -0.7668806685 0.4691537365 
0.47318341936 -0.74370465269 0.47074757505 0.51138985524 -0.71789889993 0.47043705749 0.54993065188 -0.68979033451 0.46918175296 
0.5889660238 -0.65827552537 0.46652895101 0.62751663966 -0.62428440171 0.46331478827 0.66532465047 -0.58649977498 0.45924066855 
0.70169656641 -0.54655832418 0.45494479086 0.73578946223 -0.50319408736 0.45029699291 0.76758573257 -0.45863118311 0.44568812865 
0.79560532991 -0.41209713683 0.44114328867 0.82088284591 -0.36570587333 0.43686866707 0.84148635961 -0.31955798955 0.43305464497 
0.85943707896 -0.27487114149 0.42970946983 0.87269913855 -0.23276658914 0.42719295442 0.8837972593 -0.1930628094 0.42528922619 
0.89092815883 -0.15776044609 0.42450894114 0.89651556626 -0.12530327926 0.42442283292 0.8991665741 -0.09825892521 0.42565735382 
0.90080932426 -0.074143615641 0.42760959243 0.90046076548 -0.055813168918 0.43097932354 0.89946865578 -0.040090305291 0.4350516499 
0.89715644159 -0.029716330063 0.44056519728 0.89439363089 -0.021346180669 0.44671843402 0.89067033815 -0.017247344238 0.45423521915 
0.88658923649 -0.014370502571 0.46227251453 0.88171515287 -0.014201865517 0.47146337318 0.8765650799 -0.014358081163 0.48099367731 
0.87077869812 -0.015263262756 0.49130659187 0.864851357 -0.015579495763 0.50170924214 0.85858571345 -0.014482252162 0.51232725813 
0.85237098763 -0.012056884599 0.52272008189 0.8462835561 -0.0063112071286 0.53254992503 0.84045153782 0.001181987854 0.54178318966 
0.83528514193 0.013229319383 0.54946173453 0.83053063249 0.027104216563 0.55615147826 0.82689593939 0.045947807855 0.56015291889 
0.82374594266 0.066202010039 0.56284104026 0.82197185825 0.090460527016 0.56180102958 0.82067895915 0.11528849106 0.55934209062 
0.82081357651 0.14180581472 0.55267366447 0.82142493076 0.16781144942 0.54477812402 0.82351581333 0.19222908388 0.53307429785 
0.82608631665 0.21504902557 0.52068151977 0.8302155874 0.23267646575 0.50604964803 0.83481432696 0.2479279161 0.49142056297 
0.84101273805 0.25508340107 0.47680097332 0.84756865225 0.25950905897 0.46281029108 0.85540332757 0.25417033543 0.45106916226 
0.86328600995 0.24622051019 0.44040010185 0.8713491989 0.22845294257 0.43376201862 0.8790192903 0.20864659879 0.4283629459 
0.8851333706 0.18077009932 0.42786828975 0.8904485782 0.15175688868 0.42855448522 0.89242936062 0.11799914444 0.43416945267 
0.89344955406 0.084051742411 0.44071922743 0.89023442336 0.049268121959 0.45139065257 0.88618798079 0.014965350964 0.46263558103 
0.87826208279 -0.017093455894 0.4765568583 0.86978439274 -0.048471987306 0.49068620513 0.85857533205 -0.076483155262 0.50584549622 
0.8470737924 -0.10404559732 0.52090360403 0.83403288979 -0.12924632413 0.53542916823 0.82084056919 -0.15444279526 0.54962878547 
0.80679862541 -0.17961538731 0.56199947806 0.79257911787 -0.20523740667 0.57393111585 0.77729422782 -0.23355598999 0.58322842481 
0.76165903613 -0.26264005946 0.59204339839 0.74376877757 -0.29665194609 0.59775333795 0.72525830021 -0.33150636978 0.60298147576 
0.70244763914 -0.37220238382 0.60486912136 0.67873101704 -0.41356191419 0.60630457023 0.64821968725 -0.45989781695 0.60434854364 
0.61665217407 -0.50651359029 0.60195151451 0.57647270402 -0.5554113852 0.59595861844 0.53533688109 -0.60409184112 0.58955338771 
0.4856735784 -0.65083435775 0.57947150617 0.43542454603 -0.69690966299 0.56908581052 0.37942471314 -0.73643416552 0.55571721264 
0.32336765976 -0.77507721719 0.54221452304 0.26668690302 -0.80411245445 0.5272502337 0.21039937583 -0.83231392226 0.51236972699 
0.15891798769 -0.85032487439 0.49851323017 0.10809163464 -0.86770041427 0.48493609179 0.066353893442 -0.87625960923 0.47523505171 
0.025352429236 -0.88438982484 0.4659538948 -0.0038686030396 -0.88565637102 0.46339086859 -0.032353173808 -0.88660361353 0.46136453881 
-0.046967719522 -0.88153730366 0.46944599169 -0.060820620892 -0.87612510319 0.4781684116 -0.057308031214 -0.8628265968 0.50150487958 
-0.052930092483 -0.84896168766 0.52555939794 -0.023673368481 -0.81881269948 0.57025786479 0.0065802210161 -0.78761305532 0.61554542622 
0.075379276282 -0.7157880471 0.68361131092 0.14489030073 -0.64256205249 0.75152197274 0.25605152247 -0.48737835469 0.81035209596 
0.36627861629 -0.33349872158 0.8686878484 0.36627861629 -0.33349872158 0.8686878484 0.36627861629 -0.33349872158 0.8686878484 

FrenetNormal 3 240 double
-0.77948709637 0.25088851883 0.57398154823 -0.77948709637 0.25088851883 0.57398154823 -0.77948709637 0.25088851883 0.57398154823 
-0.73842768496 0.28929201771 0.60561341494 -0.69702031244 0.32802096996 0.63751334832 -0.65483834583 0.35654615589 0.66389764078 
-0.6126431383 0.38489691846 0.69018764878 -0.57257265399 0.40550528136 0.710823498 -0.53255711941 0.42591340978 0.73131311897 
-0.49912884216 0.44476008095 0.74261159562 -0.4659296869 0.46355244056 0.7535903803 -0.44865791678 0.49527964976 0.74292838663 
-0.43208471618 0.52757417692 0.73131723601 -0.45106006059 0.60812922496 0.64051968491 -0.47192293837 0.69124677853 0.54551754616 
-0.46924831571 0.75114568859 0.12314611775 -0.46510259928 0.80959343342 -0.31968589127 -0.31786652899 0.62219867179 -0.6068773505 
-0.1603176404 0.41708553131 -0.88285147281 -0.063305435733 0.32588534764 -0.93459260837 0.02875376752 0.24400531498 -0.96798740865 
0.11316258177 0.21529684007 -0.96604089326 0.19686952548 0.19146648973 -0.96085205534 0.28982280126 0.18366484158 -0.93412422708 
0.38371783308 0.17749574643 -0.90520261277 0.4773770881 0.16938530848 -0.85551612568 0.57100990086 0.16105714985 -0.80350086783 
0.64973734953 0.13856721275 -0.74028038726 0.72663678185 0.11434045376 -0.67568568126 0.78303683741 0.071105333204 -0.61041805298 
0.83670364274 0.025335764438 -0.54506070172 0.87032280891 -0.036099150327 -0.48206238834 0.90105048865 -0.099793489996 -0.4194043208 
0.91336813746 -0.16815574693 -0.35938472672 0.92282597564 -0.23724311722 -0.29977499261 0.91817622208 -0.30126213104 -0.24308352923 
0.91117520322 -0.36443641879 -0.1868784443 0.8972873785 -0.41428604607 -0.13502213949 0.88217220222 -0.46176098139 -0.083940864806 
0.86863412214 -0.49113322702 -0.037922590036 0.85539569033 -0.51706596162 0.007133714751 0.84875394697 -0.52479142794 0.049524582471 
0.84344486795 -0.52883865824 0.091376978056 0.84450235114 -0.51635691364 0.13451953749 0.84692409767 -0.50033324584 0.17793856061 
0.85217367598 -0.46898080663 0.22462335516 0.85806461821 -0.43415173886 0.27204884014 0.86257991443 -0.38536039665 0.32021220437 
0.86676562879 -0.3332239262 0.36855235217 0.86683264887 -0.27109595141 0.41157193491 0.8658591567 -0.20644380711 0.4532473749 
0.86108471096 -0.13781270293 0.48383742258 0.8552993733 -0.06812336474 0.51147922764 0.84713951854 -0.0012382309547 0.52720183094 
0.83831582028 0.064862931706 0.53959218428 0.82652499355 0.11821950392 0.54802010138 0.81386337912 0.1678358159 0.55528512958 
0.7942395981 0.18788872919 0.57678386504 0.77247361196 0.19884521211 0.60266220273 0.7290687581 0.15818015692 0.65866306084 
0.6786913802 0.100881495 0.72437006443 0.59286085045 0.0077416194102 0.79048530933 0.49507982008 -0.097479564164 0.85673816366 
0.39667440223 -0.17336990758 0.89373573771 0.29804902968 -0.23892779594 0.9204274744 0.21788670191 -0.25890282416 0.93822225823 
0.1445153791 -0.26211174289 0.95274459963 0.073947508466 -0.22943948245 0.96706246045 0.0044553810992 -0.18299886256 0.98130185778 
-0.076593741003 -0.10442841206 0.98423333466 -0.162265661 -0.01300602932 0.98264164336 -0.25448945863 0.10077125505 0.94912843411 
-0.34944320526 0.22386308176 0.90231459238 -0.42692928556 0.34081380037 0.8228990851 -0.49683902865 0.45510090583 0.72934309638 
-0.53696707122 0.54503864452 0.63194143737 -0.56365702941 0.6239894738 0.5328045369 -0.56798711802 0.68436417011 0.44854521346 
-0.56182739127 0.73602413736 0.37126549405 -0.5487886743 0.774142432 0.30944031634 -0.53239644959 0.80565916124 0.25514922772 
-0.52893231221 0.82086617292 0.21248682292 -0.53201404185 0.82781509976 0.17571235929 -0.5877649288 0.78927408791 0.14613958154 
-0.67120088562 0.72682169803 0.12035230532 -0.79287347985 0.52791695453 0.088850978224 -0.93540242175 0.2545836545 0.054232896101 
-0.96442281099 -0.020431453305 0.014905034737 -0.92922125597 -0.29639811025 -0.027087570144 -0.88062813079 -0.45692512841 -0.065628388754 
-0.8241786178 -0.54972755846 -0.10214415942 -0.7817132532 -0.60427907071 -0.14263574538 -0.74775176262 -0.6355698897 -0.18554505686 
-0.71544124788 -0.65638708257 -0.23272642829 -0.68417107408 -0.67060445626 -0.2825997827 -0.64579526918 -0.68440909534 -0.3326664378 
-0.6027810662 -0.69794431043 -0.38285927529 -0.54515068336 -0.71735371527 -0.42724256902 -0.47763893946 -0.74073440331 -0.46769828387 
-0.3686789163 -0.77775177579 -0.49127197557 -0.23070509764 -0.82431482739 -0.50302825105 0.0061063047695 -0.84243512094 -0.45110302932 
0.31453914467 -0.83994472026 -0.35303179512 0.5797399857 -0.71242742831 -0.19614544626 0.81251682757 -0.49113996792 0.0048522385787 
0.9292018388 -0.31463210054 0.13041569811 0.95578572773 -0.17287854415 0.19743319174 0.97131282991 -0.10069430826 0.21372955138 
0.97796099727 -0.08437634489 0.18929530343 0.97707777648 -0.12563606436 0.12672360187 0.96993771013 -0.21472955111 0.032468477316 
0.91452036489 -0.33655695714 -0.09007364441 0.8176147331 -0.48651507506 -0.23692490433 0.6941398221 -0.59613313512 -0.36372462799 