# vtk DataFile Version 5.1
vtk output
ASCII
DATASET POLYDATA
POINTS 240 float
0 0 0 -0.313108 -0.130116 0.157437 -0.626215 -0.260232 0.314873 
-0.928952 -0.413805 0.471547 -1.2316 -0.567576 0.628215 -1.52715 -0.736788 0.782576 
-1.82257 -0.906265 0.936898 -2.11628 -1.08342 1.08579 -2.40995 -1.26077 1.23453 
-2.70832 -1.43936 1.37192 -3.00686 -1.61798 1.50892 -3.31607 -1.79318 1.62474 
-3.62574 -1.96822 1.73962 -3.9494 -2.13681 1.81947 -4.27381 -2.30506 1.89746 
-4.60962 -2.46565 1.92553 -4.94615 -2.62577 1.95048 -5.28437 -2.77942 1.91583 
-5.62272 -2.9326 1.87688 -5.95012 -3.08308 1.78001 -6.27663 -3.23333 1.67841 
-6.58264 -3.38582 1.52861 -6.88676 -3.53851 1.37439 -7.16534 -3.69777 1.18347 
-7.44133 -3.85771 0.988809 -7.689 -4.02704 0.766419 -7.9335 -4.19742 0.540919 
-8.14684 -4.37826 0.29343 -8.35636 -4.56038 0.0432447 -8.5306 -4.75213 -0.225606 
-8.70014 -4.94517 -0.496945 -8.82906 -5.14495 -0.78464 -8.95213 -5.34571 -1.07469 
-9.02838 -5.54856 -1.37835 -9.09735 -5.75172 -1.68412 -9.11458 -5.95117 -1.99869 
-9.12318 -6.15 -2.31474 -9.07939 -6.33986 -2.63259 -9.02627 -6.52812 -2.95077 
-8.92547 -6.70473 -3.26341 -8.81562 -6.87911 -3.575 -8.66678 -7.04255 -3.87569 
-8.51007 -7.20376 -4.17419 -8.32368 -7.35712 -4.45915 -8.13093 -7.50879 -4.74121 
-7.91665 -7.65668 -5.00918 -7.69748 -7.80372 -5.27396 -7.46299 -7.95104 -5.52492 
-7.22482 -8.09844 -5.77257 -6.97608 -8.24974 -6.00698 -6.72467 -8.40204 -6.23804 
-6.4661 -8.56137 -6.45592 -6.20562 -8.72257 -6.67029 -5.94062 -8.89373 -6.87071 
-5.67435 -9.06767 -7.06724 -5.40589 -9.25448 -7.24798 -5.13678 -9.44507 -7.42409 
-4.86799 -9.65228 -7.58001 -4.59929 -9.86461 -7.72973 -4.33465 -10.0983 -7.85009 
-4.07132 -10.3389 -7.961 -3.82096 -10.6064 -8.02129 -3.57498 -10.8831 -8.0645 
-3.37109 -11.1807 -8.01046 -3.18203 -11.4857 -7.92216 -3.08262 -11.7562 -7.71188 
-3.01618 -12.0142 -7.45672 -3.02388 -12.2021 -7.14471 -3.06004 -12.363 -6.81088 
-3.13188 -12.4735 -6.46408 -3.21801 -12.5637 -6.11208 -3.32224 -12.6206 -5.75867 
-3.43402 -12.6636 -5.40468 -3.55726 -12.6815 -5.05274 -3.68546 -12.6885 -4.7017 
-3.82284 -12.6734 -4.35478 -3.96434 -12.6482 -4.00971 -4.11438 -12.6014 -3.67097 
-4.26841 -12.5445 -3.33521 -4.43082 -12.4647 -3.00868 -4.59732 -12.3737 -2.68667 
-4.77158 -12.2585 -2.37743 -4.94976 -12.1311 -2.07466 -5.1337 -11.9797 -1.78749 
-5.32067 -11.8158 -1.50851 -5.51019 -11.6306 -1.24566 -5.70111 -11.4339 -0.991602 
-5.89105 -11.2205 -0.751054 -6.08044 -10.9976 -0.518149 -6.26587 -10.7633 -0.29377 
-6.44899 -10.5222 -0.0743906 -6.62589 -10.2741 0.14225 -6.79901 -10.0219 0.357227 
-6.96411 -9.76693 0.575142 -7.12415 -9.51024 0.794909 -7.27443 -9.25495 1.02278 
-7.41833 -9.00059 1.25593 -7.55052 -8.75239 1.50177 -7.67479 -8.50836 1.75619 
-7.78493 -8.27676 2.02721 -7.88519 -8.05386 2.30984 -7.96829 -7.85218 2.61173 
-8.03896 -7.66587 2.92756 -8.08868 -7.51356 3.26244 -8.1227 -7.38674 3.61162 
-8.13278 -7.30956 3.97276 -8.12429 -7.27091 4.34319 -8.09292 -7.29318 4.70891 
-8.0432 -7.36438 5.07084 -7.97738 -7.49382 5.40851 -7.8982 -7.67165 5.72602 
-7.81165 -7.89314 6.0081 -7.71876 -8.15215 6.25974 -7.62481 -8.43912 6.47441 
-7.52993 -8.75093 6.65623 -7.43748 -9.07935 6.80308 -7.34729 -9.42306 6.91779 
-7.26127 -9.77536 7.001 -7.17924 -10.1358 7.05426 -7.10213 -10.4994 7.08002 
-7.02984 -10.866 7.07875 -6.96247 -11.232 7.05492 -6.90009 -11.5975 7.00814 
-6.8421 -11.9608 6.94434 -6.78872 -12.3216 6.86262 -6.73892 -12.68 6.76954 
-6.69301 -13.0358 6.66408 -6.64964 -13.3902 6.55308 -6.60915 -13.7429 6.43586 
-6.57011 -14.096 6.31912 -6.53279 -14.4495 6.20295 -6.49584 -14.8051 6.09404 
-6.45934 -15.1635 5.99388 -6.42223 -15.5252 5.90888 -6.38436 -15.891 5.84276 
-6.34532 -16.2591 5.80004 -6.30475 -16.6302 5.78748 -6.26314 -16.9995 5.80375 
-6.22017 -17.3663 5.85848 -6.17688 -17.7262 5.94125 -6.13315 -18.0767 6.06272 
-6.08961 -18.4174 6.20648 -6.04635 -18.7444 6.38209 -6.00311 -19.0617 6.57327 
-5.95992 -19.365 6.78747 -5.91601 -19.6602 7.01193 -5.87101 -19.9431 7.25211 
-5.82413 -20.2198 7.49881 -5.77427 -20.4867 7.75587 -5.72102 -20.749 8.01681 
-5.66218 -21.0037 8.28412 -5.59812 -21.2551 8.55324 -5.52516 -21.5009 8.82543 
-5.44476 -21.7441 9.09759 -5.35123 -21.9828 9.3697 -5.24795 -22.219 9.64006 
-5.12677 -22.4507 9.90721 -4.99384 -22.6791 10.171 -4.83854 -22.9011 10.4284 
-4.67071 -23.1184 10.6812 -4.47814 -23.3262 10.925 -4.27363 -23.5276 11.1634 
-4.04464 -23.7161 11.3907 -3.80556 -23.8972 11.6128 -3.54498 -24.0626 11.8236 
-3.27677 -24.2204 12.0299 -2.99166 -24.3611 12.2265 -2.70124 -24.4944 12.4199 
-2.39858 -24.6106 12.606 -2.09239 -24.7199 12.7901 -1.77771 -24.8126 12.9695 
-1.46074 -24.8988 13.1476 -1.13801 -24.9691 13.3228 -0.813811 -25.0335 13.4973 
-0.485747 -25.0825 13.6698 -0.156697 -25.1262 13.8416 0.175034 -25.1551 14.0117 
0.50748 -25.179 14.1809 0.841956 -25.1887 14.3477 1.17703 -25.194 14.5133 
1.51387 -25.1857 14.6754 1.85127 -25.1734 14.8358 2.19043 -25.1481 14.9912 
2.53018 -25.1192 15.1444 2.87182 -25.0781 15.2906 3.21406 -25.0337 15.4343 
3.55835 -24.9783 15.5692 3.90323 -24.9202 15.7012 4.25024 -24.8525 15.8228 
4.59779 -24.7826 15.9415 4.94738 -24.7049 16.0489 5.29744 -24.6256 16.1535 
5.64932 -24.5406 16.2471 6.00157 -24.4546 16.3382 6.35534 -24.3649 16.4196 
6.70938 -24.2749 16.4994 7.06457 -24.1833 16.572 7.4199 -24.0918 16.6441 
7.77592 -24.0006 16.7131 8.13195 -23.9098 16.7825 8.48805 -23.8208 16.8539 
8.84398 -23.7323 16.9267 9.19906 -23.6467 17.0067 9.55377 -23.5617 17.0888 
9.90637 -23.4803 17.1828 10.2584 -23.3995 17.2793 10.6069 -23.3225 17.3909 
10.9546 -23.2463 17.505 11.2976 -23.1743 17.6351 11.6399 -23.1031 17.7675 
11.977 -23.0371 17.9151 12.3135 -22.9719 18.0645 12.6449 -22.9135 18.2274 
12.9758 -22.8561 18.3916 13.3023 -22.8076 18.5674 13.6283 -22.7606 18.7443 
13.9504 -22.7259 18.9309 14.2721 -22.693 19.1184 14.5902 -22.6774 19.3142 
14.9079 -22.6642 19.5107 15.2212 -22.6758 19.7143 15.5339 -22.6903 19.9184 
15.8389 -22.7408 20.1283 16.1427 -22.795 20.3385 16.4302 -22.9002 20.5522 
16.7156 -23.0097 20.7658 16.9664 -23.1863 20.9779 17.2139 -23.3668 21.1895 
17.4001 -23.6191 21.3909 17.5829 -23.8738 21.5914 17.6868 -24.1817 21.7744 
17.7883 -24.4904 21.9567 17.816 -24.8239 22.1224 17.8423 -25.1575 22.2877 
17.8122 -25.496 22.4432 17.7814 -25.8344 22.5986 17.7108 -26.1683 22.751 
17.6398 -26.5021 22.9035 17.541 -26.828 23.0577 17.4422 -27.1539 23.212 

LINES 2 240
OFFSETS vtktypeint64
0 240 
CONNECTIVITY vtktypeint64
0 1 2 3 4 5 6 7 8 
9 10 11 12 13 14 15 16 17 
18 19 20 21 22 23 24 25 26 
27 28 29 30 31 32 33 34 35 
36 37 38 39 40 41 42 43 44 
45 46 47 48 49 50 51 52 53 
54 55 56 57 58 59 60 61 62 
63 64 65 66 67 68 69 70 71 
72 73 74 75 76 77 78 79 80 
81 82 83 84 85 86 87 88 89 
90 91 92 93 94 95 96 97 98 
99 100 101 102 103 104 105 106 107 
108 109 110 111 112 113 114 115 116 
117 118 119 120 121 122 123 124 125 
126 127 128 129 130 131 132 133 134 
135 136 137 138 139 140 141 142 143 
144 145 146 147 148 149 150 151 152 
153 154 155 156 157 158 159 160 161 
162 163 164 165 166 167 168 169 170 
171 172 173 174 175 176 177 178 179 
180 181 182 183 184 185 186 187 188 
189 190 191 192 193 194 195 196 197 
198 199 200 201 202 203 204 205 206 
207 208 209 210 211 212 213 214 215 
216 217 218 219 220 221 222 223 224 
225 226 227 228 229 230 231 232 233 
234 235 236 237 238 239 
CELL_DATA 1
FIELD FieldData 3
Length 1 1 double
89.288610277 
Tortuosity 1 1 double
1.2460415313 
ClusterLabel 1 1 int
3 
POINT_DATA 240
FIELD FieldData 6
Curvature 1 240 double
0 0.045949564221 0.091899128442 0.077416969923 0.062422678161 0.048838021577 0.03527746132 0.040081284946 0.045360049535 
0.066555919016 0.088305426927 0.11538510379 0.14269855999 0.16925118283 0.19576340745 0.21322414089 0.23011915614 0.23044337365 
0.22957329944 0.2184249081 0.20643556355 0.19308714862 0.17961404833 0.1710131477 0.16290848963 0.16062779671 0.15900025875 
0.16225463172 0.16610772961 0.17317817677 0.18067760384 0.19061638097 0.20090698745 0.21019118192 0.21931904055 0.22258968227 
0.22488412118 0.21923219166 0.21216407766 0.19828906688 0.18312074571 0.16611239416 0.14873231929 0.13264406824 0.11683263657 
0.10470386256 0.09341033049 0.085780491609 0.079028412554 0.076527313299 0.075100145783 0.077168521158 0.080166562196 0.08615895303 
0.092988473914 0.10514793836 0.11887162538 0.14148121166 0.1668249208 0.21492970041 0.27036860274 0.38300625992 0.51492439628 
0.6583828605 0.80590666749 0.76163388456 0.64681522947 0.50929159156 0.36305557651 0.27561745704 0.2116984958 0.1749966795 
0.14963534026 0.13639395377 0.12840941425 0.12617815428 0.12654288629 0.13060745531 0.13640775032 0.14337264838 0.15090529042 
0.15528256978 0.15806219714 0.15540802569 0.14989762665 0.13894625917 0.12502709071 0.1086066918 0.090771123019 0.075185092878 
0.060918792069 0.054461517873 0.052752976077 0.059157439693 0.070674208089 0.085600799845 0.10275324852 0.12241106176 0.14376264259 
0.16841469371 0.19537707402 0.22779023065 0.26415322519 0.30411882626 0.34678638224 0.38444074246 0.41820426418 0.43495675316 
0.43804886737 0.42484734655 0.39810957508 0.36752066694 0.33362218822 0.3047507314 0.28034773847 0.25888212654 0.24011701005 
0.22305418737 0.20760993913 0.19161307527 0.17507280605 0.15765366704 0.13934076216 0.12040519022 0.10081474431 0.080296100553 
0.058767838078 0.03912162917 0.021592730526 0.023108425918 0.046785103462 0.074382509595 0.10669931125 0.13982392106 0.17395448064 
0.20399037943 0.22875046529 0.24387898394 0.24616541298 0.24006137499 0.22237849249 0.20173657647 0.17686746971 0.15316623447 
0.13119247583 0.11139745292 0.094940067699 0.081043030627 0.071209154741 0.064540196871 0.063075770847 0.064973200955 0.072601067651 
0.082118020244 0.094973822331 0.10822572408 0.12220380856 0.13471572187 0.14443833394 0.15219057854 0.15605134736 0.15755304538 
0.15421562382 0.14914731501 0.14038948335 0.13117940091 0.12096703297 0.11137073302 0.10319481206 0.095762685717 0.090115666458 
0.085012950218 0.081270991528 0.077886202257 0.075432218137 0.073116570784 0.071177026515 0.069372883622 0.067953105927 0.066744805469 
0.066163887483 0.065720922978 0.065706089965 0.06570619911 0.06575487027 0.065740279602 0.065510130116 0.065031960967 0.063666644564 
0.061960143847 0.058970790108 0.055597626802 0.050705217293 0.045351747671 0.038073853229 0.030417838786 0.021094658877 0.013247679266 
0.012289634381 0.013307678454 0.024107362868 0.034741522325 0.044504497798 0.053803467688 0.060498850694 0.066599446371 0.069131318079 
0.071168921911 0.070024676292 0.068698170106 0.066107990651 0.063651689689 0.062199477416 0.061098113303 0.062857511113 0.065071540159 
0.071339364408 0.078181702371 0.09066472044 0.10385883638 0.12480391916 0.14651204479 0.1775462498 0.20931569562 0.25128660774 
0.29295547486 0.32979162212 0.36486539621 0.36674780875 0.36706791832 0.33176752028 0.29621502839 0.25341483838 0.21087411387 
0.17836605544 0.14605467516 0.12524896621 0.10418036255 0.052090181273 0 
Torsion 1 240 double
0 0 0 -0.13314542881 -0.26741920871 -0.77813139464 -1.2952784251 -1.0387722733 -0.76225784946 
-0.42176637981 -0.079049621606 0.0079718536501 0.083778623514 0.11085383778 0.13534153583 0.1497683339 0.16356632572 0.17974261083 
0.19609030447 0.21119969001 0.22620775943 0.22947177448 0.23165835335 0.20993751667 0.18578166546 0.14411179826 0.10047774236 
0.057696310328 0.01501944537 -0.011869561681 -0.036653521011 -0.043167999847 -0.047047457458 -0.039405482337 -0.029973770091 -0.015335776612 
0.00016993040551 0.018742344613 0.037861300695 0.061113807565 0.085151689084 0.11482358262 0.1456336604 0.18442018027 0.22491593773 
0.26674603312 0.30887876185 0.33730281676 0.36244250191 0.35419080055 0.33750338051 0.30028155554 0.25759845267 0.21356300595 
0.1691494846 0.12453893496 0.079870561805 0.039378225389 0.00017082335632 -0.030307602863 -0.057973359098 -0.066432486626 -0.068417469646 
-0.064267545598 -0.057956461106 -0.063338628626 -0.073021762403 -0.084938035043 -0.097711209804 -0.092241751785 -0.079475240653 -0.059175354156 
-0.035736561256 -0.015899073188 0.0023764031446 0.011541511878 0.016595844987 0.014166791757 0.0082270140729 -0.0013995601647 -0.012823447722 
-0.026903944268 -0.042329559289 -0.063074822072 -0.086616309962 -0.12418365955 -0.16940147916 -0.2554530883 -0.36460802572 -0.5644149316 
-0.81740432564 -0.93946451604 -0.98190559612 -0.84058132649 -0.5834597132 -0.4130961374 -0.29936628051 -0.22755045564 -0.18407087777 
-0.15545820228 -0.13725235846 -0.12388686641 -0.11402887563 -0.10602347826 -0.099407525939 -0.093472243131 -0.088065241136 -0.083326340288 
-0.079123944907 -0.074705241111 -0.070106834941 -0.064200788921 -0.057170989907 -0.049150843372 -0.040250387931 -0.032542102304 -0.025929843764 
-0.021061481042 -0.017851248769 -0.016704505355 -0.017586859318 -0.021270405721 -0.027802622401 -0.041625131172 -0.063115016109 -0.13225630679 
-0.25322895108 -1.5505203629 -4.1711703881 -4.3553357959 -1.7043191034 -0.21074271828 -0.1103815179 -0.045371605283 -0.024384050997 
-0.0095601245237 -0.0026777954236 0.001429237178 0.0018358744482 -0.00096526261039 -0.0081931282426 -0.020797116745 -0.041081280776 -0.070618823094 
-0.11384365413 -0.17326862598 -0.25751083483 -0.35567101667 -0.47591841649 -0.56039145283 -0.58603553587 -0.55487798463 -0.42689946584 
-0.3055948882 -0.19608611353 -0.10494116872 -0.047463245337 -0.00082657490457 0.025185272845 0.047461372809 0.062359370897 0.078026019069 
0.095269385362 0.11381696861 0.13514459325 0.15516550312 0.17229045052 0.18468462949 0.18617175904 0.1820728498 0.16456744743 
0.14277994861 0.11028720865 0.076015108351 0.037105887175 -0.0011003059632 -0.037395141621 -0.071743749026 -0.10056757945 -0.12706761534 
-0.1466737274 -0.16407767072 -0.17464729725 -0.18308870257 -0.18461338892 -0.18438984497 -0.17820936815 -0.17178018071 -0.16446137457 
-0.15800716201 -0.1548038213 -0.152977309 -0.15660074251 -0.16552063687 -0.19654749823 -0.28789802331 -0.64522106574 -0.97227476947 
-1.1580715593 -1.2189996111 -0.66182740934 -0.18476446576 -0.12932919656 -0.07836595375 -0.052495747929 -0.026197448883 0.0026694095085 
0.032980451486 0.072588425302 0.11317126437 0.16051316922 0.20750651347 0.25188565328 0.29288117691 0.30628721468 0.31505459334 
0.28246059483 0.24813664399 0.19682770663 0.14592765498 0.099484457698 0.053872845061 0.018425044804 -0.016173420726 -0.038987366933 
-0.061241457599 -0.07453785961 -0.087849742681 -0.10145318572 -0.11537456888 -0.13654498647 -0.1578923614 -0.18432725969 -0.21067400334 
-0.23361210116 -0.2540210472 -0.12647461422 0 0 0 
FrenetTangent 3 240 double
-0.82401053982 -0.37989981608 0.42033648427 -0.82401053982 -0.37989981608 0.42033648427 -0.82401053982 -0.37989981608 0.42033648427 
-0.81215546965 -0.40581272828 0.4181891054 -0.80019993279 -0.43194524144 0.41602352841 -0.79402222554 -0.44777098418 0.41075194616 
-0.78794328461 -0.46342054282 0.40542726981 -0.78984255613 -0.46977309885 0.39406364485 -0.79194816074 -0.47588521514 0.38254384018 
-0.80254106568 -0.4747311081 0.36045680224 -0.81342918106 -0.47332426285 0.33800220835 -0.83088394472 -0.46690563862 0.29954420056 
-0.84862671927 -0.46026719953 0.26038428865 -0.86722934352 -0.45082559102 0.20155014286 -0.88587762352 -0.44123514165 0.14167134749 
-0.89629622005 -0.43145198349 0.064593043002 -0.90620046137 -0.42165678103 -0.013560230806 -0.9005933644 -0.41483383969 -0.097789953923 
-0.89386833314 -0.40822511536 -0.18245761933 -0.87182367634 -0.40724171823 -0.25999795467 -0.84852559562 -0.40671857514 -0.33695514482 
-0.81529593118 -0.41242079922 -0.40019044888 -0.78115511226 -0.4186941579 -0.4621668643 -0.74170349283 -0.42989507062 -0.51096159646 
-0.70171095853 -0.44159786385 -0.55841374978 -0.6577628307 -0.45606514665 -0.59649140651 -0.61337108491 -0.47084246566 -0.63351771782 
-0.56401245756 -0.48597420922 -0.66488167943 -0.51404468437 -0.50114941994 -0.69555120191 -0.45733374048 -0.51403129888 -0.7228065523 
-0.39972370716 -0.52660740026 -0.74960667974 -0.33385228231 -0.5342776339 -0.77333399508 -0.2667893106 -0.54124029047 -0.79661811637 
-0.19158946266 -0.54122085189 -0.81503387982 -0.11512563395 -0.54011681599 -0.83269339352 -0.034203416458 -0.53145728308 -0.84239881136 
0.047461865831 -0.52153850066 -0.85077854656 0.12701423155 -0.50604604082 -0.84931561344 0.20619003789 -0.48956025232 -0.84609854141 
0.27686306277 -0.47152974374 -0.83415485679 0.34592055918 -0.45320573834 -0.82055311578 0.40337501793 -0.43732289868 -0.801521247 
0.45848542867 -0.42193322382 -0.78139238271 0.50234876877 -0.41129808207 -0.75908259516 0.5438020223 -0.40168176884 -0.73630546691 
0.57603398653 -0.3975080729 -0.71327532036 0.60617452433 -0.39456878499 -0.69018778823 0.62927406074 -0.39679249266 -0.66754898424 
0.65068669057 -0.40025316803 -0.64501768803 0.66685714602 -0.40828844157 -0.62276163014 0.68170326267 -0.41747940307 -0.60057510615 
0.69266472811 -0.43081524862 -0.57776298158 0.70259304163 -0.44525345693 -0.55478447387 0.70931959937 -0.46374894587 -0.52988706386 
0.71515104258 -0.4833787283 -0.50445318654 0.71788210317 -0.50772551242 -0.47466048889 0.71970326886 -0.53345663398 -0.44358857224 
0.71757984193 -0.56534130485 -0.40323286922 0.71424269419 -0.59911937552 -0.36002061654 0.70322894974 -0.64110692751 -0.29609496376 
0.68974163524 -0.68573975682 -0.22549499317 0.65337869529 -0.73506385649 -0.10728388004 0.60930487036 -0.78596928325 0.026975932834 
0.51072880093 -0.79804033014 0.21795964326 0.39295307718 -0.79643108413 0.42892563579 0.24501041242 -0.71703870733 0.60524804144 
0.085971861303 -0.60903644334 0.76882797836 -0.032612836542 -0.49277533494 0.8544596089 -0.13567454418 -0.37334513506 0.91018084281 
-0.20084321752 -0.28217719916 0.93366306574 -0.25085467714 -0.20231416884 0.94424968428 -0.28522597049 -0.13951350801 0.94636954619 
-0.3130805279 -0.083822167802 0.94496159283 -0.33528601335 -0.035276373434 0.94024408486 -0.35504129891 0.010170148039 0.93409110743 
-0.37305128608 0.053683171602 0.92516707387 -0.39027376057 0.096323763182 0.91499268572 -0.40715894103 0.139826077 0.9013685109 
-0.42388588479 0.18373265556 0.88612591765 -0.44025870648 0.22976132979 0.8664456811 -0.45645889367 0.27682452565 0.84460209344 
-0.47099504917 0.32500882828 0.81823661729 -0.48468865698 0.3737607799 0.78958157733 -0.49492586134 0.42082047457 0.75832822525 
-0.50334623825 0.46699064956 0.72570909371 -0.50724858532 0.50857236725 0.69416247856 -0.50868655248 0.54765129005 0.66320087236 
-0.50577565712 0.58053163444 0.63711702357 -0.50040422112 0.6099048884 0.61379295858 -0.49153312923 0.6330420738 0.59757303951 
-0.48060890586 0.65252076564 0.58552088603 -0.46691927968 0.66632699085 0.58111828867 -0.45154798961 0.67668374311 0.58136744841 
-0.43370333343 0.68161349043 0.58894241133 -0.41430011777 0.68312348121 0.60113363381 -0.39228149345 0.67873597676 0.62003000803 
-0.36855558848 0.67049871847 0.64330335631 -0.34172354674 0.65485940989 0.67259409264 -0.31279158156 0.63421589829 0.70595292229 
-0.27996441698 0.60335497083 0.74422205529 -0.24441061282 0.56534185225 0.78592840061 -0.20393045273 0.51252319242 0.83008016878 
-0.1598804695 0.44897587952 0.87600398249 -0.11071291069 0.36546978012 0.91796330238 -0.057707170205 0.26699459086 0.95694925191 
-0.0026657135386 0.1487721449 0.98012245159 0.053955701954 0.015223469851 0.99102306929 0.10573986629 -0.12559426913 0.97613084791 
0.15363957136 -0.27224928671 0.94052619514 0.19110672976 -0.40768149043 0.8827665243 0.2199068494 -0.5337901257 0.80660114612 
0.23863091806 -0.63983078083 0.72148746977 0.24869588042 -0.72862551552 0.62868384967 0.25230053132 -0.79992826182 0.53601872074 
0.25016268314 -0.85568257398 0.44347669507 0.24454826747 -0.89896799909 0.35416007856 0.23573765267 -0.93079009257 0.26780875756 
0.22523427544 -0.95383568474 0.18591938864 0.21312138638 -0.96853640681 0.10827253154 0.20044334854 -0.97723875801 0.036086879893 
0.18720958107 -0.9800427112 -0.030728586384 0.17423959711 -0.97932141482 -0.090995177258 0.16153786759 -0.97501511888 -0.14460189484 
0.14964841437 -0.96944834011 -0.19110346908 0.13861325175 -0.96255588111 -0.23013239256 0.12873938309 -0.95625428284 -0.26176104487 
0.12012867628 -0.95059537517 -0.28534027941 0.1128737123 -0.94683451192 -0.30116726608 0.107143959 -0.94520894864 -0.3082729739 
0.10284051993 -0.94612366198 -0.30686590263 0.10019679196 -0.94999433356 -0.29555305205 0.098940957601 -0.95610455846 -0.27430226919 
0.099355735909 -0.964910542 -0.24108916044 0.10084097125 -0.97401485414 -0.1967029084 0.10365922854 -0.98349066983 -0.13840293077 
0.10678615071 -0.98952801759 -0.070274098355 0.11031077569 -0.99113503167 0.010518835399 0.11323504486 -0.9861749221 0.095148284296 
0.11535883963 -0.97245864768 0.18489308672 0.11663540483 -0.95300316477 0.27081512021 0.1167427932 -0.92562757414 0.35146173259 
0.11661924316 -0.896235917 0.42424675936 0.11616578111 -0.86396416481 0.48580094956 0.1163354284 -0.83268217708 0.53976610819 
0.11742675827 -0.80286421593 0.58250582427 0.11982548424 -0.77515935478 0.61956708275 0.12422702977 -0.75069158299 0.64792942745 
0.13048162547 -0.72837896031 0.67227906758 0.13967693121 -0.70948646553 0.69026072003 0.15121342092 -0.69240768833 0.7052483316 
0.1665998576 -0.6783114689 0.7153124093 0.18484963083 -0.66550778785 0.72286325528 0.20798009134 -0.65490729722 0.72613018359 
0.23437958175 -0.64480837848 0.72705951739 0.26655689245 -0.63559595891 0.72385728882 0.301946603 -0.62578225626 0.71840518617 
0.3432257133 -0.61486620129 0.70882831436 0.38672782107 -0.60226492674 0.6972321226 0.43445904601 -0.58645762469 0.68179429779 
0.48269316414 -0.56845076489 0.66483376458 0.53192049634 -0.54609977857 0.64486588229 0.57986751503 -0.5217973631 0.62421185966 
0.62518824957 -0.49349201606 0.60215036965 0.66794062803 -0.4640257669 0.58052070725 0.70521835274 -0.43208496323 0.55981151951 
0.73957253123 -0.39984518017 0.54039840753 0.76744749914 -0.36694279415 0.52385767968 0.79281066617 -0.33428412408 0.50882933337 
0.81238273672 -0.30218735465 0.49728786677 0.83010662816 -0.27052050365 0.48698282221 0.84339488972 -0.23988545686 0.47964519057 
0.85541971485 -0.20970306959 0.47309332801 0.86428594894 -0.18065233112 0.46850588816 0.87234873847 -0.15201025402 0.46423341318 
0.8783177028 -0.12443317323 0.46078175576 0.88382402458 -0.097234702335 0.45723623082 0.88807253688 -0.071065577074 0.45343550355 
0.8920963795 -0.045274089318 0.44924159789 0.89548245009 -0.020554604805 0.44393157295 0.89880016007 0.0038126284292 0.43803279311 
0.90191506687 0.027134849535 0.43038737377 0.90504990396 0.050107216802 0.42203768047 0.90824659367 0.071993830778 0.41150230934 
0.91149441086 0.093456184795 0.4002416417 0.91490839232 0.11353969395 0.38662376039 0.9183585816 0.13309545017 0.3723730485 
0.92193214571 0.15085293717 0.35596602502 0.92549395696 0.16798395079 0.33914573516 0.92901372915 0.18287411732 0.32084722325 
0.93246919383 0.19706084795 0.30245913986 0.93568286229 0.20860265961 0.2837342677 0.93880065207 0.21941355583 0.26528399223 
0.9415389221 0.22733124509 0.24792066199 0.94416384168 0.23454940166 0.23122558846 0.94631564635 0.23884776955 0.2173197603 
0.94833905286 0.24253755166 0.20446183704 0.94979634022 0.24354402378 0.19622422176 0.95110249065 0.2440727694 0.18929145204 
0.95170333539 0.24237212462 0.18844796155 0.95210564042 0.24033504227 0.18897867775 0.95152517394 0.236632594 0.19631171703 
0.95067783154 0.23272124271 0.20488156559 0.94842587902 0.22771040193 0.21996093662 0.94585898003 0.22258470996 0.23594057908 
0.94152488138 0.2168145752 0.2569717445 0.93690416417 0.21096452553 0.2784394745 0.93056373556 0.20463498644 0.3025265919 
0.92405636407 0.19818186234 0.32660478056 0.91647429774 0.19093315979 0.3506254904 0.9088722502 0.18346595399 0.37436055553 
0.90113166633 0.17448379234 0.39611515068 0.89346450464 0.16517962791 0.41751297555 0.88634800938 0.15346044271 0.43623502336 
0.8793308734 0.14129107629 0.45464468927 0.87312389773 0.12545100148 0.47050724123 0.86699015445 0.10899810211 0.4861221355 
0.8615094001 0.087080850516 0.49952874864 0.85600825805 0.064340997593 0.51275053205 0.85030694591 0.03352469528 0.52415762367 
0.84438361094 0.0015948794102 0.53541886503 0.83604022704 -0.042472234221 0.5450903386 0.82709155916 -0.087947238471 0.55458416598 
0.81074497595 -0.15062979474 0.56190676222 0.79315326663 -0.21481577843 0.56891007856 0.75828543233 -0.29986181772 0.57148338638 
0.72154252374 -0.38578237343 0.57348656768 0.65479842638 -0.4856951919 0.56636772457 0.58643466346 -0.58503321799 0.55861798268 
0.48756719899 -0.67354598758 0.53898631387 0.38835036219 -0.76056413704 0.51912782768 0.28116783612 -0.81350494787 0.49409790517 
0.17456320417 -0.86529540936 0.46926117258 0.084573027906 -0.8840133272 0.44997865022 -0.0048039193382 -0.90224212432 0.43094796462 
-0.070469344446 -0.90155825322 0.42165496709 -0.13579977399 -0.90073778732 0.41250117459 -0.18153296326 -0.89192652599 0.41149087659 
-0.22688184001 -0.88318930888 0.4104890685 -0.22688184001 -0.88318930888 0.4104890685 -0.22688184001 -0.88318930888 0.4104890685 

FrenetNormal 3 240 double
0.40562810732 -0.91353015946 -0.030471073429 0.40562810732 -0.91353015946 -0.030471073429 0.40562810732 -0.91353015946 -0.030471073429 
0.41062150954 -0.90653607092 -0.082221610657 0.41565722874 -0.89948271044 -0.13441071176 0.30030406203 -0.85199191345 -0.3474798397 
0.18289296565 -0.80380987823 -0.56329905357 -0.093127981903 -0.46187402378 -0.73844642898 -0.37325090837 -0.1123410878 -0.9125419465 
-0.41408987928 0.015991213027 -0.9012416909 -0.44660593 0.13662957872 -0.88349288668 -0.41007546747 0.15370217489 -0.89790265112 
-0.3705166491 0.16623241275 -0.91372287911 -0.299684962 0.1572703684 -0.93779767172 -0.2271927686 0.14716714093 -0.96231075979 
-0.13216268347 0.12821514954 -0.97782685149 -0.035723980105 0.1087101104 -0.99278063091 0.070887817954 0.079011463083 -0.98803008514 
0.17823281203 0.048578141302 -0.98185940782 0.28134107422 0.0057644159695 -0.95253943519 0.38410269471 -0.038062251472 -0.92132542931 
0.47183230606 -0.088853160351 -0.86977985566 0.558182834 -0.14028299046 -0.81636900057 0.62463194861 -0.18357295295 -0.7522939158 
0.68905406743 -0.22603385484 -0.6871326595 0.73690685101 -0.24555792757 -0.62485584841 0.78290139138 -0.26250964563 -0.56290252651 
0.81937601942 -0.25137056037 -0.51133641515 0.85468311103 -0.2367863766 -0.46104420697 0.88406315851 -0.1990357089 -0.41781734043 
0.91265293343 -0.15819617668 -0.37553251945 0.93489938095 -0.10532480694 -0.33083269946 0.95623092548 -0.050718076027 -0.28578456231 
0.96951596277 0.0055807934757 -0.23160824517 0.98155105717 0.062142519458 -0.17601395834 0.98404250091 0.1122679841 -0.11078270962 
0.98494333619 0.16132073852 -0.043945300598 0.97656027943 0.1975094164 0.028361680676 0.96652266764 0.2314054866 0.1016434372 
0.94983567472 0.24745773849 0.17537174526 0.93188529939 0.2601196649 0.2491848981 0.91008341736 0.25105364569 0.32101459086 
0.88750345316 0.23759814252 0.3924435846 0.86029493902 0.19866643744 0.46164568022 0.83209459275 0.15427554625 0.53037058337 
0.79247959429 0.081275381491 0.59464227718 0.75027570565 0.0017865155156 0.65790396474 0.68803194044 -0.0983739913 0.70699492948 
0.62098695479 -0.20348707873 0.75269082522 0.5377791154 -0.30419055814 0.77527337728 0.45048802876 -0.40378003131 0.79201676885 
0.36284276338 -0.47871946923 0.7919866602 0.27510330153 -0.54710304671 0.78749551427 0.19835129752 -0.58798048216 0.78013491132 
0.12467105591 -0.62116802845 0.77197209457 0.062422565833 -0.63191492754 0.77036218225 0.0035290463073 -0.63607598451 0.77067540492 
-0.047447213396 -0.61836098259 0.78252396319 -0.095987393154 -0.59391488563 0.7979218555 -0.14749370093 -0.54197165203 0.82318817398 
-0.19995576106 -0.48116822997 0.85163431867 -0.27403888755 -0.37123817483 0.8748295671 -0.35541001395 -0.24474858046 0.89625485049 
-0.45011457861 -0.053221603238 0.85970848587 -0.54951614993 0.16121627021 0.80274029069 -0.59796001755 0.36238376428 0.67142471673 
-0.62766082175 0.55867019926 0.51276298046 -0.6095937247 0.68161829187 0.36988585962 -0.57319708415 0.77642492752 0.23306562611 
-0.53181393489 0.83036517244 0.13657530247 -0.48843618215 0.86795886107 0.056216942792 -0.45364888955 0.8890393956 -0.0056610364879 
-0.42244095533 0.90323944927 -0.059838857267 -0.40054952036 0.90854473069 -0.10874674776 -0.38269897663 0.90999203861 -0.15536888535 
-0.36896804284 0.90623090944 -0.20136185527 -0.35709595742 0.90011963183 -0.24707093246 -0.34292002796 0.89119632028 -0.2931492614 
-0.32766328276 0.88095378293 -0.33940081954 -0.30590514273 0.86884907954 -0.3858352938 -0.28097757272 0.85583657021 -0.43235893967 
-0.24781107115 0.84145261003 -0.47687603443 -0.21047295866 0.82637424435 -0.52037715395 -0.16406566354 0.8116478863 -0.55748565575 
-0.11289123395 0.79710655791 -0.59123393541 -0.049230554848 0.78634705279 -0.61206697736 0.021240805802 0.77765036035 -0.62585534419 
0.11667910881 0.77434693322 -0.61284331827 0.22624344498 0.77409495884 -0.58466791222 0.38443579848 0.75476604007 -0.48290990063 
0.5711565888 0.72424531393 -0.33798342712 0.71987631692 0.5864508821 -0.093889812255 0.845487291 0.38342244004 0.21050814532 
0.85439376504 0.17855035566 0.42210094948 0.78976041714 -0.027483475948 0.57521379396 0.7262402437 -0.17695132631 0.65304081948 
0.6634467258 -0.28949416115 0.68172293542 0.61549790486 -0.38197234184 0.68456041653 0.57758493537 -0.46088568593 0.66992546847 
0.54760625349 -0.53436057051 0.63918587823 0.52318157293 -0.60402853342 0.59717303847 0.50129823411 -0.67169014547 0.53785913097 
0.48125644727 -0.73789788008 0.46600821786 0.45890538659 -0.79837116733 0.37318318967 0.43482237054 -0.85454361907 0.26462757516 
0.40366916985 -0.89445772371 0.13685435994 0.36702866167 -0.92175340972 -0.0058340080607 0.32199381661 -0.92284333665 -0.15361910219 
0.27021806466 -0.90288924492 -0.30549702184 0.21472085436 -0.85945169894 -0.44339144027 0.15613197097 -0.79650482174 -0.56966879615 
0.1003295884 -0.72259661709 -0.67399163096 0.046921854988 -0.63926852167 -0.75944729923 -0.00071642181805 -0.55421691747 -0.82674600011 