# vtk DataFile Version 5.1
vtk output
ASCII
DATASET POLYDATA
POINTS 240 float
0 0 0 -0.107109 -0.241779 0.0586045 -0.214218 -0.483558 0.117209 
-0.358146 -0.722994 0.182846 -0.502385 -0.96241 0.248543 -0.674299 -1.20003 0.318382 
-0.846685 -1.43762 0.388291 -1.03769 -1.67393 0.459459 -1.22918 -1.91021 0.530659 
-1.43028 -2.14574 0.600164 -1.63172 -2.38124 0.669609 -1.83373 -2.61643 0.734221 
-2.03578 -2.8516 0.798621 -2.2295 -3.08683 0.85476 -2.42277 -3.32206 0.910461 
-2.59925 -3.55759 0.954177 -2.77468 -3.79314 0.997144 -2.92586 -4.02911 1.02425 
-3.07529 -4.2651 1.05021 -3.19476 -4.50154 1.05661 -3.31177 -4.73801 1.06141 
-3.39563 -4.97493 1.04354 -3.47644 -5.21189 1.02359 -3.52386 -5.44936 0.978867 
-3.56789 -5.68688 0.931623 -3.58133 -5.92512 0.858732 -3.59133 -6.16346 0.782965 
-3.57612 -6.40283 0.681921 -3.55782 -6.64233 0.577777 -3.52128 -6.88314 0.449792 
-3.48232 -7.12413 0.318629 -3.43272 -7.36651 0.166029 -3.38158 -7.60909 0.0103371 
-3.32695 -7.85281 -0.163312 -3.27178 -8.09672 -0.33975 -3.21896 -8.34125 -0.529278 
-3.16654 -8.58588 -0.720987 -3.12062 -8.83039 -0.919129 -3.07585 -9.07488 -1.11842 
-3.04001 -9.31829 -1.31551 -3.00588 -9.56149 -1.51218 -2.98182 -9.80236 -1.69626 
-2.9598 -10.0428 -1.87779 -2.94834 -10.2792 -2.03546 -2.93914 -10.5147 -2.18801 
-2.94095 -10.7439 -2.30592 -2.94526 -10.9715 -2.41596 -2.9614 -11.1894 -2.48277 
-2.98038 -11.4049 -2.53923 -3.01253 -11.6064 -2.54756 -3.04802 -11.8044 -2.54373 
-3.09839 -11.9836 -2.49139 -3.15272 -12.1577 -2.42615 -3.22352 -12.3086 -2.31637 
-3.29893 -12.453 -2.19415 -3.39172 -12.5708 -2.03479 -3.48961 -12.6807 -1.86454 
-3.60454 -12.7627 -1.66631 -3.72471 -12.8361 -1.45947 -3.85989 -12.8827 -1.23385 
-3.9999 -12.9207 -1.00219 -4.15103 -12.9352 -0.759621 -4.3059 -12.9417 -0.513376 
-4.4663 -12.9297 -0.261977 -4.62865 -12.911 -0.00876315 -4.78963 -12.8793 0.24604 
-4.95011 -12.8429 0.501428 -5.10158 -12.7992 0.756464 -5.2496 -12.7527 1.01136 
-5.38087 -12.7044 1.26473 -5.50544 -12.6555 1.51748 -5.606 -12.6101 1.76746 
-5.69656 -12.5664 2.01628 -5.75709 -12.5314 2.26052 -5.80459 -12.5004 2.50278 
-5.81801 -12.483 2.73798 -5.81605 -12.4719 2.96999 -5.77855 -12.4786 3.19216 
-5.72439 -12.4938 3.4097 -5.63615 -12.5296 3.61489 -5.53131 -12.5754 3.81405 
-5.39661 -12.6432 3.9993 -5.24679 -12.7221 4.1775 -5.07344 -12.8224 4.34161 
-4.88771 -12.9338 4.49831 -4.68592 -13.0643 4.64229 -4.47535 -13.2053 4.77931 
-4.25628 -13.3623 4.90622 -4.03239 -13.5282 5.02741 -3.80674 -13.7065 5.14186 
-3.58005 -13.892 5.25235 -3.35683 -14.0862 5.35964 -3.13571 -14.2856 5.46497 
-2.92154 -14.4907 5.57017 -2.71173 -14.6994 5.6753 -2.51063 -14.9115 5.78254 
-2.31521 -15.1258 5.89117 -2.12892 -15.3422 6.00312 -1.94881 -15.5599 6.11731 
-1.77743 -15.7792 6.23495 -1.61218 -15.9997 6.35502 -1.455 -16.2221 6.4778 
-1.30367 -16.4459 6.60254 -1.15988 -16.6725 6.72865 -1.02174 -16.9012 6.85578 
-0.890959 -17.1339 6.98265 -0.765878 -17.3698 7.10933 -0.648279 -17.6108 7.23422 
-0.536689 -17.8559 7.3577 -0.432818 -18.107 7.47827 -0.335357 -18.363 7.59644 
-0.245594 -18.625 7.71125 -0.162444 -18.8922 7.82317 -0.0863246 -19.1644 7.93202 
-0.0164543 -19.4411 8.03814 0.0480015 -19.7208 8.1422 0.107479 -20.0033 8.24438 
0.164189 -20.2858 8.34606 0.218268 -20.5683 8.44727 0.273133 -20.8469 8.54977 
0.328772 -21.1217 8.65355 0.38926 -21.3887 8.76027 0.45468 -21.6476 8.86997 
0.528994 -21.8949 8.98374 0.612661 -22.1299 9.10178 0.708664 -22.3504 9.22428 
0.818083 -22.5551 9.35162 0.942164 -22.7439 9.48297 1.08274 -22.9147 9.61881 
1.23888 -23.0695 9.75752 1.41314 -23.2057 9.89956 1.6024 -23.3274 10.043 
1.80971 -23.4316 10.188 2.03018 -23.5236 10.3328 2.26703 -23.6004 10.4775 
2.51425 -23.6677 10.6207 2.77485 -23.7229 10.7623 3.04256 -23.7712 10.9018 
3.31977 -23.8101 11.0387 3.6008 -23.8439 11.1735 3.88709 -23.8705 11.3054 
4.1742 -23.8926 11.4354 4.46248 -23.9085 11.5628 4.74916 -23.9197 11.6889 
5.03347 -23.9239 11.8132 5.31447 -23.9225 11.9367 5.59041 -23.9125 12.0592 
5.8621 -23.8955 12.1814 6.12706 -23.8675 12.3032 6.3876 -23.8316 12.4252 
6.64085 -23.7826 12.5474 6.89015 -23.7254 12.6698 7.13273 -23.654 12.7927 
7.37235 -23.575 12.9159 7.60675 -23.4826 13.0396 7.83953 -23.3843 13.1638 
8.0693 -23.2751 13.2888 8.29879 -23.1624 13.4142 8.52777 -23.0431 13.5406 
8.75762 -22.923 13.6676 8.98921 -22.8013 13.796 9.22238 -22.6812 13.9253 
9.45878 -22.5643 14.0567 9.69685 -22.4506 14.1894 9.93852 -22.3436 14.3251 
10.1814 -22.2406 14.4626 10.4268 -22.1461 14.6042 10.6724 -22.0551 14.748 
10.9184 -21.9721 14.897 11.1634 -21.8916 15.0485 11.4059 -21.8169 15.2064 
11.6461 -21.7432 15.367 11.8807 -21.6719 15.5345 12.1121 -21.6003 15.7048 
12.3353 -21.5275 15.8821 12.555 -21.4533 16.0619 12.7651 -21.3753 16.2482 
12.9721 -21.2956 16.4365 13.1699 -21.2108 16.63 13.3655 -21.1248 16.8249 
13.5543 -21.0347 17.0233 13.7423 -20.9442 17.2222 13.9277 -20.8526 17.4226 
14.1139 -20.7619 17.6227 14.3024 -20.6744 17.8221 14.4932 -20.5893 18.0209 
14.6915 -20.5124 18.2172 14.8931 -20.4391 18.4125 15.1062 -20.3788 18.6042 
15.3229 -20.3228 18.795 15.5532 -20.2838 18.982 15.7866 -20.2497 19.1682 
16.0326 -20.2352 19.3514 16.2806 -20.2258 19.5341 16.5369 -20.2376 19.715 
16.7933 -20.2543 19.8958 17.0504 -20.2928 20.0761 17.3054 -20.3358 20.2566 
17.5505 -20.4002 20.4377 17.7912 -20.4687 20.6189 18.0098 -20.5576 20.8012 
18.2219 -20.65 20.9835 18.3991 -20.7609 21.1662 18.5682 -20.8746 21.3487 
18.6909 -21.0041 21.5301 18.8045 -21.1355 21.7111 18.8633 -21.279 21.8893 
18.9129 -21.4237 22.0667 18.9034 -21.5763 22.2394 18.8854 -21.7295 22.4112 
18.8092 -21.8865 22.5768 18.7261 -22.0437 22.7415 18.5911 -22.2019 22.8993 
18.4509 -22.3601 23.0563 18.2697 -22.5184 23.2069 18.0854 -22.6766 23.3568 
17.8739 -22.8355 23.5016 17.6612 -22.9947 23.6461 17.4366 -23.1569 23.7876 
17.2122 -23.3195 23.929 16.9903 -23.4877 24.07 16.7697 -23.6564 24.2111 
16.5637 -23.8325 24.3547 16.3593 -24.0091 24.4987 16.1779 -24.1928 24.6482 
15.9983 -24.3767 24.7982 15.8461 -24.5648 24.9568 15.6953 -24.7527 25.1161 
15.5726 -24.9385 25.2877 15.451 -25.1238 25.46 15.3547 -25.2978 25.6485 
15.2592 -25.471 25.8376 15.1844 -25.6216 26.0474 15.11 -25.7712 26.2577 
15.0501 -25.8853 26.4932 14.9904 -25.9986 26.7292 14.9386 -26.0628 26.9952 
14.8868 -26.1265 27.2614 14.8358 -26.1272 27.5625 14.7849 -26.1278 27.8635 

LINES 2 240
OFFSETS vtktypeint64
0 240 
CONNECTIVITY vtktypeint64
0 1 2 3 4 5 6 7 8 
9 10 11 12 13 14 15 16 17 
18 19 20 21 22 23 24 25 26 
27 28 29 30 31 32 33 34 35 
36 37 38 39 40 41 42 43 44 
45 46 47 48 49 50 51 52 53 
54 55 56 57 58 59 60 61 62 
63 64 65 66 67 68 69 70 71 
72 73 74 75 76 77 78 79 80 
81 82 83 84 85 86 87 88 89 
90 91 92 93 94 95 96 97 98 
99 100 101 102 103 104 105 106 107 
108 109 110 111 112 113 114 115 116 
117 118 119 120 121 122 123 124 125 
126 127 128 129 130 131 132 133 134 
135 136 137 138 139 140 141 142 143 
144 145 146 147 148 149 150 151 152 
153 154 155 156 157 158 159 160 161 
162 163 164 165 166 167 168 169 170 
171 172 173 174 175 176 177 178 179 
180 181 182 183 184 185 186 187 188 
189 190 191 192 193 194 195 196 197 
198 199 200 201 202 203 204 205 206 
207 208 209 210 211 212 213 214 215 
216 217 218 219 220 221 222 223 224 
225 226 227 228 229 230 231 232 233 
234 235 236 237 238 239 
CELL_DATA 1
FIELD FieldData 3
Length 1 1 double
67.986737691 
Tortuosity 1 1 double
0.65987787899 
ClusterLabel 1 1 int
1 
POINT_DATA 240
FIELD FieldData 6
Curvature 1 240 double
0 0.10939832807 0.21879665615 0.18080786869 0.14157003788 0.11331141069 0.085240462192 0.064643487035 0.044239804292 
0.034530957403 0.025194104805 0.037359363425 0.050467697099 0.072828077315 0.095679716638 0.12581196007 0.15639924126 0.19444099622 
0.23302001055 0.27339612033 0.3139192652 0.34127462504 0.3674219312 0.36544518949 0.36060396142 0.33027775727 0.29709342497 
0.25610829594 0.21416646542 0.17817536766 0.14297770094 0.11812607804 0.094766673 0.080077353072 0.066734842482 0.058799457991 
0.051765261184 0.050886831953 0.051105470211 0.062660075685 0.076368514931 0.10452474887 0.13559972922 0.18616118895 0.24089832283 
0.32481782063 0.41535599892 0.53517800113 0.6620159195 0.77059157048 0.87455359601 0.88563443951 0.872012841 0.78713486031 
0.68233574052 0.57795757084 0.47370294086 0.39427406871 0.32248389126 0.26875523292 0.22084639739 0.18435045564 0.15170155672 
0.12618596331 0.10318323888 0.091923439514 0.084982876959 0.095532296016 0.11279298709 0.14478126099 0.18266056802 0.23356651022 
0.28990021708 0.35682579812 0.42834544507 0.4948103115 0.55899436234 0.58916884637 0.60338822498 0.57629119559 0.5290524173 
0.46582175232 0.39449392951 0.32982369394 0.26865295937 0.21946251646 0.17680677809 0.14416248318 0.1171825576 0.098298871157 
0.08416497834 0.076950249313 0.073943119889 0.074413980023 0.077076450015 0.079835349842 0.082657196923 0.084210751338 0.084906868459 
0.084319681063 0.082834180506 0.081629702552 0.080628864165 0.081544944668 0.083898714339 0.087691490535 0.092601107618 0.097418698986 
0.10216239092 0.10448574078 0.10479834492 0.10166555663 0.095571884226 0.085767531388 0.072664795945 0.05649774662 0.037513505499 
0.028978445339 0.030378671995 0.047453118375 0.079940547483 0.11662058209 0.15756428331 0.20044313423 0.2453572288 0.28574288321 
0.32120286588 0.34402590081 0.35263236953 0.34705028976 0.32495789903 0.29614076934 0.25922904647 0.2230146065 0.18766848107 
0.15606305309 0.1292773699 0.10630938329 0.088431658775 0.074000537266 0.064325727908 0.058660416591 0.058722959619 0.062422164812 
0.071500599456 0.082841147208 0.097647059723 0.11238585456 0.12701813655 0.13910928412 0.1470216773 0.15028497798 0.14562368915 
0.13639858937 0.11910721905 0.099096248763 0.074099345192 0.048795273285 0.022906832351 0.011277524267 0.027810003559 0.043581946749 
0.057793815882 0.06933898519 0.07519987329 0.078835931284 0.077541284719 0.075676847891 0.072498727957 0.070511358325 0.07138178942 
0.073808645151 0.08012656247 0.086206995861 0.091668531742 0.09523180523 0.093634177836 0.089357857655 0.077477506335 0.063143790676 
0.041531760812 0.0259848519 0.029260732147 0.038302914141 0.066085576811 0.092535555269 0.11444453568 0.13401756506 0.1452350773 
0.15409274707 0.15407740909 0.15286291342 0.1469017519 0.14125336291 0.13691045925 0.13421392526 0.13877638479 0.14587071977 
0.16478047348 0.18670150666 0.22352837315 0.2640485186 0.32400697441 0.38657576078 0.46379140202 0.53807904514 0.59479869948 
0.64148948172 0.62361939977 0.59790475743 0.51780116303 0.43708567478 0.35178098275 0.26876847264 0.20444606127 0.14196255198 
0.095875919588 0.053109620693 0.042942959819 0.035946738566 0.063508309194 0.090790266608 0.11465472918 0.13804118525 0.15479530097 
0.17118349799 0.18171699565 0.19224317321 0.20263148888 0.21352348249 0.23589933307 0.25869071534 0.29342863348 0.32809899599 
0.36015720768 0.39174699676 0.39593406332 0.39841194468 0.19920597234 0 
Torsion 1 240 double
0 0 0 0.052399905455 0.10524387791 0.17021783639 0.23539914507 0.51303176026 0.79615880579 
1.5988129129 2.4195375266 1.5620989326 0.63105668909 0.37697239956 0.15883278015 0.089377939799 0.029215898138 0.00082292035749 
-0.025280395162 -0.041724351058 -0.057377995712 -0.071640846745 -0.085776102033 -0.1050342973 -0.12481427348 -0.15687923092 -0.19032194327 
-0.24402579966 -0.30021451334 -0.3818257781 -0.46682671634 -0.562471284 -0.65965099052 -0.7444013403 -0.82722091623 -0.94515304446 
-1.0689372647 -1.1525433216 -1.2289889137 -1.0404482423 -0.8015601808 -0.58998250202 -0.38392207228 -0.25928355856 -0.15209259828 
-0.080983261588 -0.01805738592 0.02600457719 0.065547061248 0.093991164981 0.11963146737 0.1436489025 0.167234724 0.18859257895 
0.20932756153 0.2145492027 0.2152180154 0.19244555821 0.16246040258 0.10866255649 0.04719173237 -0.055797256699 -0.17278113283 
-0.3889043116 -0.6399515629 -0.88164098299 -1.1198884422 -1.0195031501 -0.78917738359 -0.59638314912 -0.41860152744 -0.31849729228 
-0.25075863485 -0.21156964004 -0.18476363144 -0.16799744312 -0.1557614176 -0.15113993647 -0.15009071073 -0.15534830143 -0.16368046514 
-0.17739102885 -0.19382483305 -0.2206624456 -0.25296872664 -0.30313065281 -0.36303202177 -0.44850738755 -0.54845225153 -0.64667305707 
-0.74388241499 -0.7484561358 -0.69669737459 -0.59361163744 -0.45818287436 -0.33506148914 -0.21997408671 -0.11530810094 -0.017687579975 
0.0791709531 0.17549609465 0.26199061406 0.34136149423 0.37335063295 0.36980346557 0.33322049311 0.27099779131 0.20847204291 
0.1457029389 0.092709686193 0.047837909944 0.0074126339524 -0.02919143088 -0.081948350708 -0.14906336387 -0.47029554283 -1.0251515678 
-1.3310906519 -1.400354612 -1.1364215974 -0.54484489119 -0.21944756127 -0.16474112255 -0.13068352888 -0.11834282398 -0.11093830204 
-0.10890296156 -0.10926810756 -0.11233380085 -0.11734947045 -0.1246342034 -0.13181752421 -0.13887877486 -0.14149874365 -0.13858805954 
-0.12477880449 -0.096927159973 -0.046491111169 0.034057476676 0.14752644913 0.30642555235 0.41833329927 0.4631105372 0.44012185888 
0.3168960961 0.20972376279 0.12714391718 0.061807784607 0.023836674901 -0.0055733644984 -0.020905199395 -0.031411598255 -0.033692822051 
-0.03481407564 -0.033885149326 -0.027845626055 -0.012436675026 1.082937719 4.2328805169 5.2632207048 2.107345738 -0.037777848347 
-0.10956526987 -0.17747670695 -0.23712617714 -0.31102688307 -0.41651140871 -0.52995909848 -0.66176630556 -0.75755712462 -0.76690861247 
-0.73630058243 -0.60579375767 -0.48160157396 -0.37386572754 -0.27644791911 -0.2070822765 -0.13919749793 -0.075516462441 0.07788665439 
0.4974652792 0.78544539179 0.66501632848 0.50687843529 0.22618684501 8.9034630771e-05 -0.039985525686 -0.078063529527 -0.10900000444 
-0.14193441616 -0.18238107027 -0.22725373456 -0.28964602245 -0.35233137982 -0.41623998371 -0.46916590079 -0.4736681533 -0.46762057197 
-0.4123404327 -0.35596024293 -0.29413480325 -0.23540712103 -0.19298342544 -0.15307802711 -0.12730307453 -0.10286219 -0.086425713818 
-0.070715891276 -0.059683901565 -0.048452867206 -0.035841789954 -0.021875749356 0.0022525163346 0.031067181608 0.098094028096 0.20381094221 
0.6545142927 1.118660411 1.7147900679 2.1809233351 1.2300959543 0.34739809467 0.29739438416 0.25352547282 0.29477689998 
0.33821588306 0.41665576097 0.49483714124 0.5681501495 0.63756948345 0.61821304329 0.59663394539 0.51115343738 0.42591634661 
0.35009138907 0.2732350198 0.13604106471 0 0 0 
FrenetTangent 3 240 double
-0.45130768825 -0.86400708406 0.2231885508 -0.45130768825 -0.86400708406 0.2231885508 -0.45130768825 -0.86400708406 0.2231885508 
-0.49418148818 -0.83770154467 0.22678849159 -0.53741862539 -0.81117307698 0.23041894035 -0.5648676075 -0.79172111478 0.23017579931 
-0.59204670662 -0.77239011849 0.22986644307 -0.60781538829 -0.76078767079 0.22667058626 -0.62328897296 -0.74938509936 0.22340007857 
-0.62975776585 -0.74569245507 0.21739475161 -0.63591334858 -0.74226798217 0.2112943005 -0.63390249766 -0.74652212445 0.20187475846 
-0.63153346982 -0.75111304809 0.19230964226 -0.62051451037 -0.76337220459 0.17810342596 -0.60903626252 -0.7760385239 0.16365077957 
-0.58722418031 -0.79590770111 0.14251597432 -0.56476623345 -0.81622705694 0.12096353414 -0.52943316124 -0.84176523508 0.090304518943 
-0.49317215206 -0.86767954455 0.058989174011 -0.44208438785 -0.89386831983 0.016975448187 -0.3897835255 -0.92007955141 -0.025913599711 
-0.32459469713 -0.93863740634 -0.077940149557 -0.25822348655 -0.95649311661 -0.13080500233 -0.1875539744 -0.96005576634 -0.18679561243 
-0.11644667227 -0.96216264137 -0.24310458671 -0.05307961887 -0.95044974253 -0.29513683806 0.0094193692516 -0.9371869625 -0.34668945693 
0.05624729139 -0.9167770873 -0.39001833463 0.10115329034 -0.89549068157 -0.4323386403 0.12919215807 -0.87376077395 -0.4665097884 
0.15498207496 -0.85197173274 -0.49959438216 0.16666354309 -0.83335372117 -0.52600703419 0.1763101388 -0.81519306963 -0.55145738695 
0.17571875812 -0.8014622165 -0.57118912152 0.17353701218 -0.7884194874 -0.59003252706 0.16475110338 -0.78028456963 -0.60309155442 
0.15486450078 -0.77296762042 -0.61518651875 0.14122383126 -0.77119588195 -0.62055897594 0.12691412011 -0.77041239885 -0.62473336255 
0.11059762002 -0.77620846376 -0.62041244425 0.093899830033 -0.7832546428 -0.61447741803 0.075566443247 -0.79805627702 -0.59699970723 
0.056902632867 -0.81442466987 -0.57719014095 0.035390247339 -0.83887779393 -0.5406616362 0.013267452851 -0.8650633604 -0.50055050177 
-0.014484116471 -0.89631937999 -0.43555358762 -0.043512315138 -0.92872539926 -0.36491247601 -0.081432659624 -0.95452895493 -0.26045667645 
-0.12148341405 -0.97875067035 -0.14789944124 -0.1698359537 -0.97290615702 -0.0048552160513 -0.22028578647 -0.95946596483 0.14589098555 
-0.2703276658 -0.90023397236 0.29593604046 -0.32026104686 -0.82882330959 0.44579462019 -0.36114194723 -0.72985612002 0.56039793726 
-0.39949204654 -0.62318495522 0.66514494435 -0.42867109522 -0.51774441834 0.73085920664 -0.45515863991 -0.41266504402 0.78511820688 
-0.47552999523 -0.32148835447 0.81399470056 -0.49401944612 -0.23458941409 0.83506119223 -0.50791947995 -0.16281280104 0.84327294561 
-0.52034070161 -0.095908937914 0.84734261666 -0.52814521917 -0.042008561094 0.84672606418 -0.53439354432 0.0075086180939 0.84452988577 
-0.53515560047 0.046423167761 0.84278611024 -0.53398499367 0.08160270021 0.8412017039 -0.52593722083 0.10807012267 0.84326167697 
-0.51535991565 0.13133309088 0.84666211143 -0.49597579833 0.14702960354 0.85536519861 -0.47321232287 0.15982270882 0.86610302463 
-0.43893317766 0.16491951929 0.88228463098 -0.40004776456 0.16693781183 0.90064374945 -0.34614308563 0.15968180156 0.92236307251 
-0.28598037928 0.14856149845 0.9454824808 -0.20784838154 0.12541651234 0.96604224364 -0.12192247429 0.097056001075 0.98549179882 
-0.020036623536 0.054943365314 0.99178560455 0.08905066513 0.0066255026466 0.99214327945 0.20161174339 -0.051746830687 0.96969065761 
0.31580250072 -0.11483607618 0.93653690891 0.41557360652 -0.17863628641 0.88341177437 0.5083151322 -0.24278309194 0.82055058922 
0.57827333346 -0.3001098026 0.75187684715 0.63669567426 -0.35398330066 0.68026003827 0.67587117061 -0.3996248891 0.61463318737 
0.70492973591 -0.44093944812 0.55215490411 0.72147928862 -0.47601667097 0.50000231523 0.73120574355 -0.50769171046 0.45348192328 
0.73344845394 -0.53530430517 0.41729263552 0.73145694046 -0.56061841139 0.38694857777 0.72492842376 -0.58323903511 0.36554965261 
0.71573819852 -0.60427948243 0.34939853857 0.70360813595 -0.6233378078 0.34047922944 0.68969033447 -0.64119078874 0.3359576395 
0.67378562431 -0.65733965201 0.33683159833 0.65662888951 -0.67241468771 0.34110549199 0.63825069396 -0.68589232507 0.34879882064 
0.61907515599 -0.69832721629 0.35872428046 0.59928071767 -0.70952300885 0.36997427365 0.57906786786 -0.71988110092 0.38211972601 
0.55865237777 -0.72966756883 0.39365350947 0.53809503948 -0.73905389984 0.4047591247 0.51746442457 -0.7486827127 0.41379196195 
0.49678071066 -0.75848723705 0.42132278617 0.47576978374 -0.76926308281 0.42590272889 0.45451344709 -0.78076741965 0.42826951047 
0.43256750797 -0.79344970849 0.42749595616 0.41008635502 -0.80704622873 0.42428512621 0.38672209704 -0.82141541034 0.41835538677 
0.36264867898 -0.83640506242 0.41024228061 0.33801566886 -0.8512662953 0.40039008267 0.31291776689 -0.86602084144 0.38909310079 
0.2882958155 -0.87959290458 0.37749474144 0.26408288415 -0.89214877137 0.36563738581 0.24191880205 -0.90274499353 0.35506583509 
0.2215759193 -0.91159930934 0.34563722207 0.20508382948 -0.91808791925 0.33896535546 0.19213198477 -0.92240160601 0.33482791701 
0.1847664993 -0.92409587288 0.33450864192 0.1827126341 -0.92329954381 0.33781975168 0.18781059993 -0.91930676281 0.34546284802 
0.19994119962 -0.91217080409 0.35736573118 0.22044942265 -0.90048336298 0.37335735727 0.24947726264 -0.88416729571 0.39350702703 
0.28708671903 -0.86113344074 0.41625169316 0.33372166854 -0.83103432627 0.44172557963 0.38678833973 -0.79237491195 0.46666236569 
0.44685091871 -0.74440429427 0.49101493726 0.50830397366 -0.68883225707 0.51100215331 0.5713213141 -0.62470862291 0.5260783444 
0.63019073844 -0.55788112524 0.53482764482 0.68423349678 -0.48790731365 0.53621474519 0.7315967851 -0.42105979667 0.53245327935 
0.77091997061 -0.35797541206 0.52249446528 0.80426485124 -0.30107221851 0.51009319823 0.83016505031 -0.25186635722 0.49465038596 
0.85187328764 -0.20881301566 0.47907067204 0.86818034349 -0.17368695913 0.46331456561 0.88179789045 -0.14311053693 0.44873412651 
0.89182942555 -0.11860029383 0.43572124385 0.90011373736 -0.096610610419 0.42444961032 0.90598688104 -0.078099299386 0.41558090059 
0.91058758908 -0.060023002542 0.40866973965 0.91337053192 -0.042568154542 0.40455507696 0.91505618122 -0.023785375141 0.40227806503 
0.91511875048 -0.0030383638778 0.40271924483 0.91404142309 0.020221394702 0.40451992629 0.91121787104 0.047330468322 0.40840324859 
0.90701909897 0.077277829242 0.41298255937 0.90063791254 0.11172942871 0.41866637362 0.89277754307 0.14811686379 0.42421866004 
0.88248473929 0.187687673 0.42955465627 0.87114145129 0.22718910531 0.43410501463 0.85800756518 0.26657228153 0.43731621754 
0.84486291518 0.30355427624 0.43968170187 0.83169924061 0.3362923222 0.44055242777 0.81975814192 0.36500018575 0.44096577588 
0.81005843238 0.38631938152 0.44054059802 0.80231638781 0.40305236721 0.44021719356 0.79829868149 0.41106036788 0.44008740681 
0.79612758939 0.41483850935 0.44053993556 0.79760356038 0.4102626789 0.44214253741 0.80015018838 0.40247571551 0.44456440723 
0.80489303586 0.38810181277 0.44866682671 0.80966998031 0.37194024587 0.45369666644 0.81451960513 0.35196813165 0.46070337567 
0.81851018691 0.33179703866 0.46869050097 0.8205969436 0.31118496568 0.47885044027 0.82127467274 0.29180414357 0.49002001025 
0.81870381058 0.27526203872 0.50351733987 0.81455202974 0.2608744584 0.51791559657 0.80660604409 0.25165773698 0.53447607828 
0.79718587782 0.2448835357 0.55160888092 0.78408026002 0.24421563479 0.5701724859 0.76985125783 0.24563659198 0.58877809208 
0.75269464786 0.25250123997 0.60749315595 0.73511201765 0.26055602522 0.62559615959 0.71637114493 0.27184649613 0.64203512451 
0.69820602131 0.28310014037 0.65735418821 0.68167528221 0.29424924442 0.66949417749 0.66681186528 0.30418577607 0.68025865125 
0.65689483747 0.31052500958 0.68694242895 0.64937935278 0.31479205682 0.69224991154 0.64931693293 0.31262818114 0.69328613345 
0.65171049027 0.30789953623 0.69307109839 0.66208597349 0.29483539134 0.68878947818 0.67426873141 0.2792187269 0.68336561998 
0.69260961054 0.25490458844 0.67404969159 0.71157760694 0.22852707954 0.66388470604 0.73278875359 0.19476905327 0.6506827083 
0.7534056851 0.15976398894 0.6372234977 0.77178836773 0.12007006157 0.62279716675 0.78879636747 0.079941095362 0.60882573247 
0.80036291415 0.038090100405 0.5966549308 0.8102264998 -0.003764153057 0.58556471381 0.81298207424 -0.045632007237 0.57898476335 
0.81388776112 -0.087507817275 0.57386290253 0.80663712561 -0.12941870541 0.57516989148 0.79725436244 -0.1716569819 0.57805311597 
0.77792167021 -0.21542307066 0.58829210627 0.75577409232 -0.2598748274 0.60003815102 0.71969283039 -0.30772064062 0.61924411525 
0.67961074269 -0.35634972902 0.63954574165 0.61847167716 -0.40910131835 0.6656140111 0.55200506161 -0.46193207751 0.69160673665 
0.45564497092 -0.51520706737 0.71717557702 0.35410260861 -0.56658698394 0.74057196837 0.2214666166 -0.60659646074 0.75093366566 
0.08722426987 -0.64273033544 0.75757204584 -0.057358985373 -0.65391502166 0.74024157217 -0.19877906983 -0.66172198952 0.72029219638 
-0.31826783686 -0.64611011009 0.68218509918 -0.43297914853 -0.62940616444 0.64381080484 -0.51185954502 -0.60451172214 0.60343253187 
-0.58698669421 -0.58015336587 0.56406915617 -0.63151044232 -0.56016617255 0.53298109666 -0.67357386582 -0.54128676574 0.50313582628 
-0.69369939485 -0.53228512197 0.48437209221 -0.71217702061 -0.52439289465 0.4666955869 -0.71447523232 -0.52739311964 0.45969369134 
-0.71554346063 -0.53124644055 0.45356404043 -0.70320486985 -0.54439850703 0.45694185612 -0.68988035095 -0.558010946 0.46099719517 
-0.66450559928 -0.57725015978 0.47333337538 -0.63841242507 -0.59647653012 0.48618519046 -0.6023511382 -0.61552469783 0.50619143946 
-0.56590357481 -0.634121777 0.52662525505 -0.52327558692 -0.64550143942 0.55390013612 -0.48059783779 -0.65613204919 0.58155624148 
-0.4369829186 -0.65265550062 0.61639207119 -0.39354151357 -0.64828235705 0.65155592989 -0.35405623123 -0.62346684727 0.69419884936 
-0.31482174473 -0.59772938744 0.73702392381 -0.2827976385 -0.54548586378 0.78508595337 -0.251000603 -0.49246799377 0.83306819481 
-0.22798363593 -0.40950873185 0.87796529561 -0.20511821198 -0.32613546655 0.92257379492 -0.1911180607 -0.21854300326 0.95029910727 
-0.17723555775 -0.11185467832 0.9777914338 -0.17723555775 -0.11185467832 0.9777914338 -0.17723555775 -0.11185467832 0.9777914338 

FrenetNormal 3 240 double
-0.87087881517 0.48099889801 0.1010452839 -0.87087881517 0.48099889801 0.1010452839 -0.87087881517 0.48099889801 0.1010452839 
-0.84978161169 0.51973659443 0.068090093972 -0.82850561835 0.55880257642 0.034855622777 -0.81500943989 0.57633001332 -0.017658348319 
-0.80164624971 0.59348926997 -0.070501883515 -0.78633893812 0.5683853457 -0.2003899936 -0.77098134752 0.54218840814 -0.33227063579 
-0.51429411414 0.24650862115 -0.64076456374 -0.24921280622 -0.058544482349 -0.95540156249 0.076666937349 -0.29506159142 -0.85389546732 
0.40521327897 -0.52857273583 -0.73413748206 0.49018475408 -0.55372740753 -0.66585879752 0.56222305044 -0.5678189037 -0.60031352718 
0.59894333237 -0.54642254914 -0.58373730278 0.63345623841 -0.52280820392 -0.57022164376 0.66263581126 -0.47831685916 -0.57371582034 
0.69143099974 -0.43232086578 -0.57843593102 0.71752752761 -0.36603701664 -0.58802588702 0.74340325598 -0.29809325203 -0.5980142849 
0.76131063975 -0.21295574205 -0.60595083716 0.77848698273 -0.12624082423 -0.61369914669 0.77994994492 -0.032170984858 -0.61777586095 
0.77981247018 0.062647966896 -0.62147861643 0.75856745647 0.15226634219 -0.6268152544 0.73495524212 0.24130147526 -0.63233513154 
0.68522680252 0.31792985931 -0.64859244138 0.63229542964 0.39303666094 -0.66616660619 0.54005295202 0.45311346372 -0.69929055444 
0.44256899377 0.51118626665 -0.73448780715 0.28724166004 0.54351197844 -0.77034705196 0.12357153178 0.57212416747 -0.80630177639 
-0.09112485975 0.54970625716 -0.79963002848 -0.31374766111 0.51936134111 -0.78633669264 -0.53916331593 0.4105949785 -0.67876283707 
-0.76504444633 0.28875837479 -0.55547556155 -0.87779488227 0.083824129134 -0.30392475732 -0.97038341226 -0.13591959727 -0.029515106395 
-0.87878346306 -0.29655708329 0.21493461679 -0.75218770281 -0.44596438365 0.4536919537 -0.62988026055 -0.49256691025 0.57902812735 
-0.50843914516 -0.51840079568 0.6814509347 -0.43976585927 -0.49745905524 0.74313987627 -0.38239996541 -0.4664939664 0.79610013232 
-0.3553076041 -0.40223339029 0.8395770754 -0.33508140481 -0.33042126038 0.880903164 -0.3266008459 -0.22075226808 0.91113358255 
-0.32093434665 -0.10201340251 0.93870566349 -0.31274803595 0.049932030706 0.9352340011 -0.30392514129 0.21026649153 0.92391970882 
-0.28766251406 0.37099427872 0.86579576613 -0.26942123454 0.53182667399 0.79522244832 -0.2515583983 0.65677354201 0.6932917938 
-0.23380136342 0.77168789703 0.58259457202 -0.22252324399 0.8453970588 0.46840032496 -0.2131465454 0.90701339211 0.35317977699 
-0.20644056837 0.9405439171 0.25088801107 -0.20055635183 0.9654326549 0.15257433192 -0.18771049594 0.97679709254 0.075535809038 
-0.17262144515 0.98380370013 0.0053526142838 -0.13402839053 0.98891615818 -0.034532767439 -0.087512637987 0.99339013887 -0.064205403196 
0.017937371557 0.99066662412 -0.043068572049 0.14414831255 0.98540762804 -0.0040329514237 0.34667028759 0.88714784198 0.10273739793 
0.57726068895 0.75468086881 0.2344216705 0.72567761593 0.53912582127 0.32773831824 0.84256286088 0.29168814055 0.40633250527 
0.88858797552 0.11604311471 0.42019954404 0.90626903804 -0.030884849166 0.4081757235 0.91588845857 -0.13284293751 0.36665363194 
0.9221488616 -0.21606357772 0.31284059411 0.9247839806 -0.28152515342 0.23549538631 0.92584668725 -0.33928400235 0.14794345418 
0.91381712892 -0.3859450849 0.039829452417 0.89588008517 -0.42759863871 -0.077562556379 0.85634730553 -0.45622008739 -0.20239496107 
0.806683193 -0.47872770897 -0.33071792187 0.73720345376 -0.4910945977 -0.44609178576 0.6580635965 -0.49851787917 -0.55515296491 
0.57108238029 -0.50250194274 -0.63977322644 0.48013085577 -0.50474463014 -0.71201833982 0.38778801152 -0.51303977547 -0.75994498182 
0.29471383256 -0.52451634097 -0.79508883758 0.19664556177 -0.54899461382 -0.8062912769 0.095853240898 -0.58056472703 -0.80443476181 
-0.019776344259 -0.62575290018 -0.76768977955 -0.14380069737 -0.6786460283 -0.71120526981 -0.28201061042 -0.72468474008 -0.59657518904 
-0.42854271863 -0.76670219428 -0.44783303993 -0.54912620436 -0.76290760708 -0.26179633111 -0.65393012236 -0.73125434606 -0.053080498135 
-0.71431767934 -0.6712058553 0.11896693851 -0.74671684444 -0.59326448005 0.26790826241 -0.76362417076 -0.52349865957 0.36788095337 
-0.770418769 -0.45906965957 0.43588800894 -0.7797801726 -0.41452247965 0.4681245946 -0.79087688123 -0.38341653021 0.47617832738 
-0.8073589227 -0.37201938572 0.45619649274 -0.82761069717 -0.37441840469 0.41658976092 -0.84667991183 -0.3930440431 0.34767479694 
-0.8648921991 -0.4234281014 0.25752198355 -0.87055067285 -0.45484712149 0.15091989747 -0.86679378646 -0.48704236293 0.031980856878 
-0.85492436395 -0.50584973764 -0.073835774107 -0.83675864474 -0.51426652922 -0.16946784838 -0.82157229543 -0.5116608844 -0.24517368708 
-0.80877847044 -0.50020388915 -0.3048781548 -0.80311895097 -0.48254412081 -0.34792787588 -0.80338639301 -0.45973127943 -0.37714134589 
-0.80905887398 -0.43459716345 -0.39476118971 -0.81937631027 -0.40746820208 -0.40241776104 -0.83552915264 -0.37953063831 -0.39566170547 
-0.85686902262 -0.35087431684 -0.37609442599 -0.89353044519 -0.30896915938 -0.2959152316 -0.94427781127 -0.25488362046 -0.16001217995 