# vtk DataFile Version 5.1
vtk output
ASCII
DATASET POLYDATA
POINTS 240 float
0 0 0 -0.273298 -0.00279682 0.108163 -0.546596 -0.00559364 0.216325 
-0.830082 -0.0671 0.355369 -1.11365 -0.129104 0.494675 -1.40262 -0.239877 0.649621 
-1.69168 -0.351484 0.804835 -1.98138 -0.501823 0.960715 -2.2711 -0.653165 1.11661 
-2.55682 -0.832666 1.25855 -2.84239 -1.01315 1.40001 -3.11941 -1.21021 1.51359 
-3.39607 -1.40799 1.62596 -3.65993 -1.60958 1.69792 -3.92312 -1.81137 1.76773 
-4.16995 -2.00363 1.78704 -4.41575 -2.1953 1.8032 -4.64272 -2.36511 1.76247 
-4.86833 -2.53336 1.71763 -5.07427 -2.67079 1.61433 -5.27859 -2.8057 1.50624 
-5.46447 -2.90659 1.34361 -5.64866 -3.00437 1.17598 -5.81787 -3.07216 0.963083 
-5.98555 -3.1369 0.745581 -6.14366 -3.18267 0.496412 -6.3007 -3.22632 0.243692 
-6.45461 -3.26668 -0.0247055 -6.60813 -3.30663 -0.295025 -6.7645 -3.36001 -0.564965 
-6.92126 -3.41518 -0.834854 -7.0846 -3.49772 -1.09055 -7.24889 -3.5842 -1.3442 
-7.41966 -3.70667 -1.57385 -7.59144 -3.83473 -1.79978 -7.76497 -4.00121 -1.99685 
-7.9388 -4.1741 -2.18911 -8.10538 -4.38246 -2.35258 -8.27068 -4.59714 -2.51093 
-8.41718 -4.8407 -2.64476 -8.56011 -5.08975 -2.77393 -8.67277 -5.35937 -2.88589 
-8.77931 -5.63314 -2.99437 -8.847 -5.91905 -3.09468 -8.90637 -6.20756 -3.19324 
-8.92338 -6.5007 -3.29323 -8.93078 -6.79489 -3.39353 -8.8981 -7.08762 -3.50429 
-8.85581 -7.37999 -3.61755 -8.78053 -7.66623 -3.74857 -8.69692 -7.95091 -3.88408 
-8.59013 -8.22602 -4.04171 -8.47716 -8.49858 -4.20521 -8.35091 -8.75907 -4.39087 
-8.22094 -9.01618 -4.58273 -8.08561 -9.25944 -4.7914 -7.94871 -9.49864 -5.00499 
-7.8114 -9.72289 -5.22428 -7.67398 -9.94254 -5.44532 -7.53834 -10.1466 -5.65601 
-7.40328 -10.3456 -5.86336 -7.27047 -10.5286 -6.04167 -7.13842 -10.7063 -6.21018 
-7.00863 -10.8671 -6.33171 -6.87964 -11.022 -6.4367 -6.75341 -11.1586 -6.48121 
-6.62819 -11.2885 -6.50346 -6.5069 -11.3977 -6.4589 -6.38711 -11.4991 -6.3887 
-6.27279 -11.5778 -6.25359 -6.16066 -11.6473 -6.09252 -6.05541 -11.6929 -5.87589 
-5.95304 -11.7287 -5.63612 -5.85869 -11.7417 -5.35526 -5.76781 -11.7447 -5.05659 
-5.68597 -11.7282 -4.73367 -5.60821 -11.7029 -4.3998 -5.54074 -11.6627 -4.05821 
-5.47808 -11.6154 -3.713 -5.42739 -11.5572 -3.37446 -5.38253 -11.4938 -3.03916 
-5.35169 -11.4217 -2.72161 -5.32793 -11.3451 -2.41304 -5.3203 -11.2591 -2.12944 
-5.32113 -11.1682 -1.85894 -5.33973 -11.0648 -1.61636 -5.36802 -10.9544 -1.389 
-5.41453 -10.8281 -1.18807 -5.47136 -10.6928 -1.00209 -5.54498 -10.5398 -0.836877 
-5.62846 -10.3766 -0.683842 -5.72501 -10.1984 -0.542632 -5.82951 -10.0109 -0.408614 
-5.94136 -9.81515 -0.275848 -6.05782 -9.61409 -0.143873 -6.17488 -9.41466 -0.00306984 
-6.29233 -9.21628 0.143496 -6.40408 -9.03049 0.30641 -6.51197 -8.85321 0.480376 
-6.60973 -8.69817 0.674298 -6.70041 -8.55868 0.882188 -6.77923 -8.44792 1.10943 
-6.84947 -8.35797 1.35068 -6.90874 -8.29925 1.60714 -6.95979 -8.26397 1.875 
-7.00242 -8.25867 2.15171 -7.03852 -8.27666 2.43529 -7.06906 -8.32073 2.72054 
-7.09513 -8.38574 3.00715 -7.11779 -8.47186 3.2886 -7.13762 -8.57551 3.56577 
-7.15526 -8.69579 3.832 -7.17102 -8.83037 4.08882 -7.18532 -8.97873 4.33037 
-7.19834 -9.13933 4.55835 -7.21078 -9.31266 4.76856 -7.22267 -9.49769 4.96243 
-7.23512 -9.69553 5.13825 -7.24807 -9.90554 5.29691 -7.26255 -10.1284 5.43973 
-7.27853 -10.3639 5.567 -7.29625 -10.6114 5.68293 -7.31573 -10.8713 5.78735 
-7.33604 -11.141 5.88643 -7.3572 -11.4211 5.97991 -7.37729 -11.7081 6.07419 
-7.39618 -12.0026 6.16935 -7.41166 -12.3005 6.27016 -7.42328 -12.6024 6.37732 
-7.42945 -12.905 6.49257 -7.42927 -13.2083 6.61722 -7.4225 -13.5106 6.74952 
-7.40781 -13.8117 6.89104 -7.38658 -14.1113 7.03721 -7.3572 -14.409 7.18919 
-7.3224 -14.7059 7.3412 -7.28061 -15.0017 7.49323 -7.23518 -15.2979 7.64022 
-7.18488 -15.5946 7.78049 -7.13283 -15.8933 7.91144 -7.07839 -16.1945 8.02951 
-7.02369 -16.4986 8.13563 -6.96863 -16.807 8.22468 -6.91406 -17.1187 8.30124 
-6.86021 -17.4356 8.35932 -6.80667 -17.7557 8.40642 -6.75361 -18.0807 8.43667 
-6.69989 -18.408 8.45902 -6.64509 -18.7391 8.46881 -6.58806 -19.0712 8.47471 
-6.52736 -19.405 8.47421 -6.46261 -19.7381 8.47405 -6.39098 -20.0701 8.47446 
-6.31359 -20.3996 8.47902 -6.22604 -20.7248 8.49093 -6.13141 -21.0458 8.50993 
-6.0238 -21.359 8.54193 -5.90834 -21.6663 8.58285 -5.77794 -21.9625 8.64072 
-5.63955 -22.2515 8.70815 -5.48535 -22.5263 8.79448 -5.32358 -22.793 8.89003 
-5.14625 -23.043 9.00447 -4.96219 -23.2843 9.12704 -4.76378 -23.5072 9.2669 
-4.55976 -23.7212 9.41338 -4.34328 -23.9158 9.5745 -4.12237 -24.1018 9.74061 
-3.89124 -24.2681 9.91822 -3.65681 -24.4264 10.0993 -3.41445 -24.5654 10.2889 
-3.16976 -24.6972 10.4807 -2.91924 -24.8106 10.6781 -2.66715 -24.9175 10.877 
-2.41099 -25.0072 11.0794 -2.15382 -25.0909 11.2825 -1.89391 -25.1586 11.4875 
-1.63335 -25.2208 11.6926 -1.37097 -25.2675 11.8983 -1.10813 -25.309 12.1038 
-0.843953 -25.3352 12.3083 -0.579373 -25.3562 12.5121 -0.313549 -25.3612 12.7136 
-0.0472723 -25.3609 12.9137 0.220471 -25.3434 13.1093 0.488781 -25.3205 13.303 
0.75902 -25.2788 13.49 1.02995 -25.2315 13.6745 1.30333 -25.1642 13.8499 
1.57746 -25.0914 14.0223 1.85438 -24.9981 14.1839 2.13196 -24.8999 14.3427 
2.41213 -24.7822 14.4899 2.69266 -24.6605 14.6346 2.97466 -24.5223 14.7691 
3.25647 -24.3817 14.902 3.53741 -24.2299 15.0281 3.81737 -24.0773 15.154 
4.09273 -23.9208 15.2789 4.36618 -23.7651 15.405 4.63014 -23.6138 15.5376 
4.89126 -23.4648 15.6729 5.13746 -23.3278 15.8224 5.38012 -23.1939 15.9757 
5.60293 -23.0775 16.15 5.82192 -22.9643 16.3285 6.01799 -22.8705 16.5319 
6.21051 -22.7794 16.7392 6.38018 -22.7052 16.9715 6.54712 -22.6325 17.2068 
6.69521 -22.5709 17.4629 6.84182 -22.5096 17.7206 6.97738 -22.4514 17.9913 
7.11288 -22.3926 18.2623 7.2479 -22.3296 18.5364 7.38414 -22.2655 18.8098 
7.53128 -22.1927 19.0763 7.68053 -22.1191 19.3412 7.85051 -22.0362 19.5911 
8.02298 -21.9528 19.8392 8.22272 -21.8638 20.0671 8.42487 -21.7749 20.2932 
8.65639 -21.6871 20.4974 8.88984 -21.5999 20.7002 9.15018 -21.5225 20.883 
9.41178 -21.4463 21.0647 9.69372 -21.3893 21.2309 9.97624 -21.3339 21.3965 
10.2698 -21.3077 21.553 10.5633 -21.2832 21.7093 10.8567 -21.2973 21.8636 
11.1496 -21.3132 22.0181 11.4303 -21.3768 22.1783 11.7103 -21.4418 22.3388 
11.9656 -21.5631 22.5127 12.2202 -21.6856 22.687 12.4375 -21.8726 22.8823 
12.6543 -22.0602 23.0779 12.8208 -22.3207 23.3025 12.9872 -22.5812 23.5271 

LINES 2 240
OFFSETS vtktypeint64
0 240 
CONNECTIVITY vtktypeint64
0 1 2 3 4 5 6 7 8 
9 10 11 12 13 14 15 16 17 
18 19 20 21 22 23 24 25 26 
27 28 29 30 31 32 33 34 35 
36 37 38 39 40 41 42 43 44 
45 46 47 48 49 50 51 52 53 
54 55 56 57 58 59 60 61 62 
63 64 65 66 67 68 69 70 71 
72 73 74 75 76 77 78 79 80 
81 82 83 84 85 86 87 88 89 
90 91 92 93 94 95 96 97 98 
99 100 101 102 103 104 105 106 107 
108 109 110 111 112 113 114 115 116 
117 118 119 120 121 122 123 124 125 
126 127 128 129 130 131 132 133 134 
135 136 137 138 139 140 141 142 143 
144 145 146 147 148 149 150 151 152 
153 154 155 156 157 158 159 160 161 
162 163 164 165 166 167 168 169 170 
171 172 173 174 175 176 177 178 179 
180 181 182 183 184 185 186 187 188 
189 190 191 192 193 194 195 196 197 
198 199 200 201 202 203 204 205 206 
207 208 209 210 211 212 213 214 215 
216 217 218 219 220 221 222 223 224 
225 226 227 228 229 230 231 232 233 
234 235 236 237 238 239 
CELL_DATA 1
FIELD FieldData 3
Length 1 1 double
74.421172688 
Tortuosity 1 1 double
1.1201818863 
ClusterLabel 1 1 int
3 
POINT_DATA 240
FIELD FieldData 6
Curvature 1 240 double
0 0.16283892092 0.32567784185 0.26789126833 0.20823498723 0.17696634977 0.14618297117 0.13421864921 0.12274102698 
0.12581865966 0.12940256207 0.14716911745 0.16555771901 0.20107534575 0.23750247825 0.29368381287 0.35109978512 0.41382749192 
0.47693802644 0.49805440171 0.51573489122 0.46489291396 0.40776447185 0.32210990046 0.23354988998 0.15527853754 0.078161053289 
0.072510360541 0.075624462977 0.12186120617 0.17384763479 0.21428563036 0.25305798654 0.2720668627 0.2880056837 0.28563793863 
0.28021909922 0.26915184336 0.25707793903 0.2516665947 0.24752113678 0.25202910624 0.25828524286 0.26438514168 0.27045156097 
0.26701493338 0.26142297557 0.2464110309 0.22914221439 0.20970185072 0.18971288567 0.17211088893 0.15514372421 0.13896933461 
0.12301658107 0.10459099827 0.085439693836 0.066630926078 0.04792755422 0.070717306181 0.10687706471 0.20331745583 0.32007716132 
0.55670912088 0.83556880631 1.1827849806 1.5551437715 1.5338084261 1.3614044004 1.0629328827 0.7140343681 0.49817320309 
0.33774426707 0.24518433416 0.18206155924 0.14480207979 0.11921262389 0.10674694193 0.10043809217 0.10534208332 0.11571233441 
0.14103489013 0.17392823302 0.22607989395 0.28835451695 0.35421244545 0.42202490424 0.44790425938 0.45005830587 0.39896215816 
0.31662589652 0.22319002087 0.12300437993 0.08692041399 0.091229284352 0.1378450734 0.21207787881 0.28081718769 0.34584258343 
0.39486131609 0.43267538457 0.44463562888 0.43786121799 0.413595127 0.37621027595 0.33780723854 0.29861396696 0.26701658014 
0.24151891895 0.22538841738 0.2170398638 0.21768611995 0.22606229071 0.24077196092 0.26111140844 0.27954922154 0.29623875783 
0.29952954538 0.29008053906 0.26559902433 0.22633554302 0.18111386892 0.12983301571 0.084070632996 0.044112158897 0.031951871666 
0.05002820875 0.067632395576 0.084705413364 0.095164581316 0.097927633096 0.095278347849 0.086114212477 0.075391634707 0.062728355081 
0.057335656193 0.061310820946 0.072148283325 0.092135475872 0.11113219847 0.12876207254 0.14151466694 0.14729971893 0.14711335166 
0.13809426006 0.12492989163 0.10541531192 0.085269622329 0.064122388817 0.050409198358 0.048920878697 0.055667528061 0.076451056444 
0.098028507401 0.12100917035 0.14268261927 0.16195950914 0.17879653185 0.19099185606 0.20027458454 0.20380493642 0.20484825471 
0.2007899656 0.19522832409 0.18646216824 0.17723978454 0.16700630126 0.15682818207 0.14677770786 0.13711326612 0.12837530233 
0.12019790468 0.11342192238 0.10706169111 0.10178493219 0.097171988035 0.094363790255 0.0921196274 0.09147659595 0.091551370301 
0.093755635196 0.096528341089 0.10106517421 0.10601786563 0.1123220965 0.1184529842 0.12399322112 0.12885342852 0.13128122264 
0.13234039056 0.12825352395 0.1228014741 0.11194557391 0.099754696409 0.081991739687 0.063980811412 0.04487655402 0.031198033673 
0.042839619534 0.058115051052 0.091378018571 0.12513908833 0.16152174883 0.19647565424 0.22341265608 0.24657323916 0.24707530979 
0.24363684127 0.21483115201 0.18398839262 0.13902194699 0.09494245982 0.057515161035 0.027650912495 0.059454612095 0.091288745623 
0.12339424835 0.1542095087 0.17235693491 0.18917709137 0.19153000764 0.19301319619 0.18386637938 0.1746523752 0.16450614617 
0.15493234202 0.15451733573 0.15483335268 0.16891697406 0.18351335823 0.20980073391 0.23623264689 0.26682000714 0.29717131928 
0.31839543793 0.33919914861 0.33540899268 0.33026302703 0.16513151352 0 
Torsion 1 240 double
0 0 0 -0.15688344695 -0.31509641464 -0.38154128252 -0.44641746492 -0.48895031809 -0.53090532653 
-0.51685658196 -0.50085988076 -0.45110426196 -0.39986798887 -0.34676539786 -0.29356371032 -0.2469566993 -0.20076185558 -0.16372122499 
-0.12734035751 -0.10036060393 -0.074150032389 -0.047416296783 -0.020634564473 0.042616868806 0.10958280867 0.72581887111 1.4036553211 
1.2636096804 1.0232577455 0.59371761685 0.13895239575 0.023799550486 -0.042370740567 -0.094527949901 -0.14450836984 -0.20979969234 
-0.27764283193 -0.35539914412 -0.43492216034 -0.48008960642 -0.51872949417 -0.50430732415 -0.47916554649 -0.44704008025 -0.41341810932 
-0.40109560424 -0.39360390586 -0.40243857441 -0.41518476839 -0.41900648736 -0.42057360213 -0.3864142102 -0.34275308776 -0.26079426499 
-0.16812855826 0.022691423535 0.24231755127 1.2866232415 2.5846764895 2.1155206482 1.0769307671 0.58006561296 0.26580429934 
0.12907841517 0.054893420908 0.019028338309 -0.00274206414 -0.018983093416 -0.033102386475 -0.052479076757 -0.073958725928 -0.082443213115 
-0.085513049475 -0.069900741783 -0.046185335465 -0.014350637046 0.021147644395 0.040143018993 0.051396289145 0.030876828248 -0.0051318390365 
-0.041601658776 -0.078304973429 -0.090639397938 -0.090164534038 -0.08138773591 -0.068082610022 -0.053884575911 -0.039181343725 -0.012230913558 
0.021904539424 0.30720200046 0.74523311504 0.82202181997 0.67117832156 0.43070578847 0.13172541329 -0.0090278018412 -0.042810542581 
-0.066544955045 -0.083245537716 -0.099579912146 -0.11564891828 -0.13117358305 -0.14628999178 -0.15611279246 -0.16182712121 -0.15852879803 
-0.14799304221 -0.13327158406 -0.11507277319 -0.1025261972 -0.094837010557 -0.091331720916 -0.091545450834 -0.089874638266 -0.086471262443 
-0.07959481901 -0.069416114569 -0.051011759547 -0.024518848119 0.047995595374 0.1673115969 1.3601013461 3.681889347 3.8190671403 
1.5800022513 0.29575939179 0.085691315311 -0.06245614297 -0.13855051825 -0.24448079751 -0.38632466488 -0.6449950258 -1.0491474353 
-1.2333496171 -1.1341543902 -0.92779473253 -0.57854916719 -0.32784299113 -0.21312117231 -0.12372540901 -0.070509725025 -0.018088706828 
0.033156868226 0.10864310567 0.22126397488 0.4693944516 0.93257278374 1.2526382872 1.3373626946 1.1989191843 0.68007581434 
0.30630736434 0.18895040076 0.099462634515 0.061068396728 0.029799781029 0.012087226861 -0.0032275784303 -0.01380682969 -0.023368199742 
-0.030841608344 -0.037656945731 -0.04306955237 -0.047520462988 -0.04984004729 -0.051522037441 -0.051734018856 -0.051161727947 -0.04870718346 
-0.046092823922 -0.043078926754 -0.041575446046 -0.044008202176 -0.048135774363 -0.056871127704 -0.067023601342 -0.081198868081 -0.095189788229 
-0.10863381349 -0.12009195969 -0.12538703295 -0.12815320751 -0.12270046133 -0.11571456116 -0.10350458071 -0.090600513728 -0.075213752636 
-0.059415683355 -0.042071095284 -0.021181656388 0.013739483695 0.065481626209 0.18743317017 0.47381641322 1.4851939659 2.1855332166 
1.4343603916 0.75188327015 0.40944988089 0.11154929005 0.048031848786 -0.0097542367282 -0.035381048306 -0.060302645681 -0.080992957833 
-0.10391266108 -0.14118406949 -0.19302454599 -0.3458772279 -0.81138105769 -3.6217684967 -5.820600921 -3.0329078414 -0.51355995653 
-0.38695672387 -0.27147894695 -0.26523291733 -0.26164646747 -0.28704943688 -0.3150742857 -0.37514432746 -0.43670110387 -0.5188863236 
-0.5974824828 -0.61865367348 -0.63490261809 -0.55844926149 -0.48153566482 -0.39412859422 -0.3076933579 -0.24919835716 -0.19133899858 
-0.15805780377 -0.12428712031 -0.061881351043 0 0 0 
FrenetTangent 3 240 double
-0.90870610383 -0.10574248804 0.40382142476 -0.90870610383 -0.10574248804 0.40382142476 -0.90870610383 -0.10574248804 0.40382142476 
-0.88397412523 -0.18205914457 0.42247812324 -0.8590325536 -0.25902255243 0.44129292934 -0.83861785592 -0.31475694736 0.44061291945 
-0.81828054069 -0.37012845317 0.43959966484 -0.8045866855 -0.4125314875 0.4245606501 -0.79106464394 -0.45459913032 0.40915890017 
-0.78404938109 -0.48812595066 0.38079549852 -0.77726044098 -0.52135569892 0.35198125682 -0.77638757176 -0.54728578061 0.30832589856 
-0.77577417933 -0.57289570149 0.26401961414 -0.77974391906 -0.58932271109 0.20063825806 -0.78395701094 -0.60526213247 0.13624406631 
-0.7887516796 -0.60616134644 0.047754017786 -0.79358269682 -0.60612054745 -0.04224202179 -0.78966795371 -0.58161261799 -0.15550725446 
-0.78512288553 -0.55534129175 -0.27044954608 -0.76084398389 -0.50066114398 -0.39001421237 -0.73495049588 -0.44365663808 -0.50995707295 
-0.69228007164 -0.37436109054 -0.60432621227 -0.64807047895 -0.3039379245 -0.69634913862 -0.60525876112 -0.24723150401 -0.75166813158 
-0.56258941943 -0.19192215945 -0.80324876095 -0.53478247082 -0.16387585282 -0.82787827861 -0.50864233265 -0.13888708315 -0.84948524168 
-0.49982886485 -0.14271422987 -0.85422372714 -0.49314036606 -0.15007540408 -0.85689343704 -0.49983656694 -0.18336901232 -0.84554851888 
-0.50831739445 -0.22012027842 -0.83233498365 -0.52220900375 -0.27664565581 -0.80381583405 -0.53688101427 -0.33602306847 -0.77308914391 
-0.5467054607 -0.40480637544 -0.7280619894 -0.55577688747 -0.47505079221 -0.68081340353 -0.55163484142 -0.54355790966 -0.62656315499 
-0.54529054991 -0.61177547722 -0.57114596268 -0.52215128486 -0.67191717103 -0.51882965225 -0.4960188562 -0.73061960022 -0.46706597423 
-0.45275872995 -0.7797383633 -0.42564014004 -0.40624434115 -0.82703622982 -0.38617849617 -0.34392227214 -0.86372938733 -0.36026947311 
-0.27840673238 -0.8982801794 -0.33709835324 -0.20163491878 -0.91934659997 -0.32813159625 -0.12245104649 -0.93752351236 -0.3222086313 
-0.041409485791 -0.93979113453 -0.32942401705 0.040053406304 -0.93845046407 -0.33961923492 0.11229120569 -0.92301508925 -0.36029906569 
0.18231882661 -0.90420285818 -0.38349083496 0.23634224409 -0.87697177455 -0.41334738449 0.28632249439 -0.8476138229 -0.44488766797 
0.32007000197 -0.81572051891 -0.47870663723 0.34950029074 -0.78315291909 -0.51313163995 0.3670177028 -0.75225438875 -0.54532108581 
0.3812046332 -0.72182247999 -0.57688553727 0.38971088727 -0.69607749927 -0.60205606735 0.39654998633 -0.67170803005 -0.62535012051 
0.40421514388 -0.65464612551 -0.63850178299 0.41213447327 -0.63983270239 -0.64853270988 0.42708442107 -0.63486055011 -0.64356530778 
0.44429979036 -0.63305947397 -0.63376511078 0.47463311823 -0.64296614986 -0.59848474099 0.50938822988 -0.65681925901 -0.5546155489 
0.56016379405 -0.67784527895 -0.45962198278 0.61658292671 -0.70139811973 -0.34661869397 0.6638651255 -0.69747551991 -0.1498303866 
0.70778661299 -0.68344701091 0.077775398863 0.68679442868 -0.60148902747 0.31545542653 0.64089350985 -0.49346508291 0.55700115178 
0.56799052977 -0.37829395739 0.70886531174 0.48428672519 -0.2602639595 0.82485684559 0.41656324077 -0.17007122508 0.88711955891 
0.35549822309 -0.091477350455 0.92699526367 0.30939091543 -0.032401405125 0.94830866812 0.26977128921 0.018208932316 0.96157095436 
0.23821657875 0.058020549435 0.96853126904 0.21030091563 0.092959573237 0.97264801119 0.18535288533 0.12260295298 0.97439436314 
0.16179707783 0.14976195649 0.97502868018 0.13717082798 0.17628180653 0.97412596076 0.11202273747 0.20249006925 0.97247393606 
0.08189281725 0.23322767702 0.96795718671 0.049240451596 0.26625862406 0.96198994388 0.007919459866 0.30915319821 0.94878261903 
-0.037958117366 0.35723249943 0.93176961003 -0.092861022089 0.4157386717 0.90021208442 -0.15268683272 0.47993222817 0.86072118612 
-0.2131946376 0.54384938222 0.80518534847 -0.27408830764 0.6076101507 0.74057145303 -0.32376739602 0.6573979754 0.67539592094 
-0.36686726314 0.69898833976 0.60989089535 -0.39607566927 0.72469660611 0.5623026458 -0.41683656533 0.74074683989 0.52560973302 
-0.42734558589 0.74463764093 0.5126993726 -0.43139452053 0.74086633369 0.51477527806 -0.42761449509 0.72512381977 0.5381649142 
-0.41872389849 0.70156676817 0.57546768009 -0.40219374194 0.66256020666 0.62736345765 -0.38049881248 0.61310890606 0.68912493323 
-0.35176246484 0.54607254383 0.75375819994 -0.31809712447 0.46672663844 0.82040172044 -0.28126670844 0.37545535361 0.87659953314 
-0.24214275931 0.27554248947 0.92522799236 -0.20564432321 0.1753219686 0.95779044403 -0.17111502187 0.074870705179 0.97830339005 
-0.14236026375 -0.017856716838 0.98631188236 -0.11808724065 -0.10458951568 0.98461542552 -0.099127016565 -0.18257810411 0.97593002328 
-0.084433131084 -0.25354482661 0.96163228608 -0.073137757226 -0.31863519268 0.94328875459 -0.064665762253 -0.37884366264 0.92158410169 
-0.058040254617 -0.43685571448 0.8958825797 -0.053001572034 -0.49298021948 0.86674624836 -0.049315325545 -0.54936555967 0.83186457416 
-0.046831244472 -0.60598275337 0.79187592852 -0.045965831424 -0.66220713719 0.74479807665 -0.046588548659 -0.71807038935 0.69120272872 
-0.048853780771 -0.76955453712 0.63298036505 -0.052680748339 -0.81687494629 0.57035854379 -0.057123993212 -0.85629655234 0.51006002873 
-0.062173244102 -0.887951002 0.45204609812 -0.06614972753 -0.91197821809 0.40316135069 -0.069035260999 -0.92824892546 0.36356051836 
-0.069444962401 -0.93936532747 0.33549091796 -0.067250771458 -0.94506082213 0.31954899253 -0.061887994272 -0.9475134517 0.31354975621 
-0.053078684683 -0.94643875434 0.31836537473 -0.041206287122 -0.94301860822 0.32951462569 -0.025887915592 -0.93695983224 0.34778921316 
-0.0084057632763 -0.92938983159 0.36803874745 0.011594243045 -0.92006131497 0.39058640168 0.03232963113 -0.91067642088 0.41109659825 
0.053950200967 -0.90122366503 0.42915429948 0.074850889829 -0.89354606602 0.44231071044 0.094855123136 -0.88807903969 0.44936362786 
0.11306273181 -0.88570489791 0.45003246359 0.12895545874 -0.88731581894 0.4424756556 0.14245943039 -0.89210126019 0.42821628704 
0.15277839501 -0.90111939509 0.40502017103 0.16062893573 -0.91201317606 0.37600540543 0.16507305147 -0.92549534859 0.33896090337 
0.16758377256 -0.93881440636 0.29844848828 0.16733250129 -0.95190044303 0.2529819117 0.1663026512 -0.96327022075 0.20751305885 
0.16412115328 -0.97210136546 0.16204083899 0.16262592607 -0.97892490156 0.11989671715 0.16218200721 -0.98267295216 0.082850958207 
0.16368763196 -0.98500626157 0.051202842165 0.16828709767 -0.98509443824 0.028120550723 0.17563301101 -0.9843320444 0.011149151904 
0.18749530487 -0.98217093459 0.0042267765053 0.20240946818 -0.9791382804 0.0032420598994 0.22252568167 -0.97462003919 0.012378352599 
0.24551161496 -0.96858826955 0.02674556271 0.27356961118 -0.95988142642 0.050358115224 0.3037968811 -0.94872256787 0.078019348083 
0.33800115283 -0.9330683477 0.11310316157 0.37322942817 -0.91426023708 0.1505707188 0.41040580794 -0.8894520422 0.19257320312 
0.44731339009 -0.86150734013 0.23506455797 0.48369009691 -0.8273680364 0.27852143214 0.51878970804 -0.79089429797 0.32084734934 
0.55126963569 -0.74963197559 0.36085335483 0.58200494048 -0.70722172402 0.39877792855 0.60902144392 -0.66236457078 0.4322657661 
0.63431270669 -0.61741618689 0.46343090507 0.65578046309 -0.57226561619 0.48944844176 0.67577544789 -0.52771465211 0.51337374072 
0.6923748759 -0.48454611445 0.53247526936 0.70781500921 -0.44231401217 0.5498902153 0.72047283524 -0.40232935481 0.56325736275 
0.73225555595 -0.36330322026 0.57538401266 0.74185051333 -0.32667339275 0.58440941868 0.75079804869 -0.29088227447 0.5925421267 
0.75805836306 -0.25727688327 0.5983484096 0.7648832287 -0.22426305697 0.60347202968 0.77052421816 -0.19285754773 0.60673966019 
0.77592272728 -0.16170821941 0.60939516969 0.78063290511 -0.13128611433 0.61031304536 0.78526283254 -0.10076288333 0.61055593946 
0.78965468375 -0.069939645477 0.60879638821 0.79407906903 -0.03869552476 0.60618876836 0.79860442206 -0.0061452158549 0.60094921146 
0.80318509037 0.027009610676 0.59464302117 0.80794553338 0.062129119493 0.58487027242 0.81265596772 0.097784129744 0.57389966618 
0.81719600216 0.13526381155 0.55884747146 0.82148688799 0.17292684785 0.5426961606 0.82488658846 0.21124572909 0.52261339586 
0.82784912764 0.24914816734 0.5018854364 0.82916794039 0.28548477996 0.47873154478 0.83001020342 0.32076220828 0.45569330979 
0.8289661238 0.35184703208 0.43311288224 0.82754871808 0.38139963448 0.41158629806 0.82457308175 0.40455687801 0.39445836446 
0.82136135817 0.42595778203 0.37926445774 0.81710870452 0.43961482547 0.37259785143 0.81261129021 0.45147922183 0.36850364325 
0.80697165951 0.4549779318 0.37641395971 0.80078333968 0.45667170179 0.387244733 0.7918790086 0.44943101886 0.41253176759 
0.78181490115 0.44040058322 0.44056961274 0.76564670757 0.42195039646 0.48308540812 0.74770526122 0.40198902076 0.52733120466 
0.7198138965 0.37354819597 0.58128422989 0.69026405549 0.3444785934 0.63514517028 0.6507633568 0.31163632404 0.68845360164 
0.61085410851 0.27945443266 0.74006296242 0.56831482215 0.25152372441 0.78073455632 0.5269809086 0.22519272584 0.81922909247 
0.49400424654 0.20995304773 0.8426293615 0.46322814681 0.1964523792 0.86415757812 0.44895626452 0.19599428252 0.87164540171 
0.43708052651 0.19677396861 0.877607663 0.44474258028 0.20764634491 0.87113072395 0.45440496223 0.21899499956 0.86330120946 
0.48190360379 0.2345904694 0.84341123049 0.51062307199 0.24988971699 0.82238371353 0.55132883799 0.26228060067 0.79018764166 
0.59237445309 0.2738205783 0.75731659917 0.63712442332 0.27608568015 0.717088377 0.68155392258 0.27731878085 0.67681292754 
0.72206655427 0.26593853434 0.63596025556 0.76197894359 0.25360632049 0.5955722298 0.79356296993 0.22806555986 0.56163117023 
0.82452450727 0.20171458575 0.52838073876 0.84552622072 0.16240019596 0.50618035697 0.86592499701 0.12238390328 0.48466579002 
0.87496845683 0.069148439474 0.47606740254 0.88336530354 0.015301886452 0.46802450197 0.87701937118 -0.052477500586 0.47264670272 
0.8699419518 -0.12070718676 0.4776249167 0.8418342807 -0.20188297315 0.49283851068 0.81300798711 -0.28322468275 0.50816998381 
0.75639495699 -0.37098209017 0.52805945039 0.69930583396 -0.4586121998 0.54788746772 0.61436527642 -0.53879538884 0.56412070368 
0.53013850507 -0.61830476957 0.5802175259 0.53013850507 -0.61830476957 0.5802175259 0.53013850507 -0.61830476957 0.5802175259 

FrenetNormal 3 240 double
0.24905698703 -0.91367651905 0.32119438935 0.24905698703 -0.91367651905 0.32119438935 0.24905698703 -0.91367651905 0.32119438935 
0.29356191005 -0.92391569883 0.2162741501 0.33844399343 -0.93424165131 0.11046475629 0.33516375089 -0.93146782392 -0.027238024182 
0.33106022073 -0.92847006866 -0.16548599075 0.28066981554 -0.88465331697 -0.32749865932 0.22908233601 -0.83978090157 -0.49012593225 
0.15520470686 -0.7391666229 -0.62803482382 0.08055176816 -0.63661349681 -0.76508394561 0.022841338014 -0.5084979822 -0.84542099106 
-0.034125999653 -0.37926131019 -0.92327066474 -0.054005767763 -0.25413983264 -0.95682259982 -0.071916284392 -0.129236861 -0.98802244257 
-0.049746251442 -0.013298257809 -0.99164605077 -0.025071184143 0.10208007236 -0.99354614431 0.035872303891 0.21029317672 -0.96854092528 
0.099429732159 0.31798986842 -0.94159658463 0.18279279735 0.40990622095 -0.88278964218 0.26777632374 0.50053145483 -0.82137575958 
0.34599371268 0.55935706192 -0.7428574264 0.42359035506 0.61526527206 -0.66276987758 0.48542498335 0.63124503464 -0.59850141526 
0.54565422131 0.64315801088 -0.53584415619 0.64213381133 0.53975476587 -0.52218863944 0.74267886138 0.42341886053 -0.51402864519 
0.37538044205 -0.20107289611 -0.18461767634 -0.04929500654 -0.88788565339 0.18419199694 -0.16385547927 -0.93272562477 0.29936868807 
-0.23706728856 -0.8919692247 0.38072764824 -0.21759779037 -0.86843106596 0.44024931535 -0.1847607959 -0.84737630741 0.49662137289 
-0.11753728715 -0.82423057493 0.54654192526 -0.044972183956 -0.80076003097 0.59546030207 0.056731799761 -0.77361937631 0.62117497658 
0.16329226356 -0.74586703653 0.64302236738 0.29575952542 -0.7104048959 0.6222774347 0.43284384039 -0.67356873134 0.5939417909 
0.57197610621 -0.61351281257 0.51540730144 0.71149748268 -0.54904514049 0.42733503129 0.81304772764 -0.45559418317 0.31620975551 
0.90692703694 -0.35628801671 0.20042730686 0.9524720204 -0.24216815568 0.093300466328 0.98765964831 -0.12487393152 -0.01197160104 
0.98298996779 -0.005936830899 -0.10667431302 0.96928048536 0.11337288089 -0.1989798516 0.9183861981 0.22443011551 -0.28889232712 
0.85858305134 0.33351019414 -0.37823146462 0.76354447957 0.42351287599 -0.46217211212 0.65960432674 0.50869600497 -0.54474893058 
0.54091689366 0.56715140692 -0.60490821455 0.41830731157 0.61849837083 -0.65910538829 0.31930184893 0.65050166669 -0.68250892844 
0.22689538742 0.67709705535 -0.69730349577 0.20156424246 0.70246631 -0.68169682748 0.19591824476 0.72747572096 -0.65716805743 
0.4100349006 0.69585336103 -0.45545507806 0.69177083445 0.64680584083 -0.19922388043 0.74296725637 0.33137296885 0.17036700269 
0.71987872444 -0.069895183149 0.57648489558 0.64560737443 -0.20047893777 0.7277475113 0.5540833891 -0.23982076069 0.79310385381 
0.46327765833 -0.19673223974 0.85479321543 0.37272494905 -0.12460575675 0.91519079967 0.22885090457 0.014363033762 0.94712785027 
0.06536441495 0.1779175006 0.96859665861 -0.1127103561 0.34146330257 0.89646779292 -0.29638295607 0.50500577965 0.78842354069 
-0.41505516952 0.60506788786 0.65547856463 -0.50772722835 0.67973784852 0.51257329903 -0.55521172794 0.72213810673 0.3991593514 
-0.58386807784 0.75109265557 0.29803345291 -0.59810606102 0.76753370494 0.2213624963 -0.60609029478 0.77854721236 0.15529850242 
-0.61726323273 0.77851172268 0.1051826714 -0.62987497622 0.77349070992 0.062262962635 -0.64850896443 0.75968111468 0.027775900977 
-0.66996820325 0.74174848074 -0.0027551040156 -0.68619750085 0.7256709301 -0.034694210167 -0.6998772021 0.71049773258 -0.067319765634 
-0.70000502722 0.70403611546 -0.11041435804 -0.69327114292 0.70198542512 -0.15880972863 -0.67718187369 0.69811887437 -0.22183096777 
-0.65617503032 0.69329783289 -0.29254016345 -0.63033467886 0.67294039292 -0.37580542201 -0.60185786842 0.64410855377 -0.46591944213 
-0.56724577942 0.5995121178 -0.55512369164 -0.52916241438 0.5459962389 -0.64381320251 -0.49520224735 0.48897107772 -0.71332812091 
-0.46366102316 0.4298871376 -0.77159394504 -0.47219424316 0.36275087144 -0.79996716037 -0.5050970576 0.29071792054 -0.8101624379 
-0.32376427841 0.023503582512 -0.3071821375 -0.0074337278783 -0.36670176659 0.51916907504 0.15421541025 -0.52753810728 0.83327126478 
0.21489195972 -0.53864745636 0.81298867575 0.25454471682 -0.57689792359 0.77244704519 0.27998420583 -0.63349731575 0.71820916119 
0.30111431774 -0.69553735673 0.64441241427 0.31922786568 -0.76138585189 0.55692446331 0.32845287295 -0.81946944665 0.45637369302 
0.33123690871 -0.87192630198 0.34635711164 0.32239793357 -0.91071672598 0.23593536349 0.30484170026 -0.93925732649 0.12520974026 
0.27867410622 -0.95574021141 0.022933545553 0.24582306803 -0.96286486929 -0.072784883736 0.21099019357 -0.96146147385 -0.15843080354 
0.17456584453 -0.95320979315 -0.23598819299 0.14244451074 -0.93902489829 -0.30614770565 0.11389798964 -0.91991087166 -0.37016128991 
0.08931017461 -0.89584995988 -0.43105406012 0.068124372612 -0.86753781867 -0.48926488075 0.046867470648 -0.83303861428 -0.54736411885 