# vtk DataFile Version 5.1
vtk output
ASCII
DATASET POLYDATA
POINTS 240 float
0 0 0 -0.113819 -0.238181 -0.185668 -0.227638 -0.476362 -0.371336 
-0.39268 -0.684544 -0.53596 -0.558157 -0.892473 -0.700406 -0.764684 -1.07767 -0.841556 
-0.971913 -1.26248 -0.982308 -1.21021 -1.43158 -1.09773 -1.44931 -1.60028 -1.2125 
-1.70978 -1.75978 -1.3005 -1.971 -1.91897 -1.38756 -2.24434 -2.07452 -1.4477 
-2.51821 -2.22991 -1.50665 -2.7956 -2.38572 -1.54064 -3.07317 -2.54154 -1.57331 
-3.3465 -2.69987 -1.58591 -3.61956 -2.85835 -1.59726 -3.88171 -3.01926 -1.59679 
-4.14307 -3.18034 -1.59547 -4.38812 -3.34187 -1.59352 -4.63184 -3.50344 -1.59153 
-4.85536 -3.66231 -1.6018 -5.07703 -3.82094 -1.61321 -5.27624 -3.97363 -1.64949 
-5.47316 -4.12573 -1.6883 -5.64704 -4.26961 -1.76198 -5.81833 -4.41257 -1.83956 
-5.9675 -4.54671 -1.95759 -6.11395 -4.67977 -2.08059 -6.24018 -4.80516 -2.24444 
-6.36371 -4.92953 -2.41374 -6.46916 -5.04862 -2.61946 -6.57199 -5.16695 -2.83044 
-6.65818 -5.28284 -3.06984 -6.74178 -5.39835 -3.31367 -6.80878 -5.5139 -3.57634 
-6.87302 -5.62945 -3.84216 -6.91903 -5.74678 -4.11754 -6.9618 -5.86443 -4.39462 
-6.9835 -5.98496 -4.67367 -7.0012 -6.10605 -4.9531 -6.99476 -6.23095 -5.22931 
-6.98346 -6.35662 -5.50487 -6.94599 -6.48738 -5.7744 -6.90292 -6.61923 -6.04264 
-6.83372 -6.75811 -6.30386 -6.7586 -6.89859 -6.56349 -6.6599 -7.04866 -6.81596 
-6.55555 -7.20102 -7.06672 -6.43256 -7.3656 -7.30999 -6.30486 -7.53327 -7.55137 
-6.16508 -7.715 -7.78372 -6.0221 -7.90047 -8.01367 -5.87429 -8.10021 -8.23111 
-5.72512 -8.30394 -8.44506 -5.57808 -8.51989 -8.64088 -5.43166 -8.73943 -8.83138 
-5.29335 -8.96684 -8.99637 -5.15755 -9.19667 -9.15351 -5.03456 -9.42814 -9.27698 
-4.9157 -9.66014 -9.38961 -4.81309 -9.88657 -9.46109 -4.71595 -10.1111 -9.5187 
-4.63741 -10.3232 -9.52996 -4.56543 -10.5308 -9.52489 -4.5136 -10.7204 -9.47183 
-4.46917 -10.9033 -9.40112 -4.44573 -11.0651 -9.28496 -4.43033 -11.2186 -9.15135 
-4.43596 -11.3508 -8.97863 -4.45 -11.4743 -8.79026 -4.48408 -11.5789 -8.57177 
-4.5265 -11.6757 -8.34073 -4.5867 -11.7585 -8.08962 -4.65459 -11.8353 -7.8298 
-4.73652 -11.9048 -7.55948 -4.82479 -11.9711 -7.28442 -4.92195 -12.0371 -7.00671 
-5.02329 -12.1031 -6.72777 -5.12724 -12.175 -6.45162 -5.23247 -12.2498 -6.17683 
-5.33339 -12.3345 -5.90778 -5.43213 -12.4243 -5.64163 -5.51977 -12.5254 -5.382 
-5.60158 -12.6325 -5.12581 -5.66645 -12.7498 -4.87549 -5.72207 -12.8727 -4.62835 
-5.75656 -13.0031 -4.38575 -5.77909 -13.1377 -4.14571 -5.7784 -13.2768 -3.90886 
-5.76409 -13.4185 -3.6739 -5.72678 -13.5621 -3.44121 -5.67549 -13.7071 -3.20991 
-5.60374 -13.853 -2.98052 -5.51909 -13.9996 -2.75235 -5.41853 -14.1477 -2.52619 
-5.30759 -14.2967 -2.30135 -5.18671 -14.4486 -2.07884 -5.05913 -14.6026 -1.85791 
-4.92813 -14.7613 -1.63961 -4.79475 -14.9234 -1.42314 -4.664 -15.0917 -1.20946 
-4.53516 -15.2645 -0.997794 -4.41358 -15.4442 -0.788963 -4.29746 -15.6289 -0.582257 
-4.19125 -15.8204 -0.378477 -4.09273 -16.0171 -0.176966 -4.00458 -16.2195 0.0213338 
-3.92477 -16.4265 0.217057 -3.85395 -16.6382 0.409012 -3.79062 -16.8537 0.597839 
-3.73379 -17.0728 0.782127 -3.68255 -17.2949 0.962515 -3.63501 -17.5199 1.13761 
-3.59077 -17.7475 1.30799 -3.54774 -17.9775 1.47265 -3.50584 -18.2099 1.63206 
-3.46327 -18.4445 1.78604 -3.42007 -18.6814 1.93485 -3.3748 -18.9202 2.07942 
-3.32751 -19.1609 2.21982 -3.27706 -19.4029 2.35797 -3.2234 -19.6462 2.49385 
-3.16564 -19.8898 2.62994 -3.10358 -20.1336 2.76626 -3.03664 -20.3766 2.90508 
-2.96441 -20.6187 3.04664 -2.88679 -20.8593 3.19226 -2.80311 -21.0982 3.34247 
-2.71387 -21.3353 3.49718 -2.61816 -21.5703 3.65713 -2.517 -21.8038 3.82089 
-2.40931 -22.0356 3.98922 -2.29648 -22.2665 4.15977 -2.17725 -22.4963 4.3331 
-2.05318 -22.726 4.50665 -1.92289 -22.9555 4.6805 -1.7879 -23.1851 4.85265 
-1.64664 -23.4148 5.02254 -1.50059 -23.6444 5.18923 -1.3479 -23.8739 5.35153 
-1.19007 -24.1024 5.50979 -1.02491 -24.3295 5.66226 -0.854136 -24.5542 5.81049 
-0.67508 -24.7753 5.95242 -0.489972 -24.9921 6.09044 -0.295594 -25.2026 6.22246 
-0.0948739 -25.4069 6.35127 0.115912 -25.6015 6.47499 0.333085 -25.7883 6.59639 
0.560761 -25.9621 6.71399 0.794556 -26.1266 6.83023 1.03878 -26.2752 6.94414 
1.28854 -26.4135 7.05756 1.54806 -26.5337 7.17012 1.81223 -26.6433 7.28293 
2.0849 -26.7334 7.39622 2.36106 -26.8132 7.51033 2.64386 -26.8732 7.62603 
2.92886 -26.9233 7.74296 3.2182 -26.9542 7.86229 3.50841 -26.9762 7.98303 
3.80041 -26.9799 8.10663 4.09209 -26.9756 8.2316 4.38306 -26.9542 8.3595 
4.67275 -26.9256 8.48852 4.95959 -26.8811 8.62005 5.24452 -26.8302 8.75231 
5.52507 -26.7645 8.88627 5.80346 -26.6932 9.02049 6.0767 -26.6084 9.15534 
6.34789 -26.5189 9.29 6.61399 -26.4175 9.42421 6.87845 -26.3124 9.55794 
7.1386 -26.1978 9.69043 7.39765 -26.0808 9.82239 7.65368 -25.9573 9.95289 
7.90921 -25.8329 10.0831 8.16333 -25.7061 10.2125 8.41737 -25.5798 10.3421 
8.67118 -25.4553 10.4723 8.92513 -25.3328 10.6035 9.1795 -25.2165 10.7374 
9.4339 -25.1033 10.8731 9.68839 -25 11.0141 9.94246 -24.9006 11.1574 
10.1951 -24.8142 11.3086 10.4468 -24.7322 11.4625 10.695 -24.6655 11.626 
10.9414 -24.6034 11.7922 11.1815 -24.5587 11.9686 11.4192 -24.519 12.1473 
11.6478 -24.4988 12.3352 11.8736 -24.484 12.5248 12.0881 -24.4913 12.7212 
12.2995 -24.5043 12.9183 12.4978 -24.5424 13.1187 12.693 -24.5864 13.3189 
12.8737 -24.6581 13.5186 13.0514 -24.7358 13.7176 13.2141 -24.8429 13.9128 
13.3739 -24.9556 14.1069 13.5185 -25.0978 14.295 13.6607 -25.2449 14.482 
13.7889 -25.4198 14.6622 13.9151 -25.5986 14.8414 14.0294 -25.8014 15.0142 
14.1422 -26.0072 15.1862 14.246 -26.232 15.353 14.3489 -26.4587 15.5193 
14.4459 -26.699 15.6819 14.5424 -26.9403 15.8442 14.6349 -27.1903 16.004 
14.727 -27.4408 16.1636 14.8159 -27.6961 16.3216 14.9041 -27.9516 16.4795 
14.9876 -28.2098 16.6358 15.0703 -28.4683 16.792 15.1455 -28.7286 16.9463 
15.2197 -28.9891 17.1004 15.2827 -29.252 17.252 15.3446 -29.5151 17.4033 
15.3922 -29.7816 17.5511 15.4386 -30.0484 17.6987 15.4686 -30.3195 17.8422 
15.4975 -30.5909 17.9853 15.5093 -30.8674 18.1238 15.5202 -31.1441 18.2621 
15.5148 -31.4261 18.3955 15.5087 -31.7083 18.5287 15.4883 -31.9956 18.6572 
15.4674 -32.2831 18.7855 15.435 -32.5752 18.9094 15.4024 -32.8674 19.0331 
15.3615 -33.1634 19.1529 15.3206 -33.4595 19.2726 15.2752 -33.7587 19.3888 
15.2298 -34.0578 19.5051 15.1836 -34.3591 19.6184 15.1374 -34.6603 19.7317 

LINES 2 240
OFFSETS vtktypeint64
0 240 
CONNECTIVITY vtktypeint64
0 1 2 3 4 5 6 7 8 
9 10 11 12 13 14 15 16 17 
18 19 20 21 22 23 24 25 26 
27 28 29 30 31 32 33 34 35 
36 37 38 39 40 41 42 43 44 
45 46 47 48 49 50 51 52 53 
54 55 56 57 58 59 60 61 62 
63 64 65 66 67 68 69 70 71 
72 73 74 75 76 77 78 79 80 
81 82 83 84 85 86 87 88 89 
90 91 92 93 94 95 96 97 98 
99 100 101 102 103 104 105 106 107 
108 109 110 111 112 113 114 115 116 
117 118 119 120 121 122 123 124 125 
126 127 128 129 130 131 132 133 134 
135 136 137 138 139 140 141 142 143 
144 145 146 147 148 149 150 151 152 
153 154 155 156 157 158 159 160 161 
162 163 164 165 166 167 168 169 170 
171 172 173 174 175 176 177 178 179 
180 181 182 183 184 185 186 187 188 
189 190 191 192 193 194 195 196 197 
198 199 200 201 202 203 204 205 206 
207 208 209 210 211 212 213 214 215 
216 217 218 219 220 221 222 223 224 
225 226 227 228 229 230 231 232 233 
234 235 236 237 238 239 
CELL_DATA 1
FIELD FieldData 3
Length 1 1 double
71.08076055 
Tortuosity 1 1 double
0.66624234164 
ClusterLabel 1 1 int
2 
POINT_DATA 240
FIELD FieldData 6
Curvature 1 240 double
0 0.15558063477 0.31116126954 0.29379118761 0.27495542163 0.25050316587 0.22595490172 0.20451738064 0.18316030981 
0.16767188784 0.15238759279 0.14097337582 0.12972889912 0.11837235675 0.107009864 0.092604847147 0.078009672541 0.066847876574 
0.055933531319 0.078709466732 0.10424187965 0.16086573942 0.22034202551 0.29426923209 0.36966829169 0.42412548768 0.47623406345 
0.46992912145 0.45646025747 0.40228172478 0.34267523627 0.28515775408 0.22794157089 0.1907184048 0.15660095012 0.14179795195 
0.13021402986 0.1318805624 0.13590856211 0.14617003763 0.15761587356 0.16839524158 0.17903996962 0.18287788524 0.1852571982 
0.17879090227 0.17031838578 0.15722302081 0.14302009841 0.13140430256 0.12044209657 0.11663012787 0.11471981802 0.12005419736 
0.12741397368 0.14217488374 0.15910786565 0.18771931055 0.21992412868 0.27399102017 0.33510235752 0.4314849066 0.53975662818 
0.67061256218 0.80942429828 0.88222919555 0.93075571533 0.86525152641 0.75599136787 0.62422620715 0.48345904555 0.37367005075 
0.27678862543 0.2066824448 0.14818962329 0.10683003239 0.073201289451 0.060475424403 0.057555847748 0.070015247515 0.089971898288 
0.11216450361 0.13548923781 0.15849323088 0.18132862926 0.20174896852 0.22085200281 0.23464597446 0.24543613437 0.24762750077 
0.24477424166 0.23280229503 0.21528520058 0.19176268298 0.16445592615 0.13610358889 0.10706871997 0.084055889246 0.065114295611 
0.060689636534 0.066426831647 0.077631246982 0.092797416102 0.10544016642 0.11619035265 0.12187100377 0.12361709032 0.12117856828 
0.11537967873 0.1073825544 0.097559204242 0.088861253209 0.081130442044 0.076078069346 0.073406530841 0.071774876657 0.071099245155 
0.068777668587 0.064891095071 0.059837205485 0.053635455097 0.050299474981 0.049877837517 0.053687765446 0.06194813284 0.069872748323 
0.077432159974 0.08210971041 0.083545166981 0.082008573469 0.077013594404 0.070994324599 0.063742112237 0.057884079517 0.053762195032 
0.052440762851 0.054727605754 0.058338450282 0.063714630309 0.069223590445 0.074915787131 0.080691946991 0.086588054242 0.09296398638 
0.1000496595 0.10774965495 0.11639073994 0.1254179207 0.13505781867 0.14442920852 0.15335905169 0.16105708536 0.16665544375 
0.17065797535 0.17183997586 0.17129053943 0.16756680193 0.1629225234 0.15652697169 0.14982518243 0.14251857399 0.13567141 
0.12976669614 0.12427541296 0.1196653899 0.11539698835 0.11188569394 0.1081782025 0.10401836791 0.099522809497 0.094221513935 
0.088018143266 0.079559584832 0.070256064939 0.058750524279 0.046329849569 0.031421154164 0.019339069814 0.015280913622 0.0165132789 
0.033440857874 0.049940414365 0.065111625219 0.079893787255 0.093411540633 0.10628452888 0.11696053963 0.12739393495 0.13695951354 
0.14639981031 0.15536904747 0.16450662864 0.17431057153 0.18466805781 0.19733598608 0.21033313921 0.22478187463 0.23868240729 
0.25002466042 0.25975323857 0.26149412562 0.26091824041 0.24814881693 0.23378303966 0.21045994387 0.18654321051 0.1590646518 
0.13199568039 0.10756342725 0.084051761737 0.066922837074 0.0506670099 0.040959413883 0.032297217578 0.03215904969 0.032650246371 
0.038753277122 0.045244528529 0.05554740091 0.065791461577 0.075394474572 0.084803096008 0.0918358206 0.098522921422 0.10041449243 
0.10201731245 0.099000116578 0.095799078043 0.089135669274 0.082386037144 0.073670512402 0.064947090068 0.055996611992 0.047046785093 
0.038122137074 0.029242387953 0.022989224358 0.016718363133 0.0083591815667 0 
Torsion 1 240 double
0 0 0 -0.10182102654 -0.20450494313 -0.24621937083 -0.28689158505 -0.32590918519 -0.36488399358 
-0.38394604812 -0.40231548514 -0.40331408005 -0.40355079591 -0.42827874557 -0.45430711472 -0.64127681335 -0.83830534507 -1.51418827 
-2.2245832233 -1.6808332596 -1.034471439 -0.68187953482 -0.35623899913 -0.23747042307 -0.13977213919 -0.091366487726 -0.048488981953 
-0.016115976819 0.014968740501 0.056710030649 0.099872197174 0.16794482534 0.23961030856 0.31942790593 0.40051185114 0.41264688361 
0.41329043063 0.34584729355 0.26626989594 0.20597085702 0.14933470625 0.12902995431 0.11606487891 0.12840752099 0.14617324538 
0.18567242729 0.23010084698 0.29404259735 0.36265941653 0.41817781923 0.47038714829 0.4487892016 0.4075616603 0.31859067208 
0.21627205354 0.12684708971 0.041206133233 -0.014059158365 -0.05997809154 -0.076787192342 -0.084216458268 -0.073236922227 -0.05605217204 
-0.033923881386 -0.01005411625 0.012670842966 0.034974724143 0.062509166906 0.092050685627 0.13275014671 0.17791278474 0.24079629496 
0.31106350192 0.43969910975 0.5936511324 1.0067605132 1.5368067507 1.7175423285 1.7344037696 1.4036628836 0.90346586313 
0.65633369408 0.53733562701 0.46607380157 0.41990410315 0.37679030593 0.33534336393 0.29073142582 0.24432876624 0.19487040069 
0.14361935431 0.08586546809 0.024157152244 -0.056351311887 -0.1487064448 -0.3200140236 -0.54286000458 -0.93911212178 -1.4525965564 
-1.4586049791 -1.1093801935 -0.78307403819 -0.47337558608 -0.27940822938 -0.17223919423 -0.08861093203 -0.023253120477 0.048336853114 
0.12493144167 0.22041770657 0.33159859489 0.44262002537 0.55350442177 0.60439779607 0.6019658174 0.5744195169 0.52378424312 
0.52422263075 0.57322286038 0.7096504626 0.93204831454 1.0650979026 1.1072848493 0.97875547246 0.67067961724 0.4285240767 
0.25807133459 0.12230720487 0.025567764093 -0.072045284761 -0.17067489575 -0.28791406703 -0.42755363497 -0.54147985992 -0.62338569549 
-0.60928665607 -0.47148902772 -0.32343965048 -0.16172127471 -0.023063290195 0.083771354399 0.17037950287 0.22809265688 0.26925899759 
0.28594984362 0.29181582858 0.28109904765 0.26613760533 0.24444006991 0.22245639073 0.20000216405 0.17990321621 0.1638189482 
0.150217723 0.14100513161 0.1338694769 0.13054153941 0.12772930529 0.12589816539 0.12294581695 0.11777908168 0.10957623721 
0.095145476436 0.077865752001 0.054513236608 0.03023949561 0.0039241194891 -0.021476288572 -0.044767186942 -0.065663826442 -0.080814244654 
-0.093375536539 -0.099464012608 -0.10254806955 -0.09780242818 -0.071118675413 0.015209317705 0.13984659197 0.37323279338 0.46540179967 
0.13862646045 -0.11311915752 -0.13201391647 -0.14407604816 -0.13393214125 -0.12173379747 -0.10253515031 -0.080242492613 -0.046882797233 
-0.01091207893 0.034876085567 0.078916423449 0.11603828099 0.14799652827 0.15840231536 0.16476994236 0.15333295437 0.14014575225 
0.11879088417 0.097927799849 0.079499045181 0.062281746772 0.051440533933 0.04127770819 0.034921387819 0.02994980889 0.033286678618 
0.036267702781 0.036957971121 0.030443511146 -0.026023731809 -0.092689470184 -0.23584392421 -0.36410075899 -0.37088469829 -0.36449214083 
-0.24060915394 -0.12219458572 -0.057469946327 0.0031589279695 0.019143962689 0.034006555762 0.035150417604 0.036447889027 0.0398766934 
0.043432075047 0.049012693095 0.054692651447 0.062243518855 0.070276741442 0.089307662093 0.10934294361 0.15825359997 0.20976784835 
0.36195432146 0.50730200911 0.25258074715 0 0 0 
FrenetTangent 3 240 double
-0.44182634808 -0.7057144297 -0.55385613823 -0.44182634808 -0.7057144297 -0.55385613823 -0.44182634808 -0.7057144297 -0.55385613823 
-0.51975160124 -0.66926659836 -0.52284348658 -0.59833723791 -0.6325098871 -0.49156801584 -0.65621476889 -0.59985567702 -0.45109389877 
-0.71373831516 -0.56727159518 -0.41046253988 -0.75271168831 -0.54359397605 -0.36588599429 -0.7912053156 -0.52014669649 -0.32120741801 
-0.81494826431 -0.50683753508 -0.27605879593 -0.83817814593 -0.49388100386 -0.23089382442 -0.85000513921 -0.49004387422 -0.18807132939 
-0.8613320058 -0.48660671832 -0.14535157455 -0.86402407505 -0.49026796364 -0.10823846909 -0.86625765948 -0.49430611521 -0.071423061833 
-0.86252942678 -0.5032589794 -0.04434924978 -0.85842858051 -0.51251901314 -0.017884287428 -0.85098253988 -0.52484133146 -0.0060533350576 
-0.84329540416 -0.53738435498 0.0047229138906 -0.83397696978 -0.55140578826 -0.0046736981184 -0.82452506551 -0.56554818233 -0.015720816933 
-0.81256847133 -0.57884816991 -0.052785469471 -0.80038208908 -0.59207087249 -0.092237051708 -0.7804589099 -0.59953934183 -0.16078410811 
-0.75974772362 -0.60642173185 -0.23229459243 -0.72356610467 -0.60035145312 -0.32488128134 -0.68564948391 -0.59282853864 -0.41983165674 
-0.63191448148 -0.57035771943 -0.5129448454 -0.57623948883 -0.54605366662 -0.60583271871 -0.51644232472 -0.51580514197 -0.67679876781 
-0.45609553774 -0.48476402108 -0.74484190701 -0.40237372153 -0.4585518464 -0.78915275861 -0.34960742995 -0.43303615436 -0.83004068412 
-0.30498495427 -0.41651309515 -0.85493755832 -0.26162753737 -0.40138694979 -0.87735038571 -0.22246978633 -0.39458632831 -0.89060911236 
-0.18401197961 -0.38917329413 -0.90234215556 -0.14487819273 -0.39001733831 -0.90848790353 -0.10562393415 -0.39197650537 -0.91363789591 
-0.062186081024 -0.39813019386 -0.91414287987 -0.017953344936 -0.40508084143 -0.91376531223 0.031121158893 -0.41453536536 -0.90807378298 
0.081173797619 -0.42449572291 -0.90130872614 0.13312583577 -0.43585374125 -0.888428304 0.18548488807 -0.44751125833 -0.87423744645 
0.23435860029 -0.46036173436 -0.85457705386 0.28244182301 -0.47348277841 -0.83367614816 0.32221085554 -0.48845751229 -0.8095521037 
0.35998794666 -0.50387635935 -0.7846558489 0.38748354556 -0.52202494544 -0.758778924 0.41238171484 -0.5408631498 -0.73265425086 
0.42780634758 -0.56293267407 -0.7062190826 0.44071142273 -0.58586159192 -0.67970133586 0.44632347477 -0.61208839358 -0.65164899105 
0.44989661714 -0.63923718425 -0.62316761883 0.44846666249 -0.66963284627 -0.5902587494 0.44556840763 -0.70098139445 -0.55605050578 
0.43918225356 -0.73548999899 -0.51273857591 0.43172289973 -0.77097092855 -0.46662551182 0.42062324571 -0.80860403223 -0.40417875069 
0.40835060606 -0.84693061424 -0.33646890941 0.38917703517 -0.88219166318 -0.24234956513 0.36767730768 -0.91641938637 -0.1393281412 
0.33215089692 -0.93154467225 -0.0037674629794 0.29168326819 -0.93994069045 0.14325590709 0.23326882167 -0.9068464492 0.30302852249 
0.16825324676 -0.85849142288 0.46749051548 0.097317620468 -0.77573030693 0.60118990612 0.024110346549 -0.67976685427 0.72308504238 
-0.040033479704 -0.58454341297 0.80101506674 -0.10055192689 -0.48961597621 0.86135904635 -0.14961514721 -0.41401933921 0.8943037684 
-0.19390535633 -0.3464772021 0.91583213313 -0.22958088418 -0.29917733332 0.92492357628 -0.26151992376 -0.26065724358 0.92862069199 
-0.28668060717 -0.23893825105 0.92740834342 -0.30878276401 -0.2248002414 0.92398074878 -0.32403165523 -0.22414714544 0.91900610215 
-0.33606543417 -0.2298203053 0.91330567806 -0.33978240874 -0.24577977643 0.90758774356 -0.3394449412 -0.26675382431 0.90186127273 
-0.32889077775 -0.29420662753 0.89676591238 -0.31316360373 -0.3249398132 0.89199010165 -0.28597762375 -0.35763865918 0.88786917908 
-0.25276842524 -0.39137073688 0.88409249261 -0.20863061253 -0.42241685185 0.88036556325 -0.15853173754 -0.45199789625 0.87666577415 
-0.10052662 -0.47543220371 0.87181935604 -0.038048233644 -0.49538875212 0.86632418731 0.027090566581 -0.50815667546 0.85851158253 
0.093790142943 -0.51670727211 0.84933941527 0.15720594404 -0.51987773364 0.83762109816 0.21862485478 -0.51977649138 0.82435444668 
0.27219935704 -0.51795989614 0.80955631282 0.32083080739 -0.51506239354 0.79379313527 0.35951664774 -0.51395441707 0.77814701649 
0.39171021491 -0.5140146035 0.76257731108 0.41380807394 -0.51795974051 0.74839836388 0.4290806655 -0.52453132297 0.73515964757 
0.43511742602 -0.53534301896 0.72376559225 0.43468910481 -0.54912279441 0.71366279962 0.42646157716 -0.56607643359 0.70510678625 
0.41258245065 -0.58532997405 0.69767162744 0.39297667985 -0.60602458103 0.69095131046 0.36907592582 -0.62779998791 0.68476712486 
0.34229349678 -0.64924455588 0.67840374897 0.31327454384 -0.67043235336 0.67190130003 0.28452352765 -0.69023440462 0.6645545194 
0.25598767279 -0.70892365967 0.65652971486 0.23030129888 -0.72613082621 0.64728126104 0.20698218606 -0.74210671922 0.63701623706 
0.18788256223 -0.75703641824 0.62539724448 0.17240906175 -0.77106704432 0.61261468515 0.16126881238 -0.78445059792 0.59856429642 
0.15398034179 -0.79725897598 0.58338694825 0.15033317827 -0.80935157754 0.56748188409 0.15003366803 -0.82078612652 0.55090779071 
0.15246831624 -0.83095751764 0.53478308674 0.1575026561 -0.83992787341 0.51908567107 0.16457801886 -0.84693523788 0.50539954337 
0.17366038749 -0.85201232758 0.49369118219 0.18437092261 -0.85461721694 0.48528650891 0.19673722027 -0.85470800427 0.48024151826 
0.21041040512 -0.85217793366 0.47888095007 0.22545807476 -0.84689144352 0.48139537791 0.24135231711 -0.83932335832 0.48677645599 
0.25816739292 -0.82927353816 0.49527564483 0.27524465293 -0.81779330744 0.50499797764 0.29261687015 -0.80470386485 0.5160963474 
0.30973769266 -0.79140804763 0.52662416828 0.32656598313 -0.77787208538 0.53648807774 0.34292639976 -0.76529764974 0.54445405284 
0.3587236349 -0.75388060723 0.55013547733 0.37417338095 -0.74409364504 0.55328117067 0.38919040475 -0.73633659418 0.55326916107 
0.40422595162 -0.73013950653 0.55073306375 0.41928536478 -0.7259523715 0.54494477648 0.43482815384 -0.7226391252 0.53708495184 
0.4510154441 -0.72049106389 0.52646307738 0.4681140295 -0.71821026344 0.51447642075 0.4864702022 -0.71574628299 0.50060636474 
0.50606898977 -0.71205546652 0.48621036259 0.52744294144 -0.70661202717 0.47106300882 0.55018297773 -0.69900997377 0.45615137499 
0.57494368086 -0.68821497044 0.44158841021 0.60090939205 -0.67459060894 0.42782816051 0.62872107304 -0.65663191151 0.41529760199 
0.65727730074 -0.63546228143 0.40389270861 0.68701509169 -0.60919704081 0.39427419687 0.71676557362 -0.57967788432 0.38587492243 
0.74653692518 -0.54480784396 0.37948061598 0.77539164507 -0.50713694077 0.37420607391 0.8026839246 -0.46469183959 0.37084022113 
0.82820098741 -0.42037220888 0.36840404666 0.85058045789 -0.37273945623 0.36761102455 0.87066570208 -0.32442990367 0.3675643875 
0.88654486476 -0.27487955128 0.36888612305 0.90007854775 -0.22574877247 0.37081571865 0.90915009863 -0.17741620682 0.37390173093 
0.91619565997 -0.13017987538 0.37746550589 0.91923989199 -0.085108606505 0.38197286218 0.92072458235 -0.041313519028 0.38679126802 
0.9190102129 -0.00013623955175 0.39224772421 0.91617847415 0.039914992368 0.39777768629 0.91096497454 0.077565965022 0.40346433196 
0.90500105285 0.11430496226 0.40893454815 0.89737403359 0.14902282479 0.41392510982 0.88931923411 0.1829049148 0.41842806518 
0.88027816358 0.21486008483 0.42180681714 0.8711259724 0.24586614258 0.42453250891 0.86170709164 0.2745943309 0.42569085628 
0.85250711398 0.30204878288 0.42622866443 0.84385439407 0.32631889401 0.42521512455 0.83573997767 0.34887040692 0.42384808026 
0.82902841287 0.36694314867 0.42155978205 0.82308820746 0.38289732893 0.41935436521 0.81924513543 0.39309167012 0.41737428215 
0.81619884486 0.40096898826 0.41598344948 0.81541438557 0.40226895065 0.41626532763 0.81521560002 0.4012709376 0.4175747356 
0.81675431325 0.3934555974 0.42193248205 0.81847400982 0.38358133294 0.42756307724 0.82075537882 0.36731730353 0.43714389267 
0.82270845024 0.34941037468 0.44804163516 0.82359455451 0.3261640227 0.46321939059 0.82376247175 0.30167967779 0.47948748007 
0.8214832332 0.27297698667 0.49947078184 0.81828671748 0.24331282686 0.52014538467 0.81180917192 0.21020956755 0.54329271818 
0.80440381853 0.17616172002 0.56665828117 0.7935099077 0.1385622208 0.59084438697 0.78183874907 0.099841763634 0.61466987365 
0.76709098451 0.056684181281 0.63706790961 0.75168117335 0.012155429781 0.65857054134 0.73350803725 -0.038096462514 0.67633583367 
0.71462504295 -0.089768405989 0.69276294507 0.69261221935 -0.14770148421 0.70328989512 0.66977561555 -0.20664868505 0.71214850422 
0.64309470415 -0.27032845809 0.71322152222 0.6156170431 -0.33411238635 0.71258315035 0.58419547134 -0.3984118829 0.70347339868 
0.55236720888 -0.46169341747 0.69304369159 0.51839846899 -0.51961725737 0.67566685075 0.48467629884 -0.5757570263 0.65770383106 
0.45233765891 -0.62188617479 0.63645169682 0.42078833578 -0.66610816998 0.61534546795 0.3939749135 -0.69888724538 0.59511467136 
0.36818908872 -0.73009567366 0.57543623654 0.34901842283 -0.7511930611 0.55931363062 0.33070477209 -0.77122651752 0.54382008293 
0.31833309297 -0.78388338551 0.53268800558 0.306438515 -0.79591910606 0.52208321732 0.2981221956 -0.80329622076 0.51543309718 
0.2898667769 -0.81041397532 0.5091030208 0.28210793316 -0.81541694726 0.50538253195 0.2740666013 -0.82040628825 0.50179065433 
0.263506417 -0.82527408653 0.49934556019 0.25246937497 -0.83024323806 0.49689456149 0.23675045717 -0.83620749417 0.49438559083 
0.22053761113 -0.84228397797 0.4917666765 0.19894094717 -0.84958374367 0.48794937612 0.17697937986 -0.85692946424 0.48397725195 
0.15055788274 -0.86483685556 0.47811283696 0.12396282811 -0.87270822567 0.47211072246 0.094959663022 -0.88007980151 0.46419802706 
0.065979585789 -0.8873690227 0.45619595024 0.037368914253 -0.89334056942 0.44676377065 0.0089078859826 -0.89922973437 0.43729818453 
-0.016734860805 -0.90356737596 0.42720344193 -0.042179600065 -0.90784662355 0.41712176736 -0.063109767681 -0.91079448807 0.40733804407 
-0.083854684693 -0.91371301803 0.39758735359 -0.099273646853 -0.91578817937 0.38878635667 -0.11454486977 -0.91785436351 0.3800202275 
-0.12410350857 -0.9195734294 0.37260231778 -0.13356502568 -0.92129239388 0.36521088404 -0.13734492382 -0.92300542658 0.35936829595 
-0.14109305811 -0.92470406404 0.35357480524 -0.14109305811 -0.92470406404 0.35357480524 -0.14109305811 -0.92470406404 0.35357480524 

FrenetNormal 3 240 double
-0.8966518349 0.36691942493 0.24776122089 -0.8966518349 0.36691942493 0.24776122089 -0.8966518349 0.36691942493 0.24776122089 
-0.8476316829 0.39296629836 0.33955539636 -0.79819610588 0.419233908 0.43212748857 -0.73707057368 0.41232357657 0.52382797156 
-0.67574521319 0.40484610084 0.61551355526 -0.60166794463 0.36045274452 0.70206461722 -0.52726088534 0.31510466715 0.78848288982 
-0.43870857145 0.23929725135 0.85551360043 -0.34966424871 0.16243038029 0.92186996106 -0.2530413633 0.072286018753 0.95498373813 
-0.15608608479 -0.018440688856 0.98663950716 -0.058159374089 -0.11446246987 0.9820881138 0.039818917079 -0.21076540523 0.97561421623 
0.15092592611 -0.33918922776 0.90974584547 0.26285348001 -0.46962060575 0.84016532014 0.39426844181 -0.64635814835 0.48282933782 
0.52708790148 -0.82643307218 0.10475422347 0.44935598018 -0.67425703932 -0.32989126703 0.35439712771 -0.49489683728 -0.76916524286 
0.30508256317 -0.34830061151 -0.87061737261 0.25995554798 -0.20471025513 -0.94107667244 0.2791883391 -0.1087648115 -0.94935012173 
0.30497629568 -0.017672090455 -0.95128982698 0.36245777355 0.063147916168 -0.92393410604 0.42349366502 0.14281584267 -0.89329291675 
0.490757496 0.21017323004 -0.838278638 0.55878513089 0.27602083431 -0.78027520677 0.61865126875 0.31584662825 -0.71278991519 
0.677429207 0.35220284748 -0.64404037557 0.73203406091 0.35131869117 -0.57741739176 0.78603702765 0.34506332685 -0.51110112274 
0.84101341152 0.29253818301 -0.44260272151 0.89614100582 0.23282550061 -0.37376534828 0.93566968228 0.1412863112 -0.2963550802 
0.9725985391 0.044442703948 -0.2175159963 0.98367172575 -0.033560130077 -0.14244213669 0.99013697118 -0.10820520254 -0.068039307144 
0.98683033703 -0.1460726749 -0.0035021270373 0.98166704575 -0.17695240325 0.059160579675 0.97254759303 -0.18976043921 0.11996014811 
0.96262891576 -0.19891762823 0.18038332498 0.94512789874 -0.20756679843 0.24345340407 0.92600209462 -0.21610710746 0.30709067649 
0.89287166584 -0.23875212502 0.37346941791 0.85656493044 -0.26459614865 0.44046993581 0.79538464624 -0.31489541524 0.50653221809 
0.7282450743 -0.37105375045 0.57236971474 0.62258826294 -0.44693347072 0.62535279646 0.50720078058 -0.52779543563 0.67508844704 
0.37146961013 -0.59323158192 0.69789420908 0.23032788433 -0.65456511686 0.71353776672 0.11803695251 -0.67825266955 0.71795351228 
0.013811834074 -0.69141553901 0.71923029961 -0.048319691155 -0.6774712529 0.73186740555 -0.098097661856 -0.65557160591 0.74783851803 
-0.12344054236 -0.61509312484 0.77657970848 -0.14126493358 -0.56889807944 0.80925015371 -0.154622484 -0.50345018378 0.84630509696 
-0.16654071904 -0.43179859191 0.8847728229 -0.18845572609 -0.33496865382 0.9167259691 -0.21374043157 -0.22965163272 0.94648318953 
-0.25135607262 -0.09347226396 0.95190898041 -0.29331556598 0.053579068174 0.94876347224 -0.33656194441 0.21407316718 0.89972012833 
-0.38028165987 0.37951173217 0.83379482186 -0.4132619983 0.51548151533 0.7320407635 -0.44212141298 0.64014351012 0.61653846314 
-0.46690708103 0.71783193314 0.50052834328 -0.49006325043 0.77673092746 0.38431509561 -0.52467551996 0.79711687526 0.2813126447 
-0.56406116456 0.80145572034 0.18381469244 -0.62895002803 0.76165706299 0.090432612428 -0.7049005286 0.70271442869 -0.0011642699757 
-0.80227442092 0.50987267274 -0.1158647927 -0.90931496562 0.25661302044 -0.24099012873 -0.75416234607 -0.17190678163 -0.30761521713 
-0.476005526 -0.6826473947 -0.3467957449 -0.17007097529 -0.88259950055 -0.3033214607 0.14940521911 -0.93104220914 -0.21955295566 
0.36354574304 -0.9013076861 -0.16255581004 0.52435175027 -0.83198975463 -0.11911378309 0.64682298591 -0.74526662036 -0.091953204656 
0.74914389289 -0.64939459744 -0.073350823509 0.82642518298 -0.54690144105 -0.066614248979 0.89004850021 -0.44079675729 -0.066349932603 
0.932228968 -0.33966833412 -0.077754614806 0.96227729729 -0.24135542681 -0.095761493574 0.97703725191 -0.15487421538 -0.12249972638 
0.98282802673 -0.075334265533 -0.15436035356 0.97910786967 -0.015676851063 -0.19348919004 0.96960403782 0.031889832436 -0.23703788354 
0.95481948448 0.052264978239 -0.28759699159 0.93670735321 0.055505730426 -0.34257362114 0.90464908542 0.009154761365 -0.4118096993 
0.86348708961 -0.069568581289 -0.49035402865 0.71740595625 -0.25086891791 -0.56960732926 0.50039357497 -0.50151708144 -0.64933993438 
0.17926744106 -0.66983743191 -0.60362560071 -0.2147383197 -0.78052831325 -0.47009840987 -0.46369814906 -0.79354445531 -0.35680053703 
-0.60755223102 -0.73578180079 -0.25816159029 -0.69838839492 -0.68326675954 -0.20209417673 -0.74946112026 -0.63468742825 -0.17795541307 
-0.78422104613 -0.59459555764 -0.17335434641 -0.8063202918 -0.56109096994 -0.1839168655 -0.81431771126 -0.53918046959 -0.2113706928 
-0.81099093693 -0.52658037274 -0.25238875247 -0.78661640847 -0.52737155383 -0.31171212747 -0.74475605351 -0.53928779658 -0.3862429952 
-0.66488782797 -0.55858622417 -0.47634173294 -0.55235658864 -0.58422871686 -0.57981910897 -0.41039772008 -0.5959304973 -0.67038274149 