# vtk DataFile Version 5.1
vtk output
ASCII
DATASET POLYDATA
POINTS 240 float
0 0 0 -0.224509 -0.190659 -0.00263656 -0.449019 -0.381317 -0.00527312 
-0.689787 -0.580807 0.0202489 -0.930692 -0.780371 0.0460096 -1.18553 -0.984259 0.0918385 
-1.4406 -1.18822 0.13801 -1.70726 -1.39209 0.196239 -1.97421 -1.59595 0.254779 
-2.25021 -1.79549 0.317361 -2.52653 -1.99487 0.380083 -2.809 -2.18598 0.438763 
-3.09174 -2.37672 0.497265 -3.37717 -2.55581 0.543612 -3.66275 -2.73428 0.589313 
-3.94691 -2.89864 0.614969 -4.23097 -3.06212 0.639372 -4.50894 -3.21031 0.636587 
-4.78647 -3.35739 0.631843 -5.05307 -3.48963 0.594281 -5.31878 -3.62066 0.554033 
-5.56906 -3.73917 0.477757 -5.81792 -3.85654 0.398174 -6.04779 -3.96563 0.282564 
-6.27573 -4.07388 0.163283 -6.48244 -4.17967 0.0114683 -6.68676 -4.28518 -0.143995 
-6.86891 -4.39497 -0.325557 -7.04835 -4.50529 -0.510319 -7.20572 -4.62658 -0.712996 
-7.36016 -4.74934 -0.918061 -7.49325 -4.88865 -1.13281 -7.62327 -5.03035 -1.34896 
-7.73279 -5.19209 -1.56838 -7.83912 -5.35694 -1.7883 -7.92575 -5.54265 -2.00805 
-8.00908 -5.73183 -2.22778 -8.07339 -5.94004 -2.4471 -8.1343 -6.15164 -2.66634 
-8.17697 -6.37838 -2.88726 -8.21618 -6.60798 -3.1085 -8.23825 -6.84777 -3.33405 
-8.25685 -7.08961 -3.56047 -8.25994 -7.33666 -3.79239 -8.25972 -7.58484 -4.02548 
-8.24621 -7.83408 -4.26208 -8.22969 -8.08356 -4.49947 -8.20268 -8.33102 -4.73431 
-8.17315 -8.57798 -4.96853 -8.1362 -8.82068 -5.19032 -8.09737 -9.06229 -5.40897 
-8.05413 -9.29772 -5.60287 -8.0097 -9.5315 -5.79019 -7.96338 -9.75702 -5.94001 
-7.91652 -9.98024 -6.07933 -7.86949 -10.1928 -6.17035 -7.8224 -10.4022 -6.2472 
-7.77587 -10.5984 -6.26901 -7.72952 -10.7904 -6.27389 -7.68352 -10.9668 -6.22245 
-7.63763 -11.1381 -6.15286 -7.59113 -11.2917 -6.03139 -7.54441 -11.4393 -5.89242 
-7.49567 -11.5673 -5.71066 -7.44621 -11.6885 -5.51382 -7.3933 -11.7884 -5.2861 
-7.33911 -11.8806 -5.04703 -7.28054 -11.9498 -4.78939 -7.22028 -12.0101 -4.52463 
-7.15563 -12.0459 -4.25182 -7.08923 -12.0719 -3.97579 -7.01965 -12.0724 -3.69898 
-6.94875 -12.0623 -3.42184 -6.87708 -12.0273 -3.14758 -6.80507 -11.9815 -2.87455 
-6.73552 -11.9134 -2.605 -6.66708 -11.8352 -2.33703 -6.60466 -11.7389 -2.07112 
-6.54506 -11.634 -1.80617 -6.49487 -11.5162 -1.54103 -6.44927 -11.392 -1.27578 
-6.41587 -11.2599 -1.00826 -6.38865 -11.1239 -0.739593 -6.3756 -10.9844 -0.467437 
-6.36998 -10.843 -0.193448 -6.37951 -10.7011 0.0841886 -6.3973 -10.559 0.363815 
-6.43015 -10.4184 0.646331 -6.47151 -10.2786 0.930482 -6.52674 -10.1418 1.2162 
-6.59012 -10.0069 1.50284 -6.66515 -9.87689 1.78954 -6.74727 -9.74987 2.07629 
-6.83804 -9.63071 2.36171 -6.93426 -9.5165 2.64631 -7.03568 -9.41436 2.92841 
-7.14049 -9.3201 3.20886 -7.24709 -9.24304 3.48574 -7.3549 -9.1776 3.7602 
-7.46147 -9.13463 4.02996 -7.56718 -9.10738 4.29643 -7.66922 -9.10697 4.55704 
-7.76861 -9.12601 4.8134 -7.86241 -9.17454 5.06276 -7.95202 -9.24517 5.30687 
-8.03453 -9.34564 5.54316 -8.11154 -9.46926 5.7734 -8.18028 -9.62072 5.99556 
-8.24238 -9.79453 6.21122 -8.29549 -9.99225 6.41912 -8.34113 -10.2098 6.62057 
-8.37764 -10.4461 6.81506 -8.40632 -10.6985 7.00357 -8.42643 -10.9641 7.18612 
-8.43892 -11.2414 7.36336 -8.44401 -11.5267 7.53551 -8.4423 -11.8193 7.70298 
-8.4347 -12.1158 7.86581 -8.42151 -12.4159 8.02422 -8.40404 -12.717 8.17789 
-8.38235 -13.0191 8.32692 -8.35779 -13.3207 8.47063 -8.33032 -13.6217 8.60896 
-8.30106 -13.9218 8.74117 -8.26995 -14.2209 8.86696 -8.23781 -14.5196 8.98591 
-8.20457 -14.8178 9.09741 -8.17074 -15.1164 9.2017 -8.13624 -15.4154 9.29787 
-8.10131 -15.7158 9.38695 -8.06585 -16.0179 9.46778 -8.02982 -16.3223 9.54217 
-7.9931 -16.6294 9.6088 -7.95541 -16.9396 9.67002 -7.91651 -17.2535 9.7245 
-7.876 -17.5707 9.77488 -7.83343 -17.8921 9.81998 -7.78848 -18.2168 9.86242 
-7.74035 -18.5457 9.90135 -7.68906 -18.877 9.9392 -7.6334 -19.2119 9.97555 
-7.574 -19.5479 10.0124 -7.50924 -19.8856 10.0501 -7.44059 -20.2226 10.0901 
-7.36618 -20.5584 10.1333 -7.28837 -20.891 10.1806 -7.20532 -21.2184 10.2339 
-7.12002 -21.5396 10.2929 -7.03113 -21.8509 10.3608 -6.94172 -22.153 10.4358 
-6.85142 -22.4401 10.5224 -6.76254 -22.7154 10.6172 -6.67607 -22.9707 10.7257 
-6.59265 -23.2124 10.8429 -6.51463 -23.4301 10.9751 -6.44038 -23.6336 11.1157 
-6.37304 -23.8111 11.2714 -6.30881 -23.975 11.4343 -6.25049 -24.1134 11.6109 
-6.19306 -24.2402 11.7931 -6.13739 -24.3442 11.9861 -6.07921 -24.4395 12.1823 
-6.01587 -24.5169 12.3853 -5.94618 -24.5886 12.589 -5.86297 -24.6482 12.7946 
-5.76997 -24.7046 12.9986 -5.6553 -24.754 13.1995 -5.52857 -24.8021 13.3971 
-5.37405 -24.8468 13.5869 -5.20679 -24.8907 13.7723 -5.00898 -24.9324 13.9468 
-4.79934 -24.9727 14.1163 -4.56013 -25.0096 14.2733 -4.31121 -25.0441 14.4256 
-4.03699 -25.0719 14.5654 -3.75586 -25.0958 14.701 -3.45595 -25.1089 14.8255 
-3.15205 -25.1168 14.9469 -2.83679 -25.1098 15.0595 -2.52012 -25.0965 15.17 
-2.19923 -25.0649 15.2743 -1.87884 -25.0269 15.3775 -1.56005 -24.9687 15.477 
-1.24298 -24.9043 15.5762 -0.931462 -24.8202 15.6742 -0.622191 -24.731 15.7724 
-0.320564 -24.6245 15.8713 -0.0211877 -24.5144 15.971 0.270137 -24.3916 16.073 
0.559524 -24.2669 16.1761 0.841627 -24.1353 16.2833 1.12225 -24.0037 16.3919 
1.39701 -23.8719 16.5061 1.67075 -23.7417 16.622 1.94023 -23.6181 16.7453 
2.20907 -23.4972 16.8706 2.47512 -23.3887 17.0051 2.7408 -23.2837 17.1418 
3.00486 -23.1952 17.2894 3.26874 -23.1104 17.4392 3.53177 -23.0441 17.6008 
3.79469 -22.9813 17.7647 4.05706 -22.9365 17.9404 4.31929 -22.8945 18.118 
4.58077 -22.8675 18.3064 4.84196 -22.8424 18.4962 5.10139 -22.8275 18.6947 
5.36018 -22.8135 18.8941 5.61494 -22.8044 19.0994 5.86859 -22.7953 19.3051 
6.11459 -22.7864 19.514 6.35889 -22.7771 19.7231 6.59043 -22.7648 19.9334 
6.81966 -22.7522 20.1439 7.02997 -22.7361 20.355 7.23747 -22.7199 20.5664 
7.41994 -22.7027 20.7793 7.59938 -22.6858 20.9927 7.74908 -22.6721 21.2096 
7.89593 -22.6592 21.427 8.0117 -22.6554 21.6498 8.12515 -22.6528 21.8731 
8.21026 -22.6654 22.1026 8.29387 -22.6795 22.3325 8.3566 -22.7147 22.5672 
8.41872 -22.7515 22.802 8.47122 -22.8147 23.0381 8.52395 -22.8796 23.274 
8.58102 -22.9755 23.5051 8.63896 -23.073 23.7357 8.7166 -23.2054 23.9537 
8.79547 -23.3391 24.1711 8.90979 -23.5113 24.3671 9.02544 -23.6845 24.5624 
9.19242 -23.899 24.7271 9.36055 -24.1143 24.8911 9.5958 -24.3735 25.015 
9.83175 -24.6332 25.1384 10.1509 -24.9394 25.2121 10.47 -25.2456 25.2857 

LINES 2 240
OFFSETS vtktypeint64
0 240 
CONNECTIVITY vtktypeint64
0 1 2 3 4 5 6 7 8 
9 10 11 12 13 14 15 16 17 
18 19 20 21 22 23 24 25 26 
27 28 29 30 31 32 33 34 35 
36 37 38 39 40 41 42 43 44 
45 46 47 48 49 50 51 52 53 
54 55 56 57 58 59 60 61 62 
63 64 65 66 67 68 69 70 71 
72 73 74 75 76 77 78 79 80 
81 82 83 84 85 86 87 88 89 
90 91 92 93 94 95 96 97 98 
99 100 101 102 103 104 105 106 107 
108 109 110 111 112 113 114 115 116 
117 118 119 120 121 122 123 124 125 
126 127 128 129 130 131 132 133 134 
135 136 137 138 139 140 141 142 143 
144 145 146 147 148 149 150 151 152 
153 154 155 156 157 158 159 160 161 
162 163 164 165 166 167 168 169 170 
171 172 173 174 175 176 177 178 179 
180 181 182 183 184 185 186 187 188 
189 190 191 192 193 194 195 196 197 
198 199 200 201 202 203 204 205 206 
207 208 209 210 211 212 213 214 215 
216 217 218 219 220 221 222 223 224 
225 226 227 228 229 230 231 232 233 
234 235 236 237 238 239 
CELL_DATA 1
FIELD FieldData 3
Length 1 1 double
72.144105597 
Tortuosity 1 1 double
0.93761675937 
ClusterLabel 1 1 int
1 
POINT_DATA 240
FIELD FieldData 6
Curvature 1 240 double
0 0.075045395751 0.1500907915 0.12275333916 0.094548235572 0.076330550214 0.058283589954 0.049691860663 0.041344663207 
0.044407104758 0.047866403319 0.059165130136 0.070807691525 0.087365635615 0.10418457348 0.12569931578 0.14750754587 0.17316910529 
0.19910838213 0.22453994368 0.24992996488 0.2663216145 0.28188772543 0.28170834514 0.27992525741 0.2658348218 0.25036412288 
0.23357638975 0.21662713355 0.20693968178 0.19822047061 0.19518833221 0.19297644469 0.18890732907 0.184549712 0.17448736929 
0.16347423897 0.14883815698 0.13355640043 0.11953775871 0.1057591088 0.09545865831 0.085860874365 0.078095312272 0.070722369147 
0.06397007418 0.057358544774 0.057206341284 0.058601684629 0.076930876129 0.099538092425 0.14564806728 0.19800877579 0.28971108213 
0.39241211476 0.54957391176 0.72271875918 0.87609297409 1.0233839175 1.0080599653 0.94033788016 0.79763333355 0.62965379995 
0.50335428203 0.3917374969 0.32497493274 0.27471047283 0.24875658673 0.23213117663 0.22572032748 0.22339530271 0.22142478429 
0.21960197685 0.21266169051 0.20350177478 0.18912272979 0.17238871184 0.15596712408 0.13969210849 0.12907954632 0.12122743019 
0.11843039666 0.11819289862 0.11881934891 0.11989992589 0.1192349814 0.1176179343 0.11418455157 0.10972350526 0.10450364696 
0.098838618958 0.094836642844 0.091845982066 0.094374124686 0.10037986945 0.11478082615 0.13466199066 0.16249014762 0.1956909192 
0.23344623088 0.27438972063 0.31209972828 0.34746663296 0.36893123686 0.37996911519 0.37368528548 0.35395774207 0.32475912728 
0.28795495518 0.25107631083 0.21413579724 0.18144487771 0.15240595305 0.12786174966 0.10731285405 0.090512481973 0.077158333135 
0.066639663792 0.058817024134 0.053492452378 0.050624314058 0.050112723557 0.051997622363 0.055408632911 0.060424692017 0.065458612729 
0.070511961856 0.074363852958 0.076864103784 0.077527758164 0.076054282136 0.073001268713 0.068046960277 0.062214510459 0.055288526091 
0.048548645372 0.042048552045 0.03696464556 0.033768988199 0.032736368476 0.034688740693 0.038088966288 0.04355755385 0.050056754678 
0.058080404295 0.067484170763 0.079002158789 0.092743416482 0.11001290647 0.13058200634 0.15657713133 0.18655742803 0.22333063104 
0.26157503517 0.30241970174 0.33799554851 0.3639118923 0.3773584067 0.36708183103 0.34804497367 0.31170655997 0.28226893339 
0.26698676757 0.26355134474 0.28536818989 0.30627815992 0.32517829862 0.33541357497 0.32567152978 0.30988691529 0.27960013449 
0.24871124731 0.2163170942 0.18629046418 0.16243374281 0.14172018201 0.12955208905 0.11981739568 0.11699041729 0.11524376133 
0.11670206193 0.11774827517 0.11751559661 0.1161974002 0.1113512708 0.10527223864 0.094992204475 0.08410616301 0.07105248005 
0.058974771711 0.050566727949 0.045460429444 0.05342353925 0.062901264295 0.078700861635 0.094125967739 0.10789990794 0.12035582482 
0.12666096619 0.13145284316 0.12875406137 0.1246726252 0.11331406066 0.10136017206 0.086065853968 0.071087571851 0.058005505572 
0.046194693957 0.042567584238 0.04039666715 0.048322018973 0.057042571043 0.071727124963 0.087236090582 0.10946718236 0.13257629636 
0.16351444188 0.19439236572 0.22467902221 0.25372722028 0.26927622164 0.28305656507 0.27521997823 0.26699128472 0.25332211112 
0.24087930205 0.24805832552 0.2563277688 0.28513345185 0.31387227969 0.34108680873 0.36745091861 0.36936547739 0.37052103536 
0.34232856168 0.31389620322 0.27143058547 0.22836231612 0.11418115806 -2.7755575616e-17 
Torsion 1 240 double
0 0 0 0.16486977009 0.33113674163 0.50244686952 0.67384320521 0.9056457682 1.1390105612 
0.99452169959 0.83689010215 0.64696244192 0.4556182877 0.37227261219 0.29466136919 0.2614773583 0.23107004942 0.21894989486 
0.20814773341 0.20932400479 0.21148032976 0.22696601972 0.24367458721 0.27971063353 0.31771521936 0.37682253613 0.43829651433 
0.49305311597 0.54698588841 0.53003382885 0.50363045835 0.41196804154 0.31089326229 0.20567278716 0.099808320438 0.0048378952244 
-0.088316856405 -0.17393178828 -0.25820298991 -0.31181253336 -0.35959636177 -0.33223994738 -0.28970368596 -0.16275096187 -0.017708995785 
0.24076229125 0.52495981603 0.7520855403 0.96553781237 0.80974420899 0.56066743709 0.38145345638 0.22082000526 0.132492335 
0.064379184115 0.024862355658 -0.006262073827 -0.026288269198 -0.042899623304 -0.063421194441 -0.085202724398 -0.11878906037 -0.15635454444 
-0.19232268977 -0.22772813622 -0.23191461623 -0.22461825799 -0.18122900817 -0.12399016042 -0.058831565469 0.0094949283535 0.07091886271 
0.12946673062 0.19043196811 0.25244570324 0.33195532941 0.41935944301 0.51339557795 0.61054303156 0.6434014342 0.64491892451 
0.5726057132 0.46290986817 0.35820325939 0.25611919786 0.18929406785 0.14170108231 0.12836452489 0.13440989391 0.17946327904 
0.24740136695 0.34298111436 0.45536997904 0.51178412558 0.53292653193 0.48195023594 0.38389645372 0.29416258182 0.21005343805 
0.15119509837 0.11001232157 0.084239955089 0.069634552605 0.063232072707 0.062981784748 0.067343313812 0.075284163552 0.085607308945 
0.097843509939 0.11012505177 0.12244426136 0.13194280065 0.13901732639 0.13828103425 0.13060179288 0.10514003046 0.063329821289 
-0.0010059559375 -0.086759486392 -0.17202773167 -0.25681877986 -0.29857749715 -0.296574522 -0.26890861931 -0.21425239631 -0.16339640789 
-0.11667400797 -0.075851696321 -0.041666983973 -0.0076284744422 0.026239908174 0.067036968151 0.11617410273 0.18277237736 0.27111471317 
0.38836570512 0.54286438864 0.68928831658 0.82494590377 0.86825563843 0.7841253366 0.6878162496 0.57410889806 0.4837417005 
0.42789848067 0.38158151774 0.34985796961 0.31824026934 0.28679054503 0.25288083967 0.21492583214 0.17367549841 0.12680813137 
0.076762052248 0.021097784326 -0.042293437618 -0.11985074194 -0.21960937081 -0.36160466589 -0.54999934165 -0.83003279426 -1.0620987041 
-1.1957696544 -1.192757184 -0.89839321171 -0.6294629137 -0.41689913702 -0.23516587862 -0.12451409293 -0.022798445817 0.057470468694 
0.13725316921 0.21582033474 0.29459950846 0.37393118838 0.4408239554 0.47389842798 0.48729778773 0.44484521429 0.39769909262 
0.33662877781 0.28140638611 0.24433272128 0.21461085851 0.20878235239 0.21544892092 0.26469129938 0.34420678408 0.5320068411 
0.7578901565 1.1269665234 1.353546989 1.0160811787 0.697023132 0.45479748977 0.24224404489 0.16051801562 0.086800892415 
0.050458664213 0.015978771474 -0.0092825607193 -0.036088261259 -0.071022216253 -0.11406537898 -0.20261020729 -0.31094305397 -0.5380040109 
-0.74382774275 -0.81293683813 -0.82673116106 -0.45700972829 -0.10867455958 0.07926362864 0.25161623507 0.29688640536 0.33777053044 
0.33954575242 0.34206333101 0.35186950187 0.36483448975 0.41223058307 0.46528486167 0.58749473824 0.71209149063 0.86980614499 
1.0153482274 0.96612915848 0.90975219974 0.7185683158 0.53031664006 0.40891931165 0.28961159618 0.23038025281 0.17186876351 
0.14119163112 0.11010095878 0.054818198885 0 0 0 
FrenetTangent 3 240 double
-0.7657382763 -0.64202602954 0.038045625247 -0.7657382763 -0.64202602954 0.038045625247 -0.7657382763 -0.64202602954 0.038045625247 
-0.76825523937 -0.63467989788 0.0744576308 -0.77079353263 -0.62727151088 0.11117821267 -0.77452248709 -0.61781614576 0.13349903514 
-0.77827179474 -0.60832578957 0.15557370787 -0.78419643442 -0.59769051653 0.1659775197 -0.79017733269 -0.58702563358 0.17607949892 
-0.7985696243 -0.57548492727 0.17577265834 -0.80704579045 -0.56391375754 0.17510377186 -0.81762432881 -0.55151910768 0.16405446597 
-0.82829507648 -0.53908834027 0.15254987853 -0.84009277716 -0.52587512787 0.12973038952 -0.85195031605 -0.51262036971 0.10631010928 
-0.86297981669 -0.4986555572 0.07010798573 -0.87395756494 -0.48464636629 0.033106996978 -0.88074650748 -0.47012560502 -0.017747702925 
-0.8872335541 -0.45556797381 -0.069600868496 -0.88480966753 -0.4411184912 -0.13415147343 -0.88165670461 -0.42667785711 -0.19974095976 
-0.86516120038 -0.41395020333 -0.27252739097 -0.8474416098 -0.4013797037 -0.34597409235 -0.81554620604 -0.39341179522 -0.41705127434 
-0.78220696945 -0.38591266917 -0.4878871164 -0.73892856694 -0.38638026313 -0.54715256677 -0.69453549162 -0.38774132101 -0.60512040312 
-0.64648621231 -0.39923524484 -0.64697779738 -0.59798853062 -0.41197187863 -0.68685938269 -0.55018852732 -0.43460278523 -0.71071313827 
-0.50248154781 -0.4585529282 -0.73242984988 -0.45681469991 -0.48949309718 -0.74069167934 -0.41144210175 -0.52144144298 -0.7470129008 
-0.36792283718 -0.55538296734 -0.74374114461 -0.3246914691 -0.58963411166 -0.73897921713 -0.28322806822 -0.62043580392 -0.72949509512 
-0.24205932853 -0.6506625875 -0.7192239407 -0.20317751393 -0.67361891107 -0.7091821108 -0.16470327014 -0.69527950909 -0.69918115063 
-0.12927625885 -0.70860271339 -0.69268259362 -0.09442822173 -0.72034181287 -0.68684949321 -0.063209422794 -0.72515446292 -0.68500620336 
-0.03272380329 -0.72856783025 -0.68396893585 -0.0061088585864 -0.7280547941 -0.68501543446 0.019676655803 -0.72670038577 -0.68650845438 
0.041753639452 -0.72520201335 -0.68694811746 0.062989513038 -0.72367098929 -0.68714887485 0.081142552743 -0.72586393324 -0.68279238633 
0.098556996831 -0.72894907785 -0.67734405764 0.11396742525 -0.73919898824 -0.66331575751 0.12887157602 -0.75125894472 -0.64711988565 
0.14316830994 -0.77315240595 -0.61628473639 0.15730349683 -0.797661161 -0.5815561623 0.17217728172 -0.8322472528 -0.52135871156 
0.18725755637 -0.86965066455 -0.45404092972 0.20287347076 -0.90786856765 -0.34472661701 0.21864658377 -0.94632550626 -0.22308723545 
0.23000856468 -0.95528459934 -0.055664276947 0.24001327418 -0.95516743225 0.125845936 0.24007606304 -0.90170782761 0.30630988735 
0.23693534415 -0.83106010421 0.48643670996 0.22946699922 -0.73747481099 0.6175343416 0.22053990395 -0.63615775268 0.73210527965 
0.2147678603 -0.54352064437 0.80483214959 0.21010725529 -0.45394124571 0.86281849555 0.21015862258 -0.37644689467 0.89910341865 
0.21194312909 -0.30339761861 0.9274062092 0.21708118423 -0.23652174692 0.94491399422 0.22350606615 -0.17201473969 0.95827950969 
0.23084396518 -0.10884317588 0.96497032097 0.23854707104 -0.04620578943 0.96899125056 0.24411292594 0.016356364848 0.96773717683 
0.24878825961 0.078887172389 0.96428518505 0.24850703722 0.13902900331 0.95689067238 0.24607598329 0.1981346516 0.94778615065 
0.23717381626 0.2509291171 0.93716159155 0.22535175672 0.30087585377 0.92585116192 0.20721460162 0.34167532606 0.91576824928 
0.1861148091 0.37818348913 0.9062612088 0.15995243105 0.40509975808 0.89950121062 0.13132204256 0.42733997864 0.89408039556 
0.099252308528 0.44133148442 0.89121653287 0.065441133717 0.45114642575 0.8896473296 0.029848366849 0.454925363 0.88936392497 
-0.0066808778949 0.45553152886 0.88975638884 -0.043368721036 0.45237723319 0.89008920769 -0.080143072394 0.4471717767 0.89038949289 
-0.11559337668 0.43975370284 0.89001977471 -0.15029454907 0.43108375336 0.88927097568 -0.18250856851 0.42066800573 0.88813975323 
-0.21326345822 0.40922805651 0.8867841757 -0.24082851578 0.39527654831 0.88599386787 -0.26645381056 0.37979774072 0.88554730514 
-0.28865374415 0.359919976 0.88676351368 -0.30869523095 0.33727026569 0.8890274959 -0.32532476375 0.30759965592 0.89350106632 
-0.3397270488 0.273345959 0.89941700681 -0.35059787054 0.22918677935 0.90678374006 -0.35908122413 0.17833093532 0.91513129095 
-0.36332775959 0.11557257766 0.92216130431 -0.36460852235 0.044482460446 0.92826904139 -0.36031903985 -0.037335685423 0.92846983196 
-0.35199314775 -0.1269277651 0.92439022653 -0.33724430123 -0.22083004532 0.91053268917 -0.3176782389 -0.31796497593 0.88934170288 
-0.2928922701 -0.40994898127 0.85909768617 -0.26405503062 -0.49793525357 0.8218274369 -0.23295791348 -0.57448850783 0.78076343587 
-0.20004604611 -0.64186070216 0.73665293723 -0.16761956588 -0.6973169433 0.69413293979 -0.13559633034 -0.74287377719 0.65293428182 
-0.10554099177 -0.77926690181 0.61599403903 -0.077176814641 -0.8077849638 0.58271337178 -0.051268633211 -0.83025953576 0.55397968202 
-0.027543559067 -0.84736211657 0.52928775003 -0.0062682861158 -0.8608829765 0.50816641443 0.012754750255 -0.87111096399 0.49032772392 
0.029551534363 -0.87951070792 0.47459873906 0.044231554027 -0.88617212192 0.46087570382 0.057004944402 -0.89220106875 0.44776881284 
0.067903482645 -0.89760808954 0.43526779705 0.077251353876 -0.90312937394 0.42211029427 0.085022275602 -0.90876685861 0.40828517758 
0.091586404238 -0.9148283204 0.3929865911 0.096881319449 -0.92133568915 0.37613832089 0.10128162216 -0.92816519125 0.35763539091 
0.10470883759 -0.93534508402 0.33733265558 0.10755748365 -0.94247490595 0.31584106661 0.10975523914 -0.94954839818 0.29301201729 
0.11173190281 -0.9561602385 0.26991368651 0.11345129597 -0.96223488385 0.24650201003 0.11535824411 -0.96759124737 0.22385011435 
0.11749095286 -0.97208301241 0.20211276963 0.12022693689 -0.97580130089 0.18197316499 0.12371416939 -0.97855639214 0.16382319896 
0.12814278507 -0.98060756709 0.14779794221 0.13378433677 -0.98175177296 0.13451029165 0.14053388753 -0.98228681272 0.12359748589 
0.14876077038 -0.98200963102 0.11585113985 0.15806679762 -0.98117338451 0.11059834241 0.16886204415 -0.97956562859 0.10878664205 
0.18048865127 -0.97738632398 0.10960048667 0.19330291638 -0.97439052126 0.11416510986 0.20651868392 -0.97074264829 0.12158794215 
0.22032834047 -0.96613025475 0.13323854209 0.2339893518 -0.96067838279 0.14815320357 0.2474226513 -0.95394050135 0.16806812955 
0.2600499727 -0.94598029075 0.19181985936 0.27139824188 -0.93608029692 0.22166043007 0.28123108281 -0.92420488356 0.25595405788 
0.28857188617 -0.90908100253 0.29757049069 0.29372086425 -0.89064516866 0.3439794584 0.29513377651 -0.86656396065 0.39855751968 
0.29404167646 -0.83742404986 0.4569952038 0.2885221128 -0.79934317601 0.52225454693 0.28132746356 -0.75531177973 0.58813975354 
0.27106182413 -0.70037109233 0.65517237652 0.26182591428 -0.64146817491 0.71809729208 0.25454900219 -0.57502735646 0.77320754478 
0.2520375454 -0.50932080112 0.8210319051 0.25893786284 -0.44506441542 0.85446662798 0.27311990375 -0.38539723229 0.88031703648 
0.30223881331 -0.33514379802 0.89060987703 0.33852106678 -0.29036398093 0.893864088 0.3900725533 -0.25725161101 0.88211490435 
0.44585452444 -0.22828956744 0.86375678834 0.51101216418 -0.20852554444 0.83075184927 0.57585627329 -0.19072898032 0.79280733712 
0.6399775201 -0.17746850195 0.7434743648 0.70037885289 -0.1642733175 0.69248784216 0.75185239203 -0.1512348385 0.63753279874 
0.79886373014 -0.13717497911 0.58394551115 0.83471956569 -0.12056166879 0.5337776131 0.86696234798 -0.10250559803 0.48643974836 
0.88978929451 -0.080689606127 0.44647712195 0.91003747743 -0.05730958251 0.40953953947 0.92327464679 -0.029677347678 0.38082629517 
0.9346047295 -0.00059692216021 0.35473625371 0.94052114691 0.03259449627 0.33609272354 0.94487416949 0.066849960652 0.31949166269 
0.94458912074 0.10426209469 0.30894992751 0.94297159498 0.14203263082 0.29993160197 0.93721879577 0.18091544927 0.29564109949 
0.93049019673 0.21922346761 0.29246214759 0.92059024829 0.2556633856 0.29289573513 0.91026261847 0.29063215926 0.29415862524 
0.89847770397 0.32058814485 0.29824728707 0.88685670556 0.34843467601 0.30306453853 0.87582202233 0.36873585093 0.31048789906 
0.86539493604 0.38660861685 0.31863288948 0.85725241418 0.39535056491 0.32949120829 0.84987011491 0.40160665585 0.34109261158 
0.84549703006 0.39802289562 0.355635391 0.84171183517 0.39212555313 0.3708866755 0.84038044188 0.37657151947 0.38909519856 
0.83925437819 0.3590974791 0.40782941009 0.83903363142 0.33315795461 0.42888142987 0.83861844081 0.30597480086 0.45009977125 
0.83729584568 0.27298804384 0.47209428018 0.83555242148 0.23965088832 0.49386493629 0.83172589339 0.20457926025 0.51452752102 
0.82751670028 0.17006312575 0.53469396108 0.82129348072 0.13847064161 0.55224911349 0.81489274011 0.10808108962 0.56924678996 
0.80749590909 0.08444132355 0.58311640702 0.80007479446 0.062214543515 0.5965831852 0.79250797821 0.048465679686 0.60763293006 
0.78490808272 0.035973228155 0.61853065517 0.77709523964 0.03156893079 0.62844975319 0.76906356031 0.028070107427 0.63851448072 
0.75951461629 0.030849237148 0.64958890624 0.74943281297 0.034063222642 0.66112531577 0.73535456495 0.04053862644 0.67612660532 
0.72039513662 0.046915989458 0.69182831368 0.6982506997 0.052493943048 0.71324112931 0.67493002224 0.057477561721 0.73538295822 
0.6411212 0.05716169405 0.76402515565 0.60611511122 0.05582716176 0.79303781908 0.55935404194 0.044491195036 0.82568778508 
0.51189128436 0.031940364946 0.85802837011 0.45678012429 0.0061475241619 0.88699670254 0.40192711253 -0.020704088506 0.91507410266 
0.35022924678 -0.060496246414 0.93226233013 0.299695495 -0.1010060878 0.94841621315 0.26531382463 -0.15147378746 0.95021856705 
0.23247888097 -0.20236416401 0.95110022053 0.22439156458 -0.26001737076 0.93725066734 0.21775551376 -0.31785080355 0.92252058313 
0.23845163117 -0.37907849358 0.89120716471 0.26019334964 -0.44018814705 0.85898062246 0.30577477257 -0.49860656695 0.8059348569 
0.35182901673 -0.55657576901 0.75212139993 0.41147687092 -0.60162995828 0.67623681477 0.47109481003 -0.64612370519 0.59999198155 
0.52955603254 -0.66894701421 0.50981755634 0.58780648243 -0.69139894345 0.41965953221 0.63372673381 -0.69212515495 0.33046097114 
0.67926110073 -0.69284526385 0.24201197781 0.67926110073 -0.69284526385 0.24201197781 0.67926110073 -0.69284526385 0.24201197781 

FrenetNormal 3 240 double
-0.056455332792 0.12602469451 0.99041939186 -0.056455332792 0.12602469451 0.99041939186 -0.056455332792 0.12602469451 0.99041939186 
-0.075698128075 0.2055986355 0.97199706237 -0.095103997894 0.28584693193 0.95341861144 -0.1696319546 0.40373352013 0.88515959881 
-0.24510216919 0.52226349794 0.8160513458 -0.37668010035 0.65463741611 0.57904239024 -0.50970909315 0.78736936723 0.33769117513 
-0.5483729012 0.76072958403 -0.0016121139906 -0.58375444196 0.72854643616 -0.34432243177 -0.53183724737 0.63308352237 -0.52328114398 
-0.47609116087 0.53484518025 -0.69505776823 -0.41074363294 0.46517008778 -0.7747566768 -0.34488629395 0.39701162803 -0.84956650311 
-0.275249504 0.35126555371 -0.89021413115 -0.20537649836 0.30692025349 -0.9287266218 -0.12779409483 0.27528868706 -0.94892303902 
-0.049656059025 0.24457342577 -0.96779937889 0.037771810477 0.21944291711 -0.9705734891 0.12595975728 0.19476934275 -0.97203014416 
0.22101423716 0.16714522489 -0.95548089597 0.31669867419 0.13925041497 -0.93727973005 0.4125994108 0.097293707515 -0.89864673207 
0.50852217791 0.053904769753 -0.85793271415 0.59533210006 -0.016517343445 -0.79242267368 0.6811200209 -0.089971214636 -0.72413177086 
0.74159129408 -0.19222994746 -0.62253797106 0.79895769538 -0.29802135199 -0.5168598537 0.81401539222 -0.40046784275 -0.38532623939 
0.82343192846 -0.50246834501 -0.25034522549 0.80798267389 -0.55986542473 -0.12831680454 0.78894700718 -0.61082931851 -0.0081565460398 
0.77954757716 -0.61697833098 0.075087321129 0.77164503827 -0.61616580848 0.15259660324 0.78654611349 -0.58463610795 0.1918547805 
0.80524779107 -0.54798687775 0.22473777362 0.84305633624 -0.48473446071 0.21887414186 0.88427006574 -0.41674088166 0.20610517102 
0.92552891384 -0.3230027945 0.15763421731 0.96679633448 -0.22437325079 0.10237988685 0.98429936693 -0.12213793876 0.038423273791 
0.99700151289 -0.019174188687 -0.027291376154 0.99559981174 0.045045742671 -0.0567630069 0.99117585765 0.10096342716 -0.07846827639 
0.99298430045 0.073867010702 -0.017650772987 0.99620627656 0.02794265382 0.061883235609 0.91990854073 -0.12454501326 0.24172206319 
0.82455920725 -0.30256347341 0.44559225366 0.65616975549 -0.41918611262 0.58036817419 0.46932806331 -0.52029822865 0.69768870022 
0.35536672078 -0.53789945077 0.75752152811 0.26078844996 -0.53329032877 0.80206507459 0.2066838971 -0.48650137661 0.84488655143 
0.16389457722 -0.42792021386 0.88722658944 0.12970472491 -0.32367692878 0.92876555316 0.098038629391 -0.20603280345 0.97006941899 
0.06249246183 -0.042130210769 0.98125071122 0.02575242595 0.13600575648 0.98316351926 -0.0073896924158 0.31408151668 0.93038327636 
-0.039372481805 0.49213787683 0.85997971704 -0.052615426625 0.62402498739 0.7647991157 -0.059541569906 0.74034942955 0.66126670245 
-0.043912450453 0.81710522831 0.56356108467 -0.020337727083 0.87992207316 0.46790808804 0.016089499039 0.91947284304 0.38123749513 
0.057244082495 0.95046597615 0.29787077486 0.089686088162 0.96792389517 0.22168057664 0.11878489537 0.98018806925 0.14824416014 
0.1231339699 0.9870931185 0.081881891231 0.11758315134 0.99185451783 0.018349281354 0.0865319251 0.99333785738 -0.038616557084 
0.044855528995 0.99345533869 -0.092846240756 -0.019991559868 0.98677445911 -0.13816985554 -0.094888587757 0.97714489287 -0.17963059706 
-0.19603482205 0.95214735487 -0.20528157558 -0.30902521045 0.92021548814 -0.22379888054 -0.44597129599 0.85288908736 -0.21719232272 
-0.59415585672 0.76895784344 -0.19879926137 -0.72764952108 0.63856208384 -0.1581237727 -0.85398137345 0.48551487286 -0.10658560072 
-0.92829308781 0.33019991328 -0.060151511613 -0.97626549179 0.17373672657 -0.016301768263 -0.99397839195 0.053937230321 0.0057603176208 
-0.99578565549 -0.046590326077 0.016369916887 -0.99123229419 -0.11923303391 0.012301648268 -0.98320950117 -0.17666582434 0.00022726989222 
-0.97285389355 -0.22628524776 -0.01454433644 -0.961178404 -0.27148395037 -0.030842005958 -0.94227177262 -0.32690818802 -0.038787134501 
-0.91912287138 -0.38833140623 -0.041832105673 -0.8712189993 -0.47628697112 -0.024307075915 -0.80826142874 -0.58037707116 0.0057267381927 
-0.70573666946 -0.68775688194 0.049378672823 -0.57827916113 -0.79720966111 0.10161188888 -0.44762161193 -0.87332189802 0.13757838868 
-0.31487514718 -0.92767016982 0.1629263376 -0.20830338908 -0.96075778012 0.16224834822 -0.11942720731 -0.97947198545 0.1439753583 
-0.047184321995 -0.99057162121 0.10554533191 0.013415255798 -0.99634105827 0.053005379983 0.068745757131 -0.99399428098 -0.013294377551 
0.12025808711 -0.98576618895 -0.089565008718 0.17042636901 -0.96591981345 -0.17114086619 0.21958661483 -0.93735972535 -0.25669564339 
0.26733408736 -0.89793959378 -0.33734046963 0.31398507912 -0.85009077175 -0.41417458766 0.35890488644 -0.79678775947 -0.47918738904 
0.40243450017 -0.73910486714 -0.53470731491 0.44500626544 -0.68132995421 -0.57698427817 0.48678227967 -0.62347859341 -0.60825939557 
0.52779684332 -0.56825402083 -0.62842768992 0.56815703537 -0.51528684439 -0.63905105821 0.60646599742 -0.46593881307 -0.64216939977 
0.6429516439 -0.41980779965 -0.63861660646 0.67141556808 -0.37990468648 -0.63530805383 0.69250468305 -0.34572722356 -0.63222404503 