# vtk DataFile Version 5.1
vtk output
ASCII
DATASET POLYDATA
POINTS 240 float
0 0 0 -0.209046 -0.143944 0.165735 -0.418093 -0.287887 0.33147 
-0.625717 -0.447489 0.484137 -0.833329 -0.607224 0.636693 -1.04014 -0.780351 0.775056 
-1.24693 -0.953706 0.913176 -1.45344 -1.13876 1.03563 -1.65994 -1.32411 1.15767 
-1.86647 -1.51974 1.2623 -2.07299 -1.71573 1.36631 -2.27953 -1.92108 1.45016 
-2.48606 -2.12684 1.53312 -2.69196 -2.34117 1.59217 -2.89784 -2.55596 1.64994 
-3.10129 -2.77863 1.6778 -3.3046 -3.00179 1.70379 -3.5013 -3.23144 1.69072 
-3.69753 -3.46156 1.67483 -3.87762 -3.69411 1.60591 -4.0564 -3.92685 1.53265 
-4.19944 -4.15046 1.39078 -4.3392 -4.37322 1.24261 -4.41795 -4.56599 1.02666 
-4.49049 -4.7557 0.803807 -4.4946 -4.90177 0.541233 -4.49103 -5.04295 0.274204 
-4.4338 -5.14582 -0.00358256 -4.36999 -5.24401 -0.282689 -4.27073 -5.3168 -0.559033 
-4.16674 -5.38622 -0.835008 -4.03981 -5.44104 -1.10452 -3.90958 -5.49376 -1.37309 
-3.76417 -5.53945 -1.63504 -3.61639 -5.58404 -1.89595 -3.45828 -5.62683 -2.15102 
-3.29845 -5.66932 -2.40511 -3.13157 -5.71381 -2.65426 -2.96344 -5.75866 -2.90253 
-2.79061 -5.80845 -3.14658 -2.61689 -5.85918 -3.38982 -2.44035 -5.91725 -3.62932 
-2.26324 -5.97681 -3.86807 -2.08494 -6.04579 -4.10332 -1.9064 -6.1168 -4.33782 
-1.72824 -6.19927 -4.56876 -1.55018 -6.28433 -4.79889 -1.37421 -6.38293 -5.02508 
-1.19874 -6.48477 -5.25032 -1.02734 -6.60235 -5.47079 -0.856977 -6.72391 -5.69007 
-0.693269 -6.86382 -5.90308 -0.531332 -7.00862 -6.11442 -0.379621 -7.17476 -6.31698 
-0.230768 -7.34685 -6.51708 -0.0978416 -7.54418 -6.70369 0.0304108 -7.74891 -6.88635 
0.133113 -7.98285 -7.04658 0.227953 -8.22578 -7.1999 0.281015 -8.49785 -7.31386 
0.320616 -8.7793 -7.41512 0.299256 -9.07259 -7.45323 0.257348 -9.36986 -7.47006 
0.153844 -9.64093 -7.4155 0.0286404 -9.90277 -7.33579 -0.133964 -10.1162 -7.20618 
-0.310325 -10.3117 -7.05822 -0.502945 -10.4627 -6.88369 -0.701804 -10.5967 -6.69898 
-0.906561 -10.6957 -6.50049 -1.11368 -10.7808 -6.29649 -1.32192 -10.8384 -6.0849 
-1.53064 -10.8846 -5.87013 -1.73799 -10.9085 -5.65093 -1.94475 -10.9228 -5.4298 
-2.14861 -10.9185 -5.20591 -2.35115 -10.9059 -4.98077 -2.54962 -10.8773 -4.75374 
-2.74618 -10.8413 -4.52582 -2.93768 -10.7914 -4.29642 -3.12672 -10.7349 -4.0663 
-3.30969 -10.6663 -3.83475 -3.4896 -10.5916 -3.60249 -3.66235 -10.5064 -3.3686 
-3.83134 -10.4157 -3.13385 -3.99187 -10.316 -2.89699 -4.14779 -10.2114 -2.65898 
-4.29364 -10.0996 -2.4181 -4.4338 -9.98365 -2.1756 -4.56168 -9.8625 -1.92915 
-4.68235 -9.73829 -1.68038 -4.78787 -9.61173 -1.42631 -4.88417 -9.48373 -1.16902 
-4.96121 -9.35768 -0.904943 -5.02612 -9.23286 -0.636599 -5.06628 -9.11696 -0.360559 
-5.09029 -9.00688 -0.0794942 -5.08349 -8.91665 0.20764 -5.05587 -8.83983 0.498876 
-4.99462 -8.79644 0.788968 -4.90983 -8.77645 1.07826 -4.79808 -8.79778 1.35478 
-4.66679 -8.84905 1.62206 -4.52178 -8.93807 1.86892 -4.36646 -9.05539 2.10046 
-4.20841 -9.20111 2.3112 -4.04823 -9.36887 2.5058 -3.89141 -9.55697 2.68227 
-3.73729 -9.76142 2.84418 -3.58948 -9.98059 2.99079 -3.44691 -10.212 3.12469 
-3.31208 -10.4544 3.24545 -3.18391 -10.7062 3.35492 -3.06424 -10.9664 3.45274 
-2.95214 -11.2341 3.54021 -2.84891 -11.5081 3.6172 -2.75383 -11.7878 3.68455 
-2.66772 -12.0723 3.74242 -2.59013 -12.3612 3.79128 -2.52138 -12.6534 3.83167 
-2.46134 -12.9487 3.86371 -2.40982 -13.2462 3.88838 -2.36698 -13.5458 3.90553 
-2.33201 -13.8465 3.9167 -2.30532 -14.1485 3.92156 -2.28543 -14.4508 3.92217 
-2.27296 -14.7537 3.91815 -2.26589 -15.0567 3.91191 -2.26492 -15.3597 3.90317 
-2.26764 -15.6627 3.89446 -2.27468 -15.9657 3.88578 -2.28343 -16.2687 3.8795 
-2.29425 -16.5717 3.87611 -2.30456 -16.8746 3.87742 -2.31424 -17.1776 3.88458 
-2.32101 -17.4802 3.89848 -2.32405 -17.7825 3.92106 -2.32182 -18.0838 3.95178 
-2.31257 -18.3839 3.99334 -2.29593 -18.6821 4.04358 -2.26911 -18.9775 4.10577 
-2.23337 -19.2697 4.17614 -2.18489 -19.5574 4.25819 -2.12671 -19.8408 4.34706 
-2.05418 -20.1179 4.44602 -1.97188 -20.39 4.54999 -1.87463 -20.6544 4.66164 
-1.7681 -20.9135 4.77647 -1.64685 -21.1641 4.89635 -1.51711 -21.4092 5.01788 
-1.37338 -21.6454 5.14211 -1.22207 -21.8762 5.26682 -1.05783 -22.0979 5.39233 
-0.886911 -22.3144 5.5175 -0.704184 -22.5217 5.64208 -0.515615 -22.724 5.76582 
-0.316335 -22.917 5.88799 -0.112027 -23.1051 6.00906 0.101849 -23.284 6.12801 
0.320099 -23.4581 6.24575 0.546989 -23.6227 6.36112 0.777627 -23.7827 6.47532 
1.01595 -23.933 6.58716 1.25752 -24.0786 6.69797 1.50598 -24.2141 6.80661 
1.75721 -24.3448 6.91444 2.0146 -24.4648 7.0205 2.27432 -24.5798 7.12605 
2.53941 -24.6835 7.2304 2.80641 -24.7819 7.33454 3.07799 -24.8678 7.4382 
3.35106 -24.9483 7.54197 3.62782 -25.0152 7.64603 3.90557 -25.0763 7.75051 
4.18594 -25.1226 7.85607 4.46678 -25.1629 7.96231 4.74895 -25.1871 8.07038 
5.03106 -25.2052 8.1793 5.31298 -25.2063 8.29063 5.59432 -25.2016 8.40288 
5.87391 -25.1794 8.51786 6.15246 -25.1518 8.63373 6.42781 -25.1072 8.75237 
6.70184 -25.0577 8.87178 6.97161 -24.9925 8.99371 7.23997 -24.9232 9.11625 
7.50357 -24.8403 9.24089 7.76588 -24.7542 9.36598 8.02358 -24.657 9.49268 
8.28022 -24.5576 9.61972 8.53288 -24.4497 9.74798 8.7848 -24.3405 9.87648 
9.03376 -24.2257 10.0059 9.28231 -24.1102 10.1356 9.52919 -23.992 10.266 
9.776 -23.8739 10.3966 10.0225 -23.756 10.528 10.2693 -23.6388 10.6595 
10.5171 -23.525 10.7919 10.7654 -23.4124 10.9246 11.016 -23.3063 11.0582 
11.2672 -23.202 11.1921 11.5216 -23.1076 11.3274 11.7766 -23.0155 11.4629 
12.0352 -22.9366 11.6 12.2943 -22.8605 11.7374 12.5568 -22.8009 11.8768 
12.8197 -22.7444 12.0165 13.085 -22.7075 12.1584 13.3504 -22.6738 12.3006 
13.6165 -22.6624 12.4452 13.8824 -22.6543 12.5903 14.1466 -22.6705 12.7379 
14.4102 -22.6899 12.8859 14.6693 -22.7347 13.0367 14.9274 -22.7824 13.1879 
15.1777 -22.856 13.3422 15.4268 -22.9322 13.4967 15.6644 -23.0343 13.6546 
15.9007 -23.1388 13.8128 16.1218 -23.2685 13.9745 16.3413 -23.4002 14.1365 
16.5415 -23.5563 14.3019 16.74 -23.7141 14.4676 16.9148 -23.8951 14.6363 
17.0878 -24.0775 14.8053 17.2325 -24.2813 14.9765 17.3755 -24.4861 15.1477 
17.4859 -24.7098 15.3197 17.5946 -24.9341 15.4917 17.6673 -25.1737 15.6622 
17.7387 -25.4137 15.8326 17.772 -25.6646 15.9992 17.8044 -25.9156 16.1655 
17.799 -26.1728 16.3257 17.793 -26.4299 16.4858 17.7519 -26.6887 16.6379 
17.7104 -26.9476 16.7899 17.6384 -27.2047 16.9332 17.5663 -27.4619 17.0765 

LINES 2 240
OFFSETS vtktypeint64
0 240 
CONNECTIVITY vtktypeint64
0 1 2 3 4 5 6 7 8 
9 10 11 12 13 14 15 16 17 
18 19 20 21 22 23 24 25 26 
27 28 29 30 31 32 33 34 35 
36 37 38 39 40 41 42 43 44 
45 46 47 48 49 50 51 52 53 
54 55 56 57 58 59 60 61 62 
63 64 65 66 67 68 69 70 71 
72 73 74 75 76 77 78 79 80 
81 82 83 84 85 86 87 88 89 
90 91 92 93 94 95 96 97 98 
99 100 101 102 103 104 105 106 107 
108 109 110 111 112 113 114 115 116 
117 118 119 120 121 122 123 124 125 
126 127 128 129 130 131 132 133 134 
135 136 137 138 139 140 141 142 143 
144 145 146 147 148 149 150 151 152 
153 154 155 156 157 158 159 160 161 
162 163 164 165 166 167 168 169 170 
171 172 173 174 175 176 177 178 179 
180 181 182 183 184 185 186 187 188 
189 190 191 192 193 194 195 196 197 
198 199 200 201 202 203 204 205 206 
207 208 209 210 211 212 213 214 215 
216 217 218 219 220 221 222 223 224 
225 226 227 228 229 230 231 232 233 
234 235 236 237 238 239 
CELL_DATA 1
FIELD FieldData 3
Length 1 1 double
72.407115541 
Tortuosity 1 1 double
0.96751452824 
ClusterLabel 1 1 int
2 
POINT_DATA 240
FIELD FieldData 6
Curvature 1 240 double
0 0.055690345724 0.11138069145 0.10982350504 0.10778117005 0.10826893227 0.108799944 0.11111557591 0.11347736178 
0.11952699819 0.12570490766 0.13522407762 0.14488979409 0.16139073709 0.17825461248 0.20524976493 0.23287812219 0.27874486594 
0.325926088 0.39559975524 0.46711371344 0.52964309586 0.59134820528 0.58257463618 0.56662268316 0.49773916856 0.42291940405 
0.35084597056 0.27910935124 0.22811320297 0.17988245083 0.14726437664 0.11689813101 0.096942447432 0.078603938548 0.067612165464 
0.057844848348 0.054414838838 0.052114250485 0.053819545201 0.056285957699 0.060827296283 0.065787811853 0.072055334737 0.078602930616 
0.086313066283 0.094286870766 0.10357450662 0.11317691457 0.12539867181 0.13828215941 0.15458908111 0.1718064906 0.19710996903 
0.22467406888 0.26579960968 0.31090513858 0.37946972253 0.45525247727 0.54990366862 0.65063468954 0.70918551428 0.75351829535 
0.7084032655 0.63177821134 0.54014498408 0.44299150925 0.3710321068 0.30874019726 0.26574576195 0.23047031635 0.20498913649 
0.1835889007 0.16757886635 0.1539067507 0.14360785514 0.1348310223 0.12764719808 0.12121071123 0.11632924945 0.11220586241 
0.10922751573 0.10682893633 0.10560394421 0.10499583772 0.10587942594 0.10757666583 0.11187369142 0.1176416484 0.12666911816 
0.13760883542 0.15413896843 0.17406867859 0.20177608287 0.2343844999 0.27581144489 0.32299492896 0.37329389543 0.42569910352 
0.45971349692 0.48085432003 0.47450939462 0.44824726014 0.41069142432 0.36466531251 0.32382246064 0.28700243739 0.25691878356 
0.23224463851 0.21262959117 0.19721748654 0.18503872764 0.17563862522 0.16765613567 0.16093374644 0.15486949771 0.14941031364 
0.14414856309 0.1390745362 0.13380648145 0.12834763263 0.12194163856 0.11457244593 0.10600021562 0.096162721549 0.085396698038 
0.073620695133 0.061766510423 0.049824371182 0.041528447933 0.037475394203 0.040277350721 0.051330708461 0.064929771105 0.081698956835 
0.098134724951 0.1141408973 0.1288440594 0.14180987453 0.15263652966 0.16051114399 0.16609799327 0.16841660678 0.16903940323 
0.16715380364 0.16424905982 0.15978307379 0.15509311071 0.1500477058 0.14494414697 0.13974495725 0.13477389902 0.13019170129 
0.12585195879 0.12194074182 0.11802385108 0.11409655845 0.11064943468 0.10811580289 0.10557666111 0.10302663711 0.10089032812 
0.09960266535 0.098619731566 0.098286351684 0.098149811291 0.098449509768 0.099169534875 0.10085864638 0.102843226 0.10553692911 
0.10835471558 0.11148271048 0.11473304109 0.11830218596 0.12166221577 0.124453714 0.12676018417 0.12768980051 0.12804607239 
0.12670142239 0.12464338139 0.12037136829 0.11544268972 0.10837984839 0.10081878546 0.091560078551 0.082145868402 0.072175435124 
0.062110723488 0.051691525222 0.041226302272 0.030578898277 0.020418877244 0.012293150316 0.0073081100791 0.016170642985 0.025380911984 
0.03621394942 0.047058748872 0.0579617703 0.068760513358 0.079010422893 0.089215544547 0.099169356428 0.10892212128 0.11746860399 
0.12582987577 0.13299885224 0.14001556398 0.14597657359 0.1516738559 0.15539318346 0.15903547293 0.16204960573 0.16504345325 
0.16785642362 0.17068745115 0.17369576704 0.17677311085 0.18060285908 0.18452825724 0.18962271014 0.19476097483 0.20050712825 
0.20622260751 0.21144730022 0.2165731949 0.21983839345 0.22298975152 0.22354554663 0.22395432346 0.22013632474 0.2162083636 
0.20802852256 0.19977557266 0.18724575492 0.17408976019 0.087044880097 0 
Torsion 1 240 double
0 0 0 -0.082983598377 -0.16667044759 -0.16052194125 -0.1528377878 -0.14047452455 -0.12799024983 
-0.10957825457 -0.090960077734 -0.07133971916 -0.051675405247 -0.031835675363 -0.011986631356 0.0062238036467 0.024331825587 0.040396467669 
0.056313839132 0.066119586454 0.0754252918 0.07938785313 0.082860217761 0.089429194052 0.096313565976 0.10934765569 0.12307143339 
0.14376201685 0.16530701989 0.19794083889 0.23205316669 0.28894221119 0.34911635907 0.43972627309 0.53506407312 0.63261542757 
0.73053570777 0.72785045253 0.70723549791 0.61506753806 0.50930450722 0.41809267896 0.32982048758 0.26971036558 0.21563497273 
0.17918730303 0.14673767363 0.12447268956 0.10464777676 0.089921850517 0.076484089295 0.066295518018 0.056971093004 0.048473133916 
0.040206229819 0.032660832322 0.025327181328 0.01907059247 0.013145407347 0.009352921002 0.0062476375969 0.0045955106806 0.0034332117942 
0.0025275046348 0.0017121877429 -0.00022728672263 -0.0025802444336 -0.0069177980583 -0.012016882673 -0.018709816349 -0.026040289649 -0.034641466091 
-0.043772102175 -0.054386122122 -0.065643537479 -0.078361525722 -0.091738552949 -0.10735625119 -0.12402512841 -0.14293405306 -0.16293500083 
-0.1861841538 -0.21107796765 -0.23845436947 -0.26713572139 -0.29658474465 -0.32645249773 -0.34922902491 -0.36799341112 -0.37784592942 
-0.38247015189 -0.37696265021 -0.36529396494 -0.34781402184 -0.32667219026 -0.30345483775 -0.27888263131 -0.25582378224 -0.23378804801 
-0.21945661176 -0.2105181841 -0.20738137211 -0.20844862945 -0.20965023099 -0.21095259068 -0.20645674449 -0.19746079823 -0.18498392716 
-0.169711768 -0.15375822447 -0.13723860777 -0.12166061471 -0.10689182948 -0.094604927423 -0.08452414375 -0.077151086314 -0.072267390093 
-0.070049314976 -0.070365764843 -0.073583273311 -0.079653489404 -0.090733690829 -0.10690879259 -0.13360501406 -0.17136655109 -0.238160815 
-0.33653453623 -0.5392985597 -0.85950167318 -1.1872974608 -1.52392836 -1.483730081 -0.98994112454 -0.63143234204 -0.44138566299 
-0.31031014488 -0.25521669951 -0.21596568076 -0.19783789749 -0.18565364176 -0.18167145404 -0.17974825506 -0.18076646856 -0.18126534085 
-0.18099602093 -0.17887809722 -0.17392826983 -0.16672324672 -0.15593932603 -0.14392600529 -0.12989100449 -0.11503235559 -0.098769761093 
-0.082119174305 -0.064782833702 -0.047435784308 -0.030069102132 -0.012804386156 0.004266345339 0.02112066225 0.037547560355 0.053939376592 
0.070259230023 0.086082623717 0.10084777429 0.11424497371 0.1246104976 0.13289990526 0.13640271162 0.1382825099 0.13626708876 
0.13311227108 0.12710896202 0.12024622905 0.11114378528 0.10187929594 0.0921742452 0.082604533738 0.073419011184 0.064464394315 
0.056194797643 0.048306628922 0.041602202115 0.035446362682 0.031073432212 0.027604364518 0.027215125538 0.028268918408 0.034484325206 
0.04472559349 0.070104100959 0.12090624513 0.27234361794 0.96303758446 3.9045416813 5.7523828138 2.778164512 0.3044390406 
0.16634677721 0.046379620929 0.016131744851 -0.011276234802 -0.023737391167 -0.035403525791 -0.042608705095 -0.049644516706 -0.055664122156 
-0.061663889827 -0.067535951793 -0.073341306071 -0.07868415371 -0.084048861868 -0.089577523919 -0.094980253727 -0.099356151397 -0.10352220107 
-0.10581710607 -0.10781481067 -0.10689454769 -0.1056790486 -0.10124547593 -0.0965934679 -0.089271694228 -0.081852144466 -0.073075951443 
-0.064309953278 -0.055707072817 -0.047196214161 -0.040418432826 -0.033719611062 -0.028821067516 -0.023960622029 -0.020195495719 -0.016447688833 
-0.013369566329 -0.010256623194 -0.0051066731514 0 0 0 
FrenetTangent 3 240 double
-0.687650599 -0.5011890046 0.52530584935 -0.687650599 -0.5011890046 0.52530584935 -0.687650599 -0.5011890046 0.52530584935 
-0.68579758736 -0.52513951767 0.50279082124 -0.68392887224 -0.5492930012 0.48008498781 -0.6830008575 -0.57039733507 0.45505567485 
-0.68208892311 -0.59144954672 0.42998664429 -0.68187521096 -0.61013177584 0.40205171368 -0.68167955629 -0.62875271231 0.37404266497 
-0.68175954757 -0.64564305057 0.34209195019 -0.68184912653 -0.66247319412 0.310004134 -0.68144245599 -0.67808988748 0.27227800375 
-0.68101402011 -0.69365335935 0.23430457904 -0.67869080648 -0.70825893057 0.18795673508 -0.67626698517 -0.72281363981 0.1411642317 
-0.66910082271 -0.73604576224 0.081385040218 -0.66163826393 -0.749195223 0.020794180735 -0.64322550986 -0.75860647031 -0.059783510911 
-0.62402355253 -0.76774829682 -0.14180169496 -0.5810623982 -0.76516258566 -0.25021576221 -0.53615730956 -0.76161734869 -0.36078949262 
-0.45257762112 -0.73078805071 -0.4861541908 -0.36544980426 -0.69745562786 -0.61287585851 -0.24826227339 -0.63182397888 -0.71429122948 
-0.12801310499 -0.56290259389 -0.81312910727 -0.013736826468 -0.48563156438 -0.86204890486 0.099869595245 -0.40742412612 -0.90537041308 
0.18577521556 -0.34511254145 -0.91430739301 0.26828356778 -0.28475044825 -0.91902740248 0.32587927579 -0.24432426557 -0.91086072873 
0.38015329792 -0.20655620429 -0.90097583056 0.41825201949 -0.18387191478 -0.88848577914 0.45401776501 -0.16336316927 -0.87561998447 
0.47978739146 -0.15330165935 -0.86342780256 0.50400422272 -0.14486302098 -0.85134025953 0.52175896745 -0.1438293356 -0.84065353214 
0.53843669777 -0.14402980905 -0.83020027403 0.55063152288 -0.14980234192 -0.82104378875 0.56202741439 -0.15656791508 -0.81211841149 
0.57005227541 -0.16779941668 -0.80413129746 0.57743664063 -0.17987944468 -0.79632245345 0.58199369902 -0.19577057702 -0.78906270743 
0.58597958431 -0.21243162943 -0.7819138903 0.58735724502 -0.23263748378 -0.774863534 0.58817600046 -0.25360293854 -0.76783427645 
0.58630727179 -0.27814717863 -0.76038891989 0.58382901064 -0.30350310199 -0.75284919036 0.57830472104 -0.33262803163 -0.74426784086 
0.57205065379 -0.36265595235 -0.73543693659 0.56200023811 -0.39696474612 -0.72465501988 0.55099074493 -0.43235502362 -0.71338021582 
0.53484550391 -0.47275209211 -0.69874348222 0.5173343725 -0.51448075395 -0.68321261842 0.49209775216 -0.56246636237 -0.66171398015 
0.46470131771 -0.61220122468 -0.63854693182 0.42452161657 -0.66947434856 -0.60415802764 0.38059030456 -0.72895978835 -0.56647575272 
0.31484658091 -0.7938296657 -0.50734035508 0.24239134599 -0.86035629307 -0.4416039966 0.13863527489 -0.91544348694 -0.34060886503 
0.024793378806 -0.96684464113 -0.22825257325 -0.10847749275 -0.96967456732 -0.085580329871 -0.24829745717 -0.95613216947 0.067310773589 
-0.36704013174 -0.88572280639 0.20898558997 -0.47835785194 -0.79528076239 0.34670921432 -0.55090100765 -0.69020690039 0.44588269333 
-0.60918225459 -0.57975122029 0.53087680855 -0.64249780731 -0.48216570505 0.58681345933 -0.66623350063 -0.38951874144 0.63160015282 
-0.6782795164 -0.31114453532 0.66155965996 -0.68564966115 -0.2384794322 0.68558829256 -0.68735441195 -0.17592092905 0.70234742118 
-0.68669858193 -0.11757350922 0.7160775898 -0.68282594076 -0.066171580821 0.72604421856 -0.67755805619 -0.017782154737 0.73437846859 
-0.67007201293 0.025779450643 0.74073568663 -0.66158509319 0.067162649119 0.74620082926 -0.65127403809 0.10493691168 0.75068402457 
-0.64010721578 0.14101809318 0.75470655323 -0.62722293734 0.17418997961 0.75839518746 -0.61350139903 0.20594358469 0.76192104815 
-0.59794168489 0.23525050589 0.76561366257 -0.5814512488 0.26331859981 0.76939070926 -0.56284661825 0.28907159121 0.77378483313 
-0.54313068035 0.31360766974 0.77850331809 -0.52085094481 0.3356807411 0.78429870407 -0.4971727742 0.35641035401 0.79068149062 
-0.47014544295 0.37423018109 0.79867704372 -0.44122319186 0.39040368198 0.80758508315 -0.40785087799 0.40267569854 0.81863736135 
-0.37186786061 0.41265884428 0.83094759296 -0.32981682868 0.41685182387 0.84582391337 -0.28407578791 0.41752375647 0.86226069319 
-0.22998460849 0.40894462741 0.88109311493 -0.17063169786 0.39453606223 0.90143511924 -0.10103805785 0.36522073068 0.92185382797 
-0.024759497288 0.32617459329 0.94232260764 0.05995581933 0.26620392084 0.95601121428 0.15037485835 0.19208708382 0.96511604197 
0.23851227284 0.098922861287 0.95775623776 0.32505255015 -0.0075745311142 0.93887119124 0.39509653173 -0.11841017081 0.90239365827 
0.45318667584 -0.23238946796 0.85316794672 0.49116774866 -0.33595670679 0.79673546977 0.51406701801 -0.43171490187 0.73489791879 
0.52311130163 -0.51364801923 0.67499352263 0.52140246201 -0.58485122554 0.61658948543 0.51238693196 -0.64538914739 0.562605495 
0.4975039081 -0.69736252265 0.51217093606 0.47898549027 -0.74209904604 0.46561082334 0.457446899 -0.78082341558 0.42226948134 
0.43396116339 -0.81465577393 0.38165470973 0.40880210063 -0.84428406016 0.34338308457 0.38252314899 -0.87033702459 0.30701034954 
0.35524874058 -0.89321192519 0.27232551686 0.32738431513 -0.91322569442 0.23915792722 0.29897745467 -0.93060906868 0.20738522234 
0.2703571823 -0.94560307714 0.17701473147 0.24153399371 -0.95832522959 0.14797749328 0.21282985982 -0.96902313678 0.12043598619 
0.18424279639 -0.97773053612 0.094365281358 0.15623333777 -0.9847395679 0.07014110908 0.12881127389 -0.99002144624 0.047794766517 
0.10259121075 -0.9939858304 0.027859458817 0.077635320813 -0.99656457413 0.01045989468 0.054511195744 -0.99829545142 -0.003957222884 
0.033379516677 -0.99910408804 -0.015130275754 0.014651197601 -0.99953335189 -0.022846979572 -0.0013733414832 -0.99953582137 -0.026675290706 
-0.014468840754 -0.99949826382 -0.026701812228 -0.024156002787 -0.99941412935 -0.022304433113 -0.030433137999 -0.99937738045 -0.014000960742 
-0.032605611295 -0.99939766973 -0.00099570945284 -0.030965561252 -0.99922395951 0.015720636778 -0.024577840637 -0.99880866499 0.037058346522 
-0.014183073746 -0.99765018365 0.061433891498 0.0013746181516 -0.99553413465 0.089723570331 0.02078730075 -0.99199558049 0.11985581179 
0.04533997095 -0.98656035278 0.15244480342 0.073135644161 -0.97918092408 0.18534349557 0.10540666153 -0.96911849799 0.21866957446 
0.13987399584 -0.95702127918 0.25073100746 0.1774789258 -0.94201721363 0.28098580348 0.21609346555 -0.9253388626 0.30885159231 
0.25620138644 -0.90618396431 0.33318364135 0.29628168733 -0.88594404754 0.35469008557 0.33631967673 -0.86404197479 0.37186794366 
0.37563780644 -0.8415919029 0.38639105618 0.41381355012 -0.81827218019 0.39670120291 0.45090306009 -0.79476649334 0.40484787042 
0.48620631906 -0.77095499876 0.40943681654 0.5202940987 -0.74715269726 0.41242331995 0.55231003857 -0.72336606578 0.41267838691 
0.58315063659 -0.69963752004 0.41184163009 0.61191388624 -0.67601163745 0.40907513824 0.63954726843 -0.65247033398 0.40564492786 
0.66510922695 -0.62908409223 0.40099790019 0.68967222245 -0.6057204459 0.39601858649 0.71233475172 -0.58239978597 0.39040711886 
0.73412494729 -0.55901777301 0.38471226176 0.75419228382 -0.53551458778 0.37885271045 0.77348654019 -0.51186854954 0.37310041202 
0.7911949911 -0.48792947947 0.36756811951 0.80824822677 -0.46368611089 0.36228638239 0.82390481945 -0.43879410603 0.35753872386 
0.83894306333 -0.41349207212 0.3531729283 0.85261091255 -0.38728132518 0.34965342362 0.86567895451 -0.3605413641 0.34660347277 
0.87736410751 -0.3325812704 0.34463610439 0.88844110066 -0.30396236598 0.34318038264 0.89805851017 -0.27376231581 0.34295261282 
0.90699953156 -0.2428681194 0.34324303444 0.91424958264 -0.21023855742 0.34482893465 0.92073521921 -0.17693602771 0.34689390049 
0.92522874521 -0.14187970326 0.35020734036 0.92887043174 -0.10627249007 0.35390746047 0.93019617973 -0.069167548101 0.35865886748 
0.93062726718 -0.031807407935 0.36365368136 0.92851867314 0.0062771658082 0.36933945668 0.92557357543 0.044235272491 0.37510325014 
0.92014685021 0.08181819356 0.3810984974 0.91406107796 0.11886416882 0.38701811074 0.90592998737 0.15424376052 0.39270299812 
0.89742013846 0.18870464513 0.39820190567 0.887679325 0.22017973167 0.40309637876 0.87787870589 0.25046885592 0.4077613216 
0.86787430457 0.27671692348 0.41164416134 0.85807627464 0.30168767904 0.41532083157 0.84901641931 0.32208958782 0.41826004934 
0.84034002915 0.34124172626 0.42104888141 0.83310546804 0.35569472817 0.42327226323 0.82636456666 0.36894230067 0.42540277551 
0.821577735 0.37741838168 0.42716567912 0.81732677969 0.38473980807 0.42889128125 0.81531252566 0.38724180645 0.43046119025 
0.81381804945 0.38863147863 0.4320422221 0.81461532088 0.38511680344 0.43367229556 0.81586796903 0.380518843 0.43535030073 
0.81924570854 0.3708655514 0.43725198724 0.82296999767 0.36015203957 0.43922800279 0.82840970736 0.34419043768 0.44157194708 
0.83404398414 0.327216012 0.44400215875 0.84070229825 0.30491093482 0.44688640928 0.84738034023 0.28165479783 0.44985684311 
0.85416907751 0.25306215856 0.45331086099 0.8607907009 0.22362278295 0.45683916582 0.86640964097 0.18910298921 0.46081319245 
0.87168297637 0.15390063062 0.46484525594 0.87473148177 0.11430426085 0.46925093179 0.87729181293 0.074196131015 0.47370475982 
0.87646746936 0.030539798091 0.47849244303 0.87506247797 -0.01341682958 0.48331921844 0.86930262794 -0.059625667855 0.48843918532 
0.8629273072 -0.10594444246 0.49359560711 0.85153353306 -0.15315962095 0.49904927659 0.83952283798 -0.2003678829 0.50454040903 
0.82201126449 -0.24751447233 0.5103655861 0.80390192464 -0.2945703927 0.51622087161 0.77992360593 -0.34073610767 0.52237176736 
0.75537485826 -0.3867603618 0.52853179883 0.724608435 -0.43124269274 0.53479140961 0.6932959584 -0.47555772835 0.5410252559 
0.65530949654 -0.51782804318 0.54694420279 0.61681241859 -0.55990143684 0.55278988947 0.57123054229 -0.59924254917 0.55761909075 
0.52521140417 -0.63834133694 0.56232364474 0.47219607709 -0.67356293188 0.56503384201 0.41886375932 -0.7084985724 0.56758216391 
0.35956145017 -0.73804873809 0.56708183296 0.30008636676 -0.76729895414 0.56641422882 0.23667203035 -0.78971031829 0.5619327961 
0.17322810854 -0.81185027532 0.55731339174 0.10893360668 -0.82618727788 0.54872730276 0.044713534927 -0.84032371534 0.54005497901 
-0.016628572366 -0.84670496911 0.52804824406 -0.077861320577 -0.85297519085 0.51600745914 -0.13269656248 -0.85275003919 0.50197475118 
-0.18707100404 -0.85252677956 0.48805996514 -0.18707100404 -0.85252677956 0.48805996514 -0.18707100404 -0.85252677956 0.48805996514 

FrenetNormal 3 240 double
0.069734007082 -0.76576740394 -0.6393257787 0.069734007082 -0.76576740394 -0.6393257787 0.069734007082 -0.76576740394 -0.6393257787 
0.055663552198 -0.72617710121 -0.6825278488 0.041473856171 -0.68625128744 -0.72609603814 0.028251127436 -0.6427590654 -0.76327561702 
0.015044928056 -0.59920587912 -0.80034598889 0.0067152691747 -0.55462822686 -0.83028782216 -0.0014882722801 -0.5100240798 -0.86004529668 
-0.001236115606 -0.46659881235 -0.88309905844 -0.00068984769257 -0.42321454941 -0.90591964757 0.010996604547 -0.38168892458 -0.92305372713 
0.023171661362 -0.34024481896 -0.93993839836 0.048652690705 -0.29916549374 -0.95163914791 0.074840231864 -0.2581055374 -0.96306464497 
0.11647676142 -0.21292410969 -0.96807964449 0.15907885275 -0.16748509001 -0.97269398791 0.22006134868 -0.11050652542 -0.96542575701 
0.28236855845 -0.052696281908 -0.95730112435 0.36423056633 0.025264428116 -0.92306066845 0.44769251223 0.10487381267 -0.88668346339 
0.53663894704 0.2022226746 -0.80353271777 0.62608854596 0.30119901151 -0.71609082165 0.69022903645 0.38973011302 -0.58463945901 
0.75179174738 0.47719734797 -0.4487056507 0.77789552739 0.52656930639 -0.3090670101 0.80002260487 0.57166889735 -0.16901287429 
0.80569508315 0.57929353697 -0.054994493106 0.80934954454 0.58232219199 0.055830823834 0.81395233957 0.55645431726 0.1418960123 
0.81868157908 0.52673357189 0.2246598503 0.82934468185 0.46571111573 0.29395964592 0.84086363029 0.40017398974 0.36131751235 
0.84988953996 0.2873635131 0.42113323818 0.85852818148 0.16720960335 0.47977736936 0.83299900621 -0.010727752394 0.51871389065 
0.8017751948 -0.19829568247 0.55436581029 0.70767983735 -0.39115773985 0.54593131971 0.6023796499 -0.58496330506 0.52963984514 
0.47612706269 -0.71104993289 0.48593392604 0.34589351952 -0.82426996261 0.43701926248 0.23837283516 -0.87972143857 0.39410768782 
0.13544060712 -0.92350249962 0.35240885839 0.05588943006 -0.94085352485 0.32485227105 -0.018651521795 -0.95254097098 0.30032616416 
-0.078645498785 -0.95274238059 0.28787682488 -0.13534016189 -0.95033870975 0.27816654629 -0.18392329322 -0.9416525416 0.27793745449 
-0.23056303673 -0.93146119179 0.27997989702 -0.27326957284 -0.91607671236 0.28989669076 -0.31498245656 -0.89938028441 0.30180279428 
-0.35534859465 -0.87643938833 0.32098156818 -0.39535655571 -0.85183772946 0.34209456294 -0.4355017296 -0.8177606415 0.37124035352 
-0.47568526407 -0.78103450886 0.40263187196 -0.51678337684 -0.72780620061 0.4433657266 -0.55814989846 -0.66973486257 0.48684135382 
-0.5979492246 -0.58173896143 0.5391645904 -0.63726633674 -0.48453550243 0.59421016831 -0.66246928576 -0.34092695028 0.64665935427 
-0.68312433779 -0.18236564591 0.69827192506 -0.66616229083 0.011159074865 0.7179566167 -0.63652032287 0.21646921689 0.72687910188 
-0.56974772228 0.39936585016 0.69194807078 -0.48989501246 0.57436681558 0.64156864189 -0.40500312466 0.69516051678 0.57568495158 
-0.31825774611 0.7960159139 0.50409854443 -0.24309126514 0.85873843284 0.4394389982 -0.17236784951 0.90682856829 0.37743743348 
-0.11146719841 0.93588291701 0.32588037815 -0.054495653116 0.95732295104 0.27850112657 -0.0029263495425 0.96904203049 0.23985859453 
0.04639201998 0.97671071219 0.20485636229 0.093435922376 0.97848070579 0.17705422221 0.13949330891 0.97769223227 0.15237501368 
0.18557428856 0.97231547502 0.13403410564 0.23166591389 0.96486839464 0.11855316246 0.27922004042 0.95279363649 0.10905726314 
0.32746027864 0.93854786902 0.10236916218 0.37795123102 0.91868465931 0.101577963 0.42953940656 0.89608294653 0.10366150342 
0.48389338747 0.86566365075 0.11192903477 0.53964777615 0.83128608511 0.12332770077 0.59724698425 0.78595888454 0.14081557535 
0.65581590513 0.73487610664 0.16150418777 0.71307749265 0.66959603324 0.1869604245 0.76962598924 0.59657198048 0.21501718358 
0.8193225489 0.50816138704 0.24417148935 0.86514235479 0.41104525085 0.27394677549 0.89821992138 0.3030901913 0.29836927133 
0.92382204093 0.18877629671 0.31965146353 0.9349919393 0.071463633909 0.32929385107 0.93738548697 -0.047672604146 0.33185797902 
0.92730231618 -0.16404798705 0.31809187155 0.90935710362 -0.278683653 0.29403547875 0.88032379283 -0.38679889066 0.24962929523 
0.8440524179 -0.49065773761 0.19193922055 0.7938854098 -0.58351867008 0.11261435882 0.73432417082 -0.66894439276 0.018663162195 
0.65680756719 -0.7353564949 -0.087640522203 0.56672220832 -0.78845906267 -0.20259094804 0.46359380317 -0.8182036261 -0.31030744834 
0.35101391523 -0.83102209941 -0.41278197362 0.23799468527 -0.82675791118 -0.49527608488 0.12464594881 -0.80968172679 -0.56278488564 
0.019306858117 -0.78449311929 -0.61188946572 -0.079815791094 -0.75300830283 -0.64671017302 -0.16858646849 -0.71817435001 -0.67028273021 
-0.24904419883 -0.6806509392 -0.68482268202 -0.32009533163 -0.64181695984 -0.69363544099 -0.38333175263 -0.60189420044 -0.69769022437 
-0.43883398641 -0.56138860799 -0.69932087051 -0.48768965304 -0.52038214339 -0.6988682737 -0.53072208148 -0.4792277966 -0.697289643 