# vtk DataFile Version 5.1
vtk output
ASCII
DATASET POLYDATA
POINTS 240 float
0 0 0 -0.201997 -0.24954 -0.102608 -0.403994 -0.49908 -0.205217 
-0.596333 -0.74304 -0.233498 -0.788591 -0.986952 -0.261149 -0.974981 -1.22473 -0.226518 
-1.16127 -1.4624 -0.190822 -1.34537 -1.6934 -0.104817 -1.52942 -1.92422 -0.0175101 
-1.71473 -2.14788 0.108033 -1.90008 -2.37129 0.234906 -2.08968 -2.58709 0.387676 
-2.27947 -2.80256 0.541581 -2.47565 -3.01012 0.708735 -2.67217 -3.21726 0.876592 
-2.87595 -3.4164 1.04487 -3.08018 -3.61505 1.21317 -3.29091 -3.80599 1.36926 
-3.5021 -3.99638 1.52447 -3.71718 -4.17991 1.65556 -3.93258 -4.36287 1.78468 
-4.14761 -4.54045 1.87926 -4.36261 -4.71753 1.97067 -4.57189 -4.89133 2.01943 
-4.78058 -5.0648 2.06384 -4.97802 -5.23744 2.06059 -5.17419 -5.40998 2.052 
-5.35432 -5.58404 1.99434 -5.53248 -5.75829 1.93067 -5.69131 -5.93565 1.82028 
-5.84756 -6.11344 1.70367 -5.98291 -6.29463 1.54583 -6.11523 -6.47631 1.38205 
-6.22651 -6.65989 1.18471 -6.33451 -6.84377 0.982142 -6.422 -7.02634 0.75448 
-6.50607 -7.20868 0.522635 -6.56998 -7.38541 0.273799 -6.6303 -7.56112 0.0219337 
-6.67002 -7.72703 -0.23996 -6.70582 -7.89107 -0.503759 -6.7196 -8.04251 -0.772085 
-6.72894 -8.19141 -1.04132 -6.71425 -8.32742 -1.311 -6.69441 -8.46067 -1.58076 
-6.64867 -8.58366 -1.84805 -6.59707 -8.70433 -2.11477 -6.51875 -8.82002 -2.37695 
-6.43403 -8.93451 -2.63804 -6.32354 -9.05093 -2.89301 -6.20653 -9.16783 -3.14642 
-6.06683 -9.29376 -3.39214 -5.92109 -9.42208 -3.6358 -5.75777 -9.56518 -3.86961 
-5.58953 -9.71241 -4.10067 -5.41035 -9.87769 -4.31855 -5.22795 -10.0483 -4.53256 
-5.04202 -10.2369 -4.72839 -4.85499 -10.4311 -4.91864 -4.67178 -10.6402 -5.084 
-4.4898 -10.854 -5.24134 -4.31825 -11.0767 -5.36591 -4.15022 -11.3023 -5.47943 
-3.99806 -11.5287 -5.55232 -3.85148 -11.7554 -5.61089 -3.72479 -11.9739 -5.62265 
-3.60542 -12.1894 -5.6172 -3.50853 -12.3882 -5.56214 -3.42027 -12.5806 -5.48804 
-3.35585 -12.749 -5.36592 -3.30096 -12.9078 -5.22459 -3.27012 -13.0373 -5.04139 
-3.2493 -13.1546 -4.84074 -3.25166 -13.2395 -4.60825 -3.26407 -13.3104 -4.36193 
-3.2977 -13.3482 -4.09608 -3.3409 -13.3711 -3.82141 -3.40219 -13.3621 -3.53981 
-3.47196 -13.3382 -3.25496 -3.5556 -13.2851 -2.97432 -3.64598 -13.2178 -2.69572 
-3.74507 -13.1253 -2.42953 -3.84857 -13.02 -2.16963 -3.95512 -12.8946 -1.9266 
-4.06327 -12.7586 -1.69244 -4.16875 -12.6086 -1.47575 -4.27277 -12.4508 -1.26858 
-4.36868 -12.2863 -1.07595 -4.46001 -12.118 -0.89153 -4.53843 -11.9509 -0.716039 
-4.60929 -11.7847 -0.545786 -4.66351 -11.6284 -0.377512 -4.70762 -11.478 -0.210441 
-4.73291 -11.3454 -0.038522 -4.74636 -11.2239 0.136452 -4.74067 -11.1264 0.321572 
-4.72249 -11.0445 0.513316 -4.68659 -10.9902 0.718025 -4.63872 -10.9546 0.931498 
-4.57581 -10.9474 1.15791 -4.50238 -10.9602 1.39338 -4.41715 -10.9996 1.63919 
-4.32335 -11.0583 1.89249 -4.22088 -11.14 2.15166 -4.11191 -11.2388 2.41522 
-3.99707 -11.3559 2.67923 -3.87767 -11.487 2.94359 -3.75491 -11.6318 3.20298 
-3.62945 -11.7876 3.45839 -3.50308 -11.9534 3.70422 -3.37597 -12.1275 3.9421 
-3.25054 -12.3094 4.16721 -3.12655 -12.498 4.38135 -3.00696 -12.6936 4.58137 
-2.89127 -12.8953 4.76884 -2.7825 -13.1041 4.9428 -2.68011 -13.3194 5.10435 
-2.58662 -13.5419 5.25483 -2.50159 -13.7713 5.3948 -2.42648 -14.0075 5.52749 
-2.36114 -14.2506 5.65303 -2.30556 -14.4996 5.77573 -2.2599 -14.7546 5.89553 
-2.22264 -15.0138 6.01675 -2.19421 -15.2773 6.13946 -2.17189 -15.5429 6.26695 
-2.15621 -15.8108 6.39964 -2.14379 -16.0788 6.5391 -2.13503 -16.3468 6.6862 
-2.12665 -16.6134 6.84057 -2.11872 -16.8782 7.00342 -2.10874 -17.1408 7.17272 
-2.09631 -17.4006 7.3498 -2.08024 -17.6582 7.53156 -2.05966 -17.913 7.71915 
-2.03489 -18.1662 7.90914 -2.00472 -18.4175 8.10223 -1.97083 -18.6683 8.29541 
-1.93197 -18.9187 8.48871 -1.8906 -19.17 8.68015 -1.84579 -19.4226 8.86904 
-1.80003 -19.6773 9.05474 -1.75293 -19.9349 9.23591 -1.70628 -20.195 9.41332 
-1.66029 -20.459 9.58515 -1.61547 -20.7254 9.75327 -1.57246 -20.9954 9.91572 
-1.53037 -21.267 10.075 -1.48972 -21.541 10.2292 -1.44863 -21.815 10.3809 
-1.40682 -22.0891 10.5286 -1.36229 -22.3614 10.6746 -1.31311 -22.6306 10.8176 
-1.25843 -22.8961 10.9596 -1.19401 -23.1551 11.0995 -1.1214 -23.4087 11.2388 
-1.03375 -23.6526 11.3767 -0.935869 -23.89 11.5143 -0.818531 -24.1152 11.651 
-0.689989 -24.3333 11.7874 -0.539318 -24.5378 11.9232 -0.377636 -24.7356 12.0589 
-0.193366 -24.9194 12.1943 0.000695174 -25.0971 12.3296 0.215627 -25.2617 12.4647 
0.438438 -25.4212 12.6 0.678711 -25.5692 12.7355 0.924661 -25.713 12.8713 
1.1837 -25.8472 13.0078 1.44628 -25.9779 13.1447 1.71737 -26.1003 13.2828 
1.99018 -26.2196 13.4215 2.26732 -26.3311 13.5617 2.54481 -26.4394 13.7028 
2.82323 -26.5393 13.8461 3.10109 -26.6354 13.9902 3.37742 -26.7211 14.1369 
3.65265 -26.8022 14.2846 3.92476 -26.8703 14.4353 4.1955 -26.9329 14.587 
4.46219 -26.9795 14.742 4.72741 -27.0201 14.898 4.98807 -27.0421 15.0574 
5.24726 -27.0581 15.2177 5.50167 -27.0547 15.3814 5.75468 -27.0458 15.5459 
6.00293 -27.0182 15.7132 6.24994 -26.9862 15.8811 6.49255 -26.9385 16.051 
6.73422 -26.8879 16.2211 6.97235 -26.826 16.3917 7.20995 -26.7626 16.5621 
7.44545 -26.6931 16.7311 7.6809 -26.6234 16.8993 7.91614 -26.5526 17.0641 
8.15178 -26.4824 17.2277 8.3892 -26.4147 17.3864 8.62733 -26.3478 17.5439 
8.86879 -26.285 17.6955 9.11106 -26.2228 17.8462 9.35739 -26.1642 17.992 
9.60445 -26.1058 18.1373 9.85538 -26.0489 18.2798 10.1068 -25.9918 18.4223 
10.3612 -25.9339 18.5653 10.616 -25.8757 18.7089 10.8725 -25.8154 18.8561 
11.1291 -25.755 19.0044 11.3863 -25.6937 19.159 11.6435 -25.6328 19.3147 
11.9001 -25.5751 19.4779 12.1565 -25.5188 19.6421 12.4109 -25.4725 19.8138 
12.6647 -25.4284 19.9862 12.914 -25.4028 20.1644 13.1624 -25.3803 20.3429 
13.4023 -25.3851 20.5249 13.6407 -25.3935 20.707 13.8647 -25.4369 20.8897 
14.0868 -25.484 21.0721 14.2874 -25.5714 21.2525 14.4856 -25.6621 21.4325 
14.6547 -25.7953 21.6083 14.8213 -25.9314 21.7837 14.9521 -26.1083 21.9532 
15.0804 -26.2875 22.1224 15.1683 -26.5024 22.2854 15.2539 -26.7187 22.4482 
15.2969 -26.9624 22.606 15.3382 -27.2069 22.7637 15.3376 -27.4676 22.919 
15.3356 -27.7285 23.0743 15.2951 -27.9927 23.2314 15.2536 -28.2566 23.3887 
15.1784 -28.5095 23.5531 15.1028 -28.7619 23.7177 14.9991 -28.988 23.8953 
14.8952 -29.2137 24.0731 14.7695 -29.3976 24.27 14.6439 -29.5815 24.467 

LINES 2 240
OFFSETS vtktypeint64
0 240 
CONNECTIVITY vtktypeint64
0 1 2 3 4 5 6 7 8 
9 10 11 12 13 14 15 16 17 
18 19 20 21 22 23 24 25 26 
27 28 29 30 31 32 33 34 35 
36 37 38 39 40 41 42 43 44 
45 46 47 48 49 50 51 52 53 
54 55 56 57 58 59 60 61 62 
63 64 65 66 67 68 69 70 71 
72 73 74 75 76 77 78 79 80 
81 82 83 84 85 86 87 88 89 
90 91 92 93 94 95 96 97 98 
99 100 101 102 103 104 105 106 107 
108 109 110 111 112 113 114 115 116 
117 118 119 120 121 122 123 124 125 
126 127 128 129 130 131 132 133 134 
135 136 137 138 139 140 141 142 143 
144 145 146 147 148 149 150 151 152 
153 154 155 156 157 158 159 160 161 
162 163 164 165 166 167 168 169 170 
171 172 173 174 175 176 177 178 179 
180 181 182 183 184 185 186 187 188 
189 190 191 192 193 194 195 196 197 
198 199 200 201 202 203 204 205 206 
207 208 209 210 211 212 213 214 215 
216 217 218 219 220 221 222 223 224 
225 226 227 228 229 230 231 232 233 
234 235 236 237 238 239 
CELL_DATA 1
FIELD FieldData 3
Length 1 1 double
70.86093912 
Tortuosity 1 1 double
0.7246552141 
ClusterLabel 1 1 int
1 
POINT_DATA 240
FIELD FieldData 6
Curvature 1 240 double
0 0.17053413859 0.34106827718 0.33970204552 0.33687903107 0.30824715212 0.279174096 0.24098187482 0.20255381317 
0.16736968942 0.1322983983 0.10526065971 0.078575269907 0.06538162122 0.052904348167 0.061423908869 0.07125577168 0.093844456274 
0.11735255145 0.14978534727 0.18294834588 0.22550437347 0.26892214684 0.31628985556 0.3640598725 0.3978389572 0.43004896538 
0.42904483636 0.4239672754 0.39094436931 0.35419541719 0.31180354771 0.26859779592 0.23472426255 0.20230039417 0.18240947416 
0.16460737888 0.15740253349 0.15208630688 0.15431998532 0.15798814571 0.1653607239 0.17348166931 0.18094770495 0.18827340278 
0.19099847612 0.19268010886 0.18872636313 0.18342247464 0.17542554567 0.16674826963 0.15961287362 0.1528875521 0.15003719021 
0.14827015037 0.15082121408 0.15463954731 0.16400630056 0.17508025998 0.19512930272 0.21807031674 0.25723378434 0.30186549471 
0.37234559642 0.45193138144 0.55542132301 0.66770359802 0.75666936272 0.83668809439 0.83473700549 0.79999798837 0.71853962233 
0.61761486092 0.52888324447 0.44544022102 0.38595992529 0.33729207986 0.30497690828 0.28033336148 0.26365760686 0.25086615093 
0.24039095216 0.23108854182 0.21941094342 0.20648484874 0.18885064538 0.16864838275 0.15250796651 0.1386657002 0.15951678288 
0.20072129697 0.27621114301 0.3725501774 0.46857621087 0.56440501089 0.6110893086 0.62569316731 0.58958835151 0.51920161491 
0.44219473351 0.36055375075 0.2943086788 0.23922006398 0.19811119144 0.16748712561 0.14636255617 0.1326107302 0.12487236636 
0.12196299484 0.12338951021 0.12841814701 0.13638141783 0.14686663976 0.15806592872 0.16989994392 0.17861421983 0.18446034833 
0.18451545909 0.17906435626 0.16850497559 0.15292245505 0.13621735496 0.11837064853 0.1035980665 0.092058615306 0.08446131583 
0.081151970856 0.079520545995 0.079776781262 0.079442856195 0.078422199104 0.076095108093 0.072195457732 0.06713525286 0.060629829162 
0.053905891022 0.046900405425 0.041869149364 0.03947019935 0.039809990916 0.043929245864 0.048285483513 0.052980267876 0.05602595213 
0.056632342472 0.05491024542 0.049621103849 0.043153355535 0.034815209563 0.032197644314 0.038987256252 0.05211380105 0.07604193595 
0.10196640169 0.13141926614 0.16005994183 0.18721160481 0.21035576567 0.22587589813 0.23537351585 0.23297666696 0.22570856516 
0.20844814969 0.18926679519 0.16599080749 0.14320489005 0.12150507427 0.10164330593 0.086019258037 0.072391030769 0.063552772992 
0.056952631939 0.0559477827 0.056669768568 0.061891991384 0.068285912713 0.077865389372 0.088034530968 0.099877560122 0.11146046341 
0.12227165995 0.13179747488 0.13733417447 0.14114251092 0.13933366718 0.13545806831 0.12454019268 0.11238400387 0.095798464084 
0.078756415758 0.059997895315 0.042661737218 0.030955763404 0.023177345772 0.03179220612 0.040230072327 0.04788755528 0.053910180963 
0.052303472718 0.049412485597 0.040164318044 0.03042469295 0.018098449225 0.0083715052497 0.013229520988 0.018421229335 0.025615093335 
0.032823001519 0.040121319139 0.048223266306 0.061897045002 0.076413263107 0.097247776777 0.11872328315 0.14542534544 0.17255389524 
0.20348529194 0.23456669949 0.26712094073 0.29932708255 0.32773894066 0.35503848915 0.36874314236 0.38101808878 0.3734558534 
0.36490844199 0.34059821404 0.31601040447 0.2861948078 0.25665013665 0.23328256718 0.21039604222 0.20133954695 0.19279978589 
0.20424041408 0.21602597673 0.24799020529 0.27851559331 0.13925779665 0 
Torsion 1 240 double
0 0 0 0.037522320479 0.075362626724 0.094770823933 0.11386394236 0.15017926438 0.18693998823 
0.26717541525 0.34892300587 0.56945639435 0.79607687923 1.1702462769 1.5522501302 1.2587006465 0.92292907923 0.69158974969 
0.46777706793 0.38060758834 0.30461800711 0.26536907015 0.22949083451 0.20504839286 0.18177070802 0.16452469622 0.14795513374 
0.13576419319 0.12411025344 0.1123295335 0.10053190953 0.083208479099 0.065088057352 0.041980432307 0.018098096071 0.0031029519368 
-0.010410993514 0.002223372525 0.019517833681 0.05797414318 0.10045120386 0.14672562598 0.19376719182 0.23744784735 0.28040830783 
0.32227474316 0.36389304907 0.40492006299 0.44580541321 0.47603108031 0.50356377484 0.50080711812 0.48999478288 0.44199940424 
0.38360876616 0.30767024393 0.22658179918 0.14880804024 0.072054184632 0.011011832759 -0.044967923464 -0.07872716272 -0.10499634008 
-0.11112780404 -0.11016530079 -0.099636341446 -0.085588685606 -0.07130258486 -0.056924987813 -0.044537564732 -0.032946211236 -0.021917421292 
-0.011123032827 -0.0038271251678 0.0019513691301 -0.0011339083877 -0.0082186927003 -0.023658905332 -0.043018948533 -0.068144153916 -0.096079875863 
-0.13247231972 -0.17314664809 -0.2407262636 -0.32244840184 -0.50953805574 -0.75410089999 -1.2025107494 -1.7662550885 -1.7419490551 
-1.3726534697 -1.011362293 -0.65493866208 -0.44478342905 -0.32679732348 -0.25476599751 -0.21273293044 -0.18273492977 -0.16087331203 
-0.13597202319 -0.10894296459 -0.076524140704 -0.040199689801 -0.0071389329359 0.023474053402 0.036396034422 0.035587682957 0.012807612127 
-0.027616415162 -0.077056497979 -0.13398684231 -0.18308710067 -0.2254583789 -0.25770639467 -0.28095595493 -0.30339596625 -0.32509171483 
-0.35510936937 -0.39303965582 -0.44946937744 -0.52409021033 -0.62133565671 -0.7415891846 -0.84381859511 -0.92709160632 -0.93973327307 
-0.8755478634 -0.79080992909 -0.68295040453 -0.59841292988 -0.54101384056 -0.50815449091 -0.50483371681 -0.53203763145 -0.59725342264 
-0.7130417148 -0.89399072938 -1.034808702 -1.1221186187 -1.0729283732 -0.83536790385 -0.62342612867 -0.44808248809 -0.29567245782 
-0.17718505948 -0.032290934955 0.15305604671 0.52802660911 1.2039215497 1.5153613391 1.2274748802 0.89786552922 0.49713761229 
0.2106801022 0.12618889259 0.063418918243 0.040471208545 0.023102357523 0.016346944958 0.011959109052 0.012247237049 0.014889803997 
0.022361989303 0.032486828738 0.048266009868 0.06928367559 0.10191095581 0.14249261803 0.20141354986 0.26027725216 0.31900360364 
0.35126099465 0.31734598447 0.2675397488 0.17632001639 0.095493299073 0.042922591532 0.00013287063969 -0.014891468797 -0.025410329325 
-0.022562935759 -0.019568969184 -0.016120120859 -0.013075209126 -0.011343091317 -0.012215247577 -0.021961226586 -0.041232920097 -0.094577361632 
-0.18973041941 -0.44208387426 -0.85267043585 -1.8895963783 -2.5146689668 -1.4207014696 -0.48703598686 -0.2601566588 -0.059710607685 
0.017380150952 0.09913221009 0.20395770671 0.54575163948 2.1347478678 3.2931546997 2.035476585 0.94811551331 0.8826566994 
0.82568882702 0.82338139082 0.80134620627 0.64253196645 0.4867061316 0.35329333399 0.22625928711 0.15123659235 0.079414507913 
0.036131198779 -0.0055277726149 -0.031238700736 -0.056016426127 -0.070622241764 -0.085090836948 -0.097882293257 -0.11110062223 -0.13024180944 
-0.15007098625 -0.18090799653 -0.21290891821 -0.26683017113 -0.32185299443 -0.40199162251 -0.48135897763 -0.53855223528 -0.59337149024 
-0.55639597501 -0.51569008197 -0.25675708722 0 0 0 
FrenetTangent 3 240 double
-0.61133948632 -0.76515808958 -0.20198299534 -0.61133948632 -0.76515808958 -0.20198299534 -0.61133948632 -0.76515808958 -0.20198299534 
-0.61459334615 -0.7755092102 -0.095775564464 -0.61787478106 -0.78594805217 0.011331929382 -0.61276495105 -0.77743301365 0.1054597554 
-0.60751168061 -0.76859397717 0.19936570675 -0.60017180294 -0.7490750758 0.27056688215 -0.59277796128 -0.72927997102 0.34118086506 
-0.58857880684 -0.70695277541 0.38868246232 -0.58449077196 -0.68453750706 0.43538015052 -0.58616239447 -0.66444729416 0.46241575508 
-0.58808663354 -0.64445905737 0.48858898756 -0.59630136305 -0.62903069296 0.49835742535 -0.6048501009 -0.61384444566 0.50725481209 
-0.61904114155 -0.60418852991 0.50139662987 -0.63358482612 -0.59487825987 0.49461622458 -0.65224778197 -0.59167040793 0.47287207863 
-0.67120762223 -0.5889023699 0.45004946488 -0.69161255874 -0.59259533145 0.41032915624 -0.71213573039 -0.59681692024 0.36922630893 
-0.72942822417 -0.60706924166 0.30831499626 -0.7464243255 -0.61787484131 0.24558639319 -0.75273642738 -0.63213661609 0.16175466705 
-0.75796034413 -0.64675040871 0.075773548741 -0.74409244971 -0.65926509842 -0.025717042851 -0.7280834176 -0.67154437472 -0.12894701462 
-0.69055416707 -0.67589701861 -0.23241458413 -0.65038564446 -0.67927752833 -0.33591129298 -0.59697875889 -0.67376901004 -0.42347378251 
-0.54180675826 -0.66707528801 -0.50891170947 -0.48538770979 -0.65509709794 -0.57291455751 -0.42878879866 -0.64235672498 -0.63382580763 
-0.37767916631 -0.62770079244 -0.67747355473 -0.32742223746 -0.61274729725 -0.71843959262 -0.28313735011 -0.59692990581 -0.74873545418 
-0.23984780301 -0.58096853165 -0.77725295302 -0.19970563784 -0.56380137883 -0.79996486094 -0.16012439223 -0.54641933476 -0.82164210908 
-0.11992656148 -0.52744929094 -0.83973646045 -0.079611579549 -0.50817752718 -0.85715006144 -0.035513124354 -0.48785305845 -0.87074370798 
0.0093496688746 -0.46731592206 -0.88356564656 0.059189380959 -0.44771640188 -0.89057195232 0.11009557566 -0.42831779945 -0.89633205105 
0.16419626046 -0.4131085649 -0.89400370374 0.21902146879 -0.39884949625 -0.88984086352 0.27263027299 -0.39212774406 -0.87687456268 
0.32594764703 -0.38721180728 -0.8617990994 0.37312615991 -0.39161298233 -0.83952372024 0.4187538026 -0.39836795405 -0.81542941496 
0.45515381884 -0.41393528662 -0.78690902774 0.4890996791 -0.43184633218 -0.75721149106 0.51333574181 -0.45655519298 -0.72518763617 
0.53485723745 -0.48316451825 -0.69251341274 0.54809286771 -0.51428916957 -0.65787495258 0.55889677662 -0.54673897093 -0.62266003163 
0.56357060365 -0.5820431126 -0.58381756122 0.56635825165 -0.61822551284 -0.54385892175 0.56482858593 -0.65625583445 -0.49652372662 
0.5619077858 -0.6948815974 -0.44681164135 0.55517046632 -0.73402767932 -0.38358844147 0.54714667963 -0.77334914967 -0.31581093329 
0.53314688487 -0.80893971161 -0.22607630743 0.51704190544 -0.84321597627 -0.12860678784 0.48876140087 -0.86175255106 -0.0027925163375 
0.45600254222 -0.87449981464 0.13344741104 0.40419364145 -0.85182940978 0.28733529733 0.3450748408 -0.81556850423 0.44799507482 
0.2718434732 -0.73898824561 0.59095956744 0.19296707883 -0.64628024577 0.72684594611 0.11619352344 -0.53779639671 0.82118843132 
0.040296150961 -0.42273927715 0.89822096094 -0.024968302267 -0.31440328644 0.94141304945 -0.085620886905 -0.20898248414 0.96992735629 
-0.13653905686 -0.11513646335 0.97928138381 -0.18306486898 -0.026513209809 0.97998991944 -0.22240781683 0.053338031248 0.9701225261 
-0.25838102589 0.12907400719 0.95529358584 -0.28830025147 0.19900729616 0.93382701337 -0.31526816012 0.26611177523 0.90912459519 
-0.33587373495 0.32860323488 0.88025705521 -0.35325787493 0.38875898848 0.84928059279 -0.36326869759 0.44372472055 0.81715416317 
-0.36940380216 0.49596236439 0.78442326359 -0.36717925292 0.54118280162 0.75503751484 -0.36039489252 0.5825756716 0.72747639381 
-0.34448759817 0.61457217967 0.70884193033 -0.32341864383 0.64125232506 0.69525807573 -0.29226394353 0.65520007206 0.69570050547 
-0.25519227228 0.66167814533 0.70437168869 -0.20693662159 0.64948488923 0.7288696603 -0.15187990231 0.62593744635 0.76299203025 
-0.087258320841 0.57654514635 0.80620673629 -0.016609565931 0.51086704596 0.85515085957 0.054488066577 0.4217587125 0.89688561948 
0.12587871641 0.31735564355 0.93391426718 0.18611965327 0.20806207093 0.95341557072 0.238822756 0.095462242295 0.96106740216 
0.27813541908 -0.0054441691273 0.95631021321 0.30807477439 -0.098165188502 0.94286671 0.32951001139 -0.17636167746 0.92519012556 
0.34478284381 -0.24403314438 0.90444609097 0.35625596359 -0.30098674295 0.88322156158 0.36487929889 -0.34990194026 0.86163666109 
0.37218834732 -0.39243979136 0.84018695543 0.37847735222 -0.43002806034 0.81884217709 0.38413796521 -0.46463881719 0.79705391448 
0.38929396046 -0.49685854157 0.77490952056 0.39324401193 -0.52855408489 0.75148059085 0.39619220243 -0.5598141547 0.72698450833 
0.39644922585 -0.59207937016 0.70055289873 0.39439352754 -0.62520838265 0.67245794556 0.38783333157 -0.65951088334 0.64248011125 
0.37726913769 -0.69485648465 0.61082860484 0.36110518319 -0.72985842905 0.57861489089 0.33979306167 -0.7645444308 0.54588430872 
0.31357398844 -0.79639925033 0.51517013089 0.282689289 -0.82556212613 0.48637318997 0.24946789419 -0.84997619055 0.46235331621 
0.21394874892 -0.86972059045 0.44303089185 0.17932860923 -0.88428351082 0.43004065066 0.14562271252 -0.89357712998 0.42348991778 
0.11530153518 -0.8984524074 0.42300370248 0.088540148905 -0.89868080817 0.42889568672 0.066439228108 -0.89568580599 0.43922762392 
0.049407585546 -0.88918464622 0.45438898365 0.037269102402 -0.88067112855 0.47183028973 0.030635423603 -0.86989370826 0.49183653546 
0.028333059107 -0.858279092 0.51199612068 0.031070769437 -0.84569028407 0.53233413732 0.03701934667 -0.83339083603 0.55110737775 
0.046832856288 -0.82143969157 0.56799709128 0.05839865428 -0.81076574285 0.58221718795 0.072146547228 -0.80168226428 0.59311285605 
0.086086745271 -0.7946013171 0.60086295977 0.10027472103 -0.79010055457 0.60456012474 0.11327692762 -0.78791316914 0.60519772853 
0.12469810864 -0.78881028652 0.6017559174 0.13403704731 -0.79177937059 0.59582755203 0.14050249155 -0.7976077687 0.58646774178 
0.14469924399 -0.80476816765 0.57553588625 0.14565500816 -0.81383142496 0.56235825175 0.14495070077 -0.8232663066 0.54864815874 
0.14179087086 -0.83325088259 0.53415047085 0.13827794629 -0.84272539733 0.52011668982 0.13422411077 -0.85141854168 0.50679357461 
0.13152816664 -0.8589938522 0.49471676688 0.13098713712 -0.86479520905 0.4846177949 0.133554649 -0.86912108631 0.47616462921 
0.14123398454 -0.87102061936 0.47041790052 0.15346882203 -0.87107760113 0.46628517244 0.17346871966 -0.86799387047 0.46490358175 
0.19876842703 -0.86243720584 0.46466908587 0.23343524 -0.85250977418 0.46646201338 0.27291808578 -0.83928839318 0.46853633137 
0.32123032506 -0.82002810505 0.4711265319 0.3723085332 -0.79705851835 0.47301942282 0.42864882845 -0.76703221726 0.47358572473 
0.48468204997 -0.73409043164 0.47288482705 0.54010880086 -0.69539056406 0.46968121013 0.59264445075 -0.65572313638 0.46543010674 
0.63924963707 -0.61407097002 0.45903031311 0.68197298507 -0.57342416575 0.45235995143 0.71642188825 -0.53492037014 0.44511285257 
0.74735391333 -0.49850753672 0.43831382237 0.77049177613 -0.46672872762 0.43250780921 0.79103150654 -0.43707463567 0.42755681402 
0.80558109838 -0.41231919714 0.42457711026 0.81841813834 -0.38909577069 0.42256968523 0.82714505377 -0.36954917324 0.42289572915 
0.83483222744 -0.35066607206 0.42417344403 0.8399200467 -0.33344171158 0.4278303363 0.84444102407 -0.31592510991 0.43234700567 
0.84748477712 -0.29764690998 0.43910430629 0.85022300928 -0.27827105594 0.44655321151 0.85213060648 -0.25591095478 0.45588241677 
0.85376899876 -0.23192473263 0.46568239307 0.85464319643 -0.20332242511 0.47681875167 0.8550950371 -0.17302876101 0.48811850216 
0.85429388535 -0.13771740577 0.49990298189 0.8528521234 -0.10125273306 0.51151134711 0.84942226082 -0.061208799211 0.52257315002 
0.84531191387 -0.020969197601 0.53316056211 0.83898999275 0.01990632423 0.54220620398 0.83225078226 0.059856102784 0.55062309147 
0.82408969688 0.09665149684 0.55689755658 0.81602658229 0.13165256295 0.56251337773 0.80831390169 0.160235456 0.5657732801 
0.80122852302 0.18668515939 0.56837025846 0.79650179959 0.20511406962 0.56847464259 0.79272145807 0.22145965655 0.5679090027 
0.79268721161 0.22955875537 0.56469118445 0.79357143218 0.23599240945 0.56082885046 0.79828925425 0.23547464194 0.55427636384 
0.80359736358 0.23395117374 0.54720709446 0.81150810311 0.22799347983 0.53785928294 0.8195229974 0.22176059487 0.52832535664 
0.82802394723 0.21424348507 0.5179228947 0.83618998492 0.20707874098 0.50779802089 0.84269820758 0.20165820723 0.49904720832 
0.84864256226 0.19686103155 0.49096029946 0.85161919074 0.19534468788 0.48636762069 0.85401592976 0.19429099717 0.48260408579 
0.85315884451 0.19583330364 0.48349296928 0.85187973898 0.19735529559 0.48511618825 0.84806851171 0.19875540042 0.49114542016 
0.84407889281 0.19951742393 0.49768448431 0.83894087786 0.19617179904 0.50750559357 0.8338271635 0.19165234916 0.51761291327 
0.82888193334 0.17899437941 0.52970462529 0.82400494455 0.16481713249 0.54190743257 0.81963976608 0.13924530687 0.55494345428 
0.81515596854 0.11198761441 0.56796984726 0.80970496948 0.070983623192 0.58091772908 0.80373774208 0.02831059931 0.59373344109 
0.79316747873 -0.029244632513 0.60537063896 0.7815724859 -0.088216333761 0.6167059179 0.75991651267 -0.16109518937 0.62507690198 
0.7368020357 -0.23482791122 0.63294272437 0.69778986792 -0.31786777515 0.6353022843 0.65725010862 -0.40089634913 0.63701009403 
0.59803978634 -0.48378693485 0.63075206796 0.53774782 -0.565803756 0.62392941944 0.46244804225 -0.63569709374 0.60927263429 
0.38678037163 -0.7043017523 0.5943850391 0.30522641507 -0.75228754388 0.57580448349 0.22385679271 -0.79910089118 0.55735181817 
0.14595879771 -0.82383320475 0.5413077533 0.068434831237 -0.84773316559 0.52560895655 -0.0005612847692 -0.85265548404 0.51778227286 
-0.069239400283 -0.85702507866 0.51036127677 -0.12877500165 -0.84550386321 0.51460379908 -0.18811516658 -0.83357503974 0.51920684383 
-0.23989845579 -0.80588537272 0.53775008952 -0.29157192467 -0.77785542907 0.55654608762 -0.33682090421 -0.72991930285 0.59012810168 
-0.38168964023 -0.68238600122 0.62342791394 -0.38168964023 -0.68238600122 0.62342791394 -0.38168964023 -0.68238600122 0.62342791394 

FrenetNormal 3 240 double
-0.081053680569 -0.19334939258 0.97777620817 -0.081053680569 -0.19334939258 0.97777620817 -0.081053680569 -0.19334939258 0.97777620817 
-0.03192587184 -0.096802670298 0.98866338247 0.017618274251 0.00056224454601 0.99964282097 0.052232865962 0.093019112428 0.98929912054 
0.086592251615 0.18539208207 0.97859092201 0.094522025519 0.26899899805 0.9544868172 0.10176827498 0.35237920574 0.93003626653 
0.067374693481 0.43464827233 0.89275147462 0.031532770034 0.51687869053 0.85502027432 -0.085058011355 0.60936482473 0.76829523413 
-0.20519040932 0.70230077103 0.67942134132 -0.4368912457 0.71472248332 0.38058972067 -0.67451606995 0.72286910353 0.070609902081 
-0.71025211191 0.50905723202 -0.26448138079 -0.73337010497 0.28137295477 -0.60114213018 -0.64689492829 0.13549789831 -0.72329224103 
-0.55252114478 -0.0044809980898 -0.82998212567 -0.459505067 -0.071031756101 -0.87731394953 -0.36660007423 -0.13157475734 -0.91978920477 
-0.27123729977 -0.15386865981 -0.94483266589 -0.17564904075 -0.17265347065 -0.96827687984 -0.07288032736 -0.16350174248 -0.97828160655 
0.030619728605 -0.15150462608 -0.98691749659 0.13844149152 -0.11814334009 -0.97659960566 0.24674793186 -0.08238607246 -0.96415605705 
0.3479223251 -0.035848525549 -0.92950450078 0.44822203333 0.012011131084 -0.89212932092 0.52961175451 0.058407149499 -0.83954487501 
0.6084801441 0.10460801615 -0.78493252697 0.66448658377 0.14439977364 -0.72808935628 0.71719562682 0.18326714038 -0.67092443232 
0.74991523363 0.21874501174 -0.62073903054 0.77952968529 0.25369635954 -0.57163782637 0.79486973843 0.28885546678 -0.530873529 
0.80783072515 0.32404920058 -0.4914987161 0.81626782396 0.35446477109 -0.45359620509 0.82389868531 0.38402878775 -0.41595608452 
0.83707778745 0.39943631262 -0.37043772095 0.85131105534 0.41215410406 -0.32342249119 0.87320760794 0.40493385459 -0.2624828205 
0.89665229886 0.39368571806 -0.19873013143 0.92030455314 0.36076931362 -0.12019596691 0.94400128528 0.32320970891 -0.038494343352 
0.95657949378 0.26204391288 0.054603025398 0.96663597527 0.1955241353 0.15028499615 0.95269521246 0.1043509077 0.24951914982 
0.93300510988 0.0072711243586 0.34960434732 0.87733169143 -0.10733480816 0.4399603137 0.81256775108 -0.22636839942 0.52785836906 
0.71197575968 -0.34110021893 0.59122047964 0.60185503129 -0.45468795022 0.648057073 0.47936524732 -0.53797319238 0.67803630497 
0.35341744781 -0.61278677093 0.70050702731 0.24545193998 -0.64943044299 0.71220446077 0.14276384384 -0.67487207728 0.72074016815 
0.068982938157 -0.67083069412 0.73539094892 0.0040965526107 -0.65771761329 0.75192329074 -0.03778970969 -0.62227634544 0.77947490056 
-0.072264821168 -0.57964043954 0.8105771634 -0.097701813929 -0.51646447401 0.84690380907 -0.12009224982 -0.44636489286 0.88499148266 
-0.14782084613 -0.35382618471 0.91749207277 -0.17742993076 -0.2533827841 0.94802448575 -0.21950758361 -0.12759222467 0.95731573294 
-0.26617137649 0.0075214276669 0.95879413754 -0.31800791602 0.15914637169 0.91913619254 -0.3718293467 0.31710704391 0.86369336921 
-0.41397670427 0.45997847249 0.76562919261 -0.4514544326 0.59681420361 0.65051647472 -0.47084339593 0.69504571041 0.52180733955 
-0.48269537383 0.77719212375 0.38743303051 -0.48314399364 0.82645591935 0.26319709815 -0.4786465786 0.86145737473 0.14335853399 
-0.46712072048 0.87820039936 0.038122513159 -0.45242349169 0.88670486378 -0.060524555196 -0.42934527285 0.88734442821 -0.14721720408 
-0.40233523151 0.88429428647 -0.22830160679 -0.36500283556 0.87817519588 -0.29983315761 -0.32263829173 0.87055999272 -0.36670769315 
-0.26710256832 0.86207433398 -0.42372523761 -0.20489789323 0.85314793825 -0.47575190051 -0.12397180218 0.84424343463 -0.51351309739 
-0.03320496686 0.83535043842 -0.54377578007 0.099461687431 0.82210454582 -0.54067701834 0.25498278843 0.80648434609 -0.5193811051 
0.48009856505 0.71379372033 -0.38459751127 0.74459027657 0.57749745877 -0.18560378235 0.85975850564 0.3226886777 0.055746985996 
0.88732362502 -0.0016474481511 0.32194721748 0.84173828233 -0.2350706394 0.44772350601 0.75166955054 -0.41320893799 0.48810685626 
0.67984234755 -0.55037023283 0.46703815797 0.61950980655 -0.66171040203 0.40724625101 0.56095802083 -0.75222336037 0.31963599707 
0.50356867258 -0.82914077828 0.2138665444 0.44329865711 -0.88193107172 0.10593185342 0.38108114831 -0.91841006974 -0.0034666606441 
0.32321952665 -0.93642746053 -0.099330473764 0.26840702599 -0.94152172626 -0.18571999622 0.22444094484 -0.93716900604 -0.25857951207 
0.18833458797 -0.92597064383 -0.32163467531 0.16531482881 -0.91007252313 -0.37681819578 0.15211001791 -0.89064958358 -0.42609798419 
0.14544562939 -0.86932684879 -0.470479852 0.14385738957 -0.84652964606 -0.51106034861 0.13627451539 -0.82533366764 -0.54680149009 
0.12387776817 -0.80542352086 -0.57865648274 0.094439988963 -0.7895347229 -0.60473994524 0.050845044716 -0.77698673781 -0.62602859806 
-0.0097856524999 -0.76466087906 -0.64073070183 -0.085056449922 -0.75252591014 -0.64977249001 -0.16967991917 -0.73449592343 -0.65155230956 