# vtk DataFile Version 5.1
vtk output
ASCII
DATASET POLYDATA
POINTS 240 float
0 0 0 -0.193824 -0.228785 0.0825674 -0.387647 -0.457569 0.165135 
-0.589475 -0.686882 0.250578 -0.791371 -0.916199 0.336046 -1.00102 -1.1443 0.421454 
-1.21081 -1.37237 0.506861 -1.42809 -1.59749 0.589349 -1.64556 -1.82253 0.671762 
-1.87023 -2.04283 0.748539 -2.09516 -2.26296 0.825121 -2.32692 -2.47653 0.893605 
-2.55898 -2.68982 0.961734 -2.79728 -2.8947 1.0197 -3.03592 -3.09914 1.07712 
-3.27975 -3.29366 1.12286 -3.52391 -3.48756 1.16787 -3.77133 -3.67084 1.20021 
-4.01898 -3.85335 1.23164 -4.26661 -4.02613 1.24991 -4.51425 -4.1981 1.26711 
-4.75693 -4.36344 1.27097 -4.99916 -4.52817 1.27362 -5.23 -4.69163 1.26291 
-5.45968 -4.85496 1.25084 -5.67074 -5.02403 1.22543 -5.87971 -5.19375 1.19851 
-6.06322 -5.37644 1.15828 -6.2436 -5.56071 1.11641 -6.39332 -5.76369 1.06127 
-6.53896 -5.96916 1.00436 -6.65111 -6.19625 0.934224 -6.75843 -6.42646 0.862175 
-6.83197 -6.67771 0.776821 -6.90026 -6.93223 0.6894 -6.93644 -7.20388 0.588367 
-6.96725 -7.47839 0.485065 -6.96863 -7.76379 0.367599 -6.96475 -8.05113 0.247609 
-6.9343 -8.34205 0.112839 -6.8988 -8.63365 -0.0247396 -6.83931 -8.92179 -0.177371 
-6.77499 -9.20925 -0.333044 -6.68903 -9.48752 -0.503123 -6.59844 -9.76382 -0.676289 
-6.48879 -10.0272 -0.861643 -6.37483 -10.2875 -1.04976 -6.24522 -10.5332 -1.24568 
-6.11188 -10.7754 -1.44347 -5.96768 -11.0029 -1.64208 -5.82075 -11.2266 -1.84091 
-5.66921 -11.4367 -2.03104 -5.51645 -11.6431 -2.21885 -5.36625 -11.837 -2.38642 
-5.21676 -12.0274 -2.54833 -5.07685 -12.2055 -2.67762 -4.93974 -12.3799 -2.79733 
-4.81778 -12.5405 -2.87297 -4.70049 -12.6968 -2.93506 -4.60146 -12.8359 -2.94473 
-4.50833 -12.9696 -2.9375 -4.43376 -13.0817 -2.8744 -4.36545 -13.1865 -2.79246 
-4.31352 -13.2651 -2.65687 -4.26736 -13.3344 -2.50237 -4.23365 -13.3736 -2.30191 
-4.20454 -13.4019 -2.08455 -4.18324 -13.3984 -1.83295 -4.16493 -13.3827 -1.56822 
-4.15007 -13.3362 -1.28278 -4.13657 -13.2774 -0.989048 -4.12315 -13.1911 -0.687512 
-4.10975 -13.0935 -0.382723 -4.09448 -12.9739 -0.0804723 -4.07841 -12.8448 0.220677 
-4.06004 -12.7006 0.5127 -4.04064 -12.5497 0.800605 -4.01974 -12.3911 1.07687 
-3.99815 -12.2288 1.34767 -3.97657 -12.066 1.60788 -3.95499 -11.9028 1.86291 
-3.93484 -11.7455 2.11078 -3.9154 -11.5911 2.35502 -3.89797 -11.4479 2.5965 
-3.8816 -11.3105 2.83652 -3.86665 -11.1888 3.07773 -3.85248 -11.0757 3.31957 
-3.83812 -10.9822 3.56488 -3.82366 -10.8998 3.81216 -3.80699 -10.8405 4.06287 
-3.78904 -10.7948 4.3156 -3.76722 -10.7753 4.56929 -3.74304 -10.7717 4.82355 
-3.71422 -10.7965 5.07422 -3.68247 -10.8393 5.32264 -3.6464 -10.9115 5.56191 
-3.6075 -11.0029 5.79522 -3.5656 -11.1233 6.01418 -3.52167 -11.2632 6.22344 
-3.47675 -11.4299 6.41492 -3.43114 -11.6152 6.59396 -3.38691 -11.8235 6.75457 
-3.34369 -12.0483 6.90183 -3.30429 -12.2911 7.0331 -3.26777 -12.5473 7.15237 
-3.23731 -12.8157 7.26058 -3.21158 -13.0937 7.36019 -3.19373 -13.3785 7.45488 
-3.18223 -13.6687 7.54562 -3.17983 -13.9613 7.63719 -3.18499 -14.2558 7.72946 
-3.19968 -14.5494 7.82663 -3.22256 -14.8422 7.92801 -3.25459 -15.1327 8.03589 
-3.29474 -15.4211 8.14954 -3.34284 -15.707 8.26888 -3.39823 -15.9907 8.39343 
-3.45959 -16.2728 8.52104 -3.52661 -16.5535 8.65156 -3.59695 -16.8342 8.78173 
-3.67053 -17.1148 8.91154 -3.7442 -17.3968 9.03781 -3.81795 -17.6802 9.16047 
-3.88814 -17.966 9.2774 -3.9546 -18.2544 9.38831 -4.01372 -18.5455 9.49268 
-4.06486 -18.8396 9.58996 -4.10508 -19.1361 9.68125 -4.133 -19.4354 9.76581 
-4.14694 -19.736 9.84595 -4.14464 -20.0382 9.92095 -4.12625 -20.3402 9.99365 
-4.08848 -20.6422 10.0636 -4.03365 -20.9422 10.1333 -3.95754 -21.2397 10.2029 
-3.86455 -21.533 10.2741 -3.7498 -21.8211 10.3476 -3.61938 -22.1028 10.4241 
-3.46807 -22.3761 10.5047 -3.30307 -22.6408 10.5893 -3.11921 -22.8936 10.6793 
-2.92414 -23.1356 10.7735 -2.71305 -23.362 10.874 -2.4934 -23.5756 10.9788 
-2.26107 -23.7702 11.0901 -2.02274 -23.9505 11.2058 -1.77522 -24.1086 11.3283 
-1.52405 -24.2515 11.455 -1.26708 -24.3702 11.5887 -1.00847 -24.4738 11.7267 
-0.747178 -24.5527 11.8718 -0.485888 -24.6178 12.0211 -0.224604 -24.6595 12.1776 
0.0354753 -24.6899 12.3381 0.293427 -24.7004 12.5058 0.549464 -24.703 12.677 
0.801993 -24.691 12.855 1.05243 -24.6747 13.0359 1.29888 -24.6503 13.2224 
1.54356 -24.625 13.411 1.78472 -24.5979 13.6037 2.02482 -24.5726 13.7973 
2.26274 -24.5508 13.993 2.50053 -24.5322 14.1886 2.73806 -24.5203 14.384 
2.97641 -24.5117 14.5784 3.2166 -24.5105 14.7706 3.45842 -24.5117 14.9612 
3.70399 -24.5184 15.148 3.95168 -24.5259 15.333 4.20447 -24.5355 15.5136 
4.45952 -24.5442 15.6925 4.72023 -24.5508 15.8671 4.98299 -24.5552 16.0403 
5.25109 -24.5537 16.2104 5.52075 -24.549 16.3797 5.79461 -24.5356 16.5473 
6.06932 -24.5187 16.7149 6.34644 -24.4918 16.8825 6.62358 -24.4617 17.0506 
6.90081 -24.4218 17.2203 7.17721 -24.3795 17.3909 7.45104 -24.3293 17.5645 
7.72324 -24.2779 17.7392 7.99018 -24.2221 17.9176 8.25478 -24.1666 18.0972 
8.51137 -24.1116 18.2806 8.76503 -24.0587 18.4651 9.00824 -24.0126 18.6533 
9.24817 -23.9703 18.8423 9.47579 -23.9422 19.0344 9.69998 -23.9195 19.227 
9.91056 -23.9184 19.422 10.1177 -23.9242 19.6173 10.3108 -23.9582 19.8142 
10.5005 -23.9998 20.0114 10.6758 -24.0743 20.21 10.8479 -24.1564 20.4088 
11.0053 -24.2733 20.6092 11.1595 -24.397 20.81 11.2983 -24.5541 21.013 
11.4339 -24.7167 21.2166 11.5526 -24.9082 21.4234 11.668 -25.1039 21.6309 
11.7646 -25.3221 21.8424 11.8575 -25.5429 22.0546 11.9292 -25.779 22.271 
11.9971 -26.0163 22.4879 12.0412 -26.2616 22.7084 12.0816 -26.5072 22.9292 
12.0963 -26.7543 23.152 12.1075 -27.0008 23.3747 12.0922 -27.243 23.5973 
12.0738 -27.4841 23.8196 12.0296 -27.716 24.0393 11.9829 -27.9463 24.2586 
11.9132 -28.1628 24.4735 11.8416 -28.3776 24.6879 11.7515 -28.5743 24.8971 
11.6602 -28.7691 25.1059 11.5562 -28.9421 25.3098 11.4516 -29.1131 25.5135 
11.3406 -29.2598 25.7136 11.2295 -29.4047 25.9136 11.1174 -29.5249 26.1116 
11.0055 -29.6438 26.3094 10.8962 -29.7413 26.5058 10.7871 -29.8381 26.702 
10.682 -29.921 26.8957 10.577 -30.0039 27.0891 10.4745 -30.0848 27.2768 
10.372 -30.1661 27.4641 10.2688 -30.2609 27.6408 10.1655 -30.3565 27.8171 
10.0568 -30.4829 27.9768 9.94797 -30.6101 28.1361 9.82833 -30.7869 28.272 
9.70856 -30.9643 28.4077 9.57255 -31.2104 28.5132 9.43654 -31.4565 28.6187 

LINES 2 240
OFFSETS vtktypeint64
0 240 
CONNECTIVITY vtktypeint64
0 1 2 3 4 5 6 7 8 
9 10 11 12 13 14 15 16 17 
18 19 20 21 22 23 24 25 26 
27 28 29 30 31 32 33 34 35 
36 37 38 39 40 41 42 43 44 
45 46 47 48 49 50 51 52 53 
54 55 56 57 58 59 60 61 62 
63 64 65 66 67 68 69 70 71 
72 73 74 75 76 77 78 79 80 
81 82 83 84 85 86 87 88 89 
90 91 92 93 94 95 96 97 98 
99 100 101 102 103 104 105 106 107 
108 109 110 111 112 113 114 115 116 
117 118 119 120 121 122 123 124 125 
126 127 128 129 130 131 132 133 134 
135 136 137 138 139 140 141 142 143 
144 145 146 147 148 149 150 151 152 
153 154 155 156 157 158 159 160 161 
162 163 164 165 166 167 168 169 170 
171 172 173 174 175 176 177 178 179 
180 181 182 183 184 185 186 187 188 
189 190 191 192 193 194 195 196 197 
198 199 200 201 202 203 204 205 206 
207 208 209 210 211 212 213 214 215 
216 217 218 219 220 221 222 223 224 
225 226 227 228 229 230 231 232 233 
234 235 236 237 238 239 
CELL_DATA 1
FIELD FieldData 3
Length 1 1 double
70.611742213 
Tortuosity 1 1 double
0.62097294532 
ClusterLabel 1 1 int
1 
POINT_DATA 240
FIELD FieldData 6
Curvature 1 240 double
0 0.014824901492 0.029649802984 0.031478720195 0.033197501947 0.036916405378 0.040669498923 0.045559607149 0.050479120928 
0.055941441975 0.061422643276 0.066993045635 0.072567360322 0.077314547795 0.082017817008 0.084753324933 0.087365847777 0.086898928695 
0.086210067853 0.084227799927 0.082139707785 0.088750958161 0.096160313355 0.12276387018 0.15132239199 0.1932882149 0.23675766036 
0.27710957457 0.31707915005 0.33474829802 0.34944405565 0.33692387463 0.32047831785 0.29152578702 0.26063042528 0.23294580179 
0.20579630135 0.18757888982 0.17095333573 0.16192686427 0.15434421852 0.15026062477 0.1468839102 0.14288232396 0.13874683665 
0.13139975091 0.12332426141 0.11167523259 0.099170043308 0.085995376826 0.072651579261 0.073238895659 0.077531295558 0.11560413211 
0.1631209617 0.2660148201 0.3851606326 0.62960021461 0.91259172571 1.2952208765 1.7099554891 1.7354552936 1.6297523539 
1.3107311009 0.9165636239 0.66377230567 0.46298141363 0.35001939852 0.27075916176 0.2241899716 0.19069720008 0.16870161743 
0.15149653015 0.13704018545 0.12377606643 0.10925462514 0.094165855518 0.075009834504 0.053945720244 0.035031567224 0.017165520309 
0.033344454198 0.066761353051 0.10208456343 0.13840980935 0.17283850531 0.20623271949 0.23676614486 0.26568096604 0.2913309559 
0.31506557805 0.33721495684 0.3584003363 0.37722294592 0.39455668687 0.40781169365 0.4184041934 0.41833699119 0.41106322989 
0.39106521889 0.3621602331 0.32455646616 0.28064923462 0.23624170833 0.19145896097 0.15349702592 0.12082885564 0.10139611195 
0.092591816883 0.092599306212 0.099927354882 0.10532625144 0.10906728289 0.10723559201 0.10045037017 0.089183057662 0.073795113426 
0.057585815196 0.04059555743 0.03360816185 0.036456914085 0.046451080908 0.063711771042 0.080778680298 0.097641785528 0.11371344938 
0.12892424716 0.14317488846 0.15634535369 0.16816423132 0.17841035246 0.18667006604 0.19253873348 0.19634635567 0.19758739321 
0.19731007943 0.19507642836 0.19260218075 0.18980713775 0.18761603973 0.18625838578 0.1861654153 0.18787913547 0.19080439889 
0.19552173671 0.20060894016 0.20626274627 0.21059325706 0.21282375571 0.21242109117 0.20768833606 0.19929043365 0.18464512108 
0.16764821949 0.14649502105 0.12431684243 0.1002595335 0.077555853731 0.057427370889 0.042618743444 0.038316830407 0.038044425348 
0.046037677678 0.052887058627 0.057298187426 0.05985442086 0.058299805107 0.056213208548 0.052900100688 0.050606264394 0.050758679862 
0.051653606661 0.05440481179 0.05728183574 0.060486751168 0.06296414878 0.063463607327 0.063390255683 0.061690862203 0.059533936936 
0.056019667366 0.052456631451 0.048742251705 0.046151962505 0.047214967582 0.050487817692 0.061290510135 0.074376185821 0.095627916956 
0.11875226551 0.14891765557 0.17968201725 0.21281730827 0.24439077203 0.26944530461 0.29054241941 0.29419091949 0.29407977081 
0.27642359465 0.25742632288 0.23179062791 0.20676548932 0.18495380542 0.16453234533 0.15191158551 0.14046103736 0.13603175932 
0.13224788273 0.13261877805 0.13322135981 0.1354303009 0.13759794902 0.13945589986 0.14113073413 0.141312464 0.14138993074 
0.14053771797 0.13977837642 0.13993086143 0.14035311924 0.14371590061 0.14726651781 0.15311290631 0.15837939817 0.15559982421 
0.15155721546 0.12730604992 0.10180431634 0.052750218106 0.0091633819514 0.090230121331 0.17153961643 0.25982833856 0.34719867869 
0.39905824849 0.44967515678 0.42759636659 0.40400560988 0.20200280494 0 
Torsion 1 240 double
0 0 0 0.25403018801 0.51021317422 0.41378347107 0.31132620059 0.24396386485 0.17750915674 
0.13723926098 0.097880141309 0.078892363268 0.060798065123 0.066537698746 0.07354285087 0.11512995348 0.15887842799 0.26907713288 
0.38406504356 0.60437542764 0.83330310499 0.92523120151 1.0045905291 0.80694787329 0.58109205245 0.42231502238 0.27106084736 
0.19092655093 0.11951450377 0.074754198229 0.033547458241 -0.0031419069693 -0.039179727741 -0.079199682232 -0.1198382206 -0.15796762858 
-0.19567884816 -0.21166166322 -0.22377208936 -0.20570370451 -0.18190134558 -0.14394463173 -0.10312845223 -0.060979772136 -0.018545556194 
0.032319618248 0.085096968845 0.18810064518 0.30313771206 0.62196341409 0.99227256077 1.2063398361 1.3788534223 1.0417649919 
0.56220718048 0.29662739041 0.0938454979 -0.013563752052 -0.091627573526 -0.12306573663 -0.13948007647 -0.16786631818 -0.20028803243 
-0.25965792565 -0.32852092738 -0.36593137229 -0.39177306067 -0.37556019351 -0.34321011317 -0.29816616562 -0.24804467117 -0.20155163774 
-0.15657046308 -0.11788353813 -0.081926649199 -0.046380267616 -0.011019114959 0.059343415567 0.14612634559 1.6184205649 3.7661515378 
3.0855609185 0.97290873356 0.22501209247 0.1944869552 0.17890109069 0.17146392041 0.15830677397 0.14191332522 0.11969224994 
0.094052300434 0.066904407957 0.038839523134 0.012906712904 -0.011682598268 -0.032500479558 -0.050856455231 -0.067866880701 -0.083967638429 
-0.10464309216 -0.12852083308 -0.16743394609 -0.21724225625 -0.30840180652 -0.43057478686 -0.63406332992 -0.90066245898 -1.0300141316 
-1.0491519376 -0.89387114595 -0.59368875006 -0.36877883376 -0.20855620461 -0.079993475346 0.020427120686 0.15187316656 0.31184260986 
0.76508385358 1.4971736944 1.750393649 1.532724882 1.2018959815 0.75598897938 0.49220333787 0.41995912739 0.37193643806 
0.35025996472 0.33021854096 0.31201654795 0.29245266383 0.27130403367 0.25098799836 0.23167416055 0.2136410187 0.19720270576 
0.18269927295 0.17068885876 0.15934287759 0.14888280712 0.13917276391 0.13049775832 0.12279940773 0.11649627854 0.11089058002 
0.10631649769 0.10290676935 0.10128073223 0.10126075017 0.10378950766 0.10866951695 0.11741602921 0.13086793339 0.15234039201 
0.18251875085 0.22808428219 0.30099569507 0.42404122411 0.65777570131 1.1020891531 1.443302216 1.5808920109 1.514751494 
1.0307026452 0.67709547001 0.60153502007 0.56881312745 0.63103074022 0.70912746823 0.8238343786 0.89969494916 0.88232430416 
0.83784766011 0.72560601848 0.61971594628 0.530378449 0.45613465691 0.42292687581 0.40190424498 0.41547171813 0.44193886025 
0.50667502034 0.59233672272 0.74293976328 0.88056535402 0.97601423283 1.0124044344 0.84755766153 0.68420215445 0.52618079027 
0.38271408724 0.29397291012 0.21237555243 0.15905581334 0.10882173026 0.071466907023 0.034968091504 0.0022434918148 -0.03158788308 
-0.070584208934 -0.11117462965 -0.15965581994 -0.20739979755 -0.25126370846 -0.2898052845 -0.29848264824 -0.30142591339 -0.26996458696 
-0.23724850494 -0.1964549338 -0.15770118095 -0.13309016822 -0.11139158666 -0.11153623879 -0.11477869203 -0.14328013898 -0.17482115203 
-0.23346496287 -0.29290614482 -0.36017606125 -0.42370265236 -0.44642699742 -0.46402703445 -0.41899663995 -0.37296873018 -0.31310029597 
-0.25305408614 -0.19016346628 0.63667016887 15.851097258 29.789426424 14.632722914 -0.014781548842 -0.022813391138 -0.030488588365 
-0.0243735096 -0.018207555014 -0.0090653649435 0 0 0 
FrenetTangent 3 240 double
-0.62988441666 -0.72918161687 0.26746923424 -0.62988441666 -0.72918161687 0.26746923424 -0.62988441666 -0.72918161687 0.26746923424 
-0.63714932172 -0.72276060078 0.26750973025 -0.64447579377 -0.71628516929 0.26755056944 -0.65331830627 -0.70948479652 0.26394504507 
-0.66218673399 -0.70267886919 0.26027718969 -0.67255252938 -0.69526880782 0.25309372599 -0.6829570498 -0.68784312229 0.24581934139 
-0.69477749337 -0.67945151349 0.23515852093 -0.70664718644 -0.67102630737 0.22437991139 -0.71970921708 -0.6612594674 0.21043973691 
-0.73282354324 -0.65143378384 0.19636089729 -0.74659823666 -0.6401215516 0.1795066427 -0.76040799383 -0.62873038757 0.16250502094 
-0.77382981789 -0.61641070843 0.14321993516 -0.78722739613 -0.60403299709 0.12379213289 -0.79856433535 -0.59250424995 0.10255854026 
-0.80975276006 -0.58103668942 0.081194800588 -0.81660237794 -0.5737063386 0.058306625613 -0.82309700253 -0.56671448675 0.035293724113 
-0.82242812101 -0.5682227541 0.010669305327 -0.82110203709 -0.5705108489 -0.014102959082 -0.80899466591 -0.58539954087 -0.04088704522 
-0.79578920066 -0.60157162699 -0.067876039128 -0.76724235829 -0.63177932597 -0.09701515484 -0.73697498764 -0.66356111238 -0.12639540571 
-0.68761088361 -0.70513196027 -0.15675577605 -0.63590472737 -0.74790335345 -0.18723634972 -0.56682029552 -0.79021747404 -0.21593312805 
-0.49541876024 -0.83247062495 -0.244392067 -0.41636052436 -0.86408524705 -0.26865832759 -0.33619795667 -0.89416546595 -0.29231987495 
-0.25997829617 -0.91038188411 -0.31209341571 -0.1843711261 -0.92444470216 -0.33126299428 -0.11849408146 -0.92727493796 -0.34892150365 
-0.054238724401 -0.92823307673 -0.36632816816 0.00050421250379 -0.92141399194 -0.38448747432 0.053551866608 -0.91320886732 -0.40278091463 
0.099676474041 -0.89928485656 -0.42279228937 0.14448570261 -0.88427425743 -0.44313007166 0.18471444674 -0.86463841087 -0.46464176575 
0.22401784049 -0.84406817088 -0.48639061374 0.25986842 -0.82014926471 -0.50754037912 0.29497911075 -0.79551278721 -0.52856176966 
0.32668485093 -0.7698122372 -0.54661415276 0.35761833428 -0.74387035114 -0.56399315273 0.38482963301 -0.7201535883 -0.57617397714 
0.41114915834 -0.69696992789 -0.58710940534 0.43378618548 -0.67960443056 -0.59098550451 0.45549289729 -0.66370878495 -0.59307819424 
0.47424253848 -0.6568395029 -0.58586321121 0.49220572471 -0.65237084946 -0.57617278331 0.50855849227 -0.65949588964 -0.55259852678 
0.52446103525 -0.66986217751 -0.52514276977 0.53996016542 -0.69316645666 -0.47292322034 0.55534090269 -0.72026775499 -0.41343603618 
0.56719305529 -0.75457772945 -0.3049836514 0.57795948952 -0.79110575811 -0.18146505105 0.5636023912 -0.79664105994 0.017002015108 
0.54114993239 -0.79218981647 0.23961914248 0.47134148207 -0.70223150226 0.46497517476 0.38557033799 -0.58345057994 0.69125443342 
0.30024367317 -0.4407179477 0.8234998477 0.21507358628 -0.28954778127 0.92261970316 0.157838946 -0.16771353998 0.96586939671 
0.11087941253 -0.056669524028 0.98856914565 0.082920328977 0.030942577622 0.99298547664 0.062252115739 0.10956336332 0.99038607748 
0.051752767221 0.17495089862 0.98143534696 0.04532096459 0.23504513376 0.96994408389 0.044159019125 0.28695118217 0.95568157124 
0.04519284748 0.3354454861 0.94026437127 0.048565123371 0.37740163044 0.92386896634 0.052951665664 0.41652194652 0.90704927973 
0.057594436417 0.44902712789 0.89108016493 0.06235282245 0.4785474314 0.87549484472 0.065827392779 0.50050132821 0.86298370571 
0.068699679199 0.51890555273 0.85191477515 0.06947757672 0.52842606476 0.84611175949 0.069234459652 0.53361576696 0.84287587734 
0.067186458543 0.52864815394 0.84609717532 0.064224592096 0.51853759649 0.8525879316 0.060905145569 0.49724169538 0.86496428494 
0.057397740282 0.47006631876 0.88043434955 0.055556814492 0.43152254391 0.8992023055 0.054624877519 0.38677782457 0.91976911127 
0.056954797449 0.33153340035 0.93979333423 0.061130241678 0.27034835363 0.95951056955 0.068871745023 0.20027210583 0.97468149997 
0.078705336382 0.12497968674 0.98718526484 0.091037371632 0.042730280576 0.99160085578 0.10488873087 -0.043749725827 0.99109796259 
0.11929686972 -0.13475624354 0.97958813289 0.13405585601 -0.22861508345 0.96114242538 0.14703555044 -0.32332648357 0.92988304338 
0.15885376268 -0.41859441605 0.89025917942 0.16672501434 -0.50911531889 0.83879791292 0.17192789829 -0.59642696227 0.77933389541 
0.17202855752 -0.67315762712 0.71352459132 0.16855765946 -0.74248160701 0.64327358663 0.1602892146 -0.79875991259 0.57503525435 
0.14854428655 -0.84558483099 0.50825538034 0.13319181582 -0.88110987653 0.45043611292 0.11513368807 -0.90816001744 0.39933730043 
0.094565279373 -0.92738289735 0.36019334402 0.072048592932 -0.94053088812 0.33032778338 0.047752609239 -0.94857244189 0.31195595755 
0.022027795933 -0.95251337199 0.30281394907 -0.0047790895109 -0.9527883771 0.30251064028 -0.032484927192 -0.95001784453 0.30955025123 
-0.060260851398 -0.94453857419 0.32147891358 -0.08809700621 -0.93673148232 0.33760910447 -0.11469233369 -0.92760543665 0.35435541723 
-0.14018470354 -0.91730698758 0.37164939387 -0.16316671124 -0.90759499433 0.38618633638 -0.18384080534 -0.89842216206 0.39818858624 
-0.20098555382 -0.89156913134 0.40563469815 -0.21477453106 -0.88692181357 0.40874874446 -0.22419753061 -0.88542873303 0.40706061113 
-0.22932731875 -0.88703731911 0.40065033448 -0.2293081526 -0.89153416696 0.39034579354 -0.22405276176 -0.89896823017 0.37608098385 
-0.21296713914 -0.90819359366 0.35951480975 -0.19574972104 -0.91930291091 0.34052823515 -0.17237489309 -0.93066004221 0.32110289227 
-0.1423025316 -0.94228672565 0.30120029267 -0.10640583761 -0.95249580106 0.2825933486 -0.063956769546 -0.96111006745 0.26544401699 
-0.016852664744 -0.96681459584 0.2508245897 0.035668210083 -0.96913324731 0.23914905107 0.09091848171 -0.96753760382 0.23052608299 
0.14945413837 -0.96123030901 0.22557750537 0.20851804602 -0.95072343614 0.22357978891 0.26823977565 -0.93498690004 0.22525672972 
0.32663115817 -0.91545311549 0.22936054494 0.38330843961 -0.89102672238 0.23659129452 0.43758555638 -0.86350669533 0.2456448299 
0.48866245357 -0.83186182304 0.25712874636 0.53705773514 -0.79767623151 0.26992263952 0.58175238714 -0.75998444744 0.28452430055 
0.6238660975 -0.71995056747 0.30010770969 0.66229274837 -0.6765708362 0.31709361615 0.69822934855 -0.63074057336 0.33489036457 
0.73048274875 -0.58128556591 0.3538864834 0.76001508942 -0.52936750724 0.37348663124 0.78537899846 -0.47367626372 0.39401210013 
0.80747379898 -0.41618082011 0.41477265729 0.8243806664 -0.3558221894 0.43590628933 0.83761134188 -0.29524771442 0.45679008448 
0.84479672393 -0.23431829554 0.47726303675 0.84856645428 -0.1754889834 0.49706690221 0.84651405103 -0.12023939867 0.51573027878 
0.84212620255 -0.069236053956 0.53357344842 0.83361059041 -0.025737691597 0.54996695001 0.82423583305 0.012328950148 0.56554039104 
0.81328597615 0.040437437435 0.5796103877 0.80277222616 0.063011299368 0.59276858331 0.79308814297 0.075055874042 0.60419213303 
0.78461368593 0.082361591369 0.61444232623 0.77852824055 0.080308065432 0.62237514028 0.77390334688 0.074959782234 0.62878178548 
0.77227445674 0.062853022601 0.63205782788 0.77198913205 0.049316526973 0.63359783183 0.77456772318 0.032732436195 0.63143733279 
0.77820110654 0.016634974749 0.62766225536 0.78417213754 0.0016159891199 0.62030892311 0.79078770762 -0.011477765715 0.61187324495 
0.79888929838 -0.020132793995 0.60094215812 0.8071814511 -0.026194043623 0.58962512316 0.81593095249 -0.026030224488 0.57738181267 
0.82440369225 -0.023377616438 0.56540288994 0.8321845279 -0.014503036105 0.55408493664 0.83929043954 -0.0037546282009 0.54351708616 
0.84463745829 0.011877087918 0.5349040491 0.84909943187 0.028527030448 0.52728232905 0.85115518888 0.047945276034 0.52235575212 
0.85230780415 0.067488955676 0.51849311013 0.85089666225 0.087388706185 0.51765067054 0.84869997985 0.10666634899 0.51786298408 
0.84417286066 0.12409840559 0.52120439858 0.83908496172 0.14027558319 0.5255012619 0.83225671186 0.15255830869 0.5327633112 
0.82509393721 0.16305029396 0.54087679019 0.81684395703 0.16772237351 0.55175741563 0.8083945894 0.1700571479 0.56342610778 
0.79926582747 0.16442777137 0.57778006427 0.78996179129 0.1558598792 0.59276543435 0.7800308126 0.13678114262 0.61000932226 
0.76971709418 0.11419504546 0.6275567364 0.75796427442 0.078421272516 0.64624540915 0.7453336512 0.038973639222 0.66460236138 
0.72922838928 -0.015016357954 0.68164625322 0.71161166916 -0.071900224324 0.6975153949 0.68768625397 -0.14086284907 0.70848123154 
0.66198773215 -0.2107841721 0.71771111173 0.628471422 -0.28493248305 0.71928700208 0.59368257302 -0.3577919326 0.71939594966 
0.55295520945 -0.42463669567 0.71265916432 0.51176689354 -0.48897047041 0.70537500163 0.46829686355 -0.54087485292 0.69538132102 
0.42487395225 -0.59024660944 0.68566557672 0.38169903403 -0.62628875551 0.67741265499 0.33866040417 -0.66034333178 0.66977725791 
0.29638650345 -0.68324543313 0.66560686023 0.2541151973 -0.70473828626 0.66200320566 0.2118594585 -0.7177756501 0.66180000973 
0.1694736616 -0.72981372682 0.66194451175 0.12625061572 -0.73541889267 0.66432731935 0.082868383078 -0.74026980526 0.66682923265 
0.038382455573 -0.73989122858 0.67015694547 -0.0061692207053 -0.73888785514 0.67345823484 -0.051214012783 -0.73319850603 0.67656134832 
-0.096127025175 -0.72694668087 0.67962012688 -0.13996552629 -0.71610851252 0.68231740533 -0.18345826297 -0.7047296186 0.68507846351 
-0.22386793345 -0.6885292549 0.68840822419 -0.26375899764 -0.67178376179 0.69197589556 -0.29855829101 -0.64968608891 0.69787941729 
-0.33272109097 -0.62706535677 0.70414437286 -0.3599461128 -0.59874327871 0.71434895729 -0.38650214229 -0.57001301508 0.72488255011 
-0.40488159865 -0.53629381666 0.73943735654 -0.42266440316 -0.50246352272 0.75410589547 -0.43216866324 -0.46709177835 0.77035247272 
-0.44127079877 -0.43210040339 0.78641771053 -0.44393894143 -0.40319493889 0.79958151728 -0.44649413705 -0.37517707048 0.81232397658 
-0.44692216339 -0.36387559522 0.81713105887 -0.44745480208 -0.35376046795 0.82134410761 -0.45037260201 -0.37069407493 0.81201319122 
-0.45340187571 -0.38871628538 0.80193261728 -0.45963602027 -0.4380358458 0.77029938856 -0.46582399296 -0.48792075048 0.73789535128 
-0.47022665356 -0.55966563295 0.67568671624 -0.47447376935 -0.63136561506 0.61305454498 -0.46962151436 -0.70043892632 0.52564550525 
-0.46481003463 -0.76893178958 0.43897099527 -0.46481003463 -0.76893178958 0.43897099527 -0.46481003463 -0.76893178958 0.43897099527 

FrenetNormal 3 240 double
-0.70105970993 0.68200006333 0.20830553695 -0.70105970993 0.68200006333 0.20830553695 -0.70105970993 0.68200006333 0.20830553695 
-0.73181188495 0.65252704597 0.019887815987 -0.76282467162 0.62280425728 -0.17012666532 -0.74853057694 0.58021770489 -0.2932262303 
-0.73346200565 0.53741125911 -0.41518195055 -0.70785353085 0.50856013035 -0.48398033303 -0.68197247234 0.48006991496 -0.55140395678 
-0.65679124159 0.46746896967 -0.58983419605 -0.63163435268 0.45542069465 -0.62725596977 -0.60837813021 0.45558595317 -0.64909645159 
-0.58520527031 0.45628689299 -0.67025354342 -0.56074572854 0.46140918077 -0.6868501524 -0.53621786739 0.4667662304 -0.70320461185 
-0.50453706335 0.46455376998 -0.72664646703 -0.47240920038 0.46186821519 -0.75053128444 -0.42054347782 0.42910109348 -0.79547236547 
-0.36725520682 0.39416593091 -0.84193101505 -0.26066350495 0.27877190237 -0.90700184638 -0.14971061328 0.15679487571 -0.97359549258 
0.026873022874 -0.056647247151 -0.95539872143 0.20947782824 -0.27848066324 -0.9294230129 0.34494404469 -0.41967727911 -0.80808392521 
0.47560910856 -0.55266088755 -0.67703190075 0.55507805804 -0.58506201534 -0.57858714281 0.62880538723 -0.60618286493 -0.48379927457 
0.69073020944 -0.57938360187 -0.42352790123 0.75120755438 -0.54670734386 -0.36748968291 0.80425006831 -0.4871282268 -0.32846514446 
0.85630127142 -0.42396206186 -0.29170909666 0.89415877811 -0.34747652825 -0.26815876249 0.92996911705 -0.26906993185 -0.24651309855 
0.94822526456 -0.18767533011 -0.24244180202 0.96375454738 -0.10581657221 -0.24110050431 0.96167308765 -0.025044008622 -0.26005963318 
0.95665650416 0.055547522577 -0.28240216648 0.93450206451 0.13316798463 -0.31793783036 0.90929335346 0.2102589492 -0.35582474523 
0.8735816 0.27984361019 -0.3892849286 0.83587426849 0.34800207349 -0.42190403297 0.79982669986 0.40582237718 -0.43721900212 
0.76411443687 0.46155416378 -0.44903818637 0.73819538715 0.50729918735 -0.44179272796 0.71437488313 0.55090419028 -0.43046198899 
0.70474241479 0.58365850955 -0.40079319738 0.69832785144 0.61395184902 -0.36696525982 0.71472538599 0.62552223137 -0.30449571277 
0.736588319 0.63260690524 -0.23516411343 0.79016986027 0.57479380502 -0.081338196023 0.85176452362 0.50058547766 0.09383365437 
0.7965748351 0.2535733718 0.36045094686 0.71032547853 -0.039397185784 0.65138883564 0.54872194102 -0.2207139935 0.76937777402 
0.36605164326 -0.37081577437 0.83901539292 0.25948199359 -0.39582401299 0.87654475836 0.17524622978 -0.38412001638 0.9046510494 
0.099738410508 -0.30449298189 0.93885240604 0.026916112633 -0.20396655113 0.97492916746 -0.073209516496 -0.031020052437 0.97249734383 
-0.1821328857 0.16526180147 0.95765719833 -0.28100338777 0.37081874856 0.84489630823 -0.37648528295 0.57950213155 0.69912842557 
-0.40843233515 0.71458183641 0.53142384467 -0.41799779496 0.82373297283 0.35599156325 -0.38375783054 0.88688844224 0.21679600781 
-0.33340552618 0.93312596515 0.090928903305 -0.26577903295 0.95746771164 -0.0075923312483 -0.19152407191 0.97340759044 -0.095620383146 
-0.11981898821 0.97420530504 -0.16732331555 -0.049133855464 0.96894615397 -0.23249620015 0.0081253754296 0.95520143832 -0.28717377732 
0.05979048055 0.93792107077 -0.33747830974 0.096141721339 0.91845540162 -0.38024006666 0.1258508041 0.89804189081 -0.4197302583 
0.14022123821 0.88002682842 -0.45251980945 0.14767057474 0.86309399277 -0.48228590088 0.13249326508 0.85257658795 -0.50456728022 
0.1067009856 0.84506889143 -0.52333731317 -0.13566789644 0.34251333572 -0.19706390727 -0.48361787221 -0.40137805135 0.29741817506 
-0.46159497121 -0.71262893616 0.48139779782 -0.25224403133 -0.80482133883 0.50816098536 -0.14529449886 -0.85172900591 0.49983571623 
-0.092171347211 -0.87483315814 0.47306651476 -0.043139228652 -0.89774341838 0.43346966518 0.0036614173139 -0.92054791935 0.38687591664 
0.045873561225 -0.94042342683 0.32896441942 0.085489578974 -0.95864174063 0.26464945914 0.11590445809 -0.9715694474 0.19143830798 
0.14092133587 -0.98139333138 0.11300805816 0.15430422245 -0.98416720191 0.028242579168 0.16061238464 -0.98265390209 -0.060375404054 
0.15613649324 -0.97174570112 -0.1526921295 0.14486517079 -0.95491742545 -0.24733956923 0.12418503693 -0.92654516832 -0.34180268011 
0.097363040052 -0.89063725661 -0.43614546523 0.064162169645 -0.84320132268 -0.52454123433 0.026648821357 -0.78797179628 -0.60891648557 
-0.016619299065 -0.72602441299 -0.68093859519 -0.06391575998 -0.65937452987 -0.74431350569 -0.12023358998 -0.59351633387 -0.79088517053 
-0.18308864395 -0.52823182419 -0.82528057039 -0.2678424548 -0.46778420567 -0.83566364063 -0.36902033331 -0.41096425552 -0.82803746366 
-0.51210982253 -0.347630439 -0.75969997529 -0.68772772604 -0.27924108441 -0.64424326017 -0.83054156604 -0.18175833837 -0.4249014031 
-0.94701274898 -0.060912717399 -0.122136629 -0.96913539249 0.045157745041 0.12656026258 -0.91287617245 0.13895346039 0.33033922098 
-0.86134504157 0.20999465008 0.45550388085 -0.81387711231 0.26148116928 0.51310937792 -0.7876854953 0.30218330191 0.53608726623 
-0.78040615586 0.33329931316 0.52828505784 -0.79533352029 0.35123184896 0.48946094227 -0.83067672538 0.35704409281 0.42211668622 