# vtk DataFile Version 5.1
vtk output
ASCII
DATASET POLYDATA
POINTS 240 float
0 0 0 0.0159281 0.258064 0.283217 0.0318562 0.516129 0.566433 
0.0266694 0.63333 0.804204 0.0213037 0.749338 1.04159 -0.00551382 0.749764 1.23651 
-0.0326981 0.748214 1.43071 -0.0816349 0.655808 1.58549 -0.131134 0.561052 1.73925 
-0.202618 0.399232 1.85689 -0.274866 0.235079 1.97327 -0.369171 0.0258901 2.05734 
-0.464443 -0.185274 2.14001 -0.581484 -0.422255 2.19505 -0.69968 -0.660607 2.24863 
-0.83872 -0.909323 2.28028 -0.979063 -1.15869 2.31056 -1.13831 -1.40732 2.32547 
-1.29892 -1.65589 2.33928 -1.4752 -1.89714 2.34458 -1.65276 -2.13778 2.34918 
-1.84123 -2.36862 2.35145 -2.0307 -2.59856 2.3535 -2.22485 -2.81954 2.35755 
-2.41948 -3.0396 2.3618 -2.61139 -3.25376 2.36958 -2.803 -3.46726 2.37776 
-2.98381 -3.67898 2.38786 -3.16329 -3.89048 2.3982 -3.32395 -4.10428 2.40607 
-3.48211 -4.3184 2.41362 -3.61431 -4.53808 2.41265 -3.74276 -4.75857 2.41046 
-3.83966 -4.98662 2.3934 -3.93165 -5.21585 2.37404 -3.98858 -5.45325 2.33467 
-4.03966 -5.69202 2.29197 -4.05444 -5.93845 2.22645 -4.06275 -6.18623 2.15688 
-4.03576 -6.44033 2.06477 -4.00207 -6.69563 1.96839 -3.93612 -6.95544 1.85305 
-3.86364 -7.21616 1.73388 -3.76363 -7.47924 1.60238 -3.65771 -7.74283 1.46824 
-3.5303 -8.0062 1.33081 -3.39801 -8.26954 1.19264 -3.25123 -8.52941 1.0617 
-3.10097 -8.78846 0.932499 -2.94368 -9.03988 0.821432 -2.78461 -9.28937 0.714946 
-2.62602 -9.52612 0.636648 -2.46756 -9.75947 0.565845 -2.31667 -9.9743 0.531243 
-2.1679 -10.184 0.506762 -2.03289 -10.3694 0.523414 -1.90193 -10.5477 0.552138 
-1.78956 -10.6971 0.623246 -1.68293 -10.8376 0.707395 -1.59803 -10.9467 0.831543 
-1.52013 -11.0457 0.968579 -1.46503 -11.1142 1.14005 -1.41761 -11.1724 1.32312 
-1.39177 -11.2047 1.53289 -1.37352 -11.2278 1.75206 -1.37342 -11.2333 1.98911 
-1.37998 -11.2323 2.23273 -1.39937 -11.2244 2.48536 -1.42366 -11.2138 2.74145 
-1.45409 -11.2078 2.9983 -1.48697 -11.2036 3.25545 -1.51873 -11.2145 3.50621 
-1.55003 -11.2316 3.7543 -1.57332 -11.2716 3.99022 -1.59315 -11.3214 4.22087 
-1.59945 -11.3983 4.43527 -1.59965 -11.4873 4.64234 -1.58298 -11.604 4.83104 
-1.55839 -11.7337 5.01111 -1.5164 -11.8887 5.17283 -1.46593 -12.056 5.32561 
-1.40052 -12.2442 5.46223 -1.32756 -12.4429 5.59067 -1.24475 -12.6572 5.70692 
-1.15676 -12.8795 5.81678 -1.06575 -13.1119 5.91958 -0.973092 -13.3497 6.01853 
-0.884759 -13.5928 6.11578 -0.798873 -13.8388 6.21206 -0.723753 -14.0866 6.31122 
-0.65495 -14.3353 6.41207 -0.601374 -14.5836 6.51885 -0.557058 -14.8315 6.62924 
-0.529861 -15.0782 6.74674 -0.51345 -15.324 6.86874 -0.513458 -15.5686 6.99723 
-0.524184 -15.8125 7.12998 -0.548522 -16.056 7.26729 -0.582062 -16.2993 7.4077 
-0.62503 -16.5433 7.55006 -0.674598 -16.7877 7.6938 -0.728793 -17.0338 7.83693 
-0.786342 -17.281 7.9796 -0.843798 -17.5303 8.11966 -0.901184 -17.7812 8.25775 
-0.954316 -18.0344 8.39211 -1.00415 -18.2893 8.52359 -1.04644 -18.546 8.65121 
-1.08268 -18.8043 8.77574 -1.10911 -19.0639 8.89706 -1.12738 -19.3244 9.01572 
-1.13458 -19.5855 9.1323 -1.13225 -19.847 9.24708 -1.11852 -20.1084 9.361 
-1.09466 -20.3695 9.47416 -1.05982 -20.63 9.58748 -1.01491 -20.8898 9.70096 
-0.959986 -21.1485 9.81526 -0.895553 -21.4063 9.93033 -0.822301 -21.6626 10.0464 
-0.740375 -21.9174 10.1635 -0.650739 -22.1705 10.2814 -0.553262 -22.4217 10.4001 
-0.448878 -22.6704 10.5192 -0.337232 -22.9165 10.6386 -0.21906 -23.1593 10.7579 
-0.0937899 -23.3983 10.8769 0.0380651 -23.6327 10.9951 0.177328 -23.8616 11.1125 
0.323542 -24.0844 11.2287 0.477844 -24.2999 11.3436 0.639588 -24.5075 11.457 
0.810289 -24.7057 11.5687 0.988798 -24.8945 11.679 1.17703 -25.0718 11.7875 
1.37311 -25.2387 11.8947 1.57928 -25.3922 12.0001 1.79289 -25.5348 12.1046 
2.01641 -25.6628 12.2076 2.2465 -25.7799 12.31 2.48565 -25.8821 12.4115 
2.73015 -25.974 12.5127 2.98229 -26.0513 12.6136 3.23842 -26.1192 12.7146 
3.50043 -26.1733 12.8158 3.76504 -26.2193 12.9175 4.03363 -26.253 13.0201 
4.30361 -26.28 13.1235 4.57578 -26.2964 13.2283 4.84836 -26.3075 13.3341 
5.12158 -26.3098 13.4416 5.39449 -26.3079 13.5504 5.66685 -26.2989 13.6612 
5.93841 -26.2867 13.7732 6.20857 -26.2688 13.8873 6.47766 -26.2483 14.0027 
6.7448 -26.2228 14.1202 7.01076 -26.1948 14.2387 7.27446 -26.1621 14.3591 
7.53699 -26.1269 14.4803 7.79719 -26.0865 14.6029 8.05628 -26.0432 14.726 
8.31311 -25.9943 14.85 8.56897 -25.9424 14.974 8.82278 -25.8842 15.0982 
9.07581 -25.8233 15.2223 9.3271 -25.7561 15.3458 9.5778 -25.6867 15.4689 
9.82714 -25.612 15.5909 10.0761 -25.536 15.7123 10.3242 -25.4568 15.8325 
10.572 -25.3774 15.9522 10.8192 -25.2976 16.071 11.0662 -25.219 16.1896 
11.3127 -25.1432 16.3079 11.559 -25.0695 16.4266 11.8046 -25.0016 16.5463 
12.0498 -24.9364 16.6671 12.2937 -24.8791 16.7909 12.5369 -24.8248 16.9163 
12.7778 -24.779 17.0467 13.0177 -24.7358 17.1794 13.2541 -24.7007 17.3192 
13.4891 -24.6677 17.4617 13.7195 -24.6416 17.6128 13.9483 -24.6172 17.7667 
14.1716 -24.5985 17.9301 14.3931 -24.5815 18.0959 14.6084 -24.5702 18.2709 
14.822 -24.5609 18.4478 15.0289 -24.559 18.6324 15.2341 -24.5598 18.8183 
15.4323 -24.5716 19.0092 15.6286 -24.5872 19.2008 15.8169 -24.6187 19.3946 
16.0031 -24.655 19.5883 16.1796 -24.7127 19.7814 16.3535 -24.776 19.9739 
16.5151 -24.8658 20.1634 16.6736 -24.9615 20.3521 16.8165 -25.087 20.5361 
16.9558 -25.2184 20.7191 17.0758 -25.3805 20.8968 17.1917 -25.5477 21.0734 
17.2846 -25.7438 21.2443 17.3731 -25.944 21.4142 17.4354 -26.1683 21.5787 
17.4933 -26.3954 21.7423 17.5226 -26.6397 21.9006 17.5475 -26.8853 22.0582 
17.543 -27.1398 22.2106 17.5346 -27.3942 22.3624 17.498 -27.6483 22.5093 
17.4583 -27.9013 22.6555 17.394 -28.1448 22.7969 17.3278 -28.3864 22.9379 
17.244 -28.6105 23.0745 17.1594 -28.8322 23.2108 17.0667 -29.0297 23.3437 
16.9743 -29.2247 23.4765 16.8848 -29.3913 23.6075 16.7964 -29.5555 23.7385 
16.7218 -29.6901 23.8701 16.6487 -29.8227 24.0019 16.5974 -29.9279 24.137 
16.5478 -30.0318 24.2725 16.5242 -30.1141 24.4143 16.5019 -30.1958 24.5566 
16.5047 -30.2652 24.7084 16.5083 -30.3346 24.8609 16.5311 -30.4039 25.0259 
16.5542 -30.4738 25.1915 16.5871 -30.5579 25.3727 16.6199 -30.6427 25.5543 
16.6509 -30.7569 25.7543 16.6816 -30.8719 25.9547 16.6977 -31.0324 26.1763 
16.7135 -31.1934 26.3981 16.7014 -31.416 26.6439 16.6893 -31.6387 26.8896 

LINES 2 240
OFFSETS vtktypeint64
0 240 
CONNECTIVITY vtktypeint64
0 1 2 3 4 5 6 7 8 
9 10 11 12 13 14 15 16 17 
18 19 20 21 22 23 24 25 26 
27 28 29 30 31 32 33 34 35 
36 37 38 39 40 41 42 43 44 
45 46 47 48 49 50 51 52 53 
54 55 56 57 58 59 60 61 62 
63 64 65 66 67 68 69 70 71 
72 73 74 75 76 77 78 79 80 
81 82 83 84 85 86 87 88 89 
90 91 92 93 94 95 96 97 98 
99 100 101 102 103 104 105 106 107 
108 109 110 111 112 113 114 115 116 
117 118 119 120 121 122 123 124 125 
126 127 128 129 130 131 132 133 134 
135 136 137 138 139 140 141 142 143 
144 145 146 147 148 149 150 151 152 
153 154 155 156 157 158 159 160 161 
162 163 164 165 166 167 168 169 170 
171 172 173 174 175 176 177 178 179 
180 181 182 183 184 185 186 187 188 
189 190 191 192 193 194 195 196 197 
198 199 200 201 202 203 204 205 206 
207 208 209 210 211 212 213 214 215 
216 217 218 219 220 221 222 223 224 
225 226 227 228 229 230 231 232 233 
234 235 236 237 238 239 
CELL_DATA 1
FIELD FieldData 3
Length 1 1 double
64.486770814 
Tortuosity 1 1 double
0.44103501796 
ClusterLabel 1 1 int
2 
POINT_DATA 240
FIELD FieldData 6
Curvature 1 240 double
0 0.22647379831 0.45294759661 0.76224416548 1.0722426222 1.2919543701 1.5101227554 1.2657358036 1.0093862139 
0.76480074031 0.5206244534 0.40364936484 0.2922532762 0.24112708374 0.19320106275 0.16887331969 0.14602046899 0.13136906772 
0.11730876191 0.10436768706 0.091518185644 0.076640226263 0.061576169821 0.045225829781 0.028744479373 0.037903910487 0.049938943267 
0.083814340737 0.1203682735 0.16648005242 0.21386621084 0.26403855426 0.31461275128 0.35243054366 0.38826675862 0.39494070923 
0.39675428246 0.37076019389 0.33981028441 0.29844266761 0.25509568641 0.21588062559 0.17750029616 0.14900309038 0.1226236968 
0.10907959116 0.098446581755 0.10338838656 0.11206165728 0.13627453856 0.16441321619 0.21252870858 0.26595718362 0.35234217129 
0.44794080765 0.5847362021 0.73362194946 0.86798196825 0.99787253208 0.9969955776 0.95398242278 0.82109408085 0.65791073204 
0.51147477551 0.37093846855 0.26772966882 0.17825052693 0.12671569983 0.089740900483 0.10984516136 0.15278104631 0.21463742117 
0.28437733348 0.35812235386 0.43360452956 0.48868457199 0.53455877379 0.53609976168 0.51684245168 0.46523181082 0.39784892115 
0.32660963208 0.25341773572 0.19064322229 0.13334451272 0.098192123024 0.075119544178 0.082338668807 0.1066965204 0.13325965475 
0.16111655497 0.18047666279 0.19466980225 0.19710751839 0.19213770752 0.17790602683 0.15762840334 0.13345952868 0.10665994902 
0.081277374405 0.056886703331 0.043060340755 0.036889274193 0.042376116241 0.056606389747 0.070971212538 0.085440461638 0.097906927663 
0.10876509819 0.11743292918 0.12428109348 0.12867679736 0.13096491806 0.13098140333 0.12897865709 0.12520304318 0.11979753479 
0.11377209332 0.10715720728 0.10093412067 0.095096303509 0.090652355519 0.087625901604 0.086475926477 0.087299489387 0.090415494828 
0.09602503425 0.1034622594 0.11295563098 0.12395726659 0.13671397308 0.14963706624 0.16276043966 0.17469668952 0.18515463458 
0.19307846084 0.19773717252 0.19915446612 0.19624986894 0.19091473479 0.18222545962 0.17229459379 0.16059002703 0.1483862867 
0.13544418546 0.12294518128 0.1111249641 0.099947340216 0.089789483965 0.08046149821 0.072498188381 0.065421119856 0.059854689914 
0.055307051579 0.052560068177 0.050504427018 0.049716246639 0.049486617928 0.050319599704 0.051510801686 0.053409488576 0.055145869376 
0.056549314607 0.0572584617 0.0564876575 0.054686335705 0.050601164102 0.045123451371 0.03643515771 0.027015658833 0.015841267441 
0.0098888153013 0.016991211294 0.025737478817 0.038767775178 0.051395789064 0.062930097473 0.073469354698 0.081183950499 0.088125618594 
0.09277426783 0.096984581371 0.099834542753 0.10220187878 0.10300068239 0.10352825063 0.10313160945 0.10277585156 0.10256633002 
0.1035475147 0.10900575471 0.11663552861 0.13286095747 0.15066674718 0.17506882564 0.19996886827 0.22706448021 0.25306363761 
0.27394600717 0.29256730553 0.29999630138 0.30515059946 0.29833280397 0.29023868187 0.27498294934 0.25964711689 0.24383068483 
0.2284345653 0.21574420768 0.2034460806 0.19386741857 0.18454942628 0.17718645692 0.16973819247 0.16159444498 0.1536102335 
0.14704855135 0.14161438903 0.14725042139 0.15587688471 0.19709904545 0.24160647187 0.32626714553 0.41103064941 0.49722092254 
0.57789812359 0.57036617125 0.5573192801 0.44040770806 0.32433467225 0.22738026242 0.13485291 0.16960345804 0.2041650086 
0.23141865625 0.25805635449 0.2486610127 0.23834318142 0.11917159071 0 
Torsion 1 240 double
0 0 0 -0.054730737106 -0.10992529402 -0.12063561753 -0.13058552679 -0.18297113324 -0.23645421462 
-0.32106502664 -0.40675854234 -0.46708238914 -0.52629353117 -0.54594668322 -0.56349941102 -0.55340021332 -0.54157277028 -0.52673336537 
-0.51167688213 -0.51892767213 -0.52800360267 -0.62988923401 -0.74028951679 -1.7971898695 -2.9504930071 -2.3042020246 -1.4560874025 
-0.96740601343 -0.52280605865 -0.38303051468 -0.28389822548 -0.22979874857 -0.18219438882 -0.14803611982 -0.11596656395 -0.088237723041 
-0.061232334628 -0.03077915159 0.00028848989742 0.044939095532 0.092170464354 0.16888468985 0.25155504801 0.38517934003 0.52972233216 
0.66152765646 0.79044402518 0.73661364388 0.63900018705 0.50328785375 0.35795054112 0.26274080933 0.18086288094 0.1315299751 
0.091295677711 0.069614818208 0.053378989388 0.048571681436 0.047280841442 0.055379037561 0.06650258976 0.09456987197 0.12834852385 
0.20655724149 0.30041745957 0.59497838363 0.963360257 1.8774391225 3.0009133454 2.4290633745 1.1790837261 0.63299291608 
0.38018912208 0.25675035752 0.18942172621 0.14708759204 0.11603146268 0.089134306849 0.064188274408 0.030047280505 -0.0085762571105 
-0.084795372772 -0.18005022415 -0.45804451781 -0.83209415933 -1.4267115336 -2.1416385802 -1.8242639044 -0.92282378033 -0.45090934875 
-0.23098332342 -0.1065525293 -0.040193159567 0.0093634905283 0.048332125508 0.093559501141 0.14287244359 0.23169818954 0.34723681674 
0.68019432533 1.1653450509 1.5936204936 1.9806819631 1.7164115118 0.96364211985 0.55472682091 0.41268335535 0.32729111599 
0.28739152796 0.25793778378 0.23716212526 0.21837160336 0.20128705826 0.18258054821 0.16243229154 0.14176850665 0.12063076841 
0.099117819258 0.077248112203 0.052734127403 0.025619936154 0.0036203861515 -0.01317783377 -0.019111091879 -0.013617407392 -0.0059248987413 
0.0041593133849 0.016239842052 0.030566226828 0.042305992865 0.051035875279 0.056419888334 0.057776466051 0.060122919271 0.063702047645 
0.067114863778 0.070313392985 0.07425451395 0.079185757258 0.085782313241 0.094677000718 0.1039528353 0.11377316575 0.12510220356 
0.13866287101 0.15309281596 0.16885442006 0.18459222326 0.20029225546 0.21350812547 0.22263892876 0.22296969313 0.20830039115 
0.17698458004 0.11624703182 0.049501485855 -0.028258722664 -0.09889171088 -0.15596559706 -0.19740573035 -0.2079692017 -0.21202920249 
-0.20274875081 -0.19502349717 -0.1906132709 -0.1898036104 -0.19697358217 -0.22125307906 -0.28497953667 -0.81686516795 -2.4723328161 
-3.2312254907 -1.7486807317 -0.62946103715 -0.45708848002 -0.32641476546 -0.30910977914 -0.3014733878 -0.3212833306 -0.33759441357 
-0.34352554571 -0.33948106676 -0.30447779479 -0.25911687512 -0.18009360044 -0.091443001487 0.030011813519 0.15482772017 0.29166599308 
0.40998779268 0.45868765262 0.4812701748 0.40047156834 0.31704801614 0.22266816871 0.13439270909 0.07303205028 0.015858878885 
-0.021772684585 -0.057587315636 -0.084408131216 -0.11065597146 -0.13388815204 -0.15712512545 -0.18038899196 -0.20251097348 -0.21778164502 
-0.23216403253 -0.24082809168 -0.24954468983 -0.25862555832 -0.26963153508 -0.29507582381 -0.32670358768 -0.4087504566 -0.50283536772 
-0.70425948836 -0.90895871191 -1.1458134914 -1.3500090093 -1.1982185771 -1.0417792656 -0.82852031729 -0.62334212852 -0.53028447788 
-0.44417879739 -0.46930463923 -0.51001717033 -0.84427901591 -1.235129613 -2.9162037437 -4.4823368621 -2.7439158777 -1.0397712008 
-0.66097708271 -0.28613461424 -0.14246364759 0 0 0 
FrenetTangent 3 240 double
0.016474233902 0.58344294785 0.81198702343 0.016474233902 0.58344294785 0.81198702343 0.016474233902 0.58344294785 0.81198702343 
-0.027556568599 0.42161085087 0.88705314194 -0.071960513495 0.25840729545 0.96275541399 -0.13882129299 0.002774152667 0.95360538927 
-0.20606595 -0.25443898306 0.94300489794 -0.25709577363 -0.45364003844 0.81838503812 -0.30770624812 -0.6513407814 0.69081640152 
-0.3370397836 -0.73684025859 0.56591138132 -0.36563325163 -0.81843708305 0.44109900864 -0.38921090299 -0.84542358174 0.35391213505 
-0.41256856239 -0.87001489069 0.26837550266 -0.43705797185 -0.87232270659 0.2102239687 -0.46160747422 -0.87344732817 0.15352651077 
-0.48776191891 -0.86407930201 0.11521688107 -0.51401667249 -0.85405548536 0.078056490646 -0.54019409963 -0.83890357187 0.054836136599 
-0.56636595369 -0.82338206581 0.03262046986 -0.58980269041 -0.80668224715 0.021830922795 -0.61301564479 -0.78988602111 0.011976240067 
-0.63056955282 -0.77574418329 0.010921892578 -0.64760428228 -0.76184586732 0.010674915294 -0.65634005493 -0.75421322386 0.015507180374 
-0.66423056346 -0.74721875075 0.020856775694 -0.66159352492 -0.74935642564 0.026500956261 -0.65777582691 -0.75251826667 0.032178174426 
-0.64130136975 -0.76622840583 0.03284739759 -0.62327466854 -0.78123220419 0.032902432689 -0.59011700042 -0.80574116039 0.022966861182 
-0.55494187006 -0.83151747097 0.011699208795 -0.50231162697 -0.86188665381 -0.012906750842 -0.44716381954 -0.89291827016 -0.039436504794 
-0.3752332182 -0.91933463484 -0.078694139359 -0.30069558091 -0.94503406722 -0.11992892043 -0.21666619235 -0.9567566413 -0.16741782278 
-0.13105484526 -0.96614973899 -0.21594907867 -0.047969625202 -0.95954239607 -0.26116665316 0.034665393998 -0.95008348949 -0.30579367055 
0.10587230854 -0.93098561134 -0.34043554516 0.17490788319 -0.91005632859 -0.37318024263 0.23058975484 -0.8876433189 -0.39411712515 
0.2835739087 -0.86493056638 -0.4126685905 0.32562549472 -0.84593810708 -0.42008383284 0.36533438763 -0.82774285346 -0.42511274167 
0.39748811094 -0.81531527494 -0.41974346324 0.42792829063 -0.80419582891 -0.41201583306 0.45364221082 -0.798957147 -0.39350320192 
0.478223798 -0.79512739817 -0.37240666431 0.49992074962 -0.796113325 -0.33839505645 0.5208889512 -0.79831584358 -0.30112069399 
0.53940662365 -0.80287400627 -0.24638910703 0.55727255962 -0.80805867005 -0.18701464122 0.57037976784 -0.80993737363 -0.10286748185 
0.58215657905 -0.81089183027 -0.011794623221 0.5809962472 -0.79579452786 0.11057741424 0.5760391451 -0.77598638312 0.24213508027 
0.54355033076 -0.72105700878 0.39392554675 0.50259022035 -0.65532110227 0.5519414903 0.43194504904 -0.55516361472 0.68700136271 
0.35173469145 -0.44391472884 0.81466427886 0.26689579787 -0.33391475662 0.89190206769 0.18049672361 -0.22433576654 0.95214262259 
0.10909490417 -0.14131208889 0.97914002915 0.042976208577 -0.067643123579 0.99442678118 -0.0064107396044 -0.021996226311 0.99828016185 
-0.049643481841 0.013343703401 0.99792816454 -0.079280133002 0.025105419892 0.99625249024 -0.10369967945 0.027819682473 0.99406889337 
-0.11611315925 0.0093778142117 0.99282750512 -0.1237242124 -0.017526506386 0.9919630003 -0.11865436565 -0.064916677731 0.98930381309 
-0.10830081062 -0.12084262022 0.98589684156 -0.08377619486 -0.19484131607 0.97354700608 -0.053105094926 -0.27667879652 0.95731833804 
-0.0098293737525 -0.36698922138 0.92381632782 0.039133798469 -0.46112280409 0.88252024857 0.092445436307 -0.54721963711 0.82408534088 
0.14779709505 -0.62954614312 0.75760999516 0.19686141153 -0.69320324377 0.68651972931 0.24286064866 -0.7477590093 0.6131796899 
0.27726080892 -0.78584988689 0.54844924163 0.30578801886 -0.81560411236 0.48807808001 0.32246788355 -0.83618377299 0.44175759173 
0.33292029752 -0.85194090595 0.40282271379 0.33247032208 -0.86391445908 0.37778892876 0.32607358878 -0.87382424139 0.36033755806 
0.30950118748 -0.8820824642 0.35447990237 0.28717150034 -0.88940625203 0.35518184861 0.25575770859 -0.8947999285 0.3640999024 
0.21901457547 -0.89906127296 0.37783807262 0.17585341751 -0.9002333043 0.39547459355 0.12878940661 -0.89952669927 0.41548173316 
0.079961652289 -0.89554119205 0.43489802837 0.030022498008 -0.88948952728 0.45394201068 -0.016605816304 -0.88180446483 0.46931666728 
-0.061072887858 -0.87305315666 0.48229606959 -0.098810469373 -0.86516183263 0.49064827997 -0.13199853649 -0.85785190631 0.49587224793 
-0.15718674298 -0.85317570882 0.49704525329 -0.17677504701 -0.8503431215 0.49538258483 -0.18848602219 -0.85057284152 0.4908438799 
-0.19448878805 -0.85302162483 0.48422109057 -0.19331020799 -0.85787665411 0.47595473959 -0.18674561849 -0.86453636788 0.46645571737 
-0.17393940615 -0.87234412446 0.45646257721 -0.15628894924 -0.88104289935 0.44608594255 -0.13359321803 -0.88947044846 0.43622474425 
-0.10684597868 -0.89768019504 0.42677745697 -0.076531657878 -0.90443402364 0.41855897974 -0.04325391557 -0.90997832039 0.41136136007 
-0.0081228759942 -0.9133797034 0.40569446325 0.028600840922 -0.9149395199 0.40134303137 0.065469555276 -0.91426844576 0.39843137914 
0.10246715624 -0.91161435772 0.39679953105 0.1382389552 -0.90717857543 0.39617953027 0.17288380714 -0.90110478391 0.39648977621 
0.20558007949 -0.89392762654 0.39730044384 0.23642360401 -0.88570136722 0.39858692225 0.26532365418 -0.87693948314 0.39995131523 
0.29231262123 -0.86765090137 0.4013923242 0.31793850671 -0.85810844801 0.40255650261 0.34217820754 -0.84830782014 0.40343915841 
0.36595918126 -0.83812134582 0.40390704545 0.38925770061 -0.82752906749 0.40393871018 0.41308658998 -0.81603048269 0.40361220593 
0.43749237304 -0.80354609084 0.40289611436 0.46324393507 -0.78943340001 0.40184139022 0.49050949845 -0.77348887282 0.40040570444 
0.51949913814 -0.75508478428 0.39869144352 0.55049497572 -0.7338186607 0.39665302244 0.58297456058 -0.70937563626 0.39437320747 
0.61724013752 -0.6811085645 0.39180282581 0.65205308343 -0.6494472567 0.38892675553 0.68754765863 -0.61355916441 0.38567001641 
0.7222204536 -0.57473336945 0.38216018312 0.75583441635 -0.53212245761 0.37832424771 0.78729736003 -0.48780409577 0.37440000969 
0.81589227832 -0.44120913395 0.37035803486 0.8415928697 -0.39447334511 0.36649603197 0.86329928998 -0.34754321499 0.36288239034 
0.8820943382 -0.30176298147 0.35975433727 0.89673028349 -0.25762545738 0.35731998211 0.90889752382 -0.21550536329 0.35556126986 
0.91741313808 -0.17636938444 0.35480194607 0.92407940629 -0.13961481264 0.35479054261 0.92791263378 -0.10650835375 0.35592488943 
0.93048519586 -0.075740549198 0.35776531449 0.93105713678 -0.048684087376 0.36072625501 0.93083650282 -0.02370969095 0.36425437 
0.9293125235 -0.0021591353966 0.36871517191 0.92732513394 0.017725213891 0.37357022892 0.92454784056 0.034769438863 0.37909731168 
0.92151343108 0.050730027403 0.38482818057 0.91802458381 0.064775351554 0.39091922961 0.9144041111 0.078369242987 0.39698645515 
0.91054232507 0.091135507773 0.40301000427 0.90662538776 0.10397539491 0.40877587056 0.9026035285 0.11695534409 0.41405151095 
0.89857252998 0.13035555906 0.41885953805 0.89452348142 0.14458579894 0.42274402887 0.89049609883 0.15925368331 0.42604033191 
0.88651315928 0.17481929996 0.42813009588 0.8826135027 0.19049630058 0.42960501845 0.87889137034 0.20641072491 0.42976935806 
0.87536642978 0.22188524513 0.42939874206 0.87227850888 0.23638484271 0.42784254874 0.8695339014 0.24974313144 0.4259983157 
0.86758082204 0.26047006919 0.42348999106 0.86606375957 0.26946514619 0.42107932174 0.86559313761 0.27430375737 0.41890302521 
0.86553262187 0.27711241655 0.41720363924 0.86649737164 0.27484619574 0.4166965297 0.86767112323 0.2705878415 0.4169916337 
0.86938954622 0.26113786679 0.41937735477 0.87093025236 0.25007921675 0.42285865033 0.87198779084 0.23464698067 0.42931853899 
0.87246255626 0.2182741918 0.43697164131 0.87128299813 0.19923144664 0.4480119308 0.86921501952 0.18007577784 0.46016745453 
0.86451139347 0.16058510223 0.47563150655 0.8588322003 0.14156899414 0.49197944283 0.85012538501 0.12402568178 0.51107046824 
0.84061823979 0.10712753147 0.53061104927 0.82851002225 0.092326157824 0.55161268608 0.81593180227 0.077847743982 0.57259461866 
0.80175209253 0.064469785762 0.5935094109 0.78746667883 0.050722054571 0.61401065955 0.77280317024 0.03565167391 0.63303269456 
0.75829711963 0.01939191198 0.65136791347 0.74438311099 -0.0013399235265 0.66712070382 0.73058083663 -0.024031518401 0.68207092663 
0.71722084372 -0.054480494107 0.69384431964 0.70357105079 -0.087348310384 0.70470947853 0.68871165772 -0.13031215686 0.71178374723 
0.67288295156 -0.1756457034 0.71776836216 0.65278045582 -0.23142747289 0.71894859461 0.6310167222 -0.28882385803 0.71884776068 
0.60150054512 -0.35375511622 0.71276861698 0.57004649081 -0.41892240253 0.70541558763 0.5289999442 -0.48525802809 0.69175682436 
0.48634915293 -0.55041358686 0.67720280911 0.43525496865 -0.60935826783 0.65793694138 0.38326066657 -0.66629773934 0.63838244004 
0.32621570346 -0.71198575783 0.61720838355 0.26889424129 -0.75555629226 0.5962790002 0.20991378474 -0.78642192228 0.57681765574 
0.15103619558 -0.815470742 0.55785598775 0.092820815358 -0.83282384543 0.54211098693 0.034936086088 -0.8487270404 0.52694493519 
-0.02065612989 -0.85457753677 0.51579293028 -0.07574799026 -0.85930504191 0.50523203072 -0.12708718358 -0.85561011284 0.49910442128 
-0.17769777802 -0.85107182413 0.49361849476 -0.2223674893 -0.8396569106 0.4933647521 -0.26605131153 -0.82764404297 0.49388202694 
-0.30094428969 -0.81029941798 0.50127420788 -0.33458453691 -0.79252908281 0.5096354198 -0.35592524387 -0.77057904781 0.52751075414 
-0.37566087938 -0.74824772452 0.54655848317 -0.37790123592 -0.7217603589 0.57838531435 -0.37813734114 -0.69477892328 0.61133505114 
-0.35387704119 -0.66175885432 0.65800918964 -0.32747184508 -0.62815541073 0.70510840817 -0.27130621469 -0.58645764421 0.75810561212 
-0.21389037336 -0.54460281749 0.81028979637 -0.13647115703 -0.50023502743 0.84946566529 -0.05952479285 -0.45664670026 0.88734062744 
0.0085161892917 -0.42773825729 0.90071517867 0.075200147948 -0.4000606661 0.91333957132 0.11094397113 -0.40044649547 0.90886034854 
0.14551151496 -0.40175073774 0.90407949276 0.14626102732 -0.42945935062 0.89062668845 0.14631442181 -0.45756196689 0.87696974783 
0.1194512586 -0.50089938109 0.85541953634 0.092315743636 -0.54426550191 0.83372182288 0.049247651614 -0.58931095991 0.80339524375 
0.0065414763311 -0.63397788465 0.77332350983 0.0065414763311 -0.63397788465 0.77332350983 0.0065414763311 -0.63397788465 0.77332350983 

FrenetNormal 3 240 double
-0.21289449917 -0.79142809705 0.5729899645 -0.21289449917 -0.79142809705 0.5729899645 -0.21289449917 -0.79142809705 0.5729899645 
-0.23309047302 -0.86453894358 0.40365763239 -0.25345759919 -0.93826937355 0.23289028051 -0.24397972786 -0.93123378151 -0.032805477892 
-0.23399168563 -0.92281757371 -0.3001239441 -0.21041892225 -0.79818206825 -0.50846817801 -0.18649482988 -0.67054089131 -0.71528721626 
-0.19716764166 -0.53018886324 -0.80751473519 -0.20904382401 -0.38939471862 -0.89575646215 -0.26406107746 -0.26268437964 -0.91741859768 
-0.32097048315 -0.13659175144 -0.93616057569 -0.40200280462 -0.016391283722 -0.90308991841 -0.48431598888 0.10349632592 -0.86726814774 
-0.56099465923 0.21194935369 -0.78452438733 -0.63732117247 0.3196877201 -0.69884800255 -0.68891644721 0.40559962636 -0.5801214656 
-0.73872929034 0.4899384544 -0.4590129357 -0.75968866646 0.54680958837 -0.31495005378 -0.77828730438 0.60143336556 -0.16900908851 
-0.76252892389 0.61978275847 0.011365914413 -0.74361852336 0.63480422622 0.19490000336 -0.55586678186 0.49315557653 0.51745235244 
-0.35091823711 0.33554978526 0.85416396875 0.14206549054 -0.10088096904 0.62538401085 0.66735222936 -0.56858181265 0.33318443715 
0.74659290857 -0.61960796729 0.10967048427 0.77112982575 -0.61953250913 -0.1054197604 0.78036969752 -0.57753449953 -0.21482399036 
0.78756996323 -0.5299468164 -0.31013675169 0.8014025931 -0.46148400407 -0.36957454395 0.81619181395 -0.3900103558 -0.42383806183 
0.83275292311 -0.30097388218 -0.45453705507 0.84958927706 -0.20920920269 -0.48157553963 0.86031862063 -0.10951452889 -0.48753453021 
0.87003012914 -0.0084981893778 -0.4899802718 0.8714003778 0.085412127846 -0.47386394398 0.87128406529 0.17805602526 -0.45443952458 
0.86947949265 0.25155911932 -0.41754024243 0.86735415058 0.32142546075 -0.37732073635 0.87337490992 0.36538282843 -0.31198438926 
0.88104134631 0.40410606 -0.24157393288 0.89658709056 0.40543048185 -0.12166366464 0.91382125792 0.39874087304 0.0088537061308 
0.89437157864 0.33165203902 0.20242745287 0.86660185167 0.25086441165 0.4103026457 0.76337431027 0.14525466047 0.58541437378 
0.64206833416 0.03369794213 0.75267652175 0.52282392115 -0.028567163151 0.83993072184 0.40410032409 -0.078379650395 0.90697238773 
0.31167801106 -0.079842379918 0.94266258706 0.22625072038 -0.068446131325 0.97001463039 0.14770770127 -0.020979946436 0.98429148758 
0.071089317225 0.036570306664 0.99491291638 -0.015177575396 0.12555529357 0.98331017958 -0.10427609553 0.22376569149 0.96518513331 
-0.20403007658 0.33905850371 0.90215118102 -0.30706266099 0.45960744341 0.8252991038 -0.39887819988 0.55966818456 0.70305792871 
-0.48707935744 0.65312717285 0.56619137764 -0.54976835029 0.70208441158 0.42737280694 -0.60385773706 0.73604106058 0.2878962521 
-0.65112675838 0.72993033485 0.17793699164 -0.69599315097 0.70970496575 0.078375868972 -0.76865471568 0.62284187927 0.0090983160861 
-0.85153979197 0.51146836799 -0.049040452513 -0.8439994061 0.088355206402 -0.067060039493 -0.80176087777 -0.4543789838 -0.069685056781 
-0.50064181863 -0.74815963991 -0.053462079256 -0.095970547151 -0.94235888239 -0.029699903805 0.11206772875 -0.98398710165 -0.051328010613 
0.23817558982 -0.96204406124 -0.091868735028 0.31745346197 -0.92950347976 -0.15874659994 0.37641953169 -0.89236637444 -0.23704780291 
0.41557159293 -0.84022865973 -0.32936993595 0.44578318692 -0.78132237736 -0.42801858623 0.45883750331 -0.70935414489 -0.52250531589 
0.4638427265 -0.63125808398 -0.61503953957 0.45346876667 -0.55508580574 -0.69052289879 0.43559745513 -0.47985137156 -0.7576939616 
0.39994645923 -0.42375768992 -0.80935619731 0.35529309151 -0.37735552855 -0.85316586236 0.2511481178 -0.3707127014 -0.88459261712 
0.11573191529 -0.38496901147 -0.90951040623 -0.2096545405 -0.41111819172 -0.75234180809 -0.63866113445 -0.44375439208 -0.49585336237 
-0.84160280461 -0.37036368959 -0.18909759871 -0.91663932052 -0.23698408155 0.14609888432 -0.93614609187 -0.1417983212 0.30896712464 
-0.92307541308 -0.069019618179 0.37073612924 -0.91886973163 -0.0076341778719 0.39120754666 -0.92005492692 0.046822926999 0.38656556645 
-0.92454136338 0.09498818304 0.36558860157 -0.93110803401 0.13918871242 0.33431835868 -0.93920068166 0.17300897508 0.29184650581 
-0.9482894532 0.20005323028 0.24206249089 -0.95990670649 0.20712590503 0.17198544041 -0.97323335591 0.20069666621 0.088189154638 
-0.96731629293 0.14170525825 -0.062125846104 -0.94792863126 0.045920331886 -0.25900394732 -0.65104477667 -0.14050154396 -0.4923771178 
-0.15307672429 -0.3926023687 -0.75219599065 0.23848070068 -0.48622310628 -0.7803807482 0.5502301551 -0.46098377849 -0.6348399193 
0.73410527339 -0.41863497751 -0.52044545108 0.81873463827 -0.36300718243 -0.43022427774 0.87931075265 -0.30599752471 -0.35469197198 
0.920571378 -0.2478781894 -0.29095527201 0.95084611745 -0.18894148203 -0.23443020622 0.97199412092 -0.12932572711 -0.18389634421 
0.98584294099 -0.069985461956 -0.13783089753 0.99341902531 -0.010881945817 -0.09560549527 0.99565362458 0.045755375247 -0.058608093814 
0.99314023711 0.10020052291 -0.026257804183 0.98756164955 0.15051677505 6.9591163383e-05 0.97916505543 0.1970371071 0.020859809507 