# vtk DataFile Version 5.1
vtk output
ASCII
DATASET POLYDATA
POINTS 240 float
0 0 0 -0.160581 -0.314796 0.0850057 -0.321161 -0.629592 0.170011 
-0.460387 -0.936976 0.252739 -0.599433 -1.2443 0.335447 -0.72405 -1.54184 0.412568 
-0.84842 -1.83922 0.489594 -0.965092 -2.12452 0.558016 -1.08156 -2.40951 0.626215 
-1.19666 -2.68013 0.68348 -1.31171 -2.95026 0.740364 -1.43089 -3.20391 0.785088 
-1.55024 -3.45684 0.829278 -1.67784 -3.69157 0.861107 -1.80587 -3.92535 0.892279 
-1.94421 -4.14015 0.911103 -2.08319 -4.35378 0.929156 -2.23185 -4.54916 0.933794 
-2.38121 -4.74323 0.937466 -2.53682 -4.92164 0.924666 -2.69294 -5.09877 0.910518 
-2.84934 -5.26452 0.874966 -3.00576 -5.42922 0.837451 -3.15464 -5.58787 0.772919 
-3.30274 -5.7459 0.705636 -3.43462 -5.90317 0.606752 -3.56468 -6.06037 0.504323 
-3.67011 -6.22087 0.368094 -3.77252 -6.38177 0.227719 -3.84317 -6.54798 0.054245 
-3.90959 -6.71489 -0.123642 -3.93934 -6.8867 -0.331215 -3.96381 -7.05923 -0.54307 
-3.94965 -7.23425 -0.779037 -3.92949 -7.40967 -1.01875 -3.87176 -7.5841 -1.27569 
-3.80777 -7.75837 -1.53549 -3.70977 -7.92841 -1.80536 -3.60571 -8.09769 -2.07703 
-3.4727 -8.2608 -2.3523 -3.33419 -8.42273 -2.62826 -3.17225 -8.57839 -2.90282 
-3.00557 -8.7328 -3.1771 -2.82046 -8.8826 -3.44676 -2.6314 -9.03142 -3.71543 
-2.42772 -9.17845 -3.97791 -2.22073 -9.32507 -4.23899 -2.00156 -9.47306 -4.49339 
-1.77948 -9.62138 -4.74619 -1.54665 -9.77387 -4.99197 -1.3111 -9.92743 -5.23596 
-1.06604 -10.0872 -5.47172 -0.818442 -10.2487 -5.7053 -0.563354 -10.4175 -5.92765 
-0.306171 -10.5885 -6.14687 -0.0450734 -10.7669 -6.34959 0.217174 -10.9475 -6.54747 
0.477924 -11.1347 -6.72116 0.738213 -11.3238 -6.8874 0.990096 -11.5172 -7.02002 
1.23927 -11.712 -7.14181 1.47242 -11.9076 -7.22015 1.70016 -12.1034 -7.28384 
1.90458 -12.296 -7.29571 2.10078 -12.4873 -7.28934 2.26765 -12.6708 -7.22614 
2.42374 -12.8514 -7.14204 2.54654 -13.02 -7.00085 2.65657 -13.1841 -6.83776 
2.73173 -13.3332 -6.62255 2.79295 -13.4762 -6.38648 2.81991 -13.6025 -6.10782 
2.8326 -13.7218 -5.8114 2.81342 -13.8239 -5.48511 2.78042 -13.9187 -5.14585 
2.71906 -13.9969 -4.79082 2.64492 -14.0676 -4.42867 2.54648 -14.1227 -4.06452 
2.43665 -14.1703 -3.69943 2.30677 -14.2028 -3.34431 2.16712 -14.2278 -2.99405 
2.01161 -14.2369 -2.66292 1.84809 -14.2378 -2.34149 1.67288 -14.2206 -2.04495 
1.49151 -14.1937 -1.76151 1.30262 -14.1449 -1.50509 1.10963 -14.084 -1.26342 
0.913366 -13.9968 -1.0474 0.715256 -13.8946 -0.845904 0.518314 -13.7627 -0.665632 
0.322058 -13.6133 -0.497812 0.131539 -13.433 -0.344466 -0.0554904 -13.2341 -0.199922 
-0.232239 -13.0069 -0.0619058 -0.402509 -12.7621 0.0719975 -0.558254 -12.496 0.207241 
-0.704518 -12.2159 0.343359 -0.832583 -11.9252 0.487406 -0.948345 -11.6271 0.636812 
-1.04298 -11.3314 0.79859 -1.12282 -11.0373 0.969028 -1.17949 -10.7594 1.15369 
-1.21935 -10.4932 1.34867 -1.23493 -10.2562 1.55722 -1.23229 -10.041 1.77596 
-1.20542 -9.86501 2.00555 -1.15974 -9.71949 2.24357 -1.09126 -9.61921 2.48834 
-1.00445 -9.55527 2.73853 -0.897781 -9.53807 2.99083 -0.774603 -9.55971 3.24487 
-0.635919 -9.62539 3.49653 -0.48391 -9.72892 3.74613 -0.321762 -9.8706 3.9895 
-0.150602 -10.0462 4.22733 0.0250309 -10.2522 4.4559 0.204776 -10.4863 4.67597 
0.383796 -10.7426 4.88447 0.562126 -11.0203 5.08197 0.73563 -11.3129 5.26615 
0.904388 -11.6202 5.43722 1.06566 -11.9363 5.59355 1.21933 -12.2616 5.73489 
1.3644 -12.5913 5.86037 1.50044 -12.9259 5.96918 1.62814 -13.2621 6.0614 
1.74679 -13.6003 6.13558 1.85847 -13.9386 6.19297 1.96233 -14.2772 6.23149 
2.06133 -14.6153 6.25385 2.15469 -14.9528 6.2574 2.24564 -15.2898 6.24639 
2.33369 -15.626 6.21786 2.42173 -15.9618 6.17745 2.50975 -16.2968 6.12227 
2.59974 -16.6315 6.05893 2.69227 -16.9656 5.98508 2.78811 -17.2993 5.90756 
2.88834 -17.6326 5.82514 2.99247 -17.9654 5.74395 3.10197 -18.2976 5.66446 
3.21529 -18.6292 5.59105 3.33407 -18.9598 5.52632 3.45622 -19.2893 5.47195 
3.58335 -19.6173 5.43292 3.71333 -19.9436 5.40752 3.84768 -20.2674 5.40299 
3.9846 -20.5887 5.41393 4.12563 -20.906 5.44943 4.26938 -21.2198 5.50068 
4.41762 -21.5278 5.57784 4.56919 -21.8311 5.66954 4.72643 -22.1264 5.78602 
4.88791 -22.4159 5.91459 5.0569 -22.6949 6.06452 5.23122 -22.9667 6.22328 
5.41529 -23.2255 6.39822 5.60571 -23.476 6.57838 5.8082 -23.7108 6.76846 
6.01782 -23.9363 6.96026 6.24152 -24.1434 7.15543 6.47273 -24.3405 7.3493 
6.71937 -24.5168 7.54051 6.97337 -24.6824 7.7282 7.24309 -24.8251 7.9084 
7.51946 -24.9568 8.08384 7.8106 -25.064 8.2487 8.10718 -25.1601 8.40851 
8.41632 -25.2305 8.55664 8.72936 -25.2902 8.70025 9.05177 -25.3238 8.83298 
9.37643 -25.3472 8.96228 9.70673 -25.3449 9.08298 10.0378 -25.3332 9.20158 
10.3708 -25.2971 9.31471 10.7035 -25.253 9.42706 11.0353 -25.1869 9.53726 
11.366 -25.1144 9.64776 11.6937 -25.0236 9.75908 12.0201 -24.9281 9.87143 
12.3426 -24.8191 9.98683 12.6638 -24.7073 10.1036 12.9812 -24.587 10.2249 
13.2977 -24.4656 10.3476 13.6109 -24.3407 10.4751 13.9234 -24.2159 10.6041 
14.2336 -24.0917 10.7376 14.5435 -23.9683 10.8722 14.8518 -23.8481 11.0106 
15.16 -23.7291 11.1497 15.4673 -23.6146 11.2917 15.7746 -23.5014 11.4342 
16.0816 -23.3931 11.5784 16.3888 -23.2859 11.7229 16.6962 -23.1837 11.8683 
17.004 -23.0827 12.0139 17.3128 -22.9869 12.16 17.6222 -22.8926 12.3062 
17.9337 -22.8046 12.4532 18.2459 -22.7183 12.6003 18.5615 -22.6404 12.7488 
18.8778 -22.5646 12.8978 19.1985 -22.4998 13.0496 19.5198 -22.4373 13.2022 
19.8454 -22.3887 13.3595 20.1714 -22.3428 13.5179 20.5002 -22.3135 13.6832 
20.8289 -22.2872 13.8499 21.157 -22.2798 14.026 21.4841 -22.2755 14.2036 
21.8049 -22.2924 14.3925 22.1237 -22.3124 14.583 22.4284 -22.3556 14.7858 
22.7302 -22.4018 14.9901 23.0083 -22.4728 15.2066 23.2826 -22.5468 15.4243 
23.523 -22.6471 15.6527 23.7589 -22.7502 15.8818 23.9512 -22.8806 16.1188 
24.1387 -23.0135 16.3561 24.2749 -23.1741 16.5973 24.4065 -23.3369 16.8386 
24.4822 -23.527 17.0794 24.5538 -23.719 17.3198 24.5693 -23.9369 17.5556 
24.5814 -24.1562 17.7908 24.5413 -24.3987 18.0182 24.4988 -24.6422 18.2451 
24.4118 -24.9046 18.4624 24.3234 -25.1676 18.6791 24.201 -25.4441 18.886 
24.0779 -25.7209 19.0925 23.9333 -26.0046 19.2903 23.7886 -26.2882 19.4878 
23.6359 -26.5717 19.6786 23.4833 -26.8551 19.8693 23.3369 -27.1307 20.0555 
23.1908 -27.4062 20.2418 23.0653 -27.6663 20.4261 22.9399 -27.9264 20.6105 

LINES 2 240
OFFSETS vtktypeint64
0 240 
CONNECTIVITY vtktypeint64
0 1 2 3 4 5 6 7 8 
9 10 11 12 13 14 15 16 17 
18 19 20 21 22 23 24 25 26 
27 28 29 30 31 32 33 34 35 
36 37 38 39 40 41 42 43 44 
45 46 47 48 49 50 51 52 53 
54 55 56 57 58 59 60 61 62 
63 64 65 66 67 68 69 70 71 
72 73 74 75 76 77 78 79 80 
81 82 83 84 85 86 87 88 89 
90 91 92 93 94 95 96 97 98 
99 100 101 102 103 104 105 106 107 
108 109 110 111 112 113 114 115 116 
117 118 119 120 121 122 123 124 125 
126 127 128 129 130 131 132 133 134 
135 136 137 138 139 140 141 142 143 
144 145 146 147 148 149 150 151 152 
153 154 155 156 157 158 159 160 161 
162 163 164 165 166 167 168 169 170 
171 172 173 174 175 176 177 178 179 
180 181 182 183 184 185 186 187 188 
189 190 191 192 193 194 195 196 197 
198 199 200 201 202 203 204 205 206 
207 208 209 210 211 212 213 214 215 
216 217 218 219 220 221 222 223 224 
225 226 227 228 229 230 231 232 233 
234 235 236 237 238 239 
CELL_DATA 1
FIELD FieldData 3
Length 1 1 double
80.535414351 
Tortuosity 1 1 double
0.93574866474 
ClusterLabel 1 1 int
3 
POINT_DATA 240
FIELD FieldData 6
Curvature 1 240 double
0 0.031899330103 0.063798660205 0.053138086098 0.042116834836 0.035243855502 0.0284417868 0.038352173326 0.048694778522 
0.067607310545 0.08681792698 0.10784741563 0.12895667938 0.1479092011 0.16674720554 0.17957898647 0.19203537844 0.19964985195 
0.20691535837 0.22047197941 0.234543328 0.26556782599 0.29814765879 0.33797335363 0.37853705294 0.40420046539 0.42819281762 
0.42534806004 0.41921195881 0.39309035251 0.3643040122 0.32970867049 0.29427549204 0.26249076599 0.23127278983 0.20613906314 
0.18201937802 0.16295461586 0.14479073105 0.12994451806 0.11572866272 0.10386405716 0.092474451564 0.083407907625 0.074839162613 
0.069037976312 0.063864483741 0.061429276647 0.059650117116 0.060040267432 0.06097845392 0.06400324437 0.067582982683 0.074128651742 
0.081503505742 0.093908202748 0.10778904933 0.13053539132 0.15600957804 0.19737422233 0.24385912516 0.31564453776 0.39595821207 
0.49540989921 0.60160338632 0.6693214258 0.72288757649 0.69109509758 0.62654872591 0.5346583212 0.43183030327 0.3507949048 
0.27883976444 0.23009680878 0.19142178867 0.16742335069 0.15004727295 0.14190140951 0.13808577006 0.14130569598 0.14795546002 
0.16126236902 0.17793998434 0.20109441631 0.22765332882 0.25610625821 0.28559228771 0.30553648903 0.32008202441 0.31644575586 
0.30214282903 0.27639200909 0.24367963253 0.21349945092 0.18491489901 0.16685946045 0.1556771931 0.1564115015 0.16520208646 
0.18502206182 0.21256261047 0.25298053046 0.30272987894 0.36584501891 0.43898450248 0.5095481246 0.57811257066 0.61000839862 
0.61245821509 0.57660561909 0.50893255737 0.43693779154 0.36122906124 0.29821908755 0.24649689751 0.20659427191 0.17755802006 
0.15606268719 0.14173740842 0.13217471126 0.12729521934 0.12528780795 0.12620115643 0.12862836672 0.132647742 0.1367304905 
0.14088217127 0.14333035786 0.14386211351 0.14154557779 0.13591466667 0.12731121502 0.11512970533 0.10111905626 0.08483061099 
0.068690611673 0.052741879257 0.042369977106 0.039433848643 0.044023837847 0.058999869434 0.075699727437 0.094862194608 0.11350124022 
0.1313660581 0.1471852355 0.15987066578 0.16942298351 0.17400318784 0.17545326221 0.17175601176 0.16625717704 0.15768746004 
0.14921338227 0.14090834126 0.13418399478 0.13035758825 0.12880390235 0.13157392887 0.13584899081 0.1430964977 0.15079249519 
0.15940847342 0.16715978758 0.17306800204 0.17752710168 0.17877464954 0.17840088795 0.17428910735 0.16927568616 0.16209832754 
0.15443981836 0.14557843276 0.13642050279 0.1264897602 0.11638704157 0.1058167631 0.095009773543 0.083530829969 0.072072461204 
0.060675131035 0.049905245994 0.041082604453 0.033302988495 0.028913205685 0.025476053686 0.02528490297 0.025241803361 0.025728271168 
0.026001859752 0.025475022455 0.024978881476 0.024604246752 0.0244879228 0.025449765549 0.026812533992 0.029943020273 0.033397741335 
0.038365558038 0.043449012756 0.049104875647 0.054798235156 0.06068894529 0.066520340189 0.072018910714 0.07751434526 0.082990963933 
0.08870156114 0.095918395162 0.10346031354 0.11325615014 0.12355307667 0.13760817757 0.15231589778 0.17234497534 0.19295063418 
0.21869747608 0.24459563098 0.27197940447 0.29861604926 0.31710899124 0.33399184451 0.33119583566 0.32693462377 0.3023437196 
0.27713796445 0.24209459349 0.20713922134 0.17384116018 0.14075971254 0.11261705303 0.084628158058 0.061059993625 0.037709750695 
0.022785805901 0.0085728811631 0.035954629661 0.062842236421 0.031421118211 0 
Torsion 1 240 double
0 0 0 -0.35399127676 -0.71098247959 -1.3365198279 -1.9666477087 -1.4362624683 -0.8758639575 
-0.61615303833 -0.366900818 -0.26343593371 -0.16636523083 -0.072257725091 0.021692442747 0.15437817093 0.28948487164 0.46757790039 
0.64876904287 0.75897982247 0.86338311784 0.79469371788 0.71012425414 0.59149575995 0.46939829044 0.38551244253 0.30591201012 
0.25281788583 0.20297453518 0.16522974206 0.12909808994 0.10120175436 0.074493204818 0.057678002094 0.042399629943 0.03942716381 
0.038505682014 0.050036926919 0.063787469652 0.089436403416 0.11734603148 0.15622610858 0.19732243803 0.24137379867 0.28605838029 
0.3117050546 0.33303385303 0.32068634731 0.3002705604 0.26546877212 0.2270326256 0.19382718432 0.16201288805 0.13515949182 
0.10969301388 0.085920937062 0.062646130137 0.042663813696 0.023694571252 0.011349887965 0.0011397848509 -0.005089177111 -0.0099761813811 
-0.010248714867 -0.0088956961437 -0.0058638570968 -0.0022145209192 0.0031919323223 0.0092726281582 0.019526857814 0.031450500999 0.046179160886 
0.062076577733 0.075667253107 0.088257414108 0.089682226749 0.086069016351 0.064219165094 0.033813852695 -0.010651406662 -0.061970890161 
-0.11486360454 -0.16855289151 -0.20977870094 -0.24445319525 -0.26630404234 -0.28116017276 -0.29490218652 -0.3080138448 -0.33199244946 
-0.36234632934 -0.41207876668 -0.47359546193 -0.54729873728 -0.62868122749 -0.67034350665 -0.68607731472 -0.63687956202 -0.54378441612 
-0.4458337867 -0.34448431882 -0.26261981048 -0.19487483804 -0.14346991156 -0.10432001957 -0.076640347129 -0.05786293465 -0.046322669782 
-0.040594053755 -0.03940518498 -0.041987798536 -0.04763972702 -0.055929348019 -0.064614518532 -0.073651288612 -0.07872848346 -0.08016542366 
-0.074237439834 -0.061306741359 -0.041668972242 -0.015435916993 0.012472401595 0.042084377815 0.068656752275 0.092032304195 0.11176919357 
0.12754823949 0.14143886004 0.15320500207 0.16639042131 0.18122736313 0.2037874287 0.23564384696 0.29333136579 0.38318591552 
0.58759943243 0.93961777244 1.2175371503 1.3966579119 1.2876631584 0.78106899378 0.42218616854 0.27431954235 0.1622672584 
0.10319035568 0.05271620346 0.015420732866 -0.020246143735 -0.053328512477 -0.088214010427 -0.12606465419 -0.16735732783 -0.21451709786 
-0.262138465 -0.31057567822 -0.34935624177 -0.3704329476 -0.37419198913 -0.34500523025 -0.30718345959 -0.25230754067 -0.19828034275 
-0.14599411098 -0.096918879836 -0.054688150025 -0.014544283802 0.020974641497 0.05553550925 0.087887522107 0.11900184424 0.14714570863 
0.17245569103 0.19068096844 0.20704317813 0.2185501204 0.22996128872 0.24111207164 0.25604834075 0.28173050616 0.31894990343 
0.3903964219 0.4797625486 0.62474125257 0.75816772495 0.85404944472 0.89260681953 0.73583679668 0.58785845548 0.47132728325 
0.37185331655 0.33651444264 0.30207871394 0.27121793502 0.23551839503 0.17962228706 0.12289163326 0.062481391025 0.0040145408178 
-0.045383146586 -0.090806694371 -0.11655825105 -0.13964028503 -0.14867219952 -0.15787733394 -0.16805442454 -0.17696636925 -0.17828743861 
-0.17788266322 -0.16636776231 -0.1538225071 -0.13413346198 -0.11418050406 -0.092248200065 -0.07060377041 -0.05130662383 -0.032425415875 
-0.017252993997 -0.0024754008485 0.0084256920558 0.019047081357 0.026619701388 0.033863976466 0.037095146582 0.040163060357 0.040965792415 
0.041746068559 0.042167050074 0.042439735886 0.039919519289 0.037443060983 0.035964291716 0.035312587889 0.058439015513 0.10316345049 
0.98301083639 1.8326058431 0.91243666447 0 0 0 
FrenetTangent 3 240 double
-0.42165981987 -0.87549804668 0.23602153834 -0.42165981987 -0.87549804668 0.23602153834 -0.42165981987 -0.87549804668 0.23602153834 
-0.40511356867 -0.88316892173 0.23569995527 -0.38842709501 -0.89090480419 0.23537564691 -0.38044190269 -0.89566464697 0.23007679132 
-0.37260545022 -0.90037361728 0.22469290074 -0.37457481924 -0.90200517244 0.21439070367 -0.37679778708 -0.90355713927 0.20396130901 
-0.38932140224 -0.90124086363 0.18920010846 -0.40220330078 -0.89879004043 0.17428823641 -0.42474390809 -0.89124036103 0.15605019725 
-0.44770814297 -0.88346704759 0.13766627358 -0.47787117335 -0.86974864126 0.11656023006 -0.50841644066 -0.85571456629 0.095309649211 
-0.54145455507 -0.83651107095 0.07034902707 -0.57464847242 -0.81698448683 0.045156527349 -0.60400815997 -0.79537300246 0.013158893058 
-0.63309150662 -0.77361125501 -0.019329201382 -0.65155331161 -0.75424659875 -0.062779762345 -0.66914608138 -0.73507806814 -0.10712725239 
-0.66939230686 -0.72178238185 -0.16512589917 -0.66804710627 -0.70902548861 -0.22437694565 -0.64335529125 -0.70217082701 -0.29514178452 
-0.61628558032 -0.69591731863 -0.36707932447 -0.56375133145 -0.69172802638 -0.44162723559 -0.50836124655 -0.687770235 -0.51646789862 
-0.43324906567 -0.68098379738 -0.58174732683 -0.35571813717 -0.67385045033 -0.64585415077 -0.27041553691 -0.66151128414 -0.69263150899 
-0.18407671375 -0.64847800873 -0.73709827177 -0.10111648043 -0.63095049549 -0.76420267536 -0.018643543716 -0.61277477487 -0.78880289254 
0.054618911714 -0.59213224267 -0.80047637085 0.12645061277 -0.57110651644 -0.81014181206 0.18790051165 -0.54957427897 -0.81159168258 
0.24762011017 -0.52795762295 -0.81167229132 0.29796777977 -0.50746323473 -0.80679992192 0.34664520461 -0.48716885463 -0.80104484354 
0.38744342408 -0.46938798924 -0.79225398278 0.42674459453 -0.45208469166 -0.78288632337 0.45952381947 -0.4384305319 -0.77158976458 
0.49098547967 -0.42551357171 -0.75990352915 0.51711487513 -0.41692120582 -0.74694821518 0.54210164243 -0.40925553872 -0.73372095581 
0.56287621137 -0.40594342141 -0.71957812446 0.58269543636 -0.40361870713 -0.70522763759 0.59939118253 -0.40511805243 -0.6900196105 
0.61533859524 -0.40753357867 -0.67460613105 0.62914712465 -0.41305524047 -0.6580867466 0.6424153046 -0.41936161019 -0.64128797563 
0.65433521457 -0.42833300305 -0.62274364216 0.6658965421 -0.43801317866 -0.60373506336 0.67666273233 -0.45047366699 -0.58174471574 
0.6872066261 -0.46371144703 -0.55892075534 0.69727092639 -0.48033860587 -0.53090906922 0.70719447641 -0.4979604737 -0.50137489839 
0.71651433003 -0.51977142498 -0.46285775691 0.7256484309 -0.54287132502 -0.42157662446 0.73274855569 -0.57044628745 -0.36504627259 
0.7391932882 -0.59946321442 -0.30360228334 0.73854168451 -0.63072198688 -0.21780955527 0.7354980574 -0.66273643758 -0.12380938715 
0.7135213004 -0.68724063699 0.0012839260029 0.6848749181 -0.70909917968 0.13733050616 0.62413841282 -0.70527930127 0.29031442115 
0.55159864391 -0.69201448637 0.44952816045 0.45607609517 -0.64838865277 0.58604842587 0.35173457277 -0.59311266084 0.71386073038 
0.25137161728 -0.52796639546 0.80009648659 0.15260008855 -0.45887202069 0.86970162349 0.069488595466 -0.39652562131 0.91024381371 
-0.0070978827715 -0.33699087832 0.93867644282 -0.070829566227 -0.28707862862 0.95263312981 -0.12898567604 -0.24133999046 0.96031109493 
-0.17972637937 -0.2026917651 0.96094957797 -0.2271211066 -0.16724287234 0.95841170934 -0.27124794271 -0.13545281749 0.95160388278 
-0.3138416941 -0.10537925452 0.94279286608 -0.35569721197 -0.075342428302 0.93019322564 -0.397192841 -0.045323511261 0.91574663113 
-0.43885081687 -0.011312401256 0.89675141148 -0.48059099367 0.024720072274 0.8754530905 -0.52115385512 0.069000053769 0.84811632679 
-0.56109787131 0.11761526381 0.81760550986 -0.59539051795 0.17700482495 0.77976068089 -0.62660059938 0.24227130487 0.73791548171 
-0.64545516053 0.31553178632 0.69000384648 -0.65731909837 0.3933151897 0.63865988558 -0.6529079928 0.47037781997 0.58727245689 
-0.63894886177 0.54701759669 0.5358595271 -0.61191805732 0.61434254148 0.4924710121 -0.57693826229 0.67600306146 0.4539622088 
-0.53567678077 0.72544016214 0.42810378636 -0.49045697626 0.76717483423 0.41021683681 -0.44364702347 0.79780610763 0.40529481451 
-0.39579905722 0.82118932911 0.40883600862 -0.34756214459 0.8348617415 0.42395632977 -0.29906228229 0.84196909987 0.44690479315 
-0.24894547887 0.83892307583 0.48018990365 -0.19769681667 0.82876968411 0.52071066714 -0.14220922662 0.80503586869 0.57034984768 
-0.083649949736 0.77146116654 0.62659657682 -0.018355212773 0.71740333873 0.68808484919 0.051991119248 0.64798316666 0.75350427898 
0.12737014704 0.55174871195 0.8128119442 0.20665514766 0.4347031722 0.86737615034 0.2809919571 0.29824970665 0.89960857699 
0.35135521908 0.14621108856 0.91390790799 0.40645310962 -0.0017332892115 0.90326280567 0.44886899928 -0.14627629811 0.87189463569 
0.47656676663 -0.27136283254 0.8292218153 0.49161614762 -0.37972895921 0.77683406098 0.49797768499 -0.46979601718 0.724502277 
0.49661669469 -0.54359723632 0.67222024443 0.49094819944 -0.60544675272 0.62347731788 0.48131957868 -0.65630841339 0.57798808556 
0.46949019434 -0.70024302294 0.53555854767 0.4555682807 -0.73759125603 0.49603822745 0.44038741162 -0.77100795618 0.45795039702 
0.42396856969 -0.80055864897 0.42127118157 0.40683087607 -0.82768443111 0.38430537196 0.38896214684 -0.85234420242 0.34704811066 
0.3709080216 -0.87502196504 0.30819603302 0.35265891091 -0.89561520128 0.26766664854 0.3348903529 -0.91396503119 0.22501653597 
0.31764450131 -0.92987466473 0.18005966652 0.3017209258 -0.94298092132 0.13361844004 0.28728491088 -0.95293337881 0.085507311894 
0.27498662842 -0.95982980206 0.037674953647 0.26517588921 -0.96317011271 -0.0098330178129 0.25802074803 -0.96393920254 -0.054756573603 
0.25406216003 -0.96161330436 -0.09656925868 0.25280340257 -0.95784962737 -0.13378825725 0.25490669823 -0.95229550884 -0.16528681601 
0.25927691201 -0.94658645083 -0.19095256289 0.26656796261 -0.94067775924 -0.20910295598 0.27544686426 -0.93554397638 -0.22087554679 
0.28644290066 -0.93144340515 -0.22414440122 0.29828870805 -0.92844452415 -0.22090840342 0.31130719941 -0.92696597567 -0.20869570954 
0.32451814445 -0.92623717669 -0.1901344121 0.33800402329 -0.92657944845 -0.16250368097 0.35118719439 -0.92668953409 -0.12912655302 
0.36392261028 -0.92645617777 -0.087249546418 0.37608203818 -0.92466438275 -0.041017894371 0.3873591015 -0.92048519229 0.011884703889 
0.3981384053 -0.91364502008 0.066862320059 0.40812778639 -0.90258198556 0.12513289943 0.41808998165 -0.88854672698 0.18281472251 
0.42800747134 -0.86962381109 0.23952836858 0.43863662026 -0.84825324442 0.2934590517 0.45047882466 -0.82271054573 0.34264604799 
0.46377494938 -0.79556249889 0.38786520093 0.4796407937 -0.76557709249 0.42607142146 0.49745501457 -0.73460794776 0.45999731177 
0.51884125913 -0.70183528274 0.48607593001 0.54231744468 -0.66823572362 0.50803283724 0.5697696155 -0.63306304891 0.52214844057 
0.59900543779 -0.59687682331 0.53245026864 0.63176397174 -0.55868883473 0.53521989058 0.66551023219 -0.51920337902 0.53461144853 
0.70128259828 -0.47705645226 0.52707364444 0.73686441929 -0.43349975206 0.51685097022 0.77204007842 -0.38693800848 0.50090528332 
0.80578021683 -0.33921563591 0.48330570115 0.836338931 -0.2889210586 0.46204072945 0.86456169505 -0.23804230761 0.44037341926 
0.88739879632 -0.18581671173 0.41777849534 0.90758240741 -0.13368761513 0.3959357709 0.92139764204 -0.081790116785 0.37589832517 
0.93275252765 -0.030602281691 0.35737091804 0.93795654074 0.018811395279 0.34261860737 0.94120914239 0.066898189005 0.32963394897 
0.93937624756 0.11152704458 0.32125589953 0.9362531406 0.15431046935 0.31452863207 0.92962226939 0.19207662914 0.3122894281 
0.92239447492 0.2276301474 0.31135674868 0.9134721886 0.25690261876 0.31413291312 0.90457182168 0.28379463252 0.31778066376 
0.89573648233 0.30362462211 0.32401412011 0.8873216695 0.32122982185 0.33071454744 0.88021193895 0.33193050137 0.33886419508 
0.87367954628 0.34079570096 0.34712914886 0.86902350175 0.34369559073 0.35576884766 0.86490858839 0.34528902908 0.36424957995 
0.86263752939 0.34243085521 0.37218864858 0.86074911294 0.33883621795 0.37982739554 0.86022937948 0.33260730778 0.38639191503 
0.85995356483 0.32607498569 0.3925861178 0.86059488494 0.31840183481 0.3973879297 0.86139748853 0.31064483676 0.40182863235 
0.86283850585 0.30255594369 0.40483994425 0.8643976795 0.29437630413 0.40759182008 0.86645002741 0.28581789654 0.40926083235 
0.86861189312 0.27698412348 0.41079978845 0.87125663277 0.26693623897 0.41176531508 0.87399538296 0.25637764592 0.41272856512 
0.87717284901 0.24343574635 0.41368119107 0.88035764454 0.22983981449 0.41479165507 0.88357872099 0.21300642285 0.41668341734 
0.88666238953 0.19549561272 0.41889618502 0.88902285853 0.17441944207 0.42279845482 0.89108956813 0.15274234005 0.42713005895 
0.89150796115 0.12769334529 0.43387070569 0.89146722197 0.10218803838 0.44113519556 0.88867168955 0.073944858664 0.45154274426 
0.8852673013 0.045326628943 0.46253260691 0.87794340367 0.014294014847 0.47727111572 0.86985859622 -0.01711566281 0.49259223865 
0.85649814746 -0.051139647826 0.51195281952 0.84218671425 -0.085608133445 0.5318334584 0.82074289765 -0.12341037358 0.55561453248 
0.79808040305 -0.16176996092 0.57977706205 0.76548099552 -0.20467407161 0.60704992106 0.73134422934 -0.24817169133 0.63442442008 
0.6834993485 -0.29696143323 0.6627052091 0.63390771788 -0.34616998612 0.69060247313 0.5671661803 -0.39949050142 0.71473421901 
0.49887019451 -0.45276703248 0.73788856619 0.41363072332 -0.50556413527 0.75038926755 0.32764257846 -0.55772959441 0.7615591893 
0.23250397775 -0.60217496448 0.75646402683 0.13768437681 -0.64566857136 0.75027283816 0.047290897786 -0.67595646387 0.72887428598 
-0.042116030854 -0.70542803073 0.7069971871 -0.11573815337 -0.72183838723 0.67746334099 -0.18831770744 -0.73777773121 0.64796339774 
-0.24126222252 -0.74484633929 0.61910195832 -0.29341169618 -0.75171417158 0.59050598864 -0.32743422568 -0.75400431616 0.56796272887 
-0.36092438384 -0.7562350188 0.54571770327 -0.37910886572 -0.7567567659 0.53204690981 -0.39694231776 -0.75727381085 0.5186246544 
-0.4012026158 -0.75760903913 0.51481253721 -0.40522117528 -0.75794734116 0.5111815377 -0.3950980293 -0.75846545775 0.51814592328 
-0.38505995177 -0.75897922041 0.52505178461 -0.38505995177 -0.75897922041 0.52505178461 -0.38505995177 -0.75897922041 0.52505178461 

FrenetNormal 3 240 double
0.90662599612 -0.41144276546 0.093510180812 0.90662599612 -0.41144276546 0.093510180812 0.90662599612 -0.41144276546 0.093510180812 
0.89235682629 -0.4232072061 -0.051573493564 0.87796673129 -0.43507134539 -0.1978866906 0.60548268294 -0.39459747986 -0.53254430013 
0.32858677213 -0.35322894758 -0.87042147227 -0.080567361839 -0.17286427778 -0.87060464946 -0.4931419671 0.011095119714 -0.86205436127 
-0.60937642962 0.10218358838 -0.76788193825 -0.71530340892 0.19004176387 -0.67073135402 -0.74525810984 0.24781758661 -0.61329868439 
-0.7718806933 0.30427400791 -0.55760802857 -0.76660463462 0.34929386924 -0.53657110897 -0.75963484272 0.39370647959 -0.51737421077 
-0.72291942958 0.42217431279 -0.54408182848 -0.68434491512 0.44964559742 -0.57365847844 -0.59839515165 0.44357565738 -0.65553061395 
-0.50903095583 0.43508833178 -0.74117179347 -0.35243580201 0.37399691973 -0.83453462398 -0.19033993344 0.30860153698 -0.92852922594 
-0.0087446166909 0.22639178399 -0.95272424294 0.17463964026 0.14263942824 -0.97051562828 0.3220589049 0.095480735956 -0.92861741966 
0.46581506847 0.052049176067 -0.88063971535 0.5742118638 0.047363539989 -0.80704933827 0.67864312251 0.04702324116 -0.73058651192 
0.75415401856 0.069040230918 -0.6424410822 0.82611807767 0.093799152295 -0.55286288038 0.87109396197 0.12794010399 -0.46228215384 
0.91247142295 0.16333199305 -0.37156775733 0.93177581941 0.20040716008 -0.28875361172 0.94789660078 0.23772510758 -0.20707892537 
0.94930681263 0.27254672633 -0.13683627572 0.94843188746 0.30698056585 -0.068369476435 0.9399313425 0.33520768829 -0.0093745431695 
0.93015986091 0.36240035788 0.048041745759 0.9183108163 0.37883140377 0.10087148482 0.90609151293 0.39334453652 0.15288381896 
0.89517805391 0.39175825667 0.20566711258 0.88451270532 0.38711308843 0.25859688851 0.87511445913 0.35932712653 0.31698779701 
0.86597219324 0.32686625681 0.37648196462 0.85180784811 0.26517444958 0.44166762994 0.83656734315 0.19721887003 0.50807290192 
0.80558896645 0.10513802342 0.57081269878 0.77104117554 0.0075854667603 0.63272115077 0.7197908577 -0.090117071909 0.67815304576 
0.6645388928 -0.18785554377 0.7196374323 0.60545625408 -0.26439570539 0.74478978395 0.5454058662 -0.33558050443 0.76581614785 
0.489519438 -0.38509769168 0.77923967965 0.43474044588 -0.42885221622 0.79064118163 0.38432598176 -0.4565571415 0.80057776986 
0.33513170826 -0.47977508204 0.81010481231 0.28957853249 -0.48820990364 0.82203229039 0.24509393976 -0.49230620119 0.83466424414 
0.20110947429 -0.48128103554 0.85178466553 0.15727889414 -0.46560311197 0.87028615388 0.10731553721 -0.43322650661 0.89240143155 
0.05537606332 -0.39546921489 0.91568115245 -0.01201733885 -0.33741521771 0.93632220122 -0.084619930327 -0.27251963442 0.95607380995 
-0.17587045201 -0.18080582088 0.95800817024 -0.27369013092 -0.079644676227 0.95366599984 -0.37789848966 0.039878787992 0.90931282777 
-0.48445670765 0.16615620883 0.85024296543 -0.56901225218 0.28147134598 0.7542307084 -0.64512491038 0.39258002542 0.64404288132 
-0.69260177776 0.47179104768 0.52892473942 -0.72862432882 0.53824300707 0.4118344716 -0.75015711352 0.57660670344 0.3084551814 
-0.76565249557 0.60326695688 0.21078879854 -0.77774969812 0.61104485565 0.1263187331 -0.78837299149 0.61063281746 0.047572371591 
-0.79701132741 0.60001884908 -0.022499539359 -0.80475401179 0.58480157075 -0.088657368958 -0.80532874841 0.57135025176 -0.14822563508 
-0.80254074412 0.55872740752 -0.20470250105 -0.78628193171 0.56037068089 -0.2552788214 -0.76345610035 0.56896868658 -0.30297862577 
-0.72236942989 0.59469479877 -0.34601489353 -0.67203676494 0.62909336994 -0.38668987693 -0.60002972352 0.67192671614 -0.42339845916 
-0.51662974062 0.71919372613 -0.45802213822 -0.41417011904 0.75933801063 -0.48864994285 -0.3013143309 0.79559717212 -0.51709817961 
-0.17527808637 0.8155412588 -0.53692171782 -0.041784478348 0.82625444789 -0.55186549238 0.097313251752 0.81968299407 -0.5482852496 
0.23969873347 0.8029712164 -0.5338375833 0.38122116952 0.77096848192 -0.48785826596 0.52221878049 0.72966719262 -0.42270429593 
0.65150797214 0.66592898486 -0.31281347157 0.77341925574 0.58805244492 -0.17473230063 0.85153788312 0.47617000027 -0.0050129766078 
0.9010696377 0.3420892567 0.18535903068 0.89628684479 0.19706778324 0.34642387284 0.8547843578 0.044649760015 0.48767542028 
0.80100007433 -0.091941642901 0.57566214892 0.73861853332 -0.2174544116 0.62636350441 0.68700434801 -0.33099344748 0.63840312481 
0.64319259435 -0.43585586537 0.62242699514 0.60598167636 -0.53694895656 0.5759716205 0.57372138513 -0.63521505272 0.50665681214 
0.53633174144 -0.72559246238 0.40849423095 0.49496110777 -0.80984730939 0.28794233355 0.44116183165 -0.87155925682 0.15115382002 
0.37738197902 -0.91516857276 0.0013268117254 0.30673467093 -0.93131691399 -0.13981154438 0.23038209217 -0.9246515224 -0.27373163559 
0.15585500718 -0.90308676992 -0.38510468538 0.082896705889 -0.86871787919 -0.47710137145 0.013958398006 -0.83168513807 -0.54888626473 
-0.051406582402 -0.79228452995 -0.60270511996 -0.11328854965 -0.75432301829 -0.6432943528 -0.17196839189 -0.71768454692 -0.67172086827 