# vtk DataFile Version 5.1
vtk output
ASCII
DATASET POLYDATA
POINTS 240 float
0 0 0 -0.0816675 -0.313836 -0.154336 -0.163335 -0.627672 -0.308673 
-0.27763 -0.913626 -0.359349 -0.392201 -1.19934 -0.409147 -0.53324 -1.46242 -0.374062 
-0.674731 -1.72511 -0.337527 -0.836522 -1.97029 -0.234758 -0.998839 -2.21503 -0.130276 
-1.1751 -2.44726 0.021686 -1.35184 -2.67905 0.1753 -1.53572 -2.90299 0.357353 
-1.71992 -3.12659 0.540653 -1.90375 -3.34637 0.73319 -2.08757 -3.56595 0.926217 
-2.26283 -3.78465 1.1097 -2.43756 -4.0033 1.29259 -2.59507 -4.22265 1.4486 
-2.75135 -4.44204 1.60268 -2.88193 -4.66217 1.71529 -3.01042 -4.88236 1.82451 
-3.10583 -5.10208 1.88176 -3.19821 -5.32175 1.93425 -3.25229 -5.53909 1.9295 
-3.30246 -5.7562 1.91891 -3.31201 -5.96932 1.85135 -3.31701 -6.18199 1.7774 
-3.28235 -6.39012 1.65213 -3.24283 -6.59769 1.52057 -3.16778 -6.80189 1.34774 
-3.08799 -7.00564 1.16941 -2.9793 -7.20895 0.962766 -2.86644 -7.4122 0.752038 
-2.73302 -7.61914 0.527213 -2.59642 -7.82666 0.300197 -2.44857 -8.04203 0.0730801 
-2.29886 -8.2587 -0.154053 -2.14748 -8.48613 -0.368586 -1.99581 -8.71547 -0.580873 
-1.85184 -8.95611 -0.76975 -1.70933 -9.1989 -0.95418 -1.58323 -9.45065 -1.10653 
-1.46044 -9.70421 -1.2524 -1.36171 -9.96172 -1.3597 -1.26813 -10.2201 -1.45874 
-1.20479 -10.4754 -1.51506 -1.1483 -10.7299 -1.56169 -1.12626 -10.9736 -1.56409 
-1.11248 -11.2147 -1.5559 -1.135 -11.4372 -1.50485 -1.1667 -11.655 -1.44298 
-1.23389 -11.8478 -1.34253 -1.31053 -12.0341 -1.23181 -1.41907 -12.1909 -1.08915 
-1.53653 -12.3396 -0.93755 -1.67964 -12.4567 -0.761963 -1.83028 -12.5645 -0.579337 
-1.99813 -12.6407 -0.380821 -2.17127 -12.7072 -0.177414 -2.35185 -12.7438 0.0347031 
-2.53483 -12.7708 0.249627 -2.7154 -12.7705 0.467671 -2.89516 -12.7611 0.686766 
-3.06401 -12.7273 0.905262 -3.22901 -12.6849 1.12355 -3.37718 -12.6207 1.33935 
-3.51917 -12.5484 1.55423 -3.64165 -12.4562 1.76626 -3.75666 -12.3563 1.9772 
-3.85268 -12.2383 2.18615 -3.9411 -12.1131 2.39431 -4.01338 -11.9723 2.60223 
-4.07893 -11.8252 2.81006 -4.13221 -11.6669 3.0199 -4.18017 -11.5039 3.23063 
-4.21953 -11.3361 3.44569 -4.25499 -11.1661 3.66271 -4.2845 -10.9997 3.88586 
-4.3112 -10.8349 4.11187 -4.33323 -10.6828 4.34472 -4.35298 -10.537 4.5809 
-4.36804 -10.4126 4.82314 -4.38073 -10.299 5.06847 -4.38751 -10.214 5.31756 
-4.39118 -10.144 5.56863 -4.38682 -10.107 5.8199 -4.37809 -10.0879 6.07127 
-4.35862 -10.1035 6.31862 -4.33308 -10.1387 6.56369 -4.29413 -10.2072 6.80057 
-4.24731 -10.2954 7.03265 -4.18521 -10.4134 7.25331 -4.11381 -10.5497 7.46703 
-4.02683 -10.7108 7.6676 -3.93002 -10.8876 7.85987 -3.81927 -11.0837 8.03903 
-3.69941 -11.2925 8.20961 -3.56911 -11.5151 8.36866 -3.43174 -11.747 8.51993 
-3.28858 -11.988 8.66228 -3.14137 -12.2355 8.7984 -2.99327 -12.4884 8.92853 
-2.84452 -12.7453 9.05431 -2.69907 -13.0053 9.17664 -2.55611 -13.2676 9.29638 
-2.41931 -13.5319 9.41442 -2.28731 -13.7975 9.53113 -2.16281 -14.0648 9.64695 
-2.04433 -14.3334 9.76206 -1.93335 -14.6041 9.87631 -1.82858 -14.8764 9.98984 
-1.73043 -15.1516 10.1021 -1.63797 -15.4294 10.2134 -1.55087 -15.711 10.323 
-1.46855 -15.9961 10.4312 -1.39037 -16.2857 10.5377 -1.316 -16.5796 10.6425 
-1.24474 -16.8783 10.7459 -1.17645 -17.1815 10.8479 -1.11034 -17.4888 10.949 
-1.04639 -17.8002 11.0492 -0.983556 -18.114 11.1495 -0.921871 -18.4302 11.2496 
-0.859817 -18.7459 11.3505 -0.797375 -19.0611 11.4521 -0.732435 -19.372 11.555 
-0.664779 -19.6782 11.659 -0.591866 -19.9756 11.7644 -0.513041 -20.2629 11.8713 
-0.425816 -20.5368 11.9792 -0.328816 -20.795 12.0883 -0.220371 -21.0358 12.1981 
-0.0981499 -21.2557 12.3086 0.0378662 -21.4555 12.4192 0.191061 -21.6303 12.5299 
0.359151 -21.7846 12.6404 0.546431 -21.9122 12.7507 0.748166 -22.0209 12.8608 
0.969175 -22.1041 12.9707 1.20271 -22.1717 13.0809 1.45354 -22.2176 13.1916 
1.71385 -22.2525 13.3035 1.98768 -22.2717 13.4171 2.26742 -22.2848 13.5329 
2.55587 -22.2889 13.6519 2.84676 -22.2912 13.7742 3.14138 -22.2906 13.9014 
3.43564 -22.2912 14.0326 3.72931 -22.2936 14.1702 4.0208 -22.2986 14.312 
4.30868 -22.3078 14.4609 4.5936 -22.3195 14.6137 4.87348 -22.3354 14.7734 
5.15057 -22.3525 14.9363 5.42274 -22.3719 15.1049 5.69292 -22.3907 15.2755 
5.95946 -22.4085 15.4499 6.2251 -22.4239 15.6249 6.48902 -22.4348 15.8009 
6.75304 -22.4415 15.9762 7.01729 -22.4402 16.15 7.28233 -22.4335 16.3218 
7.549 -22.4159 16.4896 7.81664 -22.3921 16.6548 8.08637 -22.3551 16.8144 
8.35674 -22.3115 16.9711 8.62855 -22.2532 17.1217 8.90024 -22.1883 17.2698 
9.17168 -22.108 17.4123 9.44201 -22.0215 17.5533 9.70968 -21.9199 17.6906 
9.97522 -21.8127 17.8276 10.2354 -21.6917 17.9637 10.4928 -21.5662 18.1007 
10.7425 -21.4292 18.2402 10.989 -21.2891 18.3817 11.2266 -21.1407 18.5286 
11.4612 -20.9909 18.6783 11.687 -20.8368 18.8358 11.9106 -20.6827 18.9961 
12.1271 -20.529 19.1651 12.3426 -20.3768 19.3365 12.5548 -20.2295 19.5159 
12.7673 -20.085 19.6968 12.9811 -19.9498 19.8832 13.1968 -19.8183 20.0702 
13.4188 -19.6999 20.2592 13.6439 -19.586 20.4475 13.8799 -19.4883 20.634 
14.1196 -19.3955 20.8191 14.3731 -19.3214 20.9988 14.6302 -19.2525 21.1766 
14.9013 -19.2041 21.3467 15.1752 -19.161 21.5149 15.4602 -19.1402 21.675 
15.7463 -19.1249 21.8335 16.0374 -19.1334 21.985 16.3276 -19.1474 22.1356 
16.6136 -19.1869 22.2819 16.8965 -19.2317 22.4281 17.1639 -19.3031 22.5732 
17.4262 -19.3796 22.7188 17.6613 -19.4831 22.8669 17.8895 -19.5913 23.0158 
18.0795 -19.7256 23.1697 18.2616 -19.8639 23.3248 18.3969 -20.0263 23.4864 
18.5241 -20.1919 23.6492 18.5994 -20.3781 23.8189 18.6671 -20.5666 23.9896 
18.6822 -20.771 24.1668 18.6908 -20.9769 24.3448 18.6505 -21.1933 24.5285 
18.6051 -21.4102 24.7128 18.5179 -21.6316 24.9025 18.427 -21.8528 25.0927 
18.3038 -22.0722 25.2881 18.1784 -22.2909 25.4842 18.0306 -22.502 25.686 
17.8817 -22.7119 25.8885 17.7199 -22.9096 26.0973 17.5577 -23.1061 26.3066 
17.3907 -23.2879 26.5222 17.2239 -23.4686 26.7381 17.0587 -23.6348 26.9588 
16.8939 -23.8003 27.1797 16.736 -23.9548 27.402 16.5787 -24.1091 27.6242 
16.4331 -24.2593 27.8428 16.2882 -24.4098 28.0609 16.16 -24.5659 28.2687 
16.0325 -24.7226 28.4759 15.9269 -24.8968 28.6649 15.822 -25.0718 28.8532 
15.7449 -25.2774 29.0148 15.6683 -25.4838 29.1758 15.6255 -25.7347 29.3011 
15.583 -25.9862 29.4261 15.5804 -26.2963 29.5064 15.5779 -26.6065 29.5866 

LINES 2 240
OFFSETS vtktypeint64
0 240 
CONNECTIVITY vtktypeint64
0 1 2 3 4 5 6 7 8 
9 10 11 12 13 14 15 16 17 
18 19 20 21 22 23 24 25 26 
27 28 29 30 31 32 33 34 35 
36 37 38 39 40 41 42 43 44 
45 46 47 48 49 50 51 52 53 
54 55 56 57 58 59 60 61 62 
63 64 65 66 67 68 69 70 71 
72 73 74 75 76 77 78 79 80 
81 82 83 84 85 86 87 88 89 
90 91 92 93 94 95 96 97 98 
99 100 101 102 103 104 105 106 107 
108 109 110 111 112 113 114 115 116 
117 118 119 120 121 122 123 124 125 
126 127 128 129 130 131 132 133 134 
135 136 137 138 139 140 141 142 143 
144 145 146 147 148 149 150 151 152 
153 154 155 156 157 158 159 160 161 
162 163 164 165 166 167 168 169 170 
171 172 173 174 175 176 177 178 179 
180 181 182 183 184 185 186 187 188 
189 190 191 192 193 194 195 196 197 
198 199 200 201 202 203 204 205 206 
207 208 209 210 211 212 213 214 215 
216 217 218 219 220 221 222 223 224 
225 226 227 228 229 230 231 232 233 
234 235 236 237 238 239 
CELL_DATA 1
FIELD FieldData 3
Length 1 1 double
71.416898108 
Tortuosity 1 1 double
0.67131108059 
ClusterLabel 1 1 int
1 
POINT_DATA 240
FIELD FieldData 6
Curvature 1 240 double
0 0.23239226252 0.46478452503 0.48489671331 0.50320991791 0.44815063821 0.39183712801 0.31860681993 0.24493900846 
0.18686819561 0.12933988706 0.086900544138 0.045122997957 0.039158527805 0.035095636911 0.073358145432 0.11426599142 0.17377179861 
0.2346179994 0.32898358985 0.42609167581 0.54800779666 0.67219988401 0.73451465978 0.79052711677 0.71983455274 0.63493207981 
0.51303248913 0.38659551608 0.29238044527 0.20246162809 0.1451811919 0.092608214507 0.069536474511 0.051047451003 0.062265213788 
0.078434107621 0.10150082321 0.12579685356 0.15419188893 0.18336573525 0.22077227002 0.25984197419 0.31269565093 0.36850303608 
0.43961910001 0.51420723541 0.58692151382 0.65918684732 0.69003458767 0.71041893606 0.67635220026 0.62780379313 0.55888576314 
0.48427299987 0.42020714 0.359236567 0.31498785231 0.27588432478 0.25215671372 0.23338356464 0.22759886807 0.22619230157 
0.23390912835 0.24483987778 0.25731660595 0.27036196997 0.27400363463 0.27403690302 0.25853078131 0.23680890356 0.20507737389 
0.16917515593 0.13515360889 0.10194777453 0.089191331976 0.085662054013 0.10433098655 0.13341389438 0.16938496117 0.20871400545 
0.25120579624 0.29529897765 0.3383849542 0.38094150254 0.41604298302 0.44707806283 0.46166208911 0.46693828247 0.45489879731 
0.43270078076 0.3992817358 0.35903909248 0.31639754312 0.27224435434 0.23068096802 0.19080814719 0.1557487664 0.12394354226 
0.097592426352 0.07505918622 0.060488095212 0.051686677481 0.050083593339 0.053879259391 0.058711538241 0.064348352398 0.06807681373 
0.070272809915 0.070728074901 0.069737193967 0.067689967532 0.064734944181 0.061336099816 0.057542747884 0.053046461316 0.04790392839 
0.042048094796 0.035514040894 0.028023366695 0.019592015869 0.013623008978 0.010158080665 0.015450102206 0.029952019284 0.048091694318 
0.070188228882 0.097649039377 0.13114466029 0.17183450852 0.22089582125 0.27491209814 0.33489268375 0.386367732 0.427250979 
0.44436705876 0.43086005766 0.39845472161 0.34085160563 0.28082479143 0.21745327369 0.16051864701 0.11277957898 0.074305200525 
0.049534842072 0.037385654272 0.044571025771 0.052670626995 0.062221071044 0.068747335074 0.070300503073 0.06891025272 0.062502811995 
0.054916877703 0.045248024548 0.038626143065 0.037590376315 0.041077713801 0.053169981299 0.065584369474 0.078634945988 0.090496916862 
0.09992072232 0.10789736309 0.11278925808 0.11618429626 0.11626197611 0.11542887939 0.1124959367 0.10932265114 0.10557254271 
0.10192437567 0.098531062136 0.095291270147 0.092451564615 0.089475163307 0.086127120358 0.082396841085 0.077581503854 0.072883881337 
0.068535479133 0.065966246536 0.068918574785 0.07399758968 0.085988336174 0.098678911549 0.11375408904 0.12796813191 0.13910196247 
0.14877108762 0.15293292046 0.15581528046 0.15363306049 0.15116460764 0.14750144358 0.14478513326 0.14624358713 0.14978415169 
0.1630412328 0.17882346102 0.20710516741 0.23763547802 0.28000054766 0.32316452773 0.37081128301 0.41573627978 0.44433072552 
0.46746934486 0.45548608174 0.43936826184 0.39458418171 0.34911342314 0.29849257623 0.24900996143 0.20880831625 0.17007230556 
0.14440486918 0.11986570938 0.10640417432 0.093600552414 0.087968184023 0.082390907757 0.07748697969 0.072286198696 0.062966583336 
0.053848972912 0.047963441456 0.043737783102 0.070773068162 0.098855871564 0.15082209316 0.20324435757 0.26877785295 0.33393248907 
0.38443790022 0.43400982448 0.42897276588 0.42220406883 0.21110203442 0 
Torsion 1 240 double
0 0 0 -0.0027997236884 -0.0056231738488 -0.0081501777673 -0.010672114229 -0.018153010005 -0.025762154729 
-0.055967105335 -0.086957997015 -0.40564799962 -0.73695638428 -0.93929640889 -1.134788556 -0.64978322039 -0.12224679214 -0.044938098015 
-7.8249593167e-05 0.01620034587 0.030140475182 0.036373453719 0.041899354204 0.047891843771 0.0539318563 0.067935175813 0.082831576483 
0.1146057587 0.14844985752 0.22682446561 0.31113647493 0.5933206866 0.90404415822 1.4064067613 1.9385385498 1.4091893677 
0.70292669049 0.44389677251 0.26457170269 0.1950687702 0.14643204381 0.12227461102 0.10306249007 0.091547187961 0.081681204178 
0.074801690612 0.068599520806 0.064038347011 0.059870328512 0.055966773639 0.052130030631 0.045151276819 0.037336881836 0.020065042182 
0.00014918573846 -0.034682314083 -0.073891230983 -0.12603276133 -0.18215355736 -0.23357711199 -0.28348711105 -0.29878688147 -0.30242028268 
-0.27079167518 -0.22674122371 -0.1793796406 -0.13080017 -0.10104584233 -0.078515116013 -0.086009965337 -0.10551504491 -0.19449939668 
-0.31243344519 -0.66708505307 -1.1244093373 -1.3267214316 -1.41396705 -1.0856437678 -0.56236223603 -0.28439730755 -0.12602422318 
-0.033701897841 0.025177005203 0.065711108786 0.096602433165 0.11989747437 0.13904908839 0.1519099545 0.16121158168 0.16315053897 
0.16077006327 0.15078091142 0.13616486191 0.11259743766 0.083389421105 0.041743729355 -0.0080210003713 -0.088629475265 -0.19009005957 
-0.36992858178 -0.60463166051 -0.80959309873 -0.99300262352 -0.90581653948 -0.61568374883 -0.37892506434 -0.18359105927 -0.04401747015 
0.050778815247 0.12057002368 0.16958778357 0.19945050181 0.21285185612 0.20428776157 0.17619882359 0.13547948639 0.083148330559 
0.026671641699 -0.03374670152 -0.1707908931 -0.38318383557 -0.93474985481 -1.831237647 -1.7995104667 -0.79155719439 -0.23860256607 
-0.18055874345 -0.13979798526 -0.11848067456 -0.099082664536 -0.081918022576 -0.066673616414 -0.053740605192 -0.041910649724 -0.031454310854 
-0.020350451626 -0.0084122873209 0.0072338227474 0.0278238605 0.061750180621 0.11408057041 0.23188436128 0.44322158227 0.94025024617 
1.8598641694 2.0751463098 1.2114521019 0.56772948585 0.27309222202 0.05004103137 -0.055290838954 -0.17122606308 -0.30523518573 
-0.52815574564 -0.90822210166 -1.1953359538 -1.3120368823 -1.2310474357 -0.7739641049 -0.41800276596 -0.26175736091 -0.13187525793 
-0.056071723296 0.011991834038 0.063557018702 0.11546207638 0.16812036616 0.22181262116 0.2778887404 0.33232713312 0.38283498216 
0.42896474096 0.46414927418 0.49355142132 0.50788431992 0.52504541868 0.54989568663 0.58804239861 0.66393385494 0.7566633442 
0.89934566444 1.0006402846 0.97349031845 0.90632010606 0.7090840935 0.52510828459 0.38631539179 0.26004270526 0.17855383344 
0.099826766212 0.031484084262 -0.037890867388 -0.1113518866 -0.18653414783 -0.26890072355 -0.34698984164 -0.40621926017 -0.45219327774 
-0.43630875751 -0.41318547757 -0.35423033705 -0.29615348125 -0.24269917662 -0.19216344423 -0.15800414502 -0.12631537996 -0.10944981979 
-0.094265294665 -0.08990243262 -0.087420645137 -0.097980974614 -0.11114456066 -0.14383257094 -0.1796833901 -0.24132326624 -0.30508027464 
-0.38771504565 -0.46672759614 -0.51017652703 -0.54732210255 -0.51576110454 -0.48612756642 -0.4800518714 -0.48989380774 -0.72059287907 
-0.9786251463 -1.6739885477 -2.2936707842 -1.4880244142 -0.70621985997 -0.46800870385 -0.23563541202 -0.17110071831 -0.10757981643 
-0.083258865698 -0.05885004558 -0.029300866576 0 0 0 
FrenetTangent 3 240 double
-0.29596037306 -0.90422611631 -0.30786780955 -0.29596037306 -0.90422611631 -0.30786780955 -0.29596037306 -0.90422611631 -0.30786780955 
-0.35866998536 -0.9050411985 -0.16668225265 -0.42191103504 -0.90586318816 -0.024300207975 -0.46052680807 -0.87097340038 0.1023594417 
-0.49872163619 -0.83547315487 0.22875033248 -0.51459004695 -0.79131255776 0.31532249421 -0.52988105037 -0.74692798604 0.40086486122 
-0.53374433344 -0.71297772359 0.45082300929 -0.53721013059 -0.67939039364 0.4995434454 -0.5361530009 -0.66180547618 0.52321351971 
-0.53489749724 -0.64492241892 0.54578489394 -0.53139115289 -0.64441240382 0.54984834795 -0.52776529487 -0.64477175379 0.55292908054 
-0.52111803887 -0.66128431275 0.53903532277 -0.5142819455 -0.67880644726 0.52408065935 -0.50078876089 -0.712442367 0.48873941517 
-0.48681578591 -0.74723964063 0.45192886787 -0.45839637807 -0.79550562211 0.38608229006 -0.42879498935 -0.84487358878 0.31786003702 
-0.3728006009 -0.89357911535 0.21119715305 -0.31438483631 -0.94222386759 0.10100760569 -0.22583094254 -0.95882472428 -0.0367489088 
-0.1342074245 -0.97216185087 -0.17731316994 -0.036070515445 -0.9387616903 -0.30190466614 0.062796867369 -0.9001199648 -0.42470482421 
0.14105447075 -0.84364552066 -0.50380287734 0.21678445967 -0.78498404498 -0.57754123835 0.26876565064 -0.7367197299 -0.61590060377 
0.31758033521 -0.68984170289 -0.64954276977 0.34985344486 -0.66128479151 -0.66231344707 0.37974075043 -0.63537034874 -0.67207381349 
0.39871438419 -0.62674409161 -0.66922763297 0.41599269028 -0.6208033779 -0.6644231539 0.42497475034 -0.62930636353 -0.65034975604 
0.43257410273 -0.64021663238 -0.63473153839 0.43238458144 -0.66263328796 -0.61050457805 0.43080694405 -0.68710058671 -0.58474338633 
0.42051077379 -0.72012914332 -0.54946872336 0.40855808228 -0.75478433892 -0.51238650086 0.38571896927 -0.79469212258 -0.46352954396 
0.36068057919 -0.83566103513 -0.41229385284 0.32126084176 -0.87696526561 -0.34573074493 0.27875938704 -0.91834134994 -0.27588319058 
0.21775429301 -0.95083079246 -0.18731207116 0.15255249728 -0.98130470798 -0.094494369968 0.068248380007 -0.98744056881 0.014781116035 
-0.02063233514 -0.98774543738 0.12799961298 -0.11839884678 -0.95006421255 0.24249331291 -0.21841019121 -0.90278650097 0.35730916937 
-0.30852301559 -0.8233748753 0.45206147616 -0.39600325486 -0.73541699588 0.54147773251 -0.46249387857 -0.63737968939 0.60314445255 
-0.52311643771 -0.53652447856 0.65705323772 -0.56398161111 -0.44180032168 0.69036664158 -0.59904842131 -0.34887549584 0.71763574876 
-0.61938563335 -0.26633844472 0.73418911826 -0.63519066136 -0.18699763197 0.74744533772 -0.63977092444 -0.11617156005 0.75679916785 
-0.64073431884 -0.048089126847 0.76489556142 -0.63182069608 0.015086327861 0.77253655491 -0.6195777417 0.076607744875 0.78002404276 
-0.59753690243 0.13623339381 0.7876943838 -0.57204453554 0.19519121536 0.79542913903 -0.5371973275 0.25327146037 0.80172153916 
-0.49890925834 0.31102891861 0.80748341788 -0.45406455918 0.36593216971 0.80940993222 -0.40670394385 0.41974020178 0.80986473697 
-0.35854209293 0.46648942145 0.80613390652 -0.31005974777 0.51041511615 0.80072882199 -0.26665941368 0.54388301267 0.79416132521 
-0.22537658419 0.5729934933 0.78710948999 -0.19177934064 0.59061755492 0.78319990272 -0.16151560424 0.6032595553 0.78065321818 
-0.13809420332 0.6044122745 0.78433841379 -0.11776019769 0.60038080584 0.79083555533 -0.10173295593 0.58444147849 0.80450014389 
-0.087726171292 0.56291574829 0.82152723846 -0.075125921784 0.52827252318 0.84442179154 -0.063211358152 0.4872345193 0.87017673064 
-0.049847641219 0.43153537781 0.89821905055 -0.03575017578 0.36841287549 0.92741953796 -0.017572990841 0.29049420574 0.95285753486 
0.0027486620399 0.20479806338 0.97631781239 0.02890309352 0.10787834287 0.98862629174 0.0582390406 0.0048366706369 0.99485197207 
0.093142227866 -0.10083066268 0.9846388417 0.13119530103 -0.20798356739 0.96512480528 0.17200880574 -0.30718702225 0.93006828699 
0.21444176364 -0.40172679986 0.88589351267 0.25564756807 -0.48166145738 0.83304851411 0.29610713051 -0.55271462295 0.77493108189 
0.33220749158 -0.60882750154 0.71637036235 0.36556095863 -0.65552595271 0.65753031107 0.39308778454 -0.69098946202 0.60392657473 
0.41681110858 -0.71911905093 0.55374098842 0.43450651961 -0.74051999014 0.5111310977 0.44812672184 -0.75737198308 0.473642804 
0.45612907523 -0.7709912568 0.4437237671 0.46019893441 -0.78234762706 0.41910320996 0.45929232541 -0.79257544067 0.40078403224 
0.45477958005 -0.80198545959 0.3870310715 0.44613473564 -0.81122182205 0.37771980403 0.43439081696 -0.82032794216 0.37173980652 
0.41968102454 -0.82947144982 0.36815561423 0.40266935995 -0.83864397466 0.36643085287 0.38411176323 -0.84777078867 0.36518426631 
0.36431273616 -0.8568608955 0.36432166861 0.34436153687 -0.86576921329 0.36258899854 0.32428391758 -0.87452650636 0.36013349911 
0.3050811032 -0.88296399125 0.3563122579 0.28663007427 -0.891126641 0.35131733233 0.26957390497 -0.89882438335 0.34520678312 
0.2537576109 -0.90610887468 0.33810456845 0.23944789217 -0.91274540465 0.33069150233 0.22652325077 -0.91878622821 0.32299265343 
0.21512891005 -0.92400534844 0.3159284974 0.20518960931 -0.92844317701 0.30946781981 0.19701590503 -0.93192169088 0.30440110061 
0.19057837059 -0.93445687863 0.30070510714 0.18652339955 -0.93586465909 0.29893859551 0.18489137434 -0.93612592367 0.29913426881 
0.18669490921 -0.93501204419 0.30142317293 0.19211170553 -0.93245189251 0.30591357846 0.20246158874 -0.92793953238 0.31251609758 
0.21817728575 -0.92130371746 0.32141600342 0.2406832243 -0.91143172799 0.33233722503 0.27082818459 -0.89791904213 0.34553242688 
0.30949864875 -0.87871351583 0.36016526083 0.35808969924 -0.85288359337 0.37647097578 0.41520824451 -0.81761877041 0.39266190965 
0.48259136683 -0.77099712278 0.40871468114 0.55380232168 -0.71242239293 0.42180640258 0.62978001138 -0.63896269279 0.43121077868 
0.70055875943 -0.55764048357 0.43553228017 0.76463887111 -0.46618773383 0.43330469323 0.81789834722 -0.37696648478 0.42756003747 
0.85673030922 -0.29072057001 0.41712595663 0.88642778332 -0.21407674979 0.40678063531 0.90351966412 -0.15068382007 0.39655780211 
0.9155802648 -0.097981585973 0.38879799774 0.92045332247 -0.060551774178 0.38455680597 0.92292261698 -0.031669320665 0.38344669728 
0.92183634514 -0.015429834612 0.3869679823 0.91935185581 -0.0050712242104 0.39329347686 0.91472541628 -0.0037216148052 0.40391478178 
0.90901761508 -0.0057868452645 0.41645133639 0.9015937399 -0.013271278117 0.432027309 0.89340161135 -0.021853301339 0.44837803909 
0.88394613281 -0.032240250946 0.46600281485 0.87434579003 -0.041726440999 0.48323402931 0.86449851958 -0.049677245447 0.49979440066 
0.85531606532 -0.055363691767 0.51500630559 0.84730863499 -0.057048016742 0.52783487449 0.84061526092 -0.055840258687 0.5386853187 
0.83633098997 -0.049330348411 0.54590920098 0.83353975702 -0.039907270632 0.5508994286 0.83358893783 -0.024942069307 0.55164026443 
0.8347882735 -0.0074678705374 0.55024124268 0.83825916505 0.014961598186 0.54461600222 0.84218845779 0.039263970748 0.53727325905 
0.84705806067 0.067408197335 0.52640743344 0.85156257173 0.096794598995 0.51459482358 0.85528886077 0.12882879489 0.50076406836 
0.85799198166 0.16144808491 0.48690315552 0.85842754072 0.19536407004 0.47297540688 0.85745267771 0.22923519996 0.45996431799 
0.85322600826 0.26300291374 0.44906663908 0.84750616864 0.29619281271 0.43981279205 0.8382027206 0.32799595617 0.43450414155 
0.82760006665 0.35867678341 0.43121998 0.81374939793 0.38655182015 0.43299704085 0.79902778814 0.412767729 0.43677224928 
0.78203645319 0.43465985002 0.44575475145 0.76481283483 0.45444407949 0.4562878967 0.746957696 0.46849747877 0.4710368528 
0.72965381684 0.48014500936 0.48661706579 0.71391480386 0.48496297721 0.50455697573 0.69955620304 0.48731441824 0.52244517281 
0.68929282496 0.4823484964 0.54017995509 0.68106548467 0.47507454815 0.55702553888 0.67915688233 0.46063775936 0.57111154116 
0.67952675934 0.44419918151 0.58366237033 0.68730169424 0.42125478926 0.59122388687 0.69706982893 0.39665926436 0.59688758918 
0.71362960736 0.36643765785 0.59608466524 0.73138928438 0.3349643101 0.59341281761 0.75344090638 0.29901358029 0.5840559737 
0.7756567473 0.26225972781 0.5733110319 0.79849005141 0.22248613412 0.55734684204 0.82056160997 0.18225918324 0.54088905047 
0.83961792572 0.14023769344 0.52247741879 0.85734213427 0.097900192981 0.50455001362 0.86950624323 0.054243691539 0.48864372776 
0.88004583057 0.010157406068 0.47399537823 0.88342275444 -0.035823836255 0.46489338435 0.88488811463 -0.082545926424 0.45752273025 
0.8774328443 -0.13272530653 0.45823166181 0.86754364482 -0.18396279476 0.46081126071 0.84560649606 -0.24043791819 0.47265066297 
0.82037454307 -0.29799991252 0.48612800697 0.77780151523 -0.36128228003 0.50822609691 0.73102950286 -0.42499118132 0.53117374552 
0.6606965217 -0.49109341101 0.55888836216 0.58622969824 -0.55601782618 0.58609310079 0.48695982088 -0.61387535428 0.61023857141 
0.38560863874 -0.66882568978 0.63268958567 0.27085905709 -0.70506097287 0.64423253715 0.15702046046 -0.7380801129 0.65407264354 
0.049498026709 -0.74880066104 0.65210635727 -0.055393766796 -0.75735783158 0.64938324466 -0.14055575842 -0.74968967015 0.64098393448 
-0.22304131386 -0.74100453265 0.63271704698 -0.28370362051 -0.72402712877 0.62552991368 -0.3423429557 -0.70666436033 0.61889084861 
-0.38294412869 -0.68586542449 0.61713872519 -0.42215887129 -0.66492918662 0.61598944397 -0.44776138825 -0.64264489242 0.62075897713 
-0.4724200417 -0.62034939442 0.62598284604 -0.48679058305 -0.59793177495 0.63615897455 -0.50050473409 -0.57564808748 0.64655414517 
-0.50619633684 -0.55500134656 0.65962649713 -0.51140808582 -0.53470807016 0.67267866314 -0.50996186349 -0.51931911397 0.68545074903 
-0.50813520361 -0.50454010711 0.69801017718 -0.50022154285 -0.49952028963 0.70716708164 -0.49194841083 -0.49532018979 0.71596748033 
-0.47690523678 -0.50655810571 0.71805368689 -0.46145062594 -0.5186931293 0.71963454915 -0.43661525614 -0.55128220772 0.70969356132 
-0.41128762267 -0.58461665987 0.69907290344 -0.37180740884 -0.63938060673 0.66891173185 -0.33186445384 -0.69444191928 0.6380039367 
-0.27402884063 -0.76100137121 0.57822669749 -0.21598146953 -0.82736112992 0.51797803602 -0.14554626148 -0.88203883481 0.43015117231 
-0.075702945925 -0.93625706318 0.34306234948 -0.075702945925 -0.93625706318 0.34306234948 -0.075702945925 -0.93625706318 0.34306234948 

FrenetNormal 3 240 double
-0.45915309093 -0.14795583581 0.8759494904 -0.45915309093 -0.14795583581 0.8759494904 -0.45915309093 -0.14795583581 0.8759494904 
-0.40158277376 -0.0070354019003 0.90233359038 -0.34352457254 0.13507927297 0.92894128442 -0.27782730182 0.2545588664 0.91605805239 
-0.21199944871 0.37365153535 0.90249976179 -0.15672743548 0.45005221192 0.87365194923 -0.1017284181 0.52534878524 0.844408718 
-0.05652125185 0.56244717014 0.82260288147 -0.011654671725 0.59821692241 0.80105573692 0.075427440486 0.57732007772 0.80773760486 
0.16436111112 0.55393785597 0.81565758737 0.28133834576 -0.069488468954 0.192935803 0.3998046192 -0.72477554272 -0.46327138493 
0.33346726363 -0.73459711892 -0.57911334787 0.25557968124 -0.70407710153 -0.66118248424 0.26657978625 -0.66472773115 -0.69583423948 
0.28398621107 -0.624742011 -0.72706852581 0.3261764915 -0.55632712527 -0.75901820659 0.37039454194 -0.4855862169 -0.79102641965 
0.42650151951 -0.37036878626 -0.81419205471 0.48369922434 -0.25107094073 -0.83654644409 0.53160657999 -0.09359831416 -0.82473230393 
0.57856769637 0.067762484558 -0.80943803575 0.59978576266 0.21885095397 -0.75217975646 0.61811675792 0.36878738646 -0.69021523293 
0.62424866884 0.46969203946 -0.61177834663 0.62888446565 0.56458336102 -0.5313212649 0.64925559585 0.60897299682 -0.44520936939 
0.67172477049 0.64662907452 -0.3583434987 0.74121974055 0.61101922504 -0.2190603513 0.81749727726 0.56484217452 -0.072217019745 
0.78946348566 0.23489855479 0.24841659571 0.74522599257 -0.1391253087 0.59604676012 0.46990662732 -0.39182143491 0.68759424126 
0.1560736167 -0.62429627158 0.73646127518 0.00016844114236 -0.6717975498 0.72947383849 -0.12759117965 -0.68633324334 0.71253213971 
-0.20939721549 -0.66560793754 0.71213181337 -0.28247207019 -0.63818304186 0.7148743478 -0.34247647728 -0.5901805341 0.72686003013 
-0.39984038991 -0.538020933 0.74071301508 -0.4509607847 -0.46359459336 0.75690416132 -0.50074328282 -0.38439680975 0.77359634214 
-0.5425224327 -0.2786382026 0.78374093834 -0.58248639019 -0.16685549114 0.79240051535 -0.60640025554 -0.0302094554 0.78168619785 
-0.62646878632 0.11239341844 0.76633021812 -0.62142574361 0.26161139281 0.72155151028 -0.61003872444 0.41250055048 0.66933969218 
-0.574572227 0.5418082009 0.59470522112 -0.53270161299 0.66537608876 0.51410727852 -0.47770934791 0.75477425341 0.43130684205 
-0.41904866424 0.83461959222 0.34789065459 -0.3535117474 0.88712103609 0.27892032873 -0.28595680561 0.93159764123 0.2141895492 
-0.20875147037 0.95873271572 0.17169877357 -0.12857678332 0.98053193462 0.13605107605 -0.034974521271 0.98729785441 0.12201377255 
0.062954403829 0.98921971116 0.11493981823 0.16673741194 0.9733437804 0.1173695937 0.27249370646 0.95146859541 0.1230028736 
0.36716679797 0.91743049545 0.11985011428 0.45793557934 0.87910773226 0.11360227297 0.53028270382 0.8392237559 0.090196634651 
0.59585404645 0.7987655402 0.060480082489 0.64642541726 0.75930944226 0.019351934697 0.69124098491 0.72023787788 -0.026155081186 
0.72798226022 0.67893973004 -0.069100420734 0.76149381859 0.63675094881 -0.11102108975 0.79970497867 0.58197004497 -0.13001645312 
0.83987430613 0.52194242339 -0.13945960581 0.89712472936 0.39238530437 -0.075869361051 0.96178382063 0.23267081297 0.019398019948 
0.88076547005 -0.061626834703 0.2026817583 0.73401461521 -0.41665102851 0.42568019449 0.55592745513 -0.61390488286 0.51580230893 
0.36313931235 -0.7371430224 0.54358738354 0.26578893755 -0.80424652359 0.52675191095 0.21496447463 -0.84398438857 0.4881639216 
0.19828824504 -0.87705957013 0.43237379006 0.19890226017 -0.90676124109 0.36787371312 0.21292481635 -0.92970268441 0.28735886861 
0.23399545178 -0.94909067473 0.19842600525 0.25984851647 -0.95498364659 0.096605082508 0.28831017894 -0.95351569928 -0.012245690804 
0.31654380377 -0.9331631214 -0.1255051916 0.34464840731 -0.90212581832 -0.24125910401 0.36740481407 -0.85421929445 -0.35007944138 
0.38702361207 -0.79641616106 -0.4548320814 0.39968877237 -0.73024487094 -0.54486895276 0.4081253692 -0.65898483687 -0.62595704588 
0.40834189063 -0.59065186246 -0.69133848169 0.40337863851 -0.52416333661 -0.74682257182 0.38919152708 -0.46945897475 -0.79045601382 
0.36898328526 -0.42244705329 -0.82635361609 0.32925245007 -0.39698586809 -0.85501997452 0.2763232419 -0.38609419473 -0.87879760474 
0.17434047538 -0.40739888787 -0.88684507369 0.038020218023 -0.45124103757 -0.88388142976 -0.17427751451 -0.50425628628 -0.79693145525 
-0.44163138846 -0.56391870819 -0.6491218209 -0.63765798773 -0.56765441346 -0.4661472843 -0.78018913099 -0.52944508124 -0.25679907101 
-0.85888547178 -0.4904138172 -0.12585827567 -0.88803838378 -0.45074463593 -0.055770998731 -0.90480532291 -0.42406131512 -0.032751819952 
-0.91162595048 -0.40780603378 -0.047529750299 -0.91167665284 -0.39851586607 -0.085704474464 -0.90610310962 -0.39501210046 -0.14331653503 
-0.89316916758 -0.39281998606 -0.20867494158 -0.87390988279 -0.39175507191 -0.2806903642 -0.85028422429 -0.38903688139 -0.34894397255 
-0.8227773447 -0.38484911186 -0.41385374598 -0.80212312548 -0.37762942899 -0.46149268584 -0.78776893274 -0.36762234191 -0.49325360129 