# vtk DataFile Version 5.1
vtk output
ASCII
DATASET POLYDATA
POINTS 240 float
0 0 0 -0.261168 -0.354209 -0.119997 -0.522337 -0.708419 -0.239994 
-0.796228 -1.03417 -0.286909 -1.07023 -1.35968 -0.333205 -1.34931 -1.65792 -0.330622 
-1.62847 -1.9557 -0.327204 -1.9051 -2.22766 -0.298566 -2.18166 -2.49896 -0.269276 
-2.44822 -2.74659 -0.237392 -2.71444 -2.99339 -0.205418 -2.96363 -3.21987 -0.191315 
-3.21207 -3.44545 -0.177995 -3.43748 -3.65562 -0.199288 -3.66165 -3.86497 -0.222419 
-3.8582 -4.0654 -0.291636 -4.05302 -4.26528 -0.363733 -4.21699 -4.46362 -0.487281 
-4.37874 -4.66185 -0.614538 -4.50715 -4.86539 -0.792731 -4.63284 -5.06937 -0.97509 
-4.72274 -5.28321 -1.20288 -4.80936 -5.49796 -1.43485 -4.85741 -5.72355 -1.70316 
-4.90152 -5.95025 -1.97518 -4.9042 -6.1852 -2.27252 -4.90223 -6.42107 -2.57271 
-4.85649 -6.66029 -2.88677 -4.80538 -6.89993 -3.20252 -4.70934 -7.13762 -3.52138 
-4.60732 -7.37505 -3.84065 -4.46079 -7.60674 -4.15393 -4.30784 -7.83761 -4.46635 
-4.11276 -8.06149 -4.76614 -3.91114 -8.2843 -5.06397 -3.67182 -8.50153 -5.34548 
-3.42623 -8.71784 -5.62427 -3.14955 -8.93185 -5.88595 -2.86732 -9.14546 -6.14458 
-2.5626 -9.36069 -6.38739 -2.2536 -9.57623 -6.62719 -1.9321 -9.79678 -6.85294 
-1.60807 -10.0183 -7.07585 -1.28221 -10.2468 -7.28497 -0.955945 -10.4767 -7.49115 
-0.638197 -10.7135 -7.68067 -0.32238 -10.9518 -7.86642 -0.0242998 -11.1947 -8.02876 
0.26953 -11.4388 -8.18548 0.538131 -11.6834 -8.30874 0.800358 -11.9281 -8.42354 
1.03178 -12.168 -8.49358 1.255 -12.4066 -8.55171 1.44355 -12.634 -8.55538 
1.62239 -12.8583 -8.54383 1.76388 -13.0653 -8.47252 1.8944 -13.2672 -8.38367 
1.98556 -13.4469 -8.23574 2.06461 -13.6197 -8.06962 2.1028 -13.7676 -7.85118 
2.12781 -13.9074 -7.61587 2.11111 -14.0223 -7.3396 2.08035 -14.1289 -7.04951 
2.00794 -14.2129 -6.73229 1.92087 -14.289 -6.40551 1.79361 -14.3456 -6.06571 
1.65158 -14.395 -5.72112 1.47239 -14.4268 -5.37616 1.27893 -14.4519 -5.03106 
1.05307 -14.459 -4.69545 0.814248 -14.459 -4.36365 0.549468 -14.438 -4.04769 
0.273873 -14.4084 -3.73834 -0.0197987 -14.3532 -3.44744 -0.32131 -14.2871 -3.16453 
-0.632146 -14.1906 -2.89919 -0.94719 -14.0805 -2.64178 -1.26265 -13.9364 -2.39825 
-1.57831 -13.7764 -2.16123 -1.88606 -13.5815 -1.93254 -2.18994 -13.3695 -1.7079 
-2.47878 -13.1247 -1.48522 -2.75999 -12.8633 -1.26352 -3.02059 -12.5752 -1.03763 
-3.27035 -12.2729 -0.809531 -3.49562 -11.9538 -0.572271 -3.70753 -11.6253 -0.330012 
-3.89272 -11.2928 -0.075586 -4.06279 -10.958 0.185723 -4.20528 -10.634 0.459794 
-4.33157 -10.3163 0.741352 -4.43036 -10.0247 1.03386 -4.51242 -9.74891 1.33302 
-4.56757 -9.51283 1.63942 -4.60576 -9.30175 1.95038 -4.6178 -9.14038 2.26396 
-4.61275 -9.01144 2.57925 -4.58228 -8.93697 2.89286 -4.53462 -8.89932 3.20532 
-4.46226 -8.91491 3.51318 -4.37262 -8.96777 3.81781 -4.25921 -9.06694 4.1169 
-4.12857 -9.19967 4.41197 -3.97568 -9.36743 4.70239 -3.80609 -9.56147 4.98933 
-3.61679 -9.77706 5.27336 -3.41218 -10.0094 5.55514 -3.19182 -10.25 5.83498 
-2.9588 -10.4972 6.11326 -2.71529 -10.7418 6.38805 -2.46306 -10.9841 6.65994 
-2.2064 -11.2164 6.92316 -1.94595 -11.4403 7.17891 -1.68726 -11.6511 7.41718 
-1.43015 -11.8504 7.63992 -1.18046 -12.0374 7.83418 -0.937578 -12.2131 8.00227 
-0.706613 -12.3802 8.13112 -0.486973 -12.539 8.22264 -0.282176 -12.6943 8.26701 
-0.0919766 -12.846 8.26501 0.0821634 -12.9994 8.21272 0.239971 -13.1546 8.1093 
0.382069 -13.3161 7.95796 0.507644 -13.484 7.75623 0.619037 -13.6617 7.51405 
0.715006 -13.8498 7.22786 0.798912 -14.0499 6.91224 0.869249 -14.2633 6.56348 
0.929679 -14.4897 6.19789 0.978584 -14.7312 5.81272 1.01943 -14.9859 5.42332 
1.05056 -15.2563 5.02883 1.07502 -15.5395 4.64163 1.09117 -15.8386 4.26349 
1.10161 -16.1494 3.90242 1.10471 -16.4755 3.56336 1.10281 -16.8119 3.24918 
1.09427 -17.1622 2.96818 1.08146 -17.5209 2.71771 1.06276 -17.8912 2.50938 
1.04079 -18.2674 2.33489 1.01415 -18.6517 2.20875 0.985742 -19.0384 2.11741 
0.954716 -19.4286 2.07757 0.924031 -19.8172 2.07125 0.893866 -20.2034 2.1163 
0.866697 -20.584 2.19172 0.844283 -20.956 2.31532 0.827823 -21.3192 2.46472 
0.821156 -21.668 2.65655 0.823327 -22.006 2.86872 0.840566 -22.3258 3.11557 
0.869039 -22.6345 3.37691 0.917368 -22.9238 3.66387 0.978482 -23.2033 3.95962 
1.06303 -23.465 4.27147 1.16086 -23.7195 4.58703 1.28394 -23.9601 4.90962 
1.41975 -24.1962 5.2319 1.58068 -24.4234 5.55354 1.75296 -24.6484 5.87211 
1.94851 -24.8687 6.18438 2.15366 -25.0878 6.49202 2.37925 -25.3046 6.78982 
2.61277 -25.5201 7.0824 2.86385 -25.7325 7.36341 3.12164 -25.9419 7.6392 
3.3949 -26.1446 7.90299 3.67415 -26.342 8.16189 3.96779 -26.5268 8.4091 
4.26709 -26.7039 8.65193 4.58051 -26.8614 8.88383 4.89925 -27.0092 9.112 
5.23187 -27.1313 9.33045 5.56921 -27.2425 9.54595 5.91944 -27.3238 9.75343 
6.27342 -27.3941 9.95887 6.63806 -27.4332 10.1585 7.00516 -27.4622 10.3571 
7.37956 -27.4615 10.5524 7.75503 -27.4526 10.7476 8.1338 -27.4179 10.9423 
8.51237 -27.3772 11.1376 8.89032 -27.3165 11.3349 9.2672 -27.2518 11.5332 
9.6404 -27.1735 11.7356 10.0121 -27.0929 11.9393 10.3784 -27.0045 12.1481 
10.7433 -26.915 12.3584 11.1028 -26.8217 12.5743 11.4613 -26.7282 12.7914 
11.8156 -26.6334 13.0139 12.1696 -26.5387 13.2375 12.5218 -26.444 13.4653 
12.8743 -26.3496 13.6939 13.2278 -26.2565 13.9255 13.5819 -26.1644 14.1572 
13.9395 -26.0766 14.39 14.298 -25.9909 14.6225 14.6611 -25.9152 14.8536 
15.0249 -25.8432 15.0841 15.3926 -25.7901 15.3105 15.7604 -25.7423 15.5357 
16.1291 -25.7243 15.7543 16.497 -25.7131 15.9714 16.8599 -25.7428 16.1796 
17.2209 -25.7803 16.3861 17.5692 -25.8679 16.5821 17.9145 -25.9636 16.7766 
18.2382 -26.1148 16.9603 18.5579 -26.2735 17.1427 18.8475 -26.4881 17.3157 
19.1326 -26.7091 17.4879 19.3805 -26.9813 17.6539 19.6237 -27.2581 17.8196 
19.8253 -27.5768 17.9839 20.0226 -27.8985 18.1486 20.1771 -28.2498 18.3177 
20.3277 -28.6026 18.4877 20.4372 -28.9718 18.6677 20.5436 -29.3413 18.8489 
20.6128 -29.7154 19.0445 20.6797 -30.0891 19.2412 20.7143 -30.4579 19.4543 
20.7472 -30.8259 19.6684 20.7524 -31.1829 19.8978 20.7562 -31.5392 20.1278 
20.7347 -31.8813 20.3694 20.712 -32.2228 20.6113 20.6637 -32.5494 20.8589 
20.6143 -32.8756 21.1064 20.5362 -33.1877 21.3522 20.4572 -33.4995 21.5978 
20.3443 -33.7986 21.8337 20.2308 -34.0976 22.0692 20.0772 -34.3859 22.2867 
19.9233 -34.6741 22.5039 19.7228 -34.9535 22.6943 19.5223 -35.233 22.8848 

LINES 2 240
OFFSETS vtktypeint64
0 240 
CONNECTIVITY vtktypeint64
0 1 2 3 4 5 6 7 8 
9 10 11 12 13 14 15 16 17 
18 19 20 21 22 23 24 25 26 
27 28 29 30 31 32 33 34 35 
36 37 38 39 40 41 42 43 44 
45 46 47 48 49 50 51 52 53 
54 55 56 57 58 59 60 61 62 
63 64 65 66 67 68 69 70 71 
72 73 74 75 76 77 78 79 80 
81 82 83 84 85 86 87 88 89 
90 91 92 93 94 95 96 97 98 
99 100 101 102 103 104 105 106 107 
108 109 110 111 112 113 114 115 116 
117 118 119 120 121 122 123 124 125 
126 127 128 129 130 131 132 133 134 
135 136 137 138 139 140 141 142 143 
144 145 146 147 148 149 150 151 152 
153 154 155 156 157 158 159 160 161 
162 163 164 165 166 167 168 169 170 
171 172 173 174 175 176 177 178 179 
180 181 182 183 184 185 186 187 188 
189 190 191 192 193 194 195 196 197 
198 199 200 201 202 203 204 205 206 
207 208 209 210 211 212 213 214 215 
216 217 218 219 220 221 222 223 224 
225 226 227 228 229 230 231 232 233 
234 235 236 237 238 239 
CELL_DATA 1
FIELD FieldData 3
Length 1 1 double
95.150878833 
Tortuosity 1 1 double
1.0538931241 
ClusterLabel 1 1 int
1 
POINT_DATA 240
FIELD FieldData 6
Curvature 1 240 double
0 0.095898698758 0.19179739752 0.17325589673 0.15374456374 0.12674037393 0.099608101092 0.070638755965 0.041621900349 
0.054825719902 0.069498084679 0.12238517687 0.17694835359 0.24070484997 0.30494948722 0.34845998671 0.3906746026 0.38560681097 
0.37713127827 0.33948922381 0.29946081756 0.2626001785 0.22603016028 0.20291148397 0.18116285174 0.16992697333 0.15987009535 
0.15568963318 0.15222986352 0.15088387358 0.14981972094 0.14752639082 0.14505577549 0.13899662864 0.13238004 0.12171333095 
0.11037160183 0.096893955665 0.08303565102 0.070684963699 0.058620723669 0.052199377211 0.046918009253 0.049130451078 0.052948709285 
0.063053313408 0.074583686708 0.094881583537 0.11728003288 0.15697452328 0.20103853985 0.27483981556 0.35654993679 0.46817284761 
0.5881584738 0.6773887689 0.75759304292 0.73706153074 0.68553439203 0.59160415703 0.48401070211 0.39849367629 0.32041814342 
0.26946433449 0.22806476921 0.20279646958 0.18346150905 0.17183814328 0.16317387783 0.1578426601 0.15384466147 0.15142653413 
0.1496666865 0.14900846334 0.1488280532 0.14898786773 0.14930119827 0.14861418932 0.14745788531 0.14439097007 0.14039263185 
0.13489636027 0.12864164141 0.12251801747 0.1164633024 0.11292834843 0.1107678096 0.11345814486 0.11889305361 0.1315932217 
0.14855567525 0.17597775299 0.20976041299 0.25673399147 0.31201965555 0.37223238653 0.43566139728 0.47218647275 0.49052297225 
0.46583026703 0.41101711849 0.34387357136 0.26779495279 0.20380091664 0.14887031731 0.10877387822 0.0801905187 0.063313862982 
0.055838045161 0.053335266105 0.054963934638 0.059349604118 0.066104571285 0.084395253722 0.11293990529 0.17035397196 0.2543092751 
0.38555016835 0.56175113089 0.72137289174 0.8646917709 0.87117242669 0.73849556718 0.58410044873 0.40686371311 0.27274915229 
0.18553941318 0.12387502303 0.090949150468 0.070759830518 0.065391226341 0.065911910416 0.073521552573 0.083800226659 0.097402600882 
0.1132841729 0.13210240361 0.15280893131 0.17603318833 0.19946035295 0.22316753006 0.24402319605 0.26080527472 0.27244263066 
0.27647008422 0.27587000379 0.26818093516 0.25824174434 0.24473170744 0.23074647673 0.21597981618 0.20133916229 0.18691329249 
0.17291403002 0.15966877122 0.14708196373 0.13570231697 0.12532454972 0.11685279715 0.10921878112 0.10323929478 0.097690747044 
0.093026175938 0.088650430838 0.084890341171 0.081831955704 0.08032869846 0.08022776627 0.083359972401 0.087950961905 0.096043031506 
0.10447808451 0.11377059602 0.12213202985 0.12806701878 0.13212009241 0.13105670879 0.12839722793 0.12120689035 0.11302960423 
0.10192437078 0.090716250768 0.07918882765 0.068073600196 0.058298008648 0.049200372337 0.042412805725 0.036242739602 0.032281425227 
0.028503315466 0.025414055055 0.022188626899 0.018424201422 0.014761462367 0.011523153597 0.0095543072264 0.013182635983 0.017819665932 
0.027163968113 0.037151045826 0.050319862427 0.064033524296 0.080614792845 0.097644595854 0.11719117556 0.13688600173 0.15747030669 
0.17761418856 0.1949228467 0.21114627638 0.21984545534 0.22717407956 0.22422354312 0.22023938245 0.2078272088 0.19509137971 
0.17946962295 0.16404457277 0.1505508235 0.13738937469 0.12785000105 0.11856869826 0.11244159474 0.10643082874 0.10203424571 
0.097696172859 0.094294262865 0.091003903703 0.089814418562 0.088835886789 0.092667091809 0.096708874409 0.10680476241 0.1170213211 
0.13190381287 0.14679830556 0.16239485213 0.17711614978 0.08855807489 0 
Torsion 1 240 double
0 0 0 0.044667574018 0.089713686799 0.17752480158 0.26606694204 1.1179627206 1.9896004037 
1.5269820401 1.0179547705 0.65034580677 0.2889394003 0.22409119582 0.17498944454 0.16659697549 0.16074883658 0.16984919205 
0.1800269165 0.19269081781 0.2055581336 0.20284457468 0.19870157771 0.17552479233 0.15040938035 0.12454022205 0.098586531447 
0.085136862975 0.07322070665 0.072170237085 0.072568525756 0.078361648525 0.084932872366 0.095184897635 0.10600869788 0.12469639613 
0.14469474405 0.18622635184 0.23159557031 0.318436678 0.41315744463 0.47172363518 0.52298587095 0.40779819456 0.25694267985 
0.11300741513 -0.02935830834 -0.10273903232 -0.15959210017 -0.17022684302 -0.16918537745 -0.14799341312 -0.12144227358 -0.090896929479 
-0.059234926037 -0.031294661896 -0.0044466473322 0.024818184841 0.054826653201 0.093176720869 0.1342146372 0.16842898231 0.20034324724 
0.20207403352 0.19317200346 0.15465066314 0.10523486388 0.043592937285 -0.022740410269 -0.084998452347 -0.14562637223 -0.19491619568 
-0.23948181227 -0.26916493711 -0.29239300529 -0.30210660335 -0.30572220878 -0.303621918 -0.29884009565 -0.29648438016 -0.29531139177 
-0.30144933116 -0.31128900612 -0.32812427622 -0.34863671811 -0.3663103131 -0.38243544613 -0.37989020423 -0.36678146072 -0.33408397736 
-0.2898944333 -0.24038228555 -0.18763341936 -0.13961508284 -0.094577628035 -0.057685597596 -0.026110719177 0.00025184534075 0.02309059201 
0.048731296342 0.076333371039 0.1166011417 0.16604695291 0.24423120818 0.34396929648 0.47459507819 0.62919339804 0.64079493771 
0.53756572966 0.32590254809 0.024155757777 -0.25809987405 -0.52360529156 -0.64139088238 -0.62786996058 -0.54890132924 -0.40976302943 
-0.29968618874 -0.21724155508 -0.16234601752 -0.13454042448 -0.12751773054 -0.14163018823 -0.17562932635 -0.23054376632 -0.31109088727 
-0.41951916999 -0.54346368443 -0.68486395955 -0.72245224589 -0.63924112712 -0.51962075316 -0.35617442388 -0.23271458857 -0.15904925518 
-0.10510013612 -0.076554600922 -0.056098316615 -0.046427700165 -0.040742780202 -0.040558121392 -0.043055988614 -0.049386035881 -0.058108032098 
-0.070368119467 -0.084798866689 -0.10255488007 -0.12169708055 -0.14303909969 -0.1649839176 -0.1879200046 -0.2113912276 -0.23577461422 
-0.26039761163 -0.28544410718 -0.30837743 -0.32743660281 -0.33835393518 -0.33378191258 -0.31846772834 -0.28193777486 -0.23601236117 
-0.17081420859 -0.098698823806 -0.011838812471 0.073735974853 0.15646242788 0.22248974283 0.25001626719 0.26131532641 0.23366846933 
0.20515804082 0.17448868378 0.14778954213 0.13143702243 0.11880865056 0.11630530559 0.11662801991 0.12497309607 0.13630352164 
0.15649048381 0.18053035634 0.21652753688 0.25621135192 0.30787672913 0.35657792242 0.39517893347 0.42181664708 0.40566256598 
0.38394395852 0.34130273193 0.31899884133 0.37719690572 0.53170388036 1.0881958717 1.4391769421 0.88404167945 0.38827074658 
0.16953335264 -0.018207350918 -0.052514437075 -0.081931259943 -0.085609854977 -0.088689274375 -0.088406652704 -0.088116961716 -0.087784854827 
-0.087949080326 -0.091308445575 -0.095228822998 -0.10303888483 -0.11153672264 -0.12519288028 -0.13969823046 -0.16112776608 -0.18298591013 
-0.20866581265 -0.23375636852 -0.25306061177 -0.27055591349 -0.26833375245 -0.26384008511 -0.23158356299 -0.19753883841 -0.13868280481 
-0.078655786254 0.0001069915449 0.078921166816 0.15870332782 0.23649864665 0.268993964 0.29965279759 0.27751272303 0.25499110448 
0.21771645113 0.17955304696 0.089397719582 0 0 0 
FrenetTangent 3 240 double
-0.60748672228 -0.77157481681 -0.18876489162 -0.60748672228 -0.77157481681 -0.18876489162 -0.60748672228 -0.77157481681 -0.18876489162 
-0.63484884344 -0.75941042196 -0.12093657771 -0.66244284697 -0.74714293901 -0.052533447579 -0.68012478296 -0.73122469307 -0.0061157354231 
-0.69763728189 -0.71524404093 0.039926157622 -0.70918278958 -0.701903657 0.060641244013 -0.72057397853 -0.68863155588 0.080701326783 
-0.72779640721 -0.68173836572 0.07335199976 -0.73487383554 -0.67506705073 0.065049301962 -0.73544794145 -0.67588035248 0.026553890892 
-0.73573681393 -0.67702192688 -0.013265761989 -0.72174513091 -0.6830267708 -0.083929887253 -0.70699518832 -0.68928984142 -0.15623177211 
-0.66815942635 -0.69353204175 -0.2490563309 -0.62781830067 -0.69764793767 -0.34316355681 -0.56364055809 -0.69402401173 -0.43369315936 
-0.49774486115 -0.68984226079 -0.52396491518 -0.4220216351 -0.67995368667 -0.59103985031 -0.34549433849 -0.66959819066 -0.65621686376 
-0.27177427894 -0.65868099347 -0.69663575338 -0.19831176407 -0.64771226407 -0.7347832555 -0.13081538905 -0.63808593148 -0.75552255259 
-0.063926676423 -0.62859632449 -0.77448879177 -0.0011140201097 -0.61959351927 -0.78236870248 0.061241508393 -0.61064530866 -0.78900528664 
0.12183404864 -0.6008473672 -0.7876590783 0.18221037335 -0.59094521347 -0.78533384823 0.24165034249 -0.57955410568 -0.77587718016 
0.30096546422 -0.56796447069 -0.76546965369 0.35812147068 -0.5552834704 -0.74813701603 0.41496606629 -0.54244506164 -0.72980556425 
0.46678780958 -0.52989233743 -0.70567085719 0.51782930397 -0.5173839914 -0.68063467358 0.56073298746 -0.50709716931 -0.65255185232 
0.60228036913 -0.49718060122 -0.62396125811 0.63389591201 -0.49127141023 -0.59595185346 0.66374142422 -0.48607640526 -0.56804602715 
0.68384064204 -0.48594308516 -0.5434422871 0.70208806392 -0.48677148518 -0.51946594344 0.71220248126 -0.49291539006 -0.4993127092 
0.72067386737 -0.50013313431 -0.4799318203 0.72318467581 -0.51248743884 -0.46249287066 0.72441821759 -0.52594243487 -0.44547005087 
0.72181805395 -0.54440967461 -0.42642871923 0.71834839011 -0.56401371189 -0.40692958079 0.71264044687 -0.5887112238 -0.37952835575 
0.7063962492 -0.61462904734 -0.35023392247 0.6979647769 -0.64539285146 -0.30475026038 0.68898072996 -0.67738090332 -0.25517668786 
0.67402973471 -0.71112000123 -0.17828843778 0.65749178513 -0.74532480288 -0.094135645805 0.62397165873 -0.76920878398 0.026593338414 
0.58570382698 -0.79020737438 0.15754792476 0.51645785662 -0.77782786722 0.31172464593 0.43812047602 -0.75565261403 0.47271655883 
0.33618801593 -0.69392146709 0.61048343159 0.22699553139 -0.62001927591 0.74110413814 0.12119673643 -0.53517782874 0.82280195239 
0.016491463666 -0.44681151019 0.88873572357 -0.073309317614 -0.37042917127 0.91943712021 -0.158086113 -0.29808637605 0.93826243553 
-0.23092962432 -0.24056786786 0.9390324903 -0.29956936512 -0.18827155171 0.9334421692 -0.36074456842 -0.14598009407 0.91850841013 
-0.41917419471 -0.1073685844 0.90013798423 -0.47228895573 -0.073085742952 0.87609954553 -0.5233642917 -0.040463902104 0.84988617168 
-0.5690543773 -0.007219510632 0.82001744603 -0.61259036275 0.026273901091 0.78868657965 -0.64924329467 0.063885684627 0.75556301954 
-0.68302828762 0.10321345642 0.72169250369 -0.70783966927 0.14815190238 0.68814345639 -0.72875888216 0.19552389376 0.65473384124 
-0.73887180643 0.24769327189 0.62386244208 -0.74410872241 0.30202732451 0.59413633551 -0.73788621901 0.35815463357 0.56895930646 
-0.72628769171 0.4151232234 0.54591641254 -0.7044721008 0.46968425724 0.52889740785 -0.67767569138 0.52307160753 0.51481504917 
-0.64364102799 0.5702219584 0.50750729933 -0.60594142588 0.61421433488 0.50362973119 -0.56461162525 0.64960034919 0.50664724173 
-0.52137364333 0.68046250648 0.5132890885 -0.4773779136 0.70185246533 0.5265852542 -0.43296886687 0.71807577049 0.54351104841 
-0.38916896042 0.72451790336 0.56686123086 -0.34571369913 0.7254259519 0.59384626455 -0.30258041027 0.71555182918 0.62721927536 
-0.25963601189 0.69935216598 0.6643398994 -0.21518024357 0.66945236376 0.70753117187 -0.16980539895 0.63122139592 0.75441405486 
-0.11995014581 0.57373688346 0.80471226083 -0.067271621562 0.5041200004 0.85716258813 -0.0080997012125 0.41005373569 0.90363620289 
0.055310963812 0.30002745796 0.94620835252 0.1213616961 0.17255640576 0.96708363193 0.18919726259 0.033291703208 0.97329060469 
0.2505094788 -0.09871196142 0.95404735579 0.30725534981 -0.2256328995 0.91698895171 0.3539376939 -0.32732348161 0.87076058285 
0.39332762716 -0.41073119706 0.817887312 0.42603734107 -0.470461695 0.77041070476 0.45373689045 -0.51243427981 0.72698159523 
0.47833156893 -0.53877631039 0.6926384427 0.50051649686 -0.55298716457 0.6653470777 0.52139017809 -0.55814780592 0.64508181798 
0.54121088848 -0.55604085212 0.63045873371 0.56066387521 -0.54967643405 0.61893188747 0.57981136843 -0.53977504567 0.60997730052 
0.59961718267 -0.52969697226 0.59946499315 0.61998874152 -0.51946706016 0.5876140198 0.64241730419 -0.51309145635 0.56837316389 
0.66667431471 -0.51014190437 0.54256352349 0.69366411488 -0.51515883848 0.50005443544 0.72316631843 -0.52749980015 0.44219262938 
0.74970714864 -0.54921339256 0.35210336945 0.77343224682 -0.57983866668 0.2313716124 0.77167768769 -0.6075722383 0.07283532906 
0.74486813221 -0.63246230246 -0.12287540513 0.68351982523 -0.63712978144 -0.30976758793 0.58704736418 -0.62123191955 -0.48769175236 
0.49069323416 -0.59862786452 -0.62243965484 0.39446355572 -0.56897074427 -0.71177804042 0.31375259922 -0.5459814761 -0.77426479163 
0.24992165604 -0.53024495932 -0.80754450195 0.19753967801 -0.52191036417 -0.82910057233 0.15803778577 -0.52190293087 -0.83746754776 
0.12498951651 -0.52764683426 -0.83986608249 0.099450917632 -0.54008320214 -0.83531952258 0.077300139147 -0.55721368974 -0.82631431284 
0.059227292618 -0.57999450663 -0.81194220977 0.04277609935 -0.60688062449 -0.79282557884 0.028344323349 -0.63887900396 -0.76780066793 
0.014526762044 -0.67434149656 -0.7367546637 0.001500592753 -0.71426736569 -0.6979507123 -0.011345473936 -0.75624764765 -0.65138812508 
-0.023951403821 -0.80096714671 -0.59448069011 -0.036193129346 -0.8448818868 -0.52865506933 -0.047932252856 -0.88768605948 -0.4505223521 
-0.058480405348 -0.92564844627 -0.36446730072 -0.067327170672 -0.95669399605 -0.2670946291 -0.073804148709 -0.97956889223 -0.16568195668 
-0.076775816386 -0.99035802994 -0.05829344973 -0.076404889341 -0.99236729955 0.047973488438 -0.070913391658 -0.98092655847 0.15252227869 
-0.061654186886 -0.96266297739 0.25207213153 -0.046415794776 -0.9335718459 0.34368888804 -0.027495677383 -0.90051712204 0.42850865119 
-0.0025211673038 -0.86094449075 0.50215113639 0.025642289949 -0.82008894465 0.56852781226 0.059241452611 -0.77704661193 0.62251958588 
0.095176011569 -0.73492990811 0.66946338314 0.1352382477 -0.69444919955 0.70395029198 0.17651440801 -0.65648647493 0.73208859788 
0.22001609599 -0.6231400542 0.74858779837 0.26353243083 -0.59307369121 0.75986893694 0.3070766304 -0.56924743805 0.76122303088 
0.34962188855 -0.54851374768 0.75881301672 0.39019423737 -0.53388786882 0.74896888909 0.42920270626 -0.52142272712 0.73689145919 
0.46500321633 -0.51338986674 0.72023289641 0.49928663875 -0.50614736596 0.70270061618 0.53033626907 -0.50058957904 0.68330593825 
0.56042480414 -0.49435243575 0.6640053652 0.58838334436 -0.48660969186 0.64491334891 0.61608101407 -0.47691948739 0.62638329764 
0.64317723232 -0.46273930441 0.60914888795 0.67042892352 -0.44571381198 0.59251692251 0.69805374983 -0.42185957689 0.57733082326 
0.72564509425 -0.39484623806 0.56255699201 0.75315273393 -0.35993513987 0.54881383074 0.77987515473 -0.32233109356 0.53532249825 
0.80455124754 -0.27770906125 0.52248744681 0.82757349478 -0.23165747754 0.50996687046 0.84609934937 -0.18171930092 0.49830127322 
0.86255004861 -0.1319447145 0.48723734227 0.87310998432 -0.082634513145 0.47788136721 0.8817872196 -0.034787997601 0.46945135616 
0.88487911027 0.0087162500303 0.46376837164 0.88664128959 0.050055068387 0.45917675252 0.8842767785 0.084673588998 0.45797212947 
0.88116271376 0.11701596581 0.45780217137 0.87561259966 0.14196087526 0.46099487433 0.8697613857 0.16488068284 0.46496131353 
0.86288420183 0.18090014325 0.47156418731 0.85600072899 0.19535798 0.47856131815 0.849094761 0.20423000907 0.48696867619 
0.84236818208 0.21204804428 0.49538377215 0.83631610608 0.21590306256 0.50382796271 0.83058386108 0.21913752288 0.51194220104 
0.82611761381 0.2199156079 0.51875037851 0.82207650123 0.22026312233 0.52503894063 0.81980986388 0.21881347252 0.52915867343 
0.81805078177 0.21677077624 0.53272463115 0.81852955689 0.21211328419 0.53384894419 0.81954026526 0.20643567692 0.53450739437 
0.82303332878 0.19599753195 0.53299181787 0.82697062627 0.1839968512 0.53115820388 0.83310688192 0.16426161835 0.52775030431 
0.83942998315 0.14248514278 0.52413823006 0.84673648213 0.10996528447 0.51945155227 0.85374952036 0.075121815774 0.51459386198 
0.85911591765 0.02724031107 0.50877660163 0.8634959835 -0.022919936936 0.50274092592 0.86195806069 -0.086752644759 0.49539475808 
0.85869237246 -0.15228615629 0.48775765995 0.84430419438 -0.22876859167 0.47824769801 0.82775028549 -0.30582175581 0.46848416888 
0.79618064289 -0.38683197268 0.45696257389 0.76265180526 -0.46708927986 0.44542573369 0.714429005 -0.54169976439 0.43377455448 
0.66504277231 -0.6146333956 0.42247047414 0.60617009053 -0.6738942229 0.41399658447 0.54703021536 -0.73125954479 0.40616938871 
0.4855078657 -0.77172327682 0.40410854709 0.42430559948 -0.81057518247 0.40278471132 0.36624597077 -0.83360188362 0.40869693309 
0.3087434116 -0.85544503125 0.41523688386 0.25731291039 -0.86438744545 0.42861908093 0.20645127513 -0.87254052602 0.442400129 
0.16254244575 -0.87104619567 0.4610560228 0.11908089873 -0.86909073186 0.4798488555 0.081825394286 -0.86073704133 0.50054171558 
0.044822714435 -0.85218043195 0.52114915053 0.011865228078 -0.84037712112 0.5403897834 -0.02105179351 -0.82854422352 0.55940378787 
-0.053206728633 -0.81615410857 0.57414962424 -0.085491622729 -0.80381557708 0.58860321224 -0.1207395814 -0.79265314837 0.59639353715 
-0.1562008657 -0.78154620867 0.60387568178 -0.19779526188 -0.7720345781 0.60249764333 -0.23959099581 -0.76254112523 0.60082604883 
-0.28917178923 -0.7537505433 0.58780362014 -0.3388723768 -0.74493539822 0.57454414439 -0.39558092253 -0.73468330912 0.54741741582 
-0.45181292586 -0.72451737202 0.52051864296 -0.45181292586 -0.72451737202 0.52051864296 -0.45181292586 -0.72451737202 0.52051864296 

FrenetNormal 3 240 double
-0.40010423017 0.091933162071 0.91184697111 -0.40010423017 0.091933162071 0.91184697111 -0.40010423017 0.091933162071 0.91184697111 
-0.3713369709 0.16547823932 0.91012514486 -0.34232592129 0.23964657995 0.90838872687 -0.34774026396 0.31601214751 0.8788543284 
-0.35374307487 0.39241527451 0.84884475077 -0.47726818484 0.53520863729 0.6315655022 -0.60383266461 0.67971898893 0.40944307249 
-0.40627604118 0.409073067 -0.26088923787 -0.19744564025 0.12398692686 -0.94681145713 -0.054334971302 0.021076700274 -0.98370626288 
0.085893253263 -0.073843354664 -0.99213495401 0.1847507391 -0.075340205069 -0.97490370454 0.28141154855 -0.071876531338 -0.95630998034 
0.38205443212 -0.03904020376 -0.91615971789 0.48294619532 -0.0043680853158 -0.87466217181 0.57783289897 0.034310616899 -0.8058750071 
0.67228680553 0.073278081907 -0.73512102303 0.74755913427 0.097598375275 -0.64609623479 0.82126206119 0.12072026369 -0.55557656257 
0.87188387811 0.1273225838 -0.46055914652 0.92038816201 0.13240934718 -0.36512909341 0.94734290025 0.13319353104 -0.27652877176 
0.97210277736 0.1335394892 -0.18862407091 0.98085347215 0.14001075317 -0.11227796584 0.98780874462 0.14716896731 -0.037228151886 
0.98430500569 0.16013078796 0.030099899627 0.9795185578 0.17380437167 0.096480942538 0.96666731799 0.18724301854 0.16120943958 
0.95274077258 0.20065034049 0.22571759717 0.93116930742 0.20864527216 0.29087495076 0.90849520961 0.21585957062 0.35612593838 
0.87873639543 0.21367867 0.42081003792 0.8478770428 0.21003832099 0.48540607719 0.81090533427 0.19181026745 0.54773103383 
0.77291489976 0.17115092983 0.6096774767 0.72621857963 0.12438389574 0.66986100062 0.67797071552 0.072964004869 0.72973034095 
0.60233847137 -0.029433692528 0.78408406364 0.52150319502 -0.14151717316 0.83738981899 0.38147754663 -0.30322703339 0.84323212418 
0.22949424732 -0.47496242485 0.83948585358 0.088390646145 -0.58481260258 0.78633482253 -0.050381591148 -0.68140166307 0.7225970571 
-0.11254048372 -0.70026179867 0.70351829167 -0.15732315379 -0.70149269358 0.6945683716 -0.16301747064 -0.66535823235 0.72601673661 
-0.15934686953 -0.62027165456 0.76714385743 -0.15731792542 -0.55403507094 0.81313589104 -0.15570371572 -0.48245532796 0.86035695526 
-0.17730469567 -0.39280256782 0.89658841045 -0.2050799282 -0.29834315419 0.92989709728 -0.26220031728 -0.18025112944 0.93795432268 
-0.32752472862 -0.055552138144 0.93895199971 -0.40778051677 0.086589431581 0.89166021879 -0.49241833941 0.23385001889 0.83019653173 
-0.56251428682 0.3617842972 0.72100395818 -0.62813581108 0.48377201889 0.5971255734 -0.67275357918 0.55781628766 0.46193247618 
-0.7106034703 0.61641211049 0.32309352718 -0.7404267933 0.63120572378 0.19530360605 -0.76754453154 0.63123454735 0.071238076338 
-0.78693922539 0.60643801828 -0.038137825322 -0.80361330132 0.57289619453 -0.14233897165 -0.80546471395 0.53905037562 -0.23066818123 
-0.80186411249 0.50509274239 -0.31315943708 -0.7799588504 0.4936593557 -0.37927933485 -0.7510297069 0.49086899384 -0.43911719988 
-0.70262758719 0.51714469097 -0.48303791271 -0.64643627699 0.55504681168 -0.52059176466 -0.56829319893 0.61187369095 -0.54006171054 
-0.48100355093 0.67658588628 -0.55199669554 -0.37274370613 0.74127354466 -0.54301015645 -0.25538835429 0.80595056052 -0.52494922136 
-0.12651776096 0.85215197644 -0.48818998705 0.0075487340193 0.89001684117 -0.4429937153 0.14022094143 0.90130281232 -0.38551920001 
0.27223903863 0.9001196729 -0.32228452109 0.39390284184 0.87358632993 -0.25110481567 0.51051892674 0.83469476273 -0.17605190983 
0.61171874272 0.77320126106 -0.092896675638 0.70511285293 0.70026374194 -0.005638996702 0.77698765702 0.6043203548 0.091118284594 
0.83755103099 0.49628413959 0.19286894662 0.86620632208 0.36681285456 0.29639729696 0.87745720433 0.22564971326 0.40089529549 
0.85363319883 0.076767829263 0.48786331684 0.80996419104 -0.076481238099 0.56491306163 0.75104257384 -0.21570968199 0.60828655726 
0.68317275913 -0.34671269345 0.63190332003 0.62366129177 -0.45863018216 0.62354474303 0.5692326032 -0.55894160974 0.59574170265 
0.5297394113 -0.6460947877 0.53958554383 0.49965762827 -0.7249564659 0.46556303642 0.47716271251 -0.79059598615 0.36303247443 
0.4596203351 -0.84760437554 0.24189248793 0.44045287653 -0.88055331969 0.10184330508 0.42018677152 -0.89723672341 -0.050989559805 
0.4000047535 -0.88522754201 -0.19661811559 0.37988159637 -0.85313355103 -0.33720365501 0.37321558607 -0.80237831052 -0.45327955052 
0.37630113144 -0.73810042542 -0.55159483451 0.40863466968 -0.65480150604 -0.62566273307 0.46290420256 -0.55723681095 -0.68154509257 
0.55201821753 -0.40889973045 -0.69877060038 0.66817571114 -0.2211572165 -0.68599377553 0.75161594401 -0.0041680011921 -0.61086435376 
0.80878322508 0.23630720158 -0.4856639072 0.82509557195 0.38672233859 -0.40397275521 0.80746689656 0.46231834404 -0.35842778641 
0.79102338553 0.44477483832 -0.39825205348 0.77559837512 0.34718956518 -0.51144050762 0.71984813544 0.20499880375 -0.62908991275 
0.62825324753 0.023158719399 -0.75070460764 0.51995769153 -0.110079146 -0.83524176132 0.39630829551 -0.19863432624 -0.88569149809 