# vtk DataFile Version 5.1
vtk output
ASCII
DATASET POLYDATA
POINTS 240 float
0 0 0 -0.129022 -0.205142 -0.311561 -0.258043 -0.410284 -0.623122 
-0.389739 -0.593874 -0.847626 -0.521458 -0.777281 -1.07139 -0.655037 -0.943262 -1.22299 
-0.788647 -1.10895 -1.37335 -0.923324 -1.26118 -1.46633 -1.05803 -1.41307 -1.55782 
-1.19301 -1.55518 -1.60677 -1.328 -1.69695 -1.65424 -1.46248 -1.83201 -1.6742 
-1.59694 -1.96676 -1.69296 -1.73004 -2.09694 -1.69934 -1.86307 -2.22686 -1.70507 
-1.99378 -2.3533 -1.71319 -2.12435 -2.47951 -1.72145 -2.25165 -2.60266 -1.74549 
-2.37872 -2.7256 -1.77067 -2.5017 -2.846 -1.82227 -2.62436 -2.96621 -1.87603 
-2.74227 -3.08531 -1.96293 -2.85975 -3.20431 -2.05286 -2.97168 -3.32489 -2.17821 
-3.08304 -3.44563 -2.30716 -3.18748 -3.57174 -2.46947 -3.29116 -3.69844 -2.63553 
-3.38576 -3.83475 -2.82942 -3.47925 -3.97224 -3.02673 -3.56094 -4.1231 -3.24425 
-3.64107 -4.27574 -3.46448 -3.70667 -4.44418 -3.69666 -3.77017 -4.61489 -3.93057 
-3.81695 -4.80186 -4.16882 -3.86113 -4.99136 -4.40775 -3.88724 -5.19546 -4.6449 
-3.91035 -5.40199 -4.88176 -3.91489 -5.61963 -5.11261 -3.91613 -5.83925 -5.34239 
-3.8989 -6.06528 -5.56375 -3.87815 -6.29252 -5.78351 -3.83919 -6.5211 -5.99394 
-3.79655 -6.74995 -6.20248 -3.73591 -6.9756 -6.4019 -3.6714 -7.20056 -6.59937 
-3.58907 -7.419 -6.78873 -3.50269 -7.63596 -6.97625 -3.39881 -7.84473 -7.15731 
-3.29075 -8.05153 -7.33683 -3.1661 -8.2503 -7.51212 -3.03725 -8.44704 -7.68633 
-2.89349 -8.63746 -7.85898 -2.74576 -8.82619 -8.03122 -2.58561 -9.01142 -8.20476 
-2.422 -9.19567 -8.37867 -2.24911 -9.37964 -8.55645 -2.07349 -9.56354 -8.73538 
-1.89209 -9.7501 -8.91982 -1.7089 -9.93748 -9.10597 -1.52348 -10.1297 -9.29757 
-1.33734 -10.3234 -9.49094 -1.15252 -10.5228 -9.68735 -0.968145 -10.7241 -9.88478 
-0.788584 -10.9307 -10.0801 -0.61072 -11.1391 -10.2746 -0.441191 -11.3509 -10.4593 
-0.274727 -11.5641 -10.6403 -0.120123 -11.7779 -10.8017 0.0299312 -11.992 -10.9555 
0.164751 -12.2032 -11.0793 0.293476 -12.4133 -11.1911 0.403985 -12.6165 -11.2637 
0.506903 -12.8167 -11.32 0.589374 -13.0062 -11.3307 0.662976 -13.191 -11.3216 
0.714935 -13.3614 -11.265 0.757127 -13.5254 -11.1869 0.777666 -13.6724 -11.0639 
0.788046 -13.8115 -10.92 0.777942 -13.9323 -10.738 0.757851 -14.0443 -10.5375 
0.719497 -14.1382 -10.3086 0.671895 -14.2231 -10.0654 0.60917 -14.2919 -9.80428 
0.538496 -14.3523 -9.53378 0.456599 -14.4002 -9.25496 0.368581 -14.4414 -8.97159 
0.273759 -14.4747 -8.68718 0.175088 -14.5036 -8.40217 0.0741252 -14.5298 -8.12056 
-0.028183 -14.5543 -7.84095 -0.128801 -14.5806 -7.5665 -0.228392 -14.608 -7.29518 
-0.323423 -14.6408 -7.0287 -0.415581 -14.6769 -6.76528 -0.501773 -14.7202 -6.50517 
-0.584071 -14.7683 -6.24724 -0.660403 -14.8239 -5.99072 -0.732702 -14.8847 -5.73516 
-0.799991 -14.9521 -5.47935 -0.863773 -15.0242 -5.22337 -0.923876 -15.1017 -4.96618 
-0.981314 -15.183 -4.70812 -1.03626 -15.2689 -4.44882 -1.08933 -15.3582 -4.1886 
-1.14061 -15.4522 -3.92799 -1.1905 -15.5498 -3.66707 -1.2387 -15.6534 -3.40719 
-1.28554 -15.7617 -3.14815 -1.33031 -15.8779 -2.89174 -1.37335 -16.0006 -2.63751 
-1.41363 -16.133 -2.38723 -1.45153 -16.2736 -2.14033 -1.48591 -16.4248 -1.89811 
-1.51716 -16.5855 -1.66005 -1.5442 -16.7567 -1.42675 -1.56736 -16.9376 -1.19785 
-1.58573 -17.1279 -0.973345 -1.59956 -17.3273 -0.753028 -1.60817 -17.5344 -0.53657 
-1.61165 -17.7491 -0.323905 -1.60963 -17.9697 -0.114645 -1.60201 -18.1962 0.0911544 
-1.5888 -18.427 0.293773 -1.56969 -18.6622 0.493047 -1.54514 -18.9005 0.689164 
-1.51465 -19.1421 0.881846 -1.47918 -19.386 1.07136 -1.4381 -19.6324 1.25732 
-1.39281 -19.8806 1.44027 -1.34261 -20.1306 1.61974 -1.28914 -20.3816 1.79671 
-1.23175 -20.6338 1.97066 -1.17199 -20.8861 2.14288 -1.1093 -21.1384 2.31296 
-1.04476 -21.3894 2.48223 -0.977861 -21.639 2.65047 -0.909009 -21.8858 2.8187 
-0.837552 -22.129 2.98693 -0.763259 -22.3681 3.15559 -0.685054 -22.6015 3.32485 
-0.602441 -22.8296 3.49448 -0.51353 -23.0501 3.66465 -0.418262 -23.2646 3.83464 
-0.31359 -23.4701 4.00437 -0.200705 -23.6695 4.17308 -0.0752383 -23.8594 4.34022 
0.0597221 -24.0437 4.50544 0.209748 -24.2191 4.66764 0.369644 -24.3898 4.82725 
0.545767 -24.5528 4.98262 0.731186 -24.7122 5.1351 0.932447 -24.8656 5.28262 
1.14167 -25.0163 5.42728 1.36497 -25.1626 5.56686 1.59449 -25.3071 5.70385 
1.83544 -25.4481 5.83608 2.08087 -25.5876 5.96609 2.33482 -25.7239 6.09189 
2.59175 -25.8583 6.21583 2.8546 -25.989 6.33613 3.11936 -26.1171 6.45489 
3.38803 -26.2398 6.57052 3.65793 -26.359 6.68491 3.93042 -26.4708 6.79667 
4.20371 -26.5781 6.90753 4.47879 -26.6756 7.0164 4.75439 -26.768 7.12482 
5.0312 -26.8485 7.23223 5.30825 -26.9236 7.33979 5.5859 -26.9855 7.4477 
5.8635 -27.0419 7.55644 6.14095 -27.0845 7.66726 6.41802 -27.1219 7.77959 
6.69409 -27.1458 7.89586 6.9695 -27.1653 8.01418 7.24312 -27.1723 8.13807 
7.51592 -27.1757 8.26433 7.78639 -27.1685 8.39726 8.05602 -27.1586 8.53257 
8.32314 -27.1403 8.67492 8.58951 -27.1203 8.81943 8.85351 -27.0949 8.97064 
9.11686 -27.0688 9.12366 9.37809 -27.0404 9.28261 9.63869 -27.0122 9.44308 
9.89712 -26.9848 9.60872 10.1548 -26.9586 9.77571 10.4098 -26.9364 9.94753 
10.6637 -26.916 10.1207 10.9138 -26.9027 10.2989 11.1625 -26.8918 10.4785 
11.4057 -26.8906 10.6637 11.6472 -26.8925 10.8503 11.8817 -26.9066 11.0429 
12.1142 -26.9239 11.2369 12.3386 -26.9557 11.4369 12.5611 -26.991 11.638 
12.775 -27.0425 11.8442 12.9873 -27.0975 12.051 13.1916 -27.1698 12.2614 
13.3946 -27.2455 12.472 13.5909 -27.3389 12.6838 13.7864 -27.4354 12.8953 
13.9773 -27.549 13.1057 14.1677 -27.6652 13.3155 14.3556 -27.7973 13.5218 
14.5435 -27.9315 13.7273 14.7307 -28.0796 13.9277 14.918 -28.2293 14.1272 
15.1057 -28.3906 14.3206 15.2936 -28.5531 14.5131 15.4819 -28.7252 14.6992 
15.6702 -28.8982 14.8845 15.8579 -29.0791 15.0636 16.0452 -29.2608 15.2422 
16.2293 -29.4494 15.4151 16.4127 -29.6387 15.5875 16.5893 -29.8348 15.7552 
16.7647 -30.0316 15.9225 16.9288 -30.2357 16.0859 17.0915 -30.4404 16.2491 
17.2379 -30.6533 16.4092 17.3828 -30.8668 16.5691 17.507 -31.0896 16.7266 
17.6297 -31.3129 16.884 17.728 -31.5464 17.0396 17.8249 -31.7805 17.1951 
17.8954 -32.0252 17.3491 17.9646 -32.2703 17.5031 18.0063 -32.5261 17.656 
18.0472 -32.7822 17.8089 18.0609 -33.0488 17.9611 18.074 -33.3155 18.1132 
18.0611 -33.592 18.2649 18.0478 -33.8685 18.4166 18.0102 -34.1541 18.5682 
17.9723 -34.4398 18.7198 17.9117 -34.7335 18.8715 17.8511 -35.0272 19.0233 

LINES 2 240
OFFSETS vtktypeint64
0 240 
CONNECTIVITY vtktypeint64
0 1 2 3 4 5 6 7 8 
9 10 11 12 13 14 15 16 17 
18 19 20 21 22 23 24 25 26 
27 28 29 30 31 32 33 34 35 
36 37 38 39 40 41 42 43 44 
45 46 47 48 49 50 51 52 53 
54 55 56 57 58 59 60 61 62 
63 64 65 66 67 68 69 70 71 
72 73 74 75 76 77 78 79 80 
81 82 83 84 85 86 87 88 89 
90 91 92 93 94 95 96 97 98 
99 100 101 102 103 104 105 106 107 
108 109 110 111 112 113 114 115 116 
117 118 119 120 121 122 123 124 125 
126 127 128 129 130 131 132 133 134 
135 136 137 138 139 140 141 142 143 
144 145 146 147 148 149 150 151 152 
153 154 155 156 157 158 159 160 161 
162 163 164 165 166 167 168 169 170 
171 172 173 174 175 176 177 178 179 
180 181 182 183 184 185 186 187 188 
189 190 191 192 193 194 195 196 197 
198 199 200 201 202 203 204 205 206 
207 208 209 210 211 212 213 214 215 
216 217 218 219 220 221 222 223 224 
225 226 227 228 229 230 231 232 233 
234 235 236 237 238 239 
CELL_DATA 1
FIELD FieldData 3
Length 1 1 double
69.294534906 
Tortuosity 1 1 double
0.58661710059 
ClusterLabel 1 1 int
2 
POINT_DATA 240
FIELD FieldData 6
Curvature 1 240 double
0 0.094350296952 0.1887005939 0.24232576035 0.29560579857 0.35049995101 0.40542169515 0.42577649128 0.44523731462 
0.40479097798 0.36226091404 0.27502319291 0.18582460963 0.1155357624 0.046250971945 0.14690890525 0.25818825879 0.35249920936 
0.44558721196 0.48238266517 0.51457236432 0.48133594658 0.4420971328 0.37763139304 0.31059624415 0.25715349139 0.2052351195 
0.17704693357 0.15176905346 0.14297383418 0.13637630301 0.1354833507 0.13541317419 0.1351969663 0.13495807392 0.13325133282 
0.13129995027 0.12861407527 0.12579730062 0.12406534912 0.12253951402 0.12340918381 0.12476279397 0.12821756741 0.13212259013 
0.13567879188 0.1391558796 0.13861404382 0.13710934094 0.12934061154 0.11998939122 0.10525574104 0.089090593557 0.071027741987 
0.052434349491 0.036039132545 0.020289032337 0.015741870815 0.01464176735 0.019921414995 0.027256760221 0.034624676811 0.042003572513 
0.052813235991 0.064831465391 0.085312416215 0.10890609216 0.14835004684 0.19387608521 0.27157477905 0.36214253508 0.5048093508 
0.66918410805 0.84580673611 1.0277416937 1.0735007651 1.0578146197 0.93003378457 0.74966531715 0.59358819227 0.44935309687 
0.34766081035 0.26750918656 0.21014923819 0.16476952946 0.12904879389 0.098596589142 0.071307075175 0.04580697836 0.031606480354 
0.024035080315 0.034702627868 0.056461427336 0.07485189107 0.091119841875 0.10049252788 0.10536413825 0.1035196551 0.097134714373 
0.087988173423 0.076908512317 0.067354250638 0.058905350862 0.054812989056 0.053988030728 0.057866139406 0.06539438964 0.076191273676 
0.089612969704 0.10275854989 0.11567474153 0.12585345449 0.1336796467 0.13740531283 0.1374860669 0.13439297376 0.12838198883 
0.12094396616 0.11214908793 0.10392527112 0.096262998026 0.089850691095 0.084709536189 0.080484572184 0.077223188264 0.073980447382 
0.070757984893 0.066994209552 0.062621457253 0.057380849227 0.051130372719 0.044474274845 0.03732992903 0.031509362218 0.027337274918 
0.027221003823 0.032330495915 0.040113858864 0.051462382957 0.064479005474 0.079797603817 0.096106103335 0.11382874739 0.13138316093 
0.14868873351 0.16356581523 0.17472265565 0.18172809886 0.1821454552 0.17851760259 0.16823762859 0.1558912572 0.14002261751 
0.12413599427 0.10821758615 0.09350622238 0.081007773272 0.070223667853 0.06270099677 0.05710630007 0.055319352773 0.055076597918 
0.0580014173 0.062036611501 0.068438657292 0.074959353699 0.081743005525 0.088213172772 0.093960583904 0.099045620997 0.1025409604 
0.10527891172 0.10612339287 0.10623552226 0.10443909856 0.10194662067 0.097561745448 0.092559067706 0.085802627969 0.078448248428 
0.069319980801 0.060382837808 0.05203884023 0.044788883318 0.04109455857 0.039091202511 0.042849665695 0.047616930156 0.055992599187 
0.064712187497 0.074724912294 0.084640469131 0.094171402788 0.10335197024 0.1110701396 0.11821166455 0.12281071183 0.12670748401 
0.12732697238 0.12737362691 0.12458475392 0.12142463649 0.11631060097 0.1110582295 0.1050296396 0.098942241279 0.092501992477 
0.086145481484 0.08032803263 0.07460390581 0.069526811761 0.064518402164 0.060025125953 0.055820508916 0.053969574383 0.052622333054 
0.055766356118 0.059456410143 0.068507495411 0.077906606154 0.091099194571 0.10436446017 0.11851800244 0.1325552337 0.14497864969 
0.15706075308 0.16368185489 0.1699757426 0.17010709821 0.1699897437 0.16420179852 0.15828882157 0.14878118107 0.13925624656 
0.12906261002 0.11887792827 0.10921710158 0.099220565176 0.049610282588 0 
Torsion 1 240 double
0 0 0 -0.011324546859 -0.022745064454 -0.024019978982 -0.025121464398 -0.02325158579 -0.021304861561 
-0.0081695321832 0.0053549660688 0.11057943998 0.21982584264 2.8444485017 5.602630962 3.1348671716 0.34048174056 0.1220214769 
0.089213477557 0.1045755961 0.1238789061 0.17221070237 0.22320566251 0.31657851845 0.41426764155 0.53905342823 0.66687809307 
0.70490849953 0.7319264026 0.62619946822 0.50277322218 0.37791280301 0.25284553196 0.16539421284 0.083786148397 0.021369770776 
-0.037847992374 -0.090136853743 -0.14119086133 -0.18211325361 -0.22111063899 -0.2369839121 -0.24818564738 -0.23596764688 -0.21873113157 
-0.19437248752 -0.16839851529 -0.14905676862 -0.13130399267 -0.12599996498 -0.12384088423 -0.14051418549 -0.16219609898 -0.2369182175 
-0.32646878044 -0.87402265234 -1.5559905388 -1.7006656681 -1.6800199489 -1.2853456645 -0.77015106467 -0.61309955484 -0.5767704349 
-0.53094994047 -0.48178589367 -0.41086020912 -0.33193024401 -0.26795436858 -0.20971669034 -0.16346541729 -0.12200870633 -0.089793357752 
-0.061428576836 -0.040969855992 -0.023940269637 -0.010416646011 0.0015250188239 0.016515925682 0.032937341145 0.052652676593 0.073973798035 
0.094862662564 0.11553266283 0.13591976705 0.15615816949 0.19063063122 0.2328671253 0.46705995132 0.80985964936 1.4144241484 
2.1725573306 1.7821267441 0.69324521717 0.22368206394 0.14437432429 0.10164935089 0.082804794347 0.067941377748 0.055769436041 
0.024737934296 -0.019495259475 -0.10122226474 -0.21011869863 -0.28353204305 -0.33033307036 -0.30132733875 -0.21348651068 -0.13511594478 
-0.064350286378 -0.014776722108 0.017191102421 0.042022936448 0.060722278636 0.079339312419 0.097883183175 0.11864904425 0.14145770287 
0.16454173678 0.18788760294 0.20232694495 0.20800820487 0.19849389379 0.17352645965 0.14061584527 0.099351196519 0.062125325441 
0.029292510782 0.009342893618 0.0038868736357 0.022502021552 0.069127255751 0.17831937581 0.36282348811 0.61581002117 0.95407654987 
0.9886444802 0.63190844722 0.32246140433 0.076066348208 -0.097962410464 -0.17212567865 -0.22000571342 -0.23033827189 -0.2319361004 
-0.22061380754 -0.20776584305 -0.19258067949 -0.17849437825 -0.16615192374 -0.15467375354 -0.14461685086 -0.1331284406 -0.1191999606 
-0.1012070517 -0.076030501007 -0.040085187506 0.015602857808 0.083978249182 0.17649054282 0.25660117889 0.31221854129 0.34335540493 
0.32427586084 0.29952824621 0.26269869178 0.23252511842 0.21710263826 0.20693743005 0.20889315443 0.21279306063 0.22135900324 
0.22943278786 0.23627617754 0.24133791436 0.24175655589 0.24105225084 0.23729493476 0.23746721757 0.24879449078 0.27187842575 
0.32984045731 0.40857968364 0.55179985927 0.6897464061 0.81055365932 0.86042326309 0.66857939464 0.48287022237 0.31910438644 
0.17762551028 0.11994560284 0.072677228222 0.066621171058 0.064990567188 0.081831420547 0.099703514509 0.12212244204 0.14489199584 
0.16929780556 0.19354586392 0.21701305306 0.23953797893 0.25710362442 0.27296896606 0.27929371389 0.28301091051 0.2710827998 
0.25569355162 0.21802323094 0.17584110612 0.10237713936 0.023604013714 -0.094987803631 -0.21479639999 -0.34452642526 -0.4627436569 
-0.47830514547 -0.4846207518 -0.40015860527 -0.31635436382 -0.23972128786 -0.16607348037 -0.12891228739 -0.092804630373 -0.071314784784 
-0.050562780098 -0.041616229856 -0.032895619215 -0.028430204379 -0.02404967151 -0.021604447487 -0.019277791906 -0.020359979049 -0.021417760901 
-0.021531871484 -0.021462942365 -0.010686190714 0 0 0 
FrenetTangent 3 240 double
-0.36671940078 -0.5464768333 -0.75291430572 -0.36671940078 -0.5464768333 -0.75291430572 -0.36671940078 -0.5464768333 -0.75291430572 
-0.41293311762 -0.57568690813 -0.70164871537 -0.45953847612 -0.60514452597 -0.64994867087 -0.50806644447 -0.63238127649 -0.57749093951 
-0.55662727794 -0.65958006346 -0.50467837589 -0.59710755817 -0.67736207784 -0.41852126813 -0.63737885858 -0.69490055499 -0.33201904285 
-0.66236095627 -0.70050030937 -0.25209675889 -0.68681125561 -0.70568480383 -0.17240334246 -0.69808525179 -0.70398845805 -0.11938623846 
-0.70878133994 -0.70199032104 -0.067539148165 -0.71278751032 -0.69928996232 -0.052215539297 -0.71643846383 -0.6965523175 -0.038831230327 
-0.71622390216 -0.69440972217 -0.063752329162 -0.7157677458 -0.69230431744 -0.091067515984 -0.70786618701 -0.68668420771 -0.15234687713 
-0.69942802264 -0.68081078591 -0.2160741067 -0.67738158517 -0.66627679153 -0.29887684358 -0.65422174353 -0.65103420485 -0.3832403038 
-0.61755909943 -0.628706854 -0.46364983137 -0.5796576661 -0.60572952479 -0.54369661283 -0.53612944947 -0.58438903838 -0.6043385808 
-0.49202813453 -0.56321526744 -0.66300413257 -0.44920608635 -0.55096719693 -0.70102403083 -0.40652750733 -0.53972013955 -0.7367285287 
-0.3669528618 -0.53916752635 -0.75682555566 -0.32775888735 -0.53992649593 -0.77500845883 -0.29078868533 -0.5495345187 -0.7822839236 
-0.2541149863 -0.56032241522 -0.78810506326 -0.21849451423 -0.57674203057 -0.78617932169 -0.18302594989 -0.59397391307 -0.78313624148 
-0.14800111323 -0.61340381284 -0.77469402486 -0.11304520515 -0.63317515219 -0.76541310744 -0.078365236649 -0.652153385 -0.75289606032 
-0.043731258078 -0.67099943337 -0.73983965825 -0.0092255892341 -0.68686932114 -0.725615942 0.025257212529 -0.70220880405 -0.71118418956 
0.060064335128 -0.71327527916 -0.69724151654 0.094933078685 -0.7235298828 -0.68339176862 0.13082242975 -0.72887430483 -0.67096175857 
0.16691796415 -0.73322677097 -0.65881856425 0.20446023037 -0.73243741968 -0.64824972995 0.24231251056 -0.73054625037 -0.63801825852 
0.28112032161 -0.72368540828 -0.62899360043 0.320144851 -0.71569742392 -0.62024265259 0.35828632541 -0.70362300872 -0.61231343225 
0.39621623458 -0.69056955279 -0.60458108413 0.43047028973 -0.67530791859 -0.59774384635 0.46379570807 -0.65948842882 -0.59113274172 
0.49089946555 -0.64400299316 -0.58600749954 0.51634852599 -0.62860640167 -0.58127743354 0.53435441603 -0.61584656755 -0.57862985949 
0.55027941972 -0.6038238914 -0.5765644875 0.55909905987 -0.59572422252 -0.57656839633 0.56583343029 -0.588775871 -0.57717959411 
0.56690166973 -0.58599980404 -0.57898160858 0.56622648427 -0.58450751696 -0.58115002818 0.56180250416 -0.58691679868 -0.58297604057 
0.55617057911 -0.59058325256 -0.58469172175 0.54865349091 -0.59799024104 -0.58416777597 0.54050095446 -0.60665808387 -0.58288889976 
0.53186461266 -0.61941261688 -0.57717988766 0.52305783943 -0.63360677938 -0.5699102595 0.51451257394 -0.65289629406 -0.55518781645 
0.50606349519 -0.67405996127 -0.53772410815 0.49757061468 -0.70168890838 -0.50797962832 0.4890609265 -0.73179871869 -0.47352275941 
0.47822770492 -0.7687900112 -0.41825026147 0.46646506996 -0.80853389659 -0.35465151193 0.44583471572 -0.8494759545 -0.25677284638 
0.42150947845 -0.89091725096 -0.14461088248 0.37680307358 -0.91039425086 0.00789803203 0.32325664421 -0.9203445679 0.17790682873 
0.24896052832 -0.8806787789 0.35244102391 0.16530174901 -0.81862523474 0.52901716719 0.083899256878 -0.72761355598 0.66084499315 
0.0035552698488 -0.62301657952 0.77167978135 -0.061384586209 -0.52607308249 0.84059552467 -0.11881492842 -0.43286065668 0.8890757336 
-0.16396263922 -0.35660220963 0.91665304038 -0.20289129615 -0.28892805563 0.93364659923 -0.23423712337 -0.23558082788 0.94185870434 
-0.2615971042 -0.18976442034 0.9454549171 -0.28371772893 -0.15514475779 0.94572156653 -0.30298052306 -0.12663241068 0.94417209051 
-0.31759787651 -0.10756906746 0.94194702312 -0.32958688851 -0.09385187118 0.93933971326 -0.33675999287 -0.088590716389 0.93740377077 
-0.34110776475 -0.088290439273 0.93586169713 -0.34048932087 -0.09528505328 0.93534148762 -0.33685088094 -0.10671574973 0.93544268198 
-0.32879310817 -0.12341399641 0.93606613449 -0.31795055034 -0.14343152133 0.93701868119 -0.30428581744 -0.16566754769 0.93770129416 
-0.28877883137 -0.18935176249 0.93820770039 -0.27266780126 -0.21213188776 0.93808755464 -0.25614840336 -0.23430079758 0.93754382447 
-0.24087092606 -0.25383568943 0.93654273907 -0.2264627932 -0.27152676869 0.93522150501 -0.21408448038 -0.2869013878 0.93359448946 
-0.20317705165 -0.30059741258 0.9317458931 -0.19404278153 -0.31372430889 0.9293738355 -0.18623838037 -0.32642435884 0.92660918196 
-0.17935261272 -0.34065380551 0.92279235846 -0.17317981437 -0.35607024663 0.91815892543 -0.1669136653 -0.37464180568 0.91178010821 
-0.16057255278 -0.39574702004 0.90399969459 -0.15330379944 -0.4203166425 0.89390331808 -0.14526439064 -0.44776438862 0.88188291088 
-0.1358447918 -0.47743228334 0.86747496403 -0.12523909215 -0.50900811826 0.85101522531 -0.11323168473 -0.54071467846 0.83280852818 
-0.09997831487 -0.5725374389 0.81304897914 -0.085610429453 -0.60257825971 0.7927328452 -0.070217908767 -0.63098084571 0.77190501222 
-0.054078015145 -0.65657838269 0.75170809072 -0.037227504631 -0.67950882388 0.73211105225 -0.019917507438 -0.69958544999 0.71379069019 
-0.0021556816772 -0.71685582461 0.6967257266 0.015849791571 -0.73184586894 0.68089712976 0.034103041926 -0.74451693331 0.66632585504 
0.052346237106 -0.75562988015 0.65256955485 0.070578857014 -0.76510411717 0.63967038303 0.088426046209 -0.77357761569 0.62720874198 
0.10585399498 -0.78096259165 0.61522301161 0.12243500423 -0.78764172106 0.60360374599 0.13806320652 -0.79352677311 0.59239675321 
0.15247448701 -0.79872938208 0.58187697269 0.16546971305 -0.80313787547 0.57215685734 0.17717867468 -0.80669974771 0.56367667684 
0.1873393551 -0.80924253895 0.55668901051 0.19661564431 -0.81068093767 0.55143952968 0.20479061616 -0.81074405513 0.54835458174 
0.2129836233 -0.80940947188 0.5472110297 0.22119986824 -0.80627400501 0.54856889162 0.23066179415 -0.80151946637 0.55156806992 
0.24178462803 -0.79460616536 0.55675567008 0.2554671986 -0.78590418263 0.56282733779 0.27268220579 -0.77473381912 0.57011901872 
0.29345168687 -0.76168894596 0.57713557193 0.31929898779 -0.74596620186 0.58375908555 0.34884153889 -0.72843980083 0.58874721297 
0.38384998092 -0.7082454906 0.59131633164 0.42147637983 -0.68659430567 0.59115622832 0.46311326589 -0.6627113127 0.58681518921 
0.50527810915 -0.63814665234 0.5794822507 0.54828079752 -0.6125002155 0.56740129792 0.58966413877 -0.58724684111 0.55312051702 
0.62838455361 -0.5626398361 0.53522224098 0.66426323926 -0.53932139768 0.51651572919 0.69529806835 -0.51819937959 0.49643154282 
0.72340718726 -0.49866890989 0.47678046569 0.74634528354 -0.48195140941 0.45789488399 0.76696471143 -0.46655037733 0.44010844831 
0.78333324726 -0.45356287064 0.42433711365 0.79820435926 -0.44122795478 0.40981678113 0.81022671372 -0.43013455321 0.3976764039 
0.82150555262 -0.41887144564 0.38665485647 0.83131594825 -0.40727316874 0.37784299787 0.84088845535 -0.39481734289 0.36993086418 
0.84997298597 -0.38060244226 0.36386432001 0.85903320916 -0.36506823747 0.35854472067 0.86804161918 -0.3467218317 0.35481729321 
0.87694889816 -0.3269014597 0.35181519245 0.88563204893 -0.30381445984 0.35042057251 0.89392536135 -0.27945775391 0.34983933471 
0.90131987981 -0.25217367009 0.3511333946 0.9079885992 -0.22406362772 0.35337389822 0.91291540083 -0.19397128484 0.35788586677 
0.91687014838 -0.16366781206 0.36340232285 0.91839476074 -0.13283651456 0.37142999772 0.91889399105 -0.10242607029 0.38035141696 
0.91672101357 -0.073112395069 0.39160198819 0.91368361734 -0.044741310782 0.40344826316 0.90829608264 -0.01893289559 0.41691410767 
0.90236490412 0.0055895470013 0.43057028371 0.89489047859 0.026461486723 0.4447667557 0.88724943536 0.04579335424 0.45878641008 
0.87911409292 0.060556340885 0.47228150557 0.87111505393 0.073689070309 0.48540118454 0.86353902563 0.08176238077 0.49735577774 
0.8562114098 0.088258479553 0.50896754986 0.8496911345 0.089628640385 0.51946515349 0.84332695293 0.089523960805 0.52983107603 
0.83749464627 0.084393899084 0.53974830746 0.83158855371 0.077930276604 0.5497997233 0.8254185346 0.066696609872 0.56033110644 
0.81891129148 0.054247247643 0.5711866325 0.81113608606 0.037226870341 0.58326093592 0.80284169555 0.019126691949 0.5956429643 
0.7924921974 -0.0032476990882 0.60924307063 0.78158747476 -0.02653953223 0.62291940273 0.76836529335 -0.053660688938 0.63691389456 
0.75471859836 -0.081501823713 0.65061501874 0.73920018443 -0.11251740724 0.66302265832 0.72351546962 -0.14397242286 0.67477575738 
0.70705468409 -0.1774781216 0.68347433407 0.69073796342 -0.21108797796 0.69129135877 0.67513436379 -0.24521341453 0.69474470108 
0.65993219945 -0.27913395562 0.69728275532 0.64684285245 -0.31197609938 0.69500350389 0.63429062761 -0.34437217007 0.69194738376 
0.62475225492 -0.37426527527 0.68453216704 0.61574759749 -0.40357193811 0.67658351546 0.60994523169 -0.42935994684 0.66543425478 
0.60455174589 -0.45454441815 0.65402381438 0.60179042508 -0.47584361735 0.64093202951 0.59924292651 -0.49664801352 0.62780104717 
0.59817792884 -0.51402177532 0.61439829566 0.59710796545 -0.53106200883 0.60112759303 0.59600075918 -0.54560078008 0.58884725706 
0.59467617992 -0.5600009997 0.57680089134 0.5915791747 -0.57327149067 0.56666228308 0.58807791846 -0.58659205074 0.55679188003 
0.58097209073 -0.60035906021 0.54931297358 0.57331914631 -0.61430100771 0.54209042819 0.5602945109 -0.62996052862 0.53738488238 
0.5466348711 -0.64583715188 0.53288038811 0.52605368343 -0.66408019067 0.53056735546 0.50482900967 -0.68249536164 0.52835819733 
0.47573950579 -0.70301437026 0.5274186167 0.44607942508 -0.72358751235 0.52648890591 0.4085025908 -0.74491175618 0.52569613929 
0.37052586044 -0.76614949655 0.52483719968 0.32615079288 -0.78600318162 0.52291949218 0.2815949178 -0.80567005318 0.52090866559 
0.23363383429 -0.82181860358 0.51714409618 0.1856734233 -0.83776128322 0.51330149268 0.13772834575 -0.84901010942 0.50767971187 
0.089888773963 -0.86009445183 0.50201436298 0.045082493087 -0.86644988512 0.49509643212 0.00039779470511 -0.87270341695 0.48816557782 
-0.039585713916 -0.87501675882 0.48073501752 -0.079480623592 -0.87728091457 0.47330633933 -0.11419249491 -0.87666768221 0.46598776451 
-0.14861266982 -0.87605960306 0.45873069033 -0.14861266982 -0.87605960306 0.45873069033 -0.14861266982 -0.87605960306 0.45873069033 

FrenetNormal 3 240 double
-0.65063331599 -0.42781453007 0.62741614259 -0.65063331599 -0.42781453007 0.62741614259 -0.65063331599 -0.42781453007 0.62741614259 
-0.6153372179 -0.38903427375 0.68133111246 -0.57974200033 -0.34992537118 0.73570298886 -0.52857794878 -0.29672809056 0.78996550062 
-0.47714776332 -0.24328998296 0.84422614289 -0.41459230159 -0.18211034077 0.88624046376 -0.35174911721 -0.12073048648 0.92793806943 
-0.29345422028 -0.064446958827 0.95010157061 -0.23531752465 -0.0083406947134 0.97158562469 -0.20628388689 0.039004001773 0.97617432041 
-0.17852669903 0.085964418977 0.98002199165 -0.19031802369 0.17068042797 0.070961249841 -0.20420926937 0.25740115865 -0.88657250505 
-0.076232933378 0.16828698116 -0.96762594662 0.060610126464 0.068183121923 -0.99389936862 0.12336035217 0.091564493578 -0.98586766781 
0.18077055379 0.12384570169 -0.97536352572 0.25264975347 0.16858336156 -0.94841905293 0.32571278027 0.21434018566 -0.92012946218 
0.40531674873 0.24693394964 -0.87470533649 0.48552080357 0.27832009343 -0.82770923512 0.56948164085 0.27229998078 -0.76856842322 
0.65382511338 0.26246997164 -0.70819065005 0.74125353909 0.19293552369 -0.6267676638 0.82902794085 0.11670525082 -0.54298446673 
0.8862192004 -0.010827305289 -0.42208860993 0.93965969723 -0.14465165085 -0.29664120052 0.93608165387 -0.25825123805 -0.16651103723 
0.92490113849 -0.3691541908 -0.035756506759 0.8972989448 -0.423752741 0.061512859008 0.8673282398 -0.4702304639 0.15395263371 
0.84940281614 -0.47782053356 0.21606796 0.83334850415 -0.47936980271 0.27347269236 0.83282135864 -0.4571864978 0.30932753091 
0.83488207422 -0.43104776389 0.34159072049 0.84988245335 -0.38620967612 0.3547800704 0.86718891114 -0.33803903023 0.36457012215 
0.89060264274 -0.27323767457 0.35623820047 0.91517675637 -0.20527648406 0.34446310385 0.93495927164 -0.12670002561 0.31992976928 
0.95377378724 -0.045979068576 0.29281901292 0.9600599394 0.033285033322 0.26520147169 0.96366144225 0.11223695198 0.2374753337 
0.95628448879 0.18227509006 0.21768421539 0.94641757617 0.25029154595 0.19969279227 0.9302651561 0.30853953581 0.18977884245 
0.9126068332 0.36444716402 0.18180012061 0.89203191692 0.41340722931 0.17534702364 0.87072017705 0.4606121208 0.1692793477 
0.8476548103 0.50473102505 0.15538626665 0.82412305342 0.548029188 0.13941196084 0.79332639454 0.59614244531 0.09809071249 
0.7604986878 0.64560185802 0.049683222144 0.64886362837 0.71395256439 -0.10892844984 0.51410032413 0.78784745477 -0.29988265339 
-0.0082929145876 0.40514365703 -0.41840261606 -0.64995690238 -0.11805204475 -0.51463511999 -0.79300728981 -0.39028348891 -0.37092119415 
-0.77539329489 -0.58164867227 -0.1498911965 -0.70873804984 -0.67869089612 0.02925825208 -0.62555204631 -0.74393886395 0.19429066165 
-0.52701108858 -0.76413977374 0.33458460249 -0.42306099926 -0.76847183352 0.46616385547 -0.33496425814 -0.74433070757 0.5650536455 
-0.2526986336 -0.70971668572 0.65191972502 -0.20392071245 -0.66283357909 0.71593278729 -0.167992724 -0.61124256783 0.77117666851 
-0.15958938098 -0.54487328161 0.81910709463 -0.16219589614 -0.47259268542 0.8641121387 -0.18918949432 -0.37167397165 0.90113446237 
-0.22634437709 -0.25882270888 0.93483065255 -0.27796998769 -0.10689992955 0.93920270386 -0.33587205856 0.061969531663 0.93085585158 
-0.38505781569 0.23917969198 0.86966232688 -0.430310602 0.42015333847 0.78462335243 -0.45494439409 0.55917135639 0.67342660013 
-0.46990507778 0.67850648682 0.54995829772 -0.47679444939 0.75402997333 0.43708298996 -0.47974905634 0.80819528342 0.3293717671 
-0.48601136073 0.83697634941 0.2386801532 -0.49394844861 0.85290463358 0.15660606283 -0.50921716 0.8539546214 0.086966488299 
-0.52833967349 0.84718396626 0.023863005431 -0.55631087685 0.82812228127 -0.031018219018 -0.58910863833 0.80235639819 -0.081414575239 
-0.65296602953 0.73415191622 -0.13619307079 -0.73439663229 0.64193612171 -0.19345093465 -0.53909072486 0.10554687541 -0.18195549856 
-0.18143273145 -0.69142412927 -0.13012479315 0.097369469956 -0.96646119112 -0.063345234895 0.32821882488 -0.92410599044 0.012524841989 
0.4481098861 -0.89155406767 0.039843328011 0.49808202252 -0.86517955291 0.036567660885 0.53518204809 -0.84363761455 0.024618096862 
0.56387944574 -0.82525027468 0.0070064056976 0.58888166393 -0.8075303139 -0.011441618286 0.61138573263 -0.79026153899 -0.030455050372 
0.62663435695 -0.77743359762 -0.049546370616 0.63680417021 -0.76771423971 -0.06869221257 0.62626398157 -0.77297286958 -0.093928319242 
0.60071654518 -0.78908511379 -0.12357766122 0.54552758629 -0.81753925569 -0.16207236521 0.46810748553 -0.85524982086 -0.20720109072 
0.39613647418 -0.88108192995 -0.24827572839 0.32839460685 -0.8976949388 -0.28620390982 0.28573006795 -0.90314304371 -0.31878887112 
0.26320338368 -0.89962539244 -0.34708306474 0.2561781832 -0.89057074021 -0.3748152767 0.26203113848 -0.87691611796 -0.40208061158 
0.27518614819 -0.85922524041 -0.42979882874 0.29461636092 -0.83806570596 -0.4579062416 0.31912113248 -0.81331200233 -0.48466765215 