# vtk DataFile Version 5.1
vtk output
ASCII
DATASET POLYDATA
POINTS 240 float
0 0 0 -0.132295 -0.320621 0.000181864 -0.264591 -0.641242 0.000363729 
-0.416513 -0.947713 0.0469909 -0.568603 -1.25406 0.0940116 -0.73896 -1.54373 0.175072 
-0.90963 -1.83311 0.256715 -1.09721 -2.10336 0.3602 -1.28523 -2.37313 0.464251 
-1.48872 -2.62154 0.578194 -1.69275 -2.86921 0.692481 -1.91067 -3.09373 0.805076 
-2.1292 -3.31724 0.917597 -2.35978 -3.5165 1.01747 -2.591 -3.71448 1.11668 
-2.8321 -3.88817 1.19337 -3.07383 -4.06035 1.26866 -3.32291 -4.20957 1.31331 
-3.57252 -4.35713 1.35574 -3.82665 -4.48462 1.36183 -4.08116 -4.61047 1.36494 
-4.33716 -4.72074 1.32907 -4.5933 -4.82959 1.28964 -4.84786 -4.92877 1.21208 
-5.10225 -5.02697 1.13064 -5.35207 -5.12241 1.01535 -5.60137 -5.21754 0.89626 
-5.84322 -5.31718 0.750515 -6.08416 -5.41737 0.6015 -6.31489 -5.52894 0.434983 
-6.54427 -5.64203 0.266133 -6.76068 -5.77222 0.0895163 -6.97523 -5.90487 -0.0882204 
-7.1739 -6.05851 -0.264852 -7.37011 -6.21542 -0.441313 -7.54722 -6.39497 -0.609936 
-7.72116 -6.5783 -0.777252 -7.87243 -6.7836 -0.932996 -8.01966 -6.99281 -1.08668 
-8.14044 -7.2212 -1.22833 -8.25619 -7.45323 -1.36771 -8.34175 -7.70003 -1.49762 
-8.42121 -7.9498 -1.62561 -8.46727 -8.20901 -1.74888 -8.50618 -8.47024 -1.87114 
-8.50956 -8.7354 -1.99435 -8.50488 -9.00145 -2.11777 -8.4641 -9.2664 -2.24749 
-8.41468 -9.53109 -2.37872 -8.33043 -9.79053 -2.52008 -8.2374 -10.0486 -2.664 
-8.11279 -10.2984 -2.8195 -7.97978 -10.546 -2.97807 -7.82026 -10.7831 -3.14675 
-7.65332 -11.0172 -3.31825 -7.46634 -11.2396 -3.49543 -7.27347 -11.4584 -3.67428 
-7.06789 -11.6644 -3.85191 -6.85841 -11.8663 -4.02915 -6.64389 -12.0542 -4.19656 
-6.42773 -12.2375 -4.36079 -6.21397 -12.4055 -4.50594 -6.00101 -12.5683 -4.64466 
-5.79719 -12.7142 -4.75556 -5.59658 -12.854 -4.85668 -5.41076 -12.9752 -4.92289 
-5.23038 -13.0894 -4.97627 -5.06902 -13.1835 -4.99011 -4.91497 -13.2697 -4.98878 
-4.78253 -13.3346 -4.94603 -4.65875 -13.391 -4.88672 -4.55732 -13.4259 -4.78699 
-4.46521 -13.4518 -4.67042 -4.39438 -13.4572 -4.51685 -4.33278 -13.4536 -4.34722 
-4.28994 -13.4313 -4.14569 -4.25557 -13.4005 -3.92976 -4.23657 -13.3538 -3.68795 
-4.22478 -13.2996 -3.43401 -4.22478 -13.2327 -3.16055 -4.23052 -13.1598 -2.87757 
-4.24491 -13.0778 -2.58117 -4.26367 -12.9913 -2.27798 -4.28875 -12.8995 -1.96682 
-4.31715 -12.8048 -1.65149 -4.35038 -12.7082 -1.33281 -4.38625 -12.6106 -1.01232 
-4.42605 -12.5144 -0.692248 -4.46808 -12.419 -0.37241 -4.5134 -12.3284 -0.0559144 
-4.56066 -12.2406 0.25862 -4.6105 -12.1611 0.567599 -4.66192 -12.0865 0.8732 
-4.71498 -12.0238 1.17159 -4.76908 -11.9687 1.46544 -4.8236 -11.929 1.75085 
-4.87841 -11.8995 2.03074 -4.93234 -11.8888 2.30126 -4.98568 -11.8909 2.56544 
-5.03695 -11.9145 2.81958 -5.08676 -11.9532 3.06669 -5.13357 -12.0153 3.30336 
-5.17821 -12.0942 3.53247 -5.21928 -12.197 3.75105 -5.25768 -12.3177 3.96172 
-5.29231 -12.4616 4.16213 -5.32402 -12.6236 4.35455 -5.35205 -12.8071 4.53733 
-5.37713 -13.0078 4.71234 -5.39888 -13.2272 4.87864 -5.41786 -13.4623 5.03768 
-5.43406 -13.7128 5.1892 -5.44789 -13.9766 5.33423 -5.45961 -14.2523 5.47305 
-5.46948 -14.5385 5.60633 -5.47798 -14.833 5.73473 -5.4852 -15.1352 5.85862 
-5.49168 -15.4426 5.97886 -5.49745 -15.7548 6.09563 -5.50291 -16.0696 6.20983 
-5.50806 -16.387 6.3215 -5.51303 -16.7049 6.43153 -5.51781 -17.0235 6.53987 
-5.52217 -17.3415 6.6473 -5.52609 -17.6588 6.75377 -5.52896 -17.9748 6.85992 
-5.5307 -18.2892 6.96573 -5.53042 -18.6019 7.07168 -5.52788 -18.9127 7.1778 
-5.52206 -19.2218 7.28438 -5.51243 -19.5289 7.39151 -5.49812 -19.8343 7.49931 
-5.47816 -20.1377 7.60792 -5.45208 -20.4396 7.71726 -5.41837 -20.7394 7.82751 
-5.37719 -21.0375 7.9384 -5.32641 -21.3335 8.05011 -5.26706 -21.6276 8.16223 
-5.1963 -21.9191 8.27489 -5.11618 -22.2082 8.38762 -5.02313 -22.494 8.50043 
-4.92026 -22.7767 8.6129 -4.80334 -23.055 8.72487 -4.67647 -23.3292 8.83607 
-4.53488 -23.5976 8.94614 -4.38355 -23.8609 9.05508 -4.21728 -24.1165 9.16228 
-4.04178 -24.3659 9.26809 -3.85162 -24.6055 9.37172 -3.65298 -24.8378 9.47387 
-3.44038 -25.0581 9.57362 -3.22024 -25.2701 9.67199 -2.98723 -25.468 9.76804 
-2.74772 -25.6567 9.86302 -2.49672 -25.8292 9.95612 -2.24033 -25.992 10.0486 
-1.97405 -26.1371 10.14 -1.70348 -26.2723 10.2314 -1.42479 -26.389 10.3228 
-1.1429 -26.4961 10.4148 -0.85472 -26.5844 10.5083 -0.564402 -26.6639 10.6031 
-0.269698 -26.7254 10.7009 0.0261762 -26.779 10.8008 0.324547 -26.8162 10.9051 
0.623239 -26.8468 11.012 0.922642 -26.863 11.1247 1.22167 -26.8741 11.2405 
1.51981 -26.873 11.3632 1.81706 -26.868 11.489 2.11214 -26.8533 11.6225 
2.40597 -26.8355 11.7589 2.69668 -26.8101 11.903 2.98599 -26.7822 12.0498 
3.27161 -26.7481 12.2037 3.55579 -26.712 12.3598 3.83605 -26.6703 12.5219 
4.11493 -26.6267 12.6858 4.38989 -26.5776 12.8544 4.6636 -26.5265 13.024 
4.93356 -26.4694 13.1969 5.2024 -26.4102 13.3704 5.46772 -26.3444 13.5458 
5.73203 -26.2763 13.7215 5.99306 -26.2011 13.8981 6.25318 -26.1238 14.0747 
6.51022 -26.0393 14.2517 6.76644 -25.9532 14.4286 7.01973 -25.8608 14.6059 
7.27227 -25.7673 14.7833 7.52201 -25.6696 14.9615 7.77106 -25.5718 15.1401 
8.01737 -25.4732 15.3202 8.26301 -25.3754 15.5009 8.50587 -25.2811 15.6844 
8.74805 -25.1888 15.8687 8.98717 -25.1048 16.0571 9.22552 -25.0237 16.2465 
9.46019 -24.956 16.4412 9.6939 -24.8919 16.6371 9.92286 -24.8455 16.8394 
10.1506 -24.8032 17.043 10.372 -24.7817 17.2536 10.5919 -24.7643 17.4656 
10.8035 -24.7696 17.6849 11.0133 -24.7787 17.9053 11.2127 -24.8108 18.1325 
11.4101 -24.8462 18.3607 11.5951 -24.9033 18.5945 11.7779 -24.9632 18.8288 
11.9465 -25.0428 19.0668 12.1131 -25.1247 19.305 12.2644 -25.224 19.5442 
12.4137 -25.3253 19.7831 12.5472 -25.442 20.0198 12.6789 -25.5604 20.2559 
12.7952 -25.6933 20.4863 12.9099 -25.8278 20.7159 13.0102 -25.9769 20.9365 
13.1093 -26.1275 21.1561 13.1957 -26.2939 21.3638 13.2812 -26.4618 21.5705 
13.3563 -26.6473 21.7634 13.4309 -26.8342 21.9552 13.498 -27.0402 22.1324 
13.5648 -27.2475 22.3087 13.627 -27.4748 22.4709 13.6892 -27.7031 22.6324 
13.7494 -27.9512 22.7814 13.8097 -28.2002 22.93 13.8697 -28.4674 23.0685 
13.9298 -28.7351 23.2067 13.9902 -29.0184 23.3374 14.0506 -29.3019 23.468 
14.1105 -29.5974 23.593 14.1704 -29.8931 23.718 14.2279 -30.1966 23.8381 
14.2853 -30.5003 23.9581 14.3371 -30.8076 24.0721 14.3889 -31.115 24.1862 

LINES 2 240
OFFSETS vtktypeint64
0 240 
CONNECTIVITY vtktypeint64
0 1 2 3 4 5 6 7 8 
9 10 11 12 13 14 15 16 17 
18 19 20 21 22 23 24 25 26 
27 28 29 30 31 32 33 34 35 
36 37 38 39 40 41 42 43 44 
45 46 47 48 49 50 51 52 53 
54 55 56 57 58 59 60 61 62 
63 64 65 66 67 68 69 70 71 
72 73 74 75 76 77 78 79 80 
81 82 83 84 85 86 87 88 89 
90 91 92 93 94 95 96 97 98 
99 100 101 102 103 104 105 106 107 
108 109 110 111 112 113 114 115 116 
117 118 119 120 121 122 123 124 125 
126 127 128 129 130 131 132 133 134 
135 136 137 138 139 140 141 142 143 
144 145 146 147 148 149 150 151 152 
153 154 155 156 157 158 159 160 161 
162 163 164 165 166 167 168 169 170 
171 172 173 174 175 176 177 178 179 
180 181 182 183 184 185 186 187 188 
189 190 191 192 193 194 195 196 197 
198 199 200 201 202 203 204 205 206 
207 208 209 210 211 212 213 214 215 
216 217 218 219 220 221 222 223 224 
225 226 227 228 229 230 231 232 233 
234 235 236 237 238 239 
CELL_DATA 1
FIELD FieldData 3
Length 1 1 double
72.728493762 
Tortuosity 1 1 double
0.73352178043 
ClusterLabel 1 1 int
2 
POINT_DATA 240
FIELD FieldData 6
Curvature 1 240 double
0 0.10993140372 0.21986280744 0.20026076726 0.17956098603 0.16209095987 0.1446761432 0.13363959645 0.12276800496 
0.12064884943 0.11883412645 0.12711864423 0.13584611118 0.15360433795 0.1718420741 0.19552723879 0.21955286776 0.24216242759 
0.26466992839 0.27602443256 0.28646641882 0.27971205161 0.2713800373 0.24978861027 0.2268466875 0.20131606902 0.17549512954 
0.15771333557 0.14091747454 0.13819626429 0.13735167414 0.14720344765 0.15859796592 0.17333913873 0.18860018021 0.2021637778 
0.21544446807 0.22479289006 0.23344051177 0.23869206663 0.24329836879 0.24684239779 0.25017182615 0.2532900629 0.2563630443 
0.25678565319 0.25660714667 0.25041027756 0.24277150909 0.22871626539 0.21304001743 0.19401558275 0.17410067288 0.15473712965 
0.13552773193 0.11973943666 0.10495516058 0.096269010683 0.089459207301 0.093602550377 0.10127524065 0.1266062815 0.15788957537 
0.2211524 0.29568074116 0.43998520902 0.60995445911 0.89063523679 1.2137983448 1.4476051413 1.6456694132 1.5102174403 
1.2358003655 0.94780352285 0.6539166604 0.46253458721 0.31740467504 0.22656652568 0.16119858605 0.11890596677 0.087862566175 
0.067068020409 0.05146276823 0.041274733424 0.033934210314 0.030541843198 0.029303015715 0.031782586631 0.03636598822 0.044077867844 
0.053625121248 0.067065191365 0.082872514888 0.10320243191 0.12638220238 0.15462922971 0.1861840497 0.22185545499 0.26030990387 
0.29700388235 0.33246553155 0.35736886227 0.37462123756 0.37642090291 0.3666310358 0.34484731637 0.31375493546 0.27953718128 
0.24280965766 0.20835615242 0.17579183169 0.14726118084 0.12219696503 0.10076810001 0.082570657911 0.067067383255 0.054041004472 
0.042932797564 0.033648426211 0.025720485099 0.019126367059 0.013642428072 0.0092874847311 0.007704629078 0.0090372449586 0.012344177788 
0.017798613262 0.023988319173 0.031005204322 0.038533991148 0.046658445379 0.054979131419 0.063536022413 0.071969574287 0.080249534047 
0.088079028257 0.095328114929 0.1020290631 0.10799915994 0.1134098107 0.11804842587 0.1222329584 0.12576880142 0.12902317526 
0.13186120929 0.13451356915 0.13688149198 0.13927232541 0.14169951694 0.14406938717 0.1463449957 0.14860335889 0.15083232658 
0.15282686493 0.15440706304 0.15534552112 0.15510745583 0.15405835011 0.15146628943 0.14810039449 0.14320617689 0.13757182264 
0.13041923935 0.12306798951 0.11529326624 0.10773269719 0.10064674017 0.093917873213 0.088012297211 0.082415377412 0.077559232498 
0.072882844168 0.068655847295 0.064612578579 0.061048116575 0.057577345709 0.054361297627 0.051507582555 0.049682425707 0.048301361498 
0.048237772117 0.048285426429 0.04867831979 0.048817243091 0.048130763698 0.046969902839 0.04419263106 0.040755204329 0.034956454115 
0.029144891417 0.023285153776 0.019743809965 0.025379441728 0.032603755443 0.046459089477 0.060647732596 0.076305965778 0.091871684646 
0.10700567004 0.12159683745 0.13350105584 0.14472309608 0.1523547251 0.15921656387 0.16175902401 0.16369864343 0.16202121853 
0.160036537 0.15607389091 0.15207786194 0.14785037834 0.14379674881 0.1410470248 0.13859559747 0.13857643535 0.13890418571 
0.142325239 0.1460167598 0.15236377964 0.15869318398 0.16483057923 0.17059861474 0.17185225329 0.17260445534 0.16639922609 
0.15979737978 0.14684966043 0.13374614365 0.11770844194 0.10171553835 0.086744031907 0.071894655265 0.060556510387 0.049371386983 
0.044103093948 0.038941568246 0.040025931536 0.040929211054 0.020464605527 0 
Torsion 1 240 double
0 0 0 0.1113987272 0.22374151142 0.28578955668 0.34697786282 0.42093339411 0.49521911226 
0.5350112083 0.57360352618 0.54294559807 0.50925037847 0.45062375312 0.39067333631 0.34489605648 0.30000459771 0.27505062921 
0.25153359694 0.2464929563 0.24296402044 0.25984836942 0.27860549683 0.32668110144 0.37774284723 0.46998282918 0.56684093107 
0.66412305088 0.76145717288 0.72347815841 0.6674573924 0.52992349948 0.38063290556 0.25941209507 0.14255163929 0.054217334246 
-0.029362612343 -0.10064332765 -0.16973210075 -0.22872785426 -0.28580593404 -0.32028082646 -0.35018941841 -0.34948708834 -0.34222527499 
-0.3151202838 -0.28351477806 -0.24672210407 -0.20868667103 -0.17031756358 -0.13186415945 -0.089117927609 -0.045229986275 0.014310772982 
0.078227588862 0.17732431032 0.28674556928 0.42384917059 0.5694704157 0.61640777701 0.63154699798 0.54557874979 0.42552933222 
0.32094497049 0.22180852615 0.15212103813 0.093265350131 0.054251128055 0.02285049174 0.0052749381624 -0.0067705823201 -0.0178723782 
-0.028580955495 -0.041318737603 -0.05493665674 -0.062360985539 -0.066990645528 -0.058591932619 -0.044081143537 -0.0083791025606 0.037653673714 
0.12456446925 0.23217299606 0.38700080266 0.56664899992 0.68956526822 0.78153684802 0.7378528686 0.61741640175 0.5126533042 
0.41708524997 0.34331719984 0.28280590897 0.23478093438 0.1946240495 0.16129590719 0.13242541628 0.10784017747 0.086152010511 
0.068596251679 0.053933178537 0.04234968925 0.032997782469 0.025647655133 0.019798862382 0.015075447624 0.011225460561 0.0072848489856 
0.0032714631791 -0.0017561702838 -0.0076264094919 -0.014730139888 -0.022893901772 -0.032600896013 -0.043679652347 -0.05481388012 -0.065999105829 
-0.068849723377 -0.063775631527 -0.0093660938671 0.093556632173 0.51895468834 1.2722937582 1.4476394811 1.0150956495 0.60894759403 
0.23151073353 0.0080905433153 -0.042060892816 -0.071216210048 -0.075939679833 -0.076509078743 -0.072078207155 -0.066900064983 -0.060791359442 
-0.05490805028 -0.049315155686 -0.043557277165 -0.037579420075 -0.031201151301 -0.024270314403 -0.016800642656 -0.0085612068408 0.00029708006132 
0.010070750862 0.020491869054 0.031904821547 0.043227090728 0.054405449433 0.065430824149 0.076204625196 0.086476291911 0.095892047833 
0.10440365017 0.11131721362 0.11865997476 0.12678959836 0.13614548432 0.14783425963 0.15957674268 0.17142529851 0.18436260155 
0.19953323222 0.21572697643 0.23410156793 0.24937208932 0.2577633202 0.26029357507 0.24931102414 0.23227099452 0.200693016 
0.16333775052 0.11153926763 0.055673005825 -0.010794134329 -0.078010398691 -0.1472633445 -0.20979621811 -0.25325275777 -0.28199584049 
-0.26708900091 -0.24481824695 -0.19969396557 -0.15155708042 -0.093629232978 -0.03005916683 0.052736237138 0.15973976734 0.35333390289 
0.65500852831 1.3630657956 1.82484495 1.3117732406 0.83523261997 0.51116958689 0.23106804294 0.14479670109 0.06760286764 
0.032770740053 0.00083405121647 -0.016770215803 -0.033268583149 -0.043946425891 -0.053951289216 -0.060179990255 -0.065487244174 -0.065265815372 
-0.063445911846 -0.051335827281 -0.037438108963 -0.011146129953 0.016772925939 0.056895058454 0.0973941759 0.14096717048 0.18315932186 
0.21303895471 0.24071756543 0.24678614066 0.25128454877 0.23866813516 0.22578158644 0.20959338631 0.19353047592 0.17920596079 
0.16471892498 0.14763155852 0.13001763925 0.10248697556 0.074102671604 0.026255369763 -0.023106945811 -0.11602590623 -0.20916302409 
-0.31073556328 -0.40716500933 -0.20272350675 0 0 0 
FrenetTangent 3 240 double
-0.41210964319 -0.90856299522 0.06840267322 -0.41210964319 -0.90856299522 0.06840267322 -0.41210964319 -0.90856299522 0.06840267322 
-0.43970447061 -0.88646798663 0.12674069078 -0.4675331525 -0.8641857322 0.18557309831 -0.49346242397 -0.83777427907 0.22702243641 
-0.51935922689 -0.81129224134 0.26817462803 -0.54544169204 -0.78385368757 0.29327021174 -0.57152895879 -0.7563903963 0.31795053835 
-0.59940461385 -0.72917651894 0.32771682946 -0.62734247372 -0.70197131683 0.33696437151 -0.65788321279 -0.67501866106 0.33139789046 
-0.68853811323 -0.64807708189 0.32518167156 -0.7213499883 -0.62078009245 0.30318610664 -0.75427639299 -0.59346423167 0.28035270035 
-0.78692469908 -0.56509716894 0.24052876224 -0.81955562401 -0.53666440609 0.1996429159 -0.84707483728 -0.50712015357 0.14221758975 
-0.87422563889 -0.47749579369 0.083600229014 -0.89029540034 -0.44832479546 0.013040415541 -0.90545853122 -0.41919089045 -0.058496507702 
-0.90601611448 -0.39409667991 -0.13282843293 -0.90523373924 -0.36937308354 -0.20741678035 -0.89157936721 -0.35298684557 -0.27489831552 
-0.87661395847 -0.337449783 -0.3416560087 -0.85411739942 -0.33323969002 -0.39519597305 -0.83077622538 -0.33029991139 -0.44725357528 
-0.80487764718 -0.33961937248 -0.48453822287 -0.77866542506 -0.35044232522 -0.520011093 -0.75223561869 -0.37289404426 -0.54169398029 
-0.72577680108 -0.39689626547 -0.5615382032 -0.69878449509 -0.43083011095 -0.56928321836 -0.67171524365 -0.46619640224 -0.57528315548 
-0.64206934953 -0.50873625811 -0.5710718037 -0.61202320025 -0.5523904541 -0.56527423229 -0.57672194602 -0.59932366507 -0.55178957618 
-0.54054484096 -0.64680337853 -0.53702373929 -0.49687696643 -0.69292113604 -0.51820154487 -0.45187410327 -0.73879616873 -0.49865643524 
-0.39834730891 -0.77878861977 -0.4795673115 -0.34320096761 -0.8176633803 -0.46056482507 -0.27997293898 -0.84700660297 -0.44628224417 
-0.21511224624 -0.87442426243 -0.43295317955 -0.1442391156 -0.88976264728 -0.42691709201 -0.072077605425 -0.90251261614 -0.42244378527 
0.0022473147077 -0.90200373845 -0.42533230177 0.077062905139 -0.89848769969 -0.42989051014 0.14892204379 -0.88272910128 -0.43960105403 
0.22007286587 -0.86403738961 -0.45054601165 0.28361030092 -0.83680192444 -0.46331068827 0.345224354 -0.80740803733 -0.47653508338 
0.39699532871 -0.77471068776 -0.48854487384 0.44614846344 -0.74113475775 -0.50023163115 0.48610781785 -0.70890749595 -0.50870547794 
0.52349686808 -0.67705728118 -0.51628109168 0.55414487007 -0.64932866397 -0.5194571751 0.58281452095 -0.62280964605 -0.52134209202 
0.60769330859 -0.60141818581 -0.51775520925 0.63140567677 -0.58160443562 -0.51248469581 0.65410489404 -0.56679666606 -0.50004338442 
0.67647765157 -0.55360193471 -0.48529148259 0.70028288909 -0.54455591467 -0.46007921026 0.72457098503 -0.53690833665 -0.43134097035 
0.75202031344 -0.53156021733 -0.38548410665 0.78058325784 -0.5270221346 -0.33359681866 0.81078618525 -0.51993061837 -0.25144812356 
0.8415923248 -0.5118999082 -0.15816879596 0.85847512772 -0.48759727449 -0.016107787388 0.87001525496 -0.45705076314 0.14467177318 
0.82713456355 -0.38972663955 0.33822654752 0.76248554467 -0.30769147108 0.54489140738 0.64807271751 -0.20800609348 0.7017058374 
0.51292497024 -0.10096646208 0.83774925499 0.39168269858 -0.014851821 0.90942313422 0.27647171755 0.062186920667 0.95317769559 
0.19109905767 0.11735433694 0.97113663697 0.1191900305 0.16265298443 0.97745609127 0.067327521581 0.19521086323 0.97728330596 
0.024869552081 0.22179159128 0.97406477861 -0.0062046000039 0.24114858716 0.97004170046 -0.0317291411 0.25698401361 0.96562640378 
-0.05110851086 0.26826004696 0.96182409281 -0.067376401462 0.27722752684 0.95833215434 -0.080591087259 0.28286874872 0.9556951058 
-0.092200883351 0.28676155294 0.95350742247 -0.10254554321 0.28767277812 0.95217938272 -0.11220012876 0.28695768745 0.95132023946 
-0.12151081747 0.28295043474 0.95135223785 -0.13062693296 0.27708051139 0.9518884348 -0.13969129137 0.26718563034 0.95335894684 
-0.14872528564 0.25492944078 0.9553775904 -0.15752997326 0.2373386413 0.95833445259 -0.16619521765 0.21650382227 0.96186185314 
-0.1741272418 0.18860883423 0.96599483353 -0.18159723675 0.15626497256 0.97050941218 -0.18761333217 0.11515978998 0.97449716863 
-0.19268035429 0.068335411816 0.97814102726 -0.19544795675 0.011612789882 0.97891551694 -0.19666102196 -0.051801602486 0.97775015157 
-0.19479054208 -0.12407670316 0.97024949858 -0.19076158063 -0.20255429966 0.95831414425 -0.18340440522 -0.28513825725 0.93716310786 
-0.17363548055 -0.37069783883 0.90933404098 -0.16134451277 -0.45319423748 0.87269751551 -0.14716201265 -0.53339324893 0.82945539609 
-0.1320951051 -0.60483178328 0.78165351329 -0.11634179176 -0.66947114139 0.73031270964 -0.10122575782 -0.72388761389 0.67956523306 
-0.086621478541 -0.77009479946 0.62929421609 -0.073484313723 -0.80778027115 0.58286961022 -0.061565982456 -0.83838616517 0.53964048436 
-0.051330353569 -0.86299447207 0.50132418546 -0.042540797041 -0.88244860255 0.46722984723 -0.035295699573 -0.8980265487 0.43778863309 
-0.029423454602 -0.91015899767 0.41248352926 -0.024815209516 -0.91985608452 0.39108976736 -0.02136902884 -0.92731420943 0.37329191659 
-0.018826034507 -0.93323551994 0.35860000035 -0.017141807516 -0.93769559708 0.34686126777 -0.015917989944 -0.94116919296 0.3374974023 
-0.015146908299 -0.94367274893 0.3304688228 -0.014313253002 -0.94552590672 0.3252157881 -0.013415963481 -0.94671764265 0.32176839216 
-0.011871979374 -0.94746236738 0.31964040593 -0.0096478509588 -0.94773695965 0.31890007472 -0.006173459136 -0.9476886188 0.31910783099 
-0.0013391316765 -0.94728901736 0.32034684032 0.0052971521332 -0.94662137622 0.32221133004 0.013960636837 -0.94565219042 0.3247794852 
0.024837898884 -0.94438204228 0.3276987987 0.038291192748 -0.94276168342 0.33102673282 0.054158652616 -0.94072257681 0.33443388683 
0.072932053045 -0.93817942197 0.3379363981 0.094076922937 -0.93502779766 0.34124927004 0.11817494348 -0.93111845663 0.34432598734 
0.14436535373 -0.92637131515 0.34698052284 0.17325172766 -0.92054470001 0.34909109331 0.20379112068 -0.91365987367 0.3506022907 
0.23653453916 -0.90536409906 0.35131432397 0.27043257489 -0.89582474124 0.35133823062 0.30592398242 -0.88456923859 0.35041252252 
0.34207892642 -0.87193150575 0.34880895364 0.37918177965 -0.85731915835 0.34623701224 0.41652442286 -0.8412199165 0.34308785274 
0.4542217554 -0.82292130995 0.33908489147 0.49179981034 -0.80305569203 0.33468103499 0.52919514217 -0.78078954608 0.32966304117 
0.56618005149 -0.75687955238 0.32447860036 0.60251363816 -0.73036084379 0.31903001539 0.63816390841 -0.70215315691 0.31366241316 
0.67269050279 -0.67116803909 0.30842798254 0.70624079791 -0.63851868293 0.30352500036 0.73812694657 -0.60303255688 0.29918698713 
0.7687234691 -0.56601844484 0.29540950781 0.79704065243 -0.52630370641 0.29262273962 0.82371557166 -0.4854456815 0.29056777405 
0.84737967337 -0.44249163136 0.28985444662 0.86910657188 -0.39902421606 0.29002163041 0.8871480594 -0.35458015485 0.2918639331 
0.90313231051 -0.31036653209 0.2947122217 0.91505351972 -0.26660802527 0.29954733249 0.92502414886 -0.22384634143 0.30537875547 
0.93099358809 -0.18312942268 0.31325389573 0.9353133556 -0.14399907343 0.32202783097 0.93611671761 -0.10825062229 0.33271761863 
0.93565692036 -0.074339549333 0.34417010406 0.93239768909 -0.04450050368 0.35731289267 0.92826994697 -0.016456614954 0.37096665633 
0.92213980483 0.007448439741 0.38579850138 0.91549632787 0.029819708451 0.40081112472 0.90762084737 0.048509890795 0.41625761597 
0.89952220708 0.066061086322 0.43155837208 0.89086566732 0.080764814806 0.44649479031 0.8821990353 0.094805604347 0.46102141689 
0.87350610226 0.10711873483 0.47448010163 0.86495423628 0.11920150244 0.48733337044 0.85678589638 0.130657971 0.49854066469 
0.84884183072 0.14220861209 0.50904172688 0.84153441447 0.15402658163 0.51753800133 0.8344400213 0.16614189675 0.5253556087 
0.82797759656 0.17913933705 0.5311598371 0.82166761541 0.19242695942 0.53640255689 0.81583073507 0.2066151468 0.53990266373 
0.81009386769 0.22088933533 0.54300449135 0.80468204246 0.23544302755 0.54481191151 0.79932976582 0.24975740318 0.54645066936 
0.79418039553 0.26325632965 0.54751472601 0.78909591471 0.27609177209 0.54867846023 0.78424353853 0.28655398322 0.55019873344 
0.77952335519 0.2959231114 0.55204357966 0.77530021696 0.3011822477 0.55510882045 0.77125278471 0.30501489208 0.55867569382 
0.76790085532 0.3032010059 0.56422819619 0.76468723174 0.29974190425 0.57038748056 0.76205088458 0.28941581627 0.57907942026 
0.75942018229 0.27736969893 0.58835984137 0.75681436872 0.25773981579 0.60023493048 0.75397029704 0.23648997284 0.61258415771 
0.75001435422 0.20768031738 0.62714602947 0.74553860794 0.17756774548 0.64197534359 0.73848983459 0.14100573721 0.65812849743 
0.7307208093 0.103616006 0.67429883004 0.71916098432 0.061869838314 0.69055957724 0.70683231039 0.019824255061 0.70662387839 
0.69018953957 -0.023901382204 0.72158589894 0.6728936147 -0.067461326547 0.73621847981 0.65167876558 -0.11002711336 0.74887442267 
0.63002439944 -0.15215847944 0.76115161794 0.60554064251 -0.19149326215 0.77099062571 0.58084556279 -0.23035596517 0.78043637648 
0.55468531168 -0.26594558241 0.78715554542 0.5284867242 -0.30119549597 0.79346505441 0.50200061387 -0.33389763196 0.79670211373 
0.47558207454 -0.36647166535 0.79948418095 0.44971449873 -0.39800116981 0.79855631259 0.42397078731 -0.42960100334 0.79709965687 
0.3993315333 -0.46182793774 0.79092798055 0.37485269472 -0.49423313026 0.78414975393 0.35194884414 -0.52838849341 0.77141630614 
0.32924807718 -0.56268501546 0.7580496733 0.30876092174 -0.59852016964 0.7377813235 0.28852059387 -0.63431853768 0.71698034402 
0.27129704735 -0.66966729739 0.68966944624 0.25434399597 -0.70477335411 0.66205537487 0.24114406446 -0.73651190678 0.63023476992 
0.22819385119 -0.76789303423 0.59838384092 0.21923912978 -0.793555358 0.56604772693 0.21046112193 -0.81887216892 0.53388604305 
0.20501121951 -0.83768182098 0.5050094595 0.19964612318 -0.85623996597 0.4763781375 0.19621460581 -0.86906374937 0.45333877872 
0.19279699831 -0.8817423229 0.43050603581 0.18977929958 -0.89024611249 0.41361349898 0.18673227091 -0.89868760515 0.39683941292 
0.18255115134 -0.90472028294 0.38464542376 0.1783253095 -0.91073863459 0.37249096075 0.17148321464 -0.91591890691 0.362648778 
0.16469861638 -0.92105564752 0.35288930267 0.16469861638 -0.92105564752 0.35288930267 0.16469861638 -0.92105564752 0.35288930267 

FrenetNormal 3 240 double
-0.38747733798 0.24271012419 0.88935544535 -0.38747733798 0.24271012419 0.88935544535 -0.38747733798 0.24271012419 0.88935544535 
-0.40784626827 0.3235918059 0.84859439968 -0.42838781661 0.40515892559 0.80748792142 -0.47159297718 0.47646162932 0.73345825759 
-0.51518554991 0.54758887296 0.65886580426 -0.57637152438 0.60048170024 0.53328808289 -0.63801250061 0.65290294779 0.40639177701 
-0.68539977851 0.66574619237 0.22782162042 -0.73229127561 0.67721281076 0.047454112498 -0.72919840889 0.64530695017 -0.13332767404 
-0.72391324551 0.61149878787 -0.31412763069 -0.67531017853 0.5654847833 -0.44913035525 -0.62440704588 0.51882268091 -0.58170136837 
-0.55097016688 0.48187615955 -0.67067315583 -0.47612492874 0.44553686201 -0.75691999169 -0.38774874989 0.41955772917 -0.8136245474 
-0.29839736811 0.39432527486 -0.86819992977 -0.19992814321 0.37084094085 -0.90064188197 -0.10071291296 0.34749963487 -0.93127291717 
0.0017214162642 0.3139067675 -0.94318721763 0.10445107567 0.27937338991 -0.95338438647 0.20485924499 0.21953641799 -0.94649080883 
0.30503096624 0.15712222812 -0.93785650702 0.39865545901 0.04906420759 -0.90326180501 0.49154568316 -0.064112747219 -0.86575565624 
0.55912787263 -0.22932288472 -0.76838803567 0.62360624653 -0.40091445028 -0.66367891385 0.63016195061 -0.55205389773 -0.4950344739 
0.62899463205 -0.7004663961 -0.31786532486 0.6028061656 -0.76402420732 -0.1615699248 0.57300887975 -0.81534336173 -0.0082851616139 
0.56492747818 -0.81506078691 0.090971359486 0.56021941786 -0.8067624095 0.18183514395 0.58343625082 -0.77562086798 0.23263933648 
0.61130723265 -0.74067213246 0.27676693036 0.65955873831 -0.68957238357 0.28965860347 0.71144241653 -0.63559423626 0.29698347882 
0.7721489647 -0.56412328598 0.27473143358 0.83453185816 -0.48932870314 0.24685977343 0.88871232397 -0.39649526814 0.19499820726 
0.94123573368 -0.30001762058 0.13829019542 0.96998981067 -0.19264541445 0.073809769801 0.99365045921 -0.082938660059 0.0076638269436 
0.99128623507 0.025509669331 -0.048839310478 0.98301946249 0.13367258274 -0.10315541986 0.95719895777 0.23124725924 -0.14008602331 
0.9271728714 0.32628517065 -0.17285134928 0.89016652202 0.40608328294 -0.18854837075 0.85139673777 0.4820313407 -0.1999333995 
0.81537550269 0.54111385144 -0.19549654489 0.78008526473 0.59571084435 -0.18685174259 0.75634607962 0.63264850162 -0.15888160355 
0.73583622111 0.66464914032 -0.12550868221 0.73341779391 0.67309632279 -0.059023494095 0.7363088085 0.67463107789 0.017179424478 
0.74729461651 0.63109974856 0.14390297573 0.76077113017 0.5737019317 0.28617133703 0.74091966625 0.46596416235 0.44107389313 
0.71032918733 0.34200574162 0.60004746755 0.64933646871 0.237510701 0.70744972241 0.57809580413 0.1395763503 0.79746838641 
0.5036601026 0.09318129696 0.85418884712 0.4280988767 0.064942132457 0.89917925894 0.33876946375 0.077356869858 0.93244223568 
0.24437589004 0.10472476658 0.96139167307 0.11150801915 0.16437561965 0.96719415835 -0.03612324484 0.23641411876 0.96411467362 
-0.21575134175 0.31927933946 0.89551532276 -0.40817817182 0.40647524878 0.80070802545 -0.55986318083 0.46276417835 0.65424872232 
-0.69457243106 0.50617519967 0.48626775011 -0.76879339064 0.52363995536 0.33966772689 -0.81677846511 0.52985090908 0.2023413683 
-0.83700088165 0.53158002494 0.10046909408 -0.8446962452 0.5312868481 0.014594394506 -0.84470292661 0.53083472877 -0.047838493411 
-0.84110257196 0.53030804382 -0.099273988206 -0.84032902111 0.52403745604 -0.13564857822 -0.84093353713 0.51496671564 -0.16468097714 
-0.85643524212 0.48144124652 -0.17977799517 -0.87947982761 0.43553363627 -0.18781912413 -0.91635235653 0.33500324703 -0.17639313726 
-0.96049341982 0.20576088422 -0.15473443567 -0.96698996744 0.0060887899324 -0.10596174002 -0.95295314287 -0.23199952152 -0.04239959307 
-0.87469327483 -0.43612029589 0.017924699885 -0.76009668482 -0.62102259535 0.07641704913 -0.64505176046 -0.74331785162 0.11375142826 
-0.52974381327 -0.82888364255 0.13867313158 -0.42865963351 -0.88617387391 0.14896951792 -0.33622504205 -0.92626950823 0.15037213041 
-0.25872057768 -0.95343053769 0.13949985024 -0.1906241386 -0.97244099422 0.1208927062 -0.13288992274 -0.98520232655 0.090830462256 
-0.081919935927 -0.99388436948 0.053290583643 -0.037904217282 -0.9972590072 0.004258256605 0.0014100242913 -0.99704553999 -0.052543613029 
0.036227145704 -0.98942351639 -0.11925691372 0.067896283005 -0.97661550332 -0.19290821614 0.096223043715 -0.95404197368 -0.27144297527 
0.1221277924 -0.92439198277 -0.35351647116 0.1445975042 -0.88567539764 -0.43320043568 0.16449093832 -0.84015886684 -0.51109225169 
0.18090139386 -0.79007452181 -0.58077645505 0.19460864215 -0.73644500751 -0.64409057099 0.20515423385 -0.6835955705 -0.69762171635 
0.21316091949 -0.63137255919 -0.74329683987 0.21801486137 -0.58332527482 -0.78092588363 0.22024960076 -0.5387470559 -0.81187049188 
0.21929278624 -0.49946513027 -0.83734066903 0.2155932301 -0.4647347067 -0.85810625695 0.20803085706 -0.43504037453 -0.87561587977 
0.19703486901 -0.40982256804 -0.89023131137 0.18145186365 -0.38879173883 -0.90293454248 0.16165176174 -0.37161022745 -0.9138797828 