# vtk DataFile Version 5.1
vtk output
ASCII
DATASET POLYDATA
POINTS 240 float
0 0 0 0.141744 -0.425393 -0.0435929 0.283488 -0.850787 -0.0871857 
0.341619 -1.22355 -0.09714 0.399041 -1.59587 -0.106809 0.383201 -1.91963 -0.0841754 
0.366108 -2.24257 -0.0609893 0.286159 -2.52112 -0.00709821 0.204584 -2.79853 0.047587 
0.0709588 -3.03614 0.130542 -0.064477 -3.27235 0.214481 -0.240388 -3.47409 0.322488 
-0.418075 -3.67432 0.43155 -0.623819 -3.84633 0.557734 -0.831052 -4.01684 0.684826 
-1.05341 -4.16625 0.818645 -1.27671 -4.31434 0.952883 -1.5024 -4.44891 1.08027 
-1.72827 -4.5825 1.20717 -1.94475 -4.71007 1.31209 -2.16046 -4.83714 1.41521 
-2.35662 -4.96512 1.48238 -2.551 -5.09318 1.54624 -2.71771 -5.2282 1.56434 
-2.88161 -5.36392 1.57778 -3.01204 -5.51165 1.54211 -3.13871 -5.66071 1.50093 
-3.2284 -5.82581 1.41426 -3.31356 -5.99287 1.32201 -3.36061 -6.17883 1.19372 
-3.40258 -6.36732 1.06062 -3.40782 -6.57602 0.904181 -3.40776 -6.78764 0.744378 
-3.37494 -7.0188 0.573913 -3.33702 -7.253 0.401793 -3.27266 -7.50371 0.228646 
-3.20389 -7.75716 0.055328 -3.11663 -8.02166 -0.114262 -3.02607 -8.28813 -0.283187 
-2.92534 -8.55822 -0.448902 -2.82268 -8.82899 -0.614008 -2.71707 -9.09484 -0.780788 
-2.61086 -9.35969 -0.947906 -2.50657 -9.61112 -1.12402 -2.40268 -9.85967 -1.30207 
-2.3025 -10.0876 -1.49655 -2.20317 -10.3108 -1.69476 -2.10641 -10.5086 -1.91468 
-2.01026 -10.7003 -2.1398 -1.91355 -10.865 -2.38803 -1.8167 -11.0229 -2.64211 
-1.71568 -11.1559 -2.91588 -1.61355 -11.2822 -3.19489 -1.50477 -11.389 -3.48512 
-1.39413 -11.4903 -3.77849 -1.27668 -11.5798 -4.07024 -1.15724 -11.666 -4.3615 
-1.03352 -11.7494 -4.63522 -0.908499 -11.8319 -4.90353 -0.784045 -11.9199 -5.13724 
-0.659775 -12.0095 -5.3598 -0.542136 -12.1098 -5.532 -0.426734 -12.2136 -5.68722 
-0.324016 -12.3292 -5.78021 -0.225766 -12.4488 -5.85127 -0.145263 -12.5766 -5.85433 
-0.0712877 -12.7074 -5.83238 -0.0186312 -12.839 -5.7439 0.0258447 -12.9711 -5.62988 
0.0470472 -13.0947 -5.45801 0.0589405 -13.2149 -5.26299 0.0471406 -13.3171 -5.02448 
0.0254686 -13.4117 -4.76785 -0.018853 -13.48 -4.48528 -0.0729984 -13.5367 -4.19147 
-0.147332 -13.561 -3.88944 -0.230775 -13.5706 -3.58371 -0.330626 -13.5445 -3.28481 
-0.438174 -13.5016 -2.98912 -0.557296 -13.4225 -2.71059 -0.68206 -13.3259 -2.44043 
-0.813072 -13.1957 -2.1921 -0.947248 -13.0485 -1.95481 -1.08261 -12.8729 -1.73849 
-1.21859 -12.6823 -1.53318 -1.35165 -12.4705 -1.34351 -1.48312 -12.2471 -1.16238 
-1.60881 -12.0111 -0.988943 -1.73123 -11.7679 -0.819864 -1.84612 -11.5208 -0.649936 
-1.95658 -11.2715 -0.479511 -2.05834 -11.0265 -0.30098 -2.15481 -10.7842 -0.117518 
-2.24144 -10.5532 0.0786064 -2.32187 -10.3293 0.282711 -2.39115 -10.1222 0.50063 
-2.45313 -9.92585 0.727568 -2.50257 -9.7503 0.966196 -2.54353 -9.58878 1.21273 
-2.57105 -9.45137 1.46638 -2.58915 -9.33084 1.72503 -2.59406 -9.23751 1.98505 
-2.58941 -9.16391 2.24606 -2.57342 -9.12044 2.50286 -2.54894 -9.09956 2.75649 
-2.5167 -9.11102 3.00158 -2.47843 -9.14758 3.24003 -2.43724 -9.21708 3.46754 
-2.3937 -9.31304 3.68626 -2.35248 -9.44026 3.89375 -2.31319 -9.59345 4.09191 
-2.28083 -9.77384 4.28037 -2.25441 -9.97758 4.46051 -2.2379 -10.2025 4.6338 
-2.2302 -10.4462 4.80102 -2.23318 -10.7041 4.96481 -2.24598 -10.9751 5.12546 
-2.26794 -11.2536 5.28597 -2.29862 -11.5393 5.44635 -2.33506 -11.8269 5.60909 
-2.37719 -12.1164 5.77414 -2.42071 -12.404 5.94289 -2.46564 -12.6898 6.11541 
-2.50753 -12.972 6.29172 -2.54623 -13.2504 6.47202 -2.57828 -13.5252 6.65518 
-2.6031 -13.796 6.84146 -2.61904 -14.0641 7.02911 -2.62499 -14.3292 7.2183 
-2.62137 -14.5932 7.40732 -2.6066 -14.8559 7.59616 -2.58286 -15.1189 7.78371 
-2.5483 -15.382 7.96969 -2.5061 -15.6461 8.15387 -2.45437 -15.9114 8.33581 
-2.39648 -16.1777 8.51612 -2.33064 -16.4451 8.69431 -2.2598 -16.7128 8.87151 
-2.18227 -16.9808 9.04739 -2.10034 -17.248 9.22315 -2.01231 -17.514 9.39874 
-1.91992 -17.778 9.57501 -1.82129 -18.039 9.75223 -1.71796 -18.297 9.93062 
-1.60769 -18.5505 10.1107 -1.49225 -18.8005 10.2921 -1.36889 -19.0448 10.4753 
-1.23992 -19.2854 10.6596 -1.10207 -19.52 10.8454 -0.958386 -19.7508 11.0318 
-0.805098 -19.9757 11.219 -0.646 -20.1971 11.4063 -0.476999 -20.4127 11.5935 
-0.302502 -20.6251 11.7805 -0.118289 -20.8317 11.9668 0.0708614 -21.035 12.1528 
0.269062 -21.232 12.3381 0.471476 -21.4251 12.5233 0.681902 -21.6107 12.7082 
0.895765 -21.7916 12.8934 1.11641 -21.963 13.0791 1.33979 -22.1283 13.2656 
1.56875 -22.2812 13.4536 1.79985 -22.4266 13.6427 2.03553 -22.5563 13.8341 
2.27294 -22.6773 14.0267 2.5142 -22.7793 14.222 2.75694 -22.8718 14.4184 
3.00308 -22.9425 14.6172 3.25054 -23.0034 14.8166 3.50117 -23.0409 15.0177 
3.75301 -23.0689 15.2188 4.00788 -23.0735 15.4202 4.26389 -23.0697 15.6211 
4.52285 -23.0438 15.8204 4.78286 -23.0108 16.0186 5.04572 -22.9586 16.2135 
5.30951 -22.9009 16.4066 5.57596 -22.8276 16.5948 5.8432 -22.7504 16.7808 
6.11278 -22.6615 16.9607 6.38295 -22.5701 17.1382 6.65497 -22.4708 17.3088 
6.92734 -22.37 17.4772 7.20082 -22.2644 17.6388 7.47437 -22.1581 17.7986 
7.74812 -22.0493 17.9527 8.02163 -21.9403 18.1057 8.2943 -21.8302 18.2549 
8.56648 -21.7201 18.4039 8.83681 -21.6101 18.5519 9.10647 -21.5002 18.7005 
9.3735 -21.3909 18.8514 9.63982 -21.2819 19.0036 9.90314 -21.174 19.1612 
10.1658 -21.0666 19.3207 10.4257 -20.9609 19.4882 10.6852 -20.8559 19.6577 
10.9424 -20.7538 19.8369 11.1994 -20.6527 20.0181 11.4548 -20.5564 20.2094 
11.7101 -20.4615 20.4026 11.9642 -20.3742 20.6055 12.218 -20.289 20.8099 
12.4702 -20.2153 21.023 12.7219 -20.1443 21.2373 12.9704 -20.0899 21.4586 
13.2179 -20.0391 21.6807 13.4594 -20.0108 21.9079 13.6995 -19.9868 22.1355 
13.93 -19.9917 22.3657 14.1587 -20.0013 22.5959 14.3734 -20.0457 22.826 
14.5859 -20.095 23.0557 14.78 -20.1835 23.2823 14.9716 -20.2768 23.5083 
15.1407 -20.4114 23.7286 15.307 -20.5501 23.9482 15.4471 -20.7296 24.1604 
15.5845 -20.9124 24.3718 15.6927 -21.132 24.5752 15.7983 -21.354 24.7779 
15.8725 -21.6062 24.973 15.9444 -21.8599 25.1676 15.9835 -22.1348 25.3563 
16.0206 -22.4104 25.5447 16.0241 -22.6967 25.7294 16.0257 -22.9829 25.9141 
15.9931 -23.2683 26.0978 15.9589 -23.5532 26.2817 15.8896 -23.8254 26.4675 
15.8191 -24.0966 26.6535 15.7124 -24.3431 26.8444 15.6048 -24.5885 27.0356 
15.4597 -24.7968 27.2345 15.314 -25.0041 27.4335 15.1294 -25.1619 27.6434 
14.9445 -25.3193 27.8534 14.7193 -25.4144 28.077 14.4941 -25.5095 28.3006 

LINES 2 240
OFFSETS vtktypeint64
0 240 
CONNECTIVITY vtktypeint64
0 1 2 3 4 5 6 7 8 
9 10 11 12 13 14 15 16 17 
18 19 20 21 22 23 24 25 26 
27 28 29 30 31 32 33 34 35 
36 37 38 39 40 41 42 43 44 
45 46 47 48 49 50 51 52 53 
54 55 56 57 58 59 60 61 62 
63 64 65 66 67 68 69 70 71 
72 73 74 75 76 77 78 79 80 
81 82 83 84 85 86 87 88 89 
90 91 92 93 94 95 96 97 98 
99 100 101 102 103 104 105 106 107 
108 109 110 111 112 113 114 115 116 
117 118 119 120 121 122 123 124 125 
126 127 128 129 130 131 132 133 134 
135 136 137 138 139 140 141 142 143 
144 145 146 147 148 149 150 151 152 
153 154 155 156 157 158 159 160 161 
162 163 164 165 166 167 168 169 170 
171 172 173 174 175 176 177 178 179 
180 181 182 183 184 185 186 187 188 
189 190 191 192 193 194 195 196 197 
198 199 200 201 202 203 204 205 206 
207 208 209 210 211 212 213 214 215 
216 217 218 219 220 221 222 223 224 
225 226 227 228 229 230 231 232 233 
234 235 236 237 238 239 
CELL_DATA 1
FIELD FieldData 3
Length 1 1 double
73.877148173 
Tortuosity 1 1 double
0.81229507715 
ClusterLabel 1 1 int
2 
POINT_DATA 240
FIELD FieldData 6
Curvature 1 240 double
0 0.11026166332 0.22052332663 0.2734407292 0.32587216345 0.37316327087 0.42036650945 0.43147870164 0.44165750471 
0.40812788759 0.37307797759 0.31941277903 0.26493112043 0.21340932564 0.16204469177 0.12262345165 0.083948673639 0.092713199744 
0.1048967748 0.17548966215 0.25086149324 0.37340738736 0.50028117718 0.63854861112 0.7779765088 0.8083334194 0.82645806976 
0.72546749085 0.60986844043 0.49557482154 0.38145526018 0.30871170014 0.24193583261 0.20090262765 0.16386828289 0.13597032353 
0.10959509507 0.084809482889 0.060307168656 0.045429057506 0.032379544941 0.052798898511 0.079979639178 0.11369968088 0.14882100137 
0.17820548529 0.20628883102 0.21791386921 0.22559577121 0.21451898764 0.19870316772 0.17265933987 0.14389529713 0.11543246927 
0.087053852002 0.077084573619 0.072518035995 0.10753601259 0.15473383971 0.2539852544 0.37000949174 0.61805361003 0.91059881178 
1.3593713009 1.8631784026 1.9334148017 1.8441769194 1.4891263926 1.0320779904 0.75029216071 0.53861135994 0.42447482688 
0.35098173869 0.31450756297 0.29408978302 0.28937254226 0.29173969114 0.29927567024 0.30923653265 0.3136973347 0.31547685733 
0.30427468727 0.28649950825 0.25630526707 0.21958305731 0.17898439409 0.13627130171 0.10308898965 0.075299092764 0.075422238093 
0.091921034852 0.11650500276 0.1460056288 0.17236926215 0.19675616037 0.21740022749 0.23560105763 0.25308105255 0.27007372226 
0.29086894908 0.31432596589 0.34502948722 0.38098409879 0.42145880477 0.46532358156 0.49896331154 0.5246671843 0.52410219353 
0.50244250933 0.46029767145 0.40113439822 0.34022643796 0.2778191373 0.22341008477 0.17611058613 0.13681697744 0.10488362243 
0.079165327248 0.059356433225 0.046752087841 0.041232215287 0.042138898837 0.04958106317 0.05842061143 0.068729822096 0.078054718155 
0.08630895622 0.092424314973 0.096133434499 0.09739875569 0.09582038427 0.092357363496 0.086625783314 0.080015974035 0.072312520977 
0.065001698391 0.058196765069 0.053111036965 0.050317582486 0.049792991735 0.05239943293 0.056080678615 0.061297359289 0.06646942203 
0.071575487411 0.07595859864 0.079234205635 0.081703995927 0.082894990148 0.083432167928 0.082894180894 0.081922651424 0.080212129168 
0.078458734297 0.076629564573 0.075129604797 0.074233196595 0.074340359117 0.07635675375 0.07984563617 0.086242681969 0.093629692859 
0.10304740137 0.11288450199 0.12361557 0.13389461705 0.14317188793 0.15117531215 0.15624181216 0.15944319427 0.15816829345 
0.15535721316 0.1487056842 0.14098854411 0.13049435681 0.11975027665 0.1083268003 0.097208779663 0.086957859106 0.077172743049 
0.068769513676 0.060747798675 0.053910093796 0.047079637718 0.040272740248 0.033300456014 0.025764631695 0.01814119664 0.010204384722 
0.0055291168959 0.013117254861 0.020947391624 0.029735440294 0.038048715206 0.044380325741 0.050138169072 0.053366220641 0.056305724959 
0.05789867544 0.059608379669 0.061896014944 0.064648755368 0.069849417633 0.075692694385 0.085141752426 0.09526012418 0.10939437821 
0.12406243799 0.14216687223 0.16074705087 0.18262572394 0.20444952533 0.22586178912 0.24658919753 0.26173240053 0.27566734272 
0.278828626 0.28074262573 0.27041056866 0.25945805295 0.24174253808 0.22397665374 0.20559514264 0.18760016788 0.17496838482 
0.16284894617 0.15892701804 0.15554228143 0.16227465174 0.16944513833 0.18660467601 0.20407953094 0.2306197569 0.25723182136 
0.28662164129 0.31586563569 0.33657883649 0.3556237593 0.17781187965 0 
Torsion 1 240 double
0 0 0 -0.026243500994 -0.05270940454 -0.054754255199 -0.056381651964 -0.055789685266 -0.055140321237 
-0.047537882754 -0.039693598203 -0.0063911247384 0.028027935959 0.16331159827 0.30395090314 1.0169258378 1.7656717493 1.6621011185 
1.4971022685 0.99068628291 0.45633616808 0.32768108806 0.236245736 0.21837281433 0.20799236242 0.23052839769 0.25675600163 
0.31676659772 0.38092039097 0.44811873575 0.51572302073 0.52574366702 0.5274589808 0.46530822022 0.39323651605 0.28547439418 
0.17176386936 -0.11060605175 -0.4230340831 -1.4280680262 -2.5646970925 -1.7179610556 -0.47054519978 -0.13405924973 0.0072274347913 
0.062077472 0.097323321157 0.1220325633 0.14421741001 0.17638229091 0.21106844361 0.29120360613 0.38342627127 0.70256870726 
1.0851510792 1.465975189 1.846283287 1.4348088537 0.77970902599 0.47280093422 0.27808795734 0.16689322164 0.083850702059 
0.040459609606 0.011036633527 -0.0049903868905 -0.016090159248 -0.027606488081 -0.039282658352 -0.041828050644 -0.040721131744 -0.036338306031 
-0.030590519145 -0.030871754381 -0.033767987164 -0.041860783786 -0.05229837141 -0.06386665569 -0.075965390254 -0.089118563938 -0.10278577669 
-0.12224446704 -0.1446355511 -0.1889344965 -0.24474911262 -0.40010214488 -0.60974885867 -1.1326463784 -1.8327779066 -1.6779700738 
-1.0215978159 -0.59975420522 -0.32052936659 -0.16539117697 -0.088444574404 -0.043576874116 -0.019649568373 -0.015346393055 -0.02431023549 
-0.048640826779 -0.083728142265 -0.12233535432 -0.16349321605 -0.19614615012 -0.22242038845 -0.2413100659 -0.25446844237 -0.26828996947 
-0.28264402664 -0.30213427102 -0.32589150169 -0.35540375843 -0.38986174069 -0.43286039278 -0.48345075137 -0.56319220998 -0.66973387344 
-0.86667803275 -1.1495786635 -1.3634180487 -1.509347209 -1.4007531112 -1.0333218018 -0.7646134533 -0.5997344256 -0.48215062054 
-0.41601074186 -0.3623012127 -0.32257582674 -0.28516674315 -0.25045299322 -0.20994979298 -0.16247780996 -0.098664576255 -0.014501860576 
0.088018897477 0.21419328705 0.32175290172 0.4044928165 0.4199044026 0.3424028951 0.25475455492 0.15261073948 0.067327204829 
0.0069828354978 -0.042263666007 -0.074509178502 -0.098441438419 -0.10918092794 -0.11077390895 -0.097325964853 -0.074779887409 -0.036725628124 
0.0086466657616 0.066953160337 0.12479148492 0.18177149784 0.22667397422 0.24859967376 0.25244125367 0.22056669735 0.18437654906 
0.13933390441 0.097091412621 0.060817667724 0.028076058052 0.003162423742 -0.018889724716 -0.034344558569 -0.049655476247 -0.064620995103 
-0.080257095152 -0.097569648183 -0.11576189145 -0.13624666077 -0.15785470946 -0.18251667394 -0.20724706738 -0.23217171079 -0.25328943169 
-0.26311328251 -0.2654794181 -0.24470092026 -0.21744224884 -0.16912301333 -0.10182130793 0.030161405944 0.89428729473 4.3772330015 
6.4175701959 3.0336993841 0.31289651106 0.21673756195 0.14020903196 0.14561616436 0.1556371597 0.18600109617 0.21795020841 
0.25729680759 0.29200994641 0.30378745647 0.30883250031 0.27844351139 0.24535136263 0.19709148367 0.1508501782 0.11672031374 
0.084293662139 0.062831443283 0.042244519178 0.02772630535 0.013623267918 0.0026340534568 -0.0085704582606 -0.021530470685 -0.034807991694 
-0.050916630905 -0.067531364187 -0.089115021075 -0.11149011525 -0.1424918758 -0.17429890546 -0.21594811314 -0.25768253299 -0.30059927181 
-0.34220177087 -0.36277643395 -0.38110707102 -0.35717521838 -0.33248709559 -0.29055601347 -0.24876403937 -0.21097142086 -0.17344830142 
-0.14634581258 -0.11869716391 -0.059098165999 0 0 0 
FrenetTangent 3 240 double
0.241729039 -0.96818808878 -0.064644384462 0.241729039 -0.96818808878 -0.064644384462 0.241729039 -0.96818808878 -0.064644384462 
0.15096767477 -0.9829730192 -0.023147009337 0.059437146429 -0.99788324564 0.018702038458 -0.049194470867 -0.98865783077 0.072056969621 
-0.15811841447 -0.97901984084 0.12560858255 -0.2661048076 -0.93760271094 0.18243914678 -0.37406695373 -0.89536370674 0.23935451148 
-0.45992813935 -0.83173563004 0.28788033602 -0.5450205959 -0.7673635856 0.33611435047 -0.6011611976 -0.70258578444 0.36964271374 
-0.65603198111 -0.63779018694 0.40252609232 -0.68888320132 -0.58728321325 0.42041304011 -0.72056524119 -0.53753492755 0.43750371723 
-0.74003798854 -0.50743283404 0.4400725901 -0.75874765511 -0.47855862755 0.4417338502 -0.77194941532 -0.47067192014 0.42672365783 
-0.78475420929 -0.46429782528 0.41051191934 -0.79343048933 -0.48013018477 0.37130828237 -0.80176898187 -0.49777943597 0.33022349007 
-0.79832634246 -0.53797822909 0.25581574431 -0.79380286525 -0.58024578753 0.17835084685 -0.75684179127 -0.63575691988 0.063096211671 
-0.71657688799 -0.69261693476 -0.056007378281 -0.62870093287 -0.73667328606 -0.18570010447 -0.53548542053 -0.77929371249 -0.31658039734 
-0.42054829842 -0.79486680575 -0.41142207464 -0.3029472053 -0.80712277325 -0.50184392172 -0.19909830623 -0.8065688501 -0.54592480745 
-0.097083033035 -0.80430694153 -0.58382689834 -0.017913950383 -0.8023746442 -0.59173483172 0.057960008634 -0.80048988696 -0.5953166847 
0.11452290268 -0.80156221958 -0.58426584238 0.16808601965 -0.80309390598 -0.57094196 0.20656671559 -0.80582102629 -0.55351044777 
0.24253367469 -0.80874738559 -0.53539433057 0.26662581727 -0.81046056456 -0.52096063237 0.28860165591 -0.81195753318 -0.50718320687 
0.30150214633 -0.80988422153 -0.50303947538 0.31267832058 -0.80713255662 -0.50072614575 0.31746016764 -0.79802694308 -0.5119225288 
0.32095023143 -0.78763770356 -0.52584814673 0.32057748462 -0.76740194497 -0.55397445233 0.31937699269 -0.74505621802 -0.58514376242 
0.31673349021 -0.71001697961 -0.62634654429 0.31376270699 -0.67209880046 -0.66982495893 0.31167055541 -0.62286629435 -0.71437637427 
0.30978890933 -0.57092306408 -0.75918486269 0.31077230582 -0.51529897754 -0.79600559904 0.31247950255 -0.45874499048 -0.83080837697 
0.31820408139 -0.40848891729 -0.85392140759 0.32499711293 -0.35990782119 -0.87392546287 0.33599519923 -0.3246110707 -0.88351211579 
0.34816889223 -0.29302822328 -0.89018637666 0.36438956811 -0.27831920384 -0.8884602131 0.38179794548 -0.26856228609 -0.8842687076 
0.40350924993 -0.27856326633 -0.87096818888 0.42654453196 -0.29464359981 -0.85486489686 0.45457670097 -0.33561727144 -0.82235193902 
0.48421897801 -0.38461212981 -0.78455142221 0.51624471216 -0.46635540133 -0.70634505515 0.5490738588 -0.55913746381 -0.61451873858 
0.55827687484 -0.66803079105 -0.43187360334 0.55915704942 -0.78259967747 -0.21723547516 0.49105601231 -0.81746142286 0.053842821615 
0.3975825755 -0.82300559914 0.34568072063 0.28827148274 -0.753149129 0.54911503009 0.1728831499 -0.65435985268 0.71862703192 
0.083202532816 -0.55622518245 0.8153435629 0.0038050020254 -0.45835235466 0.88294190553 -0.058947073379 -0.37100022376 0.92143965065 
-0.11476354237 -0.28803171656 0.94781214681 -0.1631592276 -0.20887524682 0.96039162062 -0.20833625961 -0.13137219092 0.96698857872 
-0.24978474777 -0.052386460257 0.96311482584 -0.28955084419 0.027268282194 0.95451648387 -0.32530445476 0.11022747581 0.93486809064 
-0.35917566455 0.19473690578 0.91003572276 -0.38620402439 0.27968813757 0.87410914778 -0.40989649488 0.36485474774 0.83277414685 
-0.42404130144 0.44383289966 0.78460855273 -0.43335184778 0.51967765499 0.73298443041 -0.43345636 0.58338876542 0.68316973125 
-0.42872180302 0.64072193429 0.63430613912 -0.41802787044 0.68427454324 0.59559781176 -0.40408336936 0.72031048314 0.56242871974 
-0.38751282944 0.7441228399 0.54357981945 -0.3694565044 0.76101922198 0.53283313292 -0.35038060903 0.7675052497 0.53638508286 
-0.33070656574 0.76788386952 0.5483255662 -0.30990672958 0.75878522086 0.57168406875 -0.28842228966 0.74392336839 0.60198596137 
-0.26488276818 0.72018620124 0.63909216515 -0.24004826379 0.69085637005 0.68048601704 -0.21236635702 0.65360139069 0.72371308451 
-0.18282572924 0.61117305074 0.76813683437 -0.1503076135 0.56165072685 0.81058196842 -0.11577654816 0.50733247015 0.85168944672 
-0.078911866624 0.44539413807 0.88849541433 -0.040413653751 0.37812175321 0.92229032447 -0.0011898845033 0.30089941918 0.94964107969 
0.038559650234 0.21646697706 0.97232215744 0.075747107442 0.1199984251 0.98472575733 0.1110130065 0.014502790754 0.98942124882 
0.13846726888 -0.099652770217 0.97889069193 0.15985876846 -0.22052946827 0.95654290346 0.16903719048 -0.33825213632 0.91885634311 
0.16840814113 -0.45344202271 0.86885228414 0.15648668622 -0.55335053001 0.81228421323 0.13518384823 -0.64056373776 0.75026296317 
0.10787414393 -0.709687645 0.69228032318 0.075402288899 -0.76326605962 0.63776836372 0.042069866335 -0.8029509764 0.59238211842 
0.0079724948536 -0.83028611734 0.55510761907 -0.023699606922 -0.84880584993 0.52718269102 -0.053142025257 -0.85922109421 0.50785333658 
-0.078213827622 -0.86450538225 0.49614739491 -0.099129962344 -0.86491105618 0.49168994406 -0.11450207668 -0.86263056024 0.49258104622 
-0.12442257098 -0.85770866393 0.49873155884 -0.12825584746 -0.85177984805 0.50781105423 -0.12589873294 -0.84482704617 0.51986917617 
-0.11766808099 -0.83802301696 0.53249902626 -0.10326008794 -0.83137545554 0.54573017662 -0.084120173561 -0.82556568313 0.55752899427 
-0.059833257031 -0.82066718999 0.56776983597 -0.032788018705 -0.81687033774 0.57530058197 -0.0026396683584 -0.81431283151 0.57978247029 
0.027975640564 -0.81271282064 0.58139411321 0.059134319464 -0.8122269862 0.57966583419 0.088954436728 -0.81229166881 0.57591724244 
0.11716332239 -0.81301901084 0.56973679275 0.1432367421 -0.8137652653 0.56289100056 0.16665090231 -0.81453507109 0.55521666864 
0.18812743777 -0.81477421888 0.54815743119 0.20710741826 -0.81432963424 0.54189071931 0.22493772339 -0.81291620627 0.53700953604 
0.24123512804 -0.8102109872 0.53397572423 0.25730755053 -0.80624177515 0.53252145408 0.27306949762 -0.80052825281 0.53324695142 
0.2893104382 -0.79348318855 0.53519525459 0.30623565518 -0.78453592158 0.53889042325 0.32398246725 -0.77440953272 0.54312505878 
0.34294455539 -0.76253902607 0.54815765573 0.36270937015 -0.74980285997 0.55300758009 0.38370389378 -0.73574057724 0.55757766562 
0.40521405742 -0.72122882705 0.56139853573 0.42754251935 -0.70600379155 0.56403043355 0.44999180784 -0.69068173554 0.56568731668 
0.47263978892 -0.67520013469 0.56574084229 0.49500911774 -0.65977285022 0.56500461465 0.51690347115 -0.64443815049 0.56292221671 
0.53824430201 -0.62904397766 0.56053717775 0.55860681396 -0.61354468959 0.5576172384 0.57829397153 -0.59765518795 0.55499719464 
0.59674297941 -0.58105029476 0.55292695947 0.61454824184 -0.56359601001 0.55165558156 0.63112881783 -0.54452580964 0.55190398085 
0.64722018451 -0.52402061983 0.55323312715 0.66234536281 -0.50068132589 0.55669674881 0.67711798979 -0.47537982319 0.56117650973 
0.69116743459 -0.44605327686 0.56774065888 0.70486873784 -0.41446417878 0.5749216333 0.7178279499 -0.37805227299 0.58341741947 
0.73030549122 -0.33942684836 0.59189268759 0.74171554603 -0.2958957874 0.60032248326 0.75244155392 -0.25072211139 0.60800615984 
0.76159045362 -0.2017612951 0.61396961741 0.76990089161 -0.15223319867 0.61866834411 0.77619902151 -0.1013436299 0.62033171672 
0.781749353 -0.051101987953 0.62054861717 0.78543018844 -0.002480163082 0.61714933719 0.7886632228 0.044527486031 0.61246650485 
0.79072926036 0.087328495289 0.60443865729 0.79268573197 0.12799678392 0.59551294695 0.79434432114 0.16286673834 0.58414617216 
0.79613573298 0.19557093611 0.57229083404 0.79830418985 0.22212717949 0.5590486065 0.80069242148 0.24676354085 0.54566674213 
0.80373265157 0.26570425225 0.53187062183 0.80691617186 0.28311561776 0.5182506066 0.81054438584 0.29578073744 0.50517712434 
0.81413683121 0.30732552078 0.49259601573 0.81761302859 0.315229211 0.48161512153 0.82085577577 0.32237616976 0.47141878068 
0.82330306298 0.32694463616 0.46389573276 0.82535393106 0.33100471275 0.45740748753 0.82598683837 0.33324631813 0.4546206519 
0.82613336769 0.33511445503 0.45298790565 0.8244511158 0.33557835046 0.45569453542 0.82227804504 0.33571992174 0.45947872538 
0.81816214961 0.33458562658 0.46752825776 0.81365580219 0.33307788857 0.47639677286 0.80751974214 0.33001143255 0.48868365059 
0.80117846426 0.32649592673 0.50141105598 0.79393236235 0.32100051955 0.51608078793 0.78668468855 0.31496404679 0.53085661711 
0.77942967931 0.30640260127 0.54612756675 0.77232685388 0.29717221569 0.56131223335 0.76597733833 0.28463057681 0.57606979891 
0.75982242851 0.27127226827 0.59069791346 0.75469175935 0.2536156984 0.6046447069 0.74967914177 0.23494951014 0.61851246493 
0.7453289247 0.21061824096 0.63193674645 0.7409157097 0.18504039244 0.64533695259 0.73612450716 0.15198306791 0.65859270647 
0.73101946265 0.1174839477 0.67176779878 0.72389406051 0.073703267872 0.68442363219 0.71613282064 0.028394915679 0.69681035762 
0.70396310586 -0.027505298224 0.70733126769 0.69080105596 -0.084751476458 0.71728700783 0.6701964927 -0.15209238719 0.72300397349 
0.64836925279 -0.22019633027 0.7278557474 0.61657249559 -0.29452192185 0.72565288088 0.58359625411 -0.36874657598 0.7225078773 
0.54010294451 -0.44207120466 0.71096215164 0.49580310801 -0.51448490104 0.69873061785 0.44358464379 -0.57795489852 0.67976569518 
0.39104868323 -0.64013325527 0.66057015678 0.3350520126 -0.68823272809 0.63886090699 0.27907465438 -0.73509610768 0.61732861465 
0.2233333368 -0.76685168107 0.59795913555 0.1677164033 -0.79762478389 0.57898607772 0.11382529905 -0.81476610755 0.56551336496 
0.060000687334 -0.83115979395 0.55249251486 0.0072399561836 -0.83559128407 0.54670146747 -0.045565240483 -0.83940306491 0.54132755512 
-0.099207871043 -0.83154365422 0.5438096859 -0.15298296151 -0.82309736192 0.54661902521 -0.20977813795 -0.80127016889 0.55688871896 
-0.2667205526 -0.77883212013 0.56736926331 -0.32789606604 -0.73883196918 0.5839117624 -0.38912956824 -0.69823341732 0.60052087719 
-0.45260530257 -0.63449669684 0.61970579909 -0.51599679389 -0.57031307691 0.63882321138 -0.57446006938 -0.47998583976 0.65399131146 
-0.63243205684 -0.39041765501 0.66903194851 -0.63243205684 -0.39041765501 0.66903194851 -0.63243205684 -0.39041765501 0.66903194851 

FrenetNormal 3 240 double
-0.88728872715 -0.24751517539 0.38917213753 -0.88728872715 -0.24751517539 0.38917213753 -0.88728872715 -0.24751517539 0.38917213753 
-0.89488214242 -0.14705395174 0.40838043093 -0.90253990867 -0.045741361781 0.42775150648 -0.88804075102 0.07598205235 0.43623084237 
-0.87316284253 0.19805436946 0.44452399468 -0.82966788415 0.32065492822 0.43779121907 -0.78543282965 0.44326914841 0.43066984187 
-0.72316946223 0.54217723907 0.41109123167 -0.66027902305 0.64026076871 0.39107932641 -0.60238925263 0.70568463373 0.36162286866 
-0.54471880978 0.76967605733 0.33175217615 -0.52032629206 0.80580198162 0.27309316647 -0.49770074381 0.84044832188 0.21290557359 
-0.5529617635 0.79559979631 -0.010893473236 -0.61309069369 0.74578284163 -0.24491823593 -0.50048143563 0.3117527862 -0.56319661704 
-0.37542257842 -0.14996830352 -0.88754733101 -0.22904709258 -0.31471185716 -0.89806114864 -0.080927518948 -0.45515724875 -0.88289740203 
0.032572544054 -0.46546133531 -0.8775438105 0.14289650516 -0.4638258526 -0.8730902332 0.27277857922 -0.40984742316 -0.85817989826 
0.4046526833 -0.35053776767 -0.8422045232 0.53773471355 -0.26171203388 -0.78229677411 0.67095221215 -0.1695760857 -0.71746202981 
0.7707304935 -0.093250745277 -0.60783453009 0.86640773878 -0.018864441648 -0.49271357924 0.92322797059 0.0098886340986 -0.35160234488 
0.97486726727 0.032557279461 -0.2070257394 0.98631331308 0.01781587067 -0.054286226962 0.99196225539 -0.0023212190093 0.09963062782 
0.96286026052 -0.031219991198 0.2314078086 0.92836006181 -0.061479801446 0.35974581673 0.88867688088 -0.076940273779 0.44359786245 
0.84812986957 -0.089934189792 0.5200355811 0.84800481893 -0.058626339654 0.52519787527 0.85508368206 -0.01942312525 0.51765761855 
0.77224414343 0.22909047596 0.091105398902 0.67232010846 0.51737305065 -0.4150590937 0.38822621305 0.56373828195 -0.63589830765 
0.066926285213 0.56123132266 -0.79909605116 -0.018712561054 0.57947484208 -0.813544808 -0.05385260413 0.60216489265 -0.79611878198 
-0.055655311645 0.64515685223 -0.75947628144 -0.049896973982 0.69275336848 -0.71847540523 -0.032699609423 0.74380776999 -0.66278778056 
-0.012761644669 0.79569062317 -0.60358145573 0.021149779221 0.83969953725 -0.535344247 0.058591340156 0.88171924565 -0.4648255518 
0.12525551887 0.90692969145 -0.38725699686 0.1996916704 0.92766958869 -0.30781347921 0.35351906416 0.88895943218 -0.19264840316 
0.52954185898 0.83362883055 -0.067496654869 0.69638932888 0.46436183293 0.1394213397 0.86054404036 0.0029613277923 0.37033595003 
0.76737380183 -0.31577882543 0.45776314734 0.59502665559 -0.59062348575 0.50104037142 0.47399970683 -0.68474220527 0.54166077292 
0.36950926615 -0.72062701053 0.58142508714 0.27130144607 -0.69212882541 0.65528935062 0.17521136327 -0.64192850871 0.74064797901 
0.04270669303 -0.5016764555 0.83121249447 -0.10262584325 -0.32970163147 0.92361090197 -0.24977259973 -0.089606791664 0.91752748082 
-0.39758665559 0.17554368614 0.87522085834 -0.47761231834 0.37420581965 0.76398569797 -0.53162615581 0.54735498384 0.62630121492 
-0.54822856659 0.65432658995 0.50232551007 -0.5498664067 0.73482717281 0.38383331649 -0.54064990527 0.7863150262 0.28200817766 
-0.52691076153 0.82571424229 0.18712764498 -0.50709719988 0.85180906861 0.099109790624 -0.48464895093 0.87213331622 0.014068519628 
-0.4539368604 0.88412259579 -0.069639504364 -0.4194959633 0.89235097515 -0.15274594129 -0.37406987934 0.89230469272 -0.23537450489 
-0.32349025093 0.8883764702 -0.317778881 -0.26300454866 0.87444428761 -0.39599697401 -0.19768963539 0.85563517449 -0.472174254 
-0.12442683289 0.82927969597 -0.53633727651 -0.047139782677 0.79910327295 -0.59441713067 0.038925019782 0.76863960962 -0.63162080378 
0.12960376894 0.73802496099 -0.65785109967 0.25077610121 0.71195448469 -0.64159520318 0.388581297 0.68836264785 -0.60216501993 
0.59072437204 0.5887781918 -0.38236282038 0.82926914193 0.44619791173 -0.060508032669 0.83343692133 0.1932309915 0.26600766907 
0.70010353298 -0.12449609094 0.59525777371 0.59108689696 -0.31059511143 0.73241793522 0.49685747519 -0.41665004019 0.75276664482 
0.44940077104 -0.49328952595 0.74213231562 0.4314172862 -0.55139325312 0.71197442772 0.429337297 -0.60234723836 0.66997775839 
0.43763875635 -0.64863403095 0.62025299562 0.44683540556 -0.69215304961 0.5624490102 0.45663725354 -0.73380089716 0.4991830151 
0.45675744805 -0.77526525475 0.42919948914 0.45010048511 -0.81660116937 0.35451369158 0.42756120108 -0.8570141493 0.27208111618 
0.39351298871 -0.89675833597 0.18403493366 0.34351059515 -0.92836557044 0.086693961661 0.28154256571 -0.95387009075 -0.017618102454 
0.20780402038 -0.96148385987 -0.12728595456 0.12493014929 -0.95521226984 -0.24111053763 0.035754776693 -0.92764265618 -0.34805054164 
-0.058480892568 -0.88297008413 -0.44946202002 -0.15475214379 -0.82377659218 -0.53130780139 -0.25271449388 -0.75251956678 -0.59689900368 
-0.35222153683 -0.67534620861 -0.63731874582 -0.45305605021 -0.59308850198 -0.65610676439 -0.55552197419 -0.50676807133 -0.64723828108 