# vtk DataFile Version 5.1
vtk output
ASCII
DATASET POLYDATA
POINTS 240 float
0 0 0 -0.00430824 -0.271589 -0.223125 -0.00861648 -0.543178 -0.446251 
-0.0852278 -0.786255 -0.591659 -0.162452 -1.02909 -0.736408 -0.298715 -1.24931 -0.819835 
-0.435988 -1.46915 -0.902213 -0.619362 -1.67206 -0.939489 -0.803928 -1.87453 -0.975599 
-1.02224 -2.06529 -0.982745 -1.24172 -2.25563 -0.988883 -1.48353 -2.43854 -0.982066 
-1.72632 -2.62112 -0.974681 -1.98127 -2.79924 -0.969817 -2.23687 -2.97712 -0.965087 
-2.49577 -3.15194 -0.976953 -2.75488 -3.32657 -0.989857 -3.00961 -3.49802 -1.03092 
-3.26403 -3.66925 -1.07401 -3.50715 -3.83603 -1.15326 -3.74935 -4.00245 -1.23547 
-3.97375 -4.16261 -1.35758 -4.19651 -4.32219 -1.48336 -4.3952 -4.47369 -1.64845 
-4.59144 -4.62437 -1.81754 -4.75763 -4.76558 -2.02148 -4.92046 -4.90572 -2.22933 
-5.04797 -5.03563 -2.4646 -5.17116 -5.16428 -2.70323 -5.25499 -5.28264 -2.96021 
-5.33357 -5.39963 -3.21963 -5.37043 -5.5072 -3.48791 -5.40129 -5.61342 -3.75748 
-5.39012 -5.71227 -4.0273 -5.37244 -5.80999 -4.29715 -5.31467 -5.90377 -4.56042 
-5.25023 -5.99689 -4.82259 -5.14988 -6.09073 -5.07374 -5.04312 -6.18469 -5.32292 
-4.90663 -6.28454 -5.55906 -4.76448 -6.38552 -5.79272 -4.60024 -6.49707 -6.01321 
-4.43154 -6.61076 -6.23105 -4.24915 -6.7382 -6.43651 -4.06383 -6.8686 -6.63931 
-3.87324 -7.01377 -6.83008 -3.68145 -7.16229 -7.01812 -3.4921 -7.32438 -7.19272 
-3.30334 -7.48974 -7.36409 -3.1236 -7.66575 -7.51804 -2.94613 -7.84445 -7.6676 
-2.78288 -8.02984 -7.7932 -2.62341 -8.217 -7.91243 -2.48196 -8.40635 -7.99963 
-2.34556 -8.59632 -8.07786 -2.22979 -8.78372 -8.11627 -2.12007 -8.97037 -8.14298 
-2.0325 -9.14944 -8.12432 -1.95174 -9.32618 -8.0917 -1.89373 -9.4902 -8.01171 
-1.84305 -9.65014 -7.91645 -1.81466 -9.79259 -7.77618 -1.79379 -9.92915 -7.62074 
-1.79366 -10.0447 -7.42645 -1.80083 -10.1528 -7.21847 -1.82601 -10.2382 -6.98027 
-1.85782 -10.3154 -6.73095 -1.90394 -10.3708 -6.46091 -1.95556 -10.4179 -6.18293 
-2.01718 -10.4468 -5.89317 -2.0828 -10.4683 -5.59871 -2.15399 -10.4769 -5.29982 
-2.2275 -10.4802 -4.99907 -2.30265 -10.4771 -4.69914 -2.37852 -10.4713 -4.39956 
-2.45319 -10.4658 -4.10398 -2.52732 -10.4604 -3.8102 -2.5989 -10.4616 -3.52185 
-2.66927 -10.4658 -3.23605 -2.73715 -10.4814 -2.95594 -2.80381 -10.5024 -2.67861 
-2.86894 -10.5377 -2.40645 -2.9333 -10.5802 -2.13692 -2.9972 -10.6377 -1.87164 
-3.06087 -10.703 -1.6086 -3.12451 -10.7824 -1.34859 -3.18813 -10.8693 -1.09024 
-3.25097 -10.9677 -0.833547 -3.31339 -11.0726 -0.577794 -3.37314 -11.1861 -0.322242 
-3.43132 -11.3047 -0.0668065 -3.48432 -11.4293 0.189768 -3.53417 -11.5576 0.447036 
-3.57644 -11.6902 0.706392 -3.61393 -11.8255 0.967063 -3.64226 -11.9643 1.23009 
-3.66461 -12.1054 1.49465 -3.67731 -12.2504 1.76093 -3.68348 -12.398 2.02838 
-3.68046 -12.5505 2.29599 -3.671 -12.7065 2.5637 -3.65332 -12.8688 2.82916 
-3.62967 -13.0359 3.09299 -3.59884 -13.2109 3.35165 -3.56261 -13.3919 3.60644 
-3.52004 -13.5822 3.85305 -3.47255 -13.7796 4.09331 -3.41929 -13.9869 4.3227 
-3.36141 -14.2021 4.54337 -3.29816 -14.4271 4.75121 -3.23045 -14.6602 4.94839 
-3.15766 -14.9024 5.13176 -3.08051 -15.1522 5.30328 -2.99845 -15.4096 5.46115 
-2.91204 -15.6735 5.60689 -2.82069 -15.9428 5.74028 -2.72481 -16.217 5.86232 
-2.62368 -16.494 5.97429 -2.51754 -16.7737 6.07667 -2.4055 -17.0535 6.17192 
-2.28764 -17.3335 6.26017 -2.163 -17.6111 6.3445 -2.03145 -17.8864 6.42486 
-1.89224 -18.1572 6.50432 -1.74498 -18.4232 6.58286 -1.58945 -18.6832 6.66295 
-1.42491 -18.9367 6.74473 -1.25194 -19.1833 6.82965 -1.06948 -19.4222 6.91809 
-0.878939 -19.654 7.01029 -0.678985 -19.8776 7.10686 -0.471679 -20.094 7.20694 
-0.255525 -20.3017 7.31124 -0.0329346 -20.5023 7.41813 0.197672 -20.6939 7.52825 
0.433834 -20.8782 7.63968 0.677153 -21.053 7.75279 0.925314 -21.2199 7.86586 
1.17993 -21.3763 7.97886 1.43887 -21.5243 8.09062 1.70377 -21.6605 8.20068 
1.97259 -21.7878 8.30869 2.247 -21.9022 8.41379 2.52494 -22.0075 8.5165 
2.80808 -22.0992 8.61567 3.09424 -22.1822 8.71257 3.38504 -22.2517 8.80601 
3.67824 -22.3132 8.89769 3.97525 -22.3623 8.9866 4.27395 -22.4046 9.07453 
4.57544 -22.436 9.16086 4.87793 -22.4621 9.24709 5.18212 -22.4794 9.33312 
5.48672 -22.4927 9.41984 5.79206 -22.499 9.50778 6.09743 -22.5026 9.59701 
6.40287 -22.501 9.68859 6.70819 -22.4974 9.78178 7.01331 -22.4899 9.87801 
7.31838 -22.4808 9.97586 7.62335 -22.4684 10.0769 7.92846 -22.4543 10.1793 
8.23385 -22.4369 10.2845 8.53955 -22.4174 10.3906 8.84593 -22.3939 10.4986 
9.15265 -22.3679 10.6072 9.46012 -22.3365 10.7167 9.76768 -22.3022 10.8263 
10.0754 -22.261 10.936 10.3827 -22.2164 11.0456 10.6886 -22.1636 11.155 
10.993 -22.1073 11.2644 11.2937 -22.0421 11.374 11.5915 -21.9735 11.4841 
11.8819 -21.8963 11.5958 12.1683 -21.8164 11.7091 12.4435 -21.7295 11.8264 
12.7133 -21.6411 11.9462 12.9682 -21.5486 12.0735 13.2172 -21.4563 12.2044 
13.4485 -21.3645 12.3461 13.674 -21.2745 12.4923 13.8814 -21.1907 12.6522 
14.084 -21.1106 12.8167 14.2708 -21.0429 12.9961 14.4545 -20.9805 13.1797 
14.6274 -20.9366 13.3773 14.7994 -20.8992 13.578 14.9676 -20.8855 13.7894 
15.1367 -20.879 14.0024 15.3093 -20.8997 14.2214 15.4841 -20.9277 14.4405 
15.6677 -20.9844 14.6598 15.8538 -21.0479 14.8779 16.0503 -21.1399 15.0911 
16.2484 -21.2378 15.3021 16.4537 -21.3622 15.5037 16.6589 -21.4916 15.7026 
16.863 -21.6448 15.8894 17.0647 -21.8021 16.0733 17.2538 -21.9803 16.2434 
17.438 -22.1619 16.4109 17.5965 -22.3618 16.5641 17.7483 -22.5645 16.7149 
17.8623 -22.7835 16.8522 17.9686 -23.0049 16.9874 18.0288 -23.2409 17.1108 
18.0814 -23.479 17.2328 18.0853 -23.73 17.3453 18.0827 -23.9827 17.4569 
18.0352 -24.2465 17.5624 17.9831 -24.5114 17.6676 17.8961 -24.7852 17.7702 
17.8067 -25.0597 17.8729 17.6972 -25.3402 17.977 17.5875 -25.621 18.0816 
17.4749 -25.9047 18.1908 17.3638 -26.1884 18.3008 17.2673 -26.4718 18.4181 
17.1734 -26.7549 18.5361 17.109 -27.0345 18.6631 17.0479 -27.3137 18.7908 
17.0268 -27.5864 18.9278 17.0089 -27.8586 19.0656 17.0363 -28.1218 19.2128 
17.0665 -28.3844 19.3605 17.1413 -28.6358 19.5174 17.218 -28.8865 19.6748 
17.333 -29.1243 19.8413 17.4491 -29.3614 20.0083 17.5921 -29.5838 20.1853 
17.7356 -29.8056 20.3626 17.8914 -30.0111 20.5513 18.0471 -30.2162 20.7402 
18.1979 -30.4033 20.9425 18.3484 -30.5901 21.1451 18.4757 -30.7575 21.3633 
18.6027 -30.9247 21.5817 18.6876 -31.0709 21.8182 18.7725 -31.217 22.0547 

LINES 2 240
OFFSETS vtktypeint64
0 240 
CONNECTIVITY vtktypeint64
0 1 2 3 4 5 6 7 8 
9 10 11 12 13 14 15 16 17 
18 19 20 21 22 23 24 25 26 
27 28 29 30 31 32 33 34 35 
36 37 38 39 40 41 42 43 44 
45 46 47 48 49 50 51 52 53 
54 55 56 57 58 59 60 61 62 
63 64 65 66 67 68 69 70 71 
72 73 74 75 76 77 78 79 80 
81 82 83 84 85 86 87 88 89 
90 91 92 93 94 95 96 97 98 
99 100 101 102 103 104 105 106 107 
108 109 110 111 112 113 114 115 116 
117 118 119 120 121 122 123 124 125 
126 127 128 129 130 131 132 133 134 
135 136 137 138 139 140 141 142 143 
144 145 146 147 148 149 150 151 152 
153 154 155 156 157 158 159 160 161 
162 163 164 165 166 167 168 169 170 
171 172 173 174 175 176 177 178 179 
180 181 182 183 184 185 186 187 188 
189 190 191 192 193 194 195 196 197 
198 199 200 201 202 203 204 205 206 
207 208 209 210 211 212 213 214 215 
216 217 218 219 220 221 222 223 224 
225 226 227 228 229 230 231 232 233 
234 235 236 237 238 239 
CELL_DATA 1
FIELD FieldData 3
Length 1 1 double
71.554605069 
Tortuosity 1 1 double
0.68035350187 
ClusterLabel 1 1 int
2 
POINT_DATA 240
FIELD FieldData 6
Curvature 1 240 double
0 0.23060870659 0.46121741317 0.50934971171 0.55593560002 0.50906437496 0.46059559241 0.37389342529 0.28620246374 
0.21407026076 0.14247923198 0.10219674998 0.063287449861 0.076425741396 0.09232762187 0.12342776684 0.15547780333 0.18522949032 
0.21481553049 0.23760431618 0.25983696286 0.27282766817 0.28497048894 0.28901501665 0.29223471821 0.29147287079 0.29026449452 
0.28924741854 0.28825380392 0.28916072056 0.29032104137 0.29203892914 0.29383723522 0.29249725284 0.29066976934 0.28189660315 
0.27196582318 0.25473052473 0.23619343092 0.21449286227 0.1921912334 0.17259490091 0.15354509294 0.14138511238 0.13070152341 
0.12788118179 0.12684425709 0.13367042744 0.14238046431 0.16237219968 0.18521404836 0.22868435689 0.27764095793 0.36047671071 
0.4527840543 0.58016522447 0.71783980026 0.83278932713 0.94074653125 0.9375740714 0.89859316427 0.79148774906 0.66141901652 
0.54534716403 0.43420603064 0.35246739872 0.28154347998 0.22870076724 0.18279619168 0.14648290943 0.11400614449 0.084993631268 
0.057424556263 0.032862621651 0.0096049888971 0.020206168027 0.046085103738 0.070527044346 0.094294839103 0.11421325873 0.13225510798 
0.14267820783 0.14924371303 0.14806218393 0.14280849577 0.13165625958 0.11728663356 0.10307732691 0.088958727272 0.080263076462 
0.074748888963 0.075059347864 0.078911821467 0.08328048196 0.087974410904 0.090487241164 0.091576298672 0.09153058274 0.090717696031 
0.091182303499 0.092541156888 0.096640169277 0.10272480413 0.11066293268 0.11999118149 0.12958902536 0.13939610718 0.14779238204 
0.15505573617 0.15979634641 0.16244113867 0.16176926313 0.15824712621 0.15185977353 0.1429255624 0.13229802466 0.1201137189 
0.10838749743 0.097096831497 0.089180053632 0.084580932365 0.084640155202 0.089436677129 0.096120942123 0.10479059207 0.11235894534 
0.11872939697 0.12262859208 0.1237476236 0.12303300991 0.12018469998 0.11660844353 0.11215595517 0.10841767079 0.10556877249 
0.10415926842 0.10460436846 0.10635740245 0.10985434837 0.11368184447 0.1179654998 0.121599687 0.12430606256 0.12530413267 
0.12377533429 0.12048757028 0.11450522062 0.10727389411 0.098060495624 0.088430853269 0.07811672099 0.068479692149 0.059996816893 
0.052409578343 0.046405325596 0.041445779247 0.03840152796 0.035732618208 0.033777772841 0.032051624199 0.030777151591 0.02998342097 
0.030175827759 0.031234554273 0.034139909674 0.03748570462 0.041807608823 0.046166520888 0.050610756633 0.054920337045 0.058906744657 
0.062941374722 0.067096560919 0.071854193026 0.078181835685 0.085964437426 0.097702709175 0.11097524519 0.12860311202 0.14697962145 
0.16757710393 0.18711665066 0.2033729485 0.21757344246 0.22509257377 0.23097669563 0.23128967414 0.23098987681 0.22849822746 
0.22574703043 0.22201993411 0.2173298006 0.20882764493 0.19984071292 0.18883036665 0.17825768757 0.16961472294 0.16300089406 
0.16585636538 0.17183831407 0.19329632582 0.21761302976 0.2569754821 0.29670036884 0.3384589153 0.37589123884 0.38736622483 
0.392676405 0.35830064768 0.32090055607 0.2625317468 0.20444786891 0.14850097639 0.094329205993 0.054631508241 0.022224242362 
0.054823327349 0.088013883033 0.12701160557 0.16558750541 0.19956553779 0.2325412176 0.25326592165 0.27247084868 0.27058886959 
0.26755430244 0.24607832629 0.22420571 0.19486303784 0.16573763959 0.14156608652 0.11812193852 0.11559068605 0.11386310482 
0.14321081164 0.17297213454 0.22692999769 0.27926106758 0.13963053379 0 
Torsion 1 240 double
0 0 0 0.012714307297 0.025536362961 0.039864256272 0.054217890398 0.10277370196 0.15221405259 
0.35560483254 0.56435041004 1.4545529087 2.3746438689 1.6529623621 0.84410709596 0.51827087488 0.22262334411 0.14808278015 
0.08947785343 0.075810308425 0.065819458288 0.071064779352 0.077707914288 0.090587604178 0.10410249874 0.11866963802 0.13335478606 
0.14632667241 0.15908844176 0.17008266307 0.18084121131 0.19221353917 0.20367439294 0.21882587794 0.23455066488 0.25693646783 
0.28043244012 0.31361739851 0.3485291069 0.39332528996 0.43999952321 0.48263350991 0.52445128518 0.51989985256 0.5054121611 
0.42074259138 0.32015548227 0.19321247384 0.059955031195 -0.042747311219 -0.13773047042 -0.17764541464 -0.20291455701 -0.19505523606 
-0.17793419417 -0.15424230467 -0.12862201423 -0.10891253189 -0.091021759741 -0.080301315264 -0.071891309703 -0.066180897684 -0.061380461015 
-0.057352284858 -0.053596155018 -0.050616956418 -0.047923525631 -0.047799238802 -0.048660786283 -0.054190859534 -0.061588343093 -0.075267923322 
-0.091565043829 -4.7925277272 -11.525393546 -8.996519773 -2.2885683787 -0.13906066068 -0.12808207479 -0.11668426216 -0.10508207648 
-0.085691303829 -0.062356942829 -0.021751613297 0.027932045846 0.11498962627 0.22243298194 0.38285351265 0.57324797135 0.68664520773 
0.75487074036 0.66014674769 0.46633182747 0.28984739922 0.12428355495 -0.011687146734 -0.12834010256 -0.22863109371 -0.31786047494 
-0.37023420744 -0.39680898583 -0.3798474595 -0.33133788627 -0.27347489071 -0.20859682841 -0.154139135 -0.10776889207 -0.071226132471 
-0.04257513979 -0.017332196156 0.005079445193 0.029766641836 0.056409393809 0.092109454658 0.13586045673 0.19946239898 0.28131439913 
0.38966707919 0.52321712704 0.63089814772 0.71314129169 0.70320181187 0.59951729091 0.4864326775 0.36346175997 0.2637668755 
0.1893897814 0.12782146671 0.080663028889 0.03694288489 -0.0027763353819 -0.041600921955 -0.07934863463 -0.11191142521 -0.13801752036 
-0.15274653079 -0.15281660513 -0.14333467217 -0.12111672946 -0.096646884263 -0.069069413624 -0.043022320192 -0.019161479913 0.0036152730523 
0.024788480201 0.047347016873 0.072027760474 0.10031932522 0.13434110613 0.17504946885 0.2267535439 0.28148029087 0.34135931956 
0.38911486351 0.41544285305 0.40773154478 0.33761485717 0.24336528312 0.10320436415 -0.041088640178 -0.19354251307 -0.31745915126 
-0.3828378721 -0.40361602922 -0.32932456367 -0.2443313314 -0.13562067017 -0.033245843889 0.054521362941 0.14130796322 0.22574110776 
0.30894818287 0.38909008442 0.46154736336 0.51397805001 0.55284586472 0.55483962133 0.55002374612 0.52587730318 0.50493301262 
0.4934884408 0.4892297537 0.50727208815 0.52980540958 0.56693443873 0.59980992313 0.61819184765 0.6234879742 0.58197720802 
0.5295017694 0.4357991624 0.34012560835 0.23665038885 0.13116085827 0.017263768374 -0.098724719689 -0.2239343724 -0.33953919557 
-0.41032148092 -0.46284554044 -0.4249913821 -0.38152715653 -0.30853626128 -0.23912061195 -0.18976606474 -0.14424953485 -0.12176110895 
-0.10159700522 -0.096395725544 -0.09375723751 -0.10888743821 -0.13569806344 -0.25011187261 -0.73063362792 -4.1963432518 -6.9622001101 
-3.4877031418 -0.32293888417 -0.19918669408 -0.08337300123 -0.054088928182 -0.025494785922 -0.0053331310773 0.015120060281 0.039618320768 
0.065496600678 0.11345519136 0.16462607864 0.27629521845 0.39371296386 0.64219891671 0.88627481393 1.003561612 1.111192406 
0.84545770672 0.5793005248 0.28842810939 0 0 0 
FrenetTangent 3 240 double
-0.12786153051 -0.80673608053 -0.57691275371 -0.12786153051 -0.80673608053 -0.57691275371 -0.12786153051 -0.80673608053 -0.57691275371 
-0.25443134653 -0.81761283665 -0.49294600101 -0.38207378811 -0.82858176866 -0.40826766566 -0.48573346675 -0.80306551089 -0.3142988208 
-0.58898318363 -0.77692557465 -0.22017116382 -0.65148416778 -0.73688115132 -0.14837426479 -0.71293130538 -0.69647712917 -0.077154885355 
-0.7454612483 -0.66276396764 -0.037778127852 -0.77698537575 -0.62928353168 0.00049106019198 -0.793483674 -0.60786920819 0.010491365871 
-0.80932294466 -0.58698410016 0.019251808288 -0.8171460799 -0.57604042406 0.004188187423 -0.82454357962 -0.56562461159 -0.012140427952 
-0.825485713 -0.56094668446 -0.049171218568 -0.82602438598 -0.55662737516 -0.087495895135 -0.81838433432 -0.55357929009 -0.14310032567 
-0.81015482503 -0.55062282477 -0.19995014387 -0.79080615214 -0.54518557362 -0.26853171642 -0.7705477295 -0.53954534908 -0.33807315978 
-0.73723365557 -0.5294527441 -0.41158581606 -0.70272181545 -0.51895166385 -0.48546280381 -0.65552223728 -0.50429847843 -0.55547697007 
-0.60703038949 -0.4892223934 -0.62509770082 -0.54795675151 -0.47178986216 -0.6853654731 -0.4876963707 -0.45409305657 -0.74458431547 
-0.4191839244 -0.436006881 -0.79180765316 -0.34965943233 -0.4178729525 -0.83755984406 -0.27371264233 -0.40086543202 -0.87022703008 
-0.19690954594 -0.38400809927 -0.90114954879 -0.1156880094 -0.36954509933 -0.91814423302 -0.033829197844 -0.35542743585 -0.93313009497 
0.048985894837 -0.34516824144 -0.93357115029 0.13194953604 -0.33550842086 -0.93175281818 0.21043493913 -0.33141672622 -0.9162949412 
0.2881739692 -0.32825305258 -0.89856380674 0.35543207765 -0.33199428816 -0.87083750862 0.42082229908 -0.33696610162 -0.84132989421 
0.47175404223 -0.34900869848 -0.80746830524 0.51993867451 -0.36239474419 -0.77277946111 0.55309482331 -0.38167792436 -0.73891718532 
0.58321491484 -0.40215244483 -0.70522189303 0.60047473435 -0.42670246132 -0.67503613287 0.61497878127 -0.45212579839 -0.64560241532 
0.62003258376 -0.48013604716 -0.61934733331 0.62294303184 -0.50873301818 -0.59381317895 0.61978178017 -0.53948320143 -0.56854577335 
0.61516585045 -0.57074925844 -0.54334227632 0.6069768372 -0.60491098751 -0.51328381581 0.59788515022 -0.63980425478 -0.48199883822 
0.58604434168 -0.67872380062 -0.43824953346 0.57347238378 -0.71871416523 -0.39118524808 0.55594667036 -0.76160212664 -0.32108254067 
0.53703603604 -0.80530016888 -0.2445389841 0.50636149173 -0.84231292512 -0.13418208296 0.47223449557 -0.87736369527 -0.013901700259 
0.41799851946 -0.88277988314 0.13592046603 0.35757516492 -0.879077738 0.29483241189 0.2819899412 -0.83027424687 0.44706405228 
0.20151922631 -0.76693809982 0.5971431498 0.12538241699 -0.6791784714 0.70727785979 0.050706474709 -0.58318620881 0.80394816949 
-0.0092509307913 -0.49048584045 0.86404200326 -0.0640233972 -0.39894511664 0.9112509421 -0.10548912988 -0.32058074509 0.937799808 
-0.14206043176 -0.24706284793 0.9567495666 -0.16913668647 -0.1870779633 0.96595400421 -0.19256949285 -0.13228597881 0.97141895819 
-0.20928027479 -0.089563141716 0.97297020937 -0.22330224694 -0.051667963575 0.97295597944 -0.23235984007 -0.024814899697 0.97205528017 
-0.23934894195 -0.0025627167604 0.97078521869 -0.24270692834 0.0090633961959 0.97003248204 -0.24448997307 0.01608061133 0.96950412725 
-0.24397451434 0.012632150609 0.96966683705 -0.242421926 0.0044613727354 0.97014136867 -0.23999344073 -0.013545750831 0.97043796684 
-0.23715404086 -0.036167456327 0.97065109006 -0.23464501067 -0.066571321739 0.96925242527 -0.23229703571 -0.10076899011 0.96706801382 
-0.23078511839 -0.13902219353 0.96225054208 -0.2296965214 -0.17932883241 0.95609987527 -0.2289413422 -0.21925846864 0.94764365667 
-0.22836142107 -0.2589899368 0.93797554545 -0.22676853177 -0.29482968162 0.92765600071 -0.22462311438 -0.32854666826 0.9169811286 
-0.21985379792 -0.3568761767 0.90754817493 -0.21359990698 -0.3821575067 0.89881788564 -0.20351502226 -0.40239848797 0.89232403998 
-0.19118262119 -0.41968246467 0.88714224125 -0.17478312454 -0.43311346812 0.88399509329 -0.15591039408 -0.44420144731 0.88208523296 
-0.13386269232 -0.45303384367 0.88107835201 -0.10981432372 -0.46044491387 0.88064047175 -0.084276416772 -0.46731218022 0.87970604215 
-0.057766172306 -0.47382446352 0.87844747617 -0.031503754229 -0.48146607612 0.87552904364 -0.0054088807529 -0.48987117896 0.87148844782 
0.01933941177 -0.50072268162 0.86500954385 0.043145097626 -0.51328666415 0.85682382418 0.065352013625 -0.52900521062 0.8456353614 
0.086400400743 -0.54700967298 0.83227099783 0.10615810279 -0.56815070341 0.81540171017 0.12494779103 -0.59164415991 0.79590372944 
0.14290355834 -0.61749951575 0.77255467232 0.16021210343 -0.64518798751 0.74621672009 0.17698710648 -0.67385208738 0.71609921758 
0.1933336591 -0.7032996462 0.68294662166 0.20922099042 -0.73204435239 0.64677452093 0.22472681481 -0.76020515024 0.60809390851 
0.23980588903 -0.78609058273 0.56795764562 0.25451822483 -0.8100206231 0.5265704331 0.26902859327 -0.83063061217 0.48580356767 
0.28335943519 -0.84828944453 0.44558812187 0.29801005368 -0.8622605332 0.40802002755 0.31295466033 -0.87284127687 0.37288578862 
0.32892598115 -0.87983676911 0.34191423292 0.34587352201 -0.88342333376 0.31490063832 0.36446558018 -0.88367153688 0.29282753147 
0.38467474705 -0.88063701782 0.27561257091 0.40676904791 -0.87443498751 0.2633718604 0.4307804342 -0.86501175931 0.25618970927 
0.45629334274 -0.85258766149 0.25330731355 0.48338543846 -0.83700747665 0.25494707438 0.51104999233 -0.81881171843 0.25964881402 
0.53933721996 -0.79777095057 0.26768112713 0.56711686946 -0.77487526498 0.2772490536 0.59432549356 -0.74989279693 0.28854454511 
0.62032156928 -0.72400511757 0.29995319638 0.64490667962 -0.69706410142 0.31149352446 0.66818791753 -0.66996113512 0.32211023877 
0.68989967936 -0.64266322883 0.33161519575 0.71067467012 -0.6154665104 0.33961530833 0.73028311576 -0.58839579951 0.34574146373 
0.74948252307 -0.56116010601 0.35016440845 0.76815490022 -0.53371183876 0.35239283173 0.78676407846 -0.50558410967 0.35296185649 
0.80528899152 -0.47655043143 0.35131834989 0.82370994351 -0.44646211337 0.34823766725 0.84198742925 -0.41491839235 0.34317368168 
0.85976726854 -0.38234915249 0.33707345404 0.87683618434 -0.34831488575 0.3294928806 0.89286239211 -0.31381798473 0.32144753744 
0.90734626092 -0.27863677053 0.31271472238 0.92038916321 -0.2439265329 0.30418688265 0.93122462743 -0.20993779129 0.29597304766 
0.940557997 -0.17730489432 0.28857854825 0.94750760767 -0.14682366384 0.2824842988 0.95317128541 -0.11828511423 0.27760452014 
0.95672031788 -0.092941195394 0.27472187125 0.95932059933 -0.069644619285 0.27315755683 0.96030369155 -0.049837831913 0.27384040347 
0.96065390839 -0.03185393768 0.27566388062 0.95988555481 -0.017091901084 0.27950335589 0.95874087721 -0.0037241753588 0.28409670263 
0.95690627225 0.0070873137704 0.29007214707 0.9549023498 0.017063065251 0.29631212018 0.95257631117 0.025448876814 0.30305534296 
0.95025261438 0.033577850762 0.30957402069 0.94793354275 0.041199570419 0.31564922195 0.94572504237 0.049074692535 0.32116099709 
0.9437433548 0.057469614565 0.32551702633 0.94188581589 0.066499467607 0.329191058 0.94029290968 0.076882726222 0.33141135803 
0.93873287591 0.088126648356 0.33304919419 0.93724569458 0.10127798693 0.33339616449 0.93559642841 0.1153084405 0.33350864978 
0.93357346666 0.13136574251 0.33308051688 0.93113626541 0.14816113579 0.33294687132 0.92770488936 0.16672794814 0.33351999539 
0.92358804889 0.18571209471 0.33507326375 0.91775754739 0.20573957683 0.33907689283 0.91099369755 0.22568054655 0.34479248707 
0.9017974854 0.24539605967 0.35496956626 0.89144372161 0.26435870463 0.36749951542 0.87794286433 0.28127448926 0.38642632981 
0.86310263842 0.29651652173 0.40808078367 0.8444603338 0.30700725775 0.43747821408 0.82449126115 0.31466835368 0.46932631143 
0.80058611003 0.31393485067 0.5084447207 0.77584583796 0.30930578474 0.5487443908 0.74851381118 0.29258704077 0.59271004278 
0.72145379573 0.2715783439 0.63582600856 0.69527781712 0.23662730009 0.67618049422 0.67072003398 0.19808414671 0.71371760286 
0.65167610213 0.14730121256 0.74165476019 0.63503799629 0.094521023449 0.76571683826 0.62700534503 0.034596806991 0.77591805592 
0.6210962692 -0.025610256647 0.7823951882 0.62317183702 -0.086880825678 0.77486975942 0.62627379332 -0.14726006114 0.76468483349 
0.63343853738 -0.2041111012 0.74397273136 0.64041161717 -0.25967565888 0.72200001889 0.64658470697 -0.30987055092 0.69476562853 
0.65157340599 -0.3591190285 0.66749289019 0.65134001837 -0.40419467871 0.64005107214 0.64914413963 -0.44904539627 0.6132933111 
0.63778996906 -0.49284642812 0.58972781609 0.62369557099 -0.53711978979 0.5670016614 0.59603704681 -0.58373118408 0.5484302413 
0.56473916985 -0.63098922335 0.53042102001 0.51428680462 -0.68165065722 0.51537073991 0.45970082122 -0.73208975616 0.50027422266 
0.381920647 -0.78128130908 0.48491826371 0.30119070142 -0.82844610418 0.46899134917 0.20276212776 -0.86345035228 0.44963870103 
0.10449019775 -0.89537597861 0.42993176753 0.0072266612907 -0.90748297729 0.40794412208 -0.087152932696 -0.91744350778 0.38639617147 
-0.1615371922 -0.9125218589 0.36789677174 -0.23232417593 -0.90706950909 0.35040211603 -0.27613159132 -0.89763690234 0.34044304035 
-0.31679848413 -0.88861360028 0.33158833711 -0.33185803899 -0.88292770566 0.33173851672 -0.34432173057 -0.87785436865 0.3328288006 
-0.33363897469 -0.87824300362 0.34230168079 -0.32071132187 -0.87900215009 0.35246119075 -0.28574286277 -0.88339904579 0.36936215673 
-0.24888635963 -0.88768349012 0.3866097803 -0.19145017642 -0.89074221442 0.40763597172 -0.13275577119 -0.8931875999 0.42863036302 
-0.058683096748 -0.88813662202 0.44923608621 0.015700301487 -0.8822622233 0.46955790674 0.094394992353 -0.86496286027 0.48594057774 
0.17253892202 -0.84706956477 0.50204631984 0.24187067255 -0.8196733498 0.51372119945 0.31027073505 -0.79208377703 0.52533142561 
0.36112400611 -0.76085263228 0.53572401175 0.41107800849 -0.72969028859 0.5462662762 0.44052868491 -0.7000966091 0.56022120607 
0.46924419029 -0.67063686686 0.57443664908 0.47682352822 -0.64502782056 0.59614184497 0.48379882409 -0.6195011729 0.61811514709 
0.46741782724 -0.5971606057 0.65045522334 0.45053685876 -0.57481607268 0.6829736346 0.40440754995 -0.55223953938 0.7259246437 
0.35866588239 -0.52985272485 0.76851471995 0.35866588239 -0.52985272485 0.76851471995 0.35866588239 -0.52985272485 0.76851471995 

FrenetNormal 3 240 double
-0.85808467394 -0.20170462614 0.47223504331 -0.85808467394 -0.20170462614 0.47223504331 -0.85808467394 -0.20170462614 0.47223504331 
-0.82179657054 -0.072082410567 0.54372297901 -0.78520094083 0.058638298362 0.61581674467 -0.72091650021 0.18020325995 0.65369678862 
-0.65615874659 0.30161171303 0.69099198264 -0.6009298089 0.39273374037 0.68801060538 -0.54594730611 0.48307249807 0.68398759266 
-0.53486069316 0.56616547614 0.61779713069 -0.52530089377 0.64900642709 0.54944432266 -0.54767775768 0.71506248954 0.17107029591 
-0.57145535244 0.78038237267 -0.22090115272 -0.36544949157 0.51653403284 -0.58384207786 -0.14724273924 0.23520773428 -0.94524155928 
-0.038140001468 0.14233504811 -0.98028393238 0.064143735397 0.061240712706 -0.99492898622 0.13475687316 0.055913384481 -0.98688177175 
0.20308744522 0.056046741458 -0.97719907849 0.27168216823 0.076961644982 -0.95632612339 0.3402985036 0.099576856861 -0.93453760141 
0.41156423262 0.12555394604 -0.89870117728 0.48307302528 0.15183946433 -0.86157595479 0.55350740415 0.17244991934 -0.80975850071 
0.62383235199 0.19248235864 -0.75644461564 0.68840596299 0.20289250711 -0.69005541976 0.75233456425 0.21222352016 -0.62219983389 
0.80655727333 0.21171812007 -0.54357645479 0.85958963714 0.21000636741 -0.46363249727 0.89993697274 0.19962888955 -0.37501698782 
0.93859297124 0.18809598166 -0.28524527144 0.96206611788 0.16869545126 -0.18912275233 0.98334943011 0.14816016761 -0.092084252071 
0.98739473879 0.11833599825 0.0080519048832 0.98876229935 0.087068895184 0.10866925123 0.97114825443 0.043487605528 0.20728509027 
0.95037060859 -0.002146048559 0.30556734477 0.90871830515 -0.064176410645 0.39531346553 0.8633457657 -0.12912895831 0.48353829512 
0.79285666164 -0.2130848852 0.55522512631 0.71759541031 -0.30065145414 0.6237697378 0.61118135418 -0.40106659381 0.6645123504 
0.49847380213 -0.50407740433 0.69963839756 0.36275912176 -0.59465045153 0.6984814807 0.22211434247 -0.68255826375 0.68954964299 
0.097163387441 -0.7304751298 0.6635482977 -0.024228143533 -0.76932188436 0.63367551769 -0.099613496418 -0.77225902067 0.62420003814 
-0.1639765358 -0.76659281095 0.61961141183 -0.18845933545 -0.73761266837 0.64642781177 -0.20286712716 -0.70274269012 0.68117811307 
-0.20406671168 -0.64752093925 0.72998122217 -0.20175347514 -0.58688648289 0.78252178014 -0.21091482553 -0.50443175904 0.83138650563 
-0.22328412494 -0.41587674535 0.87922357902 -0.25493852993 -0.29826999069 0.91041576651 -0.29225269418 -0.17213718162 0.93672304183 
-0.33923370147 -0.018121276769 0.92551774235 -0.389189122 0.14447404217 0.90277011217 -0.42685184625 0.30361965222 0.83311592293 
-0.46055359059 0.46165368941 0.74834739799 -0.47266111847 0.58279839918 0.64343796268 -0.47748969699 0.69150850419 0.53173945646 
-0.46877666987 0.76394148977 0.42864516717 -0.45529330439 0.82359503556 0.32858190885 -0.4367471089 0.86155263726 0.24538966943 
-0.41633872305 0.89153012161 0.16840286225 -0.39527497235 0.91039904417 0.10710783962 -0.37395974444 0.92500537908 0.051834083146 
-0.35057267407 0.93552479831 0.010712331124 -0.32635686672 0.94440945126 -0.024748619117 -0.29946918504 0.95238664285 -0.047267651672 
-0.27146822238 0.95998572555 -0.064394218524 0.022376398176 0.34526848517 0.008967742377 0.43152670168 -0.5393690881 0.12157773941 
0.42552072384 -0.87273083206 0.11809120947 0.23218813125 -0.95734616523 0.062219661267 0.14684364394 -0.98786969875 0.02251564063 
0.11216024305 -0.99301683242 -0.0096036139879 0.082073120286 -0.99429890926 -0.048428159666 0.054226683105 -0.99369677088 -0.090521534736 
0.033394549501 -0.98920624745 -0.13490824948 0.016113962011 -0.98274692147 -0.18045614886 0.012642277955 -0.97411395912 -0.22232866705 
0.016429120062 -0.96433844434 -0.26226925409 0.047899834833 -0.95406390925 -0.29150784214 0.094470843782 -0.94351718127 -0.3149089762 
0.19443054831 -0.92050129988 -0.31480802007 0.3245970148 -0.89043050274 -0.3014098287 0.48983758446 -0.80666392296 -0.25198628222 
0.67565496131 -0.69139581737 -0.18142786074 0.80347112856 -0.55931016058 -0.11521815538 0.89601628999 -0.41699761453 -0.051652939549 
0.94419388747 -0.32259468016 -0.022427064242 0.96441384191 -0.25838136409 -0.014839677483 0.97074761207 -0.23582674869 -0.032276526082 
0.96801678972 -0.24046600734 -0.066048639429 0.94961206211 -0.2775157656 -0.11844178837 0.9206108915 -0.33647684753 -0.18342380643 
0.86891359672 -0.4073153714 -0.25521869145 0.801329015 -0.48646810461 -0.33178258334 0.72224872797 -0.55222121276 -0.4012996152 
0.6348382197 -0.60826444767 -0.46571022674 0.55772328193 -0.64220814557 -0.52010293969 0.48833002203 -0.65957719073 -0.56698222871 
0.43362974334 -0.66182656798 -0.60921124484 0.39033297245 -0.65234127761 -0.64783109396 0.35731121133 -0.63369785328 -0.68462388024 
0.33254059441 -0.60770016988 -0.71994947971 0.31403066715 -0.57592522628 -0.75343818416 0.30072192823 -0.53935071266 -0.78540085276 
0.29425255044 -0.49846593184 -0.81415003474 0.29366074862 -0.45387701514 -0.84013762664 0.3028970922 -0.40545580944 -0.86098509098 