# vtk DataFile Version 5.1
vtk output
ASCII
DATASET POLYDATA
POINTS 240 float
0 0 0 -0.100122 -0.354977 -0.0840633 -0.200245 -0.709953 -0.168127 
-0.340514 -1.04539 -0.224834 -0.481124 -1.38066 -0.281309 -0.654686 -1.69696 -0.311244 
-0.828811 -2.01294 -0.340725 -1.02885 -2.3105 -0.344656 -1.22955 -2.60759 -0.347925 
-1.4494 -2.88683 -0.32717 -1.66991 -3.16544 -0.305578 -1.90334 -3.42675 -0.262629 
-2.13734 -3.68729 -0.218743 -2.37897 -3.93104 -0.158037 -2.621 -4.1739 -0.0964372 
-2.86664 -4.4005 -0.0250339 -3.1125 -4.62609 0.0469822 -3.35928 -4.8362 0.119124 
-3.60613 -5.0452 0.191275 -3.8522 -5.23998 0.251737 -4.09821 -5.43359 0.311242 
-4.34202 -5.61493 0.346452 -4.58563 -5.79514 0.379432 -4.8249 -5.9657 0.376641 
-5.06371 -6.13528 0.370206 -5.29451 -6.29828 0.319464 -5.5244 -6.46055 0.263753 
-5.74069 -6.61919 0.159378 -5.95532 -6.77738 0.0490338 -6.14927 -6.93416 -0.10977 
-6.34047 -7.09076 -0.275035 -6.50338 -7.247 -0.484478 -6.6622 -7.40319 -0.700292 
-6.786 -7.55887 -0.952839 -6.90436 -7.71447 -1.21109 -6.9831 -7.86848 -1.49662 
-7.05524 -8.02221 -1.7867 -7.08617 -8.17275 -2.09384 -7.10977 -8.32271 -2.40402 
-7.09386 -8.46783 -2.72156 -7.07046 -8.61203 -3.04049 -7.01215 -8.75017 -3.35862 
-6.9468 -8.88708 -3.67658 -6.85312 -9.01754 -3.98785 -6.75338 -9.14663 -4.29769 
-6.63263 -9.27009 -4.59752 -6.50712 -9.39227 -4.89507 -6.36737 -9.51096 -5.18162 
-6.2242 -9.62881 -5.46555 -6.07182 -9.74645 -5.73932 -5.91712 -9.86403 -6.01054 
-5.756 -9.98555 -6.27353 -5.59318 -10.1081 -6.53432 -5.42472 -10.2391 -6.78911 
-5.25469 -10.3723 -7.04222 -5.07877 -10.5182 -7.29109 -4.90112 -10.6678 -7.53871 
-4.71756 -10.8336 -7.78276 -4.53218 -11.0044 -8.02571 -4.34209 -11.1938 -8.26401 
-4.15049 -11.389 -8.50082 -3.95704 -11.6036 -8.72968 -3.76298 -11.8248 -8.95586 
-3.57133 -12.064 -9.16831 -3.38053 -12.3095 -9.37593 -3.19706 -12.5697 -9.56173 
-3.01627 -12.8352 -9.73952 -2.84738 -13.1094 -9.88596 -2.68305 -13.3869 -10.0204 
-2.53401 -13.665 -10.1138 -2.39108 -13.9434 -10.1908 -2.26517 -14.2132 -10.2189 
-2.14635 -14.4793 -10.2266 -2.0446 -14.7272 -10.1809 -1.95025 -14.9671 -10.1121 
-1.87172 -15.1801 -9.9902 -1.80033 -15.381 -9.84428 -1.74291 -15.5488 -9.65038 
-1.69204 -15.701 -9.43398 -1.65339 -15.8173 -9.17893 -1.6207 -15.9161 -8.90504 
-1.59912 -15.9797 -8.60431 -1.58317 -16.0255 -8.28999 -1.57805 -16.0406 -7.96118 
-1.57864 -16.0397 -7.62474 -1.59046 -16.0151 -7.28476 -1.60841 -15.9778 -6.94286 
-1.63827 -15.9257 -6.6056 -1.67488 -15.8653 -6.27097 -1.72393 -15.7995 -5.94568 
-1.78028 -15.7306 -5.62586 -1.8491 -15.6651 -5.3166 -1.9255 -15.6017 -5.01375 
-2.0137 -15.5493 -4.71983 -2.10935 -15.5038 -4.43152 -2.21544 -15.475 -4.14872 
-2.32834 -15.4571 -3.86953 -2.44976 -15.459 -3.59195 -2.57695 -15.4744 -3.31547 
-2.71054 -15.5104 -3.03744 -2.84862 -15.5607 -2.75833 -2.9912 -15.6306 -2.47618 
-3.13704 -15.7146 -2.19182 -3.28602 -15.8159 -1.90498 -3.43734 -15.93 -1.61627 
-3.59114 -16.0588 -1.32761 -3.74684 -16.199 -1.03898 -3.90493 -16.3517 -0.754274 
-4.06492 -16.5145 -0.472713 -4.22748 -16.6884 -0.199413 -4.39217 -16.8714 0.0670226 
-4.55948 -17.0647 0.321389 -4.72905 -17.2668 0.565384 -4.90086 -17.4787 0.794912 
-5.07468 -17.6992 1.01158 -5.24978 -17.9289 1.21338 -5.42605 -18.1668 1.40151 
-5.60201 -18.4128 1.5765 -5.77767 -18.6666 1.73901 -5.95093 -18.927 1.89199 
-6.12183 -19.1938 2.0356 -6.28794 -19.4655 2.17446 -6.44918 -19.742 2.3085 
-6.6032 -20.0214 2.44283 -6.7496 -20.3039 2.57746 -6.8865 -20.5878 2.71665 
-7.01307 -20.8732 2.86082 -7.12822 -21.159 3.01224 -7.23052 -21.4452 3.17182 
-7.31991 -21.7314 3.3393 -7.39428 -22.0175 3.51595 -7.45463 -22.3037 3.69914 
-7.49811 -22.5899 3.8902 -7.52672 -22.8762 4.085 -7.53682 -23.1627 4.28445 
-7.53134 -23.4492 4.48423 -7.50579 -23.7355 4.68441 -7.46407 -24.0211 4.88171 
-7.40078 -24.3055 5.07516 -7.32093 -24.5875 5.26337 -7.21823 -24.8662 5.44433 
-7.09899 -25.1406 5.61881 -6.95611 -25.4087 5.78403 -6.79729 -25.6703 5.94266 
-6.61489 -25.9222 6.09152 -6.41782 -26.1655 6.23453 -6.19829 -26.3956 6.36856 
-5.96592 -26.6156 6.49795 -5.71319 -26.8195 6.61996 -5.44982 -27.0124 6.73862 
-5.16893 -27.1874 6.85178 -4.87966 -27.3514 6.96266 -4.57609 -27.4968 7.06963 
-4.26624 -27.6322 7.17497 -3.9453 -27.7499 7.27739 -3.61988 -27.8593 7.37834 
-3.28626 -27.9535 7.47659 -2.94961 -28.0415 7.57315 -2.60718 -28.1179 7.66651 
-2.26279 -28.1904 7.75778 -1.91454 -28.2555 7.84493 -1.5651 -28.3187 7.92961 
-1.21324 -28.378 8.00923 -0.860772 -28.4369 8.08627 -0.507015 -28.4946 8.1578 
-0.15313 -28.5521 8.22705 0.201039 -28.6092 8.29125 0.554871 -28.6655 8.35395 
0.907927 -28.7201 8.41322 1.26015 -28.7725 8.47221 1.61036 -28.8197 8.5305 
1.95922 -28.8628 8.58994 2.30469 -28.8959 8.65221 2.64831 -28.9229 8.717 
2.98712 -28.9342 8.78832 3.3237 -28.9379 8.86322 3.65421 -28.9209 8.94784 
3.98228 -28.8955 9.03658 4.30344 -28.8461 9.13702 4.62218 -28.7883 9.24157 
4.93376 -28.7056 9.35832 5.24316 -28.6154 9.47868 5.54583 -28.5021 9.61025 
5.84675 -28.383 9.74463 6.14201 -28.2451 9.88815 6.43608 -28.1037 10.0336 
6.72606 -27.9499 10.1856 7.01544 -27.7948 10.3388 7.30262 -27.6352 10.4961 
7.58975 -27.4765 10.654 7.87662 -27.3216 10.8144 8.16386 -27.1696 10.9751 
8.45253 -27.0294 11.1375 8.7418 -26.8937 11.3003 9.03359 -26.7768 11.4649 
9.32598 -26.6652 11.6301 9.62101 -26.5778 11.798 9.91637 -26.4963 11.9668 
10.2132 -26.4421 12.1395 10.5099 -26.3938 12.3132 10.8053 -26.3744 12.4919 
11.0998 -26.3605 12.6716 11.3892 -26.3759 12.8566 11.6767 -26.3965 13.0425 
11.9538 -26.4463 13.2331 12.2283 -26.5011 13.4242 12.4864 -26.5856 13.6182 
12.7411 -26.675 13.8124 12.9736 -26.7955 14.0072 13.2023 -26.9207 14.2016 
13.4038 -27.0787 14.3939 13.6013 -27.2411 14.5856 13.7683 -27.4372 14.7725 
13.9313 -27.6373 14.9587 14.0624 -27.8705 15.1384 14.1899 -28.1071 15.3173 
14.2864 -28.3742 15.489 14.38 -28.6439 15.66 14.4456 -28.9395 15.824 
14.5091 -29.237 15.9875 14.5494 -29.5544 16.1451 14.5882 -29.8729 16.3024 
14.61 -30.205 16.4557 14.6312 -30.5375 16.6089 14.6421 -30.8768 16.7605 
14.6527 -31.2161 16.9123 14.66 -31.5557 17.0656 14.6675 -31.8951 17.2191 
14.678 -32.2288 17.3779 14.6889 -32.5619 17.5371 14.7087 -32.8837 17.7057 
14.7289 -33.2048 17.8749 14.7633 -33.5091 18.0583 14.7982 -33.8128 18.2423 
14.8522 -34.0943 18.4455 14.9066 -34.3752 18.6492 14.9849 -34.6285 18.8776 
15.0635 -34.8815 19.1063 15.1707 -35.1013 19.3652 15.2779 -35.3211 19.6241 

LINES 2 240
OFFSETS vtktypeint64
0 240 
CONNECTIVITY vtktypeint64
0 1 2 3 4 5 6 7 8 
9 10 11 12 13 14 15 16 17 
18 19 20 21 22 23 24 25 26 
27 28 29 30 31 32 33 34 35 
36 37 38 39 40 41 42 43 44 
45 46 47 48 49 50 51 52 53 
54 55 56 57 58 59 60 61 62 
63 64 65 66 67 68 69 70 71 
72 73 74 75 76 77 78 79 80 
81 82 83 84 85 86 87 88 89 
90 91 92 93 94 95 96 97 98 
99 100 101 102 103 104 105 106 107 
108 109 110 111 112 113 114 115 116 
117 118 119 120 121 122 123 124 125 
126 127 128 129 130 131 132 133 134 
135 136 137 138 139 140 141 142 143 
144 145 146 147 148 149 150 151 152 
153 154 155 156 157 158 159 160 161 
162 163 164 165 166 167 168 169 170 
171 172 173 174 175 176 177 178 179 
180 181 182 183 184 185 186 187 188 
189 190 191 192 193 194 195 196 197 
198 199 200 201 202 203 204 205 206 
207 208 209 210 211 212 213 214 215 
216 217 218 219 220 221 222 223 224 
225 226 227 228 229 230 231 232 233 
234 235 236 237 238 239 
CELL_DATA 1
FIELD FieldData 3
Length 1 1 double
81.698205533 
Tortuosity 1 1 double
0.89123333661 
ClusterLabel 1 1 int
2 
POINT_DATA 240
FIELD FieldData 6
Curvature 1 240 double
0 0.092670505461 0.18534101092 0.18094064416 0.17571764288 0.16822056125 0.16068460645 0.15222266356 0.14373677271 
0.13472976265 0.1257046267 0.115629007 0.10550731344 0.093581194718 0.081559265812 0.070394999421 0.059284336936 0.064957800955 
0.07184093175 0.10144838521 0.13291510144 0.17423962907 0.21646854306 0.25630278547 0.29589312613 0.32021605602 0.34282675291 
0.34580260699 0.3463704143 0.33460726389 0.32119998578 0.30439473531 0.28709939267 0.27078744021 0.2546282474 0.24012894276 
0.22590628616 0.21268499186 0.19964215818 0.18690968902 0.17423618911 0.16138136553 0.1484899109 0.13523890752 0.12191085797 
0.10875983005 0.095648951362 0.084480475546 0.073777367084 0.06800679831 0.063482344827 0.064502925528 0.066998249364 0.071397004633 
0.076327902023 0.08069964249 0.084907282557 0.087920938113 0.09056721382 0.093869278731 0.097382653498 0.10284288599 0.10895936266 
0.11888054212 0.1301420146 0.14779456486 0.16779785636 0.1989445433 0.23436718429 0.28654607692 0.3454274702 0.42075041761 
0.50292401256 0.57445138701 0.64136112365 0.65523333874 0.64517398923 0.59227459732 0.51927740776 0.44506662913 0.37026422585 
0.31013025708 0.25742334376 0.21733023107 0.18386744946 0.15813352259 0.13661533467 0.12155497765 0.11014839337 0.1071860744 
0.1091777244 0.1196937003 0.13539338789 0.15301800517 0.17185559183 0.18460194473 0.1933720756 0.19268171476 0.18559552853 
0.17338063983 0.15757565939 0.14154108075 0.12534012661 0.11218178566 0.10130540459 0.094728726019 0.091489129983 0.092132803995 
0.09589486153 0.10186940006 0.10968199971 0.11745610135 0.12519711876 0.13008155952 0.13242682103 0.13066659376 0.12513196549 
0.11580654778 0.1028767729 0.089484571961 0.075637652076 0.068060497701 0.066859376047 0.072706390442 0.085966099646 0.099701190463 
0.11395336304 0.12538730852 0.13365074852 0.13900466547 0.14097295561 0.14192062905 0.14163978238 0.14235201034 0.14430089727 
0.14780012599 0.15329691049 0.15959951145 0.16697653436 0.17401999711 0.18060314685 0.18598534279 0.18965189043 0.19173826965 
0.1914873164 0.18978472487 0.18585834701 0.18084368055 0.17410194737 0.16655040715 0.15766718426 0.14795102734 0.13681509652 
0.12510945129 0.11239686898 0.099427714949 0.085988179433 0.073015978398 0.060932852721 0.050334626059 0.042669074951 0.036551260391 
0.03360829003 0.03091685854 0.028761602015 0.026051647713 0.022112363201 0.020468720386 0.024117807041 0.031105131553 0.04610422692 
0.062486684719 0.0823275486 0.1019107389 0.12082241622 0.13806981362 0.15079244994 0.16065259978 0.16238698151 0.1612697854 
0.15169290838 0.14023165456 0.12292233482 0.10498031146 0.084982001339 0.065064280823 0.045421161931 0.029050259017 0.024383820949 
0.024326004472 0.041596605176 0.058858936011 0.07608853195 0.092752639877 0.10705645001 0.12043357017 0.12972482999 0.13815052409 
0.14253691154 0.14653570987 0.14861594204 0.15090226044 0.15427324317 0.15831913303 0.1661520018 0.17476065382 0.1880240053 
0.20164014539 0.21752736212 0.23284901519 0.24424942691 0.25429260705 0.25415655035 0.25247077584 0.23814884078 0.22293599278 
0.19977917118 0.17646840926 0.15164623327 0.12700240859 0.10430261312 0.081840998616 0.062290484754 0.043046720128 0.02805910115 
0.014409531136 0.022168744534 0.030383520772 0.047178063828 0.064054257091 0.082792075079 0.10158135227 0.12185008138 0.14212302294 
0.16255884544 0.18291556247 0.19864460966 0.21334507211 0.10667253605 0 
Torsion 1 240 double
0 0 0 -0.040137932349 -0.080616016668 -0.087348919534 -0.093504981693 -0.092065544285 -0.090429671545 
-0.071443008473 -0.05185283965 0.0020988720998 0.057557669066 0.2016519662 0.35045257309 0.75113326459 1.1675564614 1.1699422724 
1.1424875512 0.82691417828 0.48776746114 0.3652080766 0.26251908954 0.22647599265 0.1972209031 0.18813996988 0.18132155887 
0.17958517286 0.17847205407 0.17422473738 0.16955952764 0.15934881972 0.14833828034 0.13441228148 0.12003339572 0.10594591653 
0.09190700511 0.080487164915 0.069534089889 0.063100647965 0.057525936331 0.060034209897 0.064175409767 0.084225015652 0.10768356568 
0.16216124764 0.22367419664 0.32860635922 0.44394104173 0.52054659702 0.58736795176 0.52755141992 0.43405459909 0.34257326071 
0.25165539054 0.19769846615 0.15458877585 0.12928225235 0.10945362633 0.088184050671 0.06645016902 0.037208416605 0.0054359212363 
-0.028313532319 -0.062759414327 -0.092333619141 -0.12011594269 -0.13805420018 -0.15221508348 -0.15708656758 -0.15824229201 -0.1520323303 
-0.1427533327 -0.13113160913 -0.11849376344 -0.10697150179 -0.095952613431 -0.081915267978 -0.066461856236 -0.041635125111 -0.012238900787 
0.028585491685 0.07519629841 0.13729648011 0.20753851276 0.30705689925 0.42254420602 0.56435106121 0.72104923985 0.80287667517 
0.84077994107 0.7768624612 0.65102696025 0.53835031872 0.43396556121 0.35761684942 0.29956944526 0.25478520633 0.21896761431 
0.1812671226 0.14224860109 0.091459826005 0.032141881658 -0.03526662706 -0.10874305905 -0.16170632879 -0.19874893528 -0.20127741419 
-0.17609000278 -0.13921172562 -0.092621036912 -0.051159527193 -0.014105905666 0.021027948055 0.054455341506 0.095941271358 0.14483585564 
0.22372201846 0.33112476415 0.51323250982 0.76880017213 0.91328303272 0.94479829834 0.81953658943 0.52938875212 0.30865995032 
0.1634395731 0.049973267855 -0.027769706409 -0.09553187108 -0.15168000277 -0.19674786918 -0.22847837924 -0.24143776832 -0.23102179919 
-0.2049530511 -0.15871629932 -0.11049050814 -0.059612664419 -0.013399741036 0.026375592277 0.061211466882 0.088990971902 0.1119844379 
0.1278985545 0.13969945911 0.14519927302 0.14637226489 0.14067877831 0.13066468834 0.11354560611 0.092672349114 0.065399930596 
0.033436526823 -0.0068179206568 -0.055998688424 -0.12154437672 -0.20308583403 -0.31505826656 -0.42508843977 -0.53128265084 -0.57274781634 
-0.48143545246 -0.3429915513 -0.10408305753 0.2334128569 0.78939981171 1.1535101331 1.0752382166 0.90893469714 0.53135533093 
0.23669122919 0.14931528863 0.078597702714 0.0512927986 0.028242906028 0.016761326085 0.007038478264 0.0023081603338 -0.0010828744248 
-0.00050070244078 0.0024988672644 0.01300070576 0.032271962622 0.080043829179 0.20161240258 0.57463642154 0.96825947186 1.4355636728 
1.6331362348 0.81651783394 0.14745375017 0.062458838208 -0.011229516724 -0.037725285779 -0.061939388708 -0.076093418268 -0.089257022922 
-0.097798644681 -0.10513626697 -0.10651409187 -0.10571020299 -0.093423609967 -0.079682690893 -0.057781386764 -0.036249651879 -0.016935332453 
0.0010731059356 0.010674935146 0.019008836326 0.01855176984 0.017744748087 0.014313061844 0.010771704376 0.0063361046076 0.0016375120022 
-0.0054061000708 -0.012536856379 -0.020523210635 -0.029591241198 -0.050449543508 -0.077579427999 -0.18136198357 -0.36328401564 -1.629391284 
-2.7549121656 -1.6310508605 -0.55187535871 -0.31428248532 -0.085179165367 -0.049637663853 -0.014961550056 -0.0051653331319 0.004421108961 
0.0058962575926 0.0072851358705 0.0036271984503 0 0 0 
FrenetTangent 3 240 double
-0.32338631395 -0.92724263886 -0.18879189769 -0.32338631395 -0.92724263886 -0.18879189769 -0.32338631395 -0.92724263886 -0.18879189769 
-0.37705522576 -0.91086800784 -0.15384365666 -0.43117895887 -0.89435460876 -0.1185992441 -0.47565868211 -0.87361867582 -0.082526909467 
-0.51997355048 -0.85281056282 -0.046440422322 -0.55467678576 -0.83020089918 -0.010970140056 -0.58913144432 -0.80754464372 0.024484205876 
-0.61506184958 -0.78489858823 0.057807934195 -0.64069575908 -0.76225288752 0.091057554075 -0.65964944768 -0.74079279687 0.12014990503 
-0.67831014414 -0.71938470666 0.14905991964 -0.69268630391 -0.69993291742 0.17098233029 -0.70683496615 -0.68058500257 0.19253371772 
-0.71931703497 -0.66382655365 0.2034249906 -0.7316949417 -0.64722994636 0.21365000631 -0.74453541532 -0.63376607089 0.208880666 
-0.75740922709 -0.62052797789 0.20303065137 -0.77109979148 -0.6105929237 0.17768126357 -0.78485718109 -0.60092811813 0.1507364725 
-0.79640065932 -0.59386613681 0.10105555755 -0.80774102642 -0.58704294669 0.049288759679 -0.8099765209 -0.58102080239 -0.024222532593 
-0.81128466725 -0.57508024609 -0.099948541887 -0.79570472056 -0.56784721156 -0.18925295103 -0.77823078212 -0.56046922618 -0.28008017137 
-0.74080592705 -0.55096932978 -0.37109430971 -0.70093426146 -0.541209199 -0.46213137194 -0.64469371421 -0.53006991684 -0.54200739248 
-0.58627064942 -0.51874674783 -0.62039527412 -0.51799816904 -0.50705779749 -0.68268083571 -0.44830509989 -0.49531609023 -0.7426439473 
-0.37458359951 -0.48363422941 -0.7864451606 -0.3002363234 -0.47196166513 -0.82773578775 -0.22614036251 -0.46033254731 -0.85487068312 
-0.15208628749 -0.44871067058 -0.87964628986 -0.08146171248 -0.43707033525 -0.89288979455 -0.011448335491 -0.42542671028 -0.90407807313 
0.05276096614 -0.41393641323 -0.90655077094 0.11586749345 -0.40247524849 -0.90736750841 0.1715704746 -0.39168992784 -0.90228436325 
0.22577778986 -0.38104114136 -0.89600932261 0.27177096151 -0.37197112194 -0.88639170966 0.31600395952 -0.36323940974 -0.8760578312 
0.35202222619 -0.35727430822 -0.86436857316 0.38617735793 -0.35193668542 -0.85237190945 0.41290939866 -0.35056352818 -0.84015552074 
0.4378629905 -0.35014019082 -0.82788648958 0.45679273175 -0.35456567198 -0.81556921621 0.47420065811 -0.36021611781 -0.80323975532 
0.48719420423 -0.37090390177 -0.79033815099 0.49901371305 -0.38293140332 -0.77728438085 0.50772788457 -0.3993187853 -0.76301776827 
0.51557389727 -0.41692505858 -0.74841208147 0.52094562825 -0.4378183804 -0.73225000129 0.52559121135 -0.45967637951 -0.71563115348 
0.52787355286 -0.48373387284 -0.69744939415 0.52942874312 -0.50846813363 -0.67878673897 0.52857883049 -0.53483131274 -0.65837380383 
0.52695394025 -0.56171936554 -0.63739688959 0.52299871159 -0.59026775248 -0.61373222477 0.51825797558 -0.61937580262 -0.58916157661 
0.5115024388 -0.65036693535 -0.55991037211 0.50403714266 -0.68202142673 -0.52901033528 0.49494907132 -0.71556726665 -0.49006832998 
0.48526411715 -0.749808775 -0.44816835927 0.47409058196 -0.78489443965 -0.3930991556 0.46234584708 -0.82030402474 -0.33297664161 
0.44832993265 -0.85252020799 -0.25287351475 0.4334055464 -0.8834590305 -0.16477814275 0.41383416964 -0.90077273533 -0.051214963433 
0.39232654684 -0.9124093078 0.07295980226 0.36304521149 -0.8936080395 0.21622432689 0.3303921454 -0.86160481617 0.36776874695 
0.29095406758 -0.79222859403 0.5113655799 0.24845446008 -0.70598894561 0.65137630645 0.20611161782 -0.60122211273 0.75843206943 
0.16384231974 -0.48776351431 0.85002747913 0.12657962998 -0.37938856448 0.90948207286 0.09175766178 -0.27349189332 0.9532680188 
0.061376872024 -0.18197828312 0.97769455782 0.033244780215 -0.097747235429 0.99231886549 0.0069657543792 -0.02788535613 0.99757857563 
-0.018339223957 0.034423498756 0.99791586912 -0.044115485087 0.084172080589 0.99434514694 -0.07014880956 0.12706960439 0.98864277985 
-0.09814295732 0.15830008536 0.98182939858 -0.12724651826 0.18292947631 0.97438741719 -0.15876279259 0.19564415323 0.96721484747 
-0.19169452545 0.20136886458 0.9602003326 -0.22614043629 0.19441497158 0.95381781295 -0.26150713103 0.17975111649 0.94781961471 
-0.29590895064 0.15275951652 0.94183901857 -0.32970276674 0.11799974857 0.93586951416 -0.35918796843 0.074141310619 0.92883075646 
-0.38586060238 0.024343463094 0.92109401398 -0.4060668408 -0.028553601738 0.91183706581 -0.42190143153 -0.083545912075 0.90155237297 
-0.43184559983 -0.13610232714 0.89032521357 -0.43766647243 -0.18695361552 0.87843832758 -0.44010186914 -0.23289969081 0.86628709904 
-0.44008402247 -0.27529126386 0.85394431791 -0.43937333002 -0.31310062189 0.84131578488 -0.43814300326 -0.34747331867 0.82847293793 
-0.43806721018 -0.37904111673 0.81458303866 -0.43888747309 -0.40843197847 0.79988050176 -0.44165736326 -0.43689155564 0.78304058609 
-0.44599286321 -0.46460328309 0.7644842905 -0.4521176311 -0.49258403021 0.74283268513 -0.45972886776 -0.52078827062 0.71860959161 
-0.46811468293 -0.54954677476 0.69092919649 -0.47716615152 -0.5787815993 0.6602776828 -0.48547201011 -0.607842361 0.62701967637 
-0.49311510425 -0.63674840015 0.59144478748 -0.49851965081 -0.66430643368 0.55552902731 -0.50186617781 -0.69062517171 0.51929988547 
-0.5020181946 -0.71474075997 0.48581275028 -0.49913280825 -0.73676155008 0.45493276894 -0.49277540768 -0.75632937535 0.42958348639 
-0.4830038598 -0.77348511853 0.40967272432 -0.46975428377 -0.78838085827 0.39677611244 -0.45296772998 -0.80097828945 0.39101253467 
-0.43266880734 -0.81150666673 0.39207870786 -0.4086758416 -0.81985897011 0.40032789498 -0.38119491727 -0.82619754449 0.41364158737 
-0.34992007305 -0.83034574696 0.43246403987 -0.31551658158 -0.83269931414 0.4534565907 -0.27759336193 -0.83303391661 0.47689050218 
-0.23728983526 -0.83223963032 0.49941221166 -0.19421649677 -0.83013172801 0.52087244973 -0.14953359177 -0.82779992653 0.53916689284 
-0.10291324558 -0.82519861678 0.55365065683 -0.055063663406 -0.82291414759 0.56396985449 -0.0056833345408 -0.82102423455 0.56910298842 
0.044958087101 -0.81921395409 0.57006673903 0.097224378281 -0.81750627715 0.56565839961 0.15083955377 -0.81486398676 0.55771530181 
0.20625324166 -0.81097554509 0.54505919284 0.26273000374 -0.80479918432 0.52984735657 0.32067380818 -0.79546549519 0.51110861662 
0.37879950292 -0.7827274783 0.49100298921 0.43718504097 -0.76512613603 0.46894466543 0.49448133853 -0.74368757748 0.446778235 
0.55016646786 -0.71657313654 0.42445189682 0.60351501694 -0.6860650487 0.40303602413 0.65328412392 -0.65035818263 0.38301490708 
0.69989241893 -0.61235329865 0.36446836703 0.74148464279 -0.57070156016 0.34826191656 0.77964953378 -0.52815110629 0.33356191669 
0.81217836626 -0.4841227649 0.32133919114 0.84147874191 -0.44064782148 0.31024663999 0.86527606615 -0.39811617008 0.30108052246 
0.88638625855 -0.35740829335 0.29248754371 0.90274710168 -0.31992383233 0.28490755445 0.9171343517 -0.28515777677 0.27736430879 
0.9279033477 -0.25537546457 0.26988842644 0.93738127229 -0.22872688064 0.26208000187 0.94440301227 -0.20804002364 0.25363893603 
0.95065452524 -0.19029613753 0.2447379545 0.95538483984 -0.17836461894 0.23492863952 0.95964738176 -0.16867714652 0.22481350418 
0.96295038999 -0.16359284574 0.214071045 0.9659452705 -0.15967369155 0.20345045384 0.96828335245 -0.15823813929 0.19308963399 
0.97043556472 -0.15670566298 0.18347033756 0.97217584958 -0.15495838205 0.17549441734 0.97384521685 -0.15186917686 0.16892187681 
0.97535107965 -0.14568609072 0.16558490612 0.97679480557 -0.13715646142 0.16417326514 0.97808940296 -0.12299512853 0.16738241543 
0.97908191468 -0.10584688564 0.17274266187 0.97931921223 -0.081231367754 0.18348064867 0.97871641164 -0.053544032111 0.19616465457 
0.97592426439 -0.017851353208 0.21392010418 0.97167374305 0.020192772344 0.23292195789 0.96345826716 0.064629893472 0.25531247273 
0.9535592853 0.10997917025 0.27791946334 0.93888131872 0.1579177921 0.30114096579 0.92302015372 0.20506606651 0.3236406345 
0.90364883341 0.24986964356 0.3439988631 0.88411679103 0.29258350316 0.36316973724 0.86408595605 0.32881203278 0.37865571824 
0.8448827335 0.36236213447 0.39299923857 0.82836925136 0.38720734538 0.40362976174 0.81327810002 0.40927581906 0.41345507422 
0.80303340923 0.42188281776 0.42053670582 0.7943699045 0.4318002625 0.4272127549 0.79136218069 0.43209737959 0.43243806645 
0.78974426871 0.42981858365 0.43759782729 0.79335204925 0.41785435472 0.44251111743 0.79789863793 0.40346486671 0.44757962483 
0.80616134213 0.37947539481 0.45326253387 0.81473383903 0.35337585562 0.45919028235 0.82459938375 0.31846907906 0.46613996934 
0.83411591871 0.28200383517 0.4733357767 0.84209363793 0.23866716714 0.48161675114 0.84923484787 0.19447428768 0.49009910366 
0.85247234785 0.14628575489 0.4995212205 0.85466353983 0.097802287905 0.50909499531 0.85167550718 0.047858896599 0.51941947698 
0.84761268696 -0.0021663605857 0.52984274844 0.83789309006 -0.052622490812 0.54078596616 0.82708702017 -0.1033018427 0.55171100472 
0.81018462968 -0.15523371616 0.562534038 0.79207834176 -0.20767777003 0.57312044792 0.76674866918 -0.26319490637 0.58228711767 
0.7400314539 -0.31931914313 0.59089271494 0.70438193248 -0.37935158892 0.59588640814 0.66731731794 -0.43963208966 0.59998056917 
0.6204413911 -0.50163243808 0.59783797383 0.57250476265 -0.56313774139 0.59468541895 0.51661287213 -0.62093020642 0.58395816752 
0.46040782231 -0.67754718972 0.57246290738 0.40164931972 -0.72457947596 0.55470542232 0.34335941536 -0.77022211692 0.53666059234 
0.28924784523 -0.80347375429 0.51605360347 0.23604140234 -0.83557148115 0.49559732542 0.19172166329 -0.85633990485 0.47662075369 
0.14839719858 -0.87633749844 0.45802258154 0.11592122409 -0.88793304373 0.4435489649 0.084337092492 -0.89906304286 0.42952945369 
0.063653262922 -0.90450303333 0.42106012003 0.043692317822 -0.90965612184 0.41304148109 0.033761394753 -0.91082844569 0.41127623117 
0.024401674609 -0.9117884689 0.40992971744 0.024181201265 -0.90935168194 0.41528298267 0.024407037765 -0.90670595599 0.42102284775 
0.033038376324 -0.90012521259 0.43404367663 0.042016658893 -0.89330441741 0.44740260821 0.058905264906 -0.88101044151 0.46847028124 
0.076058872681 -0.86844123492 0.48979720685 0.10083128113 -0.84795914578 0.51857764381 0.125783298 -0.82719074316 0.54751382334 
0.1576801737 -0.79535155285 0.58247204937 0.18966392622 -0.76327656035 0.61747307063 0.22672997274 -0.71740713971 0.65497761251 
0.26348453988 -0.67192317639 0.69216699017 0.26348453988 -0.67192317639 0.69216699017 0.26348453988 -0.67192317639 0.69216699017 

FrenetNormal 3 240 double
-0.84684722024 0.19456935214 0.49496722395 -0.84684722024 0.19456935214 0.49496722395 -0.84684722024 0.19456935214 0.49496722395 
-0.80958736002 0.2459417484 0.52804292884 -0.77201173828 0.29774950394 0.56139893631 -0.72688606543 0.33976652366 0.59276962381 
-0.68163133187 0.38161618038 0.62410637421 -0.6324486294 0.41393996133 0.65148212256 -0.58316434153 0.44601738343 0.6787554312 
-0.53702895464 0.47214325409 0.69681706681 -0.49100309474 0.49806211427 0.7145582964 -0.46119946417 0.52634822459 0.71315131322 
-0.4321073349 0.55473816167 0.71090449615 -0.44232317932 0.59973530752 0.66323239002 -0.45462617279 0.64561425207 0.61314832165 
-0.53399171222 0.70214871175 0.40432506496 -0.61754866078 0.75934914113 0.18558060901 -0.60065899584 0.63580962513 -0.2132750692 
-0.57652993532 0.49924380677 -0.62511173641 -0.45847489267 0.35256018626 -0.78080908217 -0.33273499694 0.20504874558 -0.91554957436 
-0.2308817837 0.14733395127 -0.95481253753 -0.13122000922 0.097857381398 -0.98531609437 -0.031410847521 0.085163855495 -0.99081586018 
0.068413325839 0.076216750736 -0.99376894358 0.17404557615 0.081224824326 -0.97538207517 0.28032919958 0.087797964647 -0.95460194114 
0.3842990082 0.096913014289 -0.91103855121 0.48798504707 0.10633980753 -0.86468098838 0.57904965396 0.11332578285 -0.79958576635 
0.66843140325 0.11998631578 -0.73199218976 0.73915937534 0.12478392552 -0.65353977606 0.80719689879 0.12931284443 -0.57352118392 
0.85602082644 0.13397085883 -0.49011337305 0.90186011785 0.1386489269 -0.40617908159 0.93089812955 0.14488068675 -0.32427058936 
0.95713592796 0.15137139522 -0.24269973033 0.97011919721 0.15935481781 -0.16651414455 0.98074027315 0.16760426866 -0.091288310429 
0.98188344854 0.17584921801 -0.023150177217 0.98122582284 0.18409331208 0.043641292823 0.97478567737 0.18902814172 0.10329598322 
0.96717734609 0.1932944331 0.16150889995 0.95704703549 0.18717683263 0.21488163326 0.94637630075 0.17883411249 0.2672171844 
0.93379545112 0.14562636475 0.32008624484 0.92078137955 0.10677912623 0.37307630739 0.89407883403 0.01863801318 0.43156869736 
0.86409675829 -0.081313090637 0.49137935327 0.78630362873 -0.23144413059 0.54094340169 0.69643191714 -0.39425220705 0.58791883347 
0.57714664339 -0.52431681516 0.60186564007 0.45003861374 -0.64567305403 0.60702823784 0.34982391254 -0.70895672243 0.60383193267 
0.25712777628 -0.75600504855 0.5982987299 0.18549443161 -0.77775019519 0.59700032326 0.12004255838 -0.79206940872 0.59694473721 
0.064763848136 -0.79527835318 0.60060767745 0.012615341888 -0.79506875332 0.60541477963 -0.034456873773 -0.78825409977 0.61267936708 
-0.079893395801 -0.77931115114 0.62073581088 -0.11459997579 -0.7624298686 0.63562344636 -0.14568972139 -0.74287274316 0.65281373072 
-0.16357098639 -0.71371507345 0.67959128274 -0.1767992639 -0.68117539382 0.7097461677 -0.1790910552 -0.63610415597 0.74793667636 
-0.17736023089 -0.58642360935 0.78908281673 -0.17169010423 -0.52056477482 0.8323776132 -0.16450838481 -0.4484979926 0.87649689399 
-0.16173157187 -0.35630375824 0.91456328551 -0.16071672152 -0.25605854302 0.95020852131 -0.16854930677 -0.13246245275 0.96823264307 
-0.18006832352 0.00086316879476 0.97891463397 -0.19860970694 0.15060719777 0.95584874408 -0.22019693616 0.30747246371 0.91814521915 
-0.24011884214 0.45502209549 0.84156331093 -0.25928932179 0.59836833137 0.74743871758 -0.27107296436 0.70835342233 0.6351964349 
-0.27939117719 0.80268760581 0.5144544955 -0.28596378692 0.86332368911 0.39993428726 -0.29168541514 0.90753194857 0.28844717295 
-0.3063479385 0.92835265796 0.19202806315 -0.32553749737 0.93733156985 0.10323832273 -0.36397651983 0.92749587119 0.028488347097 
-0.41253385009 0.90777044134 -0.038881752166 -0.49086010234 0.85809729513 -0.094335996018 -0.58542394841 0.7920890309 -0.14329068237 
-0.70107199226 0.66208919886 -0.17665070563 -0.82864925326 0.49588361134 -0.20118743265 -0.9071594643 0.25982376075 -0.20141901101 
-0.9568836727 -0.017217257513 -0.18739156881 -0.92383921407 -0.26207762848 -0.16579272455 -0.84046245793 -0.4873686869 -0.13958964932 
-0.73693415189 -0.64619316214 -0.12682490474 -0.62070760895 -0.76313458496 -0.12252814934 -0.51044054402 -0.84268551802 -0.13015282942 
-0.40406369392 -0.89782877025 -0.14555955765 -0.30702941941 -0.93295116953 -0.16593887129 -0.21631125235 -0.95453834428 -0.18967993281 
-0.13729928572 -0.96468639823 -0.21405800054 -0.066481659388 -0.96682706763 -0.23888197263 -0.014456964827 -0.96278376947 -0.26618582092 
0.023949663233 -0.95425933539 -0.29528668096 0.035571492312 -0.9417326636 -0.3318925926 0.027104722155 -0.92620431352 -0.37412729293 
-0.0040454457628 -0.90358803545 -0.4226306674 -0.052800638809 -0.87547067894 -0.47599928149 -0.10255334443 -0.84060045651 -0.52685891155 
-0.15310708289 -0.80030747812 -0.57570375139 -0.1877167587 -0.76095131628 -0.61885637747 -0.20908059786 -0.7223734328 -0.65728008749 
-0.21321710618 -0.68848148457 -0.69205799602 -0.20254887706 -0.65861651195 -0.72370279391 -0.18003181203 -0.63228114294 -0.75233316813 