# vtk DataFile Version 5.1
vtk output
ASCII
DATASET POLYDATA
POINTS 240 float
0 0 0 -0.0622697 -0.236878 0.246988 -0.124539 -0.473757 0.493977 
-0.253331 -0.697929 0.660703 -0.382687 -0.921994 0.826749 -0.563832 -1.13072 0.921468 
-0.745861 -1.33918 1.01497 -0.965105 -1.52979 1.04596 -1.18531 -1.71993 1.07534 
-1.42828 -1.89002 1.05092 -1.67204 -2.05941 1.02462 -1.9244 -2.20705 0.952989 
-2.17714 -2.35373 0.879372 -2.42506 -2.47785 0.768523 -2.67273 -2.60078 0.655696 
-2.90367 -2.70163 0.513263 -3.13358 -2.80111 0.368979 -3.33725 -2.88086 0.202279 
-3.53903 -2.95918 0.0339637 -3.70832 -3.0222 -0.149949 -3.87496 -3.08397 -0.335138 
-4.00661 -3.13664 -0.529554 -4.13504 -3.18847 -0.724816 -4.22984 -3.23821 -0.923763 
-4.32122 -3.28774 -1.12309 -4.38368 -3.34151 -1.32199 -4.44291 -3.39575 -1.52085 
-4.48015 -3.45846 -1.71718 -4.5147 -3.52222 -1.91319 -4.53474 -3.59586 -2.10673 
-4.55284 -3.67082 -2.29995 -4.56265 -3.75455 -2.49257 -4.57127 -3.83956 -2.68512 
-4.57539 -3.93083 -2.87999 -4.57881 -4.02308 -3.07523 -4.5787 -4.11918 -3.27576 
-4.57801 -4.21592 -3.47718 -4.5725 -4.31529 -3.68606 -4.56614 -4.41513 -3.89627 
-4.55246 -4.51803 -4.11471 -4.53737 -4.62152 -4.33472 -4.5121 -4.7298 -4.56211 
-4.48478 -4.83905 -4.79099 -4.44461 -4.95524 -5.02494 -4.40169 -5.07292 -5.25998 
-4.34386 -5.19925 -5.49671 -4.28265 -5.32754 -5.73382 -4.20543 -5.46534 -5.96877 
-4.12438 -5.60543 -6.20319 -4.02772 -5.7551 -6.43171 -3.92712 -5.90721 -6.65875 
-3.81325 -6.0686 -6.87695 -3.69586 -6.23246 -7.09281 -3.56969 -6.4053 -7.29822 
-3.44107 -6.58064 -7.50071 -3.30993 -6.76474 -7.69273 -3.17806 -6.95141 -7.88168 
-3.05093 -7.14659 -8.0616 -2.92525 -7.34439 -8.23876 -2.81127 -7.55 -8.40926 
-2.70106 -7.75813 -8.57762 -2.60793 -7.97257 -8.74169 -2.52056 -8.18912 -8.90432 
-2.45328 -8.4095 -9.06391 -2.39308 -8.63123 -9.22243 -2.35346 -8.85347 -9.37712 
-2.32142 -9.0759 -9.53039 -2.30869 -9.29519 -9.67644 -2.30337 -9.51326 -9.81973 
-2.31548 -9.72467 -9.94995 -2.33458 -9.9334 -10.0749 -2.36981 -10.1324 -10.1794 
-2.41175 -10.3274 -10.2754 -2.4696 -10.5104 -10.3431 -2.53435 -10.6882 -10.3986 
-2.61565 -10.8521 -10.42 -2.70442 -11.0097 -10.4259 -2.81044 -11.1518 -10.3946 
-2.92455 -11.2866 -10.3457 -3.05572 -11.4049 -10.2598 -3.19521 -11.5151 -10.1558 
-3.34999 -11.6079 -10.0184 -3.51253 -11.6919 -9.86401 -3.6869 -11.7586 -9.68191 
-3.86748 -11.8162 -9.48523 -4.05508 -11.8574 -9.26749 -4.24649 -11.8896 -9.03827 
-4.43947 -11.9074 -8.79448 -4.63333 -11.917 -8.54244 -4.82348 -11.9149 -8.2814 
-5.01146 -11.9059 -8.0151 -5.19138 -11.8885 -7.74415 -5.3664 -11.8658 -7.47037 
-5.53021 -11.8384 -7.19512 -5.68697 -11.8079 -6.91893 -5.83053 -11.7763 -6.64338 
-5.96547 -11.744 -6.36825 -6.08591 -11.714 -6.09503 -6.19654 -11.6855 -5.82312 
-6.29154 -11.6623 -5.55375 -6.3756 -11.6427 -5.28616 -6.44275 -11.6303 -5.0213 
-6.49764 -11.6232 -4.7584 -6.53423 -11.6245 -4.49814 -6.55709 -11.6321 -4.23984 
-6.56062 -11.6488 -3.98403 -6.54915 -11.6725 -3.73015 -6.51839 -11.7056 -3.47878 
-6.47213 -11.7463 -3.22942 -6.40822 -11.7973 -2.98289 -6.32963 -11.8568 -2.73871 
-6.23671 -11.9277 -2.49804 -6.13148 -12.0084 -2.26041 -6.01654 -12.1021 -2.02736 
-5.89298 -12.2073 -1.79841 -5.7649 -12.3271 -1.57542 -5.63267 -12.4601 -1.35792 
-5.50088 -12.6085 -1.14791 -5.36951 -12.7714 -0.945023 -5.24262 -12.9498 -0.751033 
-5.12015 -13.1435 -0.565793 -5.00488 -13.3516 -0.390469 -4.89692 -13.5745 -0.225229 
-4.79733 -13.8101 -0.0702458 -4.70654 -14.0591 0.0739488 -4.6238 -14.3183 0.208374 
-4.54981 -14.5886 0.332173 -4.48226 -14.8663 0.447521 -4.42196 -15.1522 0.553359 
-4.36559 -15.4425 0.652725 -4.3138 -15.7379 0.744557 -4.26307 -16.0351 0.832291 
-4.21362 -16.3344 0.915089 -4.16255 -16.6332 0.996256 -4.10946 -16.9313 1.07539 
-4.05287 -17.2276 1.15518 -3.99176 -17.5213 1.23581 -3.92637 -17.8122 1.31896 
-3.85528 -18.0993 1.40549 -3.78037 -18.3833 1.49585 -3.70018 -18.6631 1.59149 
-3.61754 -18.9401 1.6916 -3.53142 -19.2133 1.79808 -3.44465 -19.4843 1.90893 
-3.35693 -19.7522 2.02626 -3.27014 -20.0186 2.14717 -3.18479 -20.2827 2.27357 
-3.1012 -20.5462 2.40214 -3.02038 -20.8085 2.53417 -2.94105 -21.0707 2.66653 
-2.86417 -21.3325 2.79944 -2.78745 -21.5944 2.93069 -2.71101 -21.8564 3.05911 
-2.63267 -22.1186 3.18409 -2.55099 -22.3808 3.30299 -2.46514 -22.6428 3.41727 
-2.37166 -22.9043 3.52306 -2.27206 -23.1648 3.62389 -2.1608 -23.4236 3.71528 
-2.04215 -23.6805 3.80231 -1.90889 -23.9335 3.88073 -1.76775 -24.1835 3.9562 
-1.61046 -24.4272 4.0256 -1.44553 -24.6666 4.09395 -1.26434 -24.8969 4.16005 
-1.07629 -25.1217 4.22707 -0.87301 -25.3343 4.29616 -0.66393 -25.5406 4.3679 
-0.441472 -25.7323 4.44573 -0.214394 -25.9172 4.52736 0.0237721 -26.0856 4.61813 
0.26538 -26.2471 4.71321 0.515592 -26.3914 4.81908 0.768148 -26.5293 4.92918 
1.02681 -26.6503 5.05029 1.28685 -26.7656 5.17511 1.55062 -26.8652 5.31001 
1.81494 -26.9599 5.44789 2.08082 -27.0405 5.59424 2.34662 -27.117 5.7428 
2.61215 -27.1808 5.89795 2.87716 -27.2412 6.05463 3.14056 -27.2904 6.21607 
3.40323 -27.3364 6.37849 3.66354 -27.372 6.54407 3.92316 -27.4045 6.71017 
4.18039 -27.4268 6.87804 4.43713 -27.4461 7.04607 4.69214 -27.4552 7.21469 
4.94698 -27.4616 7.38321 5.2012 -27.4581 7.5514 5.45556 -27.4525 7.71936 
5.71047 -27.4382 7.88647 5.96572 -27.4225 8.05338 6.22232 -27.4008 8.21949 
6.47924 -27.3787 8.38557 6.73756 -27.3547 8.55153 6.99596 -27.3312 8.71772 
7.2548 -27.3102 8.88497 7.51333 -27.2904 9.05273 7.77034 -27.2772 9.22293 
8.02656 -27.2657 9.39383 8.27858 -27.2631 9.56838 8.52932 -27.262 9.74372 
8.77283 -27.2696 9.92342 9.01466 -27.2783 10.1039 9.2464 -27.2929 10.2887 
9.47622 -27.3077 10.4741 9.69377 -27.3238 10.6632 9.90942 -27.3393 10.8526 
10.1119 -27.3507 11.0443 10.3126 -27.3611 11.2361 10.5008 -27.3637 11.4281 
10.6877 -27.3654 11.6199 10.8646 -27.3591 11.8094 11.0407 -27.3524 11.9983 
11.2108 -27.3418 12.1819 11.3806 -27.3318 12.3647 11.5487 -27.3263 12.5393 
11.717 -27.3223 12.7129 11.8874 -27.3339 12.8755 12.0582 -27.3477 13.0371 
12.2332 -27.3888 13.1858 12.4084 -27.4326 13.3336 12.5868 -27.5135 13.4677 
12.7653 -27.5972 13.601 12.9435 -27.7246 13.7211 13.1212 -27.8546 13.8405 
13.2923 -28.0316 13.9481 13.4628 -28.2106 14.0553 13.6185 -28.4366 14.1529 
13.7734 -28.664 14.2503 13.9047 -28.9359 14.3409 14.0352 -29.2087 14.4314 
14.1325 -29.5217 14.5183 14.2292 -29.8353 14.6051 14.2833 -30.1842 14.6916 
14.337 -30.5334 14.7781 14.3384 -30.9125 14.8675 14.3398 -31.2917 14.957 

LINES 2 240
OFFSETS vtktypeint64
0 240 
CONNECTIVITY vtktypeint64
0 1 2 3 4 5 6 7 8 
9 10 11 12 13 14 15 16 17 
18 19 20 21 22 23 24 25 26 
27 28 29 30 31 32 33 34 35 
36 37 38 39 40 41 42 43 44 
45 46 47 48 49 50 51 52 53 
54 55 56 57 58 59 60 61 62 
63 64 65 66 67 68 69 70 71 
72 73 74 75 76 77 78 79 80 
81 82 83 84 85 86 87 88 89 
90 91 92 93 94 95 96 97 98 
99 100 101 102 103 104 105 106 107 
108 109 110 111 112 113 114 115 116 
117 118 119 120 121 122 123 124 125 
126 127 128 129 130 131 132 133 134 
135 136 137 138 139 140 141 142 143 
144 145 146 147 148 149 150 151 152 
153 154 155 156 157 158 159 160 161 
162 163 164 165 166 167 168 169 170 
171 172 173 174 175 176 177 178 179 
180 181 182 183 184 185 186 187 188 
189 190 191 192 193 194 195 196 197 
198 199 200 201 202 203 204 205 206 
207 208 209 210 211 212 213 214 215 
216 217 218 219 220 221 222 223 224 
225 226 227 228 229 230 231 232 233 
234 235 236 237 238 239 
CELL_DATA 1
FIELD FieldData 3
Length 1 1 double
67.754109757 
Tortuosity 1 1 double
0.80532473996 
ClusterLabel 1 1 int
3 
POINT_DATA 240
FIELD FieldData 6
Curvature 1 240 double
0 0.23168008948 0.46336017895 0.4866676997 0.50820935123 0.48271555258 0.45641772914 0.41320610781 0.36955706067 
0.33387195375 0.29846385345 0.27756072593 0.25729378142 0.25019946795 0.24380458621 0.2474323943 0.2516866205 0.26225942603 
0.27328762467 0.28623136578 0.29933183309 0.30922643936 0.31882692993 0.31971031248 0.31970584143 0.30650934322 0.29183336533 
0.26370484332 0.23392648101 0.19704575512 0.15921804742 0.12370250686 0.088520451956 0.067200438624 0.04803375214 0.048878504208 
0.053058496036 0.061773442025 0.071296597666 0.08058607318 0.08983114947 0.099147390761 0.10847800882 0.11682131393 0.12495305197 
0.13080214613 0.13613352725 0.1382322495 0.13955648056 0.13720564172 0.13392636416 0.12734781777 0.11989180627 0.11173595861 
0.10338445783 0.10014702055 0.098410449735 0.10560221746 0.11554116627 0.12945244689 0.14464370111 0.15734857181 0.16921533571 
0.17605198087 0.18111665238 0.18427089029 0.18672243998 0.19619511149 0.2083619344 0.24257697325 0.28561129848 0.36821307786 
0.46730129648 0.60378897834 0.75649811413 0.87111506161 0.96854407047 0.94197004033 0.85722174499 0.7273141071 0.57539128972 
0.45439011935 0.34904547911 0.27586670504 0.21959562986 0.18059160305 0.15100596627 0.13057744818 0.11532993146 0.10508701094 
0.097780120187 0.093602477442 0.091327755781 0.092267532843 0.095232884442 0.10208502251 0.11147436841 0.12528770181 0.14209189999 
0.16250679814 0.18544918626 0.20993742946 0.23554585748 0.25791614485 0.27785782673 0.28970065546 0.29525780713 0.29145077546 
0.28012402082 0.2638581461 0.24348900239 0.22510269906 0.20842039919 0.1976518343 0.19213992272 0.19143074641 0.19513698801 
0.20069780664 0.20802199359 0.21312860726 0.21605460722 0.21531226009 0.2108393905 0.20201930812 0.18862715712 0.17216770947 
0.15237190408 0.13109026462 0.10813706183 0.085447956299 0.063066163953 0.045159413927 0.032639288915 0.03021167668 0.040352099223 
0.050883427513 0.061918422823 0.070223782517 0.074889628054 0.076942403951 0.075389143746 0.072524765309 0.067787360827 0.062747104892 
0.057258881183 0.051173674922 0.044173942197 0.036263206868 0.026906750014 0.021360277166 0.022079111349 0.029145726972 0.047032424593 
0.065606012309 0.08539363833 0.10385142674 0.11987117952 0.133519733 0.1426572244 0.14957585873 0.15211225038 0.1537325898 
0.15347384773 0.15371446672 0.15501951326 0.1567711905 0.15951269794 0.16211526702 0.16439750598 0.16564993294 0.16443081109 
0.16184906965 0.15586077919 0.1490024488 0.13987674158 0.13045110049 0.12021001414 0.11044000002 0.10200722316 0.093890976234 
0.086713768082 0.080424074149 0.076888734688 0.073777329691 0.072043711702 0.070648710438 0.070407514306 0.069829494923 0.068046684683 
0.065781294308 0.061701402624 0.056584770139 0.047364371985 0.037353958288 0.024046088415 0.013510986744 0.015201272145 0.019066308652 
0.033080183655 0.046415404908 0.056391290098 0.065508250279 0.070104552516 0.074016441374 0.074088010708 0.074027939863 0.073178027941 
0.072883262778 0.076162254879 0.079627943065 0.084388057441 0.088026416418 0.083251609909 0.076634423586 0.054994755698 0.036557709619 
0.046677374673 0.06129345559 0.12005616497 0.17907176422 0.24084386291 0.30119020811 0.34411067721 0.38461675459 0.39162314696 
0.39706564602 0.37748585216 0.35746118828 0.32905813897 0.3008562822 0.2772416155 0.25390943899 0.23869885518 0.22364041156 
0.21446472226 0.2053509871 0.19986156971 0.19360481626 0.096802408128 0 
Torsion 1 240 double
0 0 0 0.010107828192 0.020301315945 0.026894563458 0.033426268403 0.045515513752 0.057748488595 
0.076995119313 0.096485703278 0.12182935323 0.14742971659 0.1759478525 0.20462091439 0.23527709086 0.266057212 0.30088408781 
0.33600262161 0.37527795944 0.41489339942 0.45101333832 0.48681258906 0.50861730182 0.52899664497 0.52999000223 0.52880923023 
0.50533159753 0.47911944417 0.40661554079 0.32793940407 0.073384889608 -0.20653669857 -0.82859319906 -1.5037968704 -1.061405745 
-0.4327488202 -0.045167554692 0.29944973193 0.3846309221 0.42051925395 0.37800221487 0.31964570692 0.26178490675 0.20403032969 
0.17056565068 0.14261002071 0.1415745457 0.14698869115 0.18095348156 0.22213106649 0.30308821948 0.39462504484 0.53667072187 
0.69283715315 0.79885381221 0.89015260333 0.81429263428 0.68699920055 0.54859164741 0.406602878 0.29957552015 0.20433290776 
0.11388587815 0.02512820156 -0.085139769083 -0.20331957202 -0.3166682671 -0.42816316498 -0.45083203701 -0.4379704987 -0.35855601018 
-0.25141112574 -0.16597747982 -0.089960756622 -0.043398890065 -0.010127629551 0.013273780073 0.03204488928 0.044848422625 0.054742762736 
0.048019282759 0.032881716661 0.0021130189513 -0.036872042811 -0.087150389099 -0.14358870876 -0.20033267827 -0.25724958125 -0.31122723721 
-0.36348053492 -0.40890476716 -0.45017618932 -0.46820553258 -0.4715891823 -0.44689088876 -0.4038613267 -0.33929356402 -0.26016476431 
-0.18873612245 -0.12269759111 -0.074737094525 -0.039876623136 -0.024149109508 -0.022771314202 -0.038771645319 -0.068259477541 -0.11260445721 
-0.1688801765 -0.23992022732 -0.32322603049 -0.40209205561 -0.47714264647 -0.50897569564 -0.50239315221 -0.46215932766 -0.39098803501 
-0.31888348871 -0.24589158651 -0.1849063395 -0.13572763677 -0.094734477705 -0.062065600343 -0.032461105255 -0.0060794949719 0.023502695435 
0.056566218608 0.10716872556 0.17750258926 0.34090341008 0.61260032646 1.1778026504 2.0962985206 2.1909129966 1.2595619628 
0.65506132042 0.47169483611 0.36288416183 0.35348123424 0.36568142762 0.40769392792 0.45414383258 0.50693288633 0.55124319027 
0.58301201013 0.62268994853 0.67448398343 0.90962466991 1.4357285209 1.8016737108 1.9042468803 1.6998196574 0.97209631099 
0.47118705337 0.37115851083 0.30145635035 0.287352557 0.28325661066 0.298199983 0.31807558147 0.34769232654 0.37567799688 
0.40031787291 0.41364123609 0.40284255873 0.38271467674 0.3419112602 0.29927746624 0.25242363544 0.20865441426 0.17228825618 
0.13922086903 0.11440040923 0.091954682602 0.075697654557 0.060122508973 0.04640123133 0.032416963047 0.017686140686 0.00074394818758 
-0.022758642385 -0.049740596305 -0.087520574408 -0.1239377068 -0.15592559063 -0.18357030159 -0.19641605312 -0.2060623463 -0.20426442313 
-0.20053594307 -0.18954856912 -0.18199128473 -0.18801143815 -0.23788156773 -0.47077768473 -0.64189450256 -0.540620774 -0.43469125454 
-0.30703471091 -0.20380112376 -0.22146117127 -0.24520905186 -0.30099815921 -0.36403217335 -0.46771816443 -0.57266739338 -0.68519604957 
-0.77792764001 -0.74321561971 -0.69918700166 -0.59056330589 -0.49145510504 -0.46371311617 -0.50513197466 -1.1104777424 -1.6287810743 
-1.3709560192 -1.0981188696 -0.6778902453 -0.28954154267 -0.24868398615 -0.21042676548 -0.20395142755 -0.19857931343 -0.20851442956 
-0.21870502762 -0.23298333644 -0.24699245948 -0.25593191701 -0.26433502927 -0.26050946935 -0.25620386664 -0.23809703384 -0.21987847949 
-0.19734002547 -0.17371442448 -0.086490726114 0 0 0 
FrenetTangent 3 240 double
-0.29575962289 -0.71143204917 0.63748779195 -0.29575962289 -0.71143204917 0.63748779195 -0.29575962289 -0.71143204917 0.63748779195 
-0.40908237528 -0.72042150192 0.53891507024 -0.52336548998 -0.72948713648 0.43950698648 -0.60795121187 -0.70920048447 0.32730744076 
-0.69202928601 -0.68841208397 0.21488923757 -0.74088154358 -0.65130985016 0.11168064033 -0.78882278866 -0.61378570687 0.008710222545 
-0.81027557698 -0.572550058 -0.077807979581 -0.83080702768 -0.53118531328 -0.16375393073 -0.83397562073 -0.4918813203 -0.23619734877 
-0.83638268493 -0.45266771117 -0.30804855046 -0.82618372572 -0.41697816075 -0.37168259967 -0.81531542013 -0.3814757285 -0.4348803399 
-0.79295118901 -0.34989659438 -0.49378704584 -0.76986846255 -0.31856266639 -0.55242556213 -0.73465694484 -0.29237099606 -0.60806347008 
-0.69857128001 -0.26654993891 -0.66348511796 -0.6501117282 -0.24850613138 -0.71434526979 -0.60063976746 -0.23109864428 -0.76483220831 
-0.54100705282 -0.22476877095 -0.80707465032 -0.48044215893 -0.21945519247 -0.8485607165 -0.4155803739 -0.22703634739 -0.87785097567 
-0.35028094255 -0.23593085479 -0.90589906932 -0.28915195338 -0.25578610011 -0.92015752853 -0.22849067736 -0.27687058708 -0.93286948668 
-0.17952336041 -0.30305041022 -0.93432711639 -0.13199020825 -0.32985513308 -0.93440449827 -0.098920060334 -0.35464701257 -0.92889197186 
-0.067778312983 -0.37917051295 -0.92263412435 -0.048348643066 -0.39675006954 -0.91631191718 -0.030608215088 -0.41332809579 -0.90998042736 
-0.018732579832 -0.42183336881 -0.90638004418 -0.0077679803383 -0.4290846219 -0.90320391058 0.0030455225629 -0.43044846649 -0.90254628207 
0.013833842699 -0.43083107633 -0.90230840441 0.027952295456 -0.42918710596 -0.9026626718 0.042664237195 -0.42718196289 -0.90312246999 
0.061771809163 -0.42679830446 -0.90201725683 0.081714550874 -0.42672272812 -0.90061469151 0.10566009819 -0.43030659774 -0.8961185578 
0.1304142931 -0.43462974936 -0.89099746077 0.15822565826 -0.4427870844 -0.88200953945 0.18669213131 -0.45176603016 -0.87219301293 
0.21698636896 -0.4635909894 -0.85832339873 0.24769515115 -0.47606143623 -0.84353452752 0.27851881409 -0.49017961173 -0.82502076069 
0.30937000054 -0.50469255554 -0.80561457093 0.33798969665 -0.52013372724 -0.78340189761 0.36604564783 -0.53580939861 -0.76048021791 
0.38906785243 -0.5523843659 -0.73634028842 0.41075129464 -0.56919850763 -0.71187635632 0.42463098595 -0.58734162336 -0.68828466088 
0.43632898346 -0.6058562802 -0.66493681654 0.43801767883 -0.62603735766 -0.6445497608 0.43676886162 -0.64670749335 -0.62503163214 
0.4243634458 -0.66862623759 -0.60988676661 0.40852523042 -0.69092916908 -0.59608752051 0.38200663868 -0.71297173223 -0.58683749372 
0.35204659233 -0.73493039893 -0.57905332649 0.31381200941 -0.75460432054 -0.57459585503 0.27278825684 -0.77350810337 -0.57125974171 
0.22729627761 -0.78891137257 -0.56893280916 0.18023026398 -0.80308150628 -0.56696138347 0.13212392775 -0.81438960496 -0.56302643051 
0.08363494411 -0.8246450011 -0.55836926063 0.035107404205 -0.83426548186 -0.54804400247 -0.013434930549 -0.84364233231 -0.53554378022 
-0.0643569737 -0.85460748649 -0.51202704734 -0.11623090021 -0.86620796217 -0.48410371021 -0.17535566852 -0.87871731015 -0.43650991493 
-0.23750162092 -0.89160535493 -0.38072009542 -0.30985718369 -0.89599431186 -0.29457255116 -0.3866410112 -0.89669691743 -0.19525780099 
-0.46383030065 -0.86905649104 -0.066877679443 -0.54120254242 -0.82862713559 0.074617304794 -0.59774683383 -0.75532529091 0.2139826683 
-0.64451998802 -0.6666017846 0.35234895047 -0.66752907492 -0.57107360057 0.46006110454 -0.67895317902 -0.47222813615 0.55282937116 
-0.67909362678 -0.38550609338 0.61809412214 -0.67352083082 -0.30492249196 0.66943304242 -0.66445196122 -0.2379090508 0.70562785542 
-0.65354541187 -0.17802864258 0.73386230435 -0.64126357769 -0.12817453145 0.7551154086 -0.62823158814 -0.083789309627 0.77256050667 
-0.61384771221 -0.046520525666 0.78721646153 -0.59869895318 -0.013278147336 0.80029434852 -0.58182291455 0.014558935254 0.81261382715 
-0.56393353854 0.039224911008 0.82448837288 -0.54404803282 0.059037826758 0.83652278955 -0.52294866444 0.075899557369 0.84865442504 
-0.4996810973 0.087832924312 0.86132079922 -0.47504726792 0.096660747026 0.87432413203 -0.44788401702 0.10035908765 0.8879502693 
-0.41906961595 0.10070901635 0.9019829595 -0.38689328022 0.095699673761 0.91646528623 -0.35244408725 0.087067161842 0.93125159261 
-0.3133144481 0.073311031037 0.94579772349 -0.27090849662 0.055968367012 0.96017573154 -0.22262077452 0.034341127412 0.97281009568 
-0.1700708998 0.0096091229025 0.98418094976 -0.11188124691 -0.018072943195 0.99156792914 -0.049461760389 -0.047967555484 0.99596700251 
0.015725914259 -0.079278864609 0.99443057815 0.083062033425 -0.11168969964 0.98828749884 0.148276783 -0.14463036946 0.97606882349 
0.2117880085 -0.17799651267 0.95897126042 0.2687192889 -0.21195172451 0.93771850907 0.32018415337 -0.24639631645 0.91301375516 
0.36286565419 -0.28229481385 0.88653852361 0.39799895187 -0.31944276125 0.85854178784 0.42417082452 -0.35888737048 0.83007121942 
0.44237698605 -0.40037345688 0.80117946642 0.45243100539 -0.44412281674 0.77184373051 0.45499031337 -0.489952928 0.74209981677 
0.45054172208 -0.53710702704 0.71123456011 0.43942988229 -0.5855199997 0.67930310856 0.4228515012 -0.63339514948 0.64575972991 
0.40089768783 -0.6807414401 0.6106312896 0.37560319641 -0.72538301266 0.57423247558 0.3469114053 -0.76727402446 0.53654175606 
0.31744249246 -0.80489886395 0.49881539233 0.28715626195 -0.83803686702 0.46105154069 0.25860264749 -0.86647019462 0.42493757806 
0.23193363292 -0.88978615593 0.39061823153 0.20885799487 -0.90898145266 0.35938528643 0.18982490541 -0.92354100176 0.33162454292 
0.1753570045 -0.93495479557 0.30780195368 0.16620132302 -0.94270807413 0.28856194393 0.16170162917 -0.9481309185 0.27354145483 
0.16280636488 -0.9507486106 0.26360001834 0.16778871205 -0.95151757353 0.2576664358 0.17759978292 -0.9499843454 0.25672376572 
0.18977228882 -0.94687503846 0.25923679538 0.20498741293 -0.94173501457 0.26620236123 0.22063023035 -0.93536961253 0.27580460367 
0.23684330554 -0.92737037292 0.28892241491 0.25160397477 -0.91878049666 0.30361247219 0.26436032375 -0.9093755418 0.32047222899 
0.27448245698 -0.90015147522 0.33778022663 0.28084142485 -0.89118582047 0.35572856832 0.28442841843 -0.88302050427 0.37305404636 
0.28391520005 -0.87603902219 0.38945820527 0.28143908372 -0.87021760449 0.40421340976 0.27595597481 -0.8661733067 0.41644255639 
0.27004051402 -0.86335329898 0.4262041456 0.2634389296 -0.86247618637 0.43204982849 0.25820734934 -0.86263090677 0.43495633292 
0.25522866481 -0.86448241924 0.43302952168 0.25515344987 -0.8669214142 0.42808983879 0.26002733084 -0.87036179976 0.41801457925 
0.26865616993 -0.87361601433 0.40533620635 0.28392167921 -0.8765411825 0.38805698193 0.30285691739 -0.87828067951 0.36909605307 
0.32851999189 -0.87784644608 0.34705199942 0.35693951138 -0.87530777553 0.3247429011 0.39060299939 -0.86876554167 0.30192957143 
0.42568113212 -0.85967264963 0.28042631864 0.46355318817 -0.84554220769 0.26151046766 0.50158314739 -0.82895728646 0.24517172424 
0.53993701052 -0.80733753593 0.23411935531 0.57760595343 -0.78360139995 0.22627890876 0.6138149348 -0.75535402129 0.22528492837 
0.64877429259 -0.72538569058 0.22740974543 0.68096421436 -0.69160335804 0.23644649197 0.71148623024 -0.65655241086 0.24791944641 
0.73816279643 -0.61857660215 0.26500921351 0.76292989752 -0.5799002861 0.28352175143 0.78311428237 -0.53954275241 0.30544893928 
0.8013730449 -0.49923044927 0.32775007225 0.81481775162 -0.45903122251 0.35098606798 0.82661826594 -0.41956998056 0.37380842742 
0.83413391521 -0.38203197175 0.39555282564 0.840457946 -0.34565322117 0.41649576396 0.84354226404 -0.31242620391 0.43525973319 
0.84589903551 -0.28038036029 0.45316428513 0.84619051347 -0.25168752568 0.46862920086 0.84609918121 -0.22398874416 0.48332702454 
0.84487217861 -0.19923898679 0.49574914182 0.84350487386 -0.17512472757 0.50752113158 0.84170214862 -0.15298270397 0.51727548422 
0.83992830907 -0.13106328174 0.52643374182 0.83824834801 -0.109867314 0.53365469054 0.83669699715 -0.08868047328 0.54026311647 
0.83558387359 -0.067524732045 0.54478442771 0.8346403257 -0.046436769293 0.54867851029 0.83430333691 -0.02559124496 0.55032904416 
0.83411835676 -0.0051256614756 0.55143720726 0.83450492914 0.013911344415 0.55050605621 0.83497809774 0.032088907398 0.54927218133 
0.83579404307 0.046864508871 0.54684002465 0.83660823503 0.060281822688 0.54445365623 0.83741510856 0.068029761938 0.54225840404 
0.83809998989 0.0742266614 0.5404430191 0.83824699651 0.073584885436 0.54030250344 0.83812077518 0.071509870366 0.54075053684 
0.83671949005 0.062746406135 0.54394513252 0.83489643146 0.052971713413 0.54777245902 0.83098559428 0.038191439664 0.55473180305 
0.82656793888 0.023070329293 0.5622470548 0.81948281916 0.0061553419663 0.57268813661 0.8119199603 -0.010383924531 0.58355859632 
0.80167645408 -0.024814979705 0.59683834309 0.79109395012 -0.038269331368 0.61039832863 0.77847745975 -0.045863461959 0.6256397468 
0.76571149709 -0.052165722002 0.64097736223 0.75198330664 -0.050151565395 0.65693424743 0.73829748608 -0.046966765476 0.67274521213 
0.72490543013 -0.035665505262 0.68754446136 0.71180941178 -0.023784561541 0.70189038297 0.70093367547 -0.0075559915137 0.71283634745 
0.69066151368 0.008320670795 0.72309877381 0.6853108057 0.021327931709 0.72778773551 0.68077896099 0.032995488114 0.73174348722 
0.68354864719 0.032717345983 0.72916144988 0.68709387203 0.030379011155 0.72584237515 0.69825347632 0.0078133298568 0.71528693333 
0.70971149709 -0.017028515806 0.70393241947 0.72442225744 -0.066680553036 0.68386802023 0.73861573057 -0.11813705039 0.66298739627 
0.74648680442 -0.19164806043 0.63213069229 0.75320924235 -0.26588878317 0.60069624146 0.74399435691 -0.35025426967 0.56124555293 
0.73359897837 -0.43434619458 0.52168252865 0.70431571007 -0.51406113389 0.48032213224 0.67423139401 -0.59308198677 0.43920795734 
0.62906067845 -0.65903087883 0.40273095404 0.58346415954 -0.72432260086 0.36660493917 0.52815932434 -0.77463084654 0.3384814606 
0.47263351744 -0.82446943797 0.31064522151 0.41075477385 -0.86080546978 0.29106711707 0.34875128188 -0.89683152807 0.27167264233 
0.28192418566 -0.92087194401 0.25937851569 0.21502947341 -0.94471633088 0.24718174518 0.14417922293 -0.95709301707 0.24068030785 
0.073924352708 -0.96936569749 0.23423350445 0.073924352708 -0.96936569749 0.23423350445 0.073924352708 -0.96936569749 0.23423350445 

FrenetNormal 3 240 double
-0.81037110768 -0.16648651177 -0.56176588471 -0.81037110768 -0.16648651177 -0.56176588471 -0.81037110768 -0.16648651177 -0.56176588471 
-0.74505641584 -0.060556287035 -0.64651244173 -0.67918820965 0.046271651467 -0.7319771899 -0.58799795425 0.14254059432 -0.78331091687 
-0.49637484331 0.23862904152 -0.83406120758 -0.40001265401 0.308493886 -0.85453389534 -0.30352790234 0.37768053385 -0.87422354165 
-0.21173964904 0.4188676947 -0.87728430163 -0.12011475221 0.45908096035 -0.87976666557 -0.031946972816 0.47439491073 -0.87516025037 
0.056069178618 0.48861678588 -0.87024292379 0.14413525932 0.48108045473 -0.86011837729 0.23220399113 0.4723888206 -0.84971734123 
0.32165403067 0.44363036219 -0.83090182255 0.41119040193 0.41361772727 -0.8115603987 0.49962598342 0.36395830884 -0.77865679094 
0.58798222871 0.312882906 -0.74477572848 0.66885373014 0.24116765063 -0.69262959611 0.74911284344 0.16776368005 -0.63898904892 
0.81071964083 0.075892739036 -0.56462781736 0.87061521657 -0.017672419445 -0.48836560557 0.89966889356 -0.11953126499 -0.39506341564 
0.92558126604 -0.22223483792 -0.30002567238 0.91618125247 -0.31836420391 -0.19949536826 0.9028209713 -0.41375627567 -0.09834907602 
0.86225473674 -0.49073848803 -0.0066003074786 0.818351923 -0.56546288743 0.083995934571 0.76819352559 -0.61448695712 0.15273977707 
0.71720105035 -0.66008431617 0.21856996629 0.70551118286 -0.6626999527 0.24971303201 0.69948996071 -0.65911630232 0.27585314722 
0.80626776344 -0.49930555322 0.21549039549 0.9305677448 -0.31522651693 0.14169030519 0.96361830104 -0.094797619749 0.048553772845 
0.98146061977 0.13168958758 -0.047805499848 0.98799755159 0.14481653255 -0.038256935942 0.99251966198 0.11991887632 -0.0098337080879 
0.99135861615 0.035843015195 0.05097633153 0.98911777064 -0.059476704857 0.11793986538 0.96749720418 -0.14153972752 0.18208214335 
0.94196154258 -0.2209246295 0.24565447063 0.91187703491 -0.2708060578 0.299551277 0.88081777451 -0.31436531317 0.35137475746 
0.85172058149 -0.33706289992 0.39737454198 0.82306839343 -0.35502897419 0.44205348825 0.79218400727 -0.36642025927 0.48514142632 
0.76076482364 -0.37623633444 0.52784818536 0.71833533091 -0.39274781183 0.57067861702 0.67312428641 -0.41095075924 0.6135402923 
0.60075898253 -0.4490037031 0.65424059832 0.52117180116 -0.49233590132 0.69436607208 0.3837961213 -0.56015206891 0.71468482257 
0.23026451713 -0.63481321718 0.72946620956 0.0082355989916 -0.69140147712 0.67707348629 -0.23389579173 -0.74268573722 0.60496662196 
-0.44000478361 -0.7191921196 0.48253224906 -0.63502996047 -0.67268992422 0.34461248891 -0.75018322684 -0.59788858859 0.23820042926 
-0.83959998873 -0.51396864109 0.14194085087 -0.89065355008 -0.43694376346 0.087431525723 -0.92877569552 -0.36224306667 0.046995319636 
-0.95081518459 -0.30219991083 0.03918290403 -0.96718919244 -0.24732020691 0.042862960072 -0.97217964784 -0.21320546743 0.080251041365 
-0.97298304946 -0.18672841601 0.13003747677 -0.95436530366 -0.18168662681 0.21544288498 -0.92829525711 -0.18486999637 0.31451603856 
-0.87886229647 -0.18664919797 0.42211151503 -0.8200841702 -0.18786673238 0.53311592066 -0.75707178694 -0.15899151115 0.62433829581 
-0.69229512993 -0.11757764172 0.70731815827 -0.62866114696 -0.034764086382 0.76706642565 -0.56552278163 0.066005959233 0.81673833854 
-0.48634398609 0.19517576702 0.83679076649 -0.39992743545 0.33716010163 0.84347830489 -0.3027912654 0.4699555337 0.81304203566 
-0.20062613809 0.59844012261 0.76518965913 -0.1115034296 0.69387520313 0.69952412464 -0.028738900289 0.7731986483 0.62517467564 
0.037450984063 0.82538501887 0.55594226615 0.095248643117 0.86383109849 0.48930076274 0.14604467309 0.88569040959 0.43614140133 
0.19316035956 0.89883103466 0.39006880687 0.24569833814 0.89785565965 0.36106322595 0.3011939306 0.88918064823 0.34136692515 
0.36693547531 0.863772981 0.33718704744 0.43847407194 0.82889815324 0.34178619859 0.51675050753 0.77174675393 0.35618443564 
0.59897980863 0.70152643265 0.37633146974 0.67814093784 0.60364808733 0.3984595086 0.75543628685 0.48895067334 0.42179221251 
0.81439895307 0.35573729806 0.43618123379 0.86180951782 0.21085633074 0.44493450984 0.88665282384 0.071578297669 0.43911213057 
0.89676472485 -0.064042264429 0.4237750874 0.89593987691 -0.17626204841 0.39660733468 0.8877211705 -0.27266158803 0.36144135578 
0.88333742819 -0.33838703684 0.31884517748 0.88163816074 -0.38264062209 0.2710478596 0.88428305411 -0.40981553541 0.21682802947 
0.8900758901 -0.42461459949 0.15795420495 0.89561164583 -0.43039676282 0.093209556267 0.90095459134 -0.42941625058 0.024061789458 
0.89891830069 -0.43004458887 -0.048499959841 0.89115484167 -0.43192158726 -0.12371136719 0.87121881933 -0.44317770597 -0.19801549832 
0.84150785979 -0.46196554252 -0.27159105916 0.79418654429 -0.49587674202 -0.33965402708 0.73223508692 -0.54235196613 -0.40313730242 
0.64433558743 -0.6020171469 -0.455390038 0.53413698924 -0.67301744666 -0.49799152845 0.40429873363 -0.73593342905 -0.52478349054 