# vtk DataFile Version 5.1
vtk output
ASCII
DATASET POLYDATA
POINTS 240 float
0 0 0 -0.173652 -0.10141 0.159644 -0.347303 -0.20282 0.319289 
-0.515275 -0.358821 0.431621 -0.683199 -0.515284 0.543553 -0.83519 -0.71206 0.602125 
-0.986909 -0.909525 0.659784 -1.12226 -1.1262 0.676225 -1.25719 -1.34338 0.691599 
-1.38211 -1.56707 0.681422 -1.50667 -1.791 0.670356 -1.62779 -2.01577 0.644502 
-1.74876 -2.24058 0.617999 -1.87148 -2.4633 0.58293 -1.9943 -2.68591 0.547406 
-2.12309 -2.90413 0.506577 -2.25227 -3.12208 0.465416 -2.39095 -3.33312 0.419794 
-2.53031 -3.54366 0.373851 -2.68139 -3.7443 0.321481 -2.83342 -3.94414 0.268586 
-2.99669 -4.13117 0.204212 -3.16099 -4.31703 0.138785 -3.33214 -4.48865 0.0552125 
-3.50398 -4.65881 -0.0302087 -3.67505 -4.816 -0.138422 -3.84603 -4.97174 -0.249191 
-4.00862 -5.11843 -0.382383 -4.17017 -5.26401 -0.518325 -4.31893 -5.4054 -0.672033 
-4.46598 -5.54622 -0.82811 -4.59939 -5.68688 -0.996106 -4.73084 -5.82752 -1.16582 
-4.84978 -5.9705 -1.34266 -4.96678 -6.11385 -1.52061 -5.07178 -6.26124 -1.70265 
-5.17479 -6.40931 -1.88539 -5.26649 -6.56216 -2.07008 -5.35617 -6.71586 -2.25511 
-5.43581 -6.87368 -2.44113 -5.51354 -7.03229 -2.62734 -5.58049 -7.19469 -2.81433 
-5.64527 -7.35785 -3.00147 -5.69774 -7.52445 -3.18932 -5.74757 -7.69178 -3.37732 
-5.78275 -7.86204 -3.56592 -5.81461 -8.03296 -3.75467 -5.82764 -8.20602 -3.94363 
-5.83617 -8.37959 -4.13263 -5.82087 -8.55354 -4.32041 -5.79954 -8.72758 -4.50787 
-5.75542 -8.89993 -4.69225 -5.70523 -9.07182 -4.8758 -5.63311 -9.24046 -5.05444 
-5.55484 -9.4082 -5.2317 -5.45746 -9.57197 -5.40278 -5.35448 -9.73458 -5.57205 
-5.23601 -9.89336 -5.73459 -5.11277 -10.051 -5.89507 -4.97744 -10.2054 -6.04878 
-4.8382 -10.3589 -6.2003 -4.68781 -10.5098 -6.34328 -4.53366 -10.6599 -6.48338 
-4.37178 -10.8093 -6.61493 -4.20719 -10.9585 -6.74348 -4.03691 -11.1081 -6.86364 
-3.86454 -11.2577 -6.98071 -3.68701 -11.4084 -7.08819 -3.50751 -11.5595 -7.19198 
-3.3228 -11.7125 -7.28304 -3.13602 -11.8663 -7.36901 -2.94403 -12.0231 -7.43433 
-2.74988 -12.1811 -7.49104 -2.55328 -12.3413 -7.52471 -2.35562 -12.5024 -7.54838 
-2.15905 -12.6645 -7.54108 -1.96299 -12.8269 -7.51979 -1.7758 -12.9868 -7.45918 
-1.59279 -13.1456 -7.38012 -1.43118 -13.2965 -7.2583 -1.27999 -13.4435 -7.11564 
-1.16301 -13.578 -6.93712 -1.06334 -13.7061 -6.74044 -1.00395 -13.8215 -6.52294 
-0.965729 -13.93 -6.2945 -0.96509 -14.0299 -6.06036 -0.98495 -14.1251 -5.8231 
-1.03411 -14.2172 -5.58984 -1.09985 -14.3075 -5.35883 -1.1851 -14.3998 -5.13567 
-1.28181 -14.4933 -4.91712 -1.38927 -14.5923 -4.70644 -1.50327 -14.6947 -4.50055 
-1.62085 -14.8049 -4.30103 -1.74068 -14.9202 -4.10553 -1.85829 -15.0449 -3.91478 
-1.97445 -15.1757 -3.72713 -2.08378 -15.3167 -3.5431 -2.18849 -15.4644 -3.36151 
-2.28324 -15.6218 -3.18309 -2.37103 -15.7861 -3.00689 -2.44778 -15.9587 -2.83392 
-2.51653 -16.1373 -2.66329 -2.57523 -16.3225 -2.49609 -2.6264 -16.5126 -2.33146 
-2.66985 -16.7074 -2.17026 -2.70732 -16.9058 -2.01174 -2.73964 -17.1078 -1.85673 
-2.76784 -17.3127 -1.70456 -2.79422 -17.5199 -1.5553 -2.81909 -17.729 -1.40846 
-2.84408 -17.9395 -1.26364 -2.86919 -18.1512 -1.12056 -2.89512 -18.3639 -0.979042 
-2.92177 -18.5773 -0.838907 -2.9494 -18.7914 -0.699941 -2.97792 -19.0061 -0.562051 
-3.00712 -19.2213 -0.425001 -3.03696 -19.4369 -0.288751 -3.06608 -19.6529 -0.153159 
-3.09449 -19.8695 -0.0182125 -3.12035 -20.0867 0.116331 -3.14363 -20.3043 0.250464 
-3.16277 -20.5227 0.384084 -3.17758 -20.7416 0.517164 -3.18668 -20.9613 0.649457 
-3.18958 -21.1817 0.780895 -3.18539 -21.4026 0.911119 -3.17323 -21.6242 1.03998 
-3.15314 -21.8461 1.1671 -3.12381 -22.0683 1.2922 -3.08569 -22.2904 1.41482 
-3.03698 -22.5123 1.53445 -2.98073 -22.7336 1.65142 -2.91512 -22.9542 1.76508 
-2.84412 -23.1741 1.87662 -2.7662 -23.3931 1.98542 -2.68432 -23.6114 2.09265 
-2.59716 -23.8288 2.19781 -2.50725 -24.0454 2.30208 -2.41352 -24.2611 2.40511 
-2.31798 -24.4761 2.50795 -2.21985 -24.69 2.6105 -2.12052 -24.903 2.714 
-2.0194 -25.1144 2.81889 -1.91768 -25.3245 2.92568 -1.81505 -25.5327 3.03537 
-1.7118 -25.7393 3.14741 -1.60758 -25.9433 3.2632 -1.50251 -26.1452 3.38179 
-1.39605 -26.3437 3.50499 -1.28831 -26.5393 3.63138 -1.17843 -26.7302 3.76321 
-1.06616 -26.9167 3.89898 -0.949678 -27.0956 4.0417 -0.829755 -27.2689 4.18789 
-0.703514 -27.4322 4.34044 -0.573232 -27.5893 4.49553 -0.435262 -27.7348 4.65544 
-0.292645 -27.8732 4.81701 -0.140848 -27.9976 4.98183 0.0157797 -28.1144 5.14719 
0.182317 -28.2155 5.31365 0.353306 -28.3091 5.47957 0.533784 -28.3867 5.64431 
0.717863 -28.4577 5.80775 0.909923 -28.5139 5.96832 1.10455 -28.5649 6.12735 
1.30508 -28.6038 6.28284 1.50728 -28.6389 6.43696 1.71346 -28.6648 6.58778 
1.92033 -28.6887 6.73793 2.12891 -28.7077 6.88643 2.33755 -28.7261 7.03493 
2.54635 -28.7428 7.18341 2.7549 -28.7595 7.33225 2.96275 -28.7761 7.48206 
3.17018 -28.793 7.63243 3.37641 -28.8105 7.78436 3.58217 -28.8283 7.93689 
3.78657 -28.8469 8.09116 3.99057 -28.8656 8.24594 4.19338 -28.8844 8.40227 
4.396 -28.9028 8.5589 4.59798 -28.9196 8.71652 4.80004 -28.9357 8.87412 
5.00234 -28.949 9.03166 5.20481 -28.9614 9.18904 5.4079 -28.9702 9.34586 
5.61119 -28.978 9.50247 5.81519 -28.9818 9.6583 6.01932 -28.9846 9.81397 
6.22398 -28.9833 9.96899 6.42866 -28.9812 10.124 6.63341 -28.9754 10.2788 
6.838 -28.9689 10.4338 7.0419 -28.9593 10.5895 7.24544 -28.9492 10.7457 
7.44728 -28.9369 10.9039 7.64869 -28.9243 11.0626 7.84798 -28.9103 11.2239 
8.04682 -28.8961 11.3857 8.24335 -28.8806 11.5502 8.43948 -28.8648 11.7151 
8.63335 -28.8475 11.8826 8.82689 -28.8298 12.0503 9.01843 -28.8102 12.2202 
9.20972 -28.7903 12.3903 9.39936 -28.7681 12.5619 9.5888 -28.7456 12.7338 
9.77687 -28.7207 12.9068 9.96477 -28.6955 13.0799 10.1515 -28.6684 13.2541 
10.338 -28.6414 13.4284 10.5239 -28.6146 13.6035 10.7097 -28.5881 13.7788 
10.8948 -28.5639 13.955 11.0799 -28.5402 14.1313 11.2644 -28.5214 14.3088 
11.4489 -28.5034 14.4864 11.6327 -28.4934 14.6654 11.8163 -28.4848 14.8445 
11.9984 -28.4936 15.0254 12.1802 -28.5038 15.2063 12.3586 -28.5355 15.3879 
12.5366 -28.569 15.5694 12.7077 -28.63 15.7499 12.8782 -28.6929 15.9302 
13.0362 -28.7896 16.1065 13.1934 -28.888 16.2823 13.331 -29.0234 16.4497 
13.4678 -29.1599 16.6167 13.5788 -29.3309 16.7709 13.6891 -29.5025 16.9247 
13.7714 -29.7011 17.0638 13.8532 -29.8999 17.2026 13.9086 -30.117 17.3273 
13.9639 -30.3342 17.452 13.9965 -30.5626 17.5646 14.0292 -30.7909 17.6773 

LINES 2 240
OFFSETS vtktypeint64
0 240 
CONNECTIVITY vtktypeint64
0 1 2 3 4 5 6 7 8 
9 10 11 12 13 14 15 16 17 
18 19 20 21 22 23 24 25 26 
27 28 29 30 31 32 33 34 35 
36 37 38 39 40 41 42 43 44 
45 46 47 48 49 50 51 52 53 
54 55 56 57 58 59 60 61 62 
63 64 65 66 67 68 69 70 71 
72 73 74 75 76 77 78 79 80 
81 82 83 84 85 86 87 88 89 
90 91 92 93 94 95 96 97 98 
99 100 101 102 103 104 105 106 107 
108 109 110 111 112 113 114 115 116 
117 118 119 120 121 122 123 124 125 
126 127 128 129 130 131 132 133 134 
135 136 137 138 139 140 141 142 143 
144 145 146 147 148 149 150 151 152 
153 154 155 156 157 158 159 160 161 
162 163 164 165 166 167 168 169 170 
171 172 173 174 175 176 177 178 179 
180 181 182 183 184 185 186 187 188 
189 190 191 192 193 194 195 196 197 
198 199 200 201 202 203 204 205 206 
207 208 209 210 211 212 213 214 215 
216 217 218 219 220 221 222 223 224 
225 226 227 228 229 230 231 232 233 
234 235 236 237 238 239 
CELL_DATA 1
FIELD FieldData 3
Length 1 1 double
61.309513994 
Tortuosity 1 1 double
0.6059798694 
ClusterLabel 1 1 int
3 
POINT_DATA 240
FIELD FieldData 6
Curvature 1 240 double
0 0.28199890614 0.56399781227 0.55511011397 0.54375727494 0.46379515027 0.38266021729 0.30360715607 0.22460793637 
0.17297961911 0.12230333323 0.096987259845 0.072783476483 0.072368438408 0.073216519552 0.086700162095 0.10097352723 0.11783332566 
0.1348795337 0.15169068203 0.1684825982 0.18416176225 0.19973883895 0.21040579943 0.22057265548 0.22009651961 0.21842677717 
0.20646398808 0.19323884421 0.17642837338 0.15913985896 0.14412920415 0.1294470868 0.12312202617 0.11809514911 0.11455496111 
0.11126255461 0.10538287971 0.099042107477 0.10061434906 0.10369006327 0.10974124714 0.11639353601 0.12633767021 0.13698719985 
0.15471109642 0.17403948858 0.19741311095 0.22175590305 0.22464462569 0.22211337289 0.22134172908 0.22103806638 0.21331660344 
0.20352134688 0.18991296113 0.17518550485 0.16057008172 0.14598913032 0.14315738798 0.14411150188 0.13451836729 0.1213699804 
0.11316073466 0.10669141363 0.10848305213 0.11331320447 0.1263485938 0.1425325043 0.17695589678 0.21867508207 0.23899181516 
0.25039085984 0.28551956677 0.33094065733 0.38449643966 0.44172275366 0.4953842586 0.54737338398 0.57771794114 0.59751077129 
0.58945437611 0.56729710736 0.5284203966 0.48075526121 0.42889407511 0.37474413408 0.32319149315 0.27310837729 0.22980319598 
0.19047440295 0.16240420106 0.14118043972 0.13365719873 0.13476716235 0.14305923167 0.15603962 0.16800971602 0.17929679751 
0.18461669175 0.18575955489 0.18016768064 0.16969556188 0.15517919159 0.13762963264 0.12097231677 0.10500748805 0.086713018473 
0.066547776696 0.051150971775 0.039715637476 0.032836455519 0.029872716982 0.027273166468 0.024997338641 0.022168061289 0.018829967439 
0.017023364901 0.016672934429 0.022438491973 0.034218104399 0.046343887193 0.058821707648 0.071612613038 0.08473279741 0.097375742899 
0.10949958644 0.11994083488 0.12848916381 0.13753928353 0.14717330527 0.14871167511 0.14050527877 0.128155841 0.11064714407 
0.095414421819 0.083114205389 0.071305139519 0.060150941061 0.049956930084 0.041087977831 0.03559064889 0.034909924678 0.036622135054 
0.041873894507 0.047431755586 0.053458538302 0.060085493816 0.067664897465 0.075748099348 0.084659769438 0.098048732572 0.11906944521 
0.1370492419 0.14965439644 0.16012854819 0.16669586152 0.17508836018 0.18695316264 0.19736065457 0.2048899582 0.20967958909 
0.20884937849 0.2048913386 0.19426608368 0.1813896015 0.16352391297 0.14535182144 0.12647330075 0.10498451486 0.077231092494 
0.051722720921 0.031826976327 0.016754980693 0.0142539672 0.01362240779 0.018073426668 0.021680022384 0.022889545898 0.023279477553 
0.021237953362 0.01959984447 0.019213714094 0.019821718816 0.023660662604 0.027557275468 0.031650390366 0.035345499853 0.037616974604 
0.03938092451 0.039236580999 0.03864233224 0.036267208539 0.033930416358 0.031753616611 0.030169363062 0.031197699569 0.032088565703 
0.032337903427 0.032668824489 0.033403583073 0.033937236692 0.033412443132 0.032779125491 0.031536867176 0.030286391538 0.028986611962 
0.027749949908 0.026919606905 0.02587188959 0.023317043706 0.020400656674 0.01477271103 0.010427084347 0.016537289196 0.023029682132 
0.032929918846 0.043107608867 0.056009385891 0.070973842696 0.10842150912 0.14428138613 0.16073494815 0.17788885493 0.20476004531 
0.23187942954 0.26296991543 0.29374381665 0.31855537318 0.34261099977 0.34943142348 0.35553463557 0.34101801329 0.32617285918 
0.29862447463 0.27105116364 0.24201965619 0.21233992643 0.10616996321 0 
Torsion 1 240 double
0 0 0 -0.024272211247 -0.0487501192 -0.075918862803 -0.1031336036 -0.17576050545 -0.24956185975 
-0.44706781002 -0.64887652885 -1.0125896884 -1.3834039198 -1.1712908769 -0.92822594327 -0.53948907046 -0.14164770146 0.077800945794 
0.28439245995 0.40493918358 0.5184458789 0.56288211981 0.60098162178 0.59471330469 0.58392604306 0.56719613094 0.54979975334 
0.54124498172 0.533774558 0.52674609283 0.51977655547 0.50994131759 0.49969275753 0.44763627323 0.3890853541 0.30182405091 
0.20977768371 0.12161058371 0.034134838249 -0.014775894262 -0.056359274313 -0.072563661144 -0.083640978637 -0.086883123929 -0.08844630375 
-0.08023455173 -0.069805804861 -0.05315425053 -0.035011815245 -0.020331156322 -0.0065250514273 0.0076783928385 0.021987512469 0.03749250305 
0.053331823144 0.071716648316 0.090848523891 0.13285132155 0.181891326 0.22501384279 0.26622961356 0.31200250362 0.3593115013 
0.33969249863 0.29649658674 0.26021413449 0.22647456393 0.21246774656 0.2060327996 0.16977585987 0.12159012304 0.10305620585 
0.096877213526 0.093736477666 0.091913539793 0.10113597462 0.11534229712 0.1351425889 0.15756721194 0.18565388607 0.2165008101 
0.25204249726 0.28996127968 0.32845322364 0.36724644481 0.40768836207 0.4490295681 0.50793086635 0.57676747993 0.69103817358 
0.83196352753 0.98463804564 1.1444573257 1.1251745805 0.99303302483 0.80809575755 0.58869462299 0.42236185933 0.29190630417 
0.19465268964 0.12064043355 0.058073747623 0.003800953126 -0.059799141803 -0.13039471206 -0.22343664744 -0.33389964234 -0.51402523001 
-0.75009199067 -0.91903063483 -1.0322013053 -0.9541076741 -0.71164628372 -0.5012228488 -0.31927759652 0.066372383498 0.63929929063 
1.2799855302 1.985098676 1.8278785781 0.82269745707 0.24892446447 0.11387160245 0.032389432905 0.0072488537306 -0.011349257323 
-0.022830999542 -0.032470313534 -0.040036895772 -0.044172619719 -0.044316072201 -0.042373386598 -0.037919608856 -0.02610248242 -0.0051159028947 
0.025505908583 0.068542345844 0.13140643395 0.22070738984 0.41313684501 0.7478836292 1.0108700284 1.171341592 1.0932428808 
0.66225897118 0.31784633051 0.106053506 -0.043287329137 -0.093519572468 -0.14876639542 -0.21225941596 -0.25754810937 -0.2718066997 
-0.27990081935 -0.27709959545 -0.26843410983 -0.24901747773 -0.22737014654 -0.20147904634 -0.17899833301 -0.16325313373 -0.14779756803 
-0.13293612246 -0.11814994075 -0.1035241899 -0.088460924684 -0.072428033019 -0.052132932057 -0.02201107077 0.028922009802 0.12980201666 
0.44042515012 1.2754061001 1.8999577308 1.9761178021 1.7895754841 0.88881104516 0.16857711771 -0.039183099787 -0.30423385889 
-0.73924655806 -1.152542463 -1.4984414203 -1.6331225009 -1.0813454824 -0.59738115324 -0.3444822841 -0.12800597507 -0.041810361756 
0.043251461813 0.12405023596 0.21744667434 0.36070886695 0.51999885922 0.74618749357 0.91678359733 0.84226717981 0.74118467441 
0.51612709227 0.29772156562 0.11224371368 -0.057146114851 -0.14186213593 -0.22294476974 -0.28364006393 -0.33641699324 -0.3416837332 
-0.33043417648 -0.21286095993 -0.073429343449 0.21755384581 0.65585205086 2.1990128743 3.4174469764 1.9881093514 0.67832820899 
0.43459237006 0.20921535076 0.16408856058 0.11862121792 0.069441853294 0.02253781052 0.0034432570458 -0.015174433739 -0.02717565471 
-0.038818713558 -0.044731178413 -0.050613053874 -0.055918829076 -0.06123538206 -0.066797668472 -0.072348205121 -0.077560936097 -0.08274054821 
-0.086639564335 -0.089715954118 -0.044668702894 0 0 0 
FrenetTangent 3 240 double
-0.67388011382 -0.50874759624 0.5357811825 -0.67388011382 -0.50874759624 0.5357811825 -0.67388011382 -0.50874759624 0.5357811825 
-0.65295874843 -0.60279921169 0.4366776125 -0.63186008333 -0.69764787473 0.33673418174 -0.59786398189 -0.75545568821 0.24122679923 
-0.56364741145 -0.81263032479 0.14579524661 -0.53572796861 -0.83727687464 0.077880537881 -0.50797138252 -0.86108218087 0.010677471669 
-0.49341401675 -0.86814840702 -0.030877614685 -0.47931575429 -0.8746324043 -0.071540597391 -0.47692227473 -0.87336557582 -0.095950425673 
-0.47504216285 -0.87175879883 -0.1196473963 -0.48250030173 -0.86535195229 -0.13434281757 -0.49045427693 -0.85869023479 -0.14856028047 
-0.50610989827 -0.84740384389 -0.15893455476 -0.52224687249 -0.8358284109 -0.16906862976 -0.54413075592 -0.81880428844 -0.1804080316 
-0.566428831 -0.80138746765 -0.19183430385 -0.59063155529 -0.77809678443 -0.21023407111 -0.61499011451 -0.75432551246 -0.22920439704 
-0.63484484815 -0.72613123282 -0.25981628052 -0.65428638678 -0.69753117265 -0.29149619681 -0.66213154535 -0.66846796328 -0.33450401788 
-0.66879559113 -0.63935758132 -0.37866560704 -0.66046972486 -0.61492375439 -0.42728458601 -0.65046274696 -0.59101440093 -0.47640345917 
-0.6284886472 -0.57534548997 -0.52086540755 -0.60504688154 -0.56068719931 -0.56475622365 -0.57629968165 -0.55455110157 -0.59867337308 
-0.54684509052 -0.54955129622 -0.63126070028 -0.51750455828 -0.55091183678 -0.65374986576 -0.48818047683 -0.55318973492 -0.6747825656 
-0.46028693595 -0.55965755932 -0.68844520043 -0.43261561495 -0.56677624606 -0.70096297079 -0.40593435185 -0.57638941424 -0.70862760757 
-0.37941809839 -0.58641832933 -0.71548338875 -0.35461650254 -0.59664050704 -0.71941756031 -0.33012048922 -0.6068971276 -0.72283104898 
-0.30593658334 -0.61632522281 -0.72517988987 -0.28181197788 -0.62559589821 -0.72732644769 -0.25525714702 -0.63426988256 -0.72921510603 
-0.22821136153 -0.64282332326 -0.73105166345 -0.19713198791 -0.65056981592 -0.73269620605 -0.16518827398 -0.65814339115 -0.7342996026 
-0.12659605342 -0.66449422611 -0.73540461697 -0.086495924137 -0.67056773854 -0.73639659621 -0.037086121612 -0.67432763945 -0.73573816065 
0.01455412346 -0.67753323759 -0.73468431321 0.070531285501 -0.67702387792 -0.73040415953 0.12760408972 -0.6755760026 -0.725308939 
0.18338118409 -0.67063223328 -0.71661946567 0.23881367478 -0.66475870492 -0.70697407404 0.2910570841 -0.65640460169 -0.69399295084 
0.3424089223 -0.64735700443 -0.68007925751 0.38775053049 -0.63751256932 -0.66411952761 0.43132826684 -0.62743427963 -0.64755933046 
0.46832417574 -0.61800873735 -0.63023847769 0.50329490697 -0.60878404044 -0.61268357702 0.53440921466 -0.60091304439 -0.5933266717 
0.56428089699 -0.59347824083 -0.57338912044 0.59017614249 -0.58848348986 -0.5516557265 0.61473101602 -0.58431122853 -0.52931699232 
0.63426926022 -0.58297522145 -0.50703125577 0.65204028272 -0.5826383494 -0.48476418883 0.66746438261 -0.58395286692 -0.46125078012 
0.6820252466 -0.58587479209 -0.43727894684 0.69614809593 -0.58925671922 -0.40879136391 0.71010286986 -0.59319887966 -0.37857099333 
0.72446161414 -0.59930868116 -0.33737815489 0.73898194656 -0.60628553908 -0.2917963293 0.75113975984 -0.61374621323 -0.23575915659 
0.76231319013 -0.62140847746 -0.17536558925 0.76808661379 -0.62760487574 -0.10416577695 0.77151786589 -0.63316547673 -0.028278918633 
0.76410453688 -0.63446446386 0.064845870862 0.75179792127 -0.63384052767 0.16574875125 0.71898352319 -0.62438410489 0.27987152577 
0.67654819012 -0.61078404644 0.40019622593 0.60750739276 -0.58620799926 0.51793932726 0.52549643157 -0.55628115756 0.63442389916 
0.42346125167 -0.5204007996 0.72877398409 0.31128722686 -0.48150600302 0.81191673383 0.1954421845 -0.4460527945 0.86504209906 
0.077667504711 -0.41240862586 0.90238909549 -0.029510146254 -0.38846775955 0.91589234739 -0.13090759968 -0.36981960362 0.91638992047 
-0.21513024027 -0.36177975532 0.90423925769 -0.28963555255 -0.35974197581 0.8849323562 -0.34660459471 -0.36619313478 0.86210400067 
-0.39328569173 -0.377624471 0.83720972543 -0.42483998017 -0.395020999 0.81376815559 -0.44719553367 -0.41604500848 0.79120998769 
-0.4571450233 -0.44117472416 0.77165741559 -0.45927699325 -0.46889159716 0.75399878059 -0.45131729879 -0.4990240595 0.73898882502 
-0.43676999006 -0.53073336488 0.72570786852 -0.41453024138 -0.56297989826 0.7138546859 -0.38708996992 -0.59558962804 0.70296675884 
-0.35523455539 -0.62670950524 0.69222328125 -0.32028854071 -0.65678648563 0.68158091828 -0.28491771306 -0.68383970605 0.67045477105 
-0.24923904993 -0.70870179604 0.65897805553 -0.21653814913 -0.73013315845 0.6471812545 -0.1860705701 -0.74899147518 0.63514438933 
-0.1601870392 -0.76520520159 0.62298481434 -0.13786127701 -0.77936641015 0.61073000185 -0.12113292324 -0.79137844144 0.59894582071 
-0.10889945804 -0.80166461825 0.58753957081 -0.10170981688 -0.8099380629 0.5775388679 -0.098710429543 -0.81653939159 0.56870585021 
-0.098257704954 -0.82184848404 0.56112448978 -0.099993518666 -0.82604706097 0.5546187723 -0.10256228088 -0.82955752911 0.5488900219 
-0.10587144176 -0.832456345 0.5438519089 -0.10906385469 -0.83489739068 0.53947181572 -0.11214893482 -0.83691758312 0.53569667627 
-0.11359738785 -0.83883556537 0.53239244974 -0.11348970362 -0.84065636416 0.52953597651 -0.1102269023 -0.84260585273 0.52709417669 
-0.10386156917 -0.84468188625 0.52506013907 -0.094117212333 -0.84693674146 0.52316638452 -0.080936560198 -0.84937344923 0.52141529072 
-0.064549592176 -0.85197959685 0.51929206496 -0.044790464341 -0.85476394845 0.51677745903 -0.021961437105 -0.85747836976 0.5135465031 
0.0042067789519 -0.86011672654 0.50953635946 0.032775820436 -0.86235214203 0.50451679162 0.064045790526 -0.86413424854 0.49836162155 
0.09725675512 -0.86521950152 0.49089658374 0.1327263315 -0.86549387039 0.48190733621 0.16807586724 -0.86490112432 0.4719458649 
0.2032809096 -0.86326462879 0.46081412424 0.23542457551 -0.8610911545 0.44995080662 0.2637559613 -0.85824898967 0.43942175165 
0.28882761536 -0.85524014425 0.42987143886 0.30969923043 -0.85201653731 0.42158219773 0.32817771591 -0.84874046135 0.41442933808 
0.34346536194 -0.8453944267 0.40879165374 0.35678802833 -0.84204344261 0.40444791548 0.36739902281 -0.83868562831 0.40188982281 
0.37658817038 -0.83500542739 0.40112368882 0.3837461081 -0.83086467416 0.40291749578 0.38978356009 -0.82615524572 0.40678350191 
0.39416362694 -0.82060465186 0.41371463597 0.39801484449 -0.8144397573 0.42209294946 0.40105590992 -0.80733380635 0.43268821867 
0.4043755084 -0.79933005181 0.44427334315 0.40813712672 -0.78990152201 0.45742932489 0.412562568 -0.77923470965 0.47150538932 
0.41807962927 -0.76653161043 0.48709447861 0.42515803136 -0.75153117983 0.50393373788 0.43489780983 -0.73261484346 0.52290396871 
0.44688132558 -0.71089193687 0.54232057726 0.46283051655 -0.68420858059 0.56252613248 0.48058054681 -0.65558201965 0.58156951025 
0.50163211578 -0.62339291681 0.59848222936 0.52407751945 -0.5893776377 0.61377874262 0.54917460865 -0.5518881696 0.62600052281 
0.57523046746 -0.51255116617 0.63631699201 0.60317989625 -0.46956528045 0.64287047199 0.63109223594 -0.42572683181 0.64723083566 
0.65892849538 -0.38013953614 0.64709249922 0.68570069875 -0.33513402793 0.64507613167 0.71020478259 -0.29136864564 0.63905659252 
0.73302495315 -0.24949201746 0.63201289101 0.75211320776 -0.21180127678 0.62269942427 0.76949194492 -0.17657598945 0.61327914195 
0.78292929459 -0.1470349418 0.60361259036 0.79466601317 -0.12050646412 0.59476286379 0.80232121716 -0.10120815435 0.58787351727 
0.80850419349 -0.084893546463 0.58229699015 0.8110066007 -0.076038193253 0.58000251156 0.81261759169 -0.068987840822 0.57869652385 
0.81190549798 -0.066641429814 0.57996660329 0.81071588906 -0.065140244882 0.58179724939 0.80822803566 -0.065937018347 0.58515193607 
0.80551521093 -0.06702544278 0.58875931606 0.8021637579 -0.068941779636 0.593084019 0.79881933249 -0.070687632239 0.59739210771 
0.79549575562 -0.071927714892 0.60165090752 0.79241182467 -0.072454651513 0.60566139988 0.7900716224 -0.070768376315 0.6089012829 
0.78816887891 -0.068225729241 0.61165558991 0.78768787642 -0.062899873567 0.61283177487 0.78756399989 -0.057022919117 0.61356850335 
0.78865699699 -0.049268146611 0.61280782457 0.78987406193 -0.041188623895 0.61185532408 0.79153490801 -0.031947494658 0.61021669211 
0.79316668918 -0.022587771647 0.60855405157 0.79468918628 -0.012782136046 0.60680113878 0.79604656949 -0.0030741883832 0.60520096438 
0.79675037691 0.0062470778599 0.60420537943 0.79717357823 0.015324476089 0.60353648858 0.79642555405 0.023383990432 0.60423119048 
0.79529538811 0.031123237753 0.60540628179 0.79248032437 0.037450398656 0.60869945365 0.78937206888 0.043410133765 0.61236071027 
0.78489558518 0.04765521517 0.61773969574 0.78030760046 0.051707978506 0.62323651556 0.77516768564 0.054808767397 0.62931661539 
0.77001100328 0.057939997308 0.63537722293 0.76476607075 0.061231443111 0.64133523942 0.75958220003 0.064618496694 0.64717912279 
0.75474095389 0.068542016154 0.65238259259 0.75000387261 0.07257202965 0.65742884711 0.74589178051 0.077241007363 0.66153181004 
0.74187838329 0.081981827549 0.6654948421 0.73850033433 0.087185133652 0.66855706921 0.73518644032 0.09233157105 0.67154080698 
0.73231735402 0.097083718761 0.67398035199 0.72953202137 0.10148711194 0.67637321183 0.72737484115 0.10327484609 0.67841593288 
0.72529267035 0.1045608316 0.68045182052 0.72382211479 0.10175563592 0.6824319896 0.7223744874 0.098453770439 0.68444803498 
0.72113130283 0.090723265887 0.68678397736 0.71988455417 0.082436254289 0.68915557119 0.71860281264 0.068685355332 0.69187719746 
0.71723933889 0.053844222488 0.694658412 0.71498498396 0.027119540274 0.69808913863 0.71252615501 -0.00064532641369 0.70147118657 
0.70756819901 -0.041123558888 0.70425827273 0.70227743932 -0.082306608083 0.70688065871 0.69236902846 -0.13326898929 0.70721782973 
0.6819271498 -0.18497983922 0.707283021 0.66294978621 -0.24866618878 0.70299653615 0.64331281818 -0.3128225565 0.69831844194 
0.61125329954 -0.38583093282 0.68626503793 0.57861574968 -0.45882655725 0.67382054913 0.53279908804 -0.53153143868 0.65245932704 
0.48669220346 -0.60385052582 0.63087003672 0.4322414091 -0.66507802691 0.60272378468 0.37778503268 -0.72587079145 0.57454366604 
0.32311281634 -0.76985374308 0.54505403869 0.26854428186 -0.81356826974 0.51561859747 0.22004113575 -0.84157993613 0.48935304421 
0.1719455791 -0.86935621036 0.46330820988 0.1719455791 -0.86935621036 0.46330820988 0.1719455791 -0.86935621036 0.46330820988 

FrenetNormal 3 240 double
0.065343288787 -0.76336093129 -0.64265880776 0.065343288787 -0.76336093129 -0.64265880776 0.065343288787 -0.76336093129 -0.64265880776 
0.14863042838 -0.67473857543 -0.70917762273 0.23262339118 -0.58536518266 -0.77626015646 0.28820191987 -0.48836412755 -0.81509992893 
0.34329473173 -0.39123268504 -0.85345691916 0.35260503454 -0.30745824889 -0.87942968312 0.36073130693 -0.22402925255 -0.90508216537 
0.29894380827 -0.13672413893 -0.93755508289 0.23472452626 -0.049284203844 -0.97026523294 0.029617662394 0.08910188901 -0.96242911558 
-0.18166848138 0.22972246247 -0.95281465316 -0.41250184679 0.35069784732 -0.77728236576 -0.64437311778 0.47063012481 -0.59294028235 
-0.70477266666 0.51024828974 -0.47588805043 -0.75445523291 0.54484682263 -0.36304143424 -0.73343537353 0.56892977696 -0.37002243861 
-0.70731984383 0.59225485175 -0.3856396679 -0.63313697385 0.60664707899 -0.46627460724 -0.55502132148 0.62030843688 -0.55222917741 
-0.42889047412 0.60716896219 -0.64856322732 -0.29835456299 0.59157069553 -0.74584952309 -0.14403937686 0.54640083342 -0.80658996075 
0.012697772471 0.49821904956 -0.86360813508 0.16286239447 0.4310585707 -0.87212170673 0.31228991061 0.36176964007 -0.87519550985 
0.43839142684 0.28129033906 -0.83982019947 0.56163220723 0.19943863415 -0.79972943177 0.65478051683 0.11146555344 -0.73369819496 
0.74391649698 0.022676289294 -0.66420822894 0.8007270184 -0.062282881471 -0.58145523812 0.85287521404 -0.14668963492 -0.49678931104 
0.87830701853 -0.22033803424 -0.40813055591 0.89958870402 -0.29231523292 -0.31885155564 0.90518784957 -0.33820848807 -0.243445601 
0.90817323846 -0.3797544193 -0.17035182062 0.91328311523 -0.3840576689 -0.13166416778 0.91877161361 -0.38172360891 -0.099108300037 
0.92814807348 -0.36144866102 -0.0843713846 0.93826324604 -0.33776494442 -0.073020070102 0.94883784898 -0.30709555135 -0.065022695247 
0.95950526613 -0.2750149105 -0.057702883957 0.96913407486 -0.2383832769 -0.049080390837 0.97854032465 -0.20077643057 -0.040178751609 
0.98585468076 -0.15940327379 -0.025673829135 0.99269458677 -0.11717590228 -0.0098980589132 0.99585949272 -0.072166210409 0.01594642156 
0.9981439299 -0.026489920957 0.044203197197 0.99499248039 0.016538919281 0.080750964536 0.99046775423 0.058898930242 0.1193932982 
0.98068198353 0.09600163987 0.16111316211 0.96949699886 0.13170613106 0.2036515181 0.95382551486 0.16091968639 0.24782523762 
0.93689974073 0.18831857148 0.29245615555 0.917078949 0.20630882536 0.33739693983 0.89640853253 0.22153785052 0.38242866314 
0.8739234694 0.22658784405 0.42720808226 0.85088005344 0.22850582785 0.47190986932 0.82053311205 0.209060096 0.52732248653 
0.78783281246 0.18273050021 0.58618637124 0.74012202433 0.13132627209 0.6516519866 0.68735152097 0.071469920703 0.71934290442 
0.63370395026 0.020617407708 0.76900512501 0.57974741263 -0.027063298581 0.81231632725 0.53101363675 -0.059153196187 0.84331263723 
0.48420087668 -0.085508543473 0.86977933166 0.43372705367 -0.10696991531 0.89282815864 0.38184840417 -0.12655336634 0.91456547834 
0.32325839833 -0.13530130705 0.93454036797 0.26198384995 -0.13971504362 0.95381028556 0.19959922469 -0.12807289153 0.96934884597 
0.13675206739 -0.10974078582 0.9833326742 0.068393874976 -0.08086066315 0.99154127705 -0.0023546459239 -0.047405496986 0.99724496285 
-0.088763351462 -0.0055992567223 0.99102762181 -0.18223823787 0.039975151124 0.97943128084 -0.28905771698 0.090571881947 0.94459586891 
-0.40213762228 0.14352476429 0.89885817678 -0.51709394715 0.19005982795 0.82160430286 -0.63296502656 0.23346620501 0.72898629031 
-0.73336141946 0.25774357517 0.61020788584 -0.82592252805 0.27233537221 0.47818371331 -0.89251392311 0.26095428918 0.33630979765 
-0.94545457131 0.23592079485 0.18925845291 -0.97080060757 0.18759828089 0.048445222416 -0.98109503731 0.12657266531 -0.088965400315 
-0.96531868617 0.041514519249 -0.21282766003 -0.93479176162 -0.057140979581 -0.32902439857 -0.86775586415 -0.1838924794 -0.42665324466 
-0.77930136923 -0.32712696647 -0.51338892718 -0.61773592731 -0.49068852361 -0.56026942164 -0.41171112572 -0.66661113686 -0.58291365308 
-0.16834781493 -0.77779998502 -0.54444447642 0.09854387151 -0.84819769352 -0.46746548095 0.30389613896 -0.85203821929 -0.38989608732 
0.46907684123 -0.81243169523 -0.31194129489 0.58365295444 -0.76257236264 -0.26250744227 0.66401751448 -0.70578155387 -0.23235535178 
0.72043385787 -0.65433134404 -0.22269270081 0.76008644961 -0.60661955347 -0.22737265752 0.78594814584 -0.56662582404 -0.24393977447 
0.80181643952 -0.53222489253 -0.26912077564 0.80585251975 -0.50732301504 -0.30271841017 0.80101443988 -0.48954542807 -0.34262851972 
0.77563508207 -0.48562452879 -0.3970213529 0.73431323989 -0.49245807371 -0.4626545089 0.6392208688 -0.51401043173 -0.5496607385 
0.50094913359 -0.54738244271 -0.65383019388 0.30471454111 -0.56246047673 -0.73486961179 0.060326190286 -0.56234043759 -0.79669330625 
-0.14868864121 -0.53759552682 -0.8133863104 -0.32730435454 -0.491688617 -0.79129512755 -0.45801827314 -0.44782950756 -0.76239461683 