# vtk DataFile Version 5.1
vtk output
ASCII
DATASET POLYDATA
POINTS 240 float
0 0 0 -0.105328 -0.187969 0.195645 -0.210655 -0.375938 0.391289 
-0.353888 -0.580381 0.508054 -0.497443 -0.784964 0.624151 -0.670808 -1.00096 0.677829 
-0.844683 -1.21715 0.730441 -1.04051 -1.43981 0.7366 -1.23691 -1.66262 0.741558 
-1.44776 -1.88707 0.71503 -1.65911 -2.11157 0.687406 -1.87796 -2.3332 0.641324 
-2.09714 -2.5547 0.594432 -2.31757 -2.76936 0.539024 -2.53806 -2.98367 0.483163 
-2.75466 -3.18787 0.424661 -2.97102 -3.39145 0.365994 -3.17996 -3.58246 0.306065 
-3.38837 -3.77257 0.246045 -3.58802 -3.94835 0.182043 -3.78695 -4.12296 0.117715 
-3.97827 -4.28209 0.043849 -4.16889 -4.4398 -0.030892 -4.35528 -4.58148 -0.121715 
-4.54123 -4.72151 -0.214177 -4.72759 -4.84551 -0.328443 -4.91399 -4.9677 -0.445154 
-5.10512 -5.07452 -0.587304 -5.29682 -5.17946 -0.732574 -5.49552 -5.27044 -0.904372 
-5.69516 -5.35955 -1.07971 -5.90074 -5.43679 -1.2803 -6.10719 -5.51232 -1.48453 
-6.3147 -5.57867 -1.71083 -6.52238 -5.64359 -1.94056 -6.72294 -5.70254 -2.18776 
-6.92231 -5.76048 -2.43788 -7.10429 -5.81611 -2.69993 -7.28318 -5.87132 -2.96411 
-7.43402 -5.9283 -3.23416 -7.57952 -5.98561 -3.50532 -7.68759 -6.04912 -3.77626 
-7.78809 -6.11388 -4.04715 -7.84455 -6.18929 -4.31222 -7.89157 -6.26698 -4.57605 
-7.89168 -6.35925 -4.82958 -7.88114 -6.45482 -5.08078 -7.82478 -6.56784 -5.31874 
-7.75745 -6.68505 -5.55353 -7.64887 -6.82109 -5.77381 -7.52986 -6.96188 -5.99043 
-7.37651 -7.12119 -6.19269 -7.21401 -7.28543 -6.39114 -7.02496 -7.46619 -6.57624 
-6.82848 -7.65157 -6.75761 -6.61286 -7.84996 -6.92667 -6.39162 -8.05217 -7.09211 
-6.15757 -8.26273 -7.24549 -5.91959 -8.47586 -7.39514 -5.674 -8.69211 -7.53153 
-5.42597 -8.90936 -7.66363 -5.17498 -9.12459 -7.77951 -4.923 -9.33914 -7.88991 
-4.67286 -9.54732 -7.97951 -4.42337 -9.75324 -8.06178 -4.18127 -9.94975 -8.11765 
-3.94189 -10.1428 -8.16382 -3.71618 -10.3248 -8.17799 -3.49571 -10.5027 -8.17988 
-3.29534 -10.6695 -8.1453 -3.103 -10.8318 -8.09613 -2.93628 -10.9843 -8.00829 
-2.78023 -11.1326 -7.90435 -2.65333 -11.273 -7.76263 -2.53907 -11.4101 -7.60453 
-2.45486 -11.542 -7.41281 -2.3842 -11.6715 -7.20592 -2.34171 -11.7989 -6.97246 
-2.31245 -11.9253 -6.72654 -2.30721 -12.0529 -6.46309 -2.31369 -12.181 -6.19109 
-2.33876 -12.3133 -5.91123 -2.37323 -12.4479 -5.62738 -2.42056 -12.5894 -5.34464 
-2.47464 -12.7346 -5.06248 -2.53638 -12.8885 -4.78857 -2.60229 -13.0472 -4.51916 
-2.67162 -13.215 -4.26257 -2.74287 -13.3881 -4.01324 -2.81426 -13.5696 -3.77845 
-2.88572 -13.756 -3.55219 -2.95464 -13.9494 -3.33949 -3.02202 -14.147 -3.13502 
-3.08442 -14.3493 -2.941 -3.14367 -14.5546 -2.75356 -3.19555 -14.7626 -2.57223 
-3.24263 -14.9724 -2.39491 -3.28026 -15.1833 -2.21938 -3.3115 -15.3949 -2.04508 
-3.33209 -15.6072 -1.86942 -3.34521 -15.82 -1.69282 -3.34783 -16.0341 -1.51374 
-3.34285 -16.2492 -1.33287 -3.32903 -16.4673 -1.15067 -3.30858 -16.6877 -0.967463 
-3.28204 -16.9133 -0.7859 -3.25078 -17.143 -0.60561 -3.21646 -17.3797 -0.430784 
-3.17968 -17.622 -0.260345 -3.14226 -17.8723 -0.0988358 -3.10431 -18.1292 0.0552558 
-3.06683 -18.3937 0.19839 -3.02975 -18.6645 0.332109 -2.99273 -18.941 0.454951 
-2.95577 -19.2225 0.568125 -2.91713 -19.5067 0.672722 -2.87696 -19.7934 0.769433 
-2.83255 -20.0794 0.861611 -2.78411 -20.3648 0.949479 -2.72872 -20.6464 1.03765 
-2.66649 -20.9243 1.12612 -2.59501 -21.1961 1.21935 -2.51413 -21.4619 1.31741 
-2.42254 -21.7205 1.42325 -2.31969 -21.9716 1.53726 -2.20566 -22.2157 1.66005 
-2.07945 -22.4521 1.79238 -1.94244 -22.6824 1.93243 -1.79329 -22.9058 2.08117 
-1.63433 -23.1241 2.23505 -1.46394 -23.3364 2.39492 -1.28499 -23.5442 2.55671 
-1.0957 -23.7465 2.72082 -0.899044 -23.9438 2.88387 -0.6932 -24.1351 3.0456 
-0.480964 -24.3201 3.20419 -0.260494 -24.4971 3.35871 -0.0343724 -24.6659 3.50923 
0.199286 -24.8239 3.6544 0.438022 -24.9718 3.7959 0.683766 -25.1057 3.93233 
0.934029 -25.2284 4.06633 1.19075 -25.3348 4.19687 1.4513 -25.4299 4.32676 
1.71752 -25.5081 4.45569 1.98669 -25.5764 4.58582 2.26036 -25.6295 4.7178 
2.53591 -25.6752 4.85258 2.81444 -25.7094 4.99178 3.09369 -25.7397 5.13485 
3.37412 -25.7636 5.28425 3.65417 -25.7871 5.43794 3.93356 -25.81 5.59892 
4.2116 -25.8355 5.76399 4.48724 -25.8655 5.93628 4.7608 -25.9 6.11196 
5.03053 -25.9427 6.29385 5.29766 -25.9903 6.47815 5.55985 -26.0473 6.66702 
5.81918 -26.1084 6.85722 6.07287 -26.1775 7.05004 6.32367 -26.2485 7.24322 
6.56857 -26.3235 7.43712 6.81082 -26.3974 7.63062 7.04739 -26.4691 7.82328 
7.28176 -26.5365 8.01508 7.51123 -26.5947 8.20499 7.73912 -26.646 8.39388 
7.96338 -26.6815 8.58044 8.1868 -26.7084 8.76609 8.4082 -26.715 8.94958 
8.62952 -26.713 9.13246 8.8506 -26.6898 9.31385 9.07222 -26.6597 9.49504 
9.29528 -26.6114 9.67573 9.51932 -26.5589 9.85662 9.74606 -26.4951 10.0381 
9.97399 -26.4306 10.2201 10.2053 -26.364 10.4035 10.4376 -26.3 10.5877 
10.6731 -26.2437 10.774 10.9091 -26.1928 10.9611 11.1471 -26.1584 11.1511 
11.3848 -26.1312 11.342 11.6221 -26.1271 11.536 11.8583 -26.1309 11.7312 
12.0908 -26.1616 11.9303 12.3211 -26.2002 12.1306 12.544 -26.267 12.3356 
12.764 -26.341 12.5418 12.9729 -26.4423 12.7529 13.1784 -26.5498 12.9651 
13.3702 -26.6823 13.1817 13.5585 -26.8199 13.399 13.7316 -26.9794 13.6188 
13.9012 -27.1432 13.8386 14.0555 -27.3256 14.0584 14.2066 -27.5114 14.2773 
14.3428 -27.7129 14.4923 14.476 -27.9171 14.7058 14.5945 -28.1345 14.9116 
14.71 -28.3541 15.1153 14.8102 -28.5849 15.3082 14.9074 -28.8175 15.4987 
14.9875 -29.0599 15.6766 15.0645 -29.3036 15.8522 15.1223 -29.5557 16.015 
15.1769 -29.8089 16.1761 15.2108 -30.0691 16.3257 15.2417 -30.3302 16.4741 
15.2522 -30.5969 16.6142 15.2603 -30.8641 16.7537 15.2511 -31.1354 16.8884 
15.2404 -31.4069 17.0229 15.218 -31.6807 17.1564 15.1952 -31.9545 17.29 
15.1685 -32.2292 17.4252 15.1422 -32.5039 17.5608 15.1201 -32.7786 17.699 
15.0991 -33.0533 17.8375 15.0892 -33.3279 17.9779 15.0805 -33.6025 18.1183 
15.0873 -33.8778 18.2581 15.0952 -34.1533 18.3976 15.1197 -34.4311 18.5325 
15.145 -34.7092 18.6667 15.1849 -34.9916 18.7918 15.2253 -35.2744 18.9161 
15.2757 -35.5636 19.0265 15.3262 -35.8533 19.1361 15.3808 -36.1513 19.2277 
15.4352 -36.4498 19.3186 15.4868 -36.7585 19.388 15.538 -37.0675 19.4567 
15.5788 -37.3883 19.5009 15.6194 -37.7093 19.5446 15.642 -38.0436 19.5613 
15.6644 -38.3781 19.5776 15.6612 -38.7271 19.5641 15.6579 -39.0762 19.5506 

LINES 2 240
OFFSETS vtktypeint64
0 240 
CONNECTIVITY vtktypeint64
0 1 2 3 4 5 6 7 8 
9 10 11 12 13 14 15 16 17 
18 19 20 21 22 23 24 25 26 
27 28 29 30 31 32 33 34 35 
36 37 38 39 40 41 42 43 44 
45 46 47 48 49 50 51 52 53 
54 55 56 57 58 59 60 61 62 
63 64 65 66 67 68 69 70 71 
72 73 74 75 76 77 78 79 80 
81 82 83 84 85 86 87 88 89 
90 91 92 93 94 95 96 97 98 
99 100 101 102 103 104 105 106 107 
108 109 110 111 112 113 114 115 116 
117 118 119 120 121 122 123 124 125 
126 127 128 129 130 131 132 133 134 
135 136 137 138 139 140 141 142 143 
144 145 146 147 148 149 150 151 152 
153 154 155 156 157 158 159 160 161 
162 163 164 165 166 167 168 169 170 
171 172 173 174 175 176 177 178 179 
180 181 182 183 184 185 186 187 188 
189 190 191 192 193 194 195 196 197 
198 199 200 201 202 203 204 205 206 
207 208 209 210 211 212 213 214 215 
216 217 218 219 220 221 222 223 224 
225 226 227 228 229 230 231 232 233 
234 235 236 237 238 239 
CELL_DATA 1
FIELD FieldData 3
Length 1 1 double
72.549592356 
Tortuosity 1 1 double
0.56306609544 
ClusterLabel 1 1 int
1 
POINT_DATA 240
FIELD FieldData 6
Curvature 1 240 double
0 0.2801786106 0.5603572212 0.51278833148 0.46244192057 0.38508900863 0.30727444709 0.24578166302 0.18471099389 
0.14458663122 0.10519083573 0.081359180299 0.058210162595 0.046942418613 0.036305538722 0.03560311504 0.035521594871 0.047291006986 
0.059914540347 0.086232886698 0.11367171775 0.14807457219 0.18311632785 0.2099658865 0.23598105471 0.24022810967 0.24203388092 
0.22507819299 0.2058215714 0.18173619286 0.15700698006 0.13781599975 0.11942380297 0.1112723219 0.10471163161 0.10996109255 
0.11717891202 0.13578799641 0.15642720723 0.18851536622 0.22277882536 0.26668880583 0.3125475785 0.35648454499 0.40000969586 
0.41932450384 0.4331483062 0.41313585426 0.38501679971 0.34038222326 0.29157530443 0.24645825514 0.20232255413 0.16881960006 
0.1382892419 0.11771537614 0.10006352445 0.090429317647 0.083262078502 0.083081514478 0.085152212438 0.094244399794 0.10570338133 
0.12600986356 0.149433079 0.18624839534 0.2279895419 0.28781937851 0.3545902241 0.4313612571 0.51213236506 0.5649419421 
0.60610088126 0.58936636053 0.54752142348 0.47720751572 0.39404785288 0.31996618717 0.25014333493 0.19872720296 0.15628434711 
0.13005292338 0.11202981972 0.10581408403 0.10580478537 0.11052337118 0.11782080306 0.12388664469 0.12925566551 0.13064664737 
0.12970384639 0.12416936589 0.11584264785 0.10795085847 0.10033313373 0.099224860457 0.10236581244 0.10828353394 0.11607850806 
0.11860223854 0.11743609847 0.11042372222 0.099174942941 0.089462159332 0.080901372474 0.081450380564 0.089069677271 0.10003398849 
0.11368444772 0.12352960668 0.13021343925 0.13078892817 0.12611505927 0.11595774651 0.10092626142 0.086020767285 0.071231103536 
0.068973984213 0.078633054672 0.096658306163 0.12291030234 0.14635420384 0.16694241584 0.17959184681 0.18389187014 0.18064506951 
0.16918944283 0.15496364638 0.13762140893 0.12236799239 0.10954520382 0.10085289973 0.097132475111 0.096807108789 0.10070955091 
0.10645939707 0.11458955226 0.12363278294 0.13389344759 0.14322952562 0.15128967412 0.15644054529 0.15743530598 0.15427976837 
0.14498524784 0.132476288 0.11504308073 0.097276874807 0.078982214497 0.064634630807 0.056777795339 0.05400350568 0.05989264638 
0.066312413203 0.07367003085 0.079031779203 0.080734433854 0.079889190935 0.074196728253 0.066146852164 0.053441084596 0.04119409285 
0.029888179712 0.02859651205 0.048650999218 0.071429160242 0.10024357143 0.12754918607 0.15137618643 0.16998245646 0.17605897372 
0.17587001161 0.16001735109 0.13967564668 0.10763522183 0.074529431593 0.038527179208 0.018139071185 0.042074985867 0.067386441284 
0.096778667544 0.12427495232 0.14588728078 0.16543068157 0.17825006748 0.18919452591 0.19375034254 0.19682136723 0.19458140532 
0.19130696455 0.18414288329 0.17658393332 0.16746196139 0.15826765627 0.14877143875 0.13969563818 0.13247349417 0.12603982896 
0.12328573148 0.1213703519 0.12360662598 0.12632356351 0.13157030869 0.13687736069 0.14252280092 0.14776965888 0.15062502322 
0.15240590312 0.14726978944 0.14098045985 0.12669549982 0.11156156845 0.090060352007 0.068326035587 0.044691057845 0.023704569797 
0.026333781521 0.030373829092 0.048265719525 0.065601599936 0.076876971102 0.08764767981 0.092250291809 0.096553356084 0.096700195673 
0.09686241584 0.097270725246 0.097853329021 0.10171847672 0.10573290877 0.11315102429 0.12064788217 0.13040858283 0.14014071706 
0.14876828232 0.1573649262 0.16415266916 0.17016837907 0.085084189535 0 
Torsion 1 240 double
0 0 0 -0.013453878003 -0.027021771921 -0.039189392425 -0.051333076631 -0.07581055273 -0.10060700621 
-0.14838190335 -0.19695605071 -0.27708604524 -0.35860006816 -0.33221351393 -0.30009772552 -0.0011450657685 0.31448489844 0.31863729649 
0.30034086094 0.19505684678 0.082655667088 0.029671183743 -0.017862226544 -0.034216224988 -0.047394542596 -0.042342167672 -0.0352452291 
-0.0059949116753 0.025972329571 0.093973041179 0.1667782155 0.27541532337 0.38922049858 0.47037695875 0.54646177386 0.52007150674 
0.47660205924 0.4061176743 0.33081874606 0.27793431807 0.22930864513 0.19841549009 0.17110466191 0.15426333089 0.13966546355 
0.13218794362 0.12632534784 0.12544068872 0.12574866026 0.12722739211 0.12900189499 0.12483870922 0.11909635093 0.099413360301 
0.075832988583 0.037700777597 -0.0047020818701 -0.0367453788 -0.065601118025 -0.052034734046 -0.024798999257 0.024743156604 0.081804330804 
0.12591354906 0.16546014648 0.18570990243 0.19886196957 0.19665321783 0.18855019839 0.17718599754 0.16451732412 0.15655926941 
0.15056397249 0.15534007869 0.16478811876 0.19143935094 0.22585299907 0.28677838331 0.36014137214 0.47113687255 0.60047822235 
0.70053784117 0.78577126709 0.74355927931 0.63435675356 0.51794753879 0.39760740274 0.32701673573 0.28457379461 0.28761739869 
0.31734644262 0.40639689992 0.53152118968 0.68380739999 0.85320934107 0.85533301922 0.74826116463 0.57041799223 0.34472942188 
0.1459817429 -0.033907312134 -0.25089220462 -0.49475813874 -0.74880215846 -1.0104797424 -1.000321777 -0.77918696753 -0.55808762871 
-0.33701677392 -0.17760396296 -0.069414757626 0.030759363824 0.12404552256 0.27106896476 0.46585888114 0.82309475663 1.3296761107 
1.4326614531 1.1518997682 0.84162603763 0.50233212872 0.2763926714 0.16572892756 0.080525721226 0.022099976762 -0.035944438519 
-0.093574074689 -0.15854819679 -0.23178486556 -0.29545424747 -0.34799078649 -0.35201253489 -0.29763685016 -0.21499576625 -0.097156260724 
0.0063846842913 0.091502484038 0.15495609309 0.18952411454 0.21325226019 0.22202137724 0.23036665312 0.23810644163 0.25375518452 
0.28110258908 0.33127098367 0.41639919279 0.56034179199 0.7976202711 1.0137649717 1.1951563478 1.1914948603 0.87240235542 
0.60110166308 0.41427022078 0.2626179152 0.17546069359 0.091222284745 0.012536739194 -0.1201855385 -0.35963036217 -0.98445844668 
-2.399816297 -2.9083696623 -1.483997678 -0.44545729069 -0.26200314556 -0.12272429804 -0.085294053321 -0.056110533471 -0.046719153299 
-0.041020674452 -0.044554448919 -0.057966670949 -0.097122726024 -0.84370122661 -3.5135845009 -4.8087360106 -2.201423156 -0.23269798977 
-0.15844963238 -0.10340757007 -0.10797125114 -0.11372522065 -0.12334762759 -0.13138139106 -0.13400199899 -0.13479931451 -0.12907485331 
-0.11981507778 -0.097262520362 -0.072413944952 -0.038476964967 -0.0032931873019 0.037094615467 0.0757137728 0.10653481162 0.13082756387 
0.12465497879 0.11236856685 0.069818711963 0.025617944082 -0.027271839563 -0.077131649154 -0.10998993767 -0.1405031801 -0.15694614598 
-0.17198164908 -0.17795661047 -0.18453114655 -0.19526273381 -0.21236347083 -0.27723283098 -0.413853353 -1.1355218103 -1.7493664708 
-1.4017822761 -1.0528843652 -0.69108815087 -0.35933046545 -0.35499274536 -0.35371861996 -0.38988842966 -0.42764773585 -0.48746130567 
-0.54580554582 -0.58064051116 -0.61223360609 -0.58277147506 -0.55201262618 -0.4916886102 -0.4312340244 -0.36702555615 -0.30328875774 
-0.25778985968 -0.21127275652 -0.10519065514 0 0 0 
FrenetTangent 3 240 double
-0.44470055475 -0.70140845612 0.55701669121 -0.44470055475 -0.70140845612 0.55701669121 -0.44470055475 -0.70140845612 0.55701669121 
-0.50832928137 -0.73049248457 0.43251361997 -0.57249723448 -0.75982298784 0.30695543795 -0.60683096838 -0.7604574293 0.20443867797 
-0.64065471562 -0.76060133979 0.10231578845 -0.65688599699 -0.74988578558 0.033169002304 -0.67266230078 -0.73888938315 -0.035124953582 
-0.68106563879 -0.72688144334 -0.076840790388 -0.68921252581 -0.71483831962 -0.11763217088 -0.69484129436 -0.704860645 -0.14052173958 
-0.70035961911 -0.69497356025 -0.16262614109 -0.70506335741 -0.68723313284 -0.17432995252 -0.70972384334 -0.67960668724 -0.18548152023 
-0.71398263436 -0.67295490628 -0.19299116947 -0.71821631946 -0.66636404187 -0.2002731988 -0.72219500904 -0.65873527778 -0.21051654935 
-0.72615532056 -0.65103171011 -0.22097332844 -0.73001192349 -0.63934428378 -0.24032864024 -0.73386004117 -0.62733090539 -0.2604120138 
-0.73719330854 -0.60780053895 -0.29257015109 -0.74047934195 -0.58758054058 -0.32583606487 -0.74177594031 -0.5574822446 -0.36888482445 
-0.74286991103 -0.52637782571 -0.412929985 -0.74031267603 -0.48719939005 -0.45914081233 -0.73734596001 -0.44711545717 -0.50559451817 
-0.73046577932 -0.40521588613 -0.54660683722 -0.72310564541 -0.36309364248 -0.58695181639 -0.7126759034 -0.32556894312 -0.6193937253 
-0.7018368803 -0.28865724966 -0.65078189151 -0.68816694342 -0.25962529036 -0.67634811948 -0.67408870167 -0.23172983117 -0.70107464482 
-0.65612437212 -0.21232028688 -0.72338118744 -0.63755637844 -0.19422894296 -0.74531181043 -0.61292385924 -0.18434066315 -0.7675494055 
-0.58728058578 -0.1758195607 -0.7898381626 -0.55240604956 -0.1755460443 -0.81372120059 -0.51588633781 -0.17674239471 -0.83788836785 
-0.46603582266 -0.18695721613 -0.86279135569 -0.41365245487 -0.19888554703 -0.88783414944 -0.34385551086 -0.2207102312 -0.90929272988 
-0.27054067265 -0.24453417865 -0.93002722682 -0.17944275726 -0.27719591298 -0.93860179813 -0.084534182475 -0.31175145878 -0.94457067109 
0.01913951375 -0.35007093245 -0.92970910216 0.12480117566 -0.38924408048 -0.91012310311 0.22240347546 -0.42505550555 -0.8705734472 
0.31807488642 -0.46006151783 -0.82624083183 0.393888109 -0.48799927727 -0.77349724165 0.46468452609 -0.51415137285 -0.71862877362 
0.51548879805 -0.53395647065 -0.66657385249 0.56097601014 -0.55207353714 -0.61526721511 0.59242426483 -0.56575724874 -0.57130878763 
0.6199476497 -0.57820152779 -0.52940469841 0.63958536274 -0.58749121264 -0.49435714664 0.65690880251 -0.59585509266 -0.46132183957 
0.67079823216 -0.60175454561 -0.43245306262 0.68363104331 -0.60689571331 -0.40486629494 0.69569587688 -0.61018684045 -0.37797734813 
0.707513251 -0.61288184341 -0.35131325471 0.7196487659 -0.61460138157 -0.32144117292 0.73189151927 -0.61599211136 -0.29048774673 
0.74395264449 -0.61753965876 -0.25187340711 0.75594978706 -0.61914244873 -0.21056033661 0.7652385105 -0.62180696804 -0.15636382468 
0.77353103382 -0.62486200849 -0.097428575679 0.77326750643 -0.62851653363 -0.02022520785 0.76972084332 -0.63240109359 0.063988019526 
0.74753416421 -0.63311507396 0.16758424817 0.71789147869 -0.6325608225 0.27893367733 0.66102611028 -0.62245057255 0.39708960146 
0.59281795733 -0.60835865656 0.51808156516 0.50497218565 -0.58389910447 0.62160352751 0.4086088926 -0.55494274635 0.71754813987 
0.31346479717 -0.52440882813 0.78428625204 0.21887082749 -0.49316308401 0.83784582144 0.13809673521 -0.46877282931 0.86913502396 
0.063806042215 -0.44759873013 0.88997640005 0.0040009418465 -0.43584412047 0.89859483229 -0.048742432115 -0.42868151194 0.9012545794 
-0.090414426256 -0.43041807868 0.89739844356 -0.12648065846 -0.43666055696 0.89024312648 -0.15466198473 -0.45029331352 0.87884376653 
-0.17869868094 -0.46781070354 0.86521356353 -0.1969319077 -0.49068601593 0.84814059873 -0.21199960565 -0.51648383142 0.82918976387 
-0.22232943725 -0.54509324064 0.8075420468 -0.22997863394 -0.57529342001 0.78436846217 -0.23315647523 -0.60547186074 0.76007259763 
-0.23371112136 -0.63563754814 0.73511832886 -0.22954533888 -0.66321799278 0.71160602156 -0.2225090255 -0.68922633033 0.68897058271 
-0.21037047878 -0.71099192462 0.6704506217 -0.19501682613 -0.73008400946 0.65452397548 -0.17458754584 -0.74439565816 0.64402502221 
-0.15084500861 -0.75558674438 0.63706914627 -0.12315821544 -0.76250501711 0.63452995458 -0.092804883023 -0.7665346272 0.63497669026 
-0.061062550952 -0.76793734002 0.63690035621 -0.02834791912 -0.76750122474 0.63985787334 0.0025355602915 -0.7670684293 0.64099593858 
0.032092117659 -0.76663803955 0.64081556043 0.057357998245 -0.76884635114 0.63649550361 0.079405871247 -0.77303368873 0.62907068779 
0.09630153239 -0.7811598266 0.61648537707 0.10919846194 -0.79234294381 0.59989490614 0.11758537804 -0.80687770194 0.5782118253 
0.12235061668 -0.82410392928 0.55243922439 0.12433388806 -0.84259909298 0.52288501253 0.12400598666 -0.86214844997 0.49018915466 
0.1232164305 -0.88055714235 0.45632672989 0.12203013977 -0.89798557608 0.42146178669 0.12275162722 -0.91260457178 0.38888985013 
0.12516891749 -0.92472628925 0.35835614168 0.13138952211 -0.9333808259 0.3333678315 0.14110672218 -0.93884779311 0.31347771003 
0.15565468343 -0.94061173272 0.30119485908 0.17479582744 -0.93885476086 0.29614515059 0.19868252551 -0.93292547922 0.29899045288 
0.22723568507 -0.9228934263 0.30959918242 0.25910711336 -0.90820672435 0.32622340297 0.29435305222 -0.88878648101 0.34896507199 
0.33044456089 -0.86530955711 0.37403230354 0.36742537575 -0.83756612435 0.40154538533 0.40297797609 -0.80801602432 0.42745377384 
0.43697707994 -0.77650077744 0.45161670653 0.46869159397 -0.74585871536 0.47179788326 0.49783594444 -0.71619898618 0.48749958454 
0.52520178088 -0.68879978218 0.4987936074 0.55049807372 -0.66403100748 0.50495869537 0.57503897426 -0.64118495159 0.50746244 
0.5986706063 -0.62065327944 0.50555901211 0.6224483437 -0.60055567322 0.50118500844 0.64640802363 -0.58099860193 0.49373443873 
0.67095829881 -0.56003972872 0.4850805822 0.69626953323 -0.53727468766 0.47487633689 0.72197369239 -0.51159657518 0.4646440025 
0.7482017512 -0.48203436748 0.454374216 0.77388384118 -0.44905045235 0.44502873208 0.79881249416 -0.41134458097 0.43695878575 
0.82179802233 -0.37122322572 0.43047998397 0.84200765789 -0.32765117923 0.42627424587 0.85918018041 -0.28403415513 0.42402150212 
0.87186030656 -0.24035060166 0.42465756253 0.88133808584 -0.19945191985 0.42728572328 0.88591014223 -0.1628194244 0.43296561222 
0.88795859432 -0.13102695402 0.44037479637 0.88600219608 -0.10691539301 0.45052829683 0.88242316281 -0.088353192546 0.46188162387 
0.87617579638 -0.078916607214 0.47520799908 0.86896735294 -0.074538390577 0.48903073961 0.86012071005 -0.078782393305 0.5036995574 
0.85069344437 -0.086809939916 0.51814413172 0.84023996166 -0.10152468036 0.53219236873 0.82949861913 -0.1182387385 0.54548327464 
0.81822953358 -0.1386182124 0.55738574022 0.80705973412 -0.15899207306 0.56834935401 0.7960788204 -0.17935525485 0.57752685951 
0.78570417724 -0.19783728449 0.58594583148 0.77652691846 -0.21260403861 0.59286669973 0.76845207459 -0.22392169388 0.59941104732 
0.76263859467 -0.22816427459 0.60518304485 0.75819220537 -0.22779703658 0.61088392522 0.75665987763 -0.21760360604 0.61643321375 
0.75629462276 -0.20225506065 0.62186516745 0.75851585368 -0.17548166612 0.62703708182 0.761162352 -0.1440794529 0.63162270407 
0.76478932797 -0.10200524103 0.63485659727 0.76791440767 -0.057477274394 0.6369616674 0.76983493635 -0.0070602963353 0.63635756214 
0.77090823414 0.042447255757 0.63465768106 0.76986345469 0.089681242934 0.63021836041 0.76849173595 0.13303033293 0.62544040871 
0.76626799359 0.16625514542 0.61977996397 0.76448157978 0.19412978448 0.61464777068 0.763884153 0.20745863955 0.61095176107 
0.76399262036 0.21534677555 0.60820474312 0.76610491627 0.20779028968 0.60815163695 0.76850424763 0.1953775156 0.6090155978 
0.77175511753 0.16855775316 0.61260019083 0.77446744738 0.13790586075 0.61675614397 0.77550844609 0.095361151185 0.6226852837 
0.77511644536 0.050374756567 0.62885422254 0.77006719644 -0.0025471144613 0.63580250851 0.76304714997 -0.056419958815 0.64277596321 
0.74931179331 -0.11353315672 0.64983517805 0.73366682776 -0.17031863691 0.65673570473 0.71119133813 -0.22593189606 0.66306861605 
0.6873380555 -0.28037117978 0.66909307578 0.65830427122 -0.33039631593 0.6739577575 0.62865771339 -0.37898503629 0.6783157773 
0.59658559361 -0.42188794417 0.68066826027 0.5645607834 -0.46350424655 0.68236226787 0.53273343924 -0.49975036946 0.68130785652 
0.50135918806 -0.53505759787 0.67950357558 0.47198266497 -0.56622515508 0.67439305149 0.44307642952 -0.5968569937 0.66852825255 
0.41636486969 -0.62498881226 0.65914350439 0.38981775228 -0.65288312668 0.6490796338 0.36408462486 -0.67960179559 0.63565410718 
0.33808001858 -0.70618684834 0.62169034205 0.31064657613 -0.73206865816 0.6048937426 0.2825881573 -0.75769077263 0.58779727254 
0.25102292657 -0.78185570772 0.56901819506 0.21878153488 -0.80551465183 0.55019952551 0.18248317741 -0.82613765006 0.53114330346 
0.14587502434 -0.84599155565 0.51236159858 0.10727256212 -0.86089442738 0.49534709797 0.069045503227 -0.87496178734 0.47887238588 
0.033421240694 -0.88323626572 0.46614020759 -0.0011733011297 -0.89086198766 0.45408183302 -0.028044937636 -0.89362203636 0.44707698625 
-0.053511495458 -0.89602925528 0.44071198456 -0.067521257864 -0.89555955453 0.43956418115 -0.080075727934 -0.89499902075 0.43881963428 
-0.079653841351 -0.89362855904 0.44167079158 -0.078008769287 -0.89230102901 0.4446096956 -0.064354239772 -0.89139501004 0.44841011304 
-0.049891682325 -0.89058061467 0.4519836515 -0.026621620418 -0.89076491645 0.45308420906 -0.0030178933221 -0.8910705715 0.45372685732 
0.024663963846 -0.89285943318 0.44877283623 0.052262891142 -0.89478688896 0.44329516226 0.078711166477 -0.89863733794 0.43055180445 
0.10479968772 -0.90263249608 0.41733705117 0.12513214348 -0.90894300092 0.39657997038 0.14499506821 -0.91537416838 0.37545958988 
0.15601515856 -0.924077815 0.34749706467 0.16657283861 -0.93284755434 0.3192896195 0.16658756392 -0.94312420782 0.28549799922 
0.16620495764 -0.95340617142 0.25155170193 0.15439906809 -0.96384080128 0.2131584408 0.14230271986 -0.97422704232 0.17468235387 
0.11897530301 -0.98274224944 0.13300366971 0.095473512742 -0.9911852504 0.091293421282 0.061770877175 -0.9954041917 0.047736663682 
0.028351457033 -0.9995876797 0.0045459292555 0.028351457033 -0.9995876797 0.0045459292555 0.028351457033 -0.9995876797 0.0045459292555 

FrenetNormal 3 240 double
-0.51101542948 -0.31205842076 -0.80092619689 -0.51101542948 -0.31205842076 -0.80092619689 -0.51101542948 -0.31205842076 -0.80092619689 
-0.44224250493 -0.20244142847 -0.86167481182 -0.37288675898 -0.091895478618 -0.92293824552 -0.31509859199 -0.0020256359938 -0.94282435255 
-0.25750816139 0.0874907689 -0.96200315484 -0.2259238929 0.1554875947 -0.95876064306 -0.19501219757 0.22292787966 -0.95493826971 
-0.19546614194 0.28218973006 -0.93718838905 -0.19701106508 0.34116711317 -0.91895407335 -0.23609706726 0.40762091029 -0.87757471852 
-0.276829608 0.47440262032 -0.83518023039 -0.33879127585 0.54050786813 -0.76083300987 -0.40188015399 0.60657719759 -0.68478918409 
-0.39634225978 0.61577205626 -0.68088784888 -0.3865151923 0.62141226049 -0.68149541932 -0.31067941117 0.57878464489 -0.74510233274 
-0.23008624528 0.53267826749 -0.81324973934 -0.1754136823 0.51495936392 -0.8370392752 -0.12286189592 0.49956307185 -0.85719953073 
-0.087868140324 0.51621782113 -0.8510140755 -0.054485213239 0.53581303293 -0.84241158258 -0.022442293202 0.57144336515 -0.81847091633 
0.0094641446353 0.60870690408 -0.79296802871 0.044755507356 0.64692455086 -0.75862109626 0.08042648782 0.68524920039 -0.72328230832 
0.12030875059 0.71238936317 -0.68889174956 0.16070749138 0.73815784362 -0.65461748305 0.21274347691 0.74107561913 -0.63431548204 
0.26633109507 0.74094663399 -0.61587644976 0.34513867211 0.69866113227 -0.61939425751 0.42758374323 0.65029536374 -0.62607891718 
0.52728307419 0.54014200814 -0.63681826721 0.62966267853 0.42039058077 -0.64818747205 0.70682895782 0.27402244431 -0.63015100183 
0.77979301628 0.12321818966 -0.60721358578 0.82005523508 0.0058143273836 -0.55785836643 0.85448940326 -0.10563698971 -0.50379502371 
0.8769751959 -0.17907788825 -0.43483500447 0.89719079719 -0.24529680726 -0.36304461669 0.91277510815 -0.28524224514 -0.27590604269 
0.92742380491 -0.31987990907 -0.18566682502 0.93262898697 -0.33472335933 -0.079433200659 0.93581055874 -0.34532519238 0.030227796564 
0.92085507318 -0.34086905192 0.14731051097 0.90178602822 -0.33299770097 0.26607650143 0.86306386457 -0.31755562906 0.37552413789 
0.81963314123 -0.30029973858 0.48273925202 0.76497886616 -0.2847291462 0.56917107835 0.7074891675 -0.26958431335 0.65035238985 
0.64928965728 -0.25999707126 0.710374533 0.59090136738 -0.25188791182 0.76476923776 0.54035456582 -0.24496223244 0.80289821889 
0.49200000832 -0.23836741845 0.83647979342 0.45895714791 -0.22326608641 0.85911363546 0.43040793774 -0.20566827625 0.87853455602 
0.41816481566 -0.17401629543 0.89077505611 0.41093895144 -0.1380399544 0.90080619607 0.40444800987 -0.10143539956 0.90816995008 
0.39819387671 -0.064628420282 0.91467421307 0.37506162428 -0.044781599326 0.92531907325 0.34624011816 -0.030651685671 0.93735964035 
0.29638478849 -0.031536641838 0.95277998344 0.23911981643 -0.037710927146 0.96939092943 0.1651048713 -0.04375905643 0.98217523419 
0.084929016546 -0.049760783498 0.99355203874 -0.0094709671626 -0.04360182885 0.99429602857 -0.10932904687 -0.032776566102 0.99095998485 
-0.21949446512 -0.002825865722 0.96828641966 -0.33378281879 0.03477500971 0.93787784589 -0.4483194139 0.084567063073 0.87885027824 
-0.56295944294 0.13943877391 0.80789812981 -0.65944362389 0.18987287113 0.71408184604 -0.74805297917 0.23838222029 0.61034858789 
-0.81455123489 0.26449275354 0.50245103542 -0.87107253105 0.280496504 0.39267447209 -0.91458251332 0.26289125129 0.28719706922 
-0.9519884224 0.2295188119 0.18373655644 -0.97534095636 0.1463584894 0.075523742899 -0.99184246993 0.038926573874 -0.035005817266 
-0.95524104243 -0.12186823287 -0.15446463827 -0.89175204982 -0.30968222503 -0.27844460399 -0.7695129477 -0.46970941663 -0.37609599941 
-0.61639237776 -0.61513072587 -0.45990801813 -0.47533935255 -0.69941779052 -0.51505178716 -0.34086862446 -0.75035890358 -0.55455832908 
-0.23185694333 -0.77187194081 -0.58485468086 -0.13724972297 -0.77673488251 -0.609940004 -0.044894896146 -0.77168875318 -0.62848436555 
0.046138526475 -0.76082930219 -0.64319136297 0.16083169357 -0.74178588712 -0.63939649627 0.28991254312 -0.71776573714 -0.62435049597 
0.45563960052 -0.66114763322 -0.55797127847 0.64445878891 -0.58398835286 -0.45924510218 0.79334303526 -0.46111848692 -0.31795824571 
0.9161586389 -0.30840976651 -0.14888872301 0.9744431755 -0.18101469258 -0.028442036174 0.98910107524 -0.070733069782 0.059132874298 
0.99511160563 -0.0027132374493 0.092134451927 0.99506897748 0.03572334156 0.086934696567 0.99452946378 0.026909871247 0.028304158432 
0.9936298881 -0.016142765241 -0.069044338235 0.9338871908 -0.11934700829 -0.22813525772 0.83001215228 -0.26766495626 -0.43353299433 
0.64987291278 -0.3905465602 -0.59668891918 0.41054354714 -0.493686524 -0.7270601543 0.22952752835 -0.54001204839 -0.80036027071 
0.095338894147 -0.54071385628 -0.82783054936 0.012257580111 -0.52535528969 -0.84949923329 -0.028365344863 -0.49665425813 -0.86634813082 
-0.037807478128 -0.4635809537 -0.88434562857 -0.020453618517 -0.42675022726 -0.90333020463 0.04012490559 -0.38533111035 -0.91681891847 