# vtk DataFile Version 2.0
3D curve data
ASCII
DATASET POLYDATA
POINTS 1904 float
0.0009638795883614203 -0.013109768367501166 -0.008037817343574696
0.003041244492186562 -0.0274110705670396 -0.017751144095178358
0.005923741097959823 -0.0422906385811625 -0.028724735785207126
0.009161697325433905 -0.057174913298143476 -0.04047791681521565
0.012310511406573488 -0.07165436975766512 -0.05259502964665179
0.014961602043755944 -0.08550792788148712 -0.06476026424367626
0.01671418251464065 -0.09862842529323387 -0.07671524268953991
0.017186768821382384 -0.11095719632009386 -0.08821549055860177
0.016076653094376482 -0.12246796040275776 -0.09903032216318053
0.013219654064683811 -0.133207727815742 -0.10899528089879154
0.008546605151259273 -0.14334336665913447 -0.11804768589214457
0.0020018488772471877 -0.1531108451238272 -0.12616245199671144
-0.006430671767108169 -0.1627255903829401 -0.13326060080632735
-0.01661617537079195 -0.17235414396198367 -0.1391925039748612
-0.028248055809427627 -0.18212761809712805 -0.14379601166304354
-0.04091108895940911 -0.19213728292523274 -0.14697817895024953
-0.05425090216055355 -0.20243919730107246 -0.14871158856431224
-0.06798563747934994 -0.21302392376824997 -0.14897602621135947
-0.08189438908071853 -0.22384756793980992 -0.14777308101071068
-0.09579833149994071 -0.23486833227176676 -0.1451357516799962
-0.10955953652785573 -0.24607173269938698 -0.14113006679491089
-0.12303253718691051 -0.25744855571204034 -0.13585854328495955
-0.13600069765496953 -0.26897089587067474 -0.12949334529650253
-0.14814305110163012 -0.2805661894827916 -0.12230144279396825
-0.1590446726778927 -0.2920785508645106 -0.11465228221816988
-0.16828047684635183 -0.30325336027672783 -0.10699010248470515
-0.17554374531256453 -0.31380640560605255 -0.09975196907205401
-0.18068806889168293 -0.3235130823852379 -0.09329089076632863
-0.18369357357926835 -0.33217689130477485 -0.08784367321065815
-0.18469067852087992 -0.33959711998017034 -0.08352801713987074
-0.1839736912115772 -0.3457189074535876 -0.08029331381482242
-0.18185515008778558 -0.35070074021169484 -0.07794723305940937
-0.17843002038620812 -0.3548198802944119 -0.07628590901881409
-0.1735989974722667 -0.35823867368547263 -0.07519924660583353
-0.1672366741451682 -0.36098878788896105 -0.07464672545064277
-0.15924942003354403 -0.3630343244743531 -0.07462902711705997
-0.1496129696868613 -0.3643085986805241 -0.07517703181741989
-0.13842267319449705 -0.3647389297066953 -0.07632575221111867
-0.12594955675519554 -0.3642938697377034 -0.07806950978655222
-0.11262570397961186 -0.36305125019534723 -0.08032296713604961
-0.09893351924833628 -0.3612349711810969 -0.08290909098733686
-0.0852300196630988 -0.35916500278643493 -0.08561550465505476
-0.07172320639033286 -0.35716933895591996 -0.08825490991966257
-0.058513879913530374 -0.35554485820598614 -0.09067727307462316
-0.045622122448606875 -0.35454771879376074 -0.09277054171864162
-0.03300783991139038 -0.3543944951472906 -0.09445785901862132
-0.020599364993068456 -0.35528000194341125 -0.09569080686299514
-0.008341020432973894 -0.35739474919495023 -0.09644351497240909
0.0037454726446072614 -0.36090764260925545 -0.09671874323002135
0.015559199908846582 -0.36591690044071423 -0.09655022338818448
0.02697951856107179 -0.37243199564018636 -0.09598760913977755
0.0379188580562521 -0.3804132823307702 -0.09508640864858482
0.04831877584441721 -0.38980823743026033 -0.09389900640405638
0.05813759041009357 -0.40054970691920033 -0.09246810762649228
0.06736420638896372 -0.412551925036235 -0.0908212596638127
0.0760291038248111 -0.42571126675596827 -0.08896506641299823
0.08419405912514437 -0.43990231937430185 -0.08688330571851491
0.09193221553996325 -0.4549661922297393 -0.08454499290800478
0.09930271831453874 -0.4707102886071237 -0.08191650618917365
0.10633700973156343 -0.4869226432811101 -0.07897309233875051
0.11305515560382406 -0.5033919294276145 -0.07569961887580873
0.11949255555169484 -0.5199328902490626 -0.07206540294549091
0.12569004292955574 -0.5363850886384806 -0.06801244141044006
0.1316902641167528 -0.5525927919186508 -0.06346713053125336
0.13754377799934187 -0.5684070144004895 -0.05835459949696093
0.14330841515319986 -0.583694258435883 -0.052615967005984136
0.14904567883226863 -0.5983364982158556 -0.04621598636603497
0.15481903701130553 -0.6122331053401711 -0.039140963778972096
0.16069291863083981 -0.6253042636444641 -0.03139265962804769
0.16673129434607384 -0.6374963767352694 -0.02297920557381699
0.17299535926526252 -0.648778925349745 -0.013908862621244918
0.17954450876294475 -0.6591421436409545 -0.004187308979012927
0.1864367712654041 -0.6685946523947368 0.006184643132171099
0.19372606182371355 -0.6771523318082628 0.01720757179733816
0.2014526464653489 -0.68482901651232 0.02887183082980843
0.20963022131739717 -0.6916411712685446 0.04114680378284717
0.21824487268870119 -0.6976133263868585 0.053988006039655576
0.22725842368692217 -0.7027746258711407 0.06735006404936383
0.23661141093364757 -0.7071558880149643 0.08119520544446243
0.2462297214317188 -0.7107909559728763 0.09550039625514949
0.25604061500269043 -0.7137200988029785 0.11026094314341531
0.26598991663423305 -0.7159840917946083 0.12548122098491507
0.27604559645824883 -0.7176197866032051 0.14115720534790957
0.28619732088006183 -0.7186616419956435 0.15725901862679473
0.2964523296150151 -0.7191507757989674 0.17371755060357358
0.30682552288710524 -0.7191464339143054 0.19041688061786385
0.31732979971687386 -0.7187387230065667 0.20719920921661988
0.32796333651521936 -0.7180528166570516 0.2238825419723184
0.3387012210395504 -0.7172428060109383 0.24028196591355858
0.3494975834027015 -0.7164760601746024 0.25622761840535996
0.3602887867535336 -0.7159200768942774 0.27157602039263834
0.37100290866783153 -0.7157224667246054 0.2862161809623519
0.3815685662083207 -0.7159987511052289 0.3000724528462357
0.3919213257518273 -0.7168261020598198 0.3131102381479819
0.4020193606086697 -0.7182488691024118 0.3253395404946177
0.4118460598303428 -0.7202939070434153 0.33680243022439466
0.4214065197544545 -0.7229861066681466 0.3475533157873034
0.4307204487070687 -0.7263557806668652 0.35764363592538495
0.43981652027610313 -0.730440615023795 0.367111260766555
0.44873080712919544 -0.7352810617116056 0.37597429539399757
0.45750365011766636 -0.7409119083432304 0.3842271754797829
0.46617352867000855 -0.7473535672269944 0.3918369691800887
0.47476308437109976 -0.7546034546130775 0.3987482916277627
0.4832715224984638 -0.7626326486594159 0.40490239464600875
0.4916807654019616 -0.7713999300848668 0.41026580480261726
0.49997168285228105 -0.7808736788641985 0.41483713612347534
0.5081292594739298 -0.7910398702005568 0.4186339754479482
0.5161379453778984 -0.801895194763626 0.4216791480681154
0.5239783563866145 -0.8134301005690632 0.42399728679595344
0.5316285461946635 -0.8256099352077346 0.4256198654864183
0.5390653113714393 -0.8383637745481544 0.4265960502907752
0.5462771911053553 -0.8515885184858916 0.4269989971420787
0.5532745115070582 -0.865168991581726 0.4269221770655063
0.5600959827146733 -0.8789940006776598 0.4264705644862108
0.5668064578502776 -0.8929513350714836 0.42575738456191126
0.5734755308601716 -0.9068821901925438 0.4249116867919417
0.5801274475165555 -0.9205051315270135 0.424072959788786
0.586674673092861 -0.9333986472720375 0.4233697728331298
0.5929313974083525 -0.9451480762887736 0.42289070659263767
0.499697905086694 -0.014455953777648333 -0.008076242322997033
0.5007742562470792 -0.02971609948815343 -0.01783814703407457
0.502887364785021 -0.04510775180586289 -0.028855075334170574
0.505576129173488 -0.060113755841008705 -0.040645480077419124
0.5083448776194531 -0.07445971283838394 -0.05280599953329081
0.5106913718598904 -0.08801912538403667 -0.06500677957305297
0.5121245494336 -0.10073367790754024 -0.07695447331183822
0.5122026331597243 -0.11256786858919761 -0.08836409933116003
0.5106064992563837 -0.1235061343270631 -0.0989780161243533
0.5071916728148446 -0.13360758068002784 -0.10863741578379374
0.5019048952838205 -0.1430672764792851 -0.11732082157246504
0.49466418747316065 -0.15214912611845635 -0.12504776334671588
0.48542132909881125 -0.16106585972545023 -0.13175094643784133
0.4743462140128427 -0.1699557130802076 -0.13726684606360273
0.4618318906080277 -0.17893215901140924 -0.14145394558169166
0.4483357365130912 -0.1880739715903022 -0.1442374929428988
0.4342732684779854 -0.19740718180658146 -0.14559397026492854
0.4199545843848503 -0.20692196229845627 -0.1455312050800768
0.4055902894084426 -0.21659307093678992 -0.1440652503488783
0.39134866520572775 -0.22640488636505884 -0.14122887604769993
0.37735837565424957 -0.2363675984448084 -0.13708247847238336
0.36375313347814375 -0.24648829671077804 -0.13172525630617324
0.3507281050195833 -0.25675414961494675 -0.12532946352936558
0.3385798495256222 -0.2671146478961367 -0.1181603290034189
0.3277200781126598 -0.27743392260561167 -0.11059484639081568
0.3185932183559807 -0.2874510178868757 -0.10311192379214794
0.3114898117640366 -0.29685475238658204 -0.09618983098992186
0.30644621818915 -0.3054311552718619 -0.0901824629061353
0.3032999701932346 -0.3130727377344594 -0.08523754123773225
0.3018076400214996 -0.3197148281374885 -0.0813517176442455
0.30170168468309866 -0.3253983420284631 -0.07841478839729141
0.30278418404665314 -0.33024747965480283 -0.07626973468983503
0.3049951645522149 -0.33442326737329564 -0.0747726577888273
0.3083812876901175 -0.33803514152245706 -0.07384096136748038
0.31302573798013467 -0.3411226633197211 -0.07343087811511693
0.3190504874844347 -0.34365503018803567 -0.07353638425143927
0.3265954662174014 -0.34552858933456143 -0.07420200509502926
0.33576509287953465 -0.34657268772676264 -0.07551128365489251
0.3465437988923061 -0.3465878643407943 -0.07753966716995794
0.35868480716938167 -0.3454299897620723 -0.0802958896042129
0.3716410043677166 -0.3431617521720983 -0.08362204758276455
0.38489523245002094 -0.34007619952941687 -0.08725151664861361
0.39810017787882146 -0.3365441721780354 -0.09093634212754413
0.41104524378677776 -0.33294229450172963 -0.09446677679554463
[...]
CELL_DATA 16
SCALARS ComponentValue int 1
LOOKUP_TABLE default
1
2
3
4
5
6
7
8
9
10
11
12
13
14
15
16
