# vtk DataFile Version 2.0
3D curve data
ASCII
DATASET POLYDATA
POINTS 1904 float
0.0009638795883614203 -0.013109768367501166 -0.008037817343574696
0.003041244492186562 -0.0274110705670396 -0.017751144095178358
0.005923741097959823 -0.0422906385811625 -0.028724735785207126
0.009161697325433905 -0.057174913298143476 -0.04047791681521565
0.012310511406573488 -0.07165436975766512 -0.05259502964665179
0.014961602043755944 -0.08550792788148712 -0.06476026424367626
0.01671418251464065 -0.09862842529323387 -0.07671524268953991
0.017186768821382384 -0.11095719632009386 -0.08821549055860177
0.016076653094376482 -0.12246796040275776 -0.09903032216318053
0.013219654064683811 -0.133207727815742 -0.10899528089879154
0.008546605151259273 -0.14334336665913447 -0.11804768589214457
0.0020018488772471877 -0.1531108451238272 -0.12616245199671144
-0.006430671767108169 -0.1627255903829401 -0.13326060080632735
-0.01661617537079195 -0.17235414396198367 -0.1391925039748612
-0.028248055809427627 -0.18212761809712805 -0.14379601166304354
-0.04091108895940911 -0.19213728292523274 -0.14697817895024953
-0.05425090216055355 -0.20243919730107246 -0.14871158856431224
-0.06798563747934994 -0.21302392376824997 -0.14897602621135947
-0.08189438908071853 -0.22384756793980992 -0.14777308101071068
-0.09579833149994071 -0.23486833227176676 -0.1451357516799962
-0.10955953652785573 -0.24607173269938698 -0.14113006679491089
-0.12303253718691051 -0.25744855571204034 -0.13585854328495955
-0.13600069765496953 -0.26897089587067474 -0.12949334529650253
-0.14814305110163012 -0.2805661894827916 -0.12230144279396825
-0.1590446726778927 -0.2920785508645106 -0.11465228221816988
-0.16828047684635183 -0.30325336027672783 -0.10699010248470515
-0.17554374531256453 -0.31380640560605255 -0.09975196907205401
-0.18068806889168293 -0.3235130823852379 -0.09329089076632863
-0.18369357357926835 -0.33217689130477485 -0.08784367321065815
-0.18469067852087992 -0.33959711998017034 -0.08352801713987074
-0.1839736912115772 -0.3457189074535876 -0.08029331381482242
-0.18185515008778558 -0.35070074021169484 -0.07794723305940937
-0.17843002038620812 -0.3548198802944119 -0.07628590901881409
-0.1735989974722667 -0.35823867368547263 -0.07519924660583353
-0.1672366741451682 -0.36098878788896105 -0.07464672545064277
-0.15924942003354403 -0.3630343244743531 -0.07462902711705997
-0.1496129696868613 -0.3643085986805241 -0.07517703181741989
-0.13842267319449705 -0.3647389297066953 -0.07632575221111867
-0.12594955675519554 -0.3642938697377034 -0.07806950978655222
-0.11262570397961186 -0.36305125019534723 -0.08032296713604961
-0.09893351924833628 -0.3612349711810969 -0.08290909098733686
-0.0852300196630988 -0.35916500278643493 -0.08561550465505476
-0.07172320639033286 -0.35716933895591996 -0.08825490991966257
-0.058513879913530374 -0.35554485820598614 -0.09067727307462316
-0.045622122448606875 -0.35454771879376074 -0.09277054171864162
-0.03300783991139038 -0.3543944951472906 -0.09445785901862132
-0.020599364993068456 -0.35528000194341125 -0.09569080686299514
-0.008341020432973894 -0.35739474919495023 -0.09644351497240909
0.0037454726446072614 -0.36090764260925545 -0.09671874323002135
0.015559199908846582 -0.36591690044071423 -0.09655022338818448
0.02697951856107179 -0.37243199564018636 -0.09598760913977755
0.0379188580562521 -0.3804132823307702 -0.09508640864858482
0.04831877584441721 -0.38980823743026033 -0.09389900640405638
0.05813759041009357 -0.40054970691920033 -0.09246810762649228
0.06736420638896372 -0.412551925036235 -0.0908212596638127
0.0760291038248111 -0.42571126675596827 -0.08896506641299823
0.08419405912514437 -0.43990231937430185 -0.08688330571851491
0.09193221553996325 -0.4549661922297393 -0.08454499290800478
0.09930271831453874 -0.4707102886071237 -0.08191650618917365
0.10633700973156343 -0.4869226432811101 -0.07897309233875051
0.11305515560382406 -0.5033919294276145 -0.07569961887580873
0.11949255555169484 -0.5199328902490626 -0.07206540294549091
0.12569004292955574 -0.5363850886384806 -0.06801244141044006
0.1316902641167528 -0.5525927919186508 -0.06346713053125336
0.13754377799934187 -0.5684070144004895 -0.05835459949696093
0.14330841515319986 -0.583694258435883 -0.052615967005984136
0.14904567883226863 -0.5983364982158556 -0.04621598636603497
0.15481903701130553 -0.6122331053401711 -0.039140963778972096
0.16069291863083981 -0.6253042636444641 -0.03139265962804769
0.16673129434607384 -0.6374963767352694 -0.02297920557381699
0.17299535926526252 -0.648778925349745 -0.013908862621244918
0.17954450876294475 -0.6591421436409545 -0.004187308979012927
0.1864367712654041 -0.6685946523947368 0.006184643132171099
0.19372606182371355 -0.6771523318082628 0.01720757179733816
0.2014526464653489 -0.68482901651232 0.02887183082980843
0.20963022131739717 -0.6916411712685446 0.04114680378284717
0.21824487268870119 -0.6976133263868585 0.053988006039655576
0.22725842368692217 -0.7027746258711407 0.06735006404936383
0.23661141093364757 -0.7071558880149643 0.08119520544446243
0.2462297214317188 -0.7107909559728763 0.09550039625514949
0.25604061500269043 -0.7137200988029785 0.11026094314341531
0.26598991663423305 -0.7159840917946083 0.12548122098491507
0.27604559645824883 -0.7176197866032051 0.14115720534790957
0.28619732088006183 -0.7186616419956435 0.15725901862679473
0.2964523296150151 -0.7191507757989674 0.17371755060357358
0.30682552288710524 -0.7191464339143054 0.19041688061786385
0.31732979971687386 -0.7187387230065667 0.20719920921661988
0.32796333651521936 -0.7180528166570516 0.2238825419723184
0.3387012210395504 -0.7172428060109383 0.24028196591355858
0.3494975834027015 -0.7164760601746024 0.25622761840535996
0.3602887867535336 -0.7159200768942774 0.27157602039263834
0.37100290866783153 -0.7157224667246054 0.2862161809623519
0.3815685662083207 -0.7159987511052289 0.3000724528462357
0.3919213257518273 -0.7168261020598198 0.3131102381479819
0.4020193606086697 -0.7182488691024118 0.3253395404946177
0.4118460598303428 -0.7202939070434153 0.33680243022439466
0.4214065197544545 -0.7229861066681466 0.3475533157873034
0.4307204487070687 -0.7263557806668652 0.35764363592538495
0.43981652027610313 -0.730440615023795 0.367111260766555
0.44873080712919544 -0.7352810617116056 0.37597429539399757
0.45750365011766636 -0.7409119083432304 0.3842271754797829
0.46617352867000855 -0.7473535672269944 0.3918369691800887
0.47476308437109976 -0.7546034546130775 0.3987482916277627
0.4832715224984638 -0.7626326486594159 0.40490239464600875
0.4916807654019616 -0.7713999300848668 0.41026580480261726
0.49997168285228105 -0.7808736788641985 0.41483713612347534
0.5081292594739298 -0.7910398702005568 0.4186339754479482
0.5161379453778984 -0.801895194763626 0.4216791480681154
0.5239783563866145 -0.8134301005690632 0.42399728679595344
0.5316285461946635 -0.8256099352077346 0.4256198654864183
0.5390653113714393 -0.8383637745481544 0.4265960502907752
0.5462771911053553 -0.8515885184858916 0.4269989971420787
0.5532745115070582 -0.865168991581726 0.4269221770655063
0.5600959827146733 -0.8789940006776598 0.4264705644862108
0.5668064578502776 -0.8929513350714836 0.42575738456191126
0.5734755308601716 -0.9068821901925438 0.4249116867919417
0.5801274475165555 -0.9205051315270135 0.424072959788786
0.586674673092861 -0.9333986472720375 0.4233697728331298
0.5929313974083525 -0.9451480762887736 0.42289070659263767
0.5030569906532342 -0.011125279055395185 -0.008111968906695993
0.5068526086181481 -0.023938708363156046 -0.017837090176436296
0.5110907502437909 -0.037999457991323704 -0.028789653829842696
0.5153115189960895 -0.052698829098286604 -0.040501497079724946
0.5191459990163049 -0.06743142915754206 -0.05255177733750353
0.5223504000267258 -0.08182694000717344 -0.0646608666661257
0.524687583215464 -0.09569873932675561 -0.07663825861408832
0.5258884794947494 -0.10895323048147643 -0.0883180881324881
0.5256825602800218 -0.12155402355142106 -0.09952864261251654
0.5238630550829574 -0.1335346075088235 -0.11010603170687484
0.5203105078620641 -0.14501024726654285 -0.11991433720348796
0.5149875226597073 -0.15615778480085296 -0.12883790589962646
0.5079145726460097 -0.16718629070027136 -0.13675985435301846
0.49917061441628596 -0.17830092514697457 -0.14353679686020213
0.4889403250526046 -0.189653230676685 -0.1489574107922241
0.47758496174164833 -0.20136242898777415 -0.1528996225433264
0.46536606502214795 -0.21355231029961505 -0.15533654656148707
0.45252252817704886 -0.2262194284685955 -0.15620043266539718
0.43929314954131815 -0.23928645976699112 -0.1554675584021707
0.42587585254847193 -0.25266038150644804 -0.15317292875750152
0.41242529955141016 -0.26627661797639507 -0.14939594439081633
0.39910668304034125 -0.28009305510270255 -0.14424862893512963
0.3861733382249811 -0.2940525352438252 -0.1379055843255935
0.37398952190943113 -0.3080398773729232 -0.13063931472499524
0.3629769950109951 -0.3218610466211988 -0.12280872534444381
0.3535260315143194 -0.33527686454479816 -0.11479645676565459
0.3459702405537215 -0.3480617787172128 -0.10695800334784698
0.3406605111012838 -0.35997682111303325 -0.09962927229841241
0.3379677256988874 -0.37066050879922385 -0.09319935015494074
0.337985013209511 -0.3796708522053996 -0.08800542863256683
0.34040187990190157 -0.38681359385676045 -0.08409569259355988
0.34480018551708347 -0.392303742478999 -0.08121839654974193
0.3511202781942674 -0.3965052227066106 -0.07910458094912473
0.35950429601751244 -0.39954388290825976 -0.0776236186466853
0.3700132611411372 -0.401429189409157 -0.07672759222264658
0.38255327699150526 -0.40220188471218676 -0.07640684227408538
0.39682145520378365 -0.40198303443940925 -0.07664955328296237
0.4122766964686963 -0.4009921408546279 -0.0773924576715634
0.4281693546762584 -0.39956691352674295 -0.07849481750323038
0.44382804284470945 -0.39815758831560943 -0.07974008903423228
0.4590614453718227 -0.3971747563181846 -0.0809572459375123
0.47393463246108647 -0.39690998447313947 -0.08204387631601998
0.488583515271786 -0.3976083196661851 -0.08290664112156161
[...]
CELL_DATA 16
SCALARS ComponentValue int 1
LOOKUP_TABLE default
1
2
3
4
5
6
7
8
9
10
11
12
13
14
15
16
