# vtk DataFile Version 2.0
3D curve data
ASCII
DATASET POLYDATA
POINTS 595 float
0.0012623581824792625 -0.015420810872794155 -0.011180191331644534
0.003433514758328665 -0.030413275012094298 -0.023765424572901244
0.0061232836191308735 -0.04443448468769694 -0.03715000047504125
0.00897458286856898 -0.05735705997561926 -0.05090903937854347
0.011623430136399528 -0.06923489532195226 -0.06474550819310569
0.013687348985120987 -0.0801442604645869 -0.07840383869377437
0.014793811984143802 -0.0901457440939382 -0.09163291684798373
0.014613928637215844 -0.09931732577798186 -0.10420534500782702
0.012853844697551875 -0.1077864952885914 -0.11594564081462913
0.009242054708218787 -0.11571451829262616 -0.12673992639570747
0.0035461553294944517 -0.1232754497323511 -0.13654800209716159
-0.004415276474855409 -0.13065535560049663 -0.14536495639612063
-0.014660370986730896 -0.13804610068728468 -0.15313092287201258
-0.026933132593439154 -0.14564844913473352 -0.1597161381178605
-0.040653588958413193 -0.15363255980828253 -0.16503763749530306
-0.055202558073109545 -0.1621464400105423 -0.16913007164369975
-0.07009322517936455 -0.17125020554512688 -0.1720168527140656
-0.08497152272730914 -0.18089575592239138 -0.17365404927565095
-0.09955493171973318 -0.1909848286636126 -0.1739719600406573
-0.11367415156301325 -0.20144105577720267 -0.1729247406103743
-0.12726271930302768 -0.21220812079185303 -0.17050164673507767
-0.14029074403215225 -0.22322673725428246 -0.16675202875209771
-0.15269569887301784 -0.23440764992190735 -0.16180609403434582
-0.16434370192230696 -0.24560591886274064 -0.1558856508831558
-0.17504006524512616 -0.25663491331476307 -0.14929069801583017
-0.18454024098651495 -0.26731869762372357 -0.1423706754736565
-0.1925157663752074 -0.27750874911907764 -0.13551434389799136
-0.19854342200470998 -0.28696746843368326 -0.12918065219542518
-0.20242172010866918 -0.2952732503775697 -0.12374571129408779
-0.2043265060715144 -0.3022360323484479 -0.11923647537631961
-0.20453462366405023 -0.3078724318623891 -0.11557625326519416
-0.203324806783261 -0.31240300257990883 -0.11260712008557563
-0.20081909169182943 -0.31608400752283783 -0.11011898322689138
-0.19696664404859482 -0.3190920869745585 -0.107929562941041
-0.19154152488704249 -0.3215001630855129 -0.1059449969514649
-0.18423007844458333 -0.32326216778557854 -0.10418140572829007
-0.1747009656911256 -0.3242494360550573 -0.10274480809538049
-0.16273057044497194 -0.3242992124432051 -0.10182892539838817
-0.14838351716741233 -0.32331936035968667 -0.10165546852832058
-0.13214881965672573 -0.3214027097478448 -0.10235895304768472
-0.11469399700385076 -0.3188798340290767 -0.1038990803691934
-0.09657958655011763 -0.31618231403099156 -0.10615464263447713
-0.07825081086912407 -0.31373889332617744 -0.10896481926027063
-0.06003107195848282 -0.31192004893964403 -0.11214012153062904
-0.04209428182202375 -0.3110025922089078 -0.11548623901297461
-0.024470678951832355 -0.3111813834732801 -0.11882089014953162
-0.00711747604743509 -0.31262436601919413 -0.1219765107413031
0.009980689992496948 -0.31549167843613135 -0.12481347723876793
0.026760339443136476 -0.3198984332904661 -0.1272313750118779
0.04307884967866256 -0.3258591359398345 -0.12916328921644432
0.058785633065795345 -0.3332644247951907 -0.13058512156314978
0.07378902721377792 -0.3419474992036758 -0.13152236566161207
0.08804971640403841 -0.3517343674545328 -0.13203925746880787
0.10160052337161848 -0.36248640226390794 -0.13222041652250432
0.11454865885425249 -0.37416662817894997 -0.13215429296273568
0.1269942217886156 -0.38681654166100954 -0.13192634245233478
0.13899378415622995 -0.40046761860420865 -0.13160781654446638
0.15058158782615302 -0.4151076023816599 -0.131241063062439
0.16178281871910571 -0.43066949547026767 -0.13082511127926444
0.17262355087586514 -0.4470248459544534 -0.13030715331547266
0.18313860226235618 -0.4639945112851606 -0.12958376753527986
0.19336848924616953 -0.48137126630202054 -0.12850908042959636
0.2033474351682188 -0.4989416990770683 -0.12691032014510456
0.213092424407051 -0.516505008241275 -0.1246124774536299
0.22259660150478117 -0.5338824285968766 -0.12146885913340896
0.23183184503747234 -0.5509151747789529 -0.11738295617679714
0.24076480351195317 -0.567469454628991 -0.11231420902512083
0.24937852930891685 -0.5834512839511686 -0.1062680732912824
0.25768439146638744 -0.5988107776889436 -0.09927040220595967
0.2657188777201324 -0.6135204973107771 -0.09134317572593187
0.2735363251572472 -0.6275476113859907 -0.08250006560945265
0.2812082739587447 -0.6408420163679523 -0.07275737871945481
0.2888212951017375 -0.6533373567914819 -0.06214866336639622
0.29646870930107216 -0.6649569369198822 -0.05073642474939245
0.3042393763909754 -0.6756277712639096 -0.03861569654660971
0.3122127402160669 -0.6852988665654175 -0.025900068162300807
0.32045700550548334 -0.6939482959464116 -0.01269354394670015
0.32902074849545593 -0.7015775711384766 0.0009292441409687472
0.3379234158306624 -0.708205959152034 0.014930726267958362
0.3471571049760969 -0.7138661742790077 0.029312189481590013
0.3566968246343844 -0.7185908608504219 0.04410582913024304
0.3665083126707349 -0.7223915542566985 0.059357190889676226
0.376548215494473 -0.725245907760791 0.07510223653908242
0.38676863966064173 -0.7271027926437019 0.09134300799113017
0.3971277644280137 -0.7279037270367881 0.10803358800101712
0.4075956593456449 -0.7276191118977917 0.12508299984095847
0.4181567198495538 -0.726279053643651 0.14237253432236344
0.4288054906339579 -0.7239832339830475 0.1597805329122895
0.4395452948629259 -0.7208922666417024 0.17720399969775685
0.4503854945299391 -0.7172127491671422 0.1945694099265606
0.4613345380270829 -0.7131814852484668 0.21183517646790934
0.4723988341284105 -0.7090507287598337 0.22898370359179082
0.4835786045710754 -0.7050761803553296 0.24600705850569887
0.4948655598491913 -0.7014993565428043 0.2628970786430043
0.506249689353025 -0.6985324765490998 0.27963401930671256
0.5177196987877377 -0.6963487815033736 0.2961759580508404
0.5292637226935095 -0.6950814282235445 0.31244987085432746
0.5408695635726171 -0.6948215755711689 0.32834991283207543
0.5525273746900401 -0.6956211209019213 0.3437469960486699
0.5642404134538572 -0.6974989841097113 0.3585038143988001
0.5760207441330691 -0.7004517734933353 0.37247708091026344
0.5878717546795019 -0.7044532929406738 0.385509131707772
0.5997621214844753 -0.7094407613047089 0.39743684653457734
0.6116276070910012 -0.7153102212110807 0.4081380141674993
0.6233987785846499 -0.7219456010399999 0.41757185968671556
0.6350294011944956 -0.7292615559880362 0.4257679662886394
0.6464969346601122 -0.7372154711903758 0.4327844868012906
0.6577881878114351 -0.7458019388679217 0.43868053253499384
0.6688962916271497 -0.7550314059419471 0.44351311399157045
0.6798180487340753 -0.7649158337816763 0.44734826783697246
0.6905499685091521 -0.7754493885167612 0.45027023021342405
0.7010999968524478 -0.7865997542879416 0.4523854116735393
0.7114957275763647 -0.7983080093094962 0.453824345659922
0.7217898067219275 -0.8104888936008946 0.4547544609934875
0.7320509346844142 -0.8230123762884495 0.45538496097982906
0.7423347994839489 -0.8356597699050218 0.4559603522619115
0.7526190442272861 -0.8480491497594033 0.45672830674041065
0.762700577020885 -0.8596442619350224 0.4578954188515172
0.7722120755818173 -0.8699386239801083 0.4595864383079433
0.3137709848187721 -0.016314836441991876 -0.011613935351568079
0.3160914264608195 -0.032209736706646674 -0.024720750482484784
0.3190700765772206 -0.04717603632602918 -0.03874893802647464
0.322313913306471 -0.06110188335274146 -0.053289404064789325
0.3254031077266557 -0.07402305836863042 -0.06802989076369942
0.32789682118879826 -0.08598015872319445 -0.0826768098334263
0.32937016838018535 -0.09698917564604029 -0.09692590185872438
0.3294555887940813 -0.10708117215649857 -0.11049321860656326
0.32783914191197155 -0.11634309634575626 -0.12315752274318237
0.3242474003080565 -0.12491560007685411 -0.13478162854338835
0.31845010939156204 -0.13297527243689888 -0.14532481665104713
0.3102706460429539 -0.14071946561182566 -0.15479512899253386
0.29970628282751943 -0.1483565877981533 -0.1631519716812931
0.2870319901540638 -0.15611629183524964 -0.17029807877753067
0.272808197506991 -0.1642062968004639 -0.17617025563110703
0.25764802120316965 -0.1727981504705024 -0.1807870027190396
0.24205731696694982 -0.1819738608265919 -0.1841536484611816
0.22642051595749102 -0.1917057566386626 -0.1862115262064571
0.21106631643618556 -0.20190410922182914 -0.18687995510958802
0.19620809869496209 -0.2124893132931855 -0.1861128581709866
0.18194434271904542 -0.2233864578130349 -0.1839045292026833
0.16832559442647874 -0.2345117745277317 -0.18031456699165296
0.15542415061995676 -0.24575835044092503 -0.17548555811517574
0.14337720360532644 -0.2569719518574444 -0.16965371257077688
0.13237334459689093 -0.2679596385746683 -0.16313833318328944
0.12262137247049645 -0.27854003311452763 -0.15630574161273447
0.11435792643063708 -0.28857793844394325 -0.14953251511650048
0.10787869867260746 -0.29790704027642906 -0.14321443708568354
0.10333804450915557 -0.3062358909089994 -0.13766449887878693
0.10062987930531433 -0.3134293361252552 -0.13292550251053903
0.09958119298036136 -0.31948137583716385 -0.12896494048217
0.09999006218397041 -0.32453169923854397 -0.1256869860986052
0.10172317430334674 -0.32876653185002375 -0.12293621629390042
0.10475692417242877 -0.3323554558465112 -0.12055089122059172
0.10926324542647853 -0.3354219712441862 -0.11842272876216733
0.11557893734864391 -0.337962213549638 -0.11655521609508206
0.12408647263678699 -0.339831535539211 -0.11506624162729563
0.13506471094501674 -0.3407997483075779 -0.11415928019287634
0.1485195389580388 -0.34065552676675226 -0.11407050335877532
0.16396255051063466 -0.3393493251227557 -0.11494936664998906
0.180670505235608 -0.33711945284496153 -0.11674420969330325
0.19803697212717616 -0.3343527825100247 -0.11931703452593556
0.2155888768662061 -0.3314625406650438 -0.12249147079586556
0.23299902500566713 -0.32882647440598717 -0.1260646932367917
[...]
CELL_DATA 5
SCALARS ComponentValue float 1
LOOKUP_TABLE default
-2.0
-0.5
1.0
2.5
4.0
