# vtk DataFile Version 2.0
3D curve data
ASCII
DATASET POLYDATA
POINTS 1785 float
0.008740799647647637 -0.019013727223930153 -0.011854586408720473
0.02007062190074115 -0.04021034542542969 -0.024383516401412803
0.03307395779220104 -0.06301314948173249 -0.03730850351566098
0.04644088003767689 -0.08651381797897638 -0.0502870883361635
0.05896853738482868 -0.10968053761497043 -0.0629639360050966
0.06979451395950127 -0.1318157202870988 -0.07508782165371732
0.07832907134845907 -0.15261347013430418 -0.08652613898646533
0.08417602313122755 -0.1720553173721881 -0.0972273987195885
0.08709131513204131 -0.19031398356280718 -0.10718463752368913
0.08698528661721262 -0.20769838646881517 -0.11642592488451639
0.08392273121707666 -0.22463979266603895 -0.1249933919233165
0.07801974727729298 -0.2416713351448773 -0.13286846273484257
0.06936079707408914 -0.2592316559157178 -0.13981666934159698
0.058200287709939375 -0.2774641874759012 -0.14534176237758153
0.045081705200967444 -0.29632707030716304 -0.14892407751837666
0.030614508779861053 -0.31576620246328135 -0.15025494330270234
0.015162997515271177 -0.33574813813269194 -0.14917024833798256
-0.0010569568049168686 -0.35612003806851467 -0.14555993021589006
-0.01787088099783733 -0.3765808047926832 -0.13944674746978047
-0.035041232393372035 -0.3967458188433884 -0.13109000401602122
-0.05251337150429756 -0.41634615165599503 -0.12094284571952751
-0.07046140289198696 -0.43522925006636987 -0.10942643845431144
-0.08913364388654639 -0.4533706176403747 -0.09685267541514828
-0.10871062087018434 -0.4708901776650542 -0.08342051929562666
-0.12912658118746562 -0.48804455158130217 -0.06926429589596944
-0.14984206270291717 -0.5051188184712029 -0.05458218960416099
-0.16972406103881998 -0.52225263692335 -0.03976106801928079
-0.18720946014373574 -0.539305761464781 -0.025408279308850222
-0.20073067599901573 -0.555828625495112 -0.012313527164221991
-0.2092638129141499 -0.5711296236423584 -0.0012935327704905342
-0.212787253578165 -0.5845252181525822 0.007162847559704687
-0.21211163903176264 -0.5959453013812346 0.013199100917924889
-0.2078578093632782 -0.6058392808660825 0.017147416172737198
-0.20021955513100492 -0.6144727829978586 0.0190842469571492
-0.18935683991902952 -0.6216565905070445 0.0188537264462395
-0.17581814180126937 -0.6268621602604653 0.016334208546091213
-0.1604074439788848 -0.6295486518189913 0.011585431968017252
-0.14382567593779963 -0.6292708037070757 0.004741153374511742
-0.12652298802913683 -0.6256159041792004 -0.004066056232085891
-0.10886043824868234 -0.6182854563445819 -0.014589977388963775
-0.09101766162096865 -0.6072264489752923 -0.026391781416600427
-0.07292399159822441 -0.5926076807634344 -0.0389350647396116
-0.05432039633766651 -0.5748168046235471 -0.05164139534130183
-0.03487201129635498 -0.554486329214179 -0.06389759647457642
-0.01428924561635412 -0.5325805034049453 -0.0750356702512984
0.007570106616727166 -0.5104019774003051 -0.08437997484636628
0.030577065130465406 -0.4894796935630285 -0.09136502707495282
0.054232356926785165 -0.47130123331284984 -0.09567904977610171
0.07771839677861975 -0.45697174676607344 -0.09739606424397693
0.1002684844453299 -0.4469892724961021 -0.09693250139226549
0.12143277437859058 -0.44140392794695116 -0.09480914514158774
0.14110246303151974 -0.4400657454158379 -0.09146299602001479
0.15948203339311734 -0.4428236942011733 -0.08717440589329865
0.17688612437115198 -0.44969357547586986 -0.08211104283389618
0.1934187713969639 -0.46071467343156225 -0.07645458695494353
0.20894146515262 -0.47560053694671856 -0.07045421879499138
0.22328741413750344 -0.4937107802179119 -0.06437853500847639
0.23631474670340763 -0.5142654874696383 -0.058492306668651475
0.2478323430120624 -0.5365211895166794 -0.053053599523073564
0.2575627263826601 -0.5598778998217552 -0.04832361066069264
0.2652391072261312 -0.5839547806083959 -0.04455383921691208
0.27071456191006377 -0.6087013313416129 -0.04189008620566884
0.27388239889007265 -0.6343556174283014 -0.04035486999796457
0.2747162626543127 -0.6612680716770591 -0.039877866182109575
0.2733882746716653 -0.6898162636921112 -0.04029720186045969
0.27029597427444313 -0.7203500511251105 -0.04140729266214434
0.2660502686661732 -0.7530889813849664 -0.04300003147093714
0.26144182488676315 -0.7880734270692243 -0.044872622839878924
0.2573733056711765 -0.8251458366127346 -0.046824311990100134
0.2547588126557714 -0.8639923385841367 -0.04864896897081283
0.25441170808677505 -0.9041610861940353 -0.05010872704571234
0.25694622917278004 -0.9450912286344314 -0.05090551368083222
0.262712623459752 -0.9860798657953931 -0.05066780731128256
0.27176446772776347 -1.0262829549199877 -0.048974758833083866
0.283855862183574 -1.064771268843232 -0.04542202279681486
0.29849466560787263 -1.1006799810730685 -0.03970024260813289
0.31505093452878874 -1.1333470067101186 -0.031634561329871365
0.3328691856063776 -1.1623752643001712 -0.021186260461628397
0.351348984686009 -1.1876531227103 -0.00842231839154355
0.3699873416419856 -1.2093186903481963 0.006539964359710235
0.38841898608575287 -1.2276926747846526 0.02358282598914454
0.4064144130564347 -1.2431666324573 0.042582236152835774
0.423859983478498 -1.2561154041750509 0.06336981625426395
0.4407273028026609 -1.2668502886389903 0.0857080861830819
0.45704863680575747 -1.275600300069799 0.10929112789665195
0.4729012683125172 -1.282511576102244 0.13377191511157777
0.4883818608608403 -1.287667748987593 0.15880744712152173
0.5035962009056916 -1.2911254845491968 0.1841133778953524
0.5186315148281976 -1.2929488279313741 0.20948637052312058
0.533540334528918 -1.293202937801566 0.23481671747449528
0.5483341600747499 -1.291958192675385 0.2600753757994964
0.5630275944036184 -1.289275350214287 0.28530563457082675
0.5776629179987197 -1.285204611425013 0.310594831267174
0.592338806817789 -1.2798064157643214 0.3360253442899836
0.6072093009934816 -1.2731650077178112 0.36165952323406625
0.6224638426315586 -1.2654156960689904 0.38753423002172444
0.6383048767621673 -1.256764591046192 0.41365972691075625
0.6549224837231818 -1.2474977307576682 0.44004867540309967
0.6724724278817824 -1.2379892860079487 0.46673680097653025
0.6910609689233808 -1.2287001543026794 0.49378551901919304
0.7107408496104319 -1.2201600525384375 0.5212531662249013
0.7314885711340142 -1.21294636257202 0.549143300762475
0.7532015062793211 -1.2076640372904648 0.5773424583679672
0.775652605384188 -1.204912305883584 0.6055034144547148
0.7984438054623163 -1.205184373378968 0.6329867435772226
0.8210550678986271 -1.2087184962031339 0.6590129389154296
0.8429724295368984 -1.2154824752320978 0.6828594703552563
0.8638150225077313 -1.2252402399813922 0.7039681983771053
0.8833505136034265 -1.237621835464766 0.7219285304527281
0.9015006659124878 -1.252165909365891 0.7364852804947474
0.9183243503272722 -1.268361535294036 0.7475711090181792
0.9340187979326288 -1.2857270137973098 0.7553317332362468
0.9488960271378517 -1.3038971705886166 0.7600737690076537
0.963330859466754 -1.322644640603918 0.762128481018732
0.9777025192838562 -1.3418594574805125 0.7617673029172116
0.9923472901872286 -1.3614582669726347 0.7591573827963816
1.0074840065781627 -1.3812616308719325 0.7543980397276837
1.0230948371097404 -1.4008945838238158 0.7476537046925984
1.0388955535421338 -1.4198329188829526 0.7393954773179171
0.2755465454852218 -0.01912463112129002 -0.01187197921748391
0.28570346485255194 -0.040383629928070555 -0.02466919949530882
0.2974783722061933 -0.06315442450809221 -0.03807252155682317
0.3096618873096405 -0.0865386195997933 -0.0516922846022901
0.3211388736387992 -0.10956299188880293 -0.06513357164237692
0.3310884587546672 -0.13157906432048477 -0.07811003678061926
0.33892062562866143 -0.15229801586865688 -0.09045315050539032
0.3442115632160138 -0.171689355814407 -0.1020738223638056
0.34667610265454774 -0.18989628551943707 -0.11292971771544426
0.3461776241726801 -0.2071900627396301 -0.12301872549334009
0.34273442946801413 -0.2239613951305877 -0.1323610831419538
0.33642653883034856 -0.24070489644395326 -0.1409306793719103
0.32732154771986705 -0.25784057256941867 -0.1485086194720878
0.31566496880725897 -0.2755350059944817 -0.15463909883264457
0.30198734038598685 -0.29379401811443223 -0.15884470071415657
0.2869000743973714 -0.31260471957346664 -0.16084339897918112
0.2707939089085171 -0.3319612510954902 -0.16048867131757896
0.2539207616065289 -0.35173660277159574 -0.15767685973826856
0.2364851198335579 -0.37166560218289696 -0.15241637123987886
0.21873338280774954 -0.3914090251613497 -0.14491814544805642
0.20073297325378253 -0.4107316785164572 -0.13556253475689603
0.18234210855492103 -0.4294962365209945 -0.12470933434616874
0.1633604791081918 -0.44766891822357385 -0.11264079340736956
0.14366606922190303 -0.46533410935604813 -0.09956470874885
0.12337679001939586 -0.48268912553967486 -0.0856574997238865
0.1030405861110475 -0.4999517279124068 -0.07117094096945634
0.0837222444860902 -0.5172097862074009 -0.05653183073345162
0.06685053273696573 -0.5343048399162156 -0.04235954763005
0.05385111276493934 -0.5507973438368953 -0.029429395835703046
0.04564967589915084 -0.566021553686968 -0.018521943457361384
0.0422571658249036 -0.5793295392883272 -0.010097062450987293
0.04291407313865939 -0.5906459453247821 -0.004024204400777371
0.04701520701137729 -0.6003955090544473 2.5060129619899477e-05
0.05435461249343562 -0.6088605943692823 0.0021696504676464784
0.06480642574377041 -0.615924766749651 0.0023106183176161543
0.07794399205367411 -0.621147289155062 0.0003407175994454648
0.09310490800953772 -0.6240372549749674 -0.0037171004115602105
0.10965941998214482 -0.6241658881618002 -0.009768653616159237
0.1271413348404248 -0.6211497734073884 -0.017688087547394524
0.14513565905727216 -0.6147468006494283 -0.02722230537186539
0.16338835257860002 -0.604974172328497 -0.03793415546274496
0.1818936438096088 -0.592068239155988 -0.04930411058778264
0.2008348154082036 -0.5764550212300585 -0.060791774356443944
0.22047030912804033 -0.5587589926746277 -0.07184107159885111
0.2410239754678628 -0.5398670129707572 -0.08186274842918315
[...]
CELL_DATA 15
SCALARS ComponentValue float 1
LOOKUP_TABLE default
-2.0
-1.5714285714285716
-1.1428571428571428
-0.7142857142857144
-0.2857142857142858
0.1428571428571428
0.5714285714285712
1.0
1.4285714285714284
1.8571428571428568
2.2857142857142856
2.7142857142857144
3.1428571428571423
3.571428571428571
4.0
