# vtk DataFile Version 2.0
3D curve data
ASCII
DATASET POLYDATA
POINTS 1785 float
-0.0010085851855010112 -0.018491344952533295 -0.013456424615329431
-0.0013061556897810329 -0.03807394261547085 -0.029508124659936016
-0.0017189657396628382 -0.05779739726774002 -0.04725424548123888
-0.0030904860256412907 -0.07684512838336556 -0.06554300476879507
-0.006082458044081541 -0.09496231229343478 -0.08356209750151886
-0.011207782467662597 -0.11222827652075286 -0.10087915429400426
-0.01888292141520533 -0.12884010202561982 -0.11724748620161561
-0.02945258376623725 -0.1450393087513492 -0.13245542503022642
-0.043141216870226956 -0.16106785327497003 -0.14624943253639555
-0.059944500034580316 -0.17714675964720705 -0.15833308660059
-0.07950916025946006 -0.19345085069484813 -0.1684086178979643
-0.10110381295094327 -0.21008828186062323 -0.17627000673831972
-0.12381891168493767 -0.22709027727463638 -0.18190717629320108
-0.14683307512192426 -0.2443074315218869 -0.18547369233925362
-0.16951802213919975 -0.2613909702681488 -0.18715830681904572
-0.19164475706952114 -0.27797433741815125 -0.18695398213549144
-0.21310441767433985 -0.2937180768917375 -0.18469501934391
-0.23394092901440097 -0.30847870339661937 -0.18025716870273323
-0.25434932926076403 -0.3223710051361386 -0.17354328803750463
-0.2745562917582017 -0.33575441662185856 -0.16447960530327455
-0.29461062693350015 -0.34913218422316133 -0.15309000123931263
-0.31420758555552697 -0.3630266478141542 -0.13966855205259865
-0.33262849894085167 -0.3778508739994652 -0.12491818399856101
-0.3488196200420604 -0.3937919075263228 -0.1099426145317227
-0.3616255070017172 -0.4107327811163474 -0.09603890998696746
-0.3701203575225415 -0.4283047650047023 -0.08434614912610486
-0.37380920173451576 -0.4461252749112489 -0.075539496912811
-0.37237925177968895 -0.46414268774609074 -0.06983050351169974
-0.365008842946757 -0.4826029832995384 -0.06744334143255133
-0.3502375161080127 -0.5012875858463683 -0.06894234916085928
-0.3263206975556219 -0.5192426178807412 -0.07514587482969202
-0.29210313990524134 -0.5346895123763805 -0.08693745665117578
-0.24805078932062413 -0.5456097403084158 -0.1045694097691702
-0.19630672433514604 -0.5504229571887805 -0.12732692692479014
-0.14036910340856337 -0.5482357651626493 -0.15388070596002376
-0.08445225118342642 -0.5391610043663798 -0.1825275112973969
-0.03243591682312976 -0.5243204961220044 -0.2113353150446374
0.013191340752663839 -0.505483555297614 -0.23849030459180195
0.051537931505471916 -0.48456089979297157 -0.2625732157925115
0.08299686290718353 -0.46333779476302983 -0.2826168320522222
0.10896723768489522 -0.443175151923191 -0.2983407498810665
0.13102525319796682 -0.42499415014819725 -0.3099540838594858
0.15048753297809525 -0.40943721919623 -0.31783056362474377
0.16839450220456897 -0.39687133391031887 -0.322415046014809
0.1856334692134099 -0.3874280584816868 -0.32416500062950276
0.20309126017288406 -0.38115354505418075 -0.32344890508819935
0.2216583115642909 -0.37830984518684746 -0.32043799206308293
0.24192405656401128 -0.3796189585430196 -0.3151360736641928
0.2637145924682985 -0.3860462924937724 -0.3076729000039447
0.2862031171101852 -0.3982874079662608 -0.29847930964327096
0.3083424212793871 -0.4164974252098006 -0.28811505322277375
0.3292055479849901 -0.44032202487644767 -0.2770840844141477
0.34806294663021403 -0.4690485958107757 -0.2657416491264868
0.3643801738262674 -0.5016418975356421 -0.2543043375895219
0.3778853620746001 -0.5368308505291355 -0.2429016032314417
0.38857264064398167 -0.5732851764495674 -0.23165108628138523
0.39663038895365677 -0.6097355363009805 -0.2207078417390728
0.40236454060439686 -0.6451072254964391 -0.2102477517191594
0.4060924576969361 -0.6786874866280038 -0.20041784056882989
0.4080534796391501 -0.7101371120437673 -0.1913474358154805
0.4085067979134182 -0.7393420705765614 -0.18318661478076087
0.4078754260204667 -0.7664154307914833 -0.17596209218260275
0.40658860110649736 -0.7917037396233318 -0.16954106480468628
0.40501770162726325 -0.8156369557894341 -0.16372033188262486
0.4034767563024914 -0.8386646609613941 -0.1582279070414027
0.40221053422383424 -0.861226714293308 -0.15274845882253688
0.40141392003345033 -0.8836842747419883 -0.14696907810612167
0.40125158877113964 -0.9062748045466904 -0.14061853599373528
0.4018737987873136 -0.9290630364391372 -0.13348724432607098
0.40342081927790774 -0.951926187904994 -0.12542166744316885
0.4060016897414021 -0.974539911180218 -0.1163163371937126
0.40966334231449547 -0.9964330173261718 -0.10611425267431669
0.4143932402282616 -1.0170985884061805 -0.09480243645883617
0.42016070856482163 -1.0361179937417917 -0.08239707493866492
0.42695402478953015 -1.0532087082382886 -0.06892978627328676
0.43478806916601836 -1.068238498924462 -0.054439542330037255
0.44368350923130506 -1.0812050822208474 -0.038955893141627264
0.45364176418445323 -1.0921869855041413 -0.022497678802353576
0.46461877950096747 -1.1013150251408768 -0.005079823549451244
0.4765143915758116 -1.108757767814448 0.013289598820916867
0.4891668923744286 -1.11470329816999 0.03260780307082645
0.5023728439763021 -1.1193202647078844 0.052862765145681286
0.5159101619968134 -1.1227242404925435 0.07400894089158454
0.5295761636628578 -1.1249667128711738 0.0959432244178754
0.5432249249376943 -1.1260295117690504 0.11850248491640296
0.5567824585081197 -1.125853662035224 0.14149525370288663
0.5702489572633586 -1.1243717640953326 0.1647427375117352
0.5836731221380086 -1.1215461615245377 0.1881071578172649
0.5971331948778306 -1.117415741915739 0.21150695409302453
0.6107218142928876 -1.1121322961053117 0.23490166572289442
0.6245212832676583 -1.105983741254752 0.25827928383765447
0.63859200787755 -1.0993709327866006 0.2816271179034905
0.6529606090499191 -1.0927675041286977 0.3049168427201429
0.6676284904020244 -1.0866556988753566 0.3280894160823178
0.6825706393818528 -1.081480174463475 0.35102555624969217
0.6977411333138194 -1.0776150579828518 0.3735414913795759
0.7130743244348903 -1.0753538739487445 0.39541126258312914
0.7285092470415042 -1.0749200176395957 0.41642354454190456
0.7440088890260029 -1.0764799723066143 0.436401412485389
0.7595689641705649 -1.0801728407365787 0.45518008739532795
0.7752026341491797 -1.0861039014546445 0.4725474568476474
0.7909129610554272 -1.094321585216297 0.4882250073041717
0.8066493516169625 -1.1047695469819085 0.501892887788381
0.822293126486499 -1.1172795323717182 0.5133016729277543
0.8376899484710604 -1.1316155424744683 0.5223766994524627
0.8526999613936395 -1.1475487517914285 0.5292154319770479
0.8672189751964482 -1.1648991347794346 0.5340251912011331
0.8811870390085146 -1.1835373129887365 0.5370644636024028
0.8945809963045211 -1.203353166207908 0.5386122542461317
0.907407057329151 -1.2242143894808029 0.5389625141072801
0.9196769272407934 -1.2459080647812024 0.5384461610210891
0.9314470631389581 -1.2681744706483637 0.537456687838549
0.9428483830649608 -1.2907862550627325 0.5364079402793965
0.9540908954165265 -1.3135741497071742 0.5357059842310601
0.9654204483510659 -1.3363671650368993 0.5357559163510879
0.9770520528406252 -1.3588835251418838 0.5369595098661333
0.9890510094198461 -1.3805826910521868 0.5396236418192164
1.0011904726329168 -1.4008202178038245 0.543808387081063
1.0131284847722295 -1.4193105366115557 0.5493821028108974
0.26715249909329086 -0.01873485852680801 -0.013306643319782367
0.2672935066872244 -0.038656322129727416 -0.02919578970650387
0.2674996306205129 -0.05880803283683686 -0.04680082423990435
0.2669456766230759 -0.07835508306762749 -0.0650205379798274
0.26497330569166894 -0.09698363029223789 -0.08305548559690436
0.26107577346864996 -0.11470755606969751 -0.10045461059388164
0.2548508408224105 -0.1316687363966381 -0.11694820273731643
0.24597478530478684 -0.14806699831435235 -0.1323200253152086
0.23422742678053818 -0.16412457553281823 -0.14634601750267076
0.21955868637723908 -0.18006801303476064 -0.15878725191050663
0.20218206786270168 -0.1960969298062759 -0.16940084093424324
0.1826225304706488 -0.2123564633073464 -0.17799603583399437
0.16159340704363118 -0.22891935856341963 -0.18451766275554882
0.13981211597556342 -0.2456948693538287 -0.18903543342358783
0.11790104992378436 -0.2624156630597506 -0.19165914279133012
0.09618057819638251 -0.2787853550454002 -0.19235923036282634
0.07485533229433777 -0.29451623416095163 -0.19098502945355345
0.05397791219937925 -0.30947087203906026 -0.1874241194611227
0.033448203323408365 -0.3237283944715775 -0.18159458873020556
0.013113700887944946 -0.33758732658604973 -0.17344142542894544
-0.007053092754424062 -0.3514829977423678 -0.1629918439662472
-0.02679150594590063 -0.3658698545115957 -0.15049674273943875
-0.045476288425099376 -0.3811028229819104 -0.13656070572594797
-0.06216019851888066 -0.397333799882107 -0.12215867344439618
-0.07575861247769022 -0.4144376821360848 -0.10848331218547476
-0.08534587038365749 -0.4320376882396502 -0.09665066479289267
-0.09038925134369397 -0.4496769222772571 -0.08740356421303658
-0.09065499719673559 -0.4671027469589643 -0.08102262687364856
-0.08573101078944795 -0.4843265033009468 -0.07762308453078307
-0.07481478016341853 -0.5012097874401873 -0.0774242745904546
-0.05667751373347202 -0.5172764877333528 -0.08086889700235468
-0.030246741970606505 -0.5313860582718906 -0.08862242356870766
0.004477075143314857 -0.5420407726059462 -0.1010191029726092
0.0461528126449981 -0.5478922918025955 -0.11769893769131885
0.09218932615832015 -0.5480377185112607 -0.13778105994767925
0.13924702376255021 -0.5423675747838426 -0.1600225076280513
0.184108981945661 -0.5316089563332709 -0.18293658852984734
0.22455176529063015 -0.5170658303422645 -0.20505857132453792
0.2595719845279483 -0.500239703065429 -0.22516483325334846
0.28921207801792786 -0.48261674828044665 -0.24234434180391093
0.31440456433409536 -0.4654140504398207 -0.2562140596010949
0.3363316396378993 -0.44952600151836347 -0.2667989252896645
0.35604312276729355 -0.43562413913653264 -0.2742854892327651
0.3744065067514074 -0.42415568593161573 -0.27894273493190286
0.39218275645373235 -0.4153741586079677 -0.2810784692813825
[...]
CELL_DATA 15
SCALARS ComponentValue float 1
LOOKUP_TABLE default
-2.0
-1.5714285714285716
-1.1428571428571428
-0.7142857142857144
-0.2857142857142858
0.1428571428571428
0.5714285714285712
1.0
1.4285714285714284
1.8571428571428568
2.2857142857142856
2.7142857142857144
3.1428571428571423
3.571428571428571
4.0
