# vtk DataFile Version 2.0
3D curve data
ASCII
DATASET POLYDATA
POINTS 595 float
-1.2932499045647414e-06 -0.010372079826979314 -0.007014437652762838
-0.0009503124003718339 -0.021281339025535344 -0.01512754086289958
-0.0028162192739939937 -0.032099995330132615 -0.02381269512203351
-0.005462381923397218 -0.04244613781591864 -0.03262003158024612
-0.008796418215856156 -0.05214497568585263 -0.0412441046283791
-0.0127972080927582 -0.06112964599205846 -0.04949394480585639
-0.017480895284836064 -0.06938824633757337 -0.05724940144743743
-0.02287145491743364 -0.07696865573338754 -0.0644493790148919
-0.02901705559710222 -0.08397893832903623 -0.07108867584331816
-0.03599750925158561 -0.0905541046598104 -0.07720570630627677
-0.043917515418498546 -0.09682561262854623 -0.08286055893597188
-0.05284345539753905 -0.1028971365626633 -0.08807819979410958
-0.0627237076680437 -0.1088597211129255 -0.09284087850406585
-0.07345486418907303 -0.1148000740609143 -0.09712403733221829
-0.08492295581126409 -0.12075015766150243 -0.10085948964805923
-0.09698379098638688 -0.12666887287534245 -0.10392525171073148
-0.10944667483441725 -0.13248007067208736 -0.1061638059209133
-0.12210759368828264 -0.13814294757097378 -0.10742950544029882
-0.13483194737644308 -0.14369007680827983 -0.10759428516895549
-0.14759209788920902 -0.14923448347774884 -0.10653180932230057
-0.16046897758512535 -0.15495356873601787 -0.1040990058098495
-0.17361120032728725 -0.1610624471323417 -0.10013316967585066
-0.18718154875894885 -0.16779147138125472 -0.09447991807112342
-0.201295518680686 -0.1753803806948322 -0.08705155470987085
-0.21592306928458205 -0.18406613047274148 -0.07790824609678072
-0.23076362169223558 -0.1940342313010092 -0.0673347181702032
-0.24516953209456724 -0.20532104114701585 -0.05588196667618299
-0.25822364283930427 -0.2176506807291818 -0.04436032347558923
-0.269205668166806 -0.23037555859108538 -0.03354363941586256
-0.27778865166425404 -0.24295644034541022 -0.02380775756235232
-0.28364177809794167 -0.2548301674739736 -0.01551050127780711
-0.28670076686171303 -0.26535178805013276 -0.008915043897052902
-0.2873268999964593 -0.2741541351533779 -0.003989621386167374
-0.2860547779206267 -0.28133640149419237 -0.00046855365677305193
-0.28321963357975494 -0.28729165033979587 0.00195308723742067
-0.2787956060857079 -0.2924155550602808 0.0034552387863058293
-0.27246477869190244 -0.29690654640916375 0.004018991190018184
-0.2638871646219902 -0.30069806770540575 0.003477465326541573
-0.2530252924542246 -0.3036024883113144 0.0016967187170286336
-0.24020035436028658 -0.30552400422662457 -0.0012717014324013726
-0.2259287724100633 -0.30652047678190336 -0.005184485114057946
-0.2107464601314812 -0.3067811473628668 -0.009682779579577477
-0.19511121919896682 -0.3065861451973046 -0.0143808423743241
-0.17939013895072792 -0.30627026590176076 -0.01893083598665561
-0.1638788075373443 -0.30618772356159063 -0.02306458263467925
-0.1488019692912148 -0.3066687921116113 -0.026619206910949357
-0.13429962563167708 -0.307977517198866 -0.029539687751652666
-0.12041370369472622 -0.31029449331479536 -0.031853102439809114
-0.10712443357826527 -0.31372853648641263 -0.033626971160957246
-0.09441348770603555 -0.318318477693843 -0.034947203480342484
-0.08228393574044167 -0.3240384109922442 -0.03590215273424883
-0.07075780772305769 -0.3308159993394745 -0.03656809721953105
-0.059867147875396286 -0.338555828608381 -0.037002627274140366
-0.04963400731658881 -0.34716263140309117 -0.037246643502184006
-0.04004838164412596 -0.35656093357668706 -0.03732994034283762
-0.03106417939618532 -0.3666887728527853 -0.037273599212890494
-0.022587604539481092 -0.37747905070367066 -0.0370903366806024
-0.01446830966718492 -0.3888638646626772 -0.036784897357577305
-0.006510214339637103 -0.4007833581128404 -0.03634766024465663
0.0015027695564405114 -0.4131950936685754 -0.035739476295345865
0.009750365861034529 -0.42607558649311056 -0.034892283465490864
0.018344330169917118 -0.4394082806732179 -0.033731940204711715
0.02732643039336714 -0.4531923413578998 -0.03218479059725731
0.03664823457765877 -0.46742740351323997 -0.030187414536670724
0.046179731572376405 -0.4820768392367862 -0.027687643687847728
0.055752104544183494 -0.4970582953274008 -0.024633316618395767
0.06519539472471418 -0.5122503755551336 -0.0209617177961885
0.07435306128093085 -0.5274875692356081 -0.016594985893798934
0.08308941434281743 -0.5425607749584785 -0.01145072078517262
0.09131026948982636 -0.5572476196551405 -0.005460509801315804
0.09898360873431616 -0.5713507743452463 0.001421331031246792
0.10614331815983535 -0.5847232416253754 0.009217911186349018
0.1128789698477838 -0.5972767161732363 0.017932200218552262
0.11931714040736371 -0.6089740261850841 0.027549157047839477
0.12559739435135553 -0.6198066520734735 0.03803272720092757
0.1318428594710457 -0.6297748634037603 0.04931806398896659
0.13813420987892097 -0.6388797406905876 0.06130864240513943
0.14450309954869514 -0.6471291176613262 0.07388505424173367
0.15094645586707328 -0.6545378620677875 0.08691612868601158
0.1574453855448507 -0.6611210042856167 0.10026825282232897
0.16398015354665496 -0.666890322381226 0.11381657534084924
0.17053839521798045 -0.6718516112418425 0.1274595454151643
0.17711702500218643 -0.6760043070183481 0.14112883082075403
0.1837208013220925 -0.6793424666103053 0.15478781141259507
0.19035701919070525 -0.6818590170181572 0.1684198066393167
0.19703710556497905 -0.6835561058431999 0.1820115420833246
0.203777735496965 -0.6844536106101613 0.19554162566253186
0.21060296567767856 -0.6845963153352488 0.20898046858080785
0.2175411790329967 -0.6840547341938983 0.22229486052972913
0.22462292984287371 -0.6829336946151949 0.235454435267116
0.23187563067486378 -0.6813776664206543 0.2484343350252456
0.23932435355106949 -0.6795628233246603 0.2612179609569976
0.24698918814939064 -0.6776915445909002 0.27379595769844334
0.2548814920451911 -0.6759720246108053 0.28617070933188193
0.2630063800675221 -0.674600520502343 0.29836105859087786
0.2713588136914239 -0.6737424059530503 0.31040007916122175
0.27992111986317514 -0.6735292053793156 0.322321633756071
0.28866245172057586 -0.6740581996922493 0.3341470090841097
0.2975339254903283 -0.6753954804490833 0.34587089488252426
0.3064770295822947 -0.6775796002870774 0.3574625135598407
0.315434229476949 -0.6806258087516293 0.368876030046369
0.32437145593302724 -0.6845405892722456 0.38007033222934894
0.33329164731714084 -0.6893447043061195 0.39101280852595827
0.34222697316270345 -0.6950890801337888 0.4016511258933296
0.35119624262232907 -0.7018362788899434 0.4118707884823722
0.36016851624324675 -0.7096240645364267 0.42150270788086974
0.3690643719529296 -0.7184536843516867 0.43037409766054746
0.377771509846503 -0.7282938282456101 0.43834868461281995
0.3861706933823554 -0.7390880662234156 0.4453511316218817
0.39415822214594115 -0.7507670496953116 0.4513740805515405
0.40166156823521754 -0.7632529690836455 0.4564511780883545
0.40865275845629084 -0.776445685805333 0.46062522869067135
0.4151562740965064 -0.790191522007569 0.4639472250535907
0.42125308082332347 -0.8042652799228945 0.46649922679742534
0.42706658878932846 -0.8183472030604283 0.4684060030984933
0.43272600001059225 -0.8319969041742907 0.46982152123786547
0.43830276996846007 -0.8446353527904972 0.47088385548743583
0.44372134536544666 -0.8556894307596943 0.47168617921314127
0.44879999321232833 -0.8648898929342936 0.4722938799600865
0.31305037885145426 -0.01134104500705528 -0.007210732079149315
0.3132103381956249 -0.023359610510705866 -0.015363995444599555
0.3128528460790732 -0.035431509268353485 -0.023994079849313878
0.31191969008999415 -0.04712678378206719 -0.032703099790850614
0.3103424414516608 -0.058218273411767774 -0.04121828888224506
0.3080202902561427 -0.06861012295217418 -0.0493690663538565
0.30483728766310864 -0.0782851410446066 -0.05704907354721182
0.3006824454688382 -0.087294075350103 -0.0642016693196954
0.29544949024482847 -0.09574171822873584 -0.07081206976557869
0.28904932516601606 -0.1037607559738382 -0.07689416119588594
0.281409764741179 -0.11149839739711248 -0.08246927778324957
0.2725151556409927 -0.11908034591434305 -0.08751180748223004
0.2624837631895713 -0.12660132782815778 -0.09194662808457921
0.2515140392710704 -0.13413670939071384 -0.09570543964734625
0.23979899761534348 -0.14171251586548178 -0.09870341360315321
0.227537866864563 -0.1492818536376254 -0.10082046755998438
0.21494745423762626 -0.15676096614000806 -0.10192758987153766
0.2022237063099674 -0.16409584432337856 -0.1019269462561483
0.18946982864172557 -0.17129665711247388 -0.10074288981333698
0.17667888493469336 -0.17844567880855894 -0.09829733789767466
0.1637536350471579 -0.1856839189184381 -0.09449179797160975
0.15056030617128424 -0.19318780198494193 -0.08921390384561172
0.13698688939073345 -0.201149271440913 -0.08237400252314765
0.12300719885607075 -0.20976828637393052 -0.07396682358792042
0.10876898698498022 -0.21923204663668677 -0.06414844332774586
0.09467422746549481 -0.2296573563273625 -0.053290156828990895
0.08138112499281988 -0.2410110407315852 -0.04197037960821328
0.06969900573411575 -0.2530160146501926 -0.030925080451388712
0.06027308248200286 -0.26512743059502747 -0.02084523680836824
0.053420965690673894 -0.2768304833593743 -0.012132858737905853
0.04929963367465867 -0.28763055871615395 -0.0050622038037624086
0.04778747310338166 -0.2970718037378945 0.00025934186744252846
0.048459476011660896 -0.3049558035518567 0.0039649497254616506
0.0508384600369331 -0.31145116537211703 0.006349145178369108
0.05470390744604048 -0.31691015183007587 0.00767720261201444
0.060161668761121334 -0.32159108981369633 0.008039400270915573
0.06746182493260605 -0.3255036057306294 0.007338423215234498
0.07673875576439435 -0.3284373512306064 0.005424218307988217
0.08782991586384031 -0.33014085775372615 0.0022601215808009576
0.10032166836697984 -0.3305079988432469 -0.001987468194485759
0.11373582075241401 -0.3296140838376409 -0.006992782208452258
0.12766206258029392 -0.3276753792199814 -0.01236064218865414
[...]
CELL_DATA 5
SCALARS ComponentValue float 1
LOOKUP_TABLE default
-2.0
-0.5
1.0
2.5
4.0
