# vtk DataFile Version 2.0
3D curve data
ASCII
DATASET POLYDATA
POINTS 1785 float
-0.0012971108767619018 -0.02742225318137821 -0.019619258027363248
-0.0012221046948662625 -0.0550694534626368 -0.04137894659258563
0.00010398437836016914 -0.08138599928263654 -0.0639520132451603
0.002523866008523978 -0.10557068175245753 -0.08648417040254346
0.005745478664947551 -0.12786333709491204 -0.1087814218562903
0.00936894938757734 -0.14872848034722766 -0.13082928176188935
0.012931986845044105 -0.16854047030689448 -0.15256144914278075
0.015802821700224918 -0.18751570304766785 -0.1737801532808227
0.017159103122571163 -0.20560159162472902 -0.19410199649483176
0.016236264279333886 -0.2225835732221636 -0.2131104030974748
0.012531041926421413 -0.23838508394014135 -0.23058870238221726
0.005699764469814787 -0.25324156986520036 -0.24656363530297007
-0.004598136212034736 -0.2675001127903423 -0.261037374758933
-0.01837589900135637 -0.2813974982305327 -0.2737636283656244
-0.035145485642902735 -0.29519721140258065 -0.2844563500079981
-0.054136576383558385 -0.3091460418972792 -0.292962649987025
-0.0745662768481668 -0.32334290925826664 -0.29919561409828443
-0.0956850073692615 -0.3376972955578427 -0.30302291686260746
-0.11690075824414402 -0.3520603270346987 -0.30432671369396236
-0.13789770076680766 -0.3663544827971046 -0.3030260081953768
-0.1587107817281215 -0.38065752984453294 -0.29905779378080427
-0.1796255953726419 -0.39517111900244156 -0.29234960947041005
-0.200997262131498 -0.4101809376047225 -0.28287284371999877
-0.22308342992879696 -0.42601979850745725 -0.27072460308410606
-0.24586722187560597 -0.4429918350372117 -0.2562054831352106
-0.2688680414735778 -0.4612533818247377 -0.2398799154522581
-0.2910655783678482 -0.4806891740387313 -0.22258117949224926
-0.31102938596279894 -0.500895214646472 -0.20530224317374124
-0.3270608088099115 -0.5210719666584727 -0.18915161050084878
-0.33782393544623995 -0.5399745028493373 -0.17502825166266095
-0.3427604421221309 -0.5563430855494568 -0.16339265367510092
-0.3425837672016284 -0.56965786692344 -0.1541057230848521
-0.3381324087495056 -0.5804731748525281 -0.14653142118756662
-0.3295086935915517 -0.589248439214539 -0.14006970459887674
-0.31648938757178696 -0.5958353785872367 -0.13448234566669942
-0.2991611720439816 -0.5996884365270664 -0.12981451599248664
-0.2782182263151568 -0.6003398807656564 -0.12623128335201586
-0.2548719666515037 -0.5978084561297377 -0.1238185176698383
-0.23005967426486493 -0.5926257558911833 -0.12248788061371131
-0.20421465762670601 -0.5853686911347813 -0.12218258800341829
-0.17799960881187815 -0.5766103230945789 -0.12269238057832252
-0.1518954297073669 -0.5669877864925025 -0.12359440020940853
-0.12612478655438497 -0.5571140469732605 -0.12447496219351731
-0.10086730533933798 -0.5476478349217744 -0.12496863819381772
-0.07630822256833199 -0.5393022014698965 -0.12478654792734897
-0.05258576466173792 -0.5327408253407516 -0.1237652681912185
-0.029771587579813356 -0.5284770393435329 -0.12188740217310956
-0.007832889693561863 -0.5268085258434136 -0.11922931866324595
0.013371117431433164 -0.5279011864899932 -0.11586636985885711
0.03395002662881196 -0.5318611661628333 -0.11184615409963966
0.05389735549740675 -0.5387252938429218 -0.107238772318091
0.07314528290230131 -0.5484655163268252 -0.10216298744815001
0.09160572075013249 -0.5610484567750618 -0.09678200653722922
0.10915361198613144 -0.5764449035444843 -0.09129364076455371
0.12558945102187646 -0.5945565501788512 -0.08593188557996319
0.1407018447924387 -0.6151389138550573 -0.08093022051133661
0.15435453781659933 -0.6379054693456289 -0.07646261236057227
0.16645504725495142 -0.6625992112759539 -0.07262232394032109
0.17691692151729918 -0.6889404206970343 -0.0694203128477294
0.185682932966524 -0.7165832195099807 -0.06679559338076424
0.19280629082230227 -0.7451057338042214 -0.06462988272091766
0.1985236695912868 -0.7740825800931806 -0.0627223416976695
0.20318146085421068 -0.8031908007445118 -0.060800107165474106
0.2071295579626294 -0.8322251578809085 -0.05859839642006723
0.2106834054864228 -0.8610741583484398 -0.05590982541393059
0.21413329170756717 -0.8897065364177043 -0.05257040838848222
0.21775398810609253 -0.9181489618134105 -0.04842164562163971
0.2217966979147787 -0.9464137987583204 -0.04328513335415794
0.2264592643121686 -0.9743901744316698 -0.03696708565615876
0.23186587908076414 -1.001801064192807 -0.029288660924715385
0.2380766133589049 -1.028218877637172 -0.020114162828344
0.24513202727899744 -1.0531507571950032 -0.009361901963318523
0.25309449558844976 -1.0761321454870079 0.0029933155424242035
0.26206420848325407 -1.0968098222176086 0.016917285836676937
0.2721562894215408 -1.1149886416415455 0.032298659282595954
0.2834668645842487 -1.1306772753234553 0.0489479200797231
0.2960678604993633 -1.1440753265562702 0.0666622788369308
0.31000416736201925 -1.1554770975866664 0.08528489425420918
0.32525156832148255 -1.16518193381043 0.10471399056733623
0.341688640495066 -1.1734316111628513 0.12491000319062381
0.359113231272459 -1.180389007798772 0.14590353097755085
0.37727804653684455 -1.1860995090794677 0.16777871629177338
0.39593764290493044 -1.190487618520432 0.1906289981770941
0.41489399065585386 -1.1933785390850502 0.21449801586408937
0.43401081160764843 -1.194566897616435 0.23932178633776316
0.4532265243262256 -1.1938936272823861 0.2649086194200782
0.4725675094589759 -1.1913210936316203 0.2909746889848369
0.4921254780349272 -1.1869681348995775 0.3172113726982146
0.5120112425440433 -1.181116570747465 0.3433352308478191
0.5323180468408737 -1.1741958210218975 0.3691251421584068
0.5530804489526069 -1.166740272147057 0.39443708146453704
0.5742645155946584 -1.1593226942372528 0.4192029308437241
0.5957793359077964 -1.1524755078759636 0.44339971143287066
0.6174640344065614 -1.1466076164018655 0.46701565021243335
0.6391026850846528 -1.141968305564201 0.49002354474654647
0.6604309073018148 -1.1386407392957303 0.512378339464593
0.681167800139198 -1.1365745086208179 0.5340330615784302
0.7010862227584813 -1.135646366059738 0.5549632805216099
0.7200749804424427 -1.1357281118541087 0.5751907802015563
0.7381821332411035 -1.1367385489685666 0.5947661982548815
0.7555927007571113 -1.138680353002249 0.61371211864738
0.7725570803289111 -1.1416409322987449 0.6319644046821791
0.7892889815115663 -1.145753637308323 0.6493522680097661
0.8059038019119471 -1.1511582741192163 0.6656460389007195
0.8224392457759893 -1.1579919092567543 0.6806813717678898
0.8389178211742444 -1.1664022857622887 0.6943868394145395
0.8553602542686481 -1.1765574545497426 0.7067236289895193
0.8717448771199584 -1.1886287653452017 0.7176216286767583
0.887982616979112 -1.2027489977931807 0.7269809140505017
0.9039525406830989 -1.2190030358477097 0.7347171131881514
0.919538313697552 -1.237444045653881 0.740798558290546
0.9346560844550397 -1.2580608254276084 0.7452550645466249
0.9492802782108413 -1.2807285953887046 0.7482185422356552
0.9634473225096903 -1.3051314878397737 0.749965425452675
0.977234498634934 -1.3307337790394274 0.7509172317292554
0.9907318185997069 -1.3567913935676186 0.7516034474566514
1.0039913858945082 -1.3823949148979668 0.7525685193255224
1.016930455859568 -1.406519623711437 0.75422947391799
1.0292635430285977 -1.4282414448404006 0.7566639970712913
0.26698859295232324 -0.026251832261974403 -0.018413201237910966
0.26753974504456324 -0.05298749565118779 -0.03903288704343409
0.2693323900331316 -0.07874632671463877 -0.0606499097965086
0.2721372659510748 -0.10271182781712106 -0.08243430104368858
0.2756210555638932 -0.1249897589219807 -0.10412514696450599
0.27936322525963275 -0.14592215577823675 -0.12563636275413617
0.28288652908903095 -0.16579904056983033 -0.14685167371168237
0.2855690371913769 -0.18478540508323524 -0.1675476584801515
0.28663672348711083 -0.20282618715609113 -0.18734892547177376
0.28538374495240865 -0.21974350466230624 -0.20586285549094654
0.2813480658836878 -0.23549649562699207 -0.22288101039349176
0.27421705455117035 -0.2503306160541946 -0.23841567726223567
0.2636897368569696 -0.2645954039003471 -0.2524587329144866
0.24977282992759023 -0.2785423660300139 -0.2647786651790496
0.23294033235687772 -0.2924387772886947 -0.27510266451183985
0.21393954110072178 -0.3065280023980426 -0.28328081530193755
0.19352612230267968 -0.32091510657022915 -0.2892291228351381
0.17241867673562625 -0.3355221131365423 -0.2928217675742204
0.1511879523795281 -0.3502070998970768 -0.2939459733666628
0.1301523463431172 -0.36488596740193663 -0.29252447565271467
0.10930864738744706 -0.37961409920298245 -0.28850131430355797
0.08842557861694073 -0.39455808003173704 -0.2818193885576511
0.06721401202610888 -0.40995849422796315 -0.2724723890001524
0.04548396576806385 -0.4260932359729495 -0.26057996841277364
0.02330549204662563 -0.44320544366534187 -0.24645798743469455
0.0011677337961989998 -0.4613985158518643 -0.23066946210364248
-0.0199697792658054 -0.4805339904234118 -0.21402125406269848
-0.0388009150954845 -0.5002221875080731 -0.19745950775599336
-0.053803195541869964 -0.5197246354667925 -0.18202630938062958
-0.06380356115032387 -0.5379107789584712 -0.1685667437786112
-0.0683506882296675 -0.553655454545818 -0.15750883308325514
-0.06811746176907357 -0.5665076765243874 -0.14872417572897645
-0.06388236459035346 -0.5769808585327664 -0.1416353306199696
-0.05577128689410571 -0.5855245048802912 -0.1356944637029182
-0.04359186996648379 -0.5920657783577645 -0.13067340490817414
-0.027375818304326338 -0.5961623292515199 -0.12660314203722564
-0.007663887871934949 -0.5973912341142064 -0.1236316745986861
0.014525953554751336 -0.5957059828923491 -0.12184207246286421
0.038346896834345584 -0.591500676604375 -0.121159189253404
0.0633296512412902 -0.5852492857778994 -0.12151782644402871
0.08878918803857488 -0.5774679352691201 -0.12269682794876967
0.11421996368783877 -0.568762745783906 -0.12428154431665757
0.1393725391154791 -0.559733784008302 -0.1258662617747821
0.16406096383608726 -0.5510208609002503 -0.12709032547495105
0.18811438206014391 -0.5433064606372745 -0.12766448500994942
[...]
CELL_DATA 15
SCALARS ComponentValue float 1
LOOKUP_TABLE default
-2.0
-1.5714285714285716
-1.1428571428571428
-0.7142857142857144
-0.2857142857142858
0.1428571428571428
0.5714285714285712
1.0
1.4285714285714284
1.8571428571428568
2.2857142857142856
2.7142857142857144
3.1428571428571423
3.571428571428571
4.0
