# vtk DataFile Version 2.0
3D curve data
ASCII
DATASET POLYDATA
POINTS 1785 float
0.005120502838236745 -0.010394267127976224 -0.009045800641354013
0.010824339432036556 -0.022359613690924544 -0.019471222864634177
0.016779995839338015 -0.035627360571075 -0.030917018599067536
0.022522881630198614 -0.04973856104598822 -0.0430149089209062
0.027764034960040398 -0.06411380485618925 -0.05544380547885254
0.03241112470437331 -0.07837191538873928 -0.06802431040326666
0.03637797511941733 -0.09230968040427641 -0.08066429642630728
0.03949632614355065 -0.1058174419956685 -0.0932904608883906
0.0414949650127738 -0.11884127207958076 -0.10578832740014885
0.042050278217462954 -0.13136315492745043 -0.11795507800407036
0.040919568193547404 -0.1433888870671032 -0.12951419962534774
0.03805445737349083 -0.15502380866609392 -0.14023813822830852
0.033497807668520965 -0.16652193841975774 -0.15001827091798586
0.027266627917034002 -0.1781947071767928 -0.15878494880542215
0.01943388244395634 -0.19027945170885127 -0.1663379334299131
0.010305463133514579 -0.20301262870702333 -0.17258172425602564
7.09417013322524e-05 -0.21665760422561073 -0.17752096193853453
-0.011054327640489822 -0.23124543863801 -0.18102302309656476
-0.02281775487085147 -0.24665700507643304 -0.18297677835283316
-0.03502221716467169 -0.2627030921916387 -0.18332697702403214
-0.04755602043052587 -0.27920473676181484 -0.18205931526232358
-0.06034793471804475 -0.2960126913834613 -0.17916834047517494
-0.07326929822075116 -0.3129727784801377 -0.1746814914971489
-0.08607849598797777 -0.32989329665074085 -0.16871885547345852
-0.09842581444121437 -0.3465637167162447 -0.16150571546961176
-0.1098686918043445 -0.36281322841934394 -0.15332261685306298
-0.11981830065927021 -0.37853393948880926 -0.14448993366069254
-0.1274675584538183 -0.3935586719380999 -0.13544527063197467
-0.13192916330033527 -0.4074865696045398 -0.12678122187403854
-0.1326454233044747 -0.4197280149117567 -0.11909585298746098
-0.12964531473830368 -0.4298395954425449 -0.11269924786982825
-0.12333198349708732 -0.4378813781577013 -0.10746252899817152
-0.11375640031747139 -0.4441748934089184 -0.10314511766138067
-0.100782607402759 -0.44871950934642973 -0.09967427300556744
-0.08447346626103905 -0.4513620789178124 -0.09710055426363239
-0.06536294782443379 -0.4520443299867545 -0.09549900529383414
-0.04446732158554391 -0.4510245364695467 -0.09474329474925743
-0.022808183013599406 -0.44884581437041743 -0.0945383980728022
-0.0014686068237284005 -0.44620350567016587 -0.09459427883981948
0.018736873404693273 -0.4439271459505298 -0.0945640874335866
0.03798946569014929 -0.4426633941465805 -0.09423628957948389
0.05681279366185907 -0.4427917023951325 -0.09353497939271636
0.07571847683608399 -0.44466140339293325 -0.09236521093988317
0.09516214244780519 -0.4486637457452783 -0.09062807965245974
0.11544881564948817 -0.45525137332224896 -0.08823532029614373
0.13665648460913554 -0.46491879659076396 -0.08512543351373583
0.15857986363209023 -0.4781487221523988 -0.08131634418820288
0.18078665514753983 -0.49532282304371344 -0.07694286812251575
0.2028226888538781 -0.5167951774302095 -0.07217882144098185
0.22415885843036093 -0.5428829352364264 -0.06719404622829103
0.24413277664921906 -0.5735802620725075 -0.06221937950726587
0.26213014856632877 -0.608385888008663 -0.05755573587261416
0.2777581443362064 -0.6463867428684382 -0.053503517483810215
0.2909240905082465 -0.6864307224951921 -0.0502868203093071
0.3018452367152467 -0.7273522995330223 -0.04799872694282904
0.31095655255246496 -0.7681073581552124 -0.046598802142600884
0.31881350847914686 -0.807701412092837 -0.04593180930946991
0.32609451467447126 -0.8451946197350878 -0.04574279302191178
0.333585638297588 -0.8798854451217765 -0.045692569954857626
0.34209927218982406 -0.9115198289620395 -0.04536272582334258
0.35231711833825674 -0.9403739424300215 -0.04427097094605527
0.364653824609773 -0.9670154274575492 -0.041982401445277345
0.37932668855046314 -0.9920009998411212 -0.0381368362617801
0.3963537707864837 -1.0157367883757544 -0.03240932165379682
0.4154896621447027 -1.038416288183172 -0.024544207332522806
0.43622358833140895 -1.0600262380153935 -0.014381323497188493
0.45783255515923293 -1.0804105233651093 -0.001858989160911839
0.4794971318032949 -1.0993430588911821 0.012990135520882483
0.5004458085175829 -1.1166079340715815 0.030062805501725527
0.5200755588295277 -1.1320497666715796 0.04922828572095757
0.5380052361143963 -1.1455630738162046 0.07035721171882256
0.5540754418842371 -1.1570803170784927 0.09331518081558102
0.5683226032657708 -1.1665583179250747 0.11793007169767741
0.5809519291893708 -1.1739824393862177 0.1439535270350233
0.5923096960943746 -1.1793765298357979 0.171055310677512
0.6028415532157515 -1.182801898957687 0.19885349470616936
0.6130206417763391 -1.1843421483900853 0.2269576143963388
0.6232620857173832 -1.184098540544569 0.25500785877815
0.6338614261870703 -1.1821970974571843 0.28270487475261447
0.6449691795534682 -1.1787926344164665 0.3098070007616283
0.6565916868160936 -1.1740906973284975 0.3361104581999925
0.6686239119368633 -1.1683541835592708 0.3614289644651013
0.6808773396808242 -1.1619046333736165 0.3855972464026853
0.6931322168749281 -1.1551017185731292 0.4084937768991498
0.7051977597588327 -1.14830616186172 0.43007772863116767
0.7169646761262576 -1.1418181936114182 0.4504149150145895
0.7284377576236638 -1.1358211717111477 0.4696822227014958
0.7397148937696034 -1.130366134509976 0.4881139681296184
0.7509382906825175 -1.1254020002880492 0.5059281433296594
0.7622492676135778 -1.120830215248731 0.5232845201674494
0.7737616271312259 -1.1165505629460553 0.5402819032137794
0.7855512589954055 -1.1125142062563678 0.5569738802504064
0.7976536539839041 -1.1087544806568688 0.5733734541086163
0.8100634448347488 -1.1054047166308987 0.589456683081596
0.8227518380895593 -1.1026920424810973 0.6051680511329908
0.8356693754722956 -1.100899584432631 0.6204328257632342
0.8487543338083253 -1.1003313641952608 0.6351566158140588
0.8619394691138248 -1.101271958799093 0.6492378899677692
0.8751511197706989 -1.1039608968645496 0.6625678297929755
0.8883316403664556 -1.1085783976865151 0.6750440618972298
0.9014450793923107 -1.1152429038470353 0.6865570150230217
0.9144814573182167 -1.1240112559278836 0.6969757570195136
0.9274424099696885 -1.1348755521219434 0.7061422915905005
0.9403293774442513 -1.1477509046298855 0.7138850827113802
0.95314868933682 -1.1625118881472074 0.7200720075071516
0.965914816431619 -1.1790107930878577 0.7246198174034089
0.9786295612345609 -1.19707290307629 0.7275058052051969
0.9912443692071661 -1.2164381480595143 0.7288002226174694
1.00365796354568 -1.2367220774003882 0.7287159868788391
1.0157590075004632 -1.2574316794746707 0.7276184209325253
1.0274656028610267 -1.2780416172299727 0.7259510786979434
1.0387443703899832 -1.29807248939561 0.7241126373273725
1.0495892143859105 -1.3171809792935716 0.722386188422598
1.0600309149811586 -1.3352459528622762 0.7209013104553383
1.0701493812865575 -1.3523571269013768 0.7196500669849326
1.0800162199513792 -1.3686518522718518 0.7185510146327538
1.0895707823438678 -1.3840949493641361 0.7175174873927666
1.0985135232779273 -1.398407006621257 0.7164920330407015
1.106394534534254 -1.4112134587869987 0.7154439455504568
0.27264719371441926 -0.011413842279217901 -0.009416908102064882
0.27815162480950023 -0.024484148005835808 -0.02036629397555233
0.2840223558266537 -0.038868085268162086 -0.03245795304213416
0.2897687163666042 -0.05405130549572663 -0.04528242881932202
0.2950605622883459 -0.06943131465171413 -0.05848065807776987
0.2997520553278718 -0.08461699062273648 -0.07183824337534646
0.3037043687065812 -0.09939872282952161 -0.08523019224173044
0.3067057184443725 -0.11366118296718962 -0.09855143534499351
0.3084573189948059 -0.12734747723436124 -0.11166154051660021
0.3086256133476111 -0.14044351326078433 -0.12434583986593456
0.3069689349643189 -0.1529697616434834 -0.1363332200283887
0.3034373374996299 -0.16505067221295333 -0.14740779573259002
0.2980734017471283 -0.176952856767085 -0.15746465098174553
0.290910735472249 -0.18899808989499253 -0.1664316817143829
0.28205186647597674 -0.20144052756519906 -0.17411560890416372
0.27183058698783125 -0.2145197489776549 -0.18041749120588033
0.2604718094290259 -0.22848813913337992 -0.1853326532522963
0.24822197610800545 -0.243373766441652 -0.18873046790328213
0.23535569467636402 -0.2590586569542539 -0.19050124391950005
0.22208641653862438 -0.2753599041306345 -0.1905898074189734
0.20853480845131547 -0.2921084854445253 -0.1889820979021449
0.1947751055116153 -0.3091645389821134 -0.18567539769546287
0.18093472132963134 -0.32638384370169016 -0.18070465543605946
0.1672538014490127 -0.3435861222214506 -0.17420174401481975
0.15408619552104127 -0.3605686957129897 -0.16641075243935805
0.14188481896126726 -0.3771578924935834 -0.1576428394972755
0.13124520375442836 -0.393230413140509 -0.14825800820474555
0.122965271707275 -0.4086027894711876 -0.13872857234926247
0.11791345062894656 -0.4228640195696972 -0.1296701381772562
0.11662467141009986 -0.4354102201250548 -0.12169353947049329
0.11902710393201066 -0.44577973984496944 -0.11511745554593511
0.12463549525091286 -0.4540430801629337 -0.10980928812043278
0.13332000328135252 -0.4605935072211008 -0.1054927452353506
0.14523086609552943 -0.46552099148383586 -0.10205252933066893
0.16039914578707953 -0.46870951383342785 -0.09951937542557544
0.1784383314887655 -0.47007003388240315 -0.09797128716280157
0.19850280752908828 -0.4697630733258992 -0.0973204503790833
0.2196742434310316 -0.46820460726192487 -0.0973221429641373
0.24091498629138963 -0.4659761548445487 -0.09771037826535035
0.2613759945150524 -0.46382905833500226 -0.09814384692764515
0.28107915397133254 -0.4624002058884453 -0.09839098706528328
0.3003868168972551 -0.46209419263111734 -0.09834684312586127
0.31968690686546497 -0.4632677922955738 -0.09790169380944093
0.33934579753142957 -0.46628832046955704 -0.09695302216467133
0.3596243380368803 -0.4715602194277313 -0.09541269260800059
[...]
CELL_DATA 15
SCALARS ComponentValue float 1
LOOKUP_TABLE default
-2.0
-1.5714285714285716
-1.1428571428571428
-0.7142857142857144
-0.2857142857142858
0.1428571428571428
0.5714285714285712
1.0
1.4285714285714284
1.8571428571428568
2.2857142857142856
2.7142857142857144
3.1428571428571423
3.571428571428571
4.0
