# vtk DataFile Version 2.0
3D curve data
ASCII
DATASET POLYDATA
POINTS 1785 float
0.004153466292457112 -0.015900545768218546 -0.00979812026029284
0.011019322698114002 -0.03447379689902366 -0.021628412232315024
0.02054856430019951 -0.055684497066159334 -0.035458366863752686
0.03217190570765767 -0.07948321281313536 -0.051315554514193236
0.04497897349810505 -0.10520607399303904 -0.06901734715437448
0.058120034399090685 -0.13210520999214875 -0.08829854510518721
0.0707683360469609 -0.1595276677100529 -0.10881173261356365
0.08202242613960986 -0.1868365737912803 -0.13006002280182477
0.09091186199636583 -0.21331921669219733 -0.1513516763821963
0.09662094325849148 -0.2382328241618393 -0.17185524750739073
0.09879383601442451 -0.26107100420338764 -0.1907845399161188
0.09755230930865195 -0.28180345381551586 -0.20759826040686782
0.09326971365324199 -0.30078291505352933 -0.22206884954520215
0.08635850322606566 -0.31855639106815814 -0.23420139338795362
0.0771967590503022 -0.3357338333357681 -0.24407718392082006
0.06608392781670204 -0.35296005599887403 -0.25182307725055997
0.05316547516009418 -0.37079130872310967 -0.2574728716653918
0.03869427937520264 -0.38952066342873626 -0.2609083355431525
0.023034867012791383 -0.4092540436281362 -0.2620724158595757
0.006620324037017533 -0.4298724344609999 -0.26100663390411244
-0.010114283660877538 -0.45107275523005386 -0.25786174670801415
-0.026696018418916855 -0.4723824327333372 -0.2528552582792595
-0.042549372360541654 -0.49326036032906323 -0.24630564431028412
-0.057000284836013486 -0.513189780158334 -0.2386587974559445
-0.06935259502306786 -0.5316950556117714 -0.2304776868727329
-0.0790814859717633 -0.548372174716705 -0.22235022764021398
-0.08604627977561914 -0.5629555691776382 -0.2147419218538222
-0.09052751039372384 -0.5754184371271497 -0.20784986988289408
-0.09292903227833975 -0.5861339702351495 -0.20155945489215962
-0.09315670201543501 -0.5956246718391736 -0.19592881969499754
-0.09108988932177188 -0.6038003676407379 -0.19133255391904902
-0.08703268772182973 -0.6107587905193337 -0.18776085788753
-0.08105931890610711 -0.6169469486928018 -0.1850607183976495
-0.07284980953683876 -0.6227363503994541 -0.18321629586481664
-0.06195359587933286 -0.6281867724110706 -0.18238443639947
-0.048270281155266104 -0.6330766786017066 -0.18276916573633034
-0.032336526279360955 -0.6370720166188459 -0.18444059367238946
-0.015487299293234854 -0.6399173297052602 -0.18710936293887168
0.00079645074664582 -0.641627512492601 -0.19014544501067726
0.015586763818624564 -0.6423893499841998 -0.19297149224707766
0.028644228919526775 -0.642464226793002 -0.19524820463415274
0.040191228359884666 -0.6421284662934813 -0.1968340941095701
0.05064096536998503 -0.6416270538447628 -0.19768729893104928
0.06045209916003558 -0.6411633252047597 -0.19781104368969288
0.07006030003448507 -0.6409336587195791 -0.19722904792676987
0.07980634481420237 -0.6411798687416793 -0.19597657943354665
0.08986154858047114 -0.6422011299109169 -0.1941187948350653
0.10023002052020659 -0.6442909203134792 -0.1917528859966371
0.11080721501143785 -0.6476843896094787 -0.18899013064753292
0.12148512750218296 -0.6525658038109335 -0.18593711792189868
0.132224780497102 -0.6591317909659044 -0.18266926835091105
0.14303587948543478 -0.6676471727825357 -0.1792169066272498
0.15390293841747213 -0.6784445070434911 -0.17556142986299025
0.1646995231083596 -0.6918533701628913 -0.17164722556201487
0.17511391523173847 -0.708023240489619 -0.1674097506600835
0.18472236297571643 -0.7267806776205021 -0.16276932965572902
0.1931478407689413 -0.7477734066286261 -0.15760542198613411
0.2000736901669257 -0.7706493813676647 -0.15177905105072534
0.2052361481931631 -0.7950773981718451 -0.14518260516207362
0.20845662003967924 -0.8207181491052874 -0.1377858861145267
0.20971803697376118 -0.8471651996236708 -0.129657036717063
0.20923278463538283 -0.8739277535850153 -0.1209101313361254
0.20738962511991013 -0.9004640324008155 -0.1116721217148714
0.20468996281427157 -0.926203654179415 -0.10209035938293111
0.20168645699683033 -0.9506609015431551 -0.09230008357373172
0.19889331758906717 -0.9735445693479133 -0.08237788563589338
0.19672458652307084 -0.9947456573431943 -0.07230872574885984
0.19547513376326733 -1.0142760633831014 -0.06199544365947708
0.19534447999084661 -1.0322089443318192 -0.05129168777934052
0.1964720631260069 -1.0486252235104092 -0.04002474224917749
0.19896446003223767 -1.0635691547451573 -0.02801369884793648
0.20291248795996383 -1.0770146538615992 -0.015090867860541392
0.20839827207192263 -1.0888726816172236 -0.0011135462642640939
0.21549345835409378 -1.0990083538181639 0.014024674078958068
0.22423991921221947 -1.107271145982593 0.030381740964052113
0.23461519434538897 -1.1135444545244775 0.04795330675594854
0.24651966766869035 -1.117781975592638 0.06668223085977579
0.2597731889118432 -1.1200138448703465 0.08646812419155987
0.2741023763367025 -1.120337562828415 0.1071768560335702
0.28914619523665247 -1.118917661289633 0.12866094007864495
0.3045067815177645 -1.1159857784828704 0.15079666823628152
0.31982575560733245 -1.1118115797385906 0.1734958933677141
0.33484493968026896 -1.1066765546022244 0.1966892683953403
0.34943842436090883 -1.1008471511484794 0.2203012480842625
0.36362091250732254 -1.0945708778391572 0.24422725159784964
0.37751611335079893 -1.0880561490573002 0.2683245883071924
0.3913292104587253 -1.081460932433601 0.2924429217270419
0.4052847690281031 -1.0748938423608307 0.3164538194926777
0.41957940306757735 -1.0684418262086426 0.3402765881884765
0.4343557288099238 -1.0621881949688747 0.3638875332766984
0.4497068267151788 -1.0562223418155505 0.38731220663961435
0.4656660355360925 -1.0506607612600791 0.4105949894447033
0.48220923300148294 -1.0456394558459154 0.43377268388264884
0.49924915388945074 -1.0413329033964134 0.45683455551205926
0.5166302093780183 -1.0379616032506966 0.47968961123131015
0.534141149711261 -1.0358040317612704 0.5021550227389278
0.5515349429438263 -1.0351858413697927 0.5239646349319735
0.5685638968819021 -1.0364485206990663 0.5448086443631504
0.5850277885800615 -1.039893027636563 0.5643594480435926
0.60079903266175 -1.0457275783189897 0.5822942027553262
0.615834103246171 -1.0540243806889884 0.5982973203473531
0.6301534591426227 -1.0647086038769837 0.6120661270152462
0.6438007387624288 -1.077566293905207 0.6233373068254858
0.6568119149088981 -1.0922770263389623 0.631959012178454
0.6692565037264214 -1.1085278603437427 0.637990085247239
0.6812883144479065 -1.126123754984258 0.6416438960061498
0.6931252153098745 -1.1449881519947795 0.6431581443639706
0.7049862115880156 -1.1650576063292941 0.6427421456586208
0.7170477031421757 -1.1862084779140982 0.640595403040399
0.7294229323578075 -1.2081862648262593 0.6369522287596644
0.7421485409820904 -1.2306289377409232 0.6321326477235281
0.7551917589924736 -1.2531564214426008 0.62653597776675
0.7684645098104737 -1.2755215550209156 0.6205425104561842
0.7818494644766147 -1.2977087972921897 0.614383809516545
0.7952372618228067 -1.3199574200205282 0.6080891583231712
0.8085121015413391 -1.3426728965382682 0.601583130418783
0.821479110248464 -1.3662914985800292 0.5948183366929726
0.8338505985699217 -1.3910328896008317 0.5878624884108283
0.8453101519819738 -1.4167197374272409 0.5807977829221624
0.27166691049147623 -0.016491269274866407 -0.01013354416242839
0.2780573882608115 -0.03555696041937011 -0.02236308212808769
0.2869105578245873 -0.05703901318369083 -0.036587746810429055
0.29762859506383454 -0.08076939522843034 -0.05274564964185779
0.3093319346300422 -0.10607485707392866 -0.07059448668593565
0.3212045927156637 -0.13224862352846348 -0.08983286294113658
0.3324530945816366 -0.15869177198131096 -0.1100974917844253
0.3422269378249485 -0.18483467495957687 -0.1309004163286255
0.3496352409646595 -0.2100599121056515 -0.15159327080845508
0.3539455506513354 -0.23374495265733453 -0.1714218416207739
0.35484469220479525 -0.25548884271316835 -0.18968976990683575
0.35244360426469096 -0.27531570737995154 -0.20592992159679546
0.3470721199081615 -0.2935866473645226 -0.21994973680010746
0.33910113869763925 -0.310830078922335 -0.23174810750847122
0.32888672277153275 -0.3276202562564339 -0.24137629615287504
0.31673793422123314 -0.3445444809750212 -0.24892160597448784
0.30283566231551745 -0.36209859607693423 -0.25439389384147576
0.2874631639513855 -0.3805285539316434 -0.25766936085792846
0.27099955018026295 -0.3999046311889992 -0.2586828922884986
0.25387210556280715 -0.42010245100268234 -0.2574630271072758
0.23648967470863547 -0.4408478157535708 -0.25413964354728136
0.21928074009643436 -0.46172627968748486 -0.24890607850338128
0.20276467949637772 -0.48226438035082897 -0.2420554639833396
0.18756220919253203 -0.5020039243470454 -0.234011014507985
0.17433801220808504 -0.5205111828404079 -0.2253223224716699
0.16362922812550795 -0.5374017129592694 -0.21658325329903813
0.1556429774328203 -0.5524020080646512 -0.20829120615510846
0.15020206876886916 -0.5654446933739473 -0.20070074507341046
0.1469964581967421 -0.5768086935182095 -0.1937785995654988
0.14612919658773613 -0.586885887364176 -0.18764253953798024
0.1476779676944256 -0.5955389752364731 -0.1826621351840531
0.15129282164257804 -0.6028678072534402 -0.1788050477365153
0.1568591993808821 -0.6093379453116775 -0.17588246628312712
0.16466971685463894 -0.6153311179243065 -0.17384012774966967
0.17515973406147428 -0.6209157887906263 -0.1728027010068007
0.1884669479174571 -0.6258852704505831 -0.1729592592803812
0.20416039986366186 -0.6299145265792904 -0.17439827441204755
0.22106761206921438 -0.632738628134085 -0.17689628480856937
0.23781853027009792 -0.6343440524935302 -0.17990624302635655
0.25347043976605277 -0.6349001888718033 -0.1828870953924131
0.26767697055772405 -0.6346747890983725 -0.18547628853277112
0.28054188799462826 -0.6339678558179386 -0.18748158727909123
0.29238362757699743 -0.6330550527891876 -0.18881308082423814
0.30359177305249385 -0.6321715355730897 -0.18943974609023995
0.3145562210723191 -0.6315415780482592 -0.1893671682941881
[...]
CELL_DATA 15
SCALARS ComponentValue float 1
LOOKUP_TABLE default
-2.0
-1.5714285714285716
-1.1428571428571428
-0.7142857142857144
-0.2857142857142858
0.1428571428571428
0.5714285714285712
1.0
1.4285714285714284
1.8571428571428568
2.2857142857142856
2.7142857142857144
3.1428571428571423
3.571428571428571
4.0
