# vtk DataFile Version 2.0
3D curve data
ASCII
DATASET POLYDATA
POINTS 1785 float
0.00037643562113699627 -0.01805637228164562 -0.012261749718988997
0.003970073917769542 -0.03732039853276063 -0.026745272216756762
0.010236561836807823 -0.05717228952347331 -0.04309602421410566
0.018402513169824986 -0.07722013351407019 -0.06088786604521389
0.027606887778405285 -0.09712974200953313 -0.07971269905512729
0.036958891428364914 -0.11657243817204177 -0.0991982509188032
0.0455431401400274 -0.13522649966163205 -0.1189945258919003
0.05240381468073684 -0.15278136330577086 -0.13875582920463964
0.056592079706783524 -0.16894388010755354 -0.15812351310051206
0.05733109922395951 -0.1835226787469927 -0.1767784568336939
0.054155716105440364 -0.19652688439390278 -0.19455803107857647
0.04683808031683308 -0.20823383810031681 -0.21154634278523907
0.035168025321877745 -0.21910704943027884 -0.22785022190078463
0.019049772649985107 -0.2296804877979401 -0.2432339432780106
-0.0010467300028393343 -0.24038974056721263 -0.25686937637383783
-0.0235426883467354 -0.25156370493997476 -0.26803954217303
-0.04682478094755532 -0.26357613932275875 -0.2765741923566508
-0.06972420423513069 -0.2765849616671825 -0.2824219600771963
-0.0915905583506804 -0.2905232963713988 -0.28555007230119317
-0.11233621166864158 -0.3052387094320793 -0.285934222583515
-0.13223478535901043 -0.32053938512196617 -0.28351752188412693
-0.15180046182224435 -0.3362878709895369 -0.27823961277936476
-0.1717404702847684 -0.35245320196709706 -0.2699981579592195
-0.19285699039279344 -0.3691261958627164 -0.2586110590349223
-0.2159106268226936 -0.3865467851201341 -0.2438302126108766
-0.24140269490946756 -0.4051235311181881 -0.22539521913563393
-0.2691695889442555 -0.42534058015531073 -0.20318126688566904
-0.29793497235495797 -0.44742242421591316 -0.17756433085272771
-0.3256056659141332 -0.4711667052064929 -0.14951145850193648
-0.3496878969374771 -0.49612823146472934 -0.12060225294322471
-0.3680135783543762 -0.5215384254728096 -0.09287272769551362
-0.37894312458241897 -0.5462285374226931 -0.06830026236630383
-0.38207863969455974 -0.5688872837276385 -0.04798038850737465
-0.3780770892602984 -0.5888514692116565 -0.03206220684010658
-0.3679124353326611 -0.6060476584537432 -0.020168186328733084
-0.3521700284937076 -0.6206780983289761 -0.011847179712572781
-0.3311318031205267 -0.6326212921900467 -0.007029269222859189
-0.3055052165378295 -0.6413246475149547 -0.0058552370243145895
-0.2763444784088785 -0.6462702064520359 -0.00829246459747327
-0.24480773944178233 -0.647182630110374 -0.014165726080708924
-0.2122745442038573 -0.6441606256667275 -0.02305127612646935
-0.17988546721732462 -0.6376498024437012 -0.034332105197867405
-0.14830415962983456 -0.6281959761732034 -0.04736208132251822
-0.11778749244394704 -0.6163898261929158 -0.06143173316539409
-0.08834428144553336 -0.6029815904957865 -0.07571502960178882
-0.05992991142548349 -0.5889337587477994 -0.08931767766268042
-0.03257875294901052 -0.575334908072634 -0.10141789692061463
-0.0063843429747557755 -0.5631658564388128 -0.11144680773389427
0.018641650154799447 -0.5531070932749889 -0.11917387058281793
0.04262072228104839 -0.5455105382737928 -0.12465369363535081
0.06584107838732622 -0.5404955534022622 -0.1281097975066571
0.0887065920861221 -0.5381344931212503 -0.12978701512609292
0.1116063699808288 -0.5385989159615763 -0.12987462913347678
0.13476527866739843 -0.5421751157210479 -0.12851859886219538
0.15812454194309455 -0.5491523462895548 -0.12588262982285425
0.1813524337090274 -0.5596630004048263 -0.12217794668980851
0.20395510986228785 -0.5736017203788654 -0.11765162136354884
0.22540290135876695 -0.5906497045340147 -0.11258200737110081
0.24520102431410595 -0.610355793719561 -0.10726487564841314
0.26294533693055216 -0.632189214961963 -0.1019662419801824
0.2783960042164482 -0.6555907297821618 -0.0968548449769636
0.2915109916515657 -0.6800797897341715 -0.09193108703412707
0.30234319876618226 -0.7053065912862975 -0.08703473678684599
0.31095785103056084 -0.7310480019764768 -0.08192889288587914
0.31743440249118393 -0.7571724578578404 -0.07637056533518317
0.3219128503309708 -0.7836375307819952 -0.07012041607824653
0.32461604598516114 -0.8104663050642125 -0.06292353771407769
0.325861949359724 -0.8376674360129321 -0.05450181265160946
0.3260629949918152 -0.8651178165333213 -0.04458150092259703
0.32571140991609865 -0.8924984189116534 -0.03295386324702729
0.3253427195885089 -0.9192997255916925 -0.019532285547887333
0.32548625244965385 -0.9449177757779278 -0.004381489624755169
0.32659922581016076 -0.9687875977594635 0.012291955437582073
0.32900462541082354 -0.9905364590868686 0.0302051005266308
0.33286790083281187 -1.0100535096277414 0.049104120717826584
0.3382185043809914 -1.0274715523081408 0.068854623179897
0.3449888274462089 -1.0430083924516846 0.08944131510911303
0.3530274284391975 -1.056838385011019 0.11090270710837795
0.3621095894691564 -1.0690092644529252 0.13324260989902006
0.3719540577711197 -1.079434157882507 0.15636338793007215
0.3822604847600659 -1.0879410650502621 0.1800575469398758
0.3927709935446352 -1.0943588002158933 0.20407547250564945
0.40332427343365296 -1.0985788774352607 0.22823003223826777
0.41387764234163743 -1.100584223381535 0.25246050487838717
0.4244962738880504 -1.1004650351465446 0.2768305558091119
0.43531627390294286 -1.098421073800713 0.30145111579646444
0.44649433789958426 -1.0947954028134157 0.32639234110487914
0.45817532509527376 -1.0900728418024688 0.3516359197734941
0.4704758890051817 -1.084825278024431 0.37708498682184394
0.48349150989471085 -1.0796078861413896 0.40261737768186046
0.4972910810329863 -1.0748834059739805 0.42810256876380226
0.5118941042952546 -1.0709822573082448 0.4533990695394915
0.5272452825247416 -1.068135845030227 0.4783298437276941
0.5431983335339144 -1.0664930226173959 0.5026517166608564
0.5595190477669812 -1.0661353637435422 0.5260701264580565
0.5759024754989327 -1.0670835764602988 0.5482626070970819
0.5920173941078382 -1.069294052058405 0.5689396884824819
0.607575549033509 -1.0726892385815163 0.587919230411147
0.6223879057441903 -1.0771898602380245 0.6051449515321912
0.6363893185702808 -1.082759975319141 0.6206659114929151
0.6496202969309747 -1.0894115576423473 0.6345814448293601
0.6621929757293386 -1.0971876736760606 0.6470107878150528
0.6742587205229371 -1.1061403130248613 0.6580853646878998
0.6860015514722697 -1.1163230368223738 0.6679470605641006
0.6975997272766257 -1.1277892646455077 0.6767193011322068
0.7091829849091766 -1.140584573549425 0.6844759788808844
0.7208038490119962 -1.1547186176238684 0.6912581361373901
0.7324418927019617 -1.170198009139737 0.6970975427389138
0.7440090561065094 -1.187009610817718 0.7020341420337723
0.7553717395298487 -1.2051375964000874 0.7061219199541665
0.7663631200539163 -1.2245418508055426 0.7093985330031986
0.7768073047252972 -1.2451352683419386 0.7118583810190368
0.7865615424512312 -1.266791896995372 0.7134514422973828
0.7955630015049896 -1.2894271534482347 0.7141180214543382
0.8038721632578637 -1.3130432205132432 0.7137958366234329
0.8116610304496766 -1.3377176506762 0.7124301690647844
0.81918741902223 -1.3635442954515817 0.7099555061374759
0.8267179698639388 -1.3905962262533447 0.7062648544722137
0.8344582470655124 -1.418875563940668 0.7011760652705258
0.2683561941002335 -0.018343110835873675 -0.01225868055371362
0.2718812745246755 -0.0379846327249888 -0.02677991282323164
0.2778994189508164 -0.05825772976070073 -0.043170837624176436
0.28564618629462346 -0.07870680911041586 -0.060967138383875706
0.2942835349233241 -0.09895877329425966 -0.07973418826071055
0.3029593633954113 -0.11868078309743801 -0.09908798164827944
0.31080652906213213 -0.13756760899721443 -0.11867509090687539
0.31692962436099076 -0.15533524213207986 -0.13815064889885265
0.3204501040103052 -0.17172586416391308 -0.15716482873083776
0.3206492034215171 -0.18658241970365932 -0.17541106270148635
0.3170899025113311 -0.19993504209874055 -0.19272552266665205
0.3095547527469672 -0.21206200910221962 -0.2091607376834586
0.29786035100258745 -0.22341365003678307 -0.22478728473309498
0.281950837619084 -0.23450254306287346 -0.2393801791009075
0.2622841933357172 -0.24574695819950576 -0.2522133257671333
0.240290761675864 -0.2574552992160635 -0.2626678889313399
0.21742739392653668 -0.2699662366663294 -0.27059458279412957
0.19477029475778665 -0.28341866377938196 -0.2759357340926637
0.17294660263398048 -0.29774736934480717 -0.2786459980130379
0.15208626206497583 -0.312808663435224 -0.27868914090520347
0.1319838467807434 -0.3284256105755891 -0.27600733616936896
0.11220914956091177 -0.3444685308427085 -0.27054785242156776
0.09216511190620719 -0.3609003696792382 -0.26223679272979844
0.07119260329780461 -0.3777888954838317 -0.2509551543221015
0.04870614375247759 -0.39532648683912164 -0.23655970128386564
0.02438647400594554 -0.41384167093289465 -0.21893289739958874
-0.0014873955393563398 -0.43371199781707626 -0.1981029838467185
-0.027690789218916212 -0.4550720256117719 -0.17453614385817345
-0.052328783406462465 -0.4776637486425588 -0.14919951447860907
-0.07324413387691198 -0.5009911737464594 -0.12353954084741987
-0.08866373079764722 -0.5242953528335754 -0.09930233682230859
-0.09737757367256106 -0.5465610021679292 -0.07808046162936277
-0.0992224378091836 -0.5667651211913171 -0.06067386232950778
-0.09482997233521367 -0.5844761366562442 -0.04708943408002627
-0.08497426269251612 -0.5997453283839704 -0.036942279229522756
-0.07002662146615418 -0.612778500511345 -0.029865689944913038
-0.050125390196263775 -0.6234304991971988 -0.025860798503882274
-0.025850294519290995 -0.6311572043910515 -0.02510563701303696
0.0018428378423500646 -0.6354522311500925 -0.027602369545925574
0.031852298763625636 -0.6360537358208256 -0.033194348575833275
0.06286775130349034 -0.6330716615006439 -0.04147621567532593
0.09381162496920198 -0.6269530280441712 -0.05185888338375237
0.12404943123662135 -0.6182501457030437 -0.06372664439521172
0.15331946061456567 -0.6075603492020438 -0.07641559272304212
[...]
CELL_DATA 15
SCALARS ComponentValue float 1
LOOKUP_TABLE default
-2.0
-1.5714285714285716
-1.1428571428571428
-0.7142857142857144
-0.2857142857142858
0.1428571428571428
0.5714285714285712
1.0
1.4285714285714284
1.8571428571428568
2.2857142857142856
2.7142857142857144
3.1428571428571423
3.571428571428571
4.0
