# vtk DataFile Version 2.0
3D curve data
ASCII
DATASET POLYDATA
POINTS 595 float
0.001231511020788592 -0.01853350499479109 -0.01248812266839978
0.003944773420116703 -0.03669998209970843 -0.026691567184248012
0.0077734564820313694 -0.054148489915624376 -0.042190694386350015
0.012231639098887276 -0.07083758061505085 -0.05866021402832187
0.016730677605813128 -0.08674096608857412 -0.07575800998940338
0.020645122421216043 -0.10176814900511201 -0.09307654953478332
0.023381236317539352 -0.11576793010584845 -0.1101408176821067
0.024446293162852448 -0.12859123571923659 -0.12647931516411118
0.02346486514623531 -0.1401657510520172 -0.14171656443390127
0.020166418556877258 -0.15054956007304973 -0.1556368630771596
0.014338898420646291 -0.1599244994545301 -0.16819487195951
0.005835773586738333 -0.168526338184751 -0.17943984408037514
-0.005287782996790166 -0.17662126579090204 -0.189402519293277
-0.018706782098554232 -0.18453540204798186 -0.19810838515990722
-0.03395544557715858 -0.19259423617406693 -0.20557092336995988
-0.05047072258567738 -0.20103838418605002 -0.21175401437401825
-0.06770584558608868 -0.210019217781716 -0.2165996127767529
-0.08518831279597595 -0.2195792679010475 -0.21999885196387822
-0.10244173273989991 -0.22966273728465347 -0.22183332642642897
-0.11910685744653583 -0.24018360307410272 -0.2220551745256588
-0.13497766177012144 -0.251008354142232 -0.22067421627602998
-0.14993554811628929 -0.2619756728260613 -0.2177817061023826
-0.16388092360944403 -0.27292545285168096 -0.2135571556069255
-0.17667644167329627 -0.2836812456649955 -0.20827659502053997
-0.188168511759385 -0.29404165237345853 -0.20230943560222236
-0.19828140777414574 -0.30382235193193124 -0.1960586396320207
-0.2070963563861026 -0.3129461415791802 -0.189840499177434
-0.21477927818387751 -0.32149353906257033 -0.18381908582682063
-0.22142848970298948 -0.3296290243036501 -0.1780585460096125
-0.2270131825663834 -0.337485696616239 -0.17259740118893863
-0.23137366521341823 -0.34512229576934716 -0.16748788783239382
-0.2342644280135799 -0.3525067500708817 -0.16281300306041896
-0.23547679944097336 -0.35951339420849726 -0.15865827053864245
-0.23496675190341518 -0.3659655624396585 -0.15508772181140296
-0.23276697686579376 -0.3717974382719754 -0.15209861222829008
-0.2287915466593044 -0.37699295177739345 -0.14970763288792585
-0.22284936911669456 -0.3814522305571819 -0.14800879384467225
-0.21469561640841095 -0.38495724420773847 -0.14713288011795364
-0.20416622553962527 -0.3871397149524057 -0.14728234240391597
-0.19165856967216 -0.38761349513613563 -0.1486154006942958
-0.17791005322556339 -0.3863314310056735 -0.15105015042367506
-0.1635246706032518 -0.38349331181785873 -0.15442337161587888
-0.14893902194422798 -0.3793994429818974 -0.15854737490326964
-0.13439486990703384 -0.37438857023293515 -0.16321822520659798
-0.11992574777479112 -0.3687945696301783 -0.1682408213236369
-0.1054087549046873 -0.3629409107957775 -0.1734260131586281
-0.09067367917646614 -0.3571717856067531 -0.17856045989177108
-0.07563948782714335 -0.35183588044719555 -0.18341699183343635
-0.06030167167810259 -0.3471970687662855 -0.1878173780421805
-0.04466078653551203 -0.3434393406679836 -0.1916235071294581
-0.028739428927181235 -0.340727346108321 -0.1947199985164769
-0.012631868835156775 -0.33925061300079656 -0.19702099630969952
0.0034593071940485303 -0.3392032596022582 -0.19848221410912734
0.01925138878305577 -0.34073869333332346 -0.19911158139654886
0.03443218772295386 -0.3439524016602749 -0.19896561571682947
0.04869878976190272 -0.3488986997718001 -0.19813428486644769
0.061766623566343146 -0.355613279155348 -0.1967268819187794
0.07336866385469559 -0.3641160782449873 -0.19486364114376964
0.08326486997554043 -0.37440076684369183 -0.1926737120894076
0.09127327490077951 -0.3864163474688033 -0.19030123296797974
0.09734369817438926 -0.4000637132051856 -0.18787964935105766
0.10155601280726223 -0.415201669796634 -0.18548068673505952
0.10407948620913653 -0.43160879226245624 -0.18312555703202307
0.10518518792760448 -0.4489839770131448 -0.18079539540392642
0.10523083931447307 -0.4670041521132348 -0.1784415688061162
0.10462106013003664 -0.4853786344231076 -0.1760042571736641
0.1037707967871363 -0.5038765331162081 -0.173422218176102
0.10307689909507035 -0.5223345004990179 -0.1706341473892654
0.10289739340461049 -0.540639416986007 -0.16757146138931878
0.1035358457580487 -0.5586983509884589 -0.16414915174095462
0.10523377264752372 -0.5764126119894463 -0.16026472956621413
0.10817090252799803 -0.5936628189963211 -0.15580447252220841
0.11245955426529865 -0.6103065730007009 -0.1506545197571633
0.11812770471187291 -0.6261759306225547 -0.1447213586445778
0.12510102012563928 -0.6411024861704206 -0.13795811806033237
0.1332140707413406 -0.6549684167086955 -0.1303649866404871
0.1422524483724125 -0.6677241162880863 -0.1219580404722803
0.15198401827689043 -0.6793652602013006 -0.11274767201241956
0.1621724888312004 -0.6899161576773966 -0.10272632213209044
0.17260363289240882 -0.6994308462285005 -0.09184616083436944
0.1831220982976978 -0.7079711752233622 -0.08000432574325142
0.193647192309063 -0.7155625650286802 -0.06705700341203182
0.20416345973612546 -0.7221583974790525 -0.05286098367042256
0.21470111816583526 -0.7276329977601209 -0.037332732255036485
0.22532103570351475 -0.7318094161174179 -0.02050306628200368
0.23609401927130272 -0.7345239425182553 -0.0025377549192912453
0.24708249758332082 -0.7357009596055832 0.016292909808842536
0.25832451731770256 -0.7353977131344265 0.03568808670512007
0.26983424655048444 -0.7338041367168319 0.055392537048322386
0.28160918406592667 -0.7312087793411488 0.07523124872739516
0.29363418651010775 -0.7279549012457157 0.09510678973878532
0.30588536049037024 -0.7243923044542718 0.1149750863220548
0.31833140997213927 -0.7208410278207896 0.13482157194807987
0.33092991350340306 -0.7175666905976411 0.15463915692242114
0.3436275940659464 -0.7147726151847325 0.17440325629511727
0.3563646466530681 -0.7126147240990978 0.19405075022009924
0.36907905664181834 -0.7112160131309866 0.2134717362287941
0.3817187674096115 -0.7106739176776231 0.2325080323138612
0.39425620988053717 -0.7110551341297846 0.2509614710494672
0.4066908311907473 -0.7123866619683165 0.26860578684751607
0.4190387791865764 -0.7146476128524273 0.2852031563263228
0.4313041350115076 -0.7177636959124283 0.3005183101945155
0.4434466326998901 -0.72160360972293 0.3143545907206408
0.4553860389494932 -0.72600116596206 0.3266264414267533
0.4670520145345213 -0.73080997342016 0.33740233546887566
0.478426284221872 -0.7359680351267458 0.3468535488667283
0.48953855149340514 -0.7415061473326874 0.35515229039488444
0.500442358397263 -0.7475288723694085 0.3624105622280606
0.5112010970719708 -0.7541823114324837 0.368664474980782
0.5218723954809604 -0.7616232926572722 0.37389993363000823
0.532503266296012 -0.7699982521157215 0.37810284622754076
0.5431447942245764 -0.7794405028922731 0.3813010650560427
0.5538566664778924 -0.7900594554313308 0.38356541832767677
0.5646926836416324 -0.8019060623360091 0.38501794868293193
0.5756784150921237 -0.8149322481856397 0.38583953402358734
0.586804476815088 -0.8289725837069429 0.38627913146183374
0.5980094750938348 -0.8437077060979311 0.38663168259633085
0.6091256443257599 -0.8586107136172082 0.3872032899804529
0.6198692321913584 -0.8730513181021052 0.3882340179764727
0.31331457659140277 -0.01610276912231054 -0.010859727049892883
0.31477164340223746 -0.032110153482251234 -0.02322433248017148
0.3166322557237144 -0.04752945880164279 -0.0365887972211489
0.31860338518017484 -0.06219875790618079 -0.05056015155842638
0.32032195383803147 -0.07605516375697448 -0.06480411748237555
0.32139669644293617 -0.08903335905183561 -0.07899582821876566
0.3214603917952533 -0.10104777294388186 -0.09280189765390638
0.32021444908353774 -0.1120387206128703 -0.10592416231079126
0.3174173818475024 -0.12202148904540008 -0.11815608925038874
0.31285502212881744 -0.13110536848192866 -0.1294090774840428
0.30630620250740104 -0.13947015608232965 -0.13969268967324658
0.29759231833196514 -0.1473035335976394 -0.14903056214861185
0.2867359251354521 -0.15479639641355927 -0.15739694240514032
0.27399516474082275 -0.1621806543390614 -0.16476741045206242
0.25973870725089604 -0.16967781355667313 -0.1711121855459241
0.24440907413116741 -0.17743172300595939 -0.1763600367521924
0.2284509610863509 -0.18551450606386138 -0.18041558778982086
0.21226216421414296 -0.19393636772056458 -0.18315457583357614
0.19621957447003516 -0.2026679760292103 -0.18445519963097326
0.18058366629885342 -0.21169107478979757 -0.184247196652446
0.16547278482101418 -0.22098201801805556 -0.18249735848627888
0.1509246706004227 -0.2305124800231715 -0.17922515589122687
0.13696514433537313 -0.24025508523675285 -0.17451775600522174
0.12366960868976523 -0.2501635132009555 -0.1685553154384828
0.11117665596491394 -0.26015666502396456 -0.161631833283558
0.09964695241536498 -0.27013022986642404 -0.15412924294432565
0.08920707173285972 -0.2800011047665147 -0.14643192151761894
0.0799719037565016 -0.2897222976005755 -0.13886848381289923
0.07205237271758619 -0.29923320908430556 -0.13168022062068682
0.06556112043422044 -0.3084933542200466 -0.12499271810275045
0.06071320662212115 -0.3174025458034365 -0.11894068071921463
0.0577222273150132 -0.32576540287514116 -0.11366386797615952
0.05665422451918284 -0.3333798812935064 -0.10923053244582068
0.05739154457591378 -0.34013000407301264 -0.10562626566294353
0.05980748010496567 -0.34607164555242637 -0.10276807948148561
0.06396442948316705 -0.35130781821034823 -0.10061411569109387
0.07009065195168535 -0.3558282617764591 -0.09923156435676694
0.07846353887015162 -0.3594580140904942 -0.09876047109856778
0.08921394287136258 -0.36187719026806703 -0.09938854781158844
0.10195819382105994 -0.36277974376231625 -0.10121512274114311
0.11600646205448542 -0.3621494912481214 -0.10410760596320998
0.13075964786512606 -0.3601902686636317 -0.10784123089277357
0.14576128223152474 -0.3572079628774332 -0.11216407459051712
0.16072014366189477 -0.35355530226008686 -0.11682130195756157
[...]
CELL_DATA 5
SCALARS ComponentValue float 1
LOOKUP_TABLE default
-2.0
-0.5
1.0
2.5
4.0
