# vtk DataFile Version 2.0
3D curve data
ASCII
DATASET POLYDATA
POINTS 1785 float
0.005552763679230502 -0.019546494914344757 -0.0060173517782015715
0.011078422913151139 -0.04053973200053346 -0.014524367887249355
0.016071916972878766 -0.062093144505102206 -0.02515739897722622
0.020142083547893312 -0.08347779832912819 -0.037387096978613345
0.023023758959502972 -0.10419334637980592 -0.05066199528224007
0.024503785576714374 -0.12399176567745719 -0.06449361296747066
0.02437424718537811 -0.14277891290763522 -0.0784282314391963
0.0224466096967254 -0.16049558257200036 -0.09199331550949484
0.018633231490122543 -0.17705413949022086 -0.10470361690339866
0.01302279336876092 -0.19242829180982474 -0.11618383303596191
0.005743844247139707 -0.20679589620053865 -0.12627365840817345
-0.003248926714184021 -0.2204636571639401 -0.13491405901777462
-0.014108893857805789 -0.23368354337135738 -0.14195976354511772
-0.02686812891262692 -0.24660874695699428 -0.1471528601500784
-0.041279892482598585 -0.2592996670596363 -0.1501815963271153
-0.05676118344823107 -0.2718066069555337 -0.15107419395406907
-0.07302405297346921 -0.2842987882500425 -0.15012838683619062
-0.08992605689874923 -0.2968560724169461 -0.14759546789409705
-0.10728609883687894 -0.30948786466844724 -0.14371449549664073
-0.12481197166278912 -0.3222225783700163 -0.13875690027526974
-0.1422862824725066 -0.3351939282632645 -0.13296864927225346
-0.15960337647881126 -0.3485677175492288 -0.12644407659913687
-0.17663726386536036 -0.36243044114737377 -0.11915616909827305
-0.19315051784571788 -0.3767136174255413 -0.11107585871184142
-0.20878590701648278 -0.39119629213743573 -0.1022710897618584
-0.2231156773423773 -0.40556134251954706 -0.0929298680896465
-0.23572425739307687 -0.41948994090828806 -0.08331237183879893
-0.24625348247238205 -0.43275006290629664 -0.07367734555619691
-0.25435798292737943 -0.4451438544220363 -0.06429744904716664
-0.2598162919243393 -0.4564540012676318 -0.05539409531700456
-0.2625140339763318 -0.4665296337795472 -0.047149313850552696
-0.2624838271389164 -0.4751547054492522 -0.03987078575577287
-0.26009065940816434 -0.48233460862483457 -0.033693423727787136
-0.2556719995869956 -0.4883762504061728 -0.028551260206639423
-0.2492130860054435 -0.49360882630227065 -0.02439282618206428
-0.2404313898144912 -0.4981328438888932 -0.021389702737979435
-0.22912289064789698 -0.50174117639084 -0.019964780544363892
-0.21561498064048204 -0.5039899977891523 -0.020549416086881173
-0.2008086164407145 -0.5045267668048738 -0.023217001927591498
-0.18574033684059318 -0.5034017700077055 -0.027567261087835093
-0.17088229440344405 -0.5009808693203163 -0.03299484810971002
-0.15624366286707278 -0.4976904002548112 -0.03892836749401182
-0.14163228497912853 -0.49398320849751953 -0.04484334418011631
-0.12677910502292547 -0.4903125395080683 -0.050306900912325106
-0.11143507715093134 -0.48711722659802786 -0.055009922098632424
-0.09541729329814459 -0.484822378633722 -0.05877102414229661
-0.07863936520183114 -0.48385691616232757 -0.06152622626249551
-0.061211752120099494 -0.4846362087605175 -0.06332922490339592
-0.043526031978654886 -0.48744574735855367 -0.06439657729630653
-0.02607292096050593 -0.4923346748429145 -0.06508304126391225
-0.009218040961272116 -0.49918128117160815 -0.06574342796651755
0.00688471909079361 -0.507842179531479 -0.06663092765171633
0.02225782643875307 -0.5182621088654351 -0.06787504046292127
0.03699681966606822 -0.5304845106654493 -0.06951309858460243
0.05112603810264139 -0.5445462042752158 -0.07151506314877232
0.06456168454003032 -0.56028727233865 -0.07377507745511099
0.07723066384380872 -0.5773643377091401 -0.07611386046044123
0.08912160756594542 -0.595380030681871 -0.07831687677965266
0.1002486508947272 -0.6139744340308991 -0.08016904765141679
0.11061936300570446 -0.6328520211943981 -0.08148149272631608
0.12023804614272558 -0.6517984460792009 -0.08210171883059421
0.1291002417918369 -0.6706980978278299 -0.08190334230798925
0.13717311196296414 -0.6895046978158311 -0.08078946688331859
0.14445248723457957 -0.708209442828927 -0.07869190887724557
0.151024315482366 -0.7268583700828408 -0.07555546334727842
0.1570530665317318 -0.745529077098981 -0.07134703384469444
0.1627412111763593 -0.7642252571282964 -0.06606835164633883
0.16831053580243355 -0.7827995337327284 -0.059752230952273236
0.1739917097343587 -0.800937675940876 -0.05244449850147935
0.1800110408288818 -0.8182299236498453 -0.04417472050870999
0.18657303375123027 -0.8342722133594168 -0.034931208352514016
0.1938584761319735 -0.8487610834852152 -0.024650372259759332
0.20203922774610059 -0.8615466295437899 -0.013210497239360332
0.21130475801776816 -0.8725947425257373 -0.0004443512389695668
0.22185243061377963 -0.8819163930995968 0.013806612201182672
0.2338267081923078 -0.8895315119941981 0.02959858865667229
0.2472472126243956 -0.8954875405478852 0.04683269315823728
0.26197708442243445 -0.8998919499950894 0.06527040369956556
0.27776271427473104 -0.902919720445192 0.08460880055403122
0.2943046767781983 -0.9047588677174933 0.10456660138530506
0.31131425448629685 -0.9055493141407067 0.12492910385414926
0.3285457206658595 -0.9053650006775704 0.14554156835231769
0.34581909544653555 -0.9042279458956901 0.1662853246809306
0.363026749064436 -0.902151429363933 0.1870655295327084
0.38013150400612905 -0.8991961325290628 0.2078207763960607
0.3971395002472103 -0.8954971137265311 0.22852267208233007
0.4140882370650376 -0.891258130358706 0.2491733896998323
0.43102618680922644 -0.8867300625724202 0.2697801320274171
0.4479903052162985 -0.8821857005816907 0.2903318231788751
0.4650037945246198 -0.8779059177335856 0.31079319555320467
0.4820886828817248 -0.8741871826905157 0.3311312431186475
0.4992938321321526 -0.8713385215735259 0.3513353186123703
0.5167216237077218 -0.8696985920128886 0.3714026780974202
0.534504147202919 -0.8696471002850609 0.3913020556864996
0.5527670885790162 -0.8716063124819975 0.4109341832973158
0.5715923904945961 -0.876015706922494 0.43011190854712283
0.5909737841011943 -0.8832984802116092 0.4485674558290165
0.6108198107245842 -0.8938104166467036 0.46598771065612343
0.6309837548945819 -0.9078071896205051 0.48203513560525324
0.6513116944560892 -0.9254264860368262 0.49635359423514425
0.6716619174294115 -0.9466471834791682 0.5085449060700085
0.6919042528153695 -0.9712393572695684 0.5181576008016731
0.7119015283262092 -0.998751185475362 0.5247397279918269
0.7314858794360602 -1.0285354808063603 0.5279486191281876
0.7504771604542787 -1.0598650472064728 0.5276994431814264
0.7687301447452816 -1.0920836301434194 0.5242061962721724
0.7861799937694671 -1.124697737379939 0.5179035982151174
0.8028043496967606 -1.1573459470581358 0.5093269852123797
0.8185908792799926 -1.1897121890818576 0.4990570851738936
0.8335015313509391 -1.2213897643592517 0.4876994126774746
0.8474788848916922 -1.2518278112397223 0.475920521168141
0.8605100432288623 -1.2804471020260018 0.46441791382808867
0.8726800751098577 -1.3068420183544127 0.45381135291457936
0.8841885672193444 -1.3309084985141368 0.4445345100335765
0.8953059485776689 -1.3527910846284903 0.436816689115073
0.9063031300580381 -1.3726939276706602 0.43076073138518894
0.917327609373901 -1.3906659571754547 0.4263886314393438
0.9282549589239899 -1.4065762820425414 0.42366559473648485
0.9387726664582416 -1.4203656865733674 0.42254532547901774
0.27289027217554723 -0.019669144749810567 -0.0068055486778438685
0.27813876431841705 -0.04090530833807844 -0.016127943736716447
0.28309190208862484 -0.06279199419606893 -0.02757591399387046
0.2873144839325349 -0.08455858749645384 -0.04059511462939739
0.29048761052002875 -0.10567083935259004 -0.05462007135652172
0.2923484244266432 -0.1258567204292654 -0.06915840179996918
0.2926429955616288 -0.14500466514052096 -0.08376002605478622
0.2911382837886445 -0.16304715332183065 -0.09796353345004291
0.28769680669000575 -0.17990399198946738 -0.11130197087929398
0.282346651518696 -0.19556380163892742 -0.12341454193088185
0.2751668376266682 -0.21020848552866175 -0.13413947246363953
0.26609862451312394 -0.22414438773251583 -0.14341077279923536
0.25500231694744946 -0.23763360104796327 -0.1510846422297552
0.24187226797414074 -0.2508494845452435 -0.1569113503958916
0.22698197787774463 -0.2638788593179326 -0.16059086742524817
0.21092490503280173 -0.2767944059063104 -0.16213430425999387
0.19402447888109386 -0.28976753050844606 -0.16180309821280928
0.17646633163424802 -0.3028740420939055 -0.15981352756588058
0.15846044972153275 -0.31611525290835235 -0.15636840473875285
0.1403033996965287 -0.32950449097276713 -0.151700149001547
0.12220939240025697 -0.34315066508859876 -0.14602388133357158
0.10428537418004113 -0.3571914056099092 -0.1394264073700043
0.08665900318630135 -0.37169313293769385 -0.13189700558253412
0.0695679148471213 -0.3865831233387202 -0.12343829457238918
0.053372890075331414 -0.4016494954947438 -0.11415850656512132
0.038513569434749095 -0.4165898402651537 -0.10429149446196953
0.02542927340867765 -0.4310952616928937 -0.09414768681306178
0.014512767806227456 -0.44492860794975514 -0.08403966332833214
0.006144713902073773 -0.4578684836838808 -0.07429356663153863
0.0005661397643664245 -0.4696584169641768 -0.06517841152935487
-0.00213036189482535 -0.48011024824949083 -0.05689646621090195
-0.00203632796471509 -0.48902055742250305 -0.04971500773935769
0.0004618137804643929 -0.4964330368681971 -0.04371256236093761
0.005039561190031239 -0.5026706122473111 -0.03878216814622751
0.011726884005896943 -0.5080643329635661 -0.03484532928807297
0.02081836066919368 -0.5127145032785598 -0.03204961289837886
0.032531209143803114 -0.5164152305823457 -0.03079009089661105
0.04656540776826679 -0.5187295832885548 -0.031473969918037074
0.062058097013267005 -0.5193070413951772 -0.03417555796433644
0.07798851089340125 -0.518181768067719 -0.03852677732618229
0.09383410433081885 -0.5157054561804167 -0.04395184804936375
0.10951889454201783 -0.5123101515662501 -0.04989252981892781
0.12518046681555212 -0.5084609020338893 -0.05583442208956525
0.14104300523527333 -0.504625140842245 -0.06134948723821091
[...]
CELL_DATA 15
SCALARS ComponentValue float 1
LOOKUP_TABLE default
-2.0
-1.5714285714285716
-1.1428571428571428
-0.7142857142857144
-0.2857142857142858
0.1428571428571428
0.5714285714285712
1.0
1.4285714285714284
1.8571428571428568
2.2857142857142856
2.7142857142857144
3.1428571428571423
3.571428571428571
4.0
