# vtk DataFile Version 2.0
3D curve data
ASCII
DATASET POLYDATA
POINTS 1785 float
-0.021652944681292214 -0.04031310870219602 -0.024219771370362533
-0.03453782921073363 -0.07835711032208523 -0.047700102903814094
-0.04030368916100702 -0.11328721201155514 -0.0700005368267223
-0.04076253213886751 -0.14540418880203057 -0.09138759463238931
-0.03787947944199771 -0.17550207333702797 -0.11232695230556952
-0.03363373636129681 -0.20385564006929016 -0.13289538552089236
-0.029906675445400818 -0.23037978615140473 -0.1528567916365987
-0.02846500045857099 -0.2549152720350353 -0.17181138648019717
-0.030848604266452903 -0.27737753139267274 -0.1893035524788301
-0.03819504575935483 -0.29803241647837203 -0.20504456238838917
-0.05138813940835099 -0.31767777304929096 -0.21899828787534267
-0.07123926891274661 -0.3374146876034886 -0.23108195461188588
-0.09809297479574405 -0.3582717830028478 -0.2409339500389689
-0.13115140913132875 -0.38096529275807656 -0.24810048347983804
-0.1682341345011857 -0.40585588923979365 -0.25239649666087877
-0.2063904579396318 -0.43300998272714947 -0.2539863163094789
-0.24265061068280444 -0.4621928770609702 -0.2532910768484358
-0.2750704238104316 -0.4930399557698334 -0.25080298183910477
-0.30314381341135554 -0.5252198995768789 -0.2467634238257012
-0.32777596513820456 -0.5583657499702989 -0.24085538024226474
-0.3499812868499736 -0.591639003079715 -0.2323314910687851
-0.3705579701495014 -0.6242127802539702 -0.22064267669700263
-0.3902059879788099 -0.655547809416389 -0.20558006931442174
-0.4094247469700692 -0.6853695465866194 -0.18728120743497728
-0.4283152355604465 -0.7135437587799244 -0.16629436714553525
-0.44644329489370604 -0.7399509388143015 -0.1436638453564909
-0.46292225287651256 -0.7644326865459522 -0.12083852990397287
-0.47671954310635967 -0.7868709431047537 -0.09927004079722346
-0.4868448067258597 -0.8073050491911685 -0.07997272113055227
-0.4921605643015857 -0.8257138307283783 -0.06372673978369454
-0.4919274938336571 -0.8416111638548143 -0.05113051379195837
-0.48627488166848826 -0.8550236006674787 -0.04194592925822351
-0.47484463158612117 -0.8667172648838001 -0.03557205712747714
-0.456315682221749 -0.8768834315908256 -0.03191026223530373
-0.42951304023111964 -0.8845743908195899 -0.03137714775152155
-0.39429562656313955 -0.8882359099878231 -0.03441841601480974
-0.35165951818165075 -0.8863421769173523 -0.0412660295954911
-0.3037716820982115 -0.8778379334554652 -0.051836987739825854
-0.25376302818452384 -0.8626756419864919 -0.06550930809276542
-0.20472975973859797 -0.8420964116095494 -0.0810399025481489
-0.15824764945625283 -0.8178225074827138 -0.09720659985759411
-0.11504354774238638 -0.791446283044798 -0.1130569212351225
-0.07552851656422 -0.7645615710995832 -0.12770080527092872
-0.039772228850907164 -0.7386529905647047 -0.14039826199283845
-0.0075378473223838005 -0.7149854007707176 -0.15067332601237288
0.02160258863984852 -0.6945390476727038 -0.15836201920868667
0.04811089780611809 -0.6779805372229588 -0.16360373528718344
0.07235276551632454 -0.6656595208685735 -0.1667697246173676
0.09456641749323091 -0.6576317684864168 -0.16836476499824793
0.11494087076614051 -0.6537314954332447 -0.16892066600346514
0.1337108324089413 -0.6536788647919719 -0.16891294469103704
0.1512035148068037 -0.6572382735193559 -0.16872701219324532
0.16773812840153443 -0.664341373137657 -0.16864285077573177
0.18350566087674272 -0.6750619476746167 -0.16883529592527496
0.19849830705801652 -0.6894768435121517 -0.16937109174245987
0.21253140659620026 -0.7074740669596109 -0.17018981410158582
0.22536121307430224 -0.7287010796439563 -0.1711084355025553
0.23677499887896866 -0.7526275370712217 -0.1718977124905289
0.2466200264166847 -0.7786286375421576 -0.17237709035517118
0.25484387385677815 -0.8060473284695708 -0.17246388490607772
0.26153825697245103 -0.8342780938472053 -0.17215861773460253
0.26693725677860747 -0.8628764012918907 -0.1715034344692674
0.2714013867703909 -0.8915733766274045 -0.17053725017189642
0.27537786922517365 -0.9202495227980483 -0.1692618730066839
0.27935994148123616 -0.9488492361755871 -0.16763356403958807
0.2838488826163648 -0.9773510812733698 -0.16556483942500239
0.28930634541945965 -1.0057287934665133 -0.16291514689491265
0.2960926859397569 -1.0339139536966782 -0.15948360191663663
0.30440972742359135 -1.0617794394764088 -0.15501320128064375
0.31428893592163915 -1.0891290083562901 -0.14920261961635284
0.32560596013087423 -1.1156852975831173 -0.14172356545374998
0.3381340907729305 -1.1411092135014227 -0.13224801665228958
0.3516183311966264 -1.1649953535452895 -0.12048093076882238
0.36586623058701906 -1.1868987194256586 -0.10620680261186971
0.3807781751610515 -1.2063428421148532 -0.0893620058889351
0.3963326902095261 -1.222891055173834 -0.07008941856978215
0.41256225950311165 -1.2362324349027027 -0.04869385254714072
0.4295224425802828 -1.2462008478634166 -0.02555685479657178
0.44722013151076007 -1.2528025727630578 -0.0010725997714731775
0.465559613033138 -1.2562637768252305 0.024429801960848405
0.48436630620858245 -1.257023973669326 0.05075181612549997
0.5034463037692067 -1.2556401290939991 0.07780386488978337
0.5226080387888322 -1.252681727717616 0.10553801767485983
0.5416949124969181 -1.2486346870748148 0.13389024248410777
0.5606057043443 -1.2438217257047808 0.16275353084407204
0.5793088456494351 -1.2383492161055334 0.19198494778277708
0.5978363756258821 -1.2321108295277972 0.22142547280053665
0.6162352147692919 -1.224844635605735 0.2509105034834324
0.6345240312873768 -1.2162596962214114 0.28029868510879385
0.65266430624427 -1.2061691364440474 0.30950895027169634
0.6705531993310614 -1.194589783449942 0.3385615419960669
0.6880606037856887 -1.181777818749523 0.3675901636610308
0.7050605561562572 -1.1682042348456056 0.39680994140005016
0.7214722180930662 -1.1544701955607313 0.4264793788342684
0.7372902917422822 -1.1412311170022469 0.45684098874058876
0.7525821158244832 -1.1291106978741674 0.4880747095856755
0.7674733622518966 -1.1186528643615823 0.5202352757440207
0.7821358738668505 -1.1102978078959693 0.5531943488782126
0.7967767200463222 -1.104367526133431 0.5865992456205708
0.8116257212558428 -1.1010448899299945 0.619881266323924
0.8269122444574678 -1.100397268042904 0.6522974139772264
0.8428088608035856 -1.1023946082218457 0.6830069635342461
0.8593675662356182 -1.1069575342742333 0.7111955173272142
0.8764964145324301 -1.1139926880554158 0.7362306937120077
0.8939962140942793 -1.123437282391227 0.7578059282018699
0.9116734629042326 -1.1352876315912497 0.7759144292380027
0.9293812309140655 -1.149599148198144 0.7907144692812687
0.9469981298201425 -1.1664324832252522 0.8023751101492609
0.9644079968542905 -1.1857881811679132 0.8110343324890823
0.9814845830128858 -1.2075703380638723 0.816792664044583
0.9981028152658034 -1.2315611954908976 0.8197264650434685
1.0141801586599408 -1.257412443323473 0.8199526408870551
1.0297300454380276 -1.2846588845727966 0.8176620350880189
1.044903072946249 -1.3127327106501778 0.8131819903877567
1.0599202469326443 -1.3409900147062352 0.8069562039307903
1.0750251040735144 -1.3687505736220003 0.7994831347910667
1.0904474350944824 -1.395264363904651 0.7912905281433951
1.1062672251428531 -1.419666420112775 0.7829329220332969
1.1222509178957472 -1.4411323003612184 0.7749159432166368
0.2507650183593718 -0.03638426895542884 -0.02187619322428477
0.24083658530659588 -0.07138370163003316 -0.04367847216230624
0.23682001407762024 -0.10411556933130055 -0.06490442106566487
0.2372550145105597 -0.13462422115777395 -0.08562299204866575
0.24047418529664433 -0.16340489480569048 -0.10609352695736285
0.24474341856428272 -0.19059391773981452 -0.12628816753151667
0.24839544018690046 -0.2160767525717108 -0.14594176384083637
0.2498599774378925 -0.2396986562740915 -0.1646611898984906
0.24776476926949242 -0.2613763585867179 -0.18200937029187644
0.24110056029682075 -0.2813242774529774 -0.19769455726122673
0.22912775587335074 -0.30022059385474037 -0.21166099446411332
0.21120412581172876 -0.31903870966370734 -0.22385666222385206
0.18704821851622716 -0.338713000690944 -0.23400600314194533
0.15730440269149293 -0.3599047203421481 -0.24171622033703416
0.12378504834832707 -0.3829639091455847 -0.246776708153223
0.08899657337487518 -0.40798316100028675 -0.24926636768852062
0.055491705586235146 -0.4347944833419415 -0.2494947459781258
0.025005519898550377 -0.463092476773007 -0.24784697345148196
-0.0019169706592696567 -0.4925694491328531 -0.2445224213936549
-0.02594679475076378 -0.5228859573491071 -0.23927069528473385
-0.047899072685693156 -0.5533438513500648 -0.23148284137581537
-0.06843311069504593 -0.5832691656878205 -0.22070948517347072
-0.08812733465824485 -0.61222052099124 -0.2067879068711963
-0.10737570079006853 -0.6399615340367376 -0.18986163014293328
-0.12620946728632076 -0.6663567089487519 -0.17044662707852654
-0.14418320890047687 -0.6912718758470447 -0.14950241822411686
-0.16045633249538543 -0.71453391240908 -0.1283438766075534
-0.1740627768434057 -0.7359966481289225 -0.10829387249349907
-0.18407749166934556 -0.7556261057942257 -0.09031499632263065
-0.18949540255204395 -0.7733149613541404 -0.07515508122751884
-0.18971588637016606 -0.7885778765131327 -0.06336385835974057
-0.184955622790413 -0.801409670809808 -0.054741857586426676
-0.17507913166120526 -0.8125113388458346 -0.048721867553835466
-0.15908609636838572 -0.8221654475632156 -0.04511341476043637
-0.13596648502983782 -0.8296875589491055 -0.044196463870024155
-0.1054986485994166 -0.8338234367284756 -0.04634313295567269
-0.06840775228231594 -0.8332829757510819 -0.05178758689084616
-0.02644193942265538 -0.827125313822357 -0.06050855212345358
0.017784694063584017 -0.8152276906309055 -0.07202191532104701
0.061614395458314014 -0.7985479085406565 -0.08530560929843596
0.10358628743973661 -0.7785117612977028 -0.09930712755839098
0.1429644339394211 -0.7564981403015126 -0.11316861360697113
0.17932087217980358 -0.7339019368835636 -0.12608749883759396
0.21254058393597783 -0.7120295438210257 -0.13739257081357595
0.24278530766902598 -0.6920032540230373 -0.14663917418843112
[...]
CELL_DATA 15
SCALARS ComponentValue float 1
LOOKUP_TABLE default
-2.0
-1.5714285714285716
-1.1428571428571428
-0.7142857142857144
-0.2857142857142858
0.1428571428571428
0.5714285714285712
1.0
1.4285714285714284
1.8571428571428568
2.2857142857142856
2.7142857142857144
3.1428571428571423
3.571428571428571
4.0
