# vtk DataFile Version 2.0
3D curve data
ASCII
DATASET POLYDATA
POINTS 1785 float
-0.00021773472963666876 -0.026620506208161344 -0.013948450676525065
0.0017367825659055558 -0.05188029276412315 -0.02917027189183425
0.005627994709944241 -0.07508894650027802 -0.04510604540955872
0.0110934600277974 -0.09613615264726642 -0.06150399142004498
0.017612810386367483 -0.1155096000169929 -0.07837233620754389
0.024565791578372412 -0.1336463522336124 -0.09562179027077129
0.03132555819519205 -0.1508910509246585 -0.11306135378733895
0.037208581068763444 -0.16755437612436436 -0.13044372837293366
0.04144703844922197 -0.18386971911018254 -0.1474390550390287
0.0433147711517193 -0.19998731488368618 -0.1636611993505958
0.042253592733329605 -0.2160246633532091 -0.1787954892840379
0.037880083370710624 -0.23209307132644014 -0.1926668671971755
0.02996181005108972 -0.2482733119131724 -0.20513407723487467
0.01853622512416916 -0.26456992415796415 -0.21602709818313678
0.003912691531238721 -0.28095924881736495 -0.2252075722251922
-0.01340562285454943 -0.29741243450104177 -0.2324771480408136
-0.03273187399860287 -0.3138949700769184 -0.2376273326481548
-0.05328804574626612 -0.3304002925340231 -0.24051261840539473
-0.07434405683892642 -0.34697144869997787 -0.24105396300543963
-0.09530016952565858 -0.3636420767152242 -0.2391883937867328
-0.11574105803549015 -0.38040512822155614 -0.2348924747287062
-0.1354120014157372 -0.397191578498833 -0.22824979204447654
-0.15417684080461944 -0.41394647389632516 -0.21950746734060983
-0.1719608219234758 -0.4306810775359602 -0.2090423169106432
-0.18866434641431443 -0.4474291316023872 -0.19733558946473811
-0.20409185849329226 -0.46415814107819114 -0.18499042728393142
-0.21792393656877576 -0.4806910473364597 -0.17273345308387225
-0.22978601540575758 -0.4967006646951558 -0.1613056502755815
-0.23928639639882052 -0.5117193416274373 -0.15132750511605653
-0.2460340731570124 -0.5250823946662017 -0.14321752561713605
-0.2498496177046735 -0.5359958383062272 -0.13717072236046682
-0.25109348108439394 -0.5441612590564843 -0.13308020854487587
-0.2503105876635769 -0.5499308172456852 -0.13065646370614556
-0.24793543154346365 -0.5539886202243701 -0.12948644846583446
-0.24374768799131602 -0.5570645265094646 -0.12930901533831704
-0.23690002085234746 -0.5593128611031539 -0.1303560852197758
-0.22664082902419863 -0.5602503556347125 -0.1331665337375113
-0.21293758550489364 -0.5591397427147681 -0.13813669945101048
-0.1962769603356778 -0.5554557866321261 -0.14525067901313082
-0.17730226286844564 -0.5489978506534272 -0.15424737641980937
-0.15684170562485408 -0.5399121687605364 -0.16464445201420225
-0.1356698997804263 -0.5286483919305217 -0.1758039152151008
-0.11436955757136136 -0.51587652800189 -0.18700613248428521
-0.09330299319678492 -0.5024290180346768 -0.19747286641427678
-0.07262924318286858 -0.4892222091270764 -0.2064799972183469
-0.05242673745987251 -0.4771703021872991 -0.21349063383697156
-0.03278977453098127 -0.4670535525430088 -0.21825881170893277
-0.013810992307284666 -0.4593715764283782 -0.22082115825034643
0.0044285680663030515 -0.45435736103061086 -0.22136766481805853
0.021844059401730953 -0.4520439598422164 -0.22013135165717151
0.0384208650846336 -0.4522957807870808 -0.21733146837265796
0.054333306964522404 -0.45495023602613077 -0.21314748318580104
0.06975816931722935 -0.4600298834507945 -0.2077305629652768
0.08466511866204776 -0.467688946843749 -0.20127063374689005
0.09879728749201494 -0.47804346679831006 -0.19403830251689472
0.11179778169204913 -0.49104684102337093 -0.18634331345436397
0.12335613520694776 -0.5065094381263521 -0.17845489056251942
0.13326036698266266 -0.5241721573104636 -0.1705806100733114
0.14138082434339666 -0.543743641788637 -0.16289046482014252
0.14767301282582357 -0.5648682834693716 -0.15555178155434954
0.1522631668077649 -0.587112186281543 -0.14873592464317037
0.1555245078783219 -0.6100758464455499 -0.14254067488715325
0.1579590858128579 -0.6335306224339711 -0.13695144585266628
0.16006222980995846 -0.6574369831032518 -0.131877542649251
0.16225850588647417 -0.6818828661037684 -0.12718073833934965
0.16489149713220883 -0.7069712731932241 -0.1226970755658015
0.16824318314350667 -0.732722189355857 -0.11823938648792137
0.1725524591261381 -0.759045596128235 -0.11357915176195225
0.17801439519670548 -0.7857594838726584 -0.10841800064934415
0.184776492474946 -0.8125720003334551 -0.10237415238266202
0.19292171827757873 -0.8390777452197573 -0.09501504983517911
0.20246374683554605 -0.8647886721007816 -0.08592402917741812
0.21337187677125788 -0.8891989082797699 -0.0747650028246736
0.22560554529960347 -0.9118593711946952 -0.06131991290500276
0.23912125120913064 -0.9324026576177161 -0.04550372047330968
0.2538543383346445 -0.950565247906825 -0.027370792213803823
0.26968140559283293 -0.9662071794558359 -0.007107243262048121
0.28641593561114814 -0.9793443240355459 0.01500397357877717
0.3038413201915212 -0.99011899472568 0.03862854328303937
0.3217473044444864 -0.9987291381358337 0.0634045720242175
0.33992154779907996 -1.0053680395387763 0.08895036306150707
0.3581580658310088 -1.0102115477208196 0.11490785598613716
0.3762756465296441 -1.013417592607524 0.1409900441201553
0.39412527333477876 -1.0151324474079253 0.16698851583618762
0.4115943494418608 -1.0154898480289898 0.19275798025679772
0.42861774970560396 -1.0146228966666675 0.21822329138028596
0.4451767824851029 -1.0126528264499335 0.24338707437271528
0.4613017414035702 -1.0096810490117747 0.268326069515441
0.4770521803999285 -1.0057993161048937 0.29315783795237654
0.4925183505268125 -1.0011185457373757 0.31799084286655777
0.5077993400362185 -0.995790123928828 0.34288703838359197
0.5230016189718795 -0.9900190278844342 0.3678510732231158
0.5382355438693812 -0.9840689206664865 0.3928351684649453
0.5536042778568666 -0.9782668575285545 0.41777003949769315
0.5692049075979838 -0.9730009940016601 0.442587087981848
0.5851056061769169 -0.9686968375510722 0.4672368669551167
0.6013413830976883 -0.9657965494934966 0.49169398554822447
0.6179277161718114 -0.9647314111449318 0.5159587832097611
0.6348628947782003 -0.9658955264644964 0.5400384445878545
0.6521646872916534 -0.9696367633201066 0.563931968162947
0.669855657437834 -0.9762601728455356 0.5875952956812666
0.6879567095397343 -0.9860002332838398 0.6108776123945133
0.7064869619658959 -0.9989806830976471 0.633493249450325
0.7254845271730639 -1.0152044787220078 0.6550182558072616
0.7449870962328408 -1.0345630364047216 0.6748655753370638
0.7649724508161161 -1.0568503526303998 0.6923102328041147
0.7853194152986783 -1.0817662278878004 0.7065948273257266
0.8057947685659397 -1.1089158024582446 0.7170375107618979
0.8260702303420495 -1.1377983935218943 0.7231397132138436
0.8457601817242647 -1.1678161346464822 0.7246850881170912
0.8644619322919528 -1.1983534447515642 0.7217904001798932
0.8818391243667613 -1.2289077893943086 0.7149011646324969
0.8976535802113993 -1.2591866826993368 0.7047098289426933
0.9117408856011933 -1.2890442511175912 0.6921232808253259
0.9239422179981792 -1.3183705020776932 0.6782615292259049
0.93409183469928 -1.3470337632835596 0.6644038965418355
0.9420352558144061 -1.3748646558806688 0.6518770377637318
0.9476249386005832 -1.4016882752476783 0.6418041259950577
0.9507526703352066 -1.4274396978671837 0.634850739421736
0.26786534061085815 -0.025731745765563467 -0.01372605019493737
0.26997766257600864 -0.050581408678998525 -0.028899985470691104
0.2739400180802957 -0.07380057795744409 -0.04495397816480955
0.2793615542100819 -0.09515330046994644 -0.061573170600464
0.2857066699294748 -0.11496796892723121 -0.07868094115538851
0.292353423572815 -0.133576801713617 -0.09613616787243905
0.2986756846387729 -0.1512561812100562 -0.1137215134324837
0.30400279591972146 -0.1682629935607169 -0.1311758822975949
0.307603028386669 -0.18479515276293848 -0.1481720957983318
0.30879814570763525 -0.20099001851895226 -0.1643431418729235
0.30707448426510464 -0.21697311062097008 -0.179395987828768
0.30208250458209207 -0.23288352959133218 -0.19317035325161822
0.2936118119512426 -0.248842083270798 -0.20553503501014603
0.2817100279105012 -0.26490015850479876 -0.21632316448131989
0.26669482683270257 -0.28107750701366696 -0.22538839580050568
0.2490829981096238 -0.29737908380343314 -0.23253958370394917
0.22955257556738906 -0.3137926482390357 -0.23758446392046292
0.20885448446695237 -0.33031040799693046 -0.24038321622372216
0.1876847915083843 -0.34695547553726924 -0.2408561422365166
0.1666096639608467 -0.36374023498083147 -0.2389426204729849
0.14601435109059108 -0.3806467838521672 -0.23462162651574608
0.12613203846644278 -0.39760623921972393 -0.22796948808087494
0.10709412364815432 -0.41456264717155733 -0.2192147245433262
0.0889911379214266 -0.43151597998623165 -0.2087152257012001
0.07195464336146182 -0.44848055173560886 -0.19694133820770246
0.056218534393649794 -0.46540617121269445 -0.18449080761669107
0.042137081301310914 -0.4821105468448463 -0.17208336898754117
0.030117879466043856 -0.49827429372078835 -0.16045572971712752
0.020582268074598536 -0.5134390644284873 -0.15024003030357644
0.013916815867767385 -0.5269556057572893 -0.14187677770104556
0.010261271490071222 -0.5380731628432565 -0.13557454839594005
0.009226769757224584 -0.5465175479644355 -0.13123339521787802
0.010267131019641551 -0.5526382172303114 -0.12856283617887213
0.012989299898148288 -0.5570845408188119 -0.12716347252279084
0.017616812815071492 -0.5605249936635431 -0.12677948270682943
0.024919788320472702 -0.5631112974395326 -0.12759348818793095
0.03557313971549314 -0.5644190840075629 -0.1300711492821971
0.0495927865324127 -0.56377876404368 -0.13456584569709748
0.06650671578102132 -0.5607039590932963 -0.14106800060378202
0.08567040115186436 -0.5550124019568259 -0.1493376699254685
0.10625852690151352 -0.5468576571868013 -0.15892085747000403
0.12751381340605522 -0.5366842258971645 -0.1692181760388608
0.14887741674348567 -0.5251361378605938 -0.17956384410383652
0.17000516421102274 -0.5129946050084584 -0.1892502194326151
0.19074680804678945 -0.5011065045719244 -0.19762448925127035
[...]
CELL_DATA 15
SCALARS ComponentValue float 1
LOOKUP_TABLE default
-2.0
-1.5714285714285716
-1.1428571428571428
-0.7142857142857144
-0.2857142857142858
0.1428571428571428
0.5714285714285712
1.0
1.4285714285714284
1.8571428571428568
2.2857142857142856
2.7142857142857144
3.1428571428571423
3.571428571428571
4.0
