# vtk DataFile Version 2.0
3D curve data
ASCII
DATASET POLYDATA
POINTS 1785 float
0.004388827860945747 -0.035029281800609 -0.010988537004794902
0.009995063479688896 -0.06780230246521408 -0.024613011395555863
0.01615890110612339 -0.09714754706320348 -0.0398082358526856
0.02255712316932477 -0.12301329291304142 -0.05582503314607241
0.028782852068351936 -0.14613748237690566 -0.0723163103581859
0.034259909962931004 -0.1670691682341759 -0.08895980526146112
0.038434774665946345 -0.1861024646824304 -0.10537825164029235
0.04088515411647783 -0.20339806941646024 -0.12116852675576326
0.04137968408190572 -0.2191376341088764 -0.1360261027351387
0.03978175961503434 -0.2336122993928749 -0.14984164928410038
0.03593114051768062 -0.2472070436015404 -0.16264941982348924
0.02958113775650531 -0.2603444933225556 -0.17448535659874922
0.020431011332403735 -0.2733758033547002 -0.18526992070342754
0.008240112379373644 -0.2864722060660279 -0.19477887009634764
-0.0069085210369579115 -0.29954889468420276 -0.20261715271089062
-0.024516236618835584 -0.31246174043119623 -0.20851725114396283
-0.04413842333573969 -0.325143483346843 -0.2123919520746923
-0.06534132005778558 -0.33751299056296546 -0.21413712298819335
-0.08766770741358478 -0.3495367914098987 -0.21369093367479516
-0.11062087993535911 -0.36122994253227386 -0.21105523698850054
-0.13374182805841162 -0.3726659135396704 -0.2062987592918722
-0.1566119539865819 -0.38393223513338537 -0.19949835907736954
-0.17879857048443565 -0.39511756178220786 -0.19074389589901297
-0.1998345755719954 -0.40629870314753563 -0.18018620911680866
-0.21924161813052848 -0.41751485731150284 -0.168113060594224
-0.23660675223207048 -0.4287762391902727 -0.15498501071409707
-0.2516575582972499 -0.4401341841951445 -0.14137499239392295
-0.2642154072191094 -0.45170178266176503 -0.12788764049498944
-0.27416188140878633 -0.46359545793641177 -0.11507889220576024
-0.2812741828049725 -0.4757817297492753 -0.10356315656621254
-0.2853910436951002 -0.48771809349846595 -0.09403190561812576
-0.2868203055454792 -0.49871572809513764 -0.08688323736038449
-0.28617609089975077 -0.5084401571238619 -0.08213974939424991
-0.2839430721114424 -0.5170171892916449 -0.07945445061821546
-0.2801416783981989 -0.5246300638481759 -0.07847453099545766
-0.2746412135413787 -0.5312169854868087 -0.079081800646483
-0.2672299213138106 -0.5366024602351579 -0.0813132528954329
-0.25740662932416003 -0.5404451132229615 -0.0854010962980507
-0.2445313116044326 -0.5421500792837931 -0.09176116892143961
-0.22836556135248862 -0.541103114946818 -0.10063287670782223
-0.20946866790665977 -0.5372757728412048 -0.11158398327889751
-0.18857798246811305 -0.5314631881284135 -0.1236683135906008
-0.16617526489166007 -0.5248728744189105 -0.13590239485192562
-0.14245669324723037 -0.518722631032538 -0.1474633586985198
-0.11740871884321079 -0.5140456820765585 -0.15774247965243285
-0.09093553479061783 -0.5116854644035177 -0.1662817458773042
-0.06296169723483674 -0.51238500394217 -0.17268163329280775
-0.03371426776324791 -0.5167880281065076 -0.17657495784032923
-0.004044725732770653 -0.52513996080431 -0.1777938105929729
0.024948179078772302 -0.5370436453456197 -0.17649167941374314
0.05243988480949691 -0.5517328253566681 -0.17299225638525345
0.07798792343044106 -0.568445343725506 -0.167630564684214
0.10145300850566287 -0.5865601447544662 -0.1607051806790678
0.12293371636358226 -0.6056429147073848 -0.1525074372326459
0.14266582270922662 -0.6254614127741718 -0.14335816412063615
0.16087027871498996 -0.6459225349392087 -0.13363436573392373
0.1776376515880722 -0.6669555962567887 -0.12374910315707563
0.1929262546843642 -0.6884309231615726 -0.11407691653945508
0.2066082075863633 -0.7101720134095681 -0.10488311575617076
0.21848507088015845 -0.731997764625589 -0.09634074914186147
0.22840191700119214 -0.7536919411734011 -0.0885872606789947
0.23640883628079926 -0.7751123571887463 -0.08162461050257502
0.24261350691227615 -0.7961890291457255 -0.07531993782584764
0.24717855395477614 -0.816848233473214 -0.06946662742479438
0.2503830871736653 -0.8370716137211972 -0.06378244415452353
0.2525616234533126 -0.8569271607581497 -0.057980455360102136
0.254052119041463 -0.8764872842110184 -0.051827902322637724
0.25519638814592194 -0.8957933957520094 -0.04515881852388971
0.25636237540638507 -0.914852693996604 -0.03785775911051804
0.2579621026663027 -0.9336509972634408 -0.02983391395680083
0.260434649242461 -0.9521452887170617 -0.021003129356948327
0.26420523068450275 -0.9702466447739118 -0.011293093243071416
0.2696298787351565 -0.987813049921034 -0.0006564239905280222
0.27695735570441526 -1.00465562652715 0.01092150577896284
0.28629625647561324 -1.0205610075437763 0.023430305352541796
0.29760690448906824 -1.035337159482988 0.036856094875283206
0.31070888128253227 -1.0488283428396021 0.05120997271853911
0.32529900275136586 -1.060911938835555 0.0665321728610834
0.34097020202218414 -1.0714854322804077 0.08285952736137199
0.3572647250385297 -1.0804811766816598 0.10019457180481844
0.373749241709463 -1.0878799003111554 0.11849611613158248
0.39009086143045973 -1.0937050306070812 0.13769381531848773
0.4061055327652927 -1.0979837910904495 0.15770318998961436
0.42176574908587433 -1.1007208225578573 0.1784231549812185
0.43716337153995477 -1.1018835059463805 0.19972515375460412
0.4524604318446035 -1.101443666646834 0.22144862916525276
0.46783336094710554 -1.099418164231827 0.24342656406149937
0.48341978156791887 -1.0959255114895392 0.2655184605799686
0.499290073749282 -1.091198068592775 0.28764530553796264
0.5154527625460422 -1.0855762247188643 0.30978941665213994
0.5318614131449579 -1.0794776379767936 0.3319629507178555
0.5484490499487514 -1.07334117373431 0.35417165868136674
0.5651540186532451 -1.067562371838303 0.376394782486878
0.5819186531475701 -1.062439075022068 0.39859168715851284
0.5986981021592093 -1.058136804105628 0.42072560465915954
0.6154375726623096 -1.0546992522228915 0.4427870128923368
0.6320599037280085 -1.0520960445027683 0.46479955920968286
0.6484653760197608 -1.0502766932203502 0.4868309672281825
0.6645515780842631 -1.0492425812509423 0.5089729754067807
0.6802210350189933 -1.049081184645185 0.5313113892980202
0.6953820280399293 -1.0499690885234414 0.5538759033681097
0.7099554963390111 -1.052151700892314 0.5766056122376171
0.7239051430903004 -1.0559201468582076 0.599336329543201
0.7372584473054122 -1.0615943989263301 0.6218193298007995
0.7501204659208277 -1.069520258742451 0.6437452098942475
0.7626513157170381 -1.080047256006383 0.6647692599413464
0.7750500525545786 -1.0935086048681921 0.6845118506806062
0.7875168042364408 -1.1102058128638188 0.702566030593328
0.8002008696211869 -1.130383769162878 0.7184793497489261
0.813137948607645 -1.1541610747621684 0.7317631882372508
0.8262297699047844 -1.1814539948047593 0.7419726024930455
0.8393018336284304 -1.2119586598811445 0.7488027537303439
0.8522247118122213 -1.245163931183028 0.752124934639727
0.8649593965042068 -1.2802752310313215 0.7520112702230803
0.8775251435527853 -1.3161381860843588 0.7487682021628306
0.8899681359822798 -1.351302606150383 0.7429133595005905
0.9023204119019782 -1.3841168045709082 0.7351719812212396
0.914461523894613 -1.4127901727508956 0.7265442147343688
0.9259292047954346 -1.4358484734596315 0.7181883748969295
0.27175301237197386 -0.03272215676846639 -0.011242886896325771
0.27697583341291837 -0.06390553161281586 -0.025070914950906298
0.28288685100570404 -0.09236607303697456 -0.0405005406378375
0.2891055467434275 -0.11788425334006127 -0.05680168341757982
0.2951852401280439 -0.1409738987698744 -0.07359857140070199
0.3005425521228171 -0.16204615174150522 -0.09055181730628291
0.3046169261135403 -0.18132351721120601 -0.10728365410095153
0.30696592203093 -0.19892689356903842 -0.12339673781386815
0.30732260164091435 -0.21500681694481055 -0.13858298015701753
0.3055165701200444 -0.22982306017164833 -0.15271232777787724
0.30137430051072295 -0.24373333810200906 -0.1657914281954409
0.2946609495804211 -0.2571449351277612 -0.17783971216250194
0.2851062945365357 -0.270409956306518 -0.1887765428655785
0.2725185403419587 -0.2837222227262116 -0.1983870399677188
0.25702363654442073 -0.29704720580135313 -0.206302264191138
0.2391411053086878 -0.3102880159151987 -0.21227187408645
0.21934373273721175 -0.3234032730315711 -0.2162109662508928
0.1980890097353638 -0.33632109467862453 -0.2180185982782271
0.17584085933301818 -0.348999862827991 -0.21763388448468826
0.15307656241693615 -0.3614375106728207 -0.21505642069822967
0.13021366731058323 -0.3736872934563511 -0.2103478731543822
0.10761757600107638 -0.3858171791713249 -0.20357926058703632
0.08566653220955142 -0.3978967383229275 -0.19484053877894514
0.06478523195966948 -0.4099836649789856 -0.18428929258801305
0.0454341637281957 -0.42209779227715505 -0.17222355566997816
0.02804044986832191 -0.4342274667324741 -0.15911486819860016
0.012921203451120078 -0.4463927800920292 -0.14554926645039687
0.0003142435500690932 -0.4586635112183732 -0.13214559950710128
-0.00959652988396048 -0.47109644594240374 -0.11948146394823818
-0.016567645855009083 -0.48359320623446017 -0.1081669863480632
-0.02046465715436374 -0.49561405006581444 -0.09883696255398806
-0.021616507261061846 -0.506537034905928 -0.0918252801977027
-0.020628266596053546 -0.5161024077172365 -0.08711383962026265
-0.017972611730391386 -0.5244657865765641 -0.08436307494146983
-0.013679862289866673 -0.5318462090676891 -0.08323731204555468
-0.0075984855474381385 -0.5382313037978571 -0.08363311973555945
0.00051248104102114 -0.5434515403125663 -0.0856064697597002
0.01111825767955199 -0.5471473885250588 -0.08937597841463525
0.02474140303584968 -0.5487442955302575 -0.09528625428162
0.041491035390112285 -0.5477037494820294 -0.10350030823633873
0.06076140873023367 -0.544044681451352 -0.11359525669720273
0.08182679692347875 -0.5385145667725489 -0.12471488413581064
0.10421894665654516 -0.5322171394417995 -0.1359775078377321
0.12773700635733937 -0.5262675915151487 -0.14663787153265978
0.15237207632042765 -0.5216254017363643 -0.1561331627545952
[...]
CELL_DATA 15
SCALARS ComponentValue float 1
LOOKUP_TABLE default
-2.0
-1.5714285714285716
-1.1428571428571428
-0.7142857142857144
-0.2857142857142858
0.1428571428571428
0.5714285714285712
1.0
1.4285714285714284
1.8571428571428568
2.2857142857142856
2.7142857142857144
3.1428571428571423
3.571428571428571
4.0
