# vtk DataFile Version 2.0
3D curve data
ASCII
DATASET POLYDATA
POINTS 1785 float
-0.0016843314560842603 -0.01909564798752635 -0.014946506714083548
-0.0013188979054882533 -0.03903163825370981 -0.03132917546454807
0.0006221278887320513 -0.05958655177271517 -0.04891877656435209
0.003364934394895759 -0.08031455374395143 -0.06744934777201256
0.0061291610678579 -0.10049589271045282 -0.08658796394430077
0.00824538196136046 -0.1195756593479705 -0.10609925345200115
0.009091706858896266 -0.1372200126790841 -0.12581991906113518
0.008111886080101317 -0.15328073522196317 -0.14558129607396106
0.0048462368704484705 -0.1678048641138321 -0.16514925754290236
-0.0010201155376819673 -0.18098219225771542 -0.18415203229455518
-0.009534311832858636 -0.193086038629678 -0.20209945904417792
-0.020472960687157787 -0.20449096286823892 -0.21850505967219258
-0.03348946182026886 -0.21563521332852317 -0.23292458317661913
-0.04817812433870357 -0.2269137552078228 -0.24492433100468286
-0.06404264338801055 -0.23863762784529158 -0.2541213874907694
-0.08053246276609635 -0.25108061522673514 -0.2603650665285329
-0.09732106472713803 -0.264504995421626 -0.2637239252418842
-0.11433260898339882 -0.2790658886433215 -0.26428361983763143
-0.13158889028632473 -0.2947278303868661 -0.26207329882910063
-0.14898867791229858 -0.31128509529010034 -0.2571666379024349
-0.1664070988936389 -0.32850069039249935 -0.24975144534001428
-0.18371428692110947 -0.34612510472805036 -0.24007392835872735
-0.2007114445629481 -0.36391240383271567 -0.22844284105777726
-0.21707377570962455 -0.38162846331004596 -0.21524798725083322
-0.23229464706796782 -0.3990246274056243 -0.20099228632587743
-0.24566976406719498 -0.41579606846178474 -0.18632452609500896
-0.2564328270256671 -0.4315206579134651 -0.17198845376133087
-0.2640619934660885 -0.44573748373841593 -0.1586184470264935
-0.2684599811435603 -0.4581475839872881 -0.14656852709281204
-0.26985958829736206 -0.46873157352394307 -0.13590851863842018
-0.2686321475010819 -0.47768463431539215 -0.1265094935695599
-0.2651892015696572 -0.4854207715750478 -0.11813437636717489
-0.2598043478113725 -0.49256466965961876 -0.1105723409210354
-0.25251539360760167 -0.4996170152019862 -0.10362758528442807
-0.24317980777001572 -0.506648105640619 -0.09723155667476709
-0.2316380452057574 -0.5134533807580847 -0.09143328313463187
-0.2177589919752182 -0.5197479121582635 -0.086296371499214
-0.20157301202374142 -0.5251968667722879 -0.08186584776350785
-0.1832662912670391 -0.529524992181633 -0.07813869955281663
-0.16308632387221558 -0.5325855607328683 -0.07508820575853749
-0.14142244964005027 -0.5344530304465819 -0.07259766147488872
-0.11865316648493388 -0.535485909586346 -0.07049012693565396
-0.0951414858675842 -0.5362305708139541 -0.06866392022477491
-0.07126936810141303 -0.5372936489464487 -0.06713896198484275
-0.047392544276133895 -0.5392431895338432 -0.06604633324207057
-0.023762805158644575 -0.5425417438897915 -0.06556501705973483
-0.0004897052800764638 -0.5475527257316385 -0.06583031849848703
0.022318564537745948 -0.5545593277611796 -0.06689166100296715
0.04432017965786956 -0.563590898314004 -0.06876427353550693
0.06511326319961028 -0.5742608901746751 -0.07144220654322253
0.08453632467731428 -0.5859610704401528 -0.07482433835059854
0.10269525200501413 -0.598174257348558 -0.07868956712744463
0.11982030189705849 -0.6106611180613469 -0.08275798381890816
0.13608363166141632 -0.6234590887319421 -0.08676628754996343
0.15146368766100624 -0.6367340858043514 -0.09049890536404681
0.16575056484343945 -0.6505981957037129 -0.09377760916601317
0.17867673450836877 -0.6650431200496775 -0.0964568260250027
0.19003410992241498 -0.6799958949152753 -0.09845646852686357
0.19967197794581296 -0.6954197742001688 -0.09978844930300469
0.2074748015504422 -0.7112917414098502 -0.10057721689268473
0.2135139877807954 -0.7275772845745417 -0.10105858457032747
0.21818410506110886 -0.7443312393997418 -0.101401412737052
0.22195053275203802 -0.7617461017641136 -0.10165245247766472
0.2252009398448855 -0.7800164481940437 -0.10182066917167633
0.2282369890627374 -0.7992815559135893 -0.1018728370828924
0.23126734925022888 -0.819598845336371 -0.10171096335020462
0.23443639915808334 -0.840956079723714 -0.10116112133540729
0.2378913350308453 -0.8632637361890396 -0.09996450216705098
0.24183380734867363 -0.8863176036674582 -0.0977887805389418
0.24651269748638843 -0.9097367884663359 -0.09426848600028001
0.25216137005547695 -0.932945525373598 -0.08906793579477136
0.25893428988221934 -0.9552635005625884 -0.08194261359998589
0.26690288025116793 -0.9760510561688659 -0.07276727860234553
0.2761050126638727 -0.9948450782664253 -0.06151285582815015
0.2865835731300935 -1.0114000093259468 -0.04819113124941467
0.29837743062177735 -1.0256438697928782 -0.03281512802838195
0.3114722454739169 -1.0376193517597179 -0.01540673773432644
0.32573560816915453 -1.0474286253048606 0.003947714535860939
0.34088853014075643 -1.0552571883043245 0.025050665520773428
0.35653923534957727 -1.0613841168166647 0.04760274393829351
0.37228115305155984 -1.0661594057065285 0.07127501807713926
0.3877972058881659 -1.0699217471587084 0.09578279859594156
0.4029013069344297 -1.0729249024456886 0.12092141296281046
0.4175356955512957 -1.075299216474358 0.14655266586665527
0.43172841047338145 -1.0770431657196635 0.17256854969763863
0.44555219044773353 -1.0780535741705206 0.19886220557606862
0.45908289547575093 -1.0781579095565095 0.22532936857395747
0.47238214970051484 -1.0771795339211108 0.25188643464674026
0.48550331036004996 -1.0749910776109681 0.27849201170885424
0.498510567812461 -1.071558150482197 0.3051514737192003
0.5114985941022754 -1.0669628181340833 0.3318736882187655
0.5245947548519567 -1.0614229539823739 0.358635200577529
0.5379504178758296 -1.0552938708368262 0.3853605246585722
0.5517142107327796 -1.0490465786904426 0.4119541491408492
0.5660311791973258 -1.0432146970591307 0.43835467993522836
0.5810229570102042 -1.0383497364827208 0.4645607629521191
0.5967651439036945 -1.0349883997630576 0.49059869710003345
0.6132576544212458 -1.03360777247202 0.516467227707783
0.6304119583053704 -1.034568762845471 0.5421260089221949
0.6481020707942191 -1.0380632202645734 0.5675309649877182
0.6662199079910645 -1.0441303310382664 0.5926596426852732
0.684714195804481 -1.0527196061193094 0.617487411092373
0.7035709785729467 -1.0637581047556703 0.6419091184071871
0.7227861843998851 -1.0771840331416258 0.665622446280119
0.7422765619900197 -1.0929177095827447 0.6880694003188944
0.7618528966138836 -1.1108004404482996 0.7084945014728743
0.781236641337331 -1.1305953048114719 0.7261526505133789
0.8001456181878812 -1.1520549768581119 0.7405072459179467
0.8183428804050589 -1.1749641525311756 0.7512886198832806
0.8356608832844579 -1.199114033159513 0.7584721089012856
0.8519731214508728 -1.2242289407408757 0.762271389705533
0.8672149826774526 -1.2499703153221056 0.7631267853872599
0.8813871239072054 -1.2760110419510904 0.7616120280396959
0.8945545008354597 -1.3020699412291286 0.7582894163278447
0.9068606146483706 -1.3279073526809277 0.7536278163828234
0.9184793825417946 -1.3532139237925391 0.7480455546763692
0.9295262861142427 -1.3774686503735072 0.7419857128880925
0.9399216627384182 -1.399924891784645 0.7359642026022836
0.9493932981857179 -1.4199148396465489 0.730479283436572
0.26658846684005755 -0.01922885071766745 -0.0145534003264843
0.2673176070946464 -0.03944726790766703 -0.030707075512225936
0.26958550285937916 -0.06033918424067153 -0.04817536873614118
0.27263856698780253 -0.0813989292310213 -0.0666299713690348
0.2757136073907667 -0.101913116980655 -0.08569825180883126
0.27815008411294534 -0.12134830221029713 -0.10511098197090335
0.27933171591214445 -0.13938531889684888 -0.12467121633210153
0.2787045474539281 -0.15587843541414764 -0.14417968300878006
0.2758092814130451 -0.17086483872579727 -0.16338549284368029
0.2703245156125468 -0.18452138418284544 -0.18193328861094177
0.2621717034147075 -0.19711168501512835 -0.199386014291725
0.25151432280095715 -0.20899865082404182 -0.21532487192790992
0.23863619331363237 -0.22060426712125275 -0.22936324175153772
0.22390663438887995 -0.23231404031557654 -0.24110652720419717
0.20781323614353595 -0.24444083690658686 -0.2501908472712409
0.19092337394962744 -0.25725690456173933 -0.2564558215018442
0.17360959113049562 -0.27100961408967866 -0.25994169283216856
0.15601486751445565 -0.2858296379116059 -0.26071024902901546
0.13817891682674954 -0.3016682500562543 -0.25878337949281804
0.12023052116945096 -0.31832863701352554 -0.2542268986907651
0.10229778892904903 -0.3355958959246821 -0.24720669067457382
0.08450136850355999 -0.35324912246845197 -0.23793876019889362
0.06702507569596494 -0.37107037962656614 -0.22670078672238192
0.05017735126439807 -0.38884778190786984 -0.21385747452629802
0.034446610059964855 -0.4063489751355551 -0.19989509743701825
0.020513971738874204 -0.4232840108938345 -0.18545008366207666
0.009128627933976619 -0.4392530517322152 -0.17125793001699116
0.0008312544603064631 -0.45381410732733507 -0.15796568567405042
-0.004217809083919777 -0.46665050751261083 -0.14597830685151245
-0.006193204193329083 -0.47767839152619723 -0.135437599851442
-0.005453500772476971 -0.487025606721531 -0.12627142009396697
-0.00243044302242007 -0.49506545609340696 -0.11826031502467446
0.0025979836899314157 -0.5023947080582797 -0.11117035437987982
0.00960405085700261 -0.5094804602120973 -0.10478961722381766
0.018726591011928945 -0.5163916000819878 -0.09903749479749566
0.030122537706839925 -0.5229512546373575 -0.09394679526306993
0.04392024378570572 -0.5288998790062771 -0.08957698278980865
0.0600800772392826 -0.5339193283219533 -0.08597795841384184
0.07838812549155003 -0.5377430493702874 -0.08315032207811159
0.0985437428434616 -0.5402341968695221 -0.08106012807972003
0.1201062922726073 -0.5414795503684292 -0.07957508125153669
0.14266604781614312 -0.5418398078761376 -0.07849742019597143
0.16586003209672728 -0.5418510250526075 -0.07769115299451407
0.18933571025175283 -0.5421049924462796 -0.07712570598282406
[...]
CELL_DATA 15
SCALARS ComponentValue float 1
LOOKUP_TABLE default
-2.0
-1.5714285714285716
-1.1428571428571428
-0.7142857142857144
-0.2857142857142858
0.1428571428571428
0.5714285714285712
1.0
1.4285714285714284
1.8571428571428568
2.2857142857142856
2.7142857142857144
3.1428571428571423
3.571428571428571
4.0
