# vtk DataFile Version 2.0
3D curve data
ASCII
DATASET POLYDATA
POINTS 1785 float
0.0005082653684431737 -0.01577376316752274 -0.016368529547526885
0.005062018868384061 -0.03480178381357772 -0.03373338219937065
0.012888571325902182 -0.05648268627106588 -0.051737492631262705
0.022600294262762437 -0.07967776483392192 -0.06994942926937502
0.032570428369869654 -0.1030051175277696 -0.08797896204775989
0.04131841390090753 -0.12527723891784634 -0.10554608889842054
0.04762467181367653 -0.14567614865080022 -0.12247025431829157
0.05061933747933117 -0.1638297471871467 -0.13869478667165253
0.04978316150976427 -0.17984870051613128 -0.15436012573844782
0.04474682040790164 -0.19417101127985303 -0.16975892374891283
0.035139703882061786 -0.20733353065044735 -0.18513717504119007
0.02075678684400441 -0.21983781568355082 -0.20039894565495742
0.002191994866045096 -0.2320960915299711 -0.2149054050551006
-0.01892568072898042 -0.24468041186698936 -0.22791863414471175
-0.040984443383283574 -0.2583328672276952 -0.23909781871155208
-0.06291580778981745 -0.2735565853791639 -0.24826691337979115
-0.0840322518363558 -0.2904704110781244 -0.25520095497377465
-0.10398733122565108 -0.3088978236586023 -0.25963238368868163
-0.12278900992553426 -0.32850909081404644 -0.2612952268105411
-0.1407494624151417 -0.34896685278305983 -0.2599497558377907
-0.1583174524312069 -0.36998832434634504 -0.2553769740960147
-0.1759242619553328 -0.3913864761282553 -0.2474117015816604
-0.19387885785760392 -0.4131030263692247 -0.2359665287512707
-0.21225671666957469 -0.4351966985930297 -0.22107589952474152
-0.23076500063642624 -0.45775994283732796 -0.2030390824834256
-0.2485862095769847 -0.4807341556495623 -0.1826374155942322
-0.2643962443481617 -0.5035838899700857 -0.16123576353743382
-0.27681920478649114 -0.525223861192746 -0.14048157863277458
-0.28485009893482316 -0.5443314935081616 -0.12187663728273708
-0.2880237355755366 -0.5595535404641836 -0.10671732061965418
-0.2870589115278356 -0.569817697865938 -0.0956888959452048
-0.28379249741524315 -0.5756579838861307 -0.08808945907803264
-0.2792284333126592 -0.5786259221673307 -0.08267831462553472
-0.27321076384978776 -0.5797364770152905 -0.07850327436267672
-0.2651602237444959 -0.5793110395225767 -0.07514842170987146
-0.2546590609516558 -0.5774390890820875 -0.07259238068240298
-0.24157900239391303 -0.5742411254112315 -0.07105538220405802
-0.22613582234471377 -0.5699219691284148 -0.07084134820177243
-0.2085542779214285 -0.5647247413073084 -0.07216649791820307
-0.18893365972929238 -0.5587948162439517 -0.07520360840796787
-0.16755459442055007 -0.5522834456422601 -0.08001005690234723
-0.1448271699627806 -0.5454620876760858 -0.08649711826939119
-0.12122076617080574 -0.5387408271004828 -0.09446346604752288
-0.0972098816251809 -0.5327107785167307 -0.10355879466594163
-0.07316260341174438 -0.5281108944025816 -0.11326829531711002
-0.049346522864407126 -0.5257337253264643 -0.12296849293446888
-0.026049306045618826 -0.5262433584491545 -0.13206610031989927
-0.003605183559441687 -0.5300062247645917 -0.14011516605527896
0.017635616677651438 -0.5370394754283166 -0.14684330250187022
0.03733749088124118 -0.5470245082421089 -0.1521405714916312
0.055265122049852844 -0.5593475579804519 -0.1560324368806033
0.07143226469088171 -0.573309230268285 -0.15865658873888216
0.08608750912398323 -0.5884173760240151 -0.16021279430916222
0.09953872357374732 -0.6044976720130877 -0.1609052521298229
0.11200220040687327 -0.6215968576903318 -0.16089452487633812
0.12355880604685565 -0.6398400399617047 -0.16026666705047668
0.13418942004412193 -0.6593519323160186 -0.1590193356079334
0.14382891405972992 -0.6802439841233119 -0.15707534761291841
0.15240702076444837 -0.7026006456900037 -0.1543160255958155
0.15989843953029304 -0.7264494550601249 -0.15063833755027525
0.16641851977950564 -0.75169996975271 -0.1460041227769986
0.17229663757152616 -0.7781624867549096 -0.1404020854670004
0.17798321743778178 -0.805586064541686 -0.13381779742932673
0.1839350684464168 -0.8336577562696681 -0.1262558440153174
0.19055053850244968 -0.8619888976762927 -0.117738327500536
0.1981203994858654 -0.8901575001413812 -0.10828965891425675
0.20681127596353566 -0.9177537656707067 -0.09791245839517804
0.2166865576512031 -0.9444275439801271 -0.08656091583480593
0.2277356129617005 -0.9698757454605049 -0.07414898411187439
0.23986815117917237 -0.9938060185207347 -0.0606089733806681
0.2529113421435025 -1.015938960592848 -0.04595936767967299
0.26662791892615056 -1.0360564455746428 -0.030342147386021416
0.2807683839108975 -1.0540496822964656 -0.01400886667186332
0.2951417182997949 -1.0699726710357826 0.0027601761570908746
0.3096975524325428 -1.0840122305959152 0.019797809795449053
0.3245722955833711 -1.0963490580651016 0.037126811291888766
0.33998605673533666 -1.1069980281312488 0.054832479368269564
0.35609272061536507 -1.1158330848611766 0.0729201022744115
0.3728863219798771 -1.122712394877476 0.09130230920667315
0.3901968322864641 -1.1276162789367874 0.10988524142135586
0.40779811471185773 -1.1307164611126064 0.12867815903511334
0.425502503669564 -1.1323137427484822 0.14781677275295713
0.4431547567013878 -1.1327532253125339 0.16752257234919915
0.4606216306351354 -1.1323643346484442 0.18804070741587117
0.47779783931722136 -1.1314228935065704 0.20958261604606854
0.49462585791618513 -1.1301476264920332 0.23229060471987772
0.5111118808682956 -1.1286973200307908 0.25623238205240706
0.5273098459258093 -1.1271861661437441 0.2814158082824234
0.5433088862916677 -1.125684350827979 0.3077804163939073
0.5592124149911004 -1.1242071462575436 0.3351610979582437
0.5751204699906931 -1.1227471639363784 0.3632312823545934
0.5910951952338968 -1.1213077055340568 0.3915137707744105
0.6071588046038289 -1.119934956373371 0.4194602552113988
0.6233029866790224 -1.1187592211534239 0.44659847842388084
0.6394997345886837 -1.117993883352266 0.47261908242930983
0.6556989491976748 -1.1179174533302954 0.49738977337077966
0.6718023054853569 -1.1188358640997604 0.5208866101345548
0.6876738504265641 -1.1210161093585398 0.5431354668039249
0.7031509980959796 -1.1246346545004018 0.564158530002215
0.7180842596191459 -1.1297544084277968 0.5839652441808124
0.7323582046368577 -1.1363451327497889 0.6025698010375106
0.7459279957646302 -1.1443132888803955 0.6200180660023058
0.758832776044715 -1.153560280721475 0.6364148775427059
0.7712064768283153 -1.1640294746044906 0.651888832469086
0.7832196930878107 -1.1756853251079884 0.6664863176007394
0.7949743459842329 -1.1884600573919335 0.6801388201940362
0.8064948377555887 -1.2022361592802295 0.6927824465335913
0.8177842865019135 -1.216888092334076 0.7044727344961892
0.8288720615120077 -1.232331918106398 0.7154103284393692
0.839850381453861 -1.248553233419162 0.7258879438929338
0.8508573567089284 -1.2655917507614067 0.7361963235158195
0.8620563876909549 -1.283492315942297 0.74651524017397
0.873580859307987 -1.3022468049503675 0.7568377210706262
0.8854897670952504 -1.3217508041663555 0.7669510929590553
0.8977737342211813 -1.3417689520389495 0.7764969342551302
0.9103553191851107 -1.3618946570973791 0.7850435320505054
0.9230040582745626 -1.381466385708191 0.7921040485679013
0.935285105120331 -1.3997957862370327 0.7972138431625444
0.9468496820271806 -1.4165929548265452 0.8001617120907086
0.2684725715055205 -0.01631898188754681 -0.015735935559428475
0.2728139656486017 -0.03574669074453327 -0.03271418293526775
0.28015017442839507 -0.05760582288737031 -0.050516500700065636
0.28919049663040813 -0.08077633122001536 -0.06867061189071409
0.29845342662939295 -0.10397982188176708 -0.08675835079612364
0.30659486409014797 -0.1261526948161218 -0.10447608321275342
0.3124891019622631 -0.1465708138358213 -0.12161821424613059
0.3153002632522352 -0.16489565381516724 -0.13808971444789167
0.31449755556155246 -0.1812040861994276 -0.15396352599719723
0.30971176344316853 -0.19586753526918185 -0.16944106004932924
0.3006193775865079 -0.2093743624831251 -0.18469341709234527
0.28705112576254344 -0.22221520183163576 -0.1996245691068505
0.26949249108382234 -0.23480345113894993 -0.2136905946610101
0.24931316642353213 -0.24767024857984532 -0.2262550094335964
0.22793073082097215 -0.26148532149388737 -0.2370019939521102
0.20636294608286906 -0.27671002813797074 -0.24575782736641671
0.1853072394152545 -0.29346706097246666 -0.2523160215285911
0.16515560350799208 -0.3116046330842041 -0.25643161391912417
0.14597154188273587 -0.3308252912728332 -0.2578639682965792
0.12752899247662436 -0.35082269591028103 -0.2564008830436133
0.10945764017500215 -0.37134405610003846 -0.2518540465567855
0.09139057440020065 -0.392221254076401 -0.2440871101118156
0.07307203867671316 -0.4133955032336789 -0.23304369830949698
0.05446566481962126 -0.43490474912744664 -0.2187930588141708
0.03587588434823638 -0.4568092408485995 -0.2016562820231146
0.018077365568625353 -0.47903263712715544 -0.18238633687048708
0.002289007591392167 -0.501087334186233 -0.16224083843863024
-0.010221505342933201 -0.5220142319245845 -0.14271577435613264
-0.018502926212973447 -0.5406318626644023 -0.12518488925424115
-0.02209868802329612 -0.5556989725726331 -0.11083331763038355
-0.021626047004990656 -0.5662037159155272 -0.10029300484014629
-0.01875131518649048 -0.5725564701261654 -0.092974758644183
-0.01446052468150999 -0.5761515432638495 -0.0877816860501818
-0.008680587391408034 -0.5779839372855343 -0.08383465693865286
-0.0008714225882529014 -0.5784189859472313 -0.080721577805124
0.00942177524316179 -0.5775327221969158 -0.07840999645907534
0.022384165761102526 -0.5753695176444281 -0.07710936426415843
0.03784453380046138 -0.5720330419630442 -0.07711057175827164
0.05555824955222868 -0.5676857024765611 -0.07861768416909243
0.07533455645547849 -0.56244687933721 -0.0817729953127731
0.09680121745397538 -0.5564788059618399 -0.08658617110180941
0.11949919686759611 -0.5500748157238028 -0.09292056545582535
0.14295556892350084 -0.5436592494922384 -0.10054059568725371
0.1667212442778924 -0.5378141867123621 -0.10908913720248964
0.19045984915877442 -0.5332458506306933 -0.1180799632179285
[...]
CELL_DATA 15
SCALARS ComponentValue float 1
LOOKUP_TABLE default
-2.0
-1.5714285714285716
-1.1428571428571428
-0.7142857142857144
-0.2857142857142858
0.1428571428571428
0.5714285714285712
1.0
1.4285714285714284
1.8571428571428568
2.2857142857142856
2.7142857142857144
3.1428571428571423
3.571428571428571
4.0
