# vtk DataFile Version 2.0
3D curve data
ASCII
DATASET POLYDATA
POINTS 1785 float
-0.0021196463465436716 -0.015466029101616142 -0.0019864203316639307
-0.0034242376799399205 -0.03355386041315436 -0.006603537816068684
-0.004362868443953054 -0.053837825937642025 -0.013701053774892072
-0.005561951849295917 -0.07510351975674603 -0.022561830521588458
-0.007489332946592135 -0.09614912503834967 -0.03229719329966267
-0.010475333718906474 -0.116403435596047 -0.04223465165079889
-0.014864748055897858 -0.13579612627671792 -0.05192616162037693
-0.021052609944754504 -0.15453283850796418 -0.0610504535840569
-0.02944520265786592 -0.17291834906852507 -0.06932520173220147
-0.0403446331498834 -0.19121039911526333 -0.0764610028330917
-0.053817183884425204 -0.20954166268124358 -0.08214931553434841
-0.06968844828354248 -0.2279636768423376 -0.08607257625534519
-0.08760875444450236 -0.24647060080626498 -0.08789790212611506
-0.10714805935930972 -0.26501992263060004 -0.0873354722408021
-0.12791336450590277 -0.2834775688359615 -0.08414934598631228
-0.14949705509739086 -0.3016067047777155 -0.07822289478672953
-0.17158176069681574 -0.31913918088935467 -0.06956343447186852
-0.19391561833861465 -0.3358174543834215 -0.058254246535820044
-0.21629554206258142 -0.3515186271150938 -0.04449536245076343
-0.2387030915685181 -0.3663241923535479 -0.02849380133602945
-0.2610823233157221 -0.3804613895217264 -0.010443415637295795
-0.28319308075914373 -0.3942958683990975 0.00935787837521173
-0.3045912609556512 -0.40825216741762105 0.030476614587614533
-0.3246346341707571 -0.4226880638432582 0.05231098501208991
-0.3425393541751476 -0.437784804178884 0.07406656633559995
-0.3574998081180212 -0.4534744543341443 0.09479171251488742
-0.36884610108428506 -0.4694169244854265 0.11350059303712991
-0.376129830950291 -0.48503835560858943 0.1293034082505575
-0.3791784568014296 -0.4994854268398492 0.14142339552601346
-0.37848595467325546 -0.5118531527718235 0.14962625688059192
-0.37483041864171 -0.5219915934805459 0.1544304649519683
-0.3685322803020386 -0.5302971086299456 0.1564588423446798
-0.3592682211224478 -0.5371233586924289 0.1559059183170604
-0.3466180691433821 -0.5424373188832347 0.15252328890762432
-0.33055902449560975 -0.5460989934393908 0.14611191229382858
-0.3114487056636971 -0.5480990340894605 0.13675529141735807
-0.28991886957061924 -0.548485844392308 0.12474985913850152
-0.26713722170169957 -0.5473507168192199 0.11074222625420502
-0.2444758784603709 -0.5449339444270029 0.0957846679905959
-0.22290925657681318 -0.5415462977759155 0.08095512874787758
-0.20278868568534186 -0.5374783912963389 0.06708377456411473
-0.1840770029484948 -0.5330351145070307 0.05479230292946755
-0.16653523342536225 -0.5285946193124745 0.044547233776150635
-0.14983577683319063 -0.5245755161601978 0.0366254694275628
-0.13365861189102796 -0.5213966859711668 0.031119669217542174
-0.11773485828845423 -0.5194732041566352 0.02798874859692737
-0.10185221504242047 -0.519211871905299 0.027118551961031342
-0.0859207919733725 -0.5210058706673532 0.02837504468318714
-0.07007359897410564 -0.52517878492631 0.03158279455206643
-0.05460405114948826 -0.5319001262075316 0.03647387360125381
-0.03980773693812035 -0.5411912656744795 0.04271480185750473
-0.025889855428531353 -0.5529842161990008 0.049967957951024516
-0.012945902052543643 -0.5671882242723184 0.05794003272464266
-0.001025649401441883 -0.5836971233200455 0.06638127310412027
0.009796822147405355 -0.602250557506944 0.07504532962660601
0.019499596990134774 -0.6223329262351965 0.08370948785506974
0.028201961959920786 -0.6433629198671496 0.0922411826811262
0.03608656120028762 -0.6648789493036543 0.10059559760997018
0.043290587154100404 -0.6865609152210328 0.10876871392977694
0.04985696619736549 -0.708201841962727 0.11675711595717574
0.05579419070881622 -0.7296535446469972 0.12455508639455809
0.06116778978974593 -0.7508712206250424 0.13224233854903633
0.06605766781717229 -0.7719072053338976 0.13998761517832134
0.07055684965092329 -0.7928194210687817 0.14797665988346556
0.07481463428126933 -0.8136387330617465 0.15639939917269555
0.0790529013527781 -0.834355293980773 0.16545370041780819
0.08355535088814675 -0.8548775156863803 0.17534248561630328
0.08862792486987522 -0.875018693029259 0.18626117173826384
0.09455643797997146 -0.8945311353793106 0.19838300265008285
0.10159081666815452 -0.9131713185007212 0.21186373354771657
0.10994547978129651 -0.930718033832008 0.22685558019278496
0.11977170274867881 -0.9469479681959432 0.24350570274578925
0.1311222906240388 -0.9616239335843614 0.26192938343745686
0.14393011053853788 -0.9745192353064129 0.2821852405964251
0.15802406801979257 -0.9854493922928659 0.3042784239114087
0.1731511154130857 -0.9942879299394939 0.3281667426602096
0.1889832976146974 -1.000978156056543 0.3537232786188632
0.20515462282544078 -1.0055623220184446 0.38072278683469757
0.22133582980009756 -1.0081781545093065 0.40887398785437934
0.23729140389501993 -1.0089721262143752 0.4378322323839673
0.25285168867031427 -1.008059922285449 0.46717885433811634
0.26788738498642245 -1.005549759082494 0.4964504150667643
0.2823315430153585 -1.0015732398369943 0.5252189690640237
0.29621625767861504 -0.9962770507716768 0.5531883177655113
0.30964534429386587 -0.9898125734565958 0.5802432942346815
0.32275396732519374 -0.9823301192567195 0.606410747001634
0.3356859214200996 -0.973984971896317 0.6317869484238643
0.348586805510622 -0.9649627163534404 0.6564806048420166
0.36159682378594465 -0.9554962755226619 0.6805754934791308
0.3748387109132195 -0.9458770259687299 0.7041332050008293
0.38840921365901127 -0.9364625091874256 0.7272049386032917
0.40238115770361443 -0.9276393889565862 0.7498548753461592
0.4168008324544759 -0.9197946602884691 0.7721697914434908
0.4316757844361968 -0.9132717038750872 0.7942400550985983
0.4469670389132464 -0.9083578699666562 0.8161391940187093
0.4625771663343409 -0.9052636098577157 0.8379034843534786
0.4783580830679682 -0.9041416995577434 0.8595052866393769
0.4941234403090025 -0.9051133976440341 0.8808606195250097
0.5096626949058021 -0.9082978643406541 0.9018201492766961
0.5247789596334688 -0.9138361313313447 0.9221747382473824
0.5393291273601161 -0.9218901775164876 0.9416544767442153
0.5532634988648797 -0.9326424514766435 0.9599554916399027
0.5666483347660095 -0.9463104081278789 0.9767695463096822
0.5796512136903553 -0.9631642068755885 0.9918052887505941
0.5924952434918107 -0.9835376730676229 1.0047814424461152
0.6054060664129917 -1.0077735948237805 1.01538334102958
0.6185446678700678 -1.0360754811744248 1.0232236324180874
0.6319491264168334 -1.0683176409865072 1.0278886700079954
0.6455024693449377 -1.1039073330766256 1.0290867917715552
0.658976773714293 -1.1417617045954263 1.0268140767051974
0.6721185142346439 -1.1804937735427221 1.0214524583625901
0.6847406785797066 -1.2187278613221413 1.013704083836836
0.6967805845092945 -1.2553740449303925 1.004398971803808
0.7082998774436975 -1.2897257933123722 0.9942933250536092
0.7194708703077232 -1.321380629358261 0.9839966164058758
0.7305036521523987 -1.3500358219066468 0.9740559153319314
0.7415209861479842 -1.375409333220174 0.9649615011857262
0.7524900699790688 -1.3973995531889871 0.9570323319375453
0.7633309067073601 -1.4162852207606387 0.9503347160505007
0.2661242576229141 -0.01595268984448772 -0.0031205271467567514
0.2653179338065813 -0.03450704112523267 -0.008895864364497281
0.2650048258095237 -0.05514313256242076 -0.01712835945652221
0.2645535890101732 -0.07665642618331857 -0.027081283071436122
0.26346760473763015 -0.0978963742800841 -0.03787885742982652
0.26138349438297276 -0.11830691018347984 -0.048863792867054556
0.25793712012713715 -0.13779296643193442 -0.05959513351421121
0.2527337902450214 -0.15651220738959737 -0.06975578833389104
0.24538165765003261 -0.17472303494829927 -0.07907727793402972
0.23558115094099902 -0.1926658127970033 -0.08730050185402997
0.22322726526382003 -0.21049654749216576 -0.09415466151493423
0.20841719675416992 -0.228314933102681 -0.09935210187875354
0.19141620693292416 -0.24616768906137126 -0.10257430584848373
0.1726060800293454 -0.26406065553552466 -0.10352934038461792
0.1523868573764432 -0.28191451078548013 -0.10197654018614132
0.13120389491896628 -0.29955281002484774 -0.09779563207439029
0.10941934387784924 -0.31676239795151245 -0.09098626652562933
0.08732671581930965 -0.33332157474508795 -0.08161334569155348
0.06515913857085867 -0.3491151329828067 -0.0698420922831129
0.0429702073710731 -0.36420417676043654 -0.05584659300084321
0.020824172339149127 -0.3787790841290348 -0.039787355353253964
-0.0010710959236182593 -0.39314921892068827 -0.02190860080504875
-0.02232824089508395 -0.40767101857670196 -0.0025779729371078713
-0.042367745285252945 -0.4226385953231588 0.0176700120530873
-0.06045670844845863 -0.43818789993522295 0.03810171633130928
-0.07581433333651683 -0.45423341847549165 0.05781282551721057
-0.08775940679865296 -0.4704476908268332 0.07584263017181964
-0.0957981515491726 -0.4862910489064188 0.09130067819335302
-0.0996841298603724 -0.5009561735922484 0.10338918751897405
-0.09980865737415157 -0.5135635804842341 0.11180263507295357
-0.09691641669526413 -0.523905682655308 0.11695725062050649
-0.09144664190533186 -0.5323232364660898 0.11945970141249844
-0.08325069593453094 -0.5392380729022439 0.1196205441869784
-0.07194119615405775 -0.5447638079199923 0.11732889192081707
-0.05736708720697825 -0.5488286640926088 0.11240870227807176
-0.039715833752241636 -0.5513838032552593 0.10486180788017739
-0.019471311201644526 -0.5523966856978156 0.09486326684925125
0.002349948322910189 -0.5518686315114507 0.08289946752880463
0.024484657576652913 -0.5499543156165818 0.06983591744739087
0.045961861470294185 -0.546915636373231 0.056610317561740724
0.06634143979923668 -0.543044331233054 0.043996804880468934
0.0855618182874461 -0.5386711382461729 0.03260943754032975
0.10378201725759917 -0.5341977286508859 0.022929415496439516
0.12126440725270055 -0.530064065672535 0.015274174428752263
0.13827504142276156 -0.5267130730259498 0.00979525990309015
[...]
CELL_DATA 15
SCALARS ComponentValue float 1
LOOKUP_TABLE default
-2.0
-1.5714285714285716
-1.1428571428571428
-0.7142857142857144
-0.2857142857142858
0.1428571428571428
0.5714285714285712
1.0
1.4285714285714284
1.8571428571428568
2.2857142857142856
2.7142857142857144
3.1428571428571423
3.571428571428571
4.0
