# vtk DataFile Version 2.0
3D curve data
ASCII
DATASET POLYDATA
POINTS 1785 float
-0.00250168962046422 -0.032812239535924395 -0.01234863138311612
-0.003557716139556339 -0.06545295367518475 -0.025917469473288317
-0.0031734432762697555 -0.09682761325129578 -0.04050981466479246
-0.0014245615697322485 -0.12622690155837704 -0.05592175307430634
0.0013808276673352832 -0.153703833919344 -0.0720600271069598
0.004758795159586056 -0.17940004707185714 -0.08876019604100062
0.008163277464526967 -0.2033386240714881 -0.10571848529439866
0.011044308686026605 -0.22549430519589572 -0.12250959371920493
0.012875076288920095 -0.24592694170935836 -0.1386765284024991
0.013100284860297887 -0.26482654898579067 -0.15381778518755584
0.011088412045656852 -0.28245461102670383 -0.16763498633124507
0.0061490550131723795 -0.2990127560527582 -0.1798885192390675
-0.00213371766927334 -0.3145664316454805 -0.19031815429349827
-0.013614955540727386 -0.32938954333437664 -0.19879963016565108
-0.0279214668952874 -0.34403302823550147 -0.20538144252143709
-0.044600195417629926 -0.3589516564681002 -0.2101680426170342
-0.06315947572613007 -0.3743797848288453 -0.21329169325736058
-0.08315293192058337 -0.3903192235083141 -0.21486304406647685
-0.10408397701864469 -0.4064980134125881 -0.21490769244618046
-0.12519149663439538 -0.42253180489294445 -0.2135498695584926
-0.14590726377015453 -0.43822021502488023 -0.2110679604882926
-0.16593531699912822 -0.4535006665064096 -0.2076594473322873
-0.1850087446224995 -0.46831912338246057 -0.2034097350784622
-0.2027780250998428 -0.48253530711295445 -0.1983879918240055
-0.21883983143066932 -0.4959209481704668 -0.19271935622136088
-0.2328466170253055 -0.50824127767524 -0.18658366715443875
-0.24459861079786172 -0.5193316903744464 -0.18017972697145798
-0.2540313332073966 -0.5291172869628117 -0.17369846948633966
-0.2610446548488993 -0.5374636013038379 -0.16741978901822138
-0.2656871426298488 -0.544084686721966 -0.16164147177575158
-0.26826564925232105 -0.5488407871380406 -0.1565910807643485
-0.26938269322734604 -0.5519047797605804 -0.15237748789962868
-0.2696059265912911 -0.5538044872189444 -0.1488170505262074
-0.2691274948518756 -0.5550499368605091 -0.14560325076312802
-0.2677615360089188 -0.5559514904189493 -0.14245053748072245
-0.26500967165443884 -0.556610990240096 -0.13909699923686547
-0.2600171879442638 -0.5569226817825093 -0.13533796445243418
-0.2516242651968261 -0.5565336246262066 -0.1311494498718215
-0.23870744257241153 -0.5548887023470165 -0.12675666899611168
-0.2207205407005688 -0.5514573692468171 -0.12250265212335978
-0.19801698126745837 -0.5460904137201874 -0.11850571501672355
-0.1713545411539736 -0.5391799363618123 -0.1145530399593302
-0.1415799945100139 -0.5315075721526821 -0.11036385466508532
-0.10973851781705345 -0.5241105745625815 -0.10580445599483608
-0.07712579917003577 -0.5180989070869003 -0.10092669376714929
-0.04510323788224366 -0.5144758123519388 -0.09589913839923832
-0.014824519194562394 -0.5139647927524316 -0.09094240016276924
0.012982964753820889 -0.5168856688192881 -0.08628255753854058
0.03805625305922719 -0.5232048334470552 -0.08211560599180655
0.0604228750569578 -0.5326759395605426 -0.07862924670019925
0.08026067822782691 -0.5449235499714163 -0.07603393952109046
0.09787956063235326 -0.5595521154209899 -0.07455580796499471
0.11362313212540474 -0.5762282441421331 -0.07440296777273488
0.12780423419498962 -0.5946338319116043 -0.07573710060687253
0.1407821330909021 -0.6145052484712247 -0.0786570962509536
0.15296233866592757 -0.6357278291140431 -0.08321304677508777
0.1647125995335439 -0.6582117790522355 -0.08938056085233458
0.1763860375613211 -0.6817922918885376 -0.09699164819475613
0.1883571223236422 -0.7062868975147171 -0.105681509099743
0.20099740939910987 -0.7315815511823741 -0.11487063306074624
0.21458737901234828 -0.7576879330936696 -0.12379162397553817
0.2292078619914039 -0.7846915983316151 -0.13160409065007975
0.24474925437934444 -0.8126501160390952 -0.13754360857964107
0.2609388061267176 -0.8414904798681575 -0.14103802144522523
0.2773439547355733 -0.8709213766993957 -0.14176075928134893
0.29345783302034445 -0.9004471010914792 -0.139601755755383
0.308829140021654 -0.9294934733759888 -0.1346098955894312
0.32315936396747863 -0.9575703456524185 -0.12694683676519325
0.336344761578429 -0.9843743232544806 -0.11682587354391079
0.348467181606409 -1.0097709632197764 -0.10443886846829616
0.35973124799893913 -1.0336926978550836 -0.08992681655760473
0.37038597683231245 -1.0560299827879842 -0.0734159632290283
0.38066725264908424 -1.0766110026131253 -0.055074070059023664
0.3907659241829821 -1.0952444778994985 -0.03514258218726223
0.40080987963946907 -1.1117757575501035 -0.013926928998335806
0.4108606569448286 -1.1261316146191318 0.008250079638632536
0.4209236590053373 -1.1383276165208205 0.031116139207797468
0.4309745536070132 -1.1484404619260746 0.05447993077274772
0.4409700163748276 -1.1565796094072578 0.07821225773917777
0.4508693741188503 -1.1628767721567652 0.10221249612946977
0.46065422210917195 -1.1674953300923763 0.12640497042225826
0.47034882426659186 -1.1706369250385373 0.15075727686175253
0.48002762293133544 -1.1725221471481886 0.17529754255374433
0.489810354249233 -1.1733666041785098 0.20009977787353636
0.49983537925664956 -1.1733550264905916 0.22523458564517942
0.5102304215629717 -1.1726329393075738 0.2507192972695446
0.5210940112093743 -1.1713013437198478 0.27649295863447626
0.5324670245431461 -1.1694159595914635 0.30244053186853964
0.5443378566174757 -1.167001176988483 0.3284378654704067
0.5566675568905459 -1.164067891730323 0.3543970797237914
0.5694144627498607 -1.1606489029430975 0.38029142424215745
0.5825663087817314 -1.1568181578786478 0.4061449820861695
0.5961467426088151 -1.1527206494912883 0.4319936961667513
0.6102007986564305 -1.1485788696250663 0.4578366766966337
0.6247770302525482 -1.1446891058744149 0.4835932578389284
0.6398963768265624 -1.1413900215937378 0.5090917294608497
0.6555258409396644 -1.1390247577480632 0.5340905244570612
0.6715807820695575 -1.1378985296812436 0.5583213132602085
0.6879484617990802 -1.1382409721851805 0.5815351175577771
0.7045362804711204 -1.140210073348764 0.6035330401009024
0.7212936504413141 -1.1439154260248396 0.6241325687467985
0.7381831602491894 -1.1494286403311718 0.6431268672996671
0.7551331135663136 -1.156765896046762 0.6602769951822244
0.7720234595648325 -1.1658773299806175 0.6753867339325201
0.7887190216672774 -1.1767032675677294 0.6883897022150454
0.8051180354830634 -1.1892363190154343 0.6993308583328036
0.8211516035989622 -1.2035204357728333 0.708268006004494
0.8367455652492919 -1.2195824583820774 0.7152282080100867
0.8518333418982299 -1.2373788129209633 0.7202365714144076
0.8663608160471098 -1.2567438372531305 0.723372692650405
0.8803257795416998 -1.2773749705534527 0.7248228075185924
0.8938234266886862 -1.2988788824385247 0.72488946137785
0.9070854968400965 -1.3208359530070362 0.7239847305877889
0.9204627279810421 -1.3428209091131522 0.7226250457509665
0.9343391120741045 -1.364389785429691 0.7214049225987182
0.9490457979515906 -1.3850253352554855 0.7209542440997202
0.9646886375122224 -1.40399953441687 0.7218680719749563
0.9809441940813607 -1.4203882567397423 0.7245688374584482
0.9972850427323194 -1.433631431194947 0.7291791096571326
0.26597388192539906 -0.030874018048379248 -0.01238316780256563
0.26556335226084476 -0.06191000478045685 -0.026157300064145253
0.26655100630563777 -0.09204318632998933 -0.04106765973232665
0.26878457180633064 -0.12054087068281452 -0.05685094470071454
0.27192051089927893 -0.14734382600697996 -0.07335274410821134
0.2754655103280155 -0.1725080371523463 -0.09037065931825636
0.27886879139881077 -0.1960146233036857 -0.10758857730300622
0.2815772410044529 -0.2178162792690651 -0.12458622332646395
0.28306762340757086 -0.23794991970411125 -0.14091813280024726
0.2828103468905391 -0.2565802858622718 -0.15619574140783896
0.28023351722463885 -0.2739578472826485 -0.170137524194044
0.27472721798375194 -0.2903104404653157 -0.18253360213256367
0.2659186337935924 -0.3057546904136484 -0.19315525324617466
0.2539423615319972 -0.32056942302093233 -0.201871755610364
0.23917231668963349 -0.3352637514794068 -0.20869594913947037
0.22208545290625217 -0.3502595366802568 -0.21370114345337082
0.20319105816537514 -0.365780046970006 -0.21699322903196705
0.18295157735338347 -0.38182815000122333 -0.21865507775733342
0.16186175503371697 -0.39815538827654373 -0.21869640417254937
0.14062934908345961 -0.414410395994607 -0.21721875264250684
0.11977376706747855 -0.4304036015784897 -0.21446629045304347
0.09956544441362564 -0.44606733135745974 -0.21062098833202994
0.08024904457233176 -0.4613437460963573 -0.2057791073549066
0.062152256869283856 -0.47610005861270516 -0.20003835658375388
0.04566944829970623 -0.49012191656116966 -0.19356298805636446
0.031166212353633677 -0.503181590937879 -0.18657972114648474
0.01889177604189396 -0.5151052580474119 -0.17933906582606288
0.008981585443561979 -0.525790910088554 -0.1720848042713148
0.0016011453391121533 -0.5350668856633471 -0.16514211050984898
-0.0032474551325273326 -0.5426035954467711 -0.15884293030635527
-0.005848410249735814 -0.5482064118437258 -0.15342947878915195
-0.00681057887751807 -0.552001832346225 -0.1490067970796475
-0.0067275841601948105 -0.5545024580231858 -0.14538951226244237
-0.005829121482459565 -0.5562418280803003 -0.1422501469360225
-0.003941501212159082 -0.5575728099071808 -0.1392619427158739
-0.0005372157274445288 -0.5586250599973115 -0.13616287393228466
0.005235559473973528 -0.5592950278730815 -0.1328116054094873
0.014431929568142265 -0.5592289063796703 -0.12925706628738295
0.02798200014802596 -0.557893879925505 -0.12575055997795256
0.046231101138139497 -0.5548051523074394 -0.12260296745107095
0.0687099843278372 -0.5498511764049793 -0.11988193462892992
0.09463542195452601 -0.5434204669800833 -0.11734590484725077
0.12320182009497016 -0.5362464322693296 -0.11469107203866105
0.15348128176498865 -0.5292794436066388 -0.1117358651041042
0.18437076944901393 -0.5235300769180448 -0.1084553697649892
[...]
CELL_DATA 15
SCALARS ComponentValue float 1
LOOKUP_TABLE default
-2.0
-1.5714285714285716
-1.1428571428571428
-0.7142857142857144
-0.2857142857142858
0.1428571428571428
0.5714285714285712
1.0
1.4285714285714284
1.8571428571428568
2.2857142857142856
2.7142857142857144
3.1428571428571423
3.571428571428571
4.0
