# vtk DataFile Version 2.0
3D curve data
ASCII
DATASET POLYDATA
POINTS 1785 float
0.010365641439691353 -0.018889598320213287 -0.010683868039920446
0.021729552836167808 -0.03869421490977664 -0.023220297975788375
0.03302134345387842 -0.05873268541671886 -0.03716537827524299
0.04339237401861778 -0.07834805630506235 -0.0519921975751808
0.05233389810949719 -0.09708653278818023 -0.06727347272965979
0.05950348875918477 -0.11472942823761184 -0.08270653684039715
0.06460127387943825 -0.13120672505355171 -0.09806160087670772
0.06735374944360234 -0.14652991684955263 -0.11314878564929819
0.06753260878085351 -0.1607904686644475 -0.1278465675619473
0.06495546268091704 -0.17418092152471742 -0.14214768805894332
0.05950583806410343 -0.18699720254843016 -0.15611982792076973
0.051130984990144034 -0.1996485548585447 -0.16980863260401888
0.03976566466021195 -0.21255615486091053 -0.18308984345725107
0.025509147801493798 -0.2259126738947125 -0.19553678146364037
0.008893625040108573 -0.23969122096416204 -0.20656558910767256
-0.0092940179847646 -0.25384459602690146 -0.2157020035290461
-0.028383666810132126 -0.2683298447122147 -0.2225844438614017
-0.04785661773807856 -0.28304176983466867 -0.22691139737933888
-0.06742606487794194 -0.29790096730441795 -0.22853463868706078
-0.08708237712722938 -0.3129212419952188 -0.22744038343868808
-0.10713123314873899 -0.32824005977158316 -0.22365645250770433
-0.12808745118541817 -0.34404548084368713 -0.21713435064742778
-0.15050620575629756 -0.3605177898688631 -0.20775738094705173
-0.17484965404424224 -0.377825389901982 -0.1954136136340705
-0.2012953150758374 -0.3961736608761055 -0.18009225937922435
-0.22936692743099288 -0.41578025503130644 -0.16206000469643392
-0.2576038498597914 -0.4366591006824022 -0.14207671713435535
-0.2837961480404934 -0.458450104861191 -0.12136374381626873
-0.3054206138260836 -0.48034364328534185 -0.10147894469254838
-0.3203088558173599 -0.5008747274614399 -0.08414703416160572
-0.3277392927396729 -0.5182093259544777 -0.07068067940589944
-0.32901067589677957 -0.5314098310356539 -0.06126292148424691
-0.32606741452061677 -0.5409903667962797 -0.055199883466116664
-0.3201997982894116 -0.5480308612375707 -0.051529253635982895
-0.3115927117983435 -0.5533573795311191 -0.049683685328745175
-0.2998441325526728 -0.5571419637031394 -0.049720268063013065
-0.2847257836610894 -0.5589665404144262 -0.052008554783474055
-0.2666703726460564 -0.5582047431729322 -0.05674473873319388
-0.24656486237205139 -0.5545234415047758 -0.06360036925658596
-0.2250981874584995 -0.548035985585749 -0.07187678207735039
-0.20253405977570313 -0.5391196224674376 -0.08084807251195135
-0.17896420402467833 -0.528346885432937 -0.08985929563582475
-0.15444227560484322 -0.51649495152102 -0.09835153970375414
-0.12904336659042337 -0.5044887390163909 -0.1059442221015965
-0.10295417405419725 -0.4933165402989096 -0.1124583721989823
-0.07650056364854708 -0.4839280259287765 -0.11790500335192522
-0.0501339659283443 -0.4771077285374625 -0.12245694952272028
-0.024260140856062762 -0.4733794666701816 -0.1263682387411121
0.0009447616373115783 -0.47314052944119045 -0.12980630529129922
0.025321440742593338 -0.47679424184611346 -0.1328174008192175
0.04860879772454759 -0.4846450056722939 -0.13545313801367767
0.07051159769772698 -0.49681777720993675 -0.13781754692481707
0.09074149012845024 -0.5132381292286317 -0.14004372591587191
0.10905801334575008 -0.5336334291121065 -0.1422638226047044
0.12530138368077606 -0.5575493921141108 -0.14458935684622612
0.13941079576965265 -0.5844116236577009 -0.14710086232537262
0.15141561018967212 -0.6136224225237562 -0.14985003126584853
0.16140219371867678 -0.6446191106239907 -0.152870263157684
0.16952395772805173 -0.6768758202543255 -0.15617240961901707
0.17604147509662801 -0.709931504834252 -0.15972361957898018
0.1812794469474942 -0.7434768713893486 -0.16341789318536687
0.18551654730944075 -0.7773362968857103 -0.16709639674641105
0.18898801607310994 -0.8113505509759761 -0.17051550844136248
0.19191994416492122 -0.8452927543500608 -0.17328924025612838
0.194572946643025 -0.8788859132095558 -0.1749326492826538
0.19723709048915553 -0.9118358277394798 -0.17494795755754525
0.20017514479130563 -0.9438826687461356 -0.17289322513246058
0.20359057622649257 -0.9748202272219457 -0.16841436226746304
0.20763214912658062 -1.0044833818810865 -0.16125269323359412
0.21242173136770598 -1.03272129478567 -0.15124111098261175
0.21807377782689996 -1.0593774896460548 -0.13829180249057044
0.22470994660149543 -1.0842727931119414 -0.1223809140012427
0.23245997585841857 -1.1071780398526057 -0.10355097691144538
0.2414454443477763 -1.1277925606751804 -0.0819353786547016
0.25173805297456997 -1.1457500723803093 -0.057809857813106616
0.2633261835459303 -1.1607061149280447 -0.03161349200829183
0.2761289505678699 -1.172424922157697 -0.0038670534417734707
0.2900287605968256 -1.180797804955985 0.02492678104502084
0.304884980631269 -1.185833870760311 0.05433573605311393
0.3205312906564948 -1.1876449412060492 0.08402720122946741
0.33677325790356 -1.1864435642529498 0.1137794960964573
0.3533803546688221 -1.182542251436681 0.14346024085777886
0.3701017817979922 -1.1763496366625414 0.17298761529451992
0.3867004265032489 -1.1683558204409024 0.20229169108793932
0.4029914371716701 -1.1590970097564053 0.23129373192101205
0.4188840811219463 -1.1490872411938249 0.25990296991371076
0.4343987705832686 -1.1387404945695594 0.2880262297160482
0.44965992345703676 -1.128309573749494 0.31556699248099446
0.4648522818630966 -1.1178739640237954 0.34242437348109545
0.4801689159344123 -1.1073895976574721 0.3685051126319673
0.4957735668368306 -1.0967624918852534 0.3937612720800442
0.5117857575740521 -1.0859200992156528 0.41821304421309813
0.5282728258574633 -1.0748743758254247 0.44193914612674196
0.5452356447934568 -1.0637613281749296 0.4650392197689311
0.5625951890273574 -1.0528686351480534 0.48761148054176895
0.5801968371006232 -1.0426321589876568 0.5097316707873111
0.5978424720791816 -1.0336039377513682 0.5314217000220633
0.6153462966295129 -1.026383116657038 0.5526481920067068
0.6326004271922231 -1.021528259886898 0.5733392397394659
0.6496240153410715 -1.0194925509460966 0.5934155241789386
0.6665733633583764 -1.0206108210634237 0.6128179284870499
0.6837086444112043 -1.0251308528497052 0.6314987740309065
0.7013260749625861 -1.0332698122894943 0.649364980834208
0.7196547519171896 -1.0452013001822595 0.6661719587006957
0.7387391932598588 -1.06095388867925 0.681478676460101
0.7583994258319053 -1.0802752849542476 0.6947407341252309
0.7782973481375838 -1.1026390629961829 0.7054692586281814
0.7980209531887901 -1.1273461885571914 0.7133444448463861
0.8171656333221107 -1.1536324295623688 0.718246682179519
0.8354195470946978 -1.1808079612243134 0.7202892793296422
0.8526233118363024 -1.2083589918040902 0.7197956656052069
0.8687680882546783 -1.2359645719014414 0.7172607640463646
0.883939299517614 -1.2634355435618105 0.7133391990981749
0.8982775005562118 -1.290665871381131 0.7088382687686565
0.9119676445649452 -1.3176054387935219 0.704668870653531
0.9251868160315 -1.3441886547208746 0.7018137824396937
0.9380514553208253 -1.3702534761202652 0.701263597510025
0.950572368896537 -1.395513855031251 0.7038838954620781
0.9626416418015789 -1.4197087899792358 0.7101714687744106
0.27687965684703586 -0.018904740606732476 -0.01080221148573903
0.2870406325258101 -0.038891071754439004 -0.02355587036013999
0.2973592244723819 -0.05924725649362355 -0.03780480425372358
0.30700403013449895 -0.07928075973083193 -0.053001468846374696
0.3154339646445744 -0.09850378578723032 -0.06869281062984302
0.3222613073829733 -0.11667031129770636 -0.08455218211916912
0.3271402857875551 -0.13368723116494932 -0.10032747993825213
0.3297539873383598 -0.14954451089474427 -0.11580492501882117
0.3298362584072924 -0.1643129052384498 -0.13083364852723794
0.32717743901467744 -0.1781653327097298 -0.1453694694050185
0.3216449407151084 -0.1913813921323486 -0.15944392952069783
0.3131754629152366 -0.20435523017947738 -0.17308009223805848
0.3017062738673245 -0.21749559385279604 -0.18615426328697407
0.2873454421821936 -0.231010772595758 -0.19827643332406575
0.27060999007609804 -0.24491730429072997 -0.20892177215180355
0.2522635682235953 -0.2592077932336925 -0.21766994792340502
0.23296406101590145 -0.2738683309060549 -0.22420316666744047
0.2132306669150529 -0.2888106148087229 -0.2282476661947515
0.1933717201474811 -0.3039534514045447 -0.22965999766845965
0.1734420198449963 -0.3192914029054206 -0.2284182069261081
0.15320376756797977 -0.33493114917319267 -0.2245450912219641
0.13222749704952388 -0.35102709443257135 -0.21800549114421874
0.11005618291895272 -0.3677277506323138 -0.2087183458778584
0.08633624570046095 -0.38516833483334983 -0.19662670500792115
0.060989885493327706 -0.40350766065008364 -0.18178675759710464
0.03452059340976041 -0.4229026328328996 -0.1645171259238699
0.008268826785906735 -0.44332337768329083 -0.14557022272617373
-0.015805791721883233 -0.46441339619719746 -0.1260893761159447
-0.035498816718060544 -0.48542093844351186 -0.10749521464560341
-0.04895551789198754 -0.5050273520141638 -0.09132053310420854
-0.05559866753778464 -0.5216246842080031 -0.07870217144602264
-0.05658933283865436 -0.5344123329624303 -0.06978078214550963
-0.053619909334036264 -0.5438681669805298 -0.0639336745584072
-0.047799557575486484 -0.5509568289981286 -0.06031307746585044
-0.03927301848293263 -0.5564185865735787 -0.05841567996418007
-0.027665659888916283 -0.5604114906092228 -0.05828565359867894
-0.0127589484576065 -0.5625583416940947 -0.06024855443553652
0.005063012629265784 -0.562283868907191 -0.06448597793049766
0.024984745749695697 -0.5592664781649772 -0.07072168698031031
0.046326484321492084 -0.553592118552825 -0.07834384430708435
0.0687567866610522 -0.5456140300389358 -0.08669062376723546
0.09211289085856253 -0.5358835481089925 -0.09514850485125705
0.11629487729543311 -0.5251374675102126 -0.10318856002119395
0.1412063883825711 -0.5142397846925857 -0.11043861496778519
0.16667335226334729 -0.5041056187652401 -0.11670430430552987
[...]
CELL_DATA 15
SCALARS ComponentValue float 1
LOOKUP_TABLE default
-2.0
-1.5714285714285716
-1.1428571428571428
-0.7142857142857144
-0.2857142857142858
0.1428571428571428
0.5714285714285712
1.0
1.4285714285714284
1.8571428571428568
2.2857142857142856
2.7142857142857144
3.1428571428571423
3.571428571428571
4.0
