# vtk DataFile Version 2.0
3D curve data
ASCII
DATASET POLYDATA
POINTS 1785 float
0.002011756083842359 -0.012662427379361043 -0.010654224534400252
0.0024108819408520435 -0.026926003172924703 -0.022745227285566272
0.0011837363641974726 -0.042285405751951964 -0.03591190505834546
-0.001348459069095909 -0.05822763623765685 -0.04974851033820754
-0.004870457089119894 -0.07430598921099722 -0.06387597723504047
-0.009188419505168913 -0.09007583350750262 -0.07794950993567179
-0.014204197895152705 -0.10511804118093485 -0.09168692571395726
-0.019866916785386723 -0.11906222846750023 -0.10486643992054079
-0.026154537064949655 -0.13167220789092562 -0.11736437453445524
-0.033113552381400804 -0.1428935472402831 -0.12918195632650947
-0.04086652836986367 -0.1528566745344668 -0.1404604943025668
-0.04963610393727836 -0.16183232601528152 -0.15143978316786985
-0.05961892179150111 -0.17011371461845567 -0.16232113486204244
-0.07088256275643146 -0.17800919260224585 -0.17325921361967653
-0.08353606625224512 -0.18584623699600605 -0.1844325574304953
-0.09783536779237145 -0.19382936583765614 -0.19576030094697094
-0.11384764752345283 -0.20194114948131908 -0.20677590539339255
-0.13126510757478488 -0.2100824491167091 -0.21684144606859804
-0.14959851525483425 -0.2182321817611084 -0.22541157927099353
-0.16838708554543405 -0.22642656821799356 -0.23205799103618877
-0.18741689546460172 -0.2347679428507817 -0.236471021803675
-0.20678207883669297 -0.24339350307274693 -0.23836348002418783
-0.22684133688683333 -0.252504804981326 -0.23742694681078425
-0.2481656875801369 -0.26241381786536805 -0.23330698280342657
-0.27139333541153515 -0.2735817614033119 -0.22563614690175335
-0.2969496605248646 -0.28659314756941984 -0.2141805283395632
-0.3247987191980656 -0.3020427776951952 -0.19901106531909638
-0.3544681512180091 -0.32040292658674363 -0.18051231654526712
-0.38525921675835284 -0.34204642128376617 -0.15916762421780292
-0.415898020340043 -0.3672189866934101 -0.13568640870865598
-0.4444200054634542 -0.3955364016791533 -0.11129150127136775
-0.46862757612084016 -0.42579709450144754 -0.087545552775141
-0.48688968226381846 -0.45617362560647967 -0.06588896446689772
-0.49851908763330766 -0.48494494028053303 -0.0473128075327727
-0.5036928429402788 -0.5108497884462443 -0.03237144868218705
-0.5031825140179882 -0.5332681266861301 -0.0211716299779172
-0.49791159356993986 -0.5521193747279152 -0.013515920361651673
-0.4887014631537598 -0.5676401397205849 -0.009048363752568943
-0.4761741198139979 -0.5801682493360263 -0.007362483917202917
-0.46090488916222155 -0.5900034493201424 -0.008049172526465472
-0.4435659543538861 -0.5973692048719951 -0.010653613295627213
-0.4249430896193579 -0.6024569967480766 -0.014647576067658138
-0.40576569518008965 -0.6055234888418247 -0.019467081363165464
-0.38655734825724 -0.6069187032691694 -0.024607978544337883
-0.3676356185950641 -0.6071000326539088 -0.029694871100574328
-0.34922154395112986 -0.6066154159051281 -0.03449671697693721
-0.33149978121792567 -0.6060319697746019 -0.03892328278074135
-0.3145406087286008 -0.6058098259142769 -0.04300078504293909
-0.2982100846878254 -0.6062708158545634 -0.04680739809292126
-0.28225326404761986 -0.6076535678795543 -0.05042601268948432
-0.26643497906785074 -0.6101833304842726 -0.05392882309353852
-0.25067780857824107 -0.6140858571945496 -0.057341977926837207
-0.23510157120146508 -0.6195376940189358 -0.06062531412398657
-0.21997090737903996 -0.6266378102166313 -0.06368126161301306
-0.20561470075341592 -0.6353998954015593 -0.06638509427633817
-0.1923239955312986 -0.6457545443288422 -0.06861832700142555
-0.18024650279867188 -0.6575901439647187 -0.07028892411309426
-0.16935100058307456 -0.6708006363108021 -0.07134366072977803
-0.15945473963060236 -0.6852960299772054 -0.07176609403277331
-0.15025927408676001 -0.7009905504142523 -0.07155903124819665
-0.14143130654774358 -0.7178008744562168 -0.07072234986191239
-0.13270260983284035 -0.7356235821363063 -0.06929399048415336
-0.12385790286360522 -0.7543606202418538 -0.06736738973885865
-0.11476797906625612 -0.7739821148910421 -0.06507209495031956
-0.10543248355528298 -0.7944860383027541 -0.06255415778726466
-0.09594598892315408 -0.8158672989681036 -0.05992095318901279
-0.08644151018567113 -0.8381136927442183 -0.057181826271950224
-0.07707455588405451 -0.8611602382691373 -0.054213846062213814
-0.06802854676645224 -0.8847814609414487 -0.05077267724036121
-0.0594890111691063 -0.9085748052678244 -0.04656488269176123
-0.05157360673885811 -0.9320534255286078 -0.04132704199938185
-0.04428203238629776 -0.9547697478527782 -0.03486463114497594
-0.03748522599253236 -0.9763851846679001 -0.027058271091634906
-0.030958782865970567 -0.9966988732726199 -0.01785709542923581
-0.024442303850195125 -1.0156110441717396 -0.007278413546329103
-0.01770763203440364 -1.0331083323319645 0.004592555482253868
-0.010610116261000137 -1.0492255795442953 0.017620440611667124
-0.0031159012833292354 -1.0640178256981105 0.031642110976933355
0.004705854843531374 -1.0775395302083932 0.04647469824069786
0.01271789892280347 -1.0898636097603445 0.06194812866015091
0.020787484272756358 -1.1010956892521853 0.07795283435654421
0.028837413059853788 -1.111342857818607 0.09445555483208959
0.03685166891433347 -1.1206848963208162 0.11148238971017461
0.04486104040080294 -1.1291590548813728 0.12907563127054655
0.05291818473762922 -1.136752184893959 0.14724056715831652
0.06109345469225672 -1.1434125743111059 0.16590625397613812
0.06946104854130741 -1.1490635084239054 0.18491784564252078
0.07809029035245539 -1.153637706532004 0.2040708370581019
0.08702756309872747 -1.1570984236963975 0.22316393399871232
0.09630080032833142 -1.1594672837672382 0.24204054119940732
0.10592322042162301 -1.1608449743000901 0.2605967131486839
0.11590080723564178 -1.1613946553332348 0.27877415226465785
0.1262390610759595 -1.1613383644541448 0.29654476392047335
0.13693900856868643 -1.1609365826908054 0.3139097129636811
0.147997680520113 -1.1604718328619053 0.33090058637614883
0.1594019659444626 -1.160226747264916 0.3475787297689399
0.17111476109029636 -1.1604712950232212 0.3640158278075658
0.18308118062752698 -1.1614456124444337 0.3802735025517758
0.1952219137320365 -1.163332504279122 0.39637003604079535
0.2074358200898722 -1.1662306877105382 0.41227460376559916
0.21961062493650338 -1.1701313681087395 0.42793237172883736
0.23166825349522815 -1.1749422802056837 0.44332788149347313
0.24360272033151478 -1.180560264385138 0.458518037846292
0.25547536251148495 -1.1869561322361737 0.47357896262505356
0.267340964136041 -1.1941871283249592 0.4884990341425954
0.2791683544245434 -1.2023457107737718 0.5031386062755473
0.29084265129325554 -1.2115407860289262 0.5173011149148088
0.30220274361812344 -1.22188937671676 0.5308059939829184
0.31309638235828335 -1.233524588715595 0.5435261411269557
0.3234076890299243 -1.2465957648170403 0.5553986286445145
0.33306107989750905 -1.2612568161523852 0.5663728577068736
0.34202186488899666 -1.2776133258033129 0.5763588650259727
0.3502992725089682 -1.295637783076348 0.5852296551105822
0.35796226628821426 -1.315126350988053 0.5928734200310206
0.36512593077014105 -1.335673193545842 0.5992194955286786
0.37191465982409283 -1.356665041316594 0.6042266600395868
0.3784056943705973 -1.3772403832665945 0.607849365835553
0.3845249220693248 -1.3964013314482406 0.6100687061688761
0.3900770125720983 -1.4134816190383837 0.6109491375631985
0.269816644842572 -0.013554134952451271 -0.010918184786259838
0.27049038664184233 -0.028760628498384146 -0.023403268564839406
0.2698234332503714 -0.04503348030782596 -0.0370376792996936
0.2680512435022861 -0.06181184537130693 -0.05137654257661854
0.2653996926063129 -0.07863411165644613 -0.06602239122916909
0.26198215497758415 -0.09507205902102651 -0.08062680988904876
0.25782236381812507 -0.1107385299206962 -0.09490689496147697
0.2529014736285561 -0.12529792415578564 -0.1086362449988544
0.24718104725680773 -0.13854017304141197 -0.12167760766540289
0.24057303453252568 -0.15042284319618598 -0.13400745125917382
0.23293798296525414 -0.16107589039412934 -0.1457309112695407
0.224062851578198 -0.17076453505386924 -0.15704456920732895
0.21377311375412458 -0.17977895350361492 -0.16810844562848323
0.20203716846905306 -0.18842375060999095 -0.17903528372368716
0.18881447778045185 -0.19702176627475687 -0.1899550439520607
0.17394770391324405 -0.20578424174009088 -0.20077434019970256
0.15744166318694758 -0.21471501413550226 -0.21107222789477356
0.13962800046604862 -0.2237263418075359 -0.22028203137856944
0.12098503882701678 -0.23278891635140997 -0.22792380896902328
0.10194621645234558 -0.2419237239605432 -0.23362390096477137
0.08270341047125804 -0.251220211950609 -0.2371096794211473
0.06316458755579779 -0.26080749385358915 -0.23811808326995215
0.043013568314539646 -0.2708755570810293 -0.2363629007079759
0.021775181099253305 -0.28170950007501566 -0.23153085789699918
-0.0010469324516062528 -0.2937165673531297 -0.2233331330914839
-0.02572594863503186 -0.30739504723835015 -0.21164373263253178
-0.05210382554728271 -0.32322806829573564 -0.19663931413675131
-0.07962158131896141 -0.34156533219626284 -0.1787888671551177
-0.1075031713335205 -0.36263433025432706 -0.15866067165577835
-0.13450476354522278 -0.38650389162143434 -0.13701197775764676
-0.1588851339629332 -0.4126798943475822 -0.11499648034177683
-0.17885078820429984 -0.4400173359296466 -0.09397939630061687
-0.19319191566481642 -0.4669357712607151 -0.07514871788072336
-0.20154704055878214 -0.49202674900667603 -0.05925507395783005
-0.20427782083643786 -0.5143569230781692 -0.046639399657972286
-0.20214990673072647 -0.5335855479710431 -0.0372689769053428
-0.19591074545880743 -0.5498085916916328 -0.03090930118688293
-0.1861037429153818 -0.5632889899222436 -0.027279754362451832
-0.17310755883876466 -0.5742388052740627 -0.026120176139646508
-0.15739194196875944 -0.5827780888755547 -0.027152022912283528
-0.13962390362022814 -0.5890176943800891 -0.02998979094735023
-0.1205868312508081 -0.5931212442203279 -0.0341369121730373
[...]
CELL_DATA 15
SCALARS ComponentValue float 1
LOOKUP_TABLE default
-2.0
-1.5714285714285716
-1.1428571428571428
-0.7142857142857144
-0.2857142857142858
0.1428571428571428
0.5714285714285712
1.0
1.4285714285714284
1.8571428571428568
2.2857142857142856
2.7142857142857144
3.1428571428571423
3.571428571428571
4.0
