# vtk DataFile Version 3.0
tangent_project_data
ASCII
DATASET POLYDATA
POINTS 9401 float
13.735714659817246 10.06076423836742 4.069330195830334
13.699932266506547 9.917759147227507 4.061602382802723
13.650687901113598 9.762750691142237 4.089087946139026
13.587652167183913 9.600811690193451 4.138810590331437
13.510841412961746 9.43722810478409 4.19833570900939
13.42108595381395 9.277601675924686 4.256325749815391
13.320571389767087 9.127757490949712 4.303113285729361
13.213244022831818 8.993300537231677 4.331123368171317
13.104786999062004 8.878772738745075 4.335101161796521
13.001919701532103 8.786615256514532 4.312233888868983
12.911164137446871 8.716175850063502 4.262275211588641
12.8373333628994 8.66318116442918 4.187655017575582
12.782324471163209 8.620011672203162 4.093399525300097
12.74476809143467 8.576936176894627 3.9866388425455277
12.720637461966751 8.524043257218365 3.8756324181139252
12.704597061564058 8.453228243689033 3.7683969512024635
12.691580264807618 8.359708045966768 3.67122218471594
12.67818605705302 8.242703995014718 3.5874273987824665
12.663566248535648 8.10532075822023 3.516766987758419
12.649665472066253 7.953685174148823 3.455740323992078
12.640739648467422 7.7955783190527335 3.398700069672538
12.642437935943356 7.6388405117106135 3.3394475195811513
12.660588699433685 7.4900293904955255 3.2727975469544734
12.699912583624805 7.353218604584724 3.195885960180188
12.762873353212521 7.229662772242337 3.1090208700100854
12.848985367602623 7.117800040701768 3.016056268602603
12.95474307512936 7.014380181266573 2.9241079665968597
13.0740710481388 6.915627067434247 2.842603563105221
13.199106258384875 6.818838577947735 2.7817231998590852
13.32110759986931 6.723415422782636 2.7506503383816967
13.431438723342477 6.631163431586877 2.755985558912207
13.52268407231942 6.545777101233922 2.800641001778966
13.589812564754093 6.472013956751503 2.883427882548135
13.631048234260065 6.414423247571836 2.9993884435893676
13.648063482223918 6.376336496031945 3.1408739341474186
13.645299072991062 6.358886581009235 3.2990740664773934
13.628655379331677 6.3604990343839365 3.4656968015881877
13.604057311087779 6.377162912528741 3.6342992648217893
13.576475036472566 6.403267105216528 3.8010566603383107
13.549562387818687 6.4329233744188095 3.9648026427185643
13.525809437113464 6.461255393312839 4.1264372732402474
13.506957966169779 6.484992848877579 4.287911560272892
13.494461940158164 6.502200011892604 4.4510418469435145
13.48984368748944 6.511441880682088 4.616489617914191
13.494724216816925 6.5106025114064465 4.783124217332743
13.510396045785644 6.496535147482668 4.947945787771792
13.537177184947968 6.4651450406814295 5.1065747413387825
13.573867294952516 6.412353940436369 5.254162154152846
13.617589030123648 6.335251186319539 5.386442155533606
13.664155967075978 6.232924972000975 5.500655701541598
13.708770551009879 6.106931935794988 5.596070930100378
13.746846013073526 5.96084574917993 5.673989618213642
13.774696989578917 5.799562717625436 5.7372763490212675
13.790008979502305 5.628267924263426 5.789601753596472
13.79205543021963 5.451499856611255 5.834671349734811
13.781715299063288 5.272700699337343 5.8756084915940665
13.761397676178014 5.094000104658655 5.914623551707314
13.734872638863273 4.916546086625577 5.9529167510802035
13.707072703357207 4.740889509919617 5.99078586256545
13.683748180300812 4.567460619726522 6.027864040822102
13.671016649301315 4.396873537966495 6.063407458154776
13.674696570934707 4.230166160360278 6.096648303493449
13.69956835677438 4.0686817884268835 6.127148192384207
13.74860733382437 3.9136375976741107 6.1551124850672885
13.822467515836738 3.766080295071462 6.181581449238309
13.919336822177739 3.6265996552421305 6.208426413207217
14.035331391541785 3.495504930244328 6.238103523895825
14.1653066944331 3.373270155380056 6.27319863821371
14.303922265959098 3.2611684791348834 6.315874960091048
14.446600290855322 3.1615745899892573 6.367357508969926
14.590175882163656 3.0780006160658875 6.42767126756154
14.733038385212614 3.0145651595372165 6.495676346681069
14.874878375300987 2.974983708545065 6.569443906064491
15.01613979642773 2.9612538147509566 6.646830221031793
15.15747364705031 2.973023673200413 6.726005326359831
15.29934425528968 3.0071825996783836 6.805865557518862
15.441917743386085 3.058722281056646 6.885992995622359
15.584951646383384 3.1218015721509573 6.966382924980504
15.728110386128778 3.191128057993743 7.047086940990456
15.87103122041758 3.2628999083484285 7.127745167213657
16.013584506453252 3.33518201680194 7.207587221300143
16.15588371951875 3.407517935453166 7.285469193478929
16.298427883390357 3.480332818065352 7.36025012645837
16.44187139638411 3.554016070852139 7.431177079549997
16.58708183519906 3.6283063922655607 7.498159396131895
16.7346332637977 3.701993106372888 7.561719224291846
16.88491301532578 3.7729227840499 7.62320425221718
17.0376265692128 3.838509002897399 7.684421311854468
17.19189868649347 3.8957996009080995 7.747547252730849
17.34647394058689 3.942248249588425 7.814825287177031
17.499770409277414 3.9756873987804786 7.888411953290266
17.650343687977134 3.994690859189408 7.9698836807120665
17.797269863286893 3.9985752775379257 8.059971319241818
17.940301120527906 3.9875143515374765 8.158401279172697
18.0798799671763 3.9619512716196406 8.263548833761746
18.21684976480664 3.9227636004399358 8.372829609190097
18.351490846646822 3.8706723736664506 8.483025408288446
18.483125683821893 3.8060251902749176 8.590987022991012
18.609051521078136 3.7290249830228595 8.694427846786343
18.724608338758365 3.6396961566038817 8.79234057678581
18.823530087484436 3.538356643567945 8.885128336415208
18.899301123092773 3.425784215527102 8.974211995441413
18.9466783290571 3.303340735902946 9.0611142658056
18.963122239554995 3.1726372311665463 9.146762515778459
18.949922954688706 3.0352191967138156 9.230759128602623
18.91192173618457 2.892206581087936 9.311467305192728
18.856864105016633 2.7440872154454166 9.386503008199183
18.793703336569617 2.590951116988763 9.453451325391026
18.730965562698618 2.43276847699848 9.51086975237023
18.675150343907635 2.26980760316819 9.558944472399865
18.629741929363632 2.10320187443389 9.599769775723862
18.594839406596712 1.934972090672388 9.637259539726305
18.567338858468126 1.7681509175938475 9.676648743625027
18.54201210298698 1.6065193820675043 9.723787626960354
18.512020533489494 1.4544835988964921 9.784634157727579
18.469987703807135 1.3165559664580764 9.86480147966288
18.408260723153724 1.197402797160021 9.969608056238485
18.319373249883068 1.1016073892011535 10.104064990367458
18.19568538641186 1.0337078813924832 10.273164407488604
12.90305036912926 17.721593954385582 -2.8220672716630095
12.766620939039397 17.597641431199612 -2.855432194064086
12.631492309775288 17.47236216896221 -2.8707253511144337
12.499240529036653 17.348370482073435 -2.874248189699518
12.371344086801876 17.228174978530994 -2.872356158796978
12.249085253974002 17.114036083346626 -2.871423877337184
12.13336242504951 17.00773428997296 -2.8776663140474934
12.024560479321195 16.91026280474916 -2.896739493746342
11.922414860455735 16.821566899352888 -2.933123289213132
11.82604414127097 16.74033887365665 -2.9894103100454674
11.734139449953549 16.664083538809095 -3.065852419967439
11.645322623986907 16.589367020874548 -3.1602821674914576
11.558556844488777 16.512321586871106 -3.268620636792377
11.473601122145762 16.42932166719906 -3.3858138735260757
11.391285960619445 16.337625191994487 -3.5068432346414085
11.313622209241226 16.235824675235687 -3.6275695525282736
11.243668977526648 16.12407446913399 -3.7452293056163883
11.185226526682733 16.003979020069522 -3.8585365072754314
11.142383188269383 15.878307027004256 -3.967569253938394
11.119042405424226 15.750520830155244 -4.073482961290642
11.11841185903306 15.624229685359463 -4.17812473139127
11.142528935930255 15.502599969401334 -4.283571513035239
11.191852784792896 15.387799197205833 -4.391522929085064
11.264988745923784 15.280606299908792 -4.502728379213257
11.35870692454175 15.180354056447564 -4.616386264738079
11.468166801810305 15.085147892724573 -4.729754320554445
11.587450630240124 14.992437974187059 -4.838007590268711
11.710182768508501 14.899733697590687 -4.9345283368342905
11.830151815523369 14.80530416771927 -5.011614473854603
11.94187003324532 14.708794480218057 -5.061599641075303
12.040902422232831 14.611384514300545 -5.0781893477701825
12.124097824117783 14.515900127665034 -5.057671603406255
12.189617160079344 14.426302847228955 -4.999753562707072
12.236837394945102 14.347044248453736 -4.907633231792343
12.266199322522224 14.282286879833604 -4.787395784558705
12.279084411990924 14.235051905085783 -4.646832637174509
12.277748853997563 14.206656939449854 -4.494032059165628
12.265241734121268 14.196345274221606 -4.336122135209283
12.245185107545922 14.201336843055445 -4.178364675680849
12.221349093320432 14.217129340747212 -4.023713278855056
12.197133865640533 14.237965785887397 -3.8729174341228143
12.17510790618724 14.257743065494797 -3.7249698075251096
12.156823685930288 14.27069978997489 -3.5778847218572714
12.14281632551615 14.272249047995047 -3.4294862364871554
12.132750309167506 14.259217360747309 -3.278124213631792
12.125621287817724 14.22993285346438 -3.123205372015577
12.119990519654829 14.183943558053091 -2.9653691001832168
12.114266027346616 14.121928219749716 -2.806435103854522
12.106942656411391 14.045203559360179 -2.6491517252794
12.096813428677327 13.955438422644786 -2.4968354570750284
12.08304426265914 13.85427761151984 -2.3529821878889727
12.06523738055156 13.743014828291997 -2.2208671059139578
12.04339587900197 13.62244342331837 -2.103099436175467
12.017900498253258 13.492995699103734 -2.00121694738368
11.989550530574343 13.355026536284623 -1.9153275065160722
11.959514328790448 13.208935695560275 -1.8439739128118202
11.929314678201356 13.055632566627473 -1.784332693839806
11.900682206007833 12.896357857513742 -1.732633639342596
11.875452542760815 12.732705375711586 -1.6848527792030603
[...]
CELL_DATA 79
SCALARS c_peak_movement_0 float 1
LOOKUP_TABLE default
0.013576386330872395
0.004080581190189267
0.0141599456848705
0.0141599456848705
-0.011847342482686929
0.006463448552348192
0.013576386330872395
-0.003372766211500483
0.05594926768680461
0.1576441829410419
-0.003372766211500483
0.014597615200369077
0.030525538873245273
0.03900011514443172
0.007144267798679327
-0.0026919469651693756
-0.003372766211500483
-0.011847342482686929
-0.011847342482686929
-0.05422022383861913
-0.003372766211500483
-0.06766802025700339
0.031887177365907515
-0.0457456475674327
0.030525538873245273
0.07289842022917747
0.005101810059685949
0.005101810059685949
0.04747469141561814
-0.003372766211500483
0.013576386330872395
-0.020321918753873375
0.04747469141561814
-0.03727107129624625
0.03900011514443172
0.04016723385242792
0.013576386330872395
0.022050962602058827
0.006123038929182631
-0.003372766211500483
-0.003372766211500483
-0.003372766211500483
0.04747469141561814
0.013576386330872395
0.004284826964088606
0.011533928591879017
-0.002351537342003801
0.05594926768680461
-0.035909432803584
0.005101810059685949
0.005101810059685949
0.013576386330872395
-0.020321918753873375
-0.035909432803584
-0.06766802025700339
-0.05997152312448108
-0.011847342482686929
0.004284826964088606
-0.011847342482686929
0.03900011514443172
-0.020321918753873375
-0.020321918753873375
-0.03727107129624625
-0.03727107129624625
0.0141599456848705
0.022050962602058827
0.006463448552348192
0.0603389284800043
-0.019641099507542253
-0.011847342482686929
-0.011847342482686929
0.005101810059685949
0.009491470852885653
-0.028796495025059807
0.04747469141561814
-0.019641099507542253
0.022050962602058827
-0.028796495025059807
-0.028796495025059807
SCALARS c_peak_movement_1 float 1
LOOKUP_TABLE default
-0.007271133422883103
0.0010242037142278448
0.0012034428483033155
0.0012034428483033155
-0.024220285965255994
-0.007271133422883103
0.009678019119489734
-0.015745709694069576
0.026627171661862625
0.1452712394584728
-0.007271133422883103
-0.015745709694069576
0.0351017479330491
0.026627171661862625
-0.024220285965255994
-0.024220285965255994
-0.024066652421762758
0.026627171661862625
-0.015745709694069576
-0.024220285965255994
-0.024220285965255994
0.0012034428483033155
0.009678019119489734
0.04357632420423552
0.009857258253565204
0.0351017479330491
-0.015745709694069576
0.04357632420423552
0.009678019119489734
-0.007271133422883103
0.0012034428483033155
-0.015745709694069576
0.0351017479330491
-0.041169438507628886
0.0351017479330491
0.026627171661862625
0.0012034428483033155
0.009678019119489734
-0.015745709694069576
-0.03269486223644244
-0.0325412286929492
-0.024220285965255994
0.0351017479330491
0.009678019119489734
0.018152595390676207
0.052050900475421935
-0.007271133422883103
0.0351017479330491
-0.04964401477881533
0.0012034428483033155
-0.03269486223644244
-0.015745709694069576
-0.04964401477881533
0.04357632420423552
-0.024220285965255994
0.06052547674660841
-0.03269486223644244
0.04357632420423552
-0.015745709694069576
0.026447932527787155
-0.041169438507628886
-0.03269486223644244
-0.05811859105000178
-0.05811859105000178
0.009678019119489734
0.018152595390676207
0.0012034428483033155
0.06052547674660841
-0.03269486223644244
-0.04964401477881533
-0.041169438507628886
0.052050900475421935
0.0012034428483033155
-0.05811859105000178
0.052050900475421935
-0.04964401477881533
0.0351017479330491
-0.05811859105000178
-0.06632430862007502
SCALARS c_peak_movement_2 float 1
LOOKUP_TABLE default
-0.016727139604743035
-0.0004742197119899094
-0.008948795983176328
-0.024505483226309743
-0.0337757539542044
-0.02589794852554922
-0.008252563333556562
0.0038229606614781364
0.14359357689817953
0.14359357689817953
-0.008948795983176328
-0.0337757539542044
-0.006860098034317086
0.017171165480002748
-0.03437252479673564
-0.025301177683017984
-0.02589794852554922
0.0249495091015694
-0.04075840311906287
-0.02589794852554922
-0.04284710106792211
-0.01637902327993318
-0.006860098034317086
0.03412031802237564
-0.008948795983176328
0.033424085372755874
-0.04075840311906287
0.050373237915128766
-0.007904447008746707
-0.03298005949749616
-0.016826601411831565
-0.025201715875929454
0.01008905450805575
-0.05132167733910853
0.008000356559196564
0.1266444243558067
-0.008352025140645147
-0.03228382684787645
-0.02589794852554922
-0.06618213193262223
-0.04284710106792211
-0.06618213193262223
0.0009182455872495665
-0.0004742197119899094
0.0249495091015694
0.06732239045750155
-0.0174233722543628
0.026341974400808876
-0.05132167733910853
-0.0174233722543628
-0.05132167733910853
-0.03437252479673564
-0.06618213193262223
0.03412031802237564
0.1266444243558067
0.043987359592801534
-0.059796253610295
0.035512783321615116
-0.03437252479673564
0.04898077261588929
-0.06757459723186166
-0.04284710106792211
-0.08521998242385431
-0.10008043701736802
-0.008113316803632642
0.058847814186315184
0.006956007584766943
0.09274611927106102
-0.03437252479673564
-0.059796253610295
0.05745534888707571
0.06732239045750155
0.0249495091015694
-0.08417563344942469
0.058847814186315184
-0.07535294085342842
0.05246193586398795
-0.06827082988148142
-0.08417563344942469
SCALARS c_peak_movement_3 float 1
LOOKUP_TABLE default
-0.048525562314026716
-0.02383883581519408
-0.04834131173534506
0.043957774354297485
0.051204013434272944
0.02700862181192465
-0.00781093616622941
-0.006889683272821134
0.22978428372479376
0.06336360127909235
0.02700862181192465
-0.057737140899939754
-0.03986673546415864
-0.015364259544007552
0.04303652146088921
-0.07345795625110174
0.0048985523701265965
0.0015848929983652837
-0.0746862934423127
-0.04078798835756692
-0.06621171717112628
-0.04078798835756692
-0.02383883581519408
-0.005968430379412859
-0.056508803708728794
-0.04078798835756692
-0.052947576202386326
0.0028132301895762435
0.09357689479020515
-0.006889683272821134
-0.04078798835756692
-0.048525562314026716
-0.0323134120863805
-0.08979294019786899
0.06090692689667032
0.08755899290144065
-0.04078798835756692
0.06090692689667032
0.04874733905185091
-0.08316086971349912
-0.057737140899939754
-0.0746862934423127
0.07417106786541028
0.050589844838667464
0.0015848929983652837
0.011901975056368252
-0.056508803708728794
0.103893976848208
-0.024760088708602357
-0.04078798835756692
-0.0746862934423127
-0.0746862934423127
-0.0746862934423127
0.10991187873697261
0.24366259328913908
0.01853404554073812
-0.08316086971349912
0.02700862181192465
-0.057737140899939754
0.09541940057702158
-0.12369124528261483
-0.10858459852705848
-0.10805816830225379
-0.10011002225587196
0.06090692689667032
0.07785607943904327
0.16260184215090767
0.0615210954922758
-0.0746862934423127
-0.08316086971349912
0.01853404554073812
0.09112022040778311
0.010059469269551702
-0.10858459852705848
0.0948052319814161
-0.10011002225587196
0.043957774354297485
-0.10858459852705848
-0.12553375106943132
SCALARS c_peak_movement_4 float 1
LOOKUP_TABLE default
-0.1185297832785478
0.03885520461491465
-0.11005520700736127
0.024417621924920807
0.032892198196107225
0.025538013331621756
-0.0010061068886385582
-0.008360291753124027
0.16597384868271126
0.04248716587399459
0.06396564452379083
0.017063437060435338
-0.0761569019226156
0.04842892135994914
0.01594304565373439
0.01594304565373439
0.034012589602808174
-0.03378402056668339
-0.1185297832785478
0.04136677446729364
-0.11965017468524874
-0.09310605446498843
-0.09422644587168938
-0.05073317310905623
0.025538013331621756
-0.04021980612317155
0.034012589602808174
-0.025309444295496863
0.0738526501735084
0.007468469382547971
0.04136677446729364
-0.11117559841406222
-0.06768232565142906
-0.11117559841406222
0.07526507955203943
0.05831592700966659
-0.09422644587168938
0.0981772385132198
0.007468469382547971
-0.017955259431011394
-0.008360291753124027
-0.009480683159824976
0.04136677446729364
0.06427893342847402
-0.03490441197338434
-0.017955259431011394
-0.04869438239435797
0.08970266224203338
-0.026429835702197813
-0.026429835702197813
0.00858886078924892
0.02432735957859511
-0.11005520700736127
0.08122808597084685
0.15749927241152484
-0.025309444295496863
-0.026429835702197813
0.08122808597084685
-0.026429835702197813
0.08970266224203338
-0.026429835702197813
-0.16090266463448
-0.03378402056668339
-0.13659932722762158
0.05096174214518112
0.08122808597084685
0.12360096732677905
0.034012589602808174
-0.03490441197338434
-0.13054166574037152
-0.026429835702197813
0.07275350969966043
-0.06880271705813001
-0.03378402056668339
0.0981772385132198
-0.03490441197338434
0.00011428451806239082
-0.04225859683786981
-0.04337898824457076
SCALARS t_peak_movement_0 float 1
LOOKUP_TABLE default
0.013576386330872395
0.004080581190189267
0.0141599456848705
0.0141599456848705
-0.011847342482686929
0.006463448552348192
0.013576386330872395
-0.003372766211500483
0.05594926768680461
0.1576441829410419
-0.003372766211500483
0.014597615200369077
0.030525538873245273
0.03900011514443172
0.007144267798679327
-0.0026919469651693756
-0.003372766211500483
-0.011847342482686929
-0.011847342482686929
-0.05422022383861913
-0.003372766211500483
-0.06766802025700339
0.031887177365907515
-0.0457456475674327
0.030525538873245273
0.07289842022917747
0.005101810059685949
0.005101810059685949
0.04747469141561814
-0.003372766211500483
0.013576386330872395
-0.020321918753873375
0.04747469141561814
-0.03727107129624625
0.03900011514443172
0.04016723385242792
0.013576386330872395
0.022050962602058827
0.006123038929182631
-0.003372766211500483
-0.003372766211500483
-0.003372766211500483
0.04747469141561814
0.013576386330872395
0.004284826964088606
0.011533928591879017
-0.002351537342003801
0.05594926768680461
-0.035909432803584
0.005101810059685949
0.005101810059685949
0.013576386330872395
-0.020321918753873375
-0.035909432803584
-0.06766802025700339
-0.05997152312448108
-0.011847342482686929
0.004284826964088606
-0.011847342482686929
0.03900011514443172
-0.020321918753873375
-0.020321918753873375
-0.03727107129624625
-0.03727107129624625
0.0141599456848705
0.022050962602058827
0.006463448552348192
0.0603389284800043
-0.019641099507542253
-0.011847342482686929
-0.011847342482686929
0.005101810059685949
0.009491470852885653
-0.028796495025059807
0.04747469141561814
-0.019641099507542253
0.022050962602058827
-0.028796495025059807
-0.028796495025059807
SCALARS t_peak_movement_1 float 1
LOOKUP_TABLE default
-0.007719079417956409
0.0007554968532300088
0.0007554968532300088
0.0007554968532300088
-0.0246682319603293
-0.007719079417956409
0.009230073124416482
-0.016193655689142827
0.026179225666789374
0.1448232934633995
-0.007719079417956409
-0.016193655689142827
0.03465380193797579
0.026179225666789374
-0.0246682319603293
-0.0246682319603293
-0.0246682319603293
0.026179225666789374
-0.016193655689142827
-0.0246682319603293
-0.0246682319603293
0.0007554968532300088
0.009230073124416482
0.04312837820916221
0.009230073124416482
0.03465380193797579
-0.017176510052715976
0.0442750416333309
0.009230073124416482
-0.007719079417956409
0.0007554968532300088
-0.016193655689142827
0.03465380193797579
-0.041617384502702165
0.03465380193797579
0.02732588909095801
0.0007554968532300088
0.009230073124416482
-0.016193655689142827
-0.03314280823151572
-0.03314280823151572
-0.0246682319603293
0.03465380193797579
0.008083409700247846
0.018851312819771593
0.051602954480348684
-0.007719079417956409
0.035800465362144485
-0.05009196077388861
-0.0002273575103430847
-0.034289471655684356
-0.016193655689142827
-0.05009196077388861
0.04312837820916221
-0.017788251415317424
0.0600775307515351
-0.03412566259508881
0.04312837820916221
-0.016193655689142827
0.026179225666789374
-0.04333737963895512
-0.03412566259508881
-0.05856653704507506
-0.05856653704507506
0.008247218760843333
0.0177046493956029
0.0007554968532300088
0.06351752102404107
-0.03314280823151572
-0.05009196077388861
-0.041617384502702165
0.05274961790451732
0.0076354773982418855
-0.05856653704507506
0.051602954480348684
-0.051074815137461704
0.04153378248298761
-0.05856653704507506
-0.0670411133162615
SCALARS t_peak_movement_2 float 1
LOOKUP_TABLE default
-0.02403775099725952
-0.008299252207913277
-0.019448500004670133
-0.03251232726844594
-0.03580646983483632
-0.03493363477449929
-0.010382741021276953
-0.0010353296897535058
0.14961590056087204
0.12159737694436823
-0.007163760456076973
-0.039776249786605766
-0.01360172158647699
0.0089971484700202
-0.04340821104568571
-0.03769276097324209
-0.027331893563649845
0.019545784111699382
-0.04891245604975386
-0.027331893563649845
-0.04428104610602274
-0.022827097244232875
-0.010382741021276953
0.02292438135126207
-0.02610992447917798
0.012400180198514188
-0.04428104610602274
0.03724573604064163
-0.010382741021276953
-0.02835020113404313
-0.018857317292463427
-0.027331893563649845
-0.005521267123428375
-0.052755622377209155
0.014022680221889017
0.12003004561290997
-0.010382741021276953
-0.013437663732456695
-0.008018010172449963
-0.0718726363435847
-0.04704017230476554
-0.06123019864839563
-0.005877944701860038
0.0053444424366239085
0.01591382285261933
0.05828670420855153
-0.02524840475028617
0.1021514813529738
-0.046711783054947054
-0.018857317292463427
-0.05551474857595201
-0.0469908728860261
-0.06398932484713843
0.031990140334655304
0.14093766277560693
0.03321210941912711
-0.06641063235319172
0.031990140334655304
-0.03580646983483632
0.0872389439513872
-0.06970477491958205
-0.06664985220840236
-0.08665392746195494
-0.09512850373314136
0.0029203060977093798
0.07495420440279421
0.09673182779296696
0.08668076428922922
-0.03580646983483632
-0.06641063235319172
0.049812127937365114
0.06588844541940098
0.023515564063468775
-0.09183436116675103
0.06466647633492906
-0.0813983317559685
0.05741386914821456
-0.08088917797077183
-0.09390653464866949
SCALARS t_peak_movement_3 float 1
LOOKUP_TABLE default
-0.06134354556115451
-0.01497613731559011
-0.060595557010011514
0.034701652178958486
0.04231001199725237
0.028638137008711206
-0.005880864560219079
-0.0074516405176195954
0.22355339124599938
0.05406186582227046
0.03437337272791641
-0.0501158353687049
-0.04522198833102764
-0.015926216788806014
0.03262478197303931
-0.07770786403724239
0.034921240838312606
-0.005260168076034577
-0.08722993957659753
-0.0447397761108399
-0.08445394836529585
-0.059000899024280185
-0.036382481949478795
-0.017558234826691277
-0.0684056924538099
-0.04763304943196678
-0.04164125909751848
-0.005260168076034577
0.08796017090701624
0.00047506764317062355
0.04010860844712172
-0.06508348831686972
-0.03915847316078036
-0.10230399753855568
0.06253644209345699
0.07163171484882791
-0.06375460666209365
0.06976962539627429
0.04558728955108404
-0.09000593078789898
-0.046463381299396866
-0.028416285460252766
0.06811774504351642
0.0740069135318675
-0.005260168076034577
0.003214408195151841
-0.06458220197433961
0.09643474717820266
-0.02440079305999243
-0.04763304943196678
0.008036530397030117
-0.07429817121389526
-0.08153135451671256
0.11119242727899059
0.22055749607877506
0.005990399406453406
-0.09000593078789898
0.028017440524526704
-0.06217114087340059
0.10216998289740797
-0.06252976505239549
-0.11542965960145835
-0.11542965960145835
-0.10695508333027182
0.06071021505880281
0.08696705653232106
0.1620398849061092
0.05406186582227046
-0.07912029341577342
-0.10230399753855568
-0.000402183456256866
0.1143825314429836
-0.015092000737529476
-0.04164125909751848
0.10408172813714311
-0.10695508333027182
0.03141412822001266
-0.11542965960145835
-0.1368667434506895
SCALARS t_peak_movement_4 float 1
LOOKUP_TABLE default
-0.11607253412132079
0.041312453772141655
-0.10759795785013437
0.02462279349207941
0.03309736976326583
0.024849849221601272
-0.0008009353214799564
-0.007580596338429113
0.16843109783993826
0.04326686128868951
0.06280956719596564
0.017843132475130252
-0.0743986334914436
0.04989515181929083
0.01614821722089299
0.01614821722089299
0.03332442549278769
-0.03300432515198848
-0.11775008786385288
0.041571946034452245
-0.11944500311809014
-0.09232635905029352
-0.09402127430453078
-0.048974904677884235
0.02631770874631667
-0.04317381667741216
0.03332442549278769
-0.02452974888080195
0.0753188806328502
0.007673640949706462
0.041571946034452245
-0.10970936795472042
-0.06690263023673415
-0.11097042684690372
0.07547025111919803
0.05852109857682519
-0.09402127430453078
0.1006344876704468
0.007673640949706462
-0.017750087863852793
-0.009048455863144511
-0.009275511592666374
0.041571946034452245
0.06673618258570102
-0.03343818151404243
-0.017750087863852793
-0.051648392948598576
0.09215991139926027
-0.02622466413503932
-0.034472184676703876
0.009368556203943834
0.02462279349207941
-0.10927551159266635
0.08368533512807386
0.15995652156875184
-0.02355117586432498
-0.03409375846083418
0.08368533512807386
-0.034472184676703876
0.09215991139926027
-0.02622466413503932
-0.158445415477253
-0.03300432515198848
-0.13639415566046298
0.051741437559876036
0.08368533512807386
0.12605821648400606
0.03479228501750309
-0.0375741941646881
-0.14997083920606658
-0.02622466413503932
0.07521075885688744
-0.06859754549097152
-0.03300432515198848
0.1006344876704468
-0.03469924040622574
0.000893979932757305
-0.042946760947890295
-0.04317381667741216
SCALARS c_peak_values_0 float 1
LOOKUP_TABLE default
0.8440618537461425
0.6017184597793904
1.0513487206984806
0.9396450933033396
0.715625174808232
0.7007669938983261
1.4301248744715538
1.001373364071244
0.5329980021125623
1.5623582441567523
1.3432779843122231
0.7872137116092349
1.6184348791068073
0.7757416404485457
0.6303909493519391
0.8369134402542836
1.0793254296373058
0.9583132942618654
0.8155209802486239
0.876602095869005
0.786474578109412
1.3345847222980038
0.7248061661815781
0.9476103672493618
2.163405380810085
0.8085141682336142
1.0640934576344554
1.1066026956897483
0.6372139936690959
0.8902087246548848
1.1068807904620424
1.0394523075652373
0.9815687383450987
1.1669641956810501
1.184727234210608
0.7196331245003643
1.3668282403995113
1.0067233419845338
0.8439395823371392
0.8155502683282804
1.1675292439820888
0.9815214405870868
1.616490555774855
1.2094474007835412
0.9537881579447667
1.282184464748306
0.6375540747174688
0.7832105731068207
0.899822403516314
1.1087973133723228
0.7718801271600725
1.3480898059048887
0.9579410708851629
0.8700626477552529
1.2075289166565057
1.3231226309487576
0.9863346801241961
1.0748052516071105
1.336927026793431
0.8270713359420965
0.7634725527511038
1.1695032092581157
0.9182757166670508
0.541855278912618
0.9995810508543402
1.1074072366816226
1.0417362762340383
1.42502939059899
1.3333455089086108
0.8626440983756787
0.7475773302167433
1.0912659160793363
0.8520768615631036
1.3783680730990353
1.1858235570419546
1.1683152206849072
1.4555380357341412
1.0870248964427938
1.161292239912324
SCALARS c_peak_values_1 float 1
LOOKUP_TABLE default
1.4927603720645144
0.8548392218464376
1.0979032638130322
0.9403526459459528
1.0839415059071256
0.8244655897198052
0.8469083067008998
1.2090958904104505
0.8683643723099452
1.0286241801679226
1.0435809871680708
1.2024690667227584
0.9068437654950751
0.7855328948178368
1.0553811482181423
0.9502778287299933
1.1427295403055209
0.9647342333587867
1.1438924931976067
1.0385893490659037
1.249762783208508
1.0996461073727335
1.1030812115619972
0.992696633281516
1.0843755607207657
0.6716227249223314
1.2704169709828224
0.7381206873969678
0.9272375730616153
0.9387757015215106
1.3262753908653349
1.1224129198788373
0.9575092589933785
1.3077640220007336
0.9983701628578923
0.8008572743934553
1.4245183855184929
0.9444659784293937
1.0744105492041016
1.137792625516687
1.279989388176919
1.104090983676935
0.6009880034791129
0.9033339266578616
0.9923810136587837
0.890706375530739
1.0324663913120575
0.948420047126911
1.0439038601461883
1.2727004552861372
1.0079013567243837
1.1528167491733579
0.8550457180891518
0.897150838109167
0.8352149772705335
0.7226855702534255
1.128589452092163
0.7468495683681317
1.1104059160444968
0.9232611477788993
0.9488258924346812
1.0696447673669265
0.9731416200602633
0.8044513842131243
1.0031831259557937
1.1329869140037014
0.8981513972447508
0.5082663074892998
1.2360579444165796
1.0147010762487694