# vtk DataFile Version 3.0
tangent_project_data
ASCII
DATASET POLYDATA
POINTS 9401 float
-9.86348222496605 17.733746009678693 11.448567198303952
-9.89926461827675 17.590740918538778 11.440839385276341
-9.948508983669699 17.435732462453508 11.468324948612644
-10.011544717599383 17.273793461504724 11.518047592805056
-10.08835547182155 17.11020987609536 11.57757271148301
-10.178110930969346 16.950583447235957 11.635562752289008
-10.27862549501621 16.800739262260986 11.68235028820298
-10.385952861951479 16.66628230854295 11.710360370644935
-10.494409885721293 16.551754510056348 11.71433816427014
-10.597277183251194 16.459597027825804 11.6914708913426
-10.688032747336425 16.389157621374775 11.64151221406226
-10.761863521883896 16.33616293574045 11.5668920200492
-10.816872413620088 16.292993443514433 11.472636527773716
-10.854428793348626 16.2499179482059 11.365875845019147
-10.878559422816545 16.197025028529637 11.254869420587543
-10.894599823219238 16.126210015000307 11.147633953676081
-10.907616619975679 16.03268981727804 11.050459187189558
-10.921010827730276 15.915685766325991 10.966664401256086
-10.935630636247648 15.778302529531503 10.896003990232037
-10.949531412717043 15.626666945460094 10.834977326465697
-10.958457236315875 15.468560090364006 10.777937072146155
-10.95675894883994 15.311822283021886 10.718684522054769
-10.938608185349612 15.163011161806798 10.652034549428091
-10.899284301158492 15.026200375895996 10.575122962653806
-10.836323531570775 14.90264454355361 10.488257872483704
-10.750211517180674 14.79078181201304 10.395293271076222
-10.644453809653937 14.687361952577845 10.303344969070478
-10.525125836644497 14.58860883874552 10.22184056557884
-10.400090626398422 14.491820349259008 10.160960202332703
-10.278089284913987 14.396397194093908 10.129887340855316
-10.167758161440819 14.30414520289815 10.135222561385826
-10.076512812463877 14.218758872545195 10.179878004252584
-10.009384320029204 14.144995728062776 10.262664885021753
-9.968148650523231 14.087405018883109 10.378625446062987
-9.951133402559378 14.049318267343217 10.520110936621037
-9.953897811792235 14.031868352320508 10.678311068951011
-9.970541505451619 14.03348080569521 10.844933804061807
-9.995139573695518 14.050144683840013 11.013536267295407
-10.02272184831073 14.076248876527801 11.180293662811929
-10.04963449696461 14.105905145730082 11.344039645192183
-10.073387447669832 14.13423716462411 11.505674275713865
-10.092238918613518 14.157974620188853 11.66714856274651
-10.104734944625132 14.175181783203877 11.830278849417134
-10.109353197293856 14.18442365199336 11.99572662038781
-10.104472667966371 14.18358428271772 12.162361219806362
-10.088800838997653 14.16951691879394 12.32718279024541
-10.062019699835329 14.138126811992702 12.4858117438124
-10.02532958983078 14.085335711747643 12.633399156626465
-9.981607854659648 14.008232957630812 12.765679158007226
-9.935040917707319 13.905906743312247 12.879892704015216
-9.890426333773418 13.77991370710626 12.975307932573998
-9.85235087170977 13.633827520491202 13.05322662068726
-9.82449989520438 13.472544488936709 13.116513351494886
-9.809187905280991 13.301249695574699 13.16883875607009
-9.807141454563666 13.124481627922528 13.21390835220843
-9.817481585720008 12.945682470648617 13.254845494067684
-9.837799208605283 12.766981875969929 13.293860554180933
-9.864324245920024 12.58952785793685 13.332153753553822
-9.89212418142609 12.41387128123089 13.370022865039068
-9.915448704482484 12.240442391037796 13.407101043295722
-9.928180235481982 12.069855309277767 13.442644460628394
-9.92450031384859 11.903147931671551 13.475885305967068
-9.899628528008916 11.741663559738157 13.506385194857826
-9.850589550958926 11.586619368985383 13.534349487540908
-9.776729368946558 11.439062066382736 13.560818451711928
-9.679860062605558 11.299581426553402 13.587663415680835
-9.563865493241511 11.1684867015556 13.617340526369443
-9.433890190350196 11.04625192669133 13.65243564068733
-9.295274618824198 10.934150250446155 13.695111962564667
-9.152596593927974 10.83455636130053 13.746594511443543
-9.00902100261964 10.75098238737716 13.806908270035159
-8.866158499570682 10.68754693084849 13.874913349154689
-8.724318509482309 10.647965479856339 13.948680908538108
-8.583057088355567 10.634235586062228 14.026067223505411
-8.441723237732987 10.646005444511687 14.10524232883345
-8.299852629493616 10.680164370989656 14.18510255999248
-8.157279141397211 10.731704052367919 14.265229998095977
-8.014245238399912 10.79478334346223 14.345619927454122
-7.871086498654519 10.864109829305015 14.426323943464075
-7.728165664365717 10.935881679659701 14.506982169687276
-7.585612378330044 11.008163788113212 14.58682422377376
-7.443313165264546 11.080499706764439 14.664706195952547
-7.300769001392938 11.153314589376624 14.739487128931987
-7.157325488399186 11.226997842163412 14.810414082023616
-7.012115049584235 11.301288163576833 14.877396398605512
-6.864563620985596 11.37497487768416 14.940956226765465
-6.714283869457519 11.445904555361173 15.002441254690797
-6.5615703155704965 11.51149077420867 15.063658314328087
-6.407298198289826 11.568781372219373 15.126784255204466
-6.2527229441964085 11.615230020899698 15.19406228965065
-6.099426475505884 11.64866917009175 15.267648955763885
-5.948853196806164 11.66767263050068 15.349120683185685
-5.801927021496405 11.671557048849198 15.439208321715437
-5.65889576425539 11.660496122848748 15.537638281646315
-5.5193169176069965 11.634933042930914 15.642785836235365
-5.382347119976657 11.595745371751208 15.752066611663716
-5.2477060381364735 11.543654144977722 15.862262410762066
-5.116071200961404 11.47900696158619 15.97022402546463
-4.990145363705162 11.402006754334131 16.073664849259963
-4.87458854602493 11.312677927915153 16.171577579259427
-4.775666797298863 11.211338414879219 16.264365338888826
-4.699895761690524 11.098765986838375 16.35344899791503
-4.652518555726198 10.976322507214219 16.44035126827922
-4.636074645228303 10.845619002477818 16.52599951825208
-4.649273930094592 10.70820096802509 16.60999613107624
-4.687275148598726 10.565188352399208 16.690704307666348
-4.742332779766662 10.41706898675669 16.7657400106728
-4.805493548213679 10.263932888300037 16.832688327864645
-4.86823132208468 10.105750248309754 16.89010675484385
-4.924046540875661 9.942789374479464 16.938181474873485
-4.969454955419664 9.776183645745164 16.97900677819748
-5.004357478186584 9.60795386198366 17.016496542199924
-5.03185802631517 9.441132688905121 17.055885746098646
-5.057184781796315 9.279501153378778 17.10302462943397
-5.087176351293803 9.127465370207766 17.163871160201197
-5.129209180976161 8.98953773776935 17.2440384821365
-5.190936161629573 8.870384568471295 17.348845058712104
-5.27982363490023 8.774589160512427 17.483301992841078
-5.403511498371435 8.706689652703755 17.652401409962224
-11.985054937734981 -4.3729732004475625 -9.917739772960907
-12.121484367824845 -4.496925723633535 -9.951104695361984
-12.256612997088954 -4.622204985870936 -9.966397852412332
-12.388864777827589 -4.7461966727597105 -9.969920690997416
-12.516761220062365 -4.866392176302152 -9.968028660094877
-12.63902005289024 -4.980531071486522 -9.967096378635082
-12.754742881814732 -5.086832864860188 -9.973338815345391
-12.863544827543047 -5.184304350083989 -9.99241199504424
-12.965690446408505 -5.273000255480261 -10.02879579051103
-13.062061165593274 -5.354228281176495 -10.085082811343366
-13.153965856910693 -5.43048361602405 -10.161524921265338
-13.242782682877335 -5.505200133958599 -10.255954668789355
-13.329548462375465 -5.582245567962042 -10.364293138090275
-13.41450418471848 -5.665245487634088 -10.481486374823973
-13.496819346244797 -5.756941962838661 -10.602515735939306
-13.574483097623016 -5.85874247959746 -10.723242053826171
-13.644436329337594 -5.970492685699156 -10.840901806914285
-13.702878780181509 -6.0905881347636255 -10.95420900857333
-13.745722118594859 -6.216260127828891 -11.063241755236291
-13.769062901440016 -6.344046324677903 -11.16915546258854
-13.769693447831184 -6.470337469473684 -11.273797232689168
-13.745576370933987 -6.591967185431813 -11.379244014333137
-13.696252522071346 -6.706767957627313 -11.487195430382961
-13.623116560940458 -6.813960854924355 -11.598400880511154
-13.52939838232249 -6.9142130983855825 -11.712058766035977
-13.419938505053937 -7.009419262108574 -11.825426821852343
-13.30065467662412 -7.102129180646087 -11.93368009156661
-13.177922538355741 -7.194833457242459 -12.030200838132188
-13.057953491340873 -7.289262987113878 -12.107286975152501
-12.946235273618923 -7.385772674615091 -12.157272142373202
-12.847202884631411 -7.483182640532602 -12.17386184906808
-12.76400748274646 -7.5786670271681125 -12.153344104704153
-12.698488146784898 -7.668264307604192 -12.09542606400497
-12.65126791191914 -7.747522906379411 -12.00330573309024
-12.621905984342018 -7.812280274999543 -11.883068285856602
-12.609020894873318 -7.859515249747364 -11.742505138472406
-12.610356452866679 -7.887910215383294 -11.589704560463526
-12.622863572742974 -7.89822188061154 -11.431794636507181
-12.642920199318322 -7.893230311777701 -11.274037176978748
-12.66675621354381 -7.877437814085935 -11.119385780152953
-12.69097144122371 -7.856601368945751 -10.968589935420713
-12.712997400677004 -7.836824089338349 -10.820642308823007
-12.731281620933954 -7.823867364858257 -10.67355722315517
-12.745288981348093 -7.822318106838099 -10.525158737785054
-12.755354997696738 -7.835349794085838 -10.37379671492969
-12.762484019046518 -7.864634301368767 -10.218877873313474
-12.768114787209413 -7.910623596780055 -10.061041601481115
-12.773839279517626 -7.972638935083432 -9.90210760515242
-12.78116265045285 -8.049363595472968 -9.744824226577299
-12.791291878186914 -8.139128732188361 -9.592507958372925
-12.805061044205102 -8.240289543313306 -9.44865468918687
-12.822867926312682 -8.35155232654115 -9.316539607211856
-12.844709427862272 -8.472123731514777 -9.198771937473365
-12.870204808610984 -8.601571455729413 -9.096889448681578
[...]
CELL_DATA 79
SCALARS c_peak_movement_0 float 1
LOOKUP_TABLE default
0.013576386330872395
0.004080581190189267
0.0141599456848705
0.0141599456848705
-0.011847342482686929
0.006463448552348192
0.013576386330872395
-0.003372766211500483
0.05594926768680461
0.1576441829410419
-0.003372766211500483
0.014597615200369077
0.030525538873245273
0.03900011514443172
0.007144267798679327
-0.0026919469651693756
-0.003372766211500483
-0.011847342482686929
-0.011847342482686929
-0.05422022383861913
-0.003372766211500483
-0.06766802025700339
0.031887177365907515
-0.0457456475674327
0.030525538873245273
0.07289842022917747
0.005101810059685949
0.005101810059685949
0.04747469141561814
-0.003372766211500483
0.013576386330872395
-0.020321918753873375
0.04747469141561814
-0.03727107129624625
0.03900011514443172
0.04016723385242792
0.013576386330872395
0.022050962602058827
0.006123038929182631
-0.003372766211500483
-0.003372766211500483
-0.003372766211500483
0.04747469141561814
0.013576386330872395
0.004284826964088606
0.011533928591879017
-0.002351537342003801
0.05594926768680461
-0.035909432803584
0.005101810059685949
0.005101810059685949
0.013576386330872395
-0.020321918753873375
-0.035909432803584
-0.06766802025700339
-0.05997152312448108
-0.011847342482686929
0.004284826964088606
-0.011847342482686929
0.03900011514443172
-0.020321918753873375
-0.020321918753873375
-0.03727107129624625
-0.03727107129624625
0.0141599456848705
0.022050962602058827
0.006463448552348192
0.0603389284800043
-0.019641099507542253
-0.011847342482686929
-0.011847342482686929
0.005101810059685949
0.009491470852885653
-0.028796495025059807
0.04747469141561814
-0.019641099507542253
0.022050962602058827
-0.028796495025059807
-0.028796495025059807
SCALARS c_peak_movement_1 float 1
LOOKUP_TABLE default
-0.007271133422883103
0.0010242037142278448
0.0012034428483033155
0.0012034428483033155
-0.024220285965255994
-0.007271133422883103
0.009678019119489734
-0.015745709694069576
0.026627171661862625
0.1452712394584728
-0.007271133422883103
-0.015745709694069576
0.0351017479330491
0.026627171661862625
-0.024220285965255994
-0.024220285965255994
-0.024066652421762758
0.026627171661862625
-0.015745709694069576
-0.024220285965255994
-0.024220285965255994
0.0012034428483033155
0.009678019119489734
0.04357632420423552
0.009857258253565204
0.0351017479330491
-0.015745709694069576
0.04357632420423552
0.009678019119489734
-0.007271133422883103
0.0012034428483033155
-0.015745709694069576
0.0351017479330491
-0.041169438507628886
0.0351017479330491
0.026627171661862625
0.0012034428483033155
0.009678019119489734
-0.015745709694069576
-0.03269486223644244
-0.0325412286929492
-0.024220285965255994
0.0351017479330491
0.009678019119489734
0.018152595390676207
0.052050900475421935
-0.007271133422883103
0.0351017479330491
-0.04964401477881533
0.0012034428483033155
-0.03269486223644244
-0.015745709694069576
-0.04964401477881533
0.04357632420423552
-0.024220285965255994
0.06052547674660841
-0.03269486223644244
0.04357632420423552
-0.015745709694069576
0.026447932527787155
-0.041169438507628886
-0.03269486223644244
-0.05811859105000178
-0.05811859105000178
0.009678019119489734
0.018152595390676207
0.0012034428483033155
0.06052547674660841
-0.03269486223644244
-0.04964401477881533
-0.041169438507628886
0.052050900475421935
0.0012034428483033155
-0.05811859105000178
0.052050900475421935
-0.04964401477881533
0.0351017479330491
-0.05811859105000178
-0.06632430862007502
SCALARS c_peak_movement_2 float 1
LOOKUP_TABLE default
-0.016727139604743035
-0.0004742197119899094
-0.008948795983176328
-0.024505483226309743
-0.0337757539542044
-0.02589794852554922
-0.008252563333556562
0.0038229606614781364
0.14359357689817953
0.14359357689817953
-0.008948795983176328
-0.0337757539542044
-0.006860098034317086
0.017171165480002748
-0.03437252479673564
-0.025301177683017984
-0.02589794852554922
0.0249495091015694
-0.04075840311906287
-0.02589794852554922
-0.04284710106792211
-0.01637902327993318
-0.006860098034317086
0.03412031802237564
-0.008948795983176328
0.033424085372755874
-0.04075840311906287
0.050373237915128766
-0.007904447008746707
-0.03298005949749616
-0.016826601411831565
-0.025201715875929454
0.01008905450805575
-0.05132167733910853
0.008000356559196564
0.1266444243558067
-0.008352025140645147
-0.03228382684787645
-0.02589794852554922
-0.06618213193262223
-0.04284710106792211
-0.06618213193262223
0.0009182455872495665
-0.0004742197119899094
0.0249495091015694
0.06732239045750155
-0.0174233722543628
0.026341974400808876
-0.05132167733910853
-0.0174233722543628
-0.05132167733910853
-0.03437252479673564
-0.06618213193262223
0.03412031802237564
0.1266444243558067
0.043987359592801534
-0.059796253610295
0.035512783321615116
-0.03437252479673564
0.04898077261588929
-0.06757459723186166
-0.04284710106792211
-0.08521998242385431
-0.10008043701736802
-0.008113316803632642
0.058847814186315184
0.006956007584766943
0.09274611927106102
-0.03437252479673564
-0.059796253610295
0.05745534888707571
0.06732239045750155
0.0249495091015694
-0.08417563344942469
0.058847814186315184
-0.07535294085342842
0.05246193586398795
-0.06827082988148142
-0.08417563344942469
SCALARS c_peak_movement_3 float 1
LOOKUP_TABLE default
-0.048525562314026716
-0.02383883581519408
-0.04834131173534506
0.043957774354297485
0.051204013434272944
0.02700862181192465
-0.00781093616622941
-0.006889683272821134
0.22978428372479376
0.06336360127909235
0.02700862181192465
-0.057737140899939754
-0.03986673546415864
-0.015364259544007552
0.04303652146088921
-0.07345795625110174
0.0048985523701265965
0.0015848929983652837
-0.0746862934423127
-0.04078798835756692
-0.06621171717112628
-0.04078798835756692
-0.02383883581519408
-0.005968430379412859
-0.056508803708728794
-0.04078798835756692
-0.052947576202386326
0.0028132301895762435
0.09357689479020515
-0.006889683272821134
-0.04078798835756692
-0.048525562314026716
-0.0323134120863805
-0.08979294019786899
0.06090692689667032
0.08755899290144065
-0.04078798835756692
0.06090692689667032
0.04874733905185091
-0.08316086971349912
-0.057737140899939754
-0.0746862934423127
0.07417106786541028
0.050589844838667464
0.0015848929983652837
0.011901975056368252
-0.056508803708728794
0.103893976848208
-0.024760088708602357
-0.04078798835756692
-0.0746862934423127
-0.0746862934423127
-0.0746862934423127
0.10991187873697261
0.24366259328913908
0.01853404554073812
-0.08316086971349912
0.02700862181192465
-0.057737140899939754
0.09541940057702158
-0.12369124528261483
-0.10858459852705848
-0.10805816830225379
-0.10011002225587196
0.06090692689667032
0.07785607943904327
0.16260184215090767
0.0615210954922758
-0.0746862934423127
-0.08316086971349912
0.01853404554073812
0.09112022040778311
0.010059469269551702
-0.10858459852705848
0.0948052319814161
-0.10011002225587196
0.043957774354297485
-0.10858459852705848
-0.12553375106943132
SCALARS c_peak_movement_4 float 1
LOOKUP_TABLE default
-0.1185297832785478
0.03885520461491465
-0.11005520700736127
0.024417621924920807
0.032892198196107225
0.025538013331621756
-0.0010061068886385582
-0.008360291753124027
0.16597384868271126
0.04248716587399459
0.06396564452379083
0.017063437060435338
-0.0761569019226156
0.04842892135994914
0.01594304565373439
0.01594304565373439
0.034012589602808174
-0.03378402056668339
-0.1185297832785478
0.04136677446729364
-0.11965017468524874
-0.09310605446498843
-0.09422644587168938
-0.05073317310905623
0.025538013331621756
-0.04021980612317155
0.034012589602808174
-0.025309444295496863
0.0738526501735084
0.007468469382547971
0.04136677446729364
-0.11117559841406222
-0.06768232565142906
-0.11117559841406222
0.07526507955203943
0.05831592700966659
-0.09422644587168938
0.0981772385132198
0.007468469382547971
-0.017955259431011394
-0.008360291753124027
-0.009480683159824976
0.04136677446729364
0.06427893342847402
-0.03490441197338434
-0.017955259431011394
-0.04869438239435797
0.08970266224203338
-0.026429835702197813
-0.026429835702197813
0.00858886078924892
0.02432735957859511
-0.11005520700736127
0.08122808597084685
0.15749927241152484
-0.025309444295496863
-0.026429835702197813
0.08122808597084685
-0.026429835702197813
0.08970266224203338
-0.026429835702197813
-0.16090266463448
-0.03378402056668339
-0.13659932722762158
0.05096174214518112
0.08122808597084685
0.12360096732677905
0.034012589602808174
-0.03490441197338434
-0.13054166574037152
-0.026429835702197813
0.07275350969966043
-0.06880271705813001
-0.03378402056668339
0.0981772385132198
-0.03490441197338434
0.00011428451806239082
-0.04225859683786981
-0.04337898824457076
SCALARS t_peak_movement_0 float 1
LOOKUP_TABLE default
0.013576386330872395
0.004080581190189267
0.0141599456848705
0.0141599456848705
-0.011847342482686929
0.006463448552348192
0.013576386330872395
-0.003372766211500483
0.05594926768680461
0.1576441829410419
-0.003372766211500483
0.014597615200369077
0.030525538873245273
0.03900011514443172
0.007144267798679327
-0.0026919469651693756
-0.003372766211500483
-0.011847342482686929
-0.011847342482686929
-0.05422022383861913
-0.003372766211500483
-0.06766802025700339
0.031887177365907515
-0.0457456475674327
0.030525538873245273
0.07289842022917747
0.005101810059685949
0.005101810059685949
0.04747469141561814
-0.003372766211500483
0.013576386330872395
-0.020321918753873375
0.04747469141561814
-0.03727107129624625
0.03900011514443172
0.04016723385242792
0.013576386330872395
0.022050962602058827
0.006123038929182631
-0.003372766211500483
-0.003372766211500483
-0.003372766211500483
0.04747469141561814
0.013576386330872395
0.004284826964088606
0.011533928591879017
-0.002351537342003801
0.05594926768680461
-0.035909432803584
0.005101810059685949
0.005101810059685949
0.013576386330872395
-0.020321918753873375
-0.035909432803584
-0.06766802025700339
-0.05997152312448108
-0.011847342482686929
0.004284826964088606
-0.011847342482686929
0.03900011514443172
-0.020321918753873375
-0.020321918753873375
-0.03727107129624625
-0.03727107129624625
0.0141599456848705
0.022050962602058827
0.006463448552348192
0.0603389284800043
-0.019641099507542253
-0.011847342482686929
-0.011847342482686929
0.005101810059685949
0.009491470852885653
-0.028796495025059807
0.04747469141561814
-0.019641099507542253
0.022050962602058827
-0.028796495025059807
-0.028796495025059807
SCALARS t_peak_movement_1 float 1
LOOKUP_TABLE default
-0.007719079417956409
0.0007554968532300088
0.0007554968532300088
0.0007554968532300088
-0.0246682319603293
-0.007719079417956409
0.009230073124416482
-0.016193655689142827
0.026179225666789374
0.1448232934633995
-0.007719079417956409
-0.016193655689142827
0.03465380193797579
0.026179225666789374
-0.0246682319603293
-0.0246682319603293
-0.0246682319603293
0.026179225666789374
-0.016193655689142827
-0.0246682319603293
-0.0246682319603293
0.0007554968532300088
0.009230073124416482
0.04312837820916221
0.009230073124416482
0.03465380193797579
-0.017176510052715976
0.0442750416333309
0.009230073124416482
-0.007719079417956409
0.0007554968532300088
-0.016193655689142827
0.03465380193797579
-0.041617384502702165
0.03465380193797579
0.02732588909095801
0.0007554968532300088
0.009230073124416482
-0.016193655689142827
-0.03314280823151572
-0.03314280823151572
-0.0246682319603293
0.03465380193797579
0.008083409700247846
0.018851312819771593
0.051602954480348684
-0.007719079417956409
0.035800465362144485
-0.05009196077388861
-0.0002273575103430847
-0.034289471655684356
-0.016193655689142827
-0.05009196077388861
0.04312837820916221
-0.017788251415317424
0.0600775307515351
-0.03412566259508881
0.04312837820916221
-0.016193655689142827
0.026179225666789374
-0.04333737963895512
-0.03412566259508881
-0.05856653704507506
-0.05856653704507506
0.008247218760843333
0.0177046493956029
0.0007554968532300088
0.06351752102404107
-0.03314280823151572
-0.05009196077388861
-0.041617384502702165
0.05274961790451732
0.0076354773982418855
-0.05856653704507506
0.051602954480348684
-0.051074815137461704
0.04153378248298761
-0.05856653704507506
-0.0670411133162615
SCALARS t_peak_movement_2 float 1
LOOKUP_TABLE default
-0.02403775099725952
-0.008299252207913277
-0.019448500004670133
-0.03251232726844594
-0.03580646983483632
-0.03493363477449929
-0.010382741021276953
-0.0010353296897535058
0.14961590056087204
0.12159737694436823
-0.007163760456076973
-0.039776249786605766
-0.01360172158647699
0.0089971484700202
-0.04340821104568571
-0.03769276097324209
-0.027331893563649845
0.019545784111699382
-0.04891245604975386
-0.027331893563649845
-0.04428104610602274
-0.022827097244232875
-0.010382741021276953
0.02292438135126207
-0.02610992447917798
0.012400180198514188
-0.04428104610602274
0.03724573604064163
-0.010382741021276953
-0.02835020113404313
-0.018857317292463427
-0.027331893563649845
-0.005521267123428375
-0.052755622377209155
0.014022680221889017
0.12003004561290997
-0.010382741021276953
-0.013437663732456695
-0.008018010172449963
-0.0718726363435847
-0.04704017230476554
-0.06123019864839563
-0.005877944701860038
0.0053444424366239085
0.01591382285261933
0.05828670420855153
-0.02524840475028617
0.1021514813529738
-0.046711783054947054
-0.018857317292463427
-0.05551474857595201
-0.0469908728860261
-0.06398932484713843
0.031990140334655304
0.14093766277560693
0.03321210941912711
-0.06641063235319172
0.031990140334655304
-0.03580646983483632
0.0872389439513872
-0.06970477491958205
-0.06664985220840236
-0.08665392746195494
-0.09512850373314136
0.0029203060977093798
0.07495420440279421
0.09673182779296696
0.08668076428922922
-0.03580646983483632
-0.06641063235319172
0.049812127937365114
0.06588844541940098
0.023515564063468775
-0.09183436116675103
0.06466647633492906
-0.0813983317559685
0.05741386914821456
-0.08088917797077183
-0.09390653464866949
SCALARS t_peak_movement_3 float 1
LOOKUP_TABLE default
-0.06134354556115451
-0.01497613731559011
-0.060595557010011514
0.034701652178958486
0.04231001199725237
0.028638137008711206
-0.005880864560219079
-0.0074516405176195954
0.22355339124599938
0.05406186582227046
0.03437337272791641
-0.0501158353687049
-0.04522198833102764
-0.015926216788806014
0.03262478197303931
-0.07770786403724239
0.034921240838312606
-0.005260168076034577
-0.08722993957659753
-0.0447397761108399
-0.08445394836529585
-0.059000899024280185
-0.036382481949478795
-0.017558234826691277
-0.0684056924538099
-0.04763304943196678
-0.04164125909751848
-0.005260168076034577
0.08796017090701624
0.00047506764317062355
0.04010860844712172
-0.06508348831686972
-0.03915847316078036
-0.10230399753855568
0.06253644209345699
0.07163171484882791
-0.06375460666209365
0.06976962539627429
0.04558728955108404
-0.09000593078789898
-0.046463381299396866
-0.028416285460252766
0.06811774504351642
0.0740069135318675
-0.005260168076034577
0.003214408195151841
-0.06458220197433961
0.09643474717820266
-0.02440079305999243
-0.04763304943196678
0.008036530397030117
-0.07429817121389526
-0.08153135451671256
0.11119242727899059
0.22055749607877506
0.005990399406453406
-0.09000593078789898
0.028017440524526704
-0.06217114087340059
0.10216998289740797
-0.06252976505239549
-0.11542965960145835
-0.11542965960145835
-0.10695508333027182
0.06071021505880281
0.08696705653232106
0.1620398849061092
0.05406186582227046
-0.07912029341577342
-0.10230399753855568
-0.000402183456256866
0.1143825314429836
-0.015092000737529476
-0.04164125909751848
0.10408172813714311
-0.10695508333027182
0.03141412822001266
-0.11542965960145835
-0.1368667434506895
SCALARS t_peak_movement_4 float 1
LOOKUP_TABLE default
-0.11607253412132079
0.041312453772141655
-0.10759795785013437
0.02462279349207941
0.03309736976326583
0.024849849221601272
-0.0008009353214799564
-0.007580596338429113
0.16843109783993826
0.04326686128868951
0.06280956719596564
0.017843132475130252
-0.0743986334914436
0.04989515181929083
0.01614821722089299
0.01614821722089299
0.03332442549278769
-0.03300432515198848
-0.11775008786385288
0.041571946034452245
-0.11944500311809014
-0.09232635905029352
-0.09402127430453078
-0.048974904677884235
0.02631770874631667
-0.04317381667741216
0.03332442549278769
-0.02452974888080195
0.0753188806328502
0.007673640949706462
0.041571946034452245
-0.10970936795472042
-0.06690263023673415
-0.11097042684690372
0.07547025111919803
0.05852109857682519
-0.09402127430453078
0.1006344876704468
0.007673640949706462
-0.017750087863852793
-0.009048455863144511
-0.009275511592666374
0.041571946034452245
0.06673618258570102
-0.03343818151404243
-0.017750087863852793
-0.051648392948598576
0.09215991139926027
-0.02622466413503932
-0.034472184676703876
0.009368556203943834
0.02462279349207941
-0.10927551159266635
0.08368533512807386
0.15995652156875184
-0.02355117586432498
-0.03409375846083418
0.08368533512807386
-0.034472184676703876
0.09215991139926027
-0.02622466413503932
-0.158445415477253
-0.03300432515198848
-0.13639415566046298
0.051741437559876036
0.08368533512807386
0.12605821648400606
0.03479228501750309
-0.0375741941646881
-0.14997083920606658
-0.02622466413503932
0.07521075885688744
-0.06859754549097152
-0.03300432515198848
0.1006344876704468
-0.03469924040622574
0.000893979932757305
-0.042946760947890295
-0.04317381667741216
SCALARS c_peak_values_0 float 1
LOOKUP_TABLE default
0.8440618537461425
0.6017184597793904
1.0513487206984806
0.9396450933033396
0.715625174808232
0.7007669938983261
1.4301248744715538
1.001373364071244
0.5329980021125623
1.5623582441567523
1.3432779843122231
0.7872137116092349
1.6184348791068073
0.7757416404485457
0.6303909493519391
0.8369134402542836
1.0793254296373058
0.9583132942618654
0.8155209802486239
0.876602095869005
0.786474578109412
1.3345847222980038
0.7248061661815781
0.9476103672493618
2.163405380810085
0.8085141682336142
1.0640934576344554
1.1066026956897483
0.6372139936690959
0.8902087246548848
1.1068807904620424
1.0394523075652373
0.9815687383450987
1.1669641956810501
1.184727234210608
0.7196331245003643
1.3668282403995113
1.0067233419845338
0.8439395823371392
0.8155502683282804
1.1675292439820888
0.9815214405870868
1.616490555774855
1.2094474007835412
0.9537881579447667
1.282184464748306
0.6375540747174688
0.7832105731068207
0.899822403516314
1.1087973133723228
0.7718801271600725
1.3480898059048887
0.9579410708851629
0.8700626477552529
1.2075289166565057
1.3231226309487576
0.9863346801241961
1.0748052516071105
1.336927026793431
0.8270713359420965
0.7634725527511038
1.1695032092581157
0.9182757166670508
0.541855278912618
0.9995810508543402
1.1074072366816226
1.0417362762340383
1.42502939059899
1.3333455089086108
0.8626440983756787
0.7475773302167433
1.0912659160793363
0.8520768615631036
1.3783680730990353
1.1858235570419546
1.1683152206849072
1.4555380357341412
1.0870248964427938
1.161292239912324
SCALARS c_peak_values_1 float 1
LOOKUP_TABLE default
1.4927603720645144
0.8548392218464376
1.0979032638130322
0.9403526459459528
1.0839415059071256
0.8244655897198052
0.8469083067008998
1.2090958904104505
0.8683643723099452
1.0286241801679226
1.0435809871680708
1.2024690667227584
0.9068437654950751
0.7855328948178368
1.0553811482181423
0.9502778287299933
1.1427295403055209
0.9647342333587867
1.1438924931976067
1.0385893490659037
1.249762783208508
1.0996461073727335
1.1030812115619972
0.992696633281516
1.0843755607207657
0.6716227249223314
1.2704169709828224
0.7381206873969678
0.9272375730616153
0.9387757015215106
1.3262753908653349
1.1224129198788373
0.9575092589933785
1.3077640220007336
0.9983701628578923
0.8008572743934553
1.4245183855184929
0.9444659784293937
1.0744105492041016
1.137792625516687
1.279989388176919
1.104090983676935
0.6009880034791129
0.9033339266578616
0.9923810136587837
0.890706375530739
1.0324663913120575
0.948420047126911
1.0439038601461883
1.2727004552861372
1.0079013567243837
1.1528167491733579
0.8550457180891518
0.897150838109167
0.8352149772705335
0.7226855702534255
1.128589452092163
0.7468495683681317
1.1104059160444968
0.9232611477788993
0.9488258924346812
1.0696447673669265
0.9731416200602633
0.8044513842131243
1.0031831259557937
1.1329869140037014
0.8981513972447508
0.5082663074892998
1.2360579444165796
1.0147010762487694