# vtk DataFile Version 3.0
tangent_project_data
ASCII
DATASET POLYDATA
POINTS 9401 float
-0.8829991516384212 -0.08136499229094546 -0.34381192149986295
-0.8847882713039561 -0.08851524684794121 -0.3441983121512435
-0.8872504895736036 -0.09626566965220468 -0.34282403398442834
-0.8904022762700878 -0.10436261969964392 -0.34033790177480777
-0.8942428139811962 -0.11254179897011199 -0.3373616458409101
-0.898730586938586 -0.12052312041308216 -0.3344621438006101
-0.9037563151409291 -0.12801532966183085 -0.3321227670049116
-0.9091226834876927 -0.13473817734773258 -0.3307222628828138
-0.9145455346761833 -0.14046456727206272 -0.33052337320155356
-0.9196888995526784 -0.14507244138358993 -0.33166673684793047
-0.9242266777569399 -0.1485944117061414 -0.33416467071194755
-0.9279182164843135 -0.15124414598785757 -0.33789568041260054
-0.9306686610711231 -0.15340262059915843 -0.34260845502637477
-0.93254648005755 -0.1555563953645851 -0.34794648916410326
-0.933753011530946 -0.15820104134839824 -0.35349681038568337
-0.9345550315510806 -0.16174179202486483 -0.35885858373125645
-0.9352058713889027 -0.1664178019109781 -0.3637173220555826
-0.9358755817766324 -0.17226800445858056 -0.3679070613522563
-0.9366065722025011 -0.17913716629830495 -0.3714400819034587
-0.9373016110259709 -0.18671894550187534 -0.37449141509177575
-0.9377479022059124 -0.19462428825667982 -0.37734342780775276
-0.9376629878321158 -0.20246117862378582 -0.3803060553123221
-0.9367554496575993 -0.20990173468454018 -0.383638553943656
-0.9347892554480433 -0.2167422739800803 -0.38748413328237025
-0.9316412169686574 -0.22292006559719962 -0.39182738779087534
-0.9273356162491524 -0.22851320217422805 -0.39647561786124946
-0.9220477308728156 -0.23368419514598782 -0.4010730329615366
-0.9160813322223436 -0.23862185083760412 -0.4051482531361186
-0.9098295717100398 -0.24346127531192974 -0.4081922712984254
-0.903729504635818 -0.2482324330701847 -0.4097459143722948
-0.8982129484621597 -0.2528450326299726 -0.4094791533457693
-0.8936506810133125 -0.25711434914762044 -0.40724638120243134
-0.8902942563915789 -0.2608025063717413 -0.4031070371639729
-0.8882324729162803 -0.2636820418307247 -0.39730900911191125
-0.8873817105180876 -0.26558637940771923 -0.3902347345840087
-0.8875199309797304 -0.2664588751588547 -0.38232472796750994
-0.8883521156626997 -0.2663782524901197 -0.3739935912119703
-0.8895820190748945 -0.2655450585828794 -0.36556346805029016
-0.8909611328056553 -0.26423984894849006 -0.3572255982744641
-0.8923067652383492 -0.26275703548837603 -0.3490382991554514
-0.8934944127736103 -0.2613404345436745 -0.34095656762936727
-0.8944369863207946 -0.2601535617654375 -0.33288285327773504
-0.8950617876213753 -0.2592932036146863 -0.3247263389442039
-0.8952927002548116 -0.2588311101752121 -0.3164539503956701
-0.8950486737884372 -0.2588730786389941 -0.30812222042474247
-0.8942650823400013 -0.2595764468351831 -0.2998811419027901
-0.8929260253818851 -0.261145952175245 -0.2919496942244405
-0.8910915198816578 -0.26378550718749805 -0.28457032358373735
-0.8889054331231011 -0.26764064489333955 -0.2779563235146993
-0.8865770862754847 -0.2727569556092677 -0.27224564621429975
-0.8843463570787896 -0.2790566074195671 -0.2674748847863607
-0.8824425839756073 -0.28636091675032 -0.26357895038069756
-0.8810500351503376 -0.29442506832804466 -0.2604146138403163
-0.8802844356541683 -0.30298980799614517 -0.25779834361155607
-0.8801821131183021 -0.3118282113787537 -0.2555448638046391
-0.8806991196761191 -0.32076816924244933 -0.2534980067116763
-0.8817150008203829 -0.32970319897638367 -0.25154725370601394
-0.8830412526861199 -0.3385758998780376 -0.24963259373736946
-0.8844312494614232 -0.3473587287133356 -0.24773913816310716
-0.885597475614243 -0.35603017322299035 -0.2458852292502745
-0.8862340521642178 -0.3645595273109917 -0.24410805838364086
-0.8860500560825482 -0.37289489619130256 -0.24244601611670719
-0.8848064667905645 -0.38096911478797235 -0.24092102167216928
-0.882354517938065 -0.3887213243256109 -0.2395228070380152
-0.8786615088374466 -0.3960991894557434 -0.2381993588294642
-0.8738180435203966 -0.4030732214472099 -0.2368571106310188
-0.8680183150521943 -0.40962795769710003 -0.2353732550965884
-0.8615195499076285 -0.4157396964403137 -0.23361849938069412
-0.8545887713313286 -0.42134478025257227 -0.23148468328682723
-0.8474548700865174 -0.4263244747098536 -0.2289105558428834
-0.8402760905211006 -0.43050317340602207 -0.22589486791330263
-0.8331329653686528 -0.4336749462324556 -0.22249461395732617
-0.8260409658642341 -0.4356540187820632 -0.2188062359881551
-0.8189778948078971 -0.4363405134717686 -0.21493692023979
-0.811911202276768 -0.43575202054929585 -0.21097816497338806
-0.8048176718647995 -0.43404407422539726 -0.20698515341543655
-0.7976889974599792 -0.4314670901564842 -0.20297878151026172
-0.7905373023101143 -0.4283131256017686 -0.19895928504235444
-0.7833793653228447 -0.4248468013096294 -0.1949240842418568
-0.7762333236084046 -0.421258208791895 -0.1908911729306968
-0.7691056593066209 -0.41764410336921953 -0.18689907022637253
-0.761990698653346 -0.41402730743665817 -0.18300497161743318
-0.7548634904597656 -0.41038656330604883 -0.17926592496846117
-0.747691314810078 -0.4067024006667095 -0.17571957731387977
-0.7404307928693304 -0.4029878845960384 -0.1723704614847849
-0.7330532214393986 -0.3993035488906721 -0.16919247007678734
-0.7255392338629947 -0.3957570650068215 -0.16611821868052062
-0.7179035561686435 -0.3924777540644465 -0.16305736569865625
-0.71018995030461 -0.38961322416391153 -0.15990106865483722
-0.7024611875999391 -0.3872907917298952 -0.15653716693252806
-0.6947963641654129 -0.38561883427029253 -0.15285783362686634
-0.6872677002304268 -0.3846686612498461 -0.14878424725577633
-0.6799213914649389 -0.3844744403324202 -0.14427986532928871
-0.6727698286028883 -0.3850274866324427 -0.13935836733274481
-0.6657908862704686 -0.3863056406283345 -0.1341009896032923
-0.6589423963889516 -0.3882650241873197 -0.12863695083187476
-0.6522103422969424 -0.39086958552599393 -0.12312716087695728
-0.6456286004381888 -0.3941019446955706 -0.11772908014182909
-0.6393323085753768 -0.3979519550581735 -0.11255703895206248
-0.6335544676913653 -0.40241839637912236 -0.1076614024520891
-0.6286083802550618 -0.4074853720309193 -0.1030220144706192
-0.6248198284746449 -0.4131139934329614 -0.09856783151930898
-0.6224509681764285 -0.41923616741416914 -0.09422271800109966
-0.6216287726515338 -0.42577134265098915 -0.08994030550245669
-0.6222887368948482 -0.43264224437362575 -0.08574047486124847
-0.624188797820055 -0.4397928751549197 -0.08170506603174327
-0.6269416793784518 -0.44719884343704563 -0.0779532808814205
-0.6300997178008027 -0.45485564835987835 -0.07460586502182837
-0.6332366064943526 -0.4627647803593925 -0.07173494367286815
-0.6360273674339018 -0.47091282405090695 -0.0693312076713864
-0.6382977881611018 -0.479243110487622 -0.0672899425051865
-0.6400429142994479 -0.48765459967569713 -0.0654154543050644
-0.6414179417058772 -0.4959956583296241 -0.0634459941101283
-0.6426842794799345 -0.5040772351059413 -0.061089049943362006
-0.6441838579548089 -0.5116790242644919 -0.058046723405000666
-0.6462854994389267 -0.5185754058864127 -0.05403835730823564
-0.6493718484715973 -0.5245330643513154 -0.04879802847945536
-0.6538162221351302 -0.5293228347492588 -0.04207518177300673
-0.6600006153086904 -0.5327178101396923 -0.033620210916949445
-0.512264607280619 -0.20691615344603215 -0.14452329485221613
-0.5190860787851121 -0.21311377960533082 -0.14619154097226994
-0.5258425102483176 -0.21937774271720084 -0.14695619882478733
-0.5324550992852493 -0.22557732706163955 -0.14713234075404158
-0.5388499213969882 -0.23158710223876164 -0.14703773920891455
-0.5449628630383819 -0.23729404699798012 -0.14699112513592483
-0.5507490044846065 -0.24260913666666345 -0.14730324697144032
-0.5561891017710223 -0.2474827109278535 -0.14825690595638277
-0.5612963827142952 -0.25191750619766706 -0.15007609572972225
-0.5661149186735336 -0.2559789074824788 -0.15289044677133903
-0.5707101532394045 -0.2597916742248566 -0.15671255226743763
-0.5751509945377367 -0.263527500121584 -0.16143403964363853
-0.5794892835126432 -0.2673797718217561 -0.1668509631086845
-0.5837370696297939 -0.2715297678053584 -0.17271062494536943
-0.5878528277061098 -0.27611459156558704 -0.17876209300113607
-0.5917360152750207 -0.28120461740352704 -0.18479840889547933
-0.5952336768607496 -0.28679212770861184 -0.19068139654988508
-0.5981557994029454 -0.29279690016183535 -0.1963467566328372
-0.6002979663236129 -0.29908049981509854 -0.20179839396598534
-0.6014650054658707 -0.3054698096575492 -0.20709407933359775
-0.601496532785429 -0.3117843668973382 -0.21232616783862915
-0.6002906789405692 -0.3178658526952447 -0.21759850692082763
-0.5978244864974371 -0.3236058913050197 -0.22299607772331886
-0.5941676884408928 -0.3289655361698718 -0.22855635022972848
-0.5894817795099945 -0.33397814834293316 -0.2342392445059696
-0.5840087856465668 -0.33873845652908274 -0.23990764729678787
-0.5780445942250758 -0.34337395245595836 -0.24532031078250122
-0.5719079873116569 -0.348009166285777 -0.2501463481107802
-0.5659095349609136 -0.35273064277934796 -0.25400065496179586
-0.5603236240748161 -0.3575561271544086 -0.25649991332283084
-0.5553720046254405 -0.36242662545028415 -0.2573293986575748
-0.551212234531193 -0.3672008447820596 -0.2563035114393784
-0.5479362677331149 -0.3716807088038636 -0.25340760940441925
-0.5455752559898269 -0.37564363874262463 -0.2488015928586828
-0.5441071596109708 -0.3788815071736311 -0.24278972049700093
-0.5434629051375358 -0.38124325591102226 -0.23576156312779106
-0.5435296830372038 -0.38266300419281873 -0.22812153422734704
-0.5441550390310186 -0.38317858745423106 -0.22022603802952984
-0.5451578703597859 -0.3829290090125391 -0.2123381650531081
-0.5463496710710604 -0.3821393841279508 -0.20460559521181845
-0.5475604324550554 -0.38109756187094157 -0.19706580297520637
-0.54866173042772 -0.3801086978905715 -0.18966842164532113
-0.5495759414405677 -0.3794608616665669 -0.18231416736192924
[...]
CELL_DATA 79
SCALARS c_peak_movement_0 float 1
LOOKUP_TABLE default
0.013576386330872395
0.004080581190189267
0.0141599456848705
0.0141599456848705
-0.011847342482686929
0.006463448552348192
0.013576386330872395
-0.003372766211500483
0.05594926768680461
0.1576441829410419
-0.003372766211500483
0.014597615200369077
0.030525538873245273
0.03900011514443172
0.007144267798679327
-0.0026919469651693756
-0.003372766211500483
-0.011847342482686929
-0.011847342482686929
-0.05422022383861913
-0.003372766211500483
-0.06766802025700339
0.031887177365907515
-0.0457456475674327
0.030525538873245273
0.07289842022917747
0.005101810059685949
0.005101810059685949
0.04747469141561814
-0.003372766211500483
0.013576386330872395
-0.020321918753873375
0.04747469141561814
-0.03727107129624625
0.03900011514443172
0.04016723385242792
0.013576386330872395
0.022050962602058827
0.006123038929182631
-0.003372766211500483
-0.003372766211500483
-0.003372766211500483
0.04747469141561814
0.013576386330872395
0.004284826964088606
0.011533928591879017
-0.002351537342003801
0.05594926768680461
-0.035909432803584
0.005101810059685949
0.005101810059685949
0.013576386330872395
-0.020321918753873375
-0.035909432803584
-0.06766802025700339
-0.05997152312448108
-0.011847342482686929
0.004284826964088606
-0.011847342482686929
0.03900011514443172
-0.020321918753873375
-0.020321918753873375
-0.03727107129624625
-0.03727107129624625
0.0141599456848705
0.022050962602058827
0.006463448552348192
0.0603389284800043
-0.019641099507542253
-0.011847342482686929
-0.011847342482686929
0.005101810059685949
0.009491470852885653
-0.028796495025059807
0.04747469141561814
-0.019641099507542253
0.022050962602058827
-0.028796495025059807
-0.028796495025059807
SCALARS c_peak_movement_1 float 1
LOOKUP_TABLE default
-0.007271133422883103
0.0010242037142278448
0.0012034428483033155
0.0012034428483033155
-0.024220285965255994
-0.007271133422883103
0.009678019119489734
-0.015745709694069576
0.026627171661862625
0.1452712394584728
-0.007271133422883103
-0.015745709694069576
0.0351017479330491
0.026627171661862625
-0.024220285965255994
-0.024220285965255994
-0.024066652421762758
0.026627171661862625
-0.015745709694069576
-0.024220285965255994
-0.024220285965255994
0.0012034428483033155
0.009678019119489734
0.04357632420423552
0.009857258253565204
0.0351017479330491
-0.015745709694069576
0.04357632420423552
0.009678019119489734
-0.007271133422883103
0.0012034428483033155
-0.015745709694069576
0.0351017479330491
-0.041169438507628886
0.0351017479330491
0.026627171661862625
0.0012034428483033155
0.009678019119489734
-0.015745709694069576
-0.03269486223644244
-0.0325412286929492
-0.024220285965255994
0.0351017479330491
0.009678019119489734
0.018152595390676207
0.052050900475421935
-0.007271133422883103
0.0351017479330491
-0.04964401477881533
0.0012034428483033155
-0.03269486223644244
-0.015745709694069576
-0.04964401477881533
0.04357632420423552
-0.024220285965255994
0.06052547674660841
-0.03269486223644244
0.04357632420423552
-0.015745709694069576
0.026447932527787155
-0.041169438507628886
-0.03269486223644244
-0.05811859105000178
-0.05811859105000178
0.009678019119489734
0.018152595390676207
0.0012034428483033155
0.06052547674660841
-0.03269486223644244
-0.04964401477881533
-0.041169438507628886
0.052050900475421935
0.0012034428483033155
-0.05811859105000178
0.052050900475421935
-0.04964401477881533
0.0351017479330491
-0.05811859105000178
-0.06632430862007502
SCALARS c_peak_movement_2 float 1
LOOKUP_TABLE default
-0.016727139604743035
-0.0004742197119899094
-0.008948795983176328
-0.024505483226309743
-0.0337757539542044
-0.02589794852554922
-0.008252563333556562
0.0038229606614781364
0.14359357689817953
0.14359357689817953
-0.008948795983176328
-0.0337757539542044
-0.006860098034317086
0.017171165480002748
-0.03437252479673564
-0.025301177683017984
-0.02589794852554922
0.0249495091015694
-0.04075840311906287
-0.02589794852554922
-0.04284710106792211
-0.01637902327993318
-0.006860098034317086
0.03412031802237564
-0.008948795983176328
0.033424085372755874
-0.04075840311906287
0.050373237915128766
-0.007904447008746707
-0.03298005949749616
-0.016826601411831565
-0.025201715875929454
0.01008905450805575
-0.05132167733910853
0.008000356559196564
0.1266444243558067
-0.008352025140645147
-0.03228382684787645
-0.02589794852554922
-0.06618213193262223
-0.04284710106792211
-0.06618213193262223
0.0009182455872495665
-0.0004742197119899094
0.0249495091015694
0.06732239045750155
-0.0174233722543628
0.026341974400808876
-0.05132167733910853
-0.0174233722543628
-0.05132167733910853
-0.03437252479673564
-0.06618213193262223
0.03412031802237564
0.1266444243558067
0.043987359592801534
-0.059796253610295
0.035512783321615116
-0.03437252479673564
0.04898077261588929
-0.06757459723186166
-0.04284710106792211
-0.08521998242385431
-0.10008043701736802
-0.008113316803632642
0.058847814186315184
0.006956007584766943
0.09274611927106102
-0.03437252479673564
-0.059796253610295
0.05745534888707571
0.06732239045750155
0.0249495091015694
-0.08417563344942469
0.058847814186315184
-0.07535294085342842
0.05246193586398795
-0.06827082988148142
-0.08417563344942469
SCALARS c_peak_movement_3 float 1
LOOKUP_TABLE default
-0.048525562314026716
-0.02383883581519408
-0.04834131173534506
0.043957774354297485
0.051204013434272944
0.02700862181192465
-0.00781093616622941
-0.006889683272821134
0.22978428372479376
0.06336360127909235
0.02700862181192465
-0.057737140899939754
-0.03986673546415864
-0.015364259544007552
0.04303652146088921
-0.07345795625110174
0.0048985523701265965
0.0015848929983652837
-0.0746862934423127
-0.04078798835756692
-0.06621171717112628
-0.04078798835756692
-0.02383883581519408
-0.005968430379412859
-0.056508803708728794
-0.04078798835756692
-0.052947576202386326
0.0028132301895762435
0.09357689479020515
-0.006889683272821134
-0.04078798835756692
-0.048525562314026716
-0.0323134120863805
-0.08979294019786899
0.06090692689667032
0.08755899290144065
-0.04078798835756692
0.06090692689667032
0.04874733905185091
-0.08316086971349912
-0.057737140899939754
-0.0746862934423127
0.07417106786541028
0.050589844838667464
0.0015848929983652837
0.011901975056368252
-0.056508803708728794
0.103893976848208
-0.024760088708602357
-0.04078798835756692
-0.0746862934423127
-0.0746862934423127
-0.0746862934423127
0.10991187873697261
0.24366259328913908
0.01853404554073812
-0.08316086971349912
0.02700862181192465
-0.057737140899939754
0.09541940057702158
-0.12369124528261483
-0.10858459852705848
-0.10805816830225379
-0.10011002225587196
0.06090692689667032
0.07785607943904327
0.16260184215090767
0.0615210954922758
-0.0746862934423127
-0.08316086971349912
0.01853404554073812
0.09112022040778311
0.010059469269551702
-0.10858459852705848
0.0948052319814161
-0.10011002225587196
0.043957774354297485
-0.10858459852705848
-0.12553375106943132
SCALARS c_peak_movement_4 float 1
LOOKUP_TABLE default
-0.1185297832785478
0.03885520461491465
-0.11005520700736127
0.024417621924920807
0.032892198196107225
0.025538013331621756
-0.0010061068886385582
-0.008360291753124027
0.16597384868271126
0.04248716587399459
0.06396564452379083
0.017063437060435338
-0.0761569019226156
0.04842892135994914
0.01594304565373439
0.01594304565373439
0.034012589602808174
-0.03378402056668339
-0.1185297832785478
0.04136677446729364
-0.11965017468524874
-0.09310605446498843
-0.09422644587168938
-0.05073317310905623
0.025538013331621756
-0.04021980612317155
0.034012589602808174
-0.025309444295496863
0.0738526501735084
0.007468469382547971
0.04136677446729364
-0.11117559841406222
-0.06768232565142906
-0.11117559841406222
0.07526507955203943
0.05831592700966659
-0.09422644587168938
0.0981772385132198
0.007468469382547971
-0.017955259431011394
-0.008360291753124027
-0.009480683159824976
0.04136677446729364
0.06427893342847402
-0.03490441197338434
-0.017955259431011394
-0.04869438239435797
0.08970266224203338
-0.026429835702197813
-0.026429835702197813
0.00858886078924892
0.02432735957859511
-0.11005520700736127
0.08122808597084685
0.15749927241152484
-0.025309444295496863
-0.026429835702197813
0.08122808597084685
-0.026429835702197813
0.08970266224203338
-0.026429835702197813
-0.16090266463448
-0.03378402056668339
-0.13659932722762158
0.05096174214518112
0.08122808597084685
0.12360096732677905
0.034012589602808174
-0.03490441197338434
-0.13054166574037152
-0.026429835702197813
0.07275350969966043
-0.06880271705813001
-0.03378402056668339
0.0981772385132198
-0.03490441197338434
0.00011428451806239082
-0.04225859683786981
-0.04337898824457076
SCALARS t_peak_movement_0 float 1
LOOKUP_TABLE default
0.012593183214470324
0.004257575391206761
0.013426993902007578
0.013426993902007578
-0.011996734911551746
0.004952417630821132
0.013426993902007578
-0.003522158640365314
0.05441019077871101
0.15749479051217707
-0.003522158640365314
0.013426993902007578
0.03246067316322358
0.03885072271556689
0.004952417630821132
-0.003522158640365314
-0.003522158640365314
-0.009912208192708619
-0.011996734911551746
-0.05228508954864083
-0.003522158640365314
-0.07131876880985683
0.030376146444380456
-0.04589503999629751
0.030376146444380456
0.07274902780031264
0.004952417630821132
0.006342102110049874
0.045240772267910206
-0.003522158640365314
0.013426993902007578
-0.018386784463895064
0.047325298986753334
-0.03742046372511107
0.03885072271556689
0.03885072271556689
0.013426993902007578
0.02190157017319401
0.004952417630821132
-0.004713316765418529
-0.004217000879979685
-0.003522158640365314
0.05149435242443959
0.013426993902007578
0.004952417630821132
0.013426993902007578
-0.003522158640365314
0.05579987525793978
-0.03742046372511107
0.004952417630821132
0.004952417630821132
0.013426993902007578
-0.02047131118273819
-0.03325141028742481
-0.07131876880985683
-0.061454508059441644
-0.011996734911551746
0.004952417630821132
-0.011996734911551746
0.03885072271556689
-0.02047131118273819
-0.02047131118273819
-0.03742046372511107
-0.038810148204339825
0.013426993902007578
0.02190157017319401
0.006342102110049874
0.06427445152912623
-0.016302257745051923
-0.013187893036604961
-0.013187893036604961
0.007036944349664259
0.012732151662393207
-0.028945887453924624
0.0481591096742906
-0.02047131118273819
0.02190157017319401
-0.029779698141461877
-0.029779698141461877
SCALARS t_peak_movement_1 float 1
LOOKUP_TABLE default
-0.008660544169895479
0.0007681772701454981
-0.0001859678987090052
-0.0001859678987090052
-0.02560969671226837
-0.008660544169895479
0.005049462150263195
-0.016180975272227394
0.02901676484076693
0.1438818287114605
-0.00770639900104092
-0.020374266663296114
0.03371233718603672
0.025237760914850305
-0.028848842934482588
-0.02560969671226837
-0.02560969671226837
0.025237760914850305
-0.017135120441081897
-0.02560969671226837
-0.028848842934482588
-0.0001859678987090052
0.006260115903289787
0.042186913457223196
0.008288608372477413
0.03371233718603672
-0.02158492041632276
0.04737834676167091
0.008288608372477413
-0.008660544169895479
-0.0034251141209232783
-0.017135120441081897
0.03371233718603672
-0.04255884925464121
0.0316838447168491
0.030429194219298017
-0.0001859678987090052
0.005049462150263195
-0.019163612910269523
-0.03408427298345479
-0.03408427298345479
-0.02797627125965385
0.028043831297161814
0.0030971750680297006
0.0219546179481116
0.055196294439509574
-0.008660544169895479
0.038903770490484435
-0.05103342552582768
-0.004635767873949925
-0.0392757062879025
-0.019163612910269523
-0.05103342552582768
0.042186913457223196
-0.00012960277445706048
0.05913606599959603
-0.03853407295869565
0.042186913457223196
-0.02091412436699852
0.025237760914850305
-0.050345999211312775
-0.03853407295869565
-0.06274714801922834
-0.061536494266201724
0.0038388083972365483
0.02054218856958051
-0.0001859678987090052
0.07234379136555363
-0.03408427298345479
-0.054272571748041926
-0.0380240445435413
0.05585292303285733
0.012067612298394093
-0.06274714801922834
0.050661489728409614
-0.055483225501068545
0.053523925234973124
-0.0595080017970141
-0.06798257806820054
SCALARS t_peak_movement_2 float 1
LOOKUP_TABLE default
-0.02660375480876459
-0.010575291686520383
-0.023794593675871556
-0.035078331079951064
-0.03599902050007969
-0.03599902050007969
-0.010575291686520383
-0.0021007154153339647
0.15569382076675842
0.11586676893784742
-0.004587282450681629
-0.04234225359811089
-0.01656330092235908
0.005697277412423651
-0.044473596771266166
-0.042632217931008964
-0.027524444228893274
0.016979780300194203
-0.0518740353856359
-0.027524444228893274
-0.044473596771266166
-0.025393101055738
-0.010575291686520383
0.018578287680060646
-0.030150525879261425
0.00502069396899496
-0.044473596771266166
0.034284156704759594
-0.010575291686520383
-0.027524444228893274
-0.0190498679577068
-0.027524444228893274
-0.011590166851663586
-0.052948173042452584
0.017474518777407022
0.1174640418014048
-0.010575291686520383
0.0019587852452386256
0.016878187457325278
-0.07538802141359452
-0.04960617611627066
-0.061422749313639
-0.008443948513365163
0.009875303056343432
0.014848437127038983
0.057221318482971184
-0.027524444228893274
0.1133209394108261
-0.044473596771266166
-0.0190498679577068
-0.05808075238745708
-0.051336966557227526
-0.06655532865864355
0.03179758966941182
0.14546852339532645
0.02829614746892084
-0.06897663616469679
0.03179758966941182
-0.03599902050007969
0.09637178686845327
-0.06989732558482548
-0.07514948888556183
-0.08684647812719837
-0.09532105439838479
0.0073887360209956565
0.07891519674350889
0.10484636313963969
0.08371918495334707
-0.03599902050007969
-0.06897663616469679
0.046120660561416504
0.0656958947541576
0.0233230133982254
-0.09440036497825616
0.06919733695464858
-0.08435991109185059
0.057221318482971184
-0.08523527164197331
-0.09882249659887565
SCALARS t_peak_movement_3 float 1
LOOKUP_TABLE default
-0.07180560797881574
0.062199922056896506
-0.07180560797881574
0.02167934605478028
0.030116120175888828
0.021414731004235188
-0.006021451124215593
-0.012483574080510595
0.21632998524152325
0.04087945019022232
0.029889307275421606
0.014706553287930246
-0.04664649421580147
-0.01301280418160089
0.021414731004235188
-0.07683674126604434
0.029889307275421606
-0.012483574080510595
-0.097229336792375
-0.025721221261509664
-0.10234982420540906
-0.07180560797881574
-0.04638187916525638
-0.029432726622883543
-0.08028018425000216
-0.0548564554364428
0.023181129559116664
-0.009040131096552773
0.08073676490254023
-0.004008997809324177
0.038363883546608024
-0.08028018425000216
-0.04638187916525638
-0.11417848933474795
0.05531303608898086
0.05531303608898086
-0.08372362723395999
0.12152195595520154
0.038363883546608024
-0.097229336792375
-0.03049118682506413
-0.020958150351697014
0.05531303608898086
0.08020753480144993
-0.012483574080510595
-0.004008997809324177
-0.07180560797881574
0.08921134117372664
-0.029432726622883543
-0.0548564554364428
0.004465578461862241
0.023270483684922016
-0.08875476052118858
0.10616049371609959
0.1959373897151927
-0.004008997809324177
-0.097229336792375
0.08815977562528787
-0.0635956467581743
0.1036449270724853
-0.038436532995160255
-0.12265306560593436
-0.03446385991011214
-0.11417848933474795
0.05531303608898086
0.09689207229327768
0.1570079513432182
0.04683845981779444
-0.08054479930054725
-0.11417848933474795
-0.017604061493544654
0.11295802555820977
-0.037226864192668185
-0.03790730289406996
0.1057635711402819
-0.1064977582151968
0.021414731004235188
-0.11920962262197654
-0.14807679441949362
SCALARS t_peak_movement_4 float 1
LOOKUP_TABLE default
-0.12599270786708328
0.021638842649145063
-0.11751813159589686
0.018500127865367144
0.025699586769710736
0.018075088743086165
-0.007773679192754068
-0.016248255463940486
0.14875748671694167
0.04349881755664553
0.04706257146270432
0.009600512471899747
-0.08446990475571303
0.03132407267335813
0.009175473349618768
0.010025551594180726
0.024849508525148778
-0.04294710164434279
-0.1255676687448023
0.03502424128545911
-0.1255676687448023
-0.10056897905352402
-0.10056897905352402
-0.0586211368198728
0.026549665014272694
0.03544928040774009
0.019974661706134156
-0.033197408006313434
0.05674780148691738
0.018500127865367144
0.03544928040774009
-0.11709309247361588
-0.07599532848452661
-0.10861851620242946
0.0689225463702049
0.05197339382783195
-0.10014393993124304
0.0809608765474501
0.00027585795615137076
-0.015398177219378528
-0.00692360094819211
-0.00692360094819211
0.03459920216317813
0.04706257146270432
-0.04209702339978083
-0.025572909979688974
0.001550975322994308
0.07248630027626368
-0.023872753490565057
-0.00692360094819211
0.001125936200713329
0.00832539510505681
-0.11794317071817784
0.06401172400507726
0.14028291044575514
-0.033197408006313434
-0.032347329761751475
0.06401172400507726
-0.023872753490565057
0.07248630027626368
-0.023872753490565057
-0.1255676687448023
-0.032347329761751475
-0.14294186040945622
0.041798661067521614
0.06401172400507726
0.10638460536100947
0.026124625891991715
-0.032347329761751475
-0.05777105857531084
-0.023872753490565057
0.055537147733890735
-0.05777105857531084
-0.040821906032937894
0.0809608765474501
-0.040821906032937894
-0.007348640070473089
-0.04124694515521887
-0.04929648230412431
SCALARS c_peak_values_0 float 1
LOOKUP_TABLE default
0.8440618537461425
0.6017184597793904
1.0513487206984806
0.9396450933033396
0.715625174808232
0.7007669938983261
1.4301248744715538
1.001373364071244
0.5329980021125623
1.5623582441567523
1.3432779843122231
0.7872137116092349
1.6184348791068073
0.7757416404485457
0.6303909493519391
0.8369134402542836
1.0793254296373058
0.9583132942618654
0.8155209802486239
0.876602095869005
0.786474578109412
1.3345847222980038
0.7248061661815781
0.9476103672493618
2.163405380810085
0.8085141682336142
1.0640934576344554
1.1066026956897483
0.6372139936690959
0.8902087246548848
1.1068807904620424
1.0394523075652373
0.9815687383450987
1.1669641956810501
1.184727234210608
0.7196331245003643
1.3668282403995113
1.0067233419845338
0.8439395823371392
0.8155502683282804
1.1675292439820888
0.9815214405870868
1.616490555774855
1.2094474007835412
0.9537881579447667
1.282184464748306
0.6375540747174688
0.7832105731068207
0.899822403516314
1.1087973133723228
0.7718801271600725
1.3480898059048887
0.9579410708851629
0.8700626477552529
1.2075289166565057
1.3231226309487576
0.9863346801241961
1.0748052516071105
1.336927026793431
0.8270713359420965
0.7634725527511038
1.1695032092581157
0.9182757166670508
0.541855278912618
0.9995810508543402
1.1074072366816226
1.0417362762340383
1.42502939059899
1.3333455089086108
0.8626440983756787
0.7475773302167433
1.0912659160793363
0.8520768615631036
1.3783680730990353
1.1858235570419546
1.1683152206849072
1.4555380357341412
1.0870248964427938
1.161292239912324
SCALARS c_peak_values_1 float 1
LOOKUP_TABLE default
1.4927603720645144
0.8548392218464376
1.0979032638130322
0.9403526459459528
1.0839415059071256
0.8244655897198052
0.8469083067008998
1.2090958904104505
0.8683643723099452
1.0286241801679226
1.0435809871680708
1.2024690667227584
0.9068437654950751
0.7855328948178368
1.0553811482181423
0.9502778287299933
1.1427295403055209
0.9647342333587867
1.1438924931976067
1.0385893490659037
1.249762783208508
1.0996461073727335
1.1030812115619972
0.992696633281516
1.0843755607207657
0.6716227249223314
1.2704169709828224
0.7381206873969678
0.9272375730616153
0.9387757015215106
1.3262753908653349
1.1224129198788373
0.9575092589933785
1.3077640220007336
0.9983701628578923
0.8008572743934553
1.4245183855184929
0.9444659784293937
1.0744105492041016
1.137792625516687
1.279989388176919
1.104090983676935
0.6009880034791129
0.9033339266578616
0.9923810136587837
0.890706375530739
1.0324663913120575
0.948420047126911
1.0439038601461883
1.2727004552861372
1.0079013567243837
1.1528167491733579
0.8550457180891518
0.897150838109167
0.8352149772705335
0.7226855702534255
1.128589452092163
0.7468495683681317
1.1104059160444968
0.9232611477788993
0.9488258924346812
1.0696447673669265
0.9731416200602633
0.8044513842131243
1.0031831259557937
1.1329869140037014
0.8981513972447508
0.5082663074892998