# vtk DataFile Version 3.0
Curve data
ASCII
DATASET POLYDATA
POINTS 360 float
61.0312 88.5938 0.846708
61.0322 88.6329 1.13982
61.033 88.6723 1.43247
61.0336 88.7121 1.72419
61.034 88.7526 2.01453
61.0341 88.7941 2.30302
61.0338 88.8367 2.5892
61.033 88.8808 2.87261
61.0316 88.9265 3.15278
61.0295 88.974 3.42925
61.0267 89.0237 3.70157
61.0231 89.0756 3.96943
61.0184 89.1299 4.23319
61.0127 89.1866 4.49337
61.0055 89.2457 4.75048
60.9969 89.3072 5.00505
60.9867 89.3711 5.2576
60.9746 89.4375 5.50864
60.9605 89.5064 5.75871
60.9442 89.5777 6.0083
60.9256 89.6516 6.25795
60.9046 89.7279 6.50804
60.8814 89.8063 6.75842
60.8562 89.8866 7.00878
60.8293 89.9682 7.25884
60.801 90.0509 7.50831
60.7715 90.1343 7.75689
60.7412 90.218 8.00429
60.7102 90.3016 8.25021
60.679 90.3848 8.49438
60.6476 90.4672 8.73649
60.6164 90.5485 8.97637
60.5854 90.6284 9.21439
60.5544 90.7067 9.45101
60.5235 90.7833 9.68672
60.4927 90.858 9.92198
60.4617 90.9307 10.1573
60.4307 91.001 10.3931
60.3996 91.0689 10.6299
60.3682 91.1341 10.8682
60.3366 91.1965 11.1084
60.3048 91.256 11.351
60.2724 91.3123 11.596
60.2394 91.3656 11.8435
60.2057 91.4156 12.0934
60.1709 91.4624 12.3459
60.1351 91.5058 12.6009
60.0979 91.5459 12.8584
60.0593 91.5826 13.1185
60.019 91.6157 13.3812
59.9769 91.6453 13.6465
59.9329 91.6713 13.9143
59.8868 91.6934 14.1841
59.8386 91.7117 14.4555
59.7882 91.7258 14.7277
59.7355 91.7357 15.0002
59.6805 91.7411 15.2724
59.6231 91.742 15.5438
59.5632 91.7381 15.8137
59.5007 91.7294 16.0817
59.4356 91.7155 16.347
59.3679 91.6964 16.6092
59.2981 91.6713 16.8685
59.2267 91.6394 17.1251
59.1543 91.6001 17.3793
59.0814 91.5524 17.6312
59.0087 91.4958 17.8811
58.9367 91.4293 18.1293
58.866 91.3523 18.3759
58.7971 91.264 18.6213
58.7305 91.1635 18.8657
58.6672 91.0506 19.109
58.6092 90.926 19.3509
58.5585 90.7909 19.5906
58.5174 90.6463 19.8273
58.4882 90.4936 20.0603
58.4731 90.3338 20.2889
58.4743 90.1681 20.5125
58.4941 89.9977 20.7302
58.5345 89.8237 20.9414
58.598 89.6472 21.1453
58.6859 89.4694 21.3412
58.7964 89.2908 21.5285
58.9271 89.1118 21.7065
59.0753 88.9331 21.8746
59.2386 88.755 22.032
59.4143 88.5781 22.1782
59.6 88.4027 22.3125
59.793 88.2295 22.4342
59.9909 88.0589 22.5427
60.1911 87.8914 22.6373
60.3916 87.7273 22.7177
60.5919 87.566 22.7846
60.7924 87.4071 22.839
60.9932 87.2497 22.882
61.1945 87.0933 22.9147
61.3965 86.9372 22.938
61.5993 86.7808 22.953
61.8033 86.6233 22.9608
62.0084 86.4642 22.9624
62.215 86.3028 22.9588
62.4231 86.1386 22.9509
62.6324 85.9718 22.9391
62.8428 85.8029 22.9234
63.0538 85.6322 22.9039
63.2651 85.4601 22.881
63.4764 85.287 22.8546
63.6874 85.1132 22.8249
63.8977 84.9393 22.792
64.1071 84.7656 22.7562
64.3152 84.5924 22.7174
64.5219 84.4202 22.676
64.7273 84.249 22.6325
64.932 84.079 22.5873
65.1363 83.9103 22.5411
65.3408 83.7429 22.4943
65.5457 83.5771 22.4476
65.7516 83.4128 22.4016
65.9588 83.2501 22.3567
66.1677 83.0893 22.3135
66.3789 82.9304 22.2727
66.5926 82.7733 22.2346
66.8086 82.6176 22.2001
67.0266 82.4629 22.1695
67.2465 82.3084 22.1435
67.4678 82.1537 22.1227
67.6904 81.9982 22.1077
67.9138 81.8413 22.099
68.138 81.6824 22.0972
68.3625 81.5211 22.1029
68.5871 81.3567 22.1167
68.8115 81.1889 22.1389
69.0353 81.0177 22.1686
69.2582 80.8436 22.205
69.4796 80.6669 22.2468
69.6993 80.4878 22.2931
69.9168 80.3067 22.3428
70.1317 80.1239 22.3948
70.3436 79.9397 22.4481
70.5522 79.7545 22.5017
70.7569 79.5685 22.5544
70.9576 79.382 22.6057
71.1541 79.1953 22.6566
71.3464 79.0084 22.7082
71.5347 78.8214 22.7621
71.7188 78.6345 22.8197
71.8989 78.4477 22.8821
72.075 78.2613 22.951
72.247 78.0752 23.0275
72.4151 77.8897 23.113
72.5792 77.7049 23.209
72.7393 77.5207 23.3165
72.8949 77.3368 23.4351
73.0452 77.1524 23.5641
73.1898 76.9671 23.7028
73.3279 76.7801 23.8507
73.4591 76.5911 24.007
73.5825 76.3993 24.171
73.6977 76.2041 24.342
73.804 76.0051 24.5194
73.9008 75.8015 24.7026
73.9878 75.5933 24.8908
74.0658 75.3819 25.0837
74.136 75.1693 25.2809
74.1997 74.9572 25.4822
74.2579 74.7477 25.6872
74.3119 74.5426 25.8955
74.3628 74.3439 26.1068
74.4118 74.1534 26.3209
74.4602 73.973 26.5373
74.509 73.8047 26.7557
74.5591 73.6499 26.9759
74.6099 73.5082 27.1983
74.6602 73.3791 27.4235
74.709 73.2617 27.6518
74.7552 73.1553 27.8839
74.7979 73.0592 28.1202
74.8359 72.9726 28.3612
74.8682 72.8949 28.6075
74.8937 72.8251 28.8595
74.9114 72.7628 29.1178
74.9207 72.7072 29.3827
74.9223 72.6589 29.6533
74.9175 72.6187 29.929
74.9075 72.587 30.2086
74.8936 72.5648 30.4914
74.8769 72.5525 30.7764
74.8588 72.551 31.0627
74.8405 72.5609 31.3494
74.8231 72.583 31.6356
74.8079 72.6178 31.9203
74.7959 72.6658 32.2028
74.7871 72.7263 32.4827
74.7813 72.7983 32.76
74.7782 72.8806 33.0344
74.7775 72.9723 33.3057
74.7792 73.0724 33.5738
74.7828 73.1798 33.8385
74.7883 73.2934 34.0996
74.7952 73.4124 34.3569
74.8035 73.5356 34.6104
74.8131 73.662 34.8598
74.8252 73.7905 35.1054
74.8412 73.92 35.3477
74.8624 74.0495 35.587
74.8902 74.1778 35.8237
74.9261 74.3038 36.0581
74.9714 74.4265 36.2906
75.0275 74.5448 36.5217
75.0959 74.6575 36.7516
75.1778 74.7636 36.9807
75.2744 74.862 37.2094
75.385 74.9519 37.4372
75.5086 75.0326 37.6638
75.6443 75.1032 37.8888
75.791 75.1629 38.1118
75.9477 75.2111 38.3324
76.1136 75.2469 38.5502
76.2875 75.2696 38.7647
76.4685 75.2783 38.9757
76.6556 75.2723 39.1825
76.8478 75.251 39.3848
77.0439 75.2143 39.5815
77.2428 75.1624 39.7712
77.4431 75.0951 39.9528
77.6437 75.0128 40.1252
77.8434 74.9153 40.2869
78.0409 74.8029 40.4369
78.2352 74.6756 40.574
78.4249 74.5335 40.6968
78.6089 74.3766 40.8041
78.786 74.2053 40.8952
78.955 74.0204 40.9703
79.1148 73.8232 41.03
79.2642 73.6148 41.0752
79.402 73.3963 41.1063
79.5271 73.1688 41.1243
79.6384 72.9336 41.1296
79.7348 72.6918 41.1229
79.8149 72.4444 41.1051
79.8778 72.1928 41.0766
79.9225 71.9379 41.0382
79.9495 71.6809 40.9905
79.9592 71.4231 40.934
79.9525 71.1654 40.8692
79.9299 70.9091 40.7968
79.892 70.6553 40.7172
79.8396 70.405 40.6311
79.7732 70.1596 40.539
79.6935 69.92 40.4415
79.6011 69.6875 40.339
79.4967 69.4629 40.2323
79.3808 69.2463 40.1222
79.2537 69.0375 40.0096
79.116 68.8364 39.8954
78.9682 68.6427 39.7806
78.8106 68.4564 39.666
78.6438 68.2772 39.5526
78.4682 68.105 39.4412
78.2843 67.9396 39.3329
78.0926 67.7808 39.2285
77.8934 67.6284 39.1287
77.6874 67.4819 39.0338
77.4751 67.3407 38.9436
77.257 67.2043 38.8583
77.0336 67.072 38.7778
76.8056 66.9433 38.7021
76.5733 66.8176 38.6312
76.3374 66.6943 38.5651
76.0984 66.5729 38.5038
75.8567 66.4528 38.4472
75.6133 66.3333 38.3958
75.3697 66.2133 38.3511
75.1278 66.0918 38.3153
74.8894 65.9675 38.2903
74.6564 65.8394 38.2781
74.4307 65.7062 38.2808
74.2141 65.5669 38.3004
74.0085 65.4203 38.339
73.8157 65.2652 38.3985
73.6377 65.1004 38.4809
73.476 64.9256 38.5876
73.3311 64.7426 38.7171
73.203 64.5541 38.8672
73.0922 64.3627 39.0357
72.9985 64.1709 39.2204
72.9224 63.9813 39.419
72.8639 63.7967 39.6295
72.8233 63.6195 39.8495
72.8007 63.4524 40.077
72.7962 63.2979 40.3096
72.81 63.1584 40.5454
72.8413 63.0348 40.7833
72.8893 62.9274 41.0221
72.9532 62.837 41.2609
73.0321 62.7641 41.4987
73.1253 62.7091 41.7345
73.2319 62.6726 41.9672
73.351 62.6551 42.1959
73.4819 62.6573 42.4197
73.6237 62.6796 42.6373
73.7756 62.7221 42.8482
73.9367 62.7831 43.0521
74.1061 62.8603 43.2491
74.283 62.9516 43.4393
74.4665 63.0547 43.6228
74.6557 63.1673 43.7996
74.8498 63.2874 43.9699
75.0479 63.4126 44.1337
75.249 63.5407 44.2911
75.4524 63.6696 44.4422
75.657 63.7976 44.587
75.8614 63.9256 44.7261
76.0641 64.0551 44.8598
76.2634 64.1875 44.9887
76.4578 64.3244 45.1132
76.6457 64.4672 45.2337
76.8257 64.6174 45.3508
76.9961 64.7765 45.4649
77.1553 64.946 45.5764
77.3018 65.1273 45.6859
77.4344 65.3214 45.7938
77.5535 65.5272 45.9008
77.6596 65.743 46.0076
77.7534 65.9672 46.115
77.8356 66.1981 46.2237
77.9068 66.4341 46.3344
77.9678 66.6735 46.4478
78.0192 66.9147 46.5647
78.0616 67.156 46.6857
78.0957 67.3957 46.8117
78.1222 67.6326 46.943
78.1412 67.8669 47.0791
78.153 68.0991 47.2191
78.158 68.3298 47.3623
78.1562 68.5594 47.5078
78.148 68.7886 47.6547
78.1335 69.018 47.8022
78.113 69.2479 47.9495
78.0868 69.4791 48.0957
78.0549 69.712 48.2401
78.0177 69.9469 48.382
77.9746 70.1829 48.5222
77.925 70.4187 48.6616
77.8686 70.6532 48.8011
77.8046 70.8851 48.9416
77.7326 71.1132 49.0842
77.6519 71.3363 49.2298
77.5622 71.5532 49.3793
77.4627 71.7626 49.5338
77.353 71.9633 49.694
77.2328 72.1546 49.8608
77.1029 72.3369 50.0336
76.9644 72.5113 50.2119
76.8183 72.6788 50.395
76.6658 72.8403 50.5821
76.5078 72.997 50.7726
76.3456 73.1496 50.9659
76.1801 73.2993 51.1611
76.0125 73.447 51.3578
LINES 1 361
360 0 1 2 3 4 5 6 7 8 9 10 11 12 13 14 15 16 17 18 19 20 21 22 23 24 25 26 27 28 29 30 31 32 33 34 35 36 37 38 39 40 41 42 43 44 45 46 47 48 49 50 51 52 53 54 55 56 57 58 59 60 61 62 63 64 65 66 67 68 69 70 71 72 73 74 75 76 77 78 79 80 81 82 83 84 85 86 87 88 89 90 91 92 93 94 95 96 97 98 99 100 101 102 103 104 105 106 107 108 109 110 111 112 113 114 115 116 117 118 119 120 121 122 123 124 125 126 127 128 129 130 131 132 133 134 135 136 137 138 139 140 141 142 143 144 145 146 147 148 149 150 151 152 153 154 155 156 157 158 159 160 161 162 163 164 165 166 167 168 169 170 171 172 173 174 175 176 177 178 179 180 181 182 183 184 185 186 187 188 189 190 191 192 193 194 195 196 197 198 199 200 201 202 203 204 205 206 207 208 209 210 211 212 213 214 215 216 217 218 219 220 221 222 223 224 225 226 227 228 229 230 231 232 233 234 235 236 237 238 239 240 241 242 243 244 245 246 247 248 249 250 251 252 253 254 255 256 257 258 259 260 261 262 263 264 265 266 267 268 269 270 271 272 273 274 275 276 277 278 279 280 281 282 283 284 285 286 287 288 289 290 291 292 293 294 295 296 297 298 299 300 301 302 303 304 305 306 307 308 309 310 311 312 313 314 315 316 317 318 319 320 321 322 323 324 325 326 327 328 329 330 331 332 333 334 335 336 337 338 339 340 341 342 343 344 345 346 347 348 349 350 351 352 353 354 355 356 357 358 359
POINT_DATA 360
SCALARS r float 1
LOOKUP_TABLE default
0.0
2.91171
2.91885
2.90861
2.97665
2.97508
2.95034
2.99157
2.94484
2.91101
2.87735
2.86619
2.86719
2.88247
2.86198
2.89567
2.91133
2.95541
2.92676
2.91033
2.93268
2.92272
2.88696
2.81802
2.84522
2.8099
2.80667
2.77926
2.82793
2.79672
2.8098
2.79301
2.78515
2.80735
2.79885
2.80542
2.78299
2.81605
2.80632
2.82532
2.82138
2.80544
2.78446
2.81015
2.77706
2.76753
2.70954
2.781
2.7349
2.69465
2.69207
2.71402
2.71422
2.74716
2.75499
2.72754
2.70748
2.79258
2.76465
2.73057
2.73266
2.6944
2.63843
2.67389
2.65291
2.62443
2.6007
2.61248
2.65742
2.66508
2.69579
2.74429
2.78379
2.77876
2.80131
2.83269
2.86458
2.85014
2.82803
2.82996
2.77373
2.7579
2.75891
2.72161
2.77849
2.78214
2.7775
2.7075
2.80773
2.80095
2.83033
2.85302
2.86604
2.85279
2.89218
2.85968
2.87577
2.86172
2.90066
2.94156
2.93433
2.94626
2.95348
2.94881
2.90479
2.94996
2.90483
2.8762
2.90223
2.9168
2.89048
2.82965
2.84023
2.87002
2.84288
2.91015
2.94469
2.92936
2.91214
2.91095
2.85724
2.88752
2.87776
2.88616
2.83526
2.88568
2.86619
2.85075
2.90911
2.87034
2.90724
2.85734
2.85578
2.81066
2.74445
2.79394
2.832
2.86307
2.85631
2.75519
2.71279
2.7823
2.73765
2.73767
2.76577
2.77841
2.83181
2.8934
2.88705
2.94342
2.87253
2.88991
2.8753
2.80494
2.80986
2.79916
2.77169
2.75512
2.8009
2.76054
2.77035
2.67115
2.66912
2.69643
2.71046
2.71666
2.63324
2.54621
2.54196
2.51947
2.54882
2.44683
2.38394
2.39244
2.43014
2.45357
2.42997
2.37302
2.45537
2.46239
2.42119
2.37197
2.36434
2.34469
2.32398
2.34422
2.4132
2.44204
2.44411
2.39894
2.39394
2.42919
2.49502
2.52866
2.52054
2.48489
2.52515
2.62417
2.71839
2.75473
2.81841
2.78086
2.74617
2.70922
2.67996
2.71355
2.68974
2.7186
2.71927
2.74161
2.69768
2.72791
2.7032
2.75102
2.76541
2.85118
2.87852
2.89583
2.88906
2.91146
2.95159
2.95295
3.02119
2.98646
2.97607
2.87337
2.86668
2.8885
2.99478
2.96843
3.02539
2.97822
2.98249
2.93161
2.92028
2.94222
2.96684
2.96384
2.92568
2.9204
2.96996
2.80881
2.8409
2.77584
2.75
2.78409
2.79317
2.71209
2.66922
2.68921
2.65464
2.6812
2.6665
2.64539
2.7196
2.68931
2.67368
2.66268
2.61973
2.59691
2.57494
2.59558
2.62269
2.59646
2.59246
2.49235
2.46336
2.51473
2.53144
2.55834
2.55308
2.51214
2.47639
2.45484
2.3986
2.49326
2.51135
2.56989
2.60669
2.56854
2.49629
2.45621
2.67136
2.65932
2.68685
2.62258
2.65367
2.53216
2.51003
2.50882
2.60847
2.5303
2.45231
2.46122
2.43706
2.48705
2.4672
2.42209
2.44674
2.46418
2.41979
2.35464
2.37539
2.31044
2.26164
2.18612
2.06499
2.09722
2.0835
2.07409
1.99357
1.98966
1.95736
1.94477
2.11042
2.07009
2.10603
2.0819
2.19626
2.14397
2.14529
2.10741
2.07793
2.03268
2.05419
2.06704
2.10321
2.08803
2.02949
2.06428
2.06455
2.08747
2.13026
2.04765
2.07299
2.04323
2.06277
2.08924
2.09282
2.14825
2.12531
2.08355
2.09919
2.06193
2.06259
2.06475
2.05693
2.09454
2.07216
2.12896
2.18759
2.09446
2.17404
2.09713
2.10694
2.01373
2.05417
2.06136
2.02597
0.0
SCALARS curvature float 1
LOOKUP_TABLE default
0.0536737
0.052946
0.0521761
0.051361
0.050498
0.049584
0.0482812
0.0472377
0.0461349
0.0449708
0.043744
0.0420102
0.0406375
0.0392049
0.0377158
0.0361753
0.0340537
0.0324247
0.0307784
0.0291332
0.0275136
0.025452
0.0240354
0.0227904
0.021782
0.0210792
0.0207282
0.0209613
0.0216343
0.0227273
0.0241956
0.026637
0.0287546
0.0310569
0.0334954
0.0360292
0.0394959
0.042124
0.0447492
0.0473498
0.049905
0.053212
0.0556013
0.0579049
0.0601189
0.0622424
0.0649342
0.0668544
0.0687011
0.0704899
0.0722406
0.074559
0.0763259
0.0781553
0.0800851
0.082156
0.0852085
0.0877687
0.0906051
0.0937532
0.0972439
0.102474
0.106852
0.111631
0.116813
0.122392
0.130422
0.136853
0.143593
0.150587
0.157771
0.167508
0.174805
0.181974
0.1889
0.19546
0.201519
0.208593
0.212984
0.21646
0.218922
0.220293
0.220333
0.219002
0.21653
0.212966
0.208389
0.200905
0.194412
0.187308
0.179728
0.1718
0.160882
0.152562
0.144217
0.135916
0.12771
0.116986
0.109144
0.101492
0.0940409
0.0867925
0.0774428
0.070662
0.0640736
0.0576712
0.05145
0.043434
0.0376332
0.0320246
0.026637
0.0215327
0.0154317
0.0118827
0.0101282
0.0109219
0.0137265
0.0188962
0.0231764
0.0275645
0.0319652
0.0363258
0.0420202
0.0461696
0.0501956
0.054084
0.0578213
0.0625519
0.0658997
0.0690684
0.0720528
0.0748497
0.0782851
0.0806418
0.0828129
0.0848028
0.0866172
0.0887737
0.0902042
0.091484
0.0926213
0.0936256
0.0947749
0.0955066
0.096138
0.0966805
0.0971453
0.0975449
0.0979996
0.0983013
0.0985868
0.098874
0.0991832
0.0996683
0.100117
0.100666
0.101339
0.102161
0.103537
0.104811
0.106321
0.108085
0.110119
0.113266
0.115956
0.118921
0.122147
0.125608
0.130534
0.134407
0.138373
0.14237
0.14633
0.151416
0.154986
0.15826
0.161159
0.163594
0.165965
0.166981
0.167269
0.166784
0.165494
0.162515
0.159363
0.15547
0.150901
0.145745
0.138128
0.132004
0.125667
0.119247
0.112875
0.104699
0.098996
0.0938284
0.0893553
0.0857334
0.0824742
0.0813582
0.0814572
0.08278
0.0852851
0.090315
0.0952076
0.100928
0.107362
0.114405
0.124585
0.132708
0.141171
0.149907
0.158853
0.171001
0.180198
0.189406
0.19857
0.207631
0.216543
0.228109
0.236494
0.24461
0.252445
0.259994
0.269637
0.276578
0.28329
0.289799
0.296128
0.304292
0.310197
0.315884
0.321292
0.326333
0.33229
0.335994
0.338865
0.340755
0.34151
0.340501
0.338061
0.334067
0.328472
0.321305
0.309455
0.299022
0.287465
0.274993
0.261824
0.24357
0.229644
0.215729
0.202009
0.188647
0.171625
0.159595
0.148297
0.137813
0.128239
0.117091
0.110112
0.104484
0.100364
0.0979044
0.0974106
0.0992147
0.102881
0.108352
0.115542
0.127641
0.138487
0.15078
0.164466
0.179502
0.201606
0.219689
0.238998
0.259428
0.280812
0.310357
0.332802
0.354931
0.376114
0.395642
0.417817
0.430615
0.43947
0.444017
0.444119
0.43989
0.428199
0.415642
0.400586
0.38374
0.36577
0.341054
0.322565
0.304524
0.287188
0.270729
0.25031
0.23619
0.223107
0.211055
0.200006
0.186767
0.177906
0.169909
0.16273
0.156332
0.14895
0.144223
0.140153
0.136703
0.133837
0.130853
0.129191
0.127974
0.127163
0.126726
0.126663
0.126947
0.127454
0.128129
0.12893
0.130128
0.131081
0.132047
0.133002
0.133923
0.13507
0.135855
0.136568
0.137205
0.137761
0.138376
0.138741
0.139025
0.139226
0.139346
0.139376
0.139298
0.139129
0.138865
0.1385
0.13785
0.137231
0.136493
0.135632
0.134643
0.13312
0.131824
0.130395
0.128836
0.127152
0.124722
0.122771
0.120722
0.118586
0.154846
SCALARS torsion float 1
LOOKUP_TABLE default
0.0291359
0.0306854
0.0324776
0.0345491
0.0369433
0.0397139
0.0440989
0.0480029
0.05254
0.0578232
0.063989
0.0738366
0.0827044
0.0931332
0.105438
0.120018
0.143883
0.165897
0.192272
0.223874
0.261405
0.321345
0.373427
0.429279
0.484195
0.531252
0.567318
0.566398
0.541627
0.499028
0.447058
0.376077
0.32749
0.285095
0.249289
0.219661
0.188673
0.170788
0.156664
0.1458
0.137726
0.130578
0.127304
0.125476
0.124926
0.125529
0.127986
0.130982
0.134696
0.138897
0.143562
0.150173
0.154981
0.159606
0.163877
0.167356
0.170694
0.172121
0.172303
0.17131
0.169252
0.164757
0.16027
0.155058
0.149198
0.142848
0.133923
0.127005
0.119997
0.11299
0.106014
0.0967698
0.0898932
0.0831431
0.0765589
0.0700808
0.0637069
0.0555328
0.0495659
0.0437171
0.0380801
0.0326071
0.025536
0.0205704
0.0158759
0.0114186
0.00734359
0.00252378
-0.000672204
-0.0034713
-0.00587126
-0.00788233
-0.0100116
-0.0112142
-0.0120585
-0.0125785
-0.0128031
-0.0125526
-0.0119474
-0.0109973
-0.00959524
-0.00764656
-0.00416832
-0.000612194
0.00404399
0.0099244
0.0175989
0.0322487
0.0483341
0.0719973
0.109071
0.17108
0.336063
0.564296
0.770584
0.658608
0.417482
0.225339
0.155605
0.116706
0.0939777
0.0802185
0.0698806
0.0656201
0.0630883
0.0617724
0.061262
0.0610856
0.0611884
0.0613515
0.0613197
0.0610709
0.0603388
0.0592932
0.0578033
0.055875
0.0534595
0.0494787
0.0459417
0.041989
0.0376414
0.0329032
0.0260758
0.0206227
0.0148778
0.00889287
0.00271458
-0.00367414
-0.0125049
-0.0193196
-0.0263183
-0.0334761
-0.0406691
-0.0503191
-0.0575893
-0.0648261
-0.0720179
-0.0791289
-0.0879993
-0.0940854
-0.0996596
-0.104593
-0.108865
-0.113573
-0.116232
-0.118152
-0.119436
-0.120147
-0.120329
-0.120039
-0.119535
-0.11894
-0.118344
-0.117717
-0.117491
-0.117518
-0.117853
-0.11861
-0.120436
-0.122506
-0.125162
-0.128507
-0.132669
-0.139508
-0.145784
-0.153275
-0.16201
-0.172176
-0.188493
-0.203015
-0.219761
-0.239081
-0.261104
-0.294538
-0.322377
-0.35153
-0.380173
-0.405934
-0.430524
-0.437669
-0.433371
-0.418081
-0.393907
-0.353467
-0.321135
-0.289747
-0.260714
-0.234736
-0.205162
-0.18656
-0.170693
-0.157243
-0.145872
-0.13343
-0.12583
-0.119463
-0.114136
-0.109706
-0.10604
-0.102146
-0.0998748
-0.0980775
-0.096667
-0.0955912
-0.0946293
-0.0941732
-0.0938988
-0.0937952
-0.0938058
-0.0939337
-0.0941087
-0.0943168
-0.0945365
-0.0947653
-0.095074
-0.0953164
-0.0955698
-0.0958281
-0.0961001
-0.0965198
-0.0969374
-0.097522
-0.0982884
-0.0992383
-0.100935
-0.102609
-0.104688
-0.107305
-0.110579
-0.116043
-0.121201
-0.127489
-0.135017
-0.144019
-0.158786
-0.172267
-0.188188
-0.206871
-0.228209
-0.260155
-0.285592
-0.310264
-0.331486
-0.346206
-0.351222
-0.342774
-0.325237
-0.301438
-0.274492
-0.238005
-0.212357
-0.189059
-0.168236
-0.149855
-0.129129
-0.115772
-0.103831
-0.0931052
-0.0832176
-0.0707799
-0.0617316
-0.0526617
-0.0433749
-0.0339146
-0.0209097
-0.0107802
-0.000618998
0.00946679
0.0194495
0.0291104
0.0411417
0.0495067
0.0572901
0.0644935
0.0711707
0.0794071
0.0852193
0.0908039
0.0962628
0.101756
0.109306
0.115232
0.121352
0.127703
0.134326
0.143511
0.15063
0.157923
0.165243
0.172442
0.181629
0.188092
0.194013
0.199201
0.203582
0.208058
0.210236
0.211562
0.212188
0.212025
0.210568
0.208706
0.20628
0.203429
0.200339
0.19581
0.192144
0.188466
0.184715
0.180834
0.175714
0.171843
0.167835
0.163796
0.159689
0.153947
0.149514
0.144964
0.140223
0.135315
0.128569
0.123311
0.117939
0.112525
0.107058
0.0997549
0.0943882
0.0891252
0.08399
0.0790583
0.072815
0.0683963
0.0642476
0.0603691
0.0567572
0.052388
0.0494394
0.0467572
0.0443335
0.00727476
