# vtk DataFile Version 3.0
Curve data
ASCII
DATASET POLYDATA
POINTS 337 float
63.711 88.031 1.1289
63.701 88.065 1.4164
63.691 88.098 1.7035
63.68 88.132 1.9899
63.669 88.167 2.2752
63.658 88.202 2.5591
63.645 88.237 2.8413
63.631 88.274 3.1213
63.616 88.312 3.3989
63.599 88.351 3.6736
63.581 88.391 3.9452
63.561 88.433 4.2134
63.538 88.476 4.4784
63.513 88.521 4.7407
63.485 88.568 5.0008
63.454 88.617 5.259
63.419 88.668 5.5157
63.38 88.721 5.7715
63.337 88.776 6.0266
63.289 88.833 6.2815
63.235 88.893 6.5366
63.176 88.955 6.7923
63.113 89.02 7.0485
63.046 89.086 7.305
62.975 89.154 7.5616
62.902 89.223 7.8182
62.827 89.293 8.0746
62.752 89.364 8.3307
62.676 89.436 8.5863
62.601 89.507 8.8412
62.528 89.579 9.0953
62.457 89.65 9.3485
62.387 89.72 9.6011
62.319 89.789 9.8535
62.253 89.857 10.106
62.187 89.923 10.359
62.121 89.988 10.614
62.056 90.05 10.87
61.99 90.109 11.127
61.923 90.166 11.387
61.855 90.219 11.65
61.786 90.269 11.915
61.715 90.314 12.183
61.644 90.354 12.453
61.573 90.387 12.722
61.502 90.412 12.991
61.431 90.428 13.259
61.361 90.434 13.525
61.293 90.429 13.788
61.227 90.412 14.047
61.162 90.382 14.302
61.101 90.337 14.551
61.042 90.28 14.795
60.985 90.211 15.034
60.93 90.132 15.269
60.877 90.045 15.5
60.826 89.951 15.727
60.776 89.851 15.952
60.727 89.746 16.174
60.68 89.639 16.394
60.633 89.531 16.612
60.588 89.423 16.828
60.544 89.313 17.044
60.504 89.203 17.258
60.468 89.089 17.471
60.438 88.972 17.683
60.415 88.851 17.893
60.4 88.724 18.103
60.395 88.59 18.311
60.4 88.45 18.518
60.418 88.301 18.724
60.448 88.143 18.928
60.491 87.978 19.131
60.548 87.805 19.329
60.617 87.626 19.524
60.699 87.442 19.712
60.794 87.254 19.893
60.901 87.063 20.066
61.02 86.87 20.23
61.152 86.676 20.384
61.295 86.482 20.525
61.451 86.29 20.655
61.616 86.098 20.772
61.791 85.906 20.878
61.974 85.715 20.975
62.162 85.524 21.062
62.355 85.333 21.141
62.552 85.141 21.213
62.75 84.949 21.279
62.949 84.755 21.339
63.147 84.561 21.396
63.343 84.365 21.448
63.538 84.168 21.497
63.732 83.971 21.541
63.925 83.775 21.58
64.12 83.58 21.614
64.317 83.387 21.642
64.516 83.197 21.662
64.719 83.01 21.676
64.927 82.827 21.681
65.139 82.649 21.679
65.357 82.476 21.667
65.581 82.308 21.648
65.809 82.144 21.622
66.041 81.983 21.591
66.276 81.826 21.556
66.513 81.671 21.517
66.752 81.517 21.477
66.992 81.365 21.436
67.231 81.213 21.396
67.47 81.061 21.357
67.708 80.908 21.322
67.945 80.754 21.289
68.181 80.6 21.259
68.417 80.446 21.233
68.653 80.292 21.209
68.89 80.139 21.188
69.129 79.986 21.17
69.369 79.834 21.156
69.611 79.684 21.144
69.855 79.534 21.136
70.103 79.386 21.131
70.353 79.24 21.129
70.605 79.096 21.131
70.858 78.953 21.137
71.111 78.813 21.148
71.365 78.676 21.163
71.618 78.54 21.185
71.87 78.408 21.212
72.12 78.277 21.245
72.367 78.15 21.284
72.612 78.026 21.331
72.854 77.905 21.385
73.093 77.788 21.447
73.329 77.674 21.517
73.562 77.564 21.597
73.791 77.458 21.685
74.018 77.356 21.784
74.242 77.259 21.893
74.462 77.166 22.013
74.679 77.079 22.144
74.894 76.996 22.287
75.104 76.918 22.441
75.31 76.844 22.605
75.51 76.773 22.777
75.705 76.704 22.956
75.893 76.638 23.142
76.075 76.573 23.334
76.248 76.509 23.529
76.412 76.446 23.728
76.568 76.382 23.928
76.714 76.317 24.13
76.85 76.252 24.332
76.979 76.187 24.536
77.1 76.122 24.74
77.214 76.059 24.946
77.322 75.998 25.153
77.425 75.939 25.361
77.523 75.883 25.57
77.618 75.83 25.781
77.71 75.781 25.993
77.8 75.736 26.207
77.887 75.695 26.423
77.971 75.657 26.642
78.053 75.62 26.864
78.131 75.585 27.091
78.205 75.55 27.323
78.274 75.514 27.56
78.34 75.476 27.805
78.4 75.436 28.056
78.455 75.393 28.315
78.504 75.345 28.583
78.547 75.295 28.858
78.584 75.243 29.14
78.615 75.191 29.427
78.64 75.139 29.719
78.658 75.089 30.015
78.669 75.042 30.313
78.674 74.999 30.613
78.671 74.962 30.914
78.661 74.932 31.214
78.644 74.909 31.512
78.621 74.892 31.81
78.594 74.879 32.105
78.563 74.869 32.4
78.531 74.86 32.692
78.498 74.85 32.983
78.466 74.838 33.273
78.437 74.821 33.561
78.412 74.797 33.847
78.392 74.766 34.131
78.378 74.726 34.414
78.369 74.677 34.695
78.364 74.619 34.974
78.359 74.553 35.25
78.354 74.48 35.525
78.346 74.401 35.797
78.335 74.316 36.066
78.317 74.225 36.332
78.291 74.13 36.596
78.256 74.03 36.857
78.209 73.927 37.114
78.153 73.82 37.367
78.088 73.707 37.614
78.016 73.589 37.855
77.939 73.464 38.089
77.859 73.331 38.313
77.776 73.19 38.527
77.693 73.04 38.73
77.611 72.88 38.921
77.532 72.709 39.098
77.456 72.526 39.26
77.385 72.333 39.409
77.318 72.129 39.545
77.256 71.916 39.667
77.198 71.695 39.778
77.144 71.465 39.877
77.095 71.228 39.966
77.051 70.984 40.044
77.012 70.734 40.114
76.977 70.479 40.174
76.947 70.219 40.226
76.921 69.956 40.27
76.898 69.69 40.306
76.876 69.422 40.332
76.856 69.152 40.35
76.836 68.881 40.359
76.815 68.61 40.358
76.792 68.34 40.348
76.766 68.072 40.327
76.737 67.806 40.297
76.703 67.543 40.257
76.666 67.282 40.209
76.626 67.022 40.153
76.586 66.763 40.093
76.545 66.504 40.03
76.506 66.244 39.965
76.469 65.982 39.9
76.436 65.718 39.838
76.408 65.45 39.779
76.385 65.178 39.726
76.37 64.902 39.68
76.364 64.622 39.643
76.366 64.34 39.614
76.38 64.059 39.597
76.405 63.779 39.591
76.443 63.502 39.597
76.494 63.23 39.618
76.561 62.965 39.653
76.644 62.708 39.704
76.744 62.46 39.772
76.862 62.224 39.858
76.997 62.001 39.96
77.146 61.793 40.076
77.308 61.6 40.207
77.482 61.425 40.348
77.665 61.269 40.501
77.856 61.134 40.662
78.053 61.021 40.83
78.254 60.932 41.003
78.457 60.868 41.181
78.661 60.831 41.361
78.865 60.818 41.544
79.067 60.827 41.731
79.266 60.857 41.921
79.462 60.904 42.114
79.654 60.967 42.312
79.839 61.044 42.514
80.018 61.132 42.72
80.19 61.228 42.932
80.352 61.332 43.149
80.505 61.44 43.371
80.648 61.553 43.596
80.784 61.672 43.823
80.913 61.797 44.049
81.035 61.929 44.271
81.152 62.068 44.488
81.264 62.215 44.697
81.373 62.37 44.896
81.48 62.534 45.082
81.585 62.708 45.254
81.688 62.892 45.41
81.791 63.085 45.551
81.892 63.287 45.679
81.991 63.497 45.795
82.088 63.715 45.901
82.183 63.941 45.999
82.274 64.173 46.09
82.362 64.411 46.176
82.446 64.655 46.259
82.526 64.904 46.34
82.602 65.158 46.421
82.674 65.415 46.502
82.74 65.676 46.581
82.802 65.94 46.657
82.858 66.207 46.73
82.91 66.476 46.799
82.955 66.747 46.863
82.996 67.019 46.922
83.031 67.292 46.973
83.06 67.566 47.017
83.082 67.84 47.053
83.1 68.115 47.081
83.113 68.389 47.102
83.121 68.664 47.118
83.126 68.938 47.128
83.128 69.213 47.134
83.128 69.488 47.137
83.088 70.612 47.321
83.072 70.761 47.413
83.055 70.912 47.503
83.037 71.064 47.589
83.019 71.217 47.672
82.998 71.371 47.75
82.976 71.527 47.822
82.952 71.684 47.888
82.926 71.844 47.947
82.897 72.006 47.999
82.866 72.169 48.045
82.832 72.333 48.087
82.795 72.497 48.127
82.756 72.661 48.167
82.715 72.823 48.209
82.671 72.982 48.255
82.624 73.139 48.306
82.575 73.291 48.366
82.522 73.439 48.436
82.468 73.583 48.516
82.411 73.721 48.608
82.351 73.855 48.709
82.29 73.985 48.818
82.228 74.112 48.934
82.163 74.237 49.056
82.098 74.359 49.183
82.032 74.48 49.313
81.966 74.6 49.446
81.899 74.719 49.579
LINES 1 338
337 0 1 2 3 4 5 6 7 8 9 10 11 12 13 14 15 16 17 18 19 20 21 22 23 24 25 26 27 28 29 30 31 32 33 34 35 36 37 38 39 40 41 42 43 44 45 46 47 48 49 50 51 52 53 54 55 56 57 58 59 60 61 62 63 64 65 66 67 68 69 70 71 72 73 74 75 76 77 78 79 80 81 82 83 84 85 86 87 88 89 90 91 92 93 94 95 96 97 98 99 100 101 102 103 104 105 106 107 108 109 110 111 112 113 114 115 116 117 118 119 120 121 122 123 124 125 126 127 128 129 130 131 132 133 134 135 136 137 138 139 140 141 142 143 144 145 146 147 148 149 150 151 152 153 154 155 156 157 158 159 160 161 162 163 164 165 166 167 168 169 170 171 172 173 174 175 176 177 178 179 180 181 182 183 184 185 186 187 188 189 190 191 192 193 194 195 196 197 198 199 200 201 202 203 204 205 206 207 208 209 210 211 212 213 214 215 216 217 218 219 220 221 222 223 224 225 226 227 228 229 230 231 232 233 234 235 236 237 238 239 240 241 242 243 244 245 246 247 248 249 250 251 252 253 254 255 256 257 258 259 260 261 262 263 264 265 266 267 268 269 270 271 272 273 274 275 276 277 278 279 280 281 282 283 284 285 286 287 288 289 290 291 292 293 294 295 296 297 298 299 300 301 302 303 304 305 306 307 308 309 310 311 312 313 314 315 316 317 318 319 320 321 322 323 324 325 326 327 328 329 330 331 332 333 334 335 336
POINT_DATA 337
SCALARS r float 1
LOOKUP_TABLE default
0.0
3.2812
3.2632
3.3146
3.2915
3.217
3.2048
3.212
3.201
3.2212
3.2655
3.2919
3.267
3.3045
3.2962
3.2858
3.2861
3.2776
3.2675
3.2338
3.2285
3.2751
3.1663
3.2465
3.2483
3.2734
3.2565
3.2564
3.3059
3.2283
3.2645
3.2513
3.1959
3.2305
3.1887
3.1
3.1516
3.1361
3.0639
3.0632
3.0701
3.0435
3.0827
3.0112
3.0679
3.0623
3.0412
3.0306
2.9998
3.0099
3.075
3.0574
3.0845
3.1324
3.1147
3.0717
3.0983
3.1161
3.0915
3.0785
3.076
3.0915
3.0811
3.079
3.0642
3.0906
3.0863
3.0657
2.9884
2.9917
3.0759
3.1295
3.1071
3.0868
3.2072
3.135
3.1994
3.1126
3.0723
3.0652
3.1798
3.2475
3.2504
3.2314
3.2804
3.3229
3.2048
3.1736
3.2425
3.2285
3.2877
3.2949
3.2712
3.2462
3.2635
3.2575
3.2743
3.237
3.2776
3.2588
3.2352
3.1918
3.2213
3.1866
3.1472
3.1439
3.1731
3.1756
3.1827
3.1452
3.0781
3.1235
3.1042
3.0831
3.1449
3.1425
3.1293
3.112
3.1479
3.1359
3.1298
3.1135
3.1017
3.12
3.0843
3.1149
3.1038
3.1134
3.0501
3.0083
3.0076
2.9861
2.9438
2.9476
2.8902
2.9137
3.0746
3.1546
3.162
3.1518
3.177
3.2354
3.1916
3.2425
3.2392
3.2121
3.1074
3.2176
3.1428
3.1691
3.1521
3.1825
3.1687
3.1318
3.1515
3.1044
3.1415
3.1319
3.1565
3.1483
3.156
3.1165
3.1738
3.1267
3.2017
3.1416
3.1198
3.1657
3.1254
3.1373
3.1199
3.0321
3.0401
3.0067
3.0042
2.914
2.9146
2.9155
2.8613
2.865
2.859
3.1106
3.1385
3.1353
3.1591
3.1287
3.1672
3.1092
3.0687
2.9484
2.9968
2.9881
3.0056
3.0072
3.0349
2.9714
2.9804
2.9639
3.0089
3.0253
3.0129
3.011
2.984
2.9259
2.9304
2.9228
2.9137
2.922
3.0111
3.0523
3.0207
3.0169
3.0182
3.0793
3.0588
3.0817
3.0852
3.0732
3.1372
3.1395
3.173
3.1942
3.1052
3.1103
3.0882
2.9428
2.9113
2.9269
2.948
2.9813
3.071
3.0576
3.1307
3.1328
2.9968
2.9716
2.9551
2.9718
3.0065
3.0032
3.0052
2.9673
2.9605
2.9697
2.9754
2.9899
2.9474
2.9127
2.9676
2.9
2.8717
2.8897
2.9129
2.892
2.9272
2.9398
2.8138
2.7976
2.8197
2.8236
2.8493
2.8727
2.8609
2.8973
2.8876
2.8723
2.859
2.7508
2.6641
2.5873
2.4897
2.3998
2.3981
2.3337
2.2926
2.2965
2.2354
2.2086
2.1706
2.1672
2.1852
2.2064
2.3153
2.3339
2.321
2.3901
2.3897
2.6519
2.6164
2.5798
2.4526
2.3771
2.4253
2.3885
2.3709
2.4112
2.3952
2.3845
2.3684
2.3024
2.3188
2.316
2.3088
2.3232
2.324
2.2768
2.3071
2.4113
2.3557
2.2973
2.2665
2.2926
2.2809
2.3069
2.2811
2.2539
2.2582
2.2627
2.1877
2.1534
2.2049
2.1845
2.2338
2.1913
2.2248
2.2319
2.2053
2.1961
2.1361
2.1317
2.1512
2.2048
2.3817
2.5491
2.775
2.9255
0.0
SCALARS curvature float 1
LOOKUP_TABLE default
0.053743
0.053386
0.052999
0.052574
0.052106
0.051588
0.051015
0.050155
0.049431
0.048636
0.047765
0.046815
0.045787
0.044293
0.043083
0.041803
0.04046
0.039066
0.037636
0.035711
0.034291
0.032932
0.03168
0.030591
0.029725
0.029027
0.028925
0.029237
0.029989
0.031184
0.032804
0.035562
0.038023
0.040768
0.043754
0.04694
0.05029
0.05496
0.05858
0.062273
0.066018
0.069795
0.073585
0.078631
0.082393
0.08612
0.089803
0.093437
0.097014
0.10169
0.10513
0.10851
0.11183
0.11509
0.1183
0.1225
0.12559
0.12865
0.13167
0.13465
0.13757
0.14135
0.1441
0.14677
0.14935
0.15182
0.15415
0.157
0.1589
0.16057
0.16201
0.16319
0.16407
0.16473
0.16482
0.16455
0.16391
0.1629
0.16151
0.15977
0.1569
0.15436
0.1515
0.14835
0.14493
0.14126
0.13602
0.13186
0.12754
0.12307
0.11848
0.11379
0.10741
0.10256
0.097666
0.092741
0.087802
0.082859
0.076284
0.071381
0.066519
0.061714
0.056988
0.052368
0.04644
0.042235
0.038321
0.034799
0.031803
0.029499
0.027792
0.027695
0.028632
0.030504
0.03315
0.036397
0.041402
0.045513
0.049834
0.0543
0.058862
0.063479
0.069661
0.074277
0.078844
0.083338
0.087732
0.092004
0.097469
0.10137
0.10507
0.10856
0.11183
0.11485
0.11847
0.12088
0.12301
0.12486
0.12643
0.12771
0.12899
0.12962
0.13
0.13012
0.12999
0.12963
0.12882
0.12798
0.12696
0.12577
0.12443
0.12294
0.12075
0.11897
0.11708
0.11509
0.11301
0.11084
0.10859
0.10546
0.10302
0.10051
0.097921
0.095268
0.092547
0.08882
0.085955
0.083035
0.080066
0.077059
0.074021
0.069948
0.0669
0.063884
0.060932
0.058081
0.055375
0.052088
0.049944
0.048155
0.046801
0.045959
0.045703
0.046369
0.047667
0.049656
0.052316
0.055617
0.059518
0.065582
0.070729
0.076353
0.082425
0.088918
0.095808
0.10556
0.11326
0.12124
0.12945
0.13783
0.14629
0.15754
0.16579
0.17375
0.18124
0.18812
0.19422
0.20086
0.20454
0.20697
0.20806
0.20776
0.20606
0.20171
0.19699
0.19118
0.18441
0.17685
0.16862
0.15687
0.14767
0.13832
0.12893
0.11965
0.11058
0.09901
0.090891
0.083414
0.076755
0.071127
0.066778
0.063426
0.06304
0.064608
0.068104
0.073392
0.080286
0.088601
0.10164
0.11275
0.12492
0.13809
0.15223
0.16728
0.18865
0.20553
0.22299
0.24082
0.25877
0.2765
0.29913
0.31472
0.32859
0.34022
0.34918
0.35512
0.35801
0.35639
0.35172
0.34433
0.33463
0.32311
0.30576
0.29186
0.27765
0.26348
0.2496
0.23625
0.21953
0.20793
0.19722
0.18741
0.17853
0.17056
0.16129
0.15532
0.15013
0.14567
0.14189
0.13872
0.13535
0.13338
0.13182
0.13062
0.12973
0.12908
0.12853
0.12829
0.12815
0.12806
0.12798
0.1279
0.12769
0.12745
0.12709
0.1266
0.12596
0.12517
0.12384
0.12265
0.12128
0.11974
0.11804
0.11618
0.11349
0.11132
0.10904
0.10667
0.054496
0.082185
0.11036
0.1391
0.16842
0.19823
0.22829
0.25823
0.28747
0.22081
0.15826
0.10739
0.0897
0.12072
0.17708
0.24235
0.31092
0.3795
0.44449
0.39162
0.33875
0.28765
0.23926
0.19385
0.1513
0.1112
0.073041
0.036189
0.0
SCALARS torsion float 1
LOOKUP_TABLE default
-0.02282
-0.023627
-0.024897
-0.026658
-0.028947
-0.031812
-0.035303
-0.041029
-0.04621
-0.052254
-0.059273
-0.067359
-0.07667
-0.091355
-0.10432
-0.11927
-0.13657
-0.15653
-0.17948
-0.21546
-0.24658
-0.28086
-0.31765
-0.35542
-0.3913
-0.43023
-0.44769
-0.45137
-0.4409
-0.4184
-0.3874
-0.34009
-0.30455
-0.27136
-0.24162
-0.21571
-0.19354
-0.16924
-0.15449
-0.14223
-0.13209
-0.12379
-0.11704
-0.10988
-0.10571
-0.10239
-0.099681
-0.097508
-0.095807
-0.094031
-0.092988
-0.09215
-0.091379
-0.090618
-0.089851
-0.088719
-0.087716
-0.08656
-0.085204
-0.08362
-0.08182
-0.079129
-0.076924
-0.074542
-0.071974
-0.069232
-0.06633
-0.062267
-0.059185
-0.056078
-0.052936
-0.049758
-0.046545
-0.042218
-0.039091
-0.036112
-0.033262
-0.030598
-0.028177
-0.025981
-0.023433
-0.021864
-0.020585
-0.019606
-0.018959
-0.018657
-0.018814
-0.019377
-0.020354
-0.021781
-0.02367
-0.026071
-0.030202
-0.034069
-0.038711
-0.044289
-0.050968
-0.05896
-0.072256
-0.084753
-0.10003
-0.1189
-0.14243
-0.17189
-0.22345
-0.27408
-0.33702
-0.41291
-0.49856
-0.58344
-0.66166
-0.66849
-0.62684
-0.55294
-0.46835
-0.38839
-0.29983
-0.24779
-0.20636
-0.17352
-0.14741
-0.12653
-0.10487
-0.092137
-0.08171
-0.073121
-0.066003
-0.060072
-0.053634
-0.049689
-0.046359
-0.043528
-0.041113
-0.039048
-0.036724
-0.035232
-0.033919
-0.032741
-0.031657
-0.030649
-0.029375
-0.028427
-0.02747
-0.026498
-0.025514
-0.024504
-0.02311
-0.022058
-0.020995
-0.019919
-0.018893
-0.017934
-0.016756
-0.016034
-0.015486
-0.015114
-0.014945
-0.015013
-0.015328
-0.016196
-0.017266
-0.018724
-0.020616
-0.023031
-0.026029
-0.03106
-0.03577
-0.041415
-0.048135
-0.056133
-0.065628
-0.081052
-0.094885
-0.11091
-0.12942
-0.15045
-0.17385
-0.20838
-0.23574
-0.26273
-0.28733
-0.30695
-0.31891
-0.32012
-0.30983
-0.29158
-0.26794
-0.24163
-0.21497
-0.18155
-0.15911
-0.13932
-0.12216
-0.10743
-0.094905
-0.081205
-0.072837
-0.065859
-0.060089
-0.055363
-0.051537
-0.047628
-0.04548
-0.043924
-0.042877
-0.042297
-0.042159
-0.04259
-0.043355
-0.044503
-0.046039
-0.047984
-0.050372
-0.05425
-0.0577
-0.061696
-0.06638
-0.071952
-0.078635
-0.089632
-0.099658
-0.11167
-0.12616
-0.14367
-0.16499
-0.20103
-0.23472
-0.27484
-0.32116
-0.37141
-0.42034
-0.4682
-0.47853
-0.46245
-0.42487
-0.37564
-0.32417
-0.27648
-0.2229
-0.1905
-0.16396
-0.14231
-0.12464
-0.11012
-0.094499
-0.085043
-0.07704
-0.070143
-0.06416
-0.058876
-0.052588
-0.048255
-0.044124
-0.040107
-0.03617
-0.032291
-0.027153
-0.023351
-0.019634
-0.015992
-0.012431
-0.0089695
-0.0044918
-0.0012205
0.0019773
0.0051257
0.0082469
0.011297
0.015259
0.018167
0.020954
0.023591
0.026066
0.028327
0.03091
0.032475
0.033698
0.034563
0.03504
0.035132
0.034759
0.034108
0.033173
0.03207
0.030813
0.029411
0.027387
0.025774
0.02409
0.0224
0.020723
0.019057
0.016903
0.015367
0.013894
0.012501
0.011203
0.0099987
0.0085393
0.0075636
0.0066873
0.0059072
0.0052194
0.0046209
0.0039547
0.0035422
0.0031999
0.0029238
1.24e-13
-7.15e-15
2.54e-14
4.33e-15
5.44e-15
1.81e-16
1.13e-14
-5.06e-15
-3.83e-15
-0.74823
-1.4442
-3.1194
-4.4773
-2.4943
-1.1766
-0.6386
-0.39224
-0.26207
-0.18491
-7.36e-15
-8.26e-15
-1.38e-14
-1.03e-14
-1.23e-15
3.19e-15
1.34e-15
-5.34e-14
-5.2e-13
0.0
