# vtk DataFile Version 3.0
tangent_project_data
ASCII
DATASET POLYDATA
POINTS 9401 float
-0.4515670916272944 0.34292813786767673 -0.3489796184177606
-0.45335621411764027 0.33577789960115273 -0.34936600789170935
-0.4558184297663009 0.328027474675273 -0.3479917308657068
-0.45897021813673705 0.3199305238124933 -0.3455055982924595
-0.4628107528554904 0.31175134280238687 -0.3425293424233773
-0.46729852961502205 0.30377001236522516 -0.33962983748629966
-0.4723242575313486 0.2962778111804632 -0.33729046404869806
-0.4776906249707371 0.28955496368549555 -0.33588995864771065
-0.483113473239545 0.28382856688783936 -0.33569106612562255
-0.4882568396094279 0.27922069650722997 -0.3368344316521298
-0.49279462393962126 0.27569872875669976 -0.33933236699412017
-0.49648615394267887 0.2730489922033246 -0.34306337728856473
-0.49923660027013955 0.2708905167063433 -0.34777614919268657
-0.5011144201783564 0.26873674794514685 -0.35311418639416337
-0.5023209493805121 0.2660921013732185 -0.35866450576304015
-0.5031229747629816 0.26255134260882934 -0.3640262802426996
-0.50377380973184 0.25787533833539406 -0.36888502083828945
-0.5044435195495461 0.25202512923609716 -0.37307475822536235
-0.5051745127438719 0.24515597770970737 -0.3766077802179523
-0.5058695527045427 0.2375741928514812 -0.3796591103192686
-0.5063158422778005 0.22966885284321392 -0.3825111167471271
-0.5062309294108405 0.2218319581148728 -0.38547374943057233
-0.5053233917070848 0.21439139928304887 -0.3888062501070112
-0.5033571977445241 0.20755085944060372 -0.39265183288971706
-0.5002091579957182 0.2013730711118161 -0.3969950841172263
-0.49590356065448865 0.1957799360166513 -0.40164331505660233
-0.4906156687525833 0.19060894601804584 -0.40624073001649863
-0.484649270347389 0.1856712867571763 -0.4103159488092314
-0.4783975096176454 0.18083186413823055 -0.41335996131369124
-0.472297442311444 0.17606070715280692 -0.41491360329766647
-0.46678089047830684 0.17144810608355865 -0.41464685234057197
-0.46221862034324745 0.16717879132772473 -0.4124140750908939
-0.45886219675400847 0.16349063268884897 -0.40827473450835805
-0.4568004129398764 0.1606110984436833 -0.40247670670121133
-0.45594964948800004 0.15870675673802173 -0.39540242293430095
-0.45608786943124197 0.15783426205947418 -0.3874924240959565
-0.4569200574449441 0.1579148873655919 -0.37916128618091516
-0.45814995864426084 0.1587480813991565 -0.37073116309726667
-0.45952907414674465 0.1600532903710324 -0.3623932944302885
-0.4608747035595218 0.1615361037661217 -0.35420599340272096
-0.4620623519246164 0.162952705484908 -0.3461242645785741
-0.4630049266653666 0.16413957538225193 -0.3380505479840458
-0.4636297308702847 0.16499993794031564 -0.3298940323619114
-0.46386064236978003 0.16546203040891236 -0.3216216448091933
-0.46361661668279225 0.16542005902072318 -0.3132899140610187
-0.46283302302137364 0.16471668945512 -0.30504883887651885
-0.46149396866698306 0.16314718469367104 -0.29711738726342934
-0.45965946150677195 0.160507634091403 -0.28973801899091645
-0.4574733743574949 0.156652494120004 -0.2831240192521359
-0.4551450252208858 0.1515361824985644 -0.2774133415148302
-0.4529142959402134 0.14523653103161957 -0.27264257975149536
-0.45101052311483114 0.13793222202080696 -0.26874664507585344
-0.44961797604954123 0.129868071597292 -0.26558230840409747
-0.44885237696959046 0.12130333048080191 -0.26296603773020855
-0.44875005636608234 0.11246492726034993 -0.26071255847804886
-0.4492670607521701 0.10352496955345022 -0.2586657010345096
-0.4502829432021815 0.09458994014623373 -0.25671494805463646
-0.4516091947561799 0.08571723868462366 -0.2548002882829082
-0.452999190842533 0.0769344098277775 -0.25290683258793434
-0.4541654133798432 0.06826296623257488 -0.2510529236511778
-0.4548019904124371 0.059733612463567176 -0.24927575285129797
-0.45461799656545454 0.05139824088160472 -0.24761371054296066
-0.4533744063101526 0.04332402127714524 -0.24608871617221084
-0.4509224604475876 0.03557181186365238 -0.2446905012628745
-0.4472294513558037 0.02819394962682642 -0.24336705294130528
-0.4423859866927678 0.02121992052977817 -0.24202480537208354
-0.4365862582329965 0.014665180151465562 -0.2405409492793243
-0.4300874896859586 0.008553441817217344 -0.23878619389459144
-0.42315671345478145 0.002948360236186165 -0.23665237786066656
-0.4160228110345951 -0.002031330295007183 -0.23407824998757726
-0.4088440314456348 -0.006210037392874179 -0.23106256173281575
-0.40170090567965616 -0.009381802443435783 -0.2276623089121595
-0.3946089065317308 -0.011360883041377168 -0.22397393170349222
-0.3875458355074055 -0.012047371833217302 -0.22010461463671044
-0.3804791431109861 -0.011458886142975688 -0.21614586060769447
-0.37338561285172994 -0.009750939874386522 -0.21215284800943468
-0.3662569381419002 -0.007173948138206709 -0.2081464757069303
-0.35910524324245047 -0.004019992034495545 -0.2041269802346133
-0.35194730712751493 -0.000553666763499383 -0.2000917806724795
-0.34480126360452457 0.0030349318382764667 -0.19605886860789
-0.33767360090277065 0.0066490342412076076 -0.19206676621807717
-0.33055863920177997 0.010265831340198872 -0.18817266692986284
-0.3234314316042496 0.013906575304844071 -0.18443362045294576
-0.3162592585117966 0.01759073980533743 -0.180887274685392
-0.30899873531785366 0.02130525257168081 -0.17753815671658263
-0.3016211605152741 0.02498959073036472 -0.1743601639240155
-0.2941071742099196 0.02853607422682819 -0.1712859109415481
-0.2864714954304917 0.03181538759125452 -0.16822505958081957
-0.2787578860410062 0.0346799153734722 -0.16506876208564286
-0.27102912647144956 0.03700234815517606 -0.16170485921778377
-0.2633643090452919 0.038674305260829434 -0.15802552720555818
-0.25583563964051675 0.03962447904446903 -0.1539519431951018
-0.24848933528866107 0.03981870076005295 -0.14944756111962648
-0.24133776763874754 0.039265653317108185 -0.1445260640469041
-0.23435882820665643 0.03798749909367555 -0.13926868808082576
-0.22751033601672732 0.03602811372982667 -0.1338046468915794
-0.22077827864944766 0.03342355225884547 -0.12829485575144628
-0.21419653741661304 0.03019119247621277 -0.12289678072175078
-0.2079002543197433 0.02634118440375488 -0.11772473679757514
-0.2021224067919799 0.021874743648805595 -0.11282909683060252
-0.19717632211476255 0.01680776891811936 -0.10818970449430357
-0.19338777107711497 0.011179147669949985 -0.10373552760053437
-0.19101890568818913 0.0050569718796290575 -0.09939040805042357
-0.19019671200276317 -0.0014781990170739112 -0.09510799707173759
-0.1908566730089451 -0.008349111078222948 -0.0909081755331865
-0.1927567331419779 -0.01549973259040871 -0.08687276638358135
-0.19550962266053307 -0.022905703501248098 -0.08312097100019336
-0.19866766272582864 -0.03056250869778704 -0.07977355967222191
-0.2018045524211593 -0.038471645233392304 -0.07690264246623504
-0.20459531140167886 -0.04661968753347112 -0.07449890172207832
-0.2068657305612096 -0.054949975122200234 -0.07245763951549708
-0.20861085165900095 -0.06336146288553984 -0.07058314905396787
-0.20998587721168693 -0.07170251728208232 -0.06861368552685423
-0.21125221668994948 -0.07978409041267909 -0.0662567486591544
-0.21275179708274594 -0.08738588788031154 -0.0632144128544653
-0.2148534444339269 -0.09428226182512167 -0.05920604647687652
-0.2179397936075973 -0.10023992342686772 -0.053965724942751786
-0.22238416180770776 -0.10502970375617326 -0.04724286547135728
-0.2285685611241628 -0.10842466149907143 -0.03878791525467526
-0.42588551062882096 0.5392528548174862 -0.7100026355568129
-0.42963152175123315 0.5297056723155452 -0.709362023054772
-0.43338712415214964 0.5208600460686865 -0.7076027331772995
-0.4370494536911518 0.5127860202684773 -0.7050844720331721
-0.44052294249777546 0.5055418324151031 -0.7021727960130763
-0.4437281673570753 0.4991599442768906 -0.6992410088197956
-0.4466128073805019 0.49362897367270997 -0.6966656643127302
-0.44916057198713777 0.48887614362624754 -0.6948096922253825
-0.4513945439219311 0.48475794314046283 -0.6939888087916739
-0.45336892783767435 0.4810651947887215 -0.6944275401370352
-0.4551499605996125 0.47754351080255936 -0.6962175937418267
-0.45679298773183996 0.47392336696984194 -0.6992942981223572
-0.4583212644365947 0.46995399712519204 -0.7034459951202076
-0.45971008952359316 0.4654383091182095 -0.7083586134786825
-0.4608783682687728 0.46026549250719717 -0.7136836435468994
-0.4616891828499436 0.45443272164579085 -0.7191118296063335
-0.4619625674521813 0.4480480343931047 -0.7244295501386502
-0.4614981532365787 0.44131026073838253 -0.7295435057500445
-0.4601050034513888 0.43447067095292596 -0.7344714860732607
-0.4576334119030822 0.42778505899540864 -0.739304283238429
-0.4540030400264826 0.4214674576284715 -0.7441499483706087
-0.44922294846227956 0.4156557796202076 -0.7490748377285532
-0.443401029144188 0.41039713234263486 -0.7540543695154872
-0.4367422674601048 0.40565718352912916 -0.7589454705105678
-0.42953676310343697 0.4013482253818598 -0.7634872658980437
-0.4221389423367031 0.3973669360852926 -0.7673284469125585
-0.41493853210305837 0.39363533841252774 -0.7700782783991093
-0.40832455625055286 0.39013302933958216 -0.7713718009345513
-0.40264502695711774 0.38690909286433434 -0.7709362003522979
-0.39816703413391125 0.38407584511328097 -0.7686457950858897
-0.3950450928796603 0.38178591078793345 -0.7645473210608741
-0.3933064249142694 0.38018668780732623 -0.7588521047870358
-0.3928551705164765 0.3793824531350603 -0.7518980829567956
-0.3934948875672047 0.3794097876155005 -0.7440912200304443
-0.3949642966393687 0.3802263264520994 -0.7358405051038179
-0.3969778681577425 0.3817211199107339 -0.7274997011421667
-0.3992625823335859 0.38374546337675014 -0.7193251990717057
-0.40158444115647246 0.38612991092990445 -0.7114574852539305
-0.4037620593553232 0.3887054610591232 -0.7039233966963298
-0.40566996098583186 0.39129981566590744 -0.6966551974818312
-0.4072345598490167 0.39372598461725844 -0.6895237038343969
-0.4084267836255938 0.3957802029922537 -0.6823810203620408
-0.4092528407779976 0.39724623588132046 -0.675105405484079
[...]
CELL_DATA 79
SCALARS idx float 1
LOOKUP_TABLE default
0.0
1.0
2.0
3.0
4.0
5.0
6.0
7.0
8.0
9.0
10.0
11.0
12.0
13.0
14.0
15.0
16.0
17.0
18.0
19.0
20.0
21.0
22.0
23.0
24.0
25.0
26.0
27.0
28.0
29.0
30.0
31.0
32.0
33.0
34.0
35.0
36.0
37.0
38.0
39.0
40.0
41.0
42.0
43.0
44.0
45.0
46.0
47.0
48.0
49.0
50.0
51.0
52.0
53.0
54.0
55.0
56.0
57.0
58.0
59.0
60.0
61.0
62.0
63.0
64.0
65.0
66.0
67.0
68.0
69.0
70.0
71.0
72.0
73.0
74.0
75.0
76.0
77.0
78.0
SCALARS source float 1
LOOKUP_TABLE default
0.0
0.0
0.0
0.0
0.0
0.0
0.0
0.0
0.0
0.0
0.0
0.0
0.0
0.0
0.0
0.0
0.0
0.0
0.0
0.0
0.0
0.0
0.0
0.0
0.0
0.0
0.0
0.0
0.0
0.0
0.0
0.0
0.0
0.0
0.0
0.0
0.0
0.0
0.0
0.0
0.0
0.0
0.0
0.0
0.0
0.0
0.0
0.0
0.0
0.0
0.0
0.0
0.0
0.0
0.0
0.0
0.0
0.0
0.0
0.0
0.0
0.0
0.0
0.0
0.0
0.0
0.0
0.0
0.0
0.0
0.0
0.0
0.0
0.0
0.0
0.0
0.0
0.0
0.0
SCALARS kappa_moves float 1
LOOKUP_TABLE default
-0.02987834359692117
-0.008167793688728744
0.022633557515170103
0.0006301309793499965
-0.003430878501388737
-0.009989289025362858
-0.018816691029348357
-0.010743892600254943
0.014098920157496187
0.04032060235807968
-0.0009237613510036851
-0.04117153007730304
-0.028264265441906987
0.008553720750222144
-0.0031669415725092604
0.006859244838409223
-0.0061495300375991714
-0.010703012380897057
0.04183165153508655
0.05805588107113
0.008826758815634694
0.025442996727832283
0.029930677082591634
0.05145769829544835
-0.01591936730995857
-0.015456959479495885
0.027748775047146602
0.0017923996326986269
-0.010863885927346467
0.07849461970496435
0.02153627670532141
0.012758034242885127
-0.03475467843573612
-0.01345871036813498
0.04883839768711794
-0.023730747140023038
-0.02419522937728013
-0.0753974937741404
-0.09812759983163327
0.037683976067977035
0.048708537039743746
0.015680477306497066
0.019481946568361896
-0.03534205576319047
-0.03808539695315187
0.003959645580637458
0.017513969443779927
0.003389708395029947
0.019369825928732223
-0.026511031081056857
-0.03808774777153443
-0.006320899992574308
-0.00806744096201951
-0.007789232012284625
0.04735716765771707
-0.030110163320096982
-0.006659673850649079
-0.00713152348487249
-0.04075058159312703
-0.04445009003040802
0.03496841562107529
-0.0023695414407848584
-0.025920227643882153
-0.028888202967619903
-0.015562096791656354
-0.01101329373042605
-0.0051796851551080495
-0.053644779667234764
0.09101466567723254
-0.010918403624109608
-0.019658486741539038
-0.030923675676511442
-0.04095623076897327
-0.05428526086800824
0.04885344330264102
0.017010367279892042
-0.07776243964426104
0.0008590203983417921
-0.0021772701277554376
SCALARS tau_moves float 1
LOOKUP_TABLE default
-0.02914181257458113
-0.009929587072983451
0.02490281307437554
0.0016064383789190534
-0.0017122286642390129
-0.011762981801862558
-0.02164213188680362
-0.013380216342331247
0.007007617522054516
0.03677452687191677
-0.008177879385750816
-0.04225573644562754
-0.024249729298505822
0.014562098672257237
-0.011926367545811672
0.008795179224151078
-0.0014655214754230122
0.0029924028787545963
0.050046041714748524
0.0627350745011193
0.005827158664561749
0.023898209505375665
0.026221811350476455
0.049504355956510385
-0.009242048530448538
-0.004505499507774946
0.030234115357165792
0.00020532530168151654
-0.01157379424735401
0.07880676073394524
0.029884719739520595
0.011257499737159758
-0.06552113760171394
-0.01923064616978748
0.04524910182885618
-0.011144463639977903
-0.026791427221133656
-0.07727901334703205
-0.09809539532223502
0.02751041048607773
0.06228990956145708
0.014076145950937775
0.020444240114398125
-0.03441541742716684
-0.038771969369426916
-0.0018119106954638143
-0.0003578544133181705
-0.003278760245364379
0.016493461333535374
-0.028558739811095264
-0.04278106006755575
-0.01178357517366425
-0.013259506817537148
-0.0024466303681319524
0.05470668093606597
-0.032635359884240475
-0.007764394621571219
-0.007215019807124784
-0.04474363115246137
-0.048948559667563174
0.03536630343008868
-0.008781092889500686
-0.025135890647248173
-0.03109807303844895
-0.021152925898216414
-0.01608436557459929
-0.008286267895565264
-0.060777809730266516
0.08829238626012785
-0.012125463323647997
-0.0015199071630435461
-0.03305004552107722
-0.026613242978727015
-0.05907279562493097
0.05889330928903895
0.025664460951189773
-0.08352105713751598
-0.0032687033867981664
-0.01079493158240728
SCALARS kappa_values float 1
LOOKUP_TABLE default
1.1670608802930533
1.0977417324947427
1.034481354128784
1.0217347127669063
1.15341037806054
1.1114271642235791
1.0872209086016817
0.9371476768003
1.1052572888906136
0.7216365931838131
1.0382269766572239
0.9992335297250987
1.0803515925465632
1.099954033255499
1.3324204544761618
1.32939937532134
0.8352678552899633
0.872482174936699
1.189023859372249
1.0774977309165004
1.1595816024096663
0.9730257851067815
0.9188576857234203
0.8696971201192012
1.0285531934018657
1.0128202785059213
1.091205132431118
0.8580364594120585
0.9920853981335931
1.1786407903966771
0.9989152023837626
0.897243720227913
0.8665230880737422
0.9113952023699383
0.8320627554534674
1.096815254755132
0.9946659035101184
1.048970681072745
0.9624186711733262
0.8747853884974195
0.8536208833516564
1.0410678141493115
1.015003591951285
1.4423092211457955
1.329539188280189
0.9746014827143817
0.789857232054581
1.026721819108896
1.2411238163930312
1.2621734229603923
1.1964526732010943
0.8469484443063091
1.0782153299617987
1.0918877203381356
0.9260584644293666
0.8319636058676402
0.8362883457139055
1.1102307892179835
1.0007238071337488
0.8235014247252691
0.8373078111567702
0.8174942892883218
1.1134197757707063
1.3444312010700163
0.813907528270496
1.1642725569697618
0.8857688239947901
1.133979184230753
1.0152320665089263
1.009388469299852
1.1519748207049605
1.2463200834770043
1.2534338168754435
1.284390777289254
0.9880788373426121
1.1147265996185838
1.05597478991158
0.6859242117785067
0.7331589307594127
SCALARS tau_values float 1
LOOKUP_TABLE default
0.7071736326737718
0.8265414718941662
0.8006200479297219
0.8096510563842239
0.4624451458538041
0.9725471866546478
0.5030094423971974
1.2978877714999986
1.227008488785686
1.3765240786246822
0.6639814269576794
0.3823791634809657
1.1249251921913435
0.43213603999340655
0.4218307809565934
0.5569157696078236
1.014840992479084
0.9032807841547521
1.4299342201197454
1.241796058325843
0.4386955746372174
0.5850822209949947
1.3222931039619445
0.9791760834849654
0.5849685600237087
1.265036808363193
1.5473082859059841
0.7501731692611837
0.96543652565958
0.8391819180624317
0.853269986952996
1.3778269175095694
0.997381074539786
1.073077799359619
0.6029247011908352
1.0932179191157974
0.9372149437467329
1.0275777361539977
0.5114778701255696
0.96442122628311
1.106418746541157
0.8366974649208672
0.9230250750381213
0.7905871577019546
0.7879686860991846
1.4143860815434568
1.011992597031514
0.46050170553629766
0.7304927845078846
1.3736901430888913
1.324329815152285
1.0629328679215642
1.2675956251079374
1.4997214088396604
0.6618763232824644
0.641265698966463
0.7585131126674601
0.8095697743934304
1.3427685648994692
0.8632551545201392
0.816325035182446
0.4984749074512063
0.623209963128994
0.8237908021724504
1.0211691798371736
1.073399573690538
1.370534462514788
1.0928425525793357
1.219212742457303
0.7155745205763564
0.8007909816426778
0.7385301057519444
1.3703813487329743
1.0056344311822454
0.40383313029141527
1.2294371487810207
0.9550152372542394
0.9513510684991695
0.8800226848068251
