# vtk DataFile Version 3.0
tangent_project_data
ASCII
DATASET POLYDATA
POINTS 9401 float
-0.33876007122471863 0.1668110019386523 -0.19971995326529804
-0.34175932534389913 0.15850552037246604 -0.1985841001746734
-0.34555212861958967 0.15077462872995773 -0.19850356202214187
-0.3500962313083805 0.14370975388654794 -0.19914962311948609
-0.3553438579291211 0.13738624965452512 -0.20020311542001185
-0.3612387631642502 0.13185149427106402 -0.2013694800264465
-0.3677144359647137 0.12711247167331385 -0.20240304400594833
-0.3746939040553792 0.1231269997080594 -0.20313555532354355
-0.38208978473937505 0.11980019629424432 -0.20350111449698016
-0.38980450311421366 0.11698689275671353 -0.20355013934362365
-0.3977304831624834 0.11450134230559356 -0.20344518664271205
-0.40574634183033065 0.11213398444690906 -0.20342946678461896
-0.41371263907857403 0.10967292117650279 -0.20377744650798285
-0.4214673728909316 0.10692664068853627 -0.20474327815573795
-0.42882360423500576 0.10374626278284088 -0.2065180021256241
-0.43557212722600025 0.10004608717758409 -0.2092040421347322
-0.4414907885316657 0.09581616720017966 -0.21281357118347094
-0.44636258609888113 0.09112299436937052 -0.21728462801939039
-0.4499983792037013 0.08609811209617746 -0.22250262358393652
-0.45226078129789593 0.08091492516266699 -0.22832170353485398
-0.45308604212698367 0.07575590309591165 -0.2345822943798458
-0.45249610010224817 0.07077578340233881 -0.24112193150231886
-0.4505953578846613 0.06607005117731796 -0.24778210587575858
-0.4475536880782508 0.061655810505701375 -0.25441029649257985
-0.44358009207396687 0.057467577658331326 -0.2608603211438333
-0.438891927172355 0.05336871934427248 -0.2669931283541751
-0.4336846486426684 0.04917829910205326 -0.2726773763981507
-0.4281131815078516 0.044706240667529484 -0.2777915543175157
-0.42228779850004433 0.03978924153546473 -0.28222690457485833
-0.4162829512077493 0.03432218740119633 -0.28588981366580324
-0.41015625941013134 0.028281922208747257 -0.28870253001750845
-0.4039731380334871 0.021741867929039843 -0.29060185239423936
-0.39782844516084387 0.014870912991598623 -0.29153530553055745
-0.39185765362523695 0.00792344135863629 -0.29145778653436183
-0.3862349048716455 0.0012176071601051608 -0.2903309445123
-0.38115711077311765 -0.004900914329697831 -0.2881264289838734
-0.376813746877168 -0.0101053956848203 -0.2848342789797974
-0.37334962839861446 -0.014136459757322528 -0.2804747377314072
-0.370830361099147 -0.01685390546413365 -0.2751099575818441
-0.3692211117752799 -0.018272775421086462 -0.2688511207630324
-0.36838614221151433 -0.01857444686196902 -0.26185818665047567
-0.36811237160720184 -0.018097690713138104 -0.25433141662940917
-0.36815546760027024 -0.017290378367649517 -0.24649467810409614
-0.36829427762735556 -0.016641250628506937 -0.2385727192575386
-0.36837557018602385 -0.01660711330404882 -0.2307672179969511
-0.36833886373210534 -0.017545482781340216 -0.22323479190842016
-0.3682170148867132 -0.01966791930503964 -0.21606929039184378
-0.36811031409530426 -0.023018815846819918 -0.2092950544059003
-0.3681424371170826 -0.027492262082277424 -0.20287596359747945
-0.368410577630521 -0.03287363610326999 -0.19673863773691197
-0.36894030042997206 -0.03889062767492782 -0.19080468343171875
-0.3696550936067555 -0.045270430709481585 -0.18502450543528629
-0.3703703206628044 -0.05178932881154419 -0.17940156367626706
-0.37081736508121443 -0.05829642332967183 -0.17399672602880906
-0.37069231913665135 -0.064712118672232 -0.16891065605666666
-0.3697165540918156 -0.07101214258767055 -0.16425041637260152
-0.3676967488426315 -0.07720408936727235 -0.1600894932826787
-0.36457259244794143 -0.08330196495667791 -0.15643186806635667
-0.3604381441627518 -0.08931029847333838 -0.15319321101010924
-0.3555326379805554 -0.09522206117527299 -0.15020597310633949
-0.35020621829802695 -0.10102521473186571 -0.14724589787635015
-0.3448660429578164 -0.10671437283009677 -0.1440745895982387
-0.33990972330989233 -0.11230319328461902 -0.1404911271962598
-0.3356568263681876 -0.11783321805653635 -0.13638031170449544
-0.3322929675716596 -0.12337418827540819 -0.13174367791180935
-0.32983701709418006 -0.12901187932357666 -0.12670563219294267
-0.3281359525225284 -0.13482565090135823 -0.12149289803677925
-0.3268900236623135 -0.14086202555978794 -0.11639020181820633
-0.3257073559690821 -0.14710582936836109 -0.11167905985655735
-0.32417544233731366 -0.1534600915826574 -0.10757547695439627
-0.32192979176117775 -0.15974850402604512 -0.10418481706609861
-0.31870768776056246 -0.16573406711463695 -0.10148169023667805
-0.31437917436856144 -0.17115499486638075 -0.09931819266584166
-0.3089510496014206 -0.17577561383583334 -0.0974591646398968
-0.30254507767318395 -0.17943553357650543 -0.0956354035256735
-0.2953595444398187 -0.18208082968663591 -0.09359909570208425
-0.2876259937390645 -0.18377646585297963 -0.09116900286542212
-0.2795673282512117 -0.18469711358337243 -0.08826036641417434
-0.2713643670643916 -0.18509038020500396 -0.0848952365916981
-0.26313771158919586 -0.18522035247908186 -0.0811911407950517
-0.25494547681146545 -0.18531553804585577 -0.07733420479628626
-0.24679357583606892 -0.18552246175635173 -0.0735442949425756
-0.23865471586693213 -0.1858757214929535 -0.07003665466549334
-0.23049155860308468 -0.1862962187295949 -0.06698467971593257
-0.22227908293159315 -0.1866173788042022 -0.06448910980033125
-0.21402130890532797 -0.1866260592616154 -0.06255862670046199
-0.20575890718459994 -0.1861175478480417 -0.06110369587487606
-0.1975679886365529 -0.18494837697204508 -0.05994360483839083
-0.18954940555412417 -0.18307624366054442 -0.05882774516982729
-0.18181086990100928 -0.18057933505699775 -0.05747161783733194
-0.17444796378588798 -0.17764550211891955 -0.05560133205497168
-0.16751889423757504 -0.17454449689762885 -0.052998268136500645
-0.16103109834749796 -0.17158197801723707 -0.049536305970242236
-0.1549361239666669 -0.16904637322954247 -0.04520569562277406
-0.1491254394965636 -0.16716489294089215 -0.04011595759013396
-0.14344762822190216 -0.166072890409034 -0.034469878762940095
-0.13773142884417772 -0.1658066889491353 -0.028525333284892554
-0.13181489787421707 -0.16631543836444207 -0.02254787521160488
-0.12557569591116566 -0.16748756211498333 -0.01676290194936335
-0.11895535188406067 -0.16918667164504647 -0.011319425240726308
-0.11197333176891322 -0.17128872567225079 -0.006273701700199752
-0.10472483102530189 -0.17370901657793175 -0.001596724858598797
-0.09737283354632797 -0.17641722948970645 0.0028037447736199983
-0.09012888732233712 -0.1794397991304929 0.007051673867942587
-0.08322250388986713 -0.18284960017572943 0.011267257448118573
-0.0768800224502087 -0.1867445400537895 0.015537616594204495
-0.0712949513686561 -0.19121981767077717 0.019899820092068032
-0.06660996339765846 -0.19634723133307064 0.02433671215897454
-0.06290885123100992 -0.20215957792200745 0.02878424128858409
-0.060212226622975706 -0.20863998924825844 0.03314702610041487
-0.05847895541939019 -0.21572703482430022 0.037317449474047526
-0.05762374185839492 -0.22332544777088698 0.04119884926183037
-0.05752929710312926 -0.23131989828178084 0.04471846841696392
-0.05805980277446465 -0.23959025662574301 0.047835620450649985
-0.05907829445971968 -0.24802638971874086 0.05054847947026919
-0.060456612214719596 -0.25653973493951565 0.05289227305117883
-0.062083094229899605 -0.2650622332384686 0.05492881807470518
-0.06387071343875989 -0.27355060978615287 0.05673922953962879
-0.06575064553539178 -0.28197941084292616 0.05841491287632278
-0.22872347610327418 -0.19269181491681675 -0.08639105909468722
-0.23347678097516003 -0.19860803979820024 -0.08493593521819644
-0.23884322831891808 -0.2047052886669571 -0.08477808394364053
-0.2446193068099466 -0.21085048826720085 -0.08551167999092792
-0.25061264784781456 -0.2169175325753622 -0.08677759795418133
-0.2566478497339123 -0.22279307373365334 -0.08829654469188156
-0.26257701588575966 -0.22838144824908474 -0.0898988299778411
-0.2682957241928905 -0.23360805914186658 -0.09153985983449232
-0.2737596195841775 -0.23841738448918834 -0.09329302877709117
-0.27899586027390355 -0.24277044381608598 -0.09531754065310875
-0.284097746580909 -0.24664540161376233 -0.09780783390606843
-0.2891999268249136 -0.2500363420145114 -0.10094125982571012
-0.29443356179839764 -0.2529573660619564 -0.10483894651116606
-0.2998752730989292 -0.25544489109602275 -0.10954858546088007
-0.3055051618086296 -0.25755685046869464 -0.11504619547003044
-0.31118666389432004 -0.25937121625720083 -0.12124695450640843
-0.3166759417590537 -0.26098353561364973 -0.12801896990966072
-0.32165430544904594 -0.2625059917751329 -0.13519613273660613
-0.3257773251414038 -0.26406633408016666 -0.1425909429111607
-0.32872729757640695 -0.26580648749685293 -0.15000851293162706
-0.3302628544262091 -0.26787349830566354 -0.1572643159144978
-0.3302547545228697 -0.2704029515577029 -0.1642031841374747
-0.32870125671933703 -0.2735013824487603 -0.17071505075392807
-0.325718928408978 -0.2772301184878919 -0.17674252318764577
-0.32151234930246914 -0.2815960321601062 -0.1822768159393568
-0.3163302257965329 -0.2865487447790491 -0.1873413275179353
-0.31042254139347353 -0.2919832661910885 -0.19196693408815463
-0.30401188903006393 -0.2977499883027692 -0.1961632063400625
-0.2972865421848371 -0.303671155908863 -0.1998940340912873
-0.29041428021805793 -0.3095632664985077 -0.20306270380628383
-0.28356644702696227 -0.31526116758056755 -0.20551082707037666
-0.2769399356713924 -0.32063902216976115 -0.20703450106528865
-0.27076358844431925 -0.3256204879527381 -0.2074150071377962
-0.2652824447461959 -0.33018428953153467 -0.20645972070447838
-0.2607238485404625 -0.334355377177631 -0.2040460048153142
-0.25725631044931513 -0.338199615474107 -0.20015736715885252
-0.2549576599883345 -0.34180893729376394 -0.19490062496938243
-0.253801085982798 -0.3452961234978506 -0.18850285339239903
-0.2536632975059132 -0.34878811719139025 -0.18128603022346484
-0.25435386320919506 -0.3524133435586715 -0.17362206057272567
-0.2556525917797999 -0.3562901104790847 -0.1658814897061069
[...]
CELL_DATA 79
SCALARS source float 1
LOOKUP_TABLE default
-1.0
-1.0
-1.0
-1.0
-1.0
3.0
-1.0
-1.0
-1.0
4.0
-1.0
-1.0
-1.0
-1.0
-1.0
-1.0
-1.0
-1.0
5.0
-1.0
-1.0
-1.0
-1.0
-1.0
-1.0
-1.0
-1.0
-1.0
-1.0
-1.0
-1.0
-1.0
-1.0
-1.0
-1.0
6.0
-1.0
-1.0
-1.0
-1.0
-1.0
-1.0
-1.0
-1.0
-1.0
-1.0
-1.0
-1.0
-1.0
-1.0
-1.0
-1.0
-1.0
-1.0
-1.0
-1.0
-1.0
-1.0
-1.0
-1.0
-1.0
-1.0
-1.0
-1.0
-1.0
-1.0
-1.0
-1.0
-1.0
-1.0
-1.0
-1.0
-1.0
7.0
-1.0
-1.0
-1.0
-1.0
-1.0
