# vtk DataFile Version 3.0
tangent_project_data
ASCII
DATASET POLYDATA
POINTS 9401 float
-0.22788510680414148 -0.11873285711263815 0.1028154467369927
-0.23105416995578662 -0.12173211123181868 0.09505476216469969
-0.2348498676909746 -0.12552491450750922 0.08831934453211693
-0.23894181043537643 -0.13006901719630007 0.08252401399183856
-0.24301591364633446 -0.13531664381704062 0.07757444483623127
-0.2467933927173125 -0.14121154905216976 0.07336438837363862
-0.25005799667887263 -0.14768722185263322 0.06977705640462933
-0.25268510607109695 -0.15466668994329874 0.0666917920954459
-0.25466509130878706 -0.16206257062729457 0.06399347541240355
-0.25611419984016237 -0.16977728900213318 0.061581595503667014
-0.25726608336053713 -0.1777032690504029 0.05937656932015345
-0.25843614849342683 -0.18571912771825017 0.05731851734563739
-0.259968039409065 -0.19368542496649355 0.055361163894826704
-0.26217761439578313 -0.20144015877885113 0.053465731050207715
-0.2653047593912574 -0.20879639012292533 0.05159880497518385
-0.2694810260773548 -0.21554491311391977 0.04973737890712204
-0.2747219299179627 -0.22146357441958525 0.04787892527508386
-0.2809405651350375 -0.22633537198680065 0.046050046797211946
-0.2879719229873655 -0.2299711650916208 0.04430736887987374
-0.295602987518268 -0.2322335671858155 0.04272813729834882
-0.3036043292661089 -0.23305882801490319 0.041390588552350116
-0.31175788099248875 -0.23246888599016768 0.0403474969450654
-0.31987862730603206 -0.23056814377258084 0.039602300481510117
-0.32782592909713326 -0.22752647396617037 0.03909355122988234
-0.3355059307238396 -0.2235528779618864 0.03869144751272216
-0.3428665267215374 -0.2188647130602745 0.03820813569140502
-0.34988444005014185 -0.21365743453058794 0.037421249331098444
-0.3565494772650473 -0.20808596739577107 0.03610542207927489
-0.3628491028286202 -0.20226058438796385 0.0340648510491921
-0.36875480222026574 -0.19625573709566885 0.03116169783052336
-0.3742108186307068 -0.19012904529805086 0.02733703290412015
-0.37912570719878574 -0.18394592392140668 0.02262284094412989
-0.38336957879680006 -0.1778012310487634 0.017139145988206705
-0.3867761811933 -0.17183043951315646 0.011083699563891769
-0.3891532244754082 -0.16620769075956504 0.004712855783366415
-0.39030331876965496 -0.16112989666103716 -0.0016881970246172828
-0.3900544739106173 -0.15678653276508753 -0.007841485093713824
-0.38829453247691637 -0.15332241428653398 -0.013512259608978616
-0.38500721943508187 -0.1508031469870666 -0.018548026699263503
-0.380296342730326 -0.1491938976631994 -0.022906222536057036
-0.3743911198623023 -0.14835892809943385 -0.026663944723735983
-0.36763436774120006 -0.14808515749512136 -0.030014446797971217
-0.36044389692271855 -0.14812825348818978 -0.03323366306064582
-0.35325871544429355 -0.14826706351527513 -0.03663248137152594
-0.34648188440112426 -0.14834835607394337 -0.040505668211621715
-0.3404277967949735 -0.1483116496200249 -0.045084533061357485
-0.33528350871261214 -0.14818980077463276 -0.050505367767089276
-0.3310922965284445 -0.14808309998322383 -0.05679444729069619
-0.32776992393688165 -0.14811522300500218 -0.06387811077727668
-0.32514553084082326 -0.14838336351844056 -0.07160718031700558
-0.3230150714534588 -0.14891308631789157 -0.07978502502501472
-0.32119919198742936 -0.14962787949467504 -0.08820018552229558
-0.31958903063114963 -0.15034310655072394 -0.0966571877628736
-0.31816185118418433 -0.15079015096913395 -0.10499491574412756
-0.3169650330541639 -0.15066510502457087 -0.11309410587979737
-0.31607915905775835 -0.1496893399797351 -0.12088020647704925
-0.31557166734849285 -0.147669534730551 -0.12832305123202709
-0.3154530087883382 -0.14454537833586095 -0.13543277900973028
-0.3156524162618124 -0.14041093005067132 -0.1422554769976915
-0.3160212737009674 -0.13550542386847492 -0.14886883263059705
-0.3163593501329799 -0.1301790041859465 -0.155374548647663
-0.31645749565001907 -0.12483882884573594 -0.16188715822593283
-0.31614853640366003 -0.11988250919781183 -0.16851894991772862
-0.31535347814348014 -0.1156296122561071 -0.17536349959964845
-0.3141085206004045 -0.11226575345957916 -0.18248043746714757
-0.31256429054652274 -0.10980980298209958 -0.18988184399298288
-0.3109568161330012 -0.10810873841044796 -0.19752308494922335
-0.30955593890913713 -0.10686280955023306 -0.20530208685947057
-0.30859787219380075 -0.10568014185700164 -0.2130649505547654
-0.30822119626114197 -0.10414822822523322 -0.22061969450573418
-0.3084290048839772 -0.10190257764909727 -0.2277609493753309
-0.3090808099243436 -0.09868047364848198 -0.2342961624807162
-0.3099176299428452 -0.09435196025648099 -0.24007257241122457
-0.310617973930756 -0.08892383548934016 -0.24500365983295122
-0.3108685103457405 -0.08251786356110348 -0.24908512386129703
-0.3104276640956524 -0.07533233032773826 -0.25239417140499676
-0.30917096004872036 -0.06759877962698399 -0.2550776818189572
-0.3071123308567627 -0.05954011413913123 -0.2573293043670377
-0.30439467625428146 -0.05133715295231113 -0.25935244816306924
-0.30125182133337347 -0.0431104974771154 -0.2613170553525316
-0.29795920956105887 -0.034918262699384986 -0.2633279564708141
-0.2947805132049404 -0.026766361723988455 -0.26540211258760427
-0.29191943748595056 -0.018627501754851644 -0.2674618646321767
-0.2894865982662379 -0.01046434449100421 -0.2693520133961097
-0.2874859513597106 -0.00225186881951267 -0.2708779311372016
-0.2858184441823539 0.006005905206752496 -0.2718506901837725
-0.28430418141986064 0.014268306927480531 -0.2721377717942963
-0.28271492767356343 0.022459225475527575 -0.2717052856325609
-0.2808124981977786 0.0304778085579563 -0.27064190045981207
-0.27838960317529793 0.03821634421107119 -0.26915757784446037
-0.27530297170639795 0.04557925032619249 -0.2675519468808053
-0.271498149614682 0.052508319874505424 -0.2661679295411349
-0.26701874299156575 0.05899611576458251 -0.26533329401465366
-0.26200052202291924 0.06509109014541357 -0.2653027010282869
-0.2566519394437199 0.07090177461551687 -0.266218160317916
-0.2512162904816715 0.07657958589017831 -0.26809549779792685
-0.2459350623537811 0.08229578526790275 -0.27083723331015386
-0.24101280651991094 0.0882123162378634 -0.27426655226461394
-0.23658893458986666 0.09445151820091481 -0.27817412784008244
-0.23272430024030966 0.1010718622280198 -0.28236733821124793
-0.22940560248734262 0.10805388234316725 -0.28671063216919745
-0.22656536718244524 0.11530238308677858 -0.2911451539988662
-0.22410855514824912 0.1226543805657525 -0.2956907699954294
-0.22194102545948394 0.12989832678974333 -0.3004323566362195
-0.21999512350989325 0.13680471022221335 -0.30549312275333296
-0.21824435394512964 0.1431471916618718 -0.3110014192069891
-0.21670421370799636 0.14873226274342438 -0.31705822506122006
-0.2154254592953524 0.15341725071442203 -0.32371714158193077
-0.21447995937950762 0.15711836288107056 -0.33097454594835474
-0.21394188256434274 0.15981498748910478 -0.3387681391897759
-0.21387371276626138 0.1615482586926903 -0.34699091238322244
-0.21431152842109125 0.16240347225368557 -0.35551203091730255
-0.2152606740765462 0.16249791700895122 -0.3641952377266009
-0.21669632039989684 0.16196741133761583 -0.37291615416771584
-0.2185649821185198 0.1609489196523608 -0.3815784892457682
-0.22079186994661254 0.1595706018973609 -0.3901231592686009
-0.22328941936976449 0.15794411988218088 -0.3985221318109669
-0.22596574532368008 0.1561565006733206 -0.40677848727061133
-0.22872896151379146 0.1542765685766887 -0.4149158847775691
-0.10114768273297686 -0.4859113441542818 0.20051230738276626
-0.1028456209309743 -0.49066464902616763 0.1946611444027412
-0.10575754215156756 -0.49603109636992565 0.18930184635192387
-0.10946545476475615 -0.5018071748609542 0.18434674541043053
-0.11359529403412134 -0.5078005158988221 0.1797254898953037
-0.11784851107511082 -0.51383571778492 0.17539659536009264
-0.12203031809457748 -0.5197648839367672 0.17135806370684728
-0.1260647970851971 -0.5254835922438981 0.16765220082632734
-0.12998774860027448 -0.5309474876351851 0.1643637873717817
-0.13391755697861782 -0.5361837283249111 0.16160618334851637
-0.13801169309739209 -0.5412856146319166 0.15949551808361587
-0.14242078974505293 -0.5463877948759212 0.158125590513669
-0.14725679745437262 -0.5516214298494052 0.15754475282624442
-0.15257922694451082 -0.5570631411499368 0.1577453124290502
-0.15839627655887056 -0.5626930298596372 0.1586651069651309
-0.1646734743013729 -0.5683745319453276 0.16019419961871614
-0.1713443713536334 -0.5738638098100614 0.16218389779864417
-0.17832120476960703 -0.5788421735000535 0.16445399350012427
-0.18550546938945184 -0.5829651931924114 0.16680010251264277
-0.19279935016986866 -0.5859151656274145 0.16900187045754334
-0.20011656528229493 -0.5874507224772167 0.1708396880786517
-0.20739052806292516 -0.5874426225738772 0.1721185514161889
-0.2145791854243583 -0.5858891247703446 0.1726911648608894
-0.22166349769213406 -0.5829067964599856 0.17247572094385372
-0.22863929264320304 -0.5787002173534768 0.17146187516884182
-0.2355016446374839 -0.5735180938475405 0.16970495601248275
-0.24222479814122577 -0.5676104094444812 0.16731132569735588
-0.24874223756841407 -0.5611997570810715 0.16441533397802885
-0.25493381298116563 -0.5544744102358447 0.16115286628669856
-0.26062401674537733 -0.5476021482690655 0.1576344836916572
-0.2655931042247073 -0.5407543150779699 0.15392401823838897
-0.26960157190598366 -0.5341278037224 0.15002849654374453
-0.27242183272255793 -0.5279514564953268 0.14590467366385737
-0.27387643119281235 -0.5224703127972035 0.14147466234212905
-0.2738716357383261 -0.5179117165914701 0.13665553653461618
-0.27242609588995553 -0.5144441785003226 0.13138200968343608
-0.2696782845225575 -0.5121455280393421 0.12562787420244467
-0.2658812449113232 -0.5109889540338056 0.11940899657348725
-0.26137728955917594 -0.5108511655569208 0.11277642974055976
-0.2565527103314434 -0.5115417312602026 0.1058049067866555
-0.25178756278136444 -0.5128404598308075 0.09857724271571708
-0.2474025675375286 -0.5145324674577396 0.09117789190109454
[...]
CELL_DATA 79
SCALARS source float 1
LOOKUP_TABLE default
-1.0
-1.0
-1.0
-1.0
-1.0
1.0
-1.0
-1.0
2.0
-1.0
-1.0
-1.0
-1.0
-1.0
-1.0
-1.0
-1.0
-1.0
-1.0
3.0
-1.0
-1.0
-1.0
-1.0
-1.0
-1.0
-1.0
-1.0
-1.0
-1.0
-1.0
-1.0
4.0
-1.0
-1.0
-1.0
-1.0
-1.0
-1.0
-1.0
-1.0
-1.0
-1.0
-1.0
-1.0
-1.0
-1.0
-1.0
-1.0
-1.0
-1.0
-1.0
-1.0
-1.0
-1.0
-1.0
-1.0
-1.0
-1.0
-1.0
-1.0
-1.0
-1.0
-1.0
-1.0
-1.0
-1.0
-1.0
-1.0
-1.0
-1.0
-1.0
-1.0
-1.0
-1.0
-1.0
-1.0
-1.0
-1.0
