# vtk DataFile Version 2.0
Vessel Segment
ASCII
DATASET POLYDATA
POINTS 119 float
-0.0034270321332566913 -0.0053289828406189324 0.0004371124184375356
-0.007493924274870894 -0.011063137152635925 0.0014998592965309726
-0.012043344025124865 -0.016975063549235673 0.0030549910010487834
-0.016903199899688026 -0.02286274685777334 0.0048887369854027675
-0.021926099251338777 -0.028584055930753798 0.006781871123328183
-0.02699664775783634 -0.03406304172195357 0.008531178760627171
-0.03201300072197388 -0.039260789670719255 0.009939580226828768
-0.03687074557070533 -0.04415182055466408 0.010820937225818443
-0.04146494184056646 -0.04872024923105288 0.011024738654138467
-0.04571475952303296 -0.052979240925219724 0.010462542004921964
-0.04958045363871533 -0.05698939928889076 0.009095294072931005
-0.05304486680675541 -0.06084362567396334 0.00690231156216559
-0.05607980070323539 -0.06463667373159211 0.003876898893051908
-0.05862740472962632 -0.06844774364410379 6.810995653104904e-05
-0.06061730925025192 -0.0723423514993447 -0.004392649082419264
-0.062015853137239424 -0.07637209404240335 -0.009306911641262546
-0.06282745806528882 -0.0805778528360302 -0.01450235505961252
-0.0630568271847037 -0.08496571302509702 -0.019850122836665644
-0.06270793834154158 -0.089509708006311 -0.025253386715254497
-0.06179525471015964 -0.09416971705313262 -0.030629706055983075
-0.06034987066931077 -0.09890896869231744 -0.03591566558340499
-0.0584210010330375 -0.10368888175260974 -0.04105084249870331
-0.05608730453050648 -0.10846443815677101 -0.04595356237469306
-0.0534624669696452 -0.11317838078798052 -0.050505701671720325
-0.050694223807379035 -0.11774745654477356 -0.05455352297883223
-0.047949886457809864 -0.12205919963305742 -0.05794420310026601
-0.045380974370329404 -0.12601367912516787 -0.060582846722079024
-0.04310147015660436 -0.12956392671936018 -0.062437041386278896
-0.041181573924610214 -0.13268175391164136 -0.06350929771659142
-0.03965367148641334 -0.13532439633323054 -0.06384261668079047
-0.03849305234110163 -0.13749324837154064 -0.06353703863845635
-0.03762197907911263 -0.13926737150642607 -0.06269679324572322
-0.036962466496942896 -0.1407613684075646 -0.06132395484308486
-0.03648121367690109 -0.14201627794870322 -0.05934090947598038
-0.036175838171229255 -0.1430060531084389 -0.056687587624874115
-0.03605290095491282 -0.14368569950304846 -0.05334240615226893
-0.03612612211557016 -0.1440127609990778 -0.0493188444166206
-0.03641221852530153 -0.14395812528267 -0.04467331281757639
-0.03691984139378292 -0.14352178777633245 -0.03951640452300302
-0.03763748295294444 -0.14274945423897048 -0.034013122756597874
-0.038517064563720636 -0.1417460134564736 -0.02836344044099417
-0.039489241931324116 -0.14065434547720787 -0.022723020102500446
-0.04048915460675224 -0.13961328111047794 -0.017187953232128433
-0.04146003718721941 -0.13873974955019872 -0.01180980920620479
-0.0423538144881584 -0.13812587960098188 -0.006598661915705596
-0.043131976224114556 -0.13784338015120215 -0.0015273636066343048
-0.043763823359444766 -0.1379570280769352 0.003449210739589272
-0.04422490646060604 -0.13853441649619752 0.008365571683047369
-0.04450138009608731 -0.1396389034373952 0.01322125193338727
-0.044592480164402 -0.14131356343212478 0.017984763734564344
-0.04450632873882135 -0.1435730651262932 0.022614415818975088
-0.04425755866668349 -0.14641448303353444 0.027080243126075213
-0.04386424911035372 -0.14983133709979207 0.03136419009948292
-0.04334588240435896 -0.1538113874467514 0.035453060415313334
-0.04272114112142395 -0.15833234633919485 0.03934047909127084
-0.04200397590012613 -0.16336100745317872 0.04302954589557808
-0.04120054952072042 -0.1688536463557756 0.04652966592889153
-0.040309950396844714 -0.1747548633761363 0.04985249428853336
-0.03932694041221924 -0.18099608767633837 0.05300576003323506
-0.038246229020176686 -0.18749200599951826 0.055988293615177216
-0.03706415754797222 -0.19414438830016026 0.05879707253312328
-0.03576898063150767 -0.20085628696403177 0.061440048165810376
-0.0343359341188693 -0.20753753647715784 0.06393178820520692
-0.03273131543835305 -0.21410165237010212 0.06629259635266095
-0.030918788457841774 -0.22047468752546062 0.06855140674038707
-0.028868691164077403 -0.22660074227080573 0.07074267677653065
-0.026563256389516534 -0.23243986665504732 0.07290096472808762
-0.023996803916531025 -0.23796640772213906 0.07505871602413201
-0.021171967709297752 -0.24316997907968796 0.07724653798010253
-0.01809259913748453 -0.24805424207752402 0.07949444933017863
-0.014759347897249402 -0.25262817692143225 0.08183118393988519
-0.0111699415495349 -0.25689796225822686 0.08428486009677269
-0.007321304709430706 -0.26086301157290254 0.08688248818197898
-0.0032132258854138795 -0.26451322214988565 0.08964796667018281
0.0011472124347855616 -0.2678311958863244 0.09259826624921341
0.005744268333659952 -0.27080078242385375 0.09574062241701162
0.010559931778145364 -0.27341397144918345 0.09907492114403213
0.015580500032237987 -0.27567055510027044 0.10259518615281184
0.020798880488384526 -0.2775763392462621 0.10628700261883545
0.026215835180049198 -0.2791431541382142 0.11012657116465119
0.03184013235440597 -0.28038895896984883 0.11408510899614421
0.03768312990872166 -0.281333005785795 0.11813587721000934
0.04375033535412876 -0.28199156408132725 0.1222565749695024
0.050032960911861296 -0.28237744177867186 0.12643078613772948
0.056502371978625385 -0.28250373879851326 0.13065011832693468
0.06310850781085243 -0.2823890451155496 0.13491228745536674
0.06978454804841773 -0.2820644389423067 0.13921883066197915
0.07645643415792851 -0.28157582525494407 0.1435690899277966
0.08305265149608422 -0.2809823738452844 0.1479560437654844
0.08951208207119335 -0.28034966941095785 0.15236581310283037
0.09578895667858475 -0.2797442072645319 0.15677828117414666
0.10185330004011009 -0.27922769642156764 0.16117051628494825
0.10768795733076089 -0.27885406995014944 0.1655195750314227
0.11328478010925104 -0.27866769692586013 0.16980348425480415
0.11864185126802976 -0.2787019123461439 0.17400609234092843
0.12376051942333385 -0.2789814051401368 0.17811852371758113
0.12864174459897432 -0.27952582249030833 0.18213987900642872
0.1332828580701023 -0.2803525215840149 0.18607511560501583
0.1376762034284233 -0.28147766741090463 0.18993368346398756
0.1418088692271903 -0.2829152979276238 0.19372909919497597
0.14566183176588052 -0.28467600848584695 0.19747708550920107
0.1492071483934912 -0.2867641775979271 0.2011905633978129
0.15240977650588364 -0.28917353064607887 0.2048712200723213
0.15523846489215948 -0.2918847152835476 0.20850715544627782
0.1576815782735924 -0.2948729459457058 0.21208028314717894
0.1597485399459816 -0.2981208720170256 0.21557888315268117
0.16145873767728053 -0.3016232808649218 0.21900105250583699
0.162831253911928 -0.3053833087698769 0.22235117524463854
0.16388156449723648 -0.3094032530116135 0.22563562357623
0.16462430411492526 -0.3136756148354476 0.22886075207473316
0.16507992148916603 -0.31817755928940983 0.23203099961121404
0.16527948902097458 -0.322872713729779 0.23515210511569293
0.16526386249918784 -0.32772183404985666 0.23823405722225674
0.16507899011923613 -0.3326916160973952 0.24129327456345917
0.16477310143362692 -0.3377547365936508 0.2443524411934442
0.16439989839373767 -0.34287129384064274 0.24743297830605884
0.164019444955368 -0.34795445039718875 0.25053513459511956
0.16369288842088883 -0.35285031616338286 0.2536101125460737
0.16346947147336907 -0.3573787706577326 0.2565614649941725
LINES 1 120
119 0 1 2 3 4 5 6 7 8 9 10 11 12 13 14 15 16 17 18 19 20 21 22 23 24 25 26 27 28 29 30 31 32 33 34 35 36 37 38 39 40 41 42 43 44 45 46 47 48 49 50 51 52 53 54 55 56 57 58 59 60 61 62 63 64 65 66 67 68 69 70 71 72 73 74 75 76 77 78 79 80 81 82 83 84 85 86 87 88 89 90 91 92 93 94 95 96 97 98 99 100 101 102 103 104 105 106 107 108 109 110 111 112 113 114 115 116 117 118
POINT_DATA 119
SCALARS Curvature float
LOOKUP_TABLE default
-0.007951500662061442
-0.007481611829348624
0.002624105892019751
0.023042608772495664
0.053258166211140254
0.09147493515042984
0.1346992293684201
0.17899481289506217
0.2198907671759515
0.25289915893689113
0.27408199063804517
0.28059636636017865
0.2711451982263761
0.24626872136013633
0.20842893536748555
0.16186299891293443
0.11220972761951573
0.06594219303961095
0.029665294226214854
0.009356648242716892
0.009639522438758433
0.03317620420348009
0.08025889486160373
0.14865403690615772
0.2337273288628316
0.3288439369106439
0.4260055461100922
0.5166569628814739
0.5925736145614654
0.6467302312594612
0.6740517329642409
0.6719599264594553
0.6406526214423482
0.5830824837621099
0.5046376703283172
0.41256083999715804
0.3151733257060345
0.22099343828634677
0.13784939428426474
0.07208688036242664
0.027958928613544962
0.00726318030188404
0.009261608402979814
0.03088408374578332
0.06718394752576796
0.1119850249123804
0.15863869680966552
0.20079912221554921
0.23312553711363324
0.25183238159585014
0.25502909821978437
0.24281895580597176
0.217156600163091
0.1814933632298571
0.1402640468124577
0.09828599068057156
0.060148834179232426
0.02967084432305129
0.009485683368375844
0.0008038904531164065
0.003368941867796417
0.01560185512241631
0.03490432367559458
0.058071362286009315
0.0817527070337183
0.10289901587261857
0.1191343502899672
0.12900943015937535
0.13210870804308325
0.12900569375118295
0.12108216819776663
0.11024507059786824
0.09858754595272698
0.08804634002848215
0.08010587623152987
0.07559045220775633
0.07457152593985694
0.07639922994856888
0.07984867867249161
0.08335497720572262
0.0852984244138807
0.08429490250730919
0.0794466562922289
0.07051541588415808
0.05799200511752701
0.0430523452985905
0.02740676963180507
0.013065324966319824
0.0020539854651341533
-0.0038762967958416022
-0.0035049839932089623
0.0036754711896764785
0.017376258288783683
0.036539802044993124
0.059473811921330916
0.08407179954428576
0.10808761957517453
0.12942397125358587
0.14639311528524634
0.15791254350519793
0.16360831506245024
0.1638127662869429
0.15945924357013316
0.15189203806465215
0.142622505587076
0.133070509040252
0.12433256842496496
0.11701404914830472
0.11115289364919403
0.10624819601979965
0.10139039604367427
0.09547346973930103
0.08745569102742662
0.07662647843625452
0.06283402040921644
0.04663241349171653
0.02931758171528678
0.012836944946704364
-0.00042345367761590676
