# vtk DataFile Version 2.0
Vessel Segment
ASCII
DATASET POLYDATA
POINTS 119 float
-0.003941507667727041 -0.005535662536635558 0.0005622812439484635
-0.008459959049005025 -0.011325294613478004 0.002185129595913964
-0.013439991077433846 -0.017201561079559113 0.004722061330469498
-0.018765844553291895 -0.023027475231721814 0.007893125069004275
-0.024334150442316106 -0.02870394801557837 0.011386013687881204
-0.03005112466625255 -0.03417653144058433 0.014896526158509452
-0.03581272326703713 -0.03941092652077126 0.018123182434433366
-0.04149028675041818 -0.04437408952099138 0.0207749361793676
-0.046933275998110265 -0.04903197641138734 0.0226020231090479
-0.051999623689162854 -0.05337139844038834 0.02343904263484568
-0.0565869069062163 -0.05742043754921684 0.02321825536530099
-0.06064934420757675 -0.06125630841183108 0.02194824689061377
-0.06417736258794945 -0.06499262776474005 0.01965925533189289
-0.0671403223354896 -0.06874622707018939 0.016413993655954917
-0.06947402223828665 -0.07262449336512293 0.012366990413608978
-0.07116210701908507 -0.07672457790538507 0.007781593178485396
-0.07224716665014391 -0.08113862166654136 0.0028911065788905814
-0.07276315608558316 -0.08590317728981156 -0.002144679904498372
-0.07271944054502291 -0.0909767529139429 -0.007212095336467027
-0.0721298046743834 -0.09626304771815276 -0.01220417188981024
-0.07103300987167141 -0.10164657717358211 -0.01703738761339449
-0.06949555729307019 -0.10699895210600635 -0.021643797577885832
-0.06761842004493597 -0.11219061257950583 -0.025950403854862785
-0.0655310556306643 -0.11709915010478048 -0.02986046257386819
-0.06338022316504412 -0.12159970409917287 -0.0332474229343701
-0.06130921578379943 -0.12556687546704837 -0.03599697233274569
-0.05942024173534693 -0.12894437851615964 -0.0380738442344955
-0.05777223250803441 -0.13178672315163575 -0.03950044573830066
-0.05638773943896291 -0.13417311430539544 -0.04030151788921334
-0.055271113030570786 -0.13613738094159078 -0.040503519879972076
-0.054388396730093096 -0.13772890736691296 -0.04016977115020814
-0.05365863137909186 -0.1390548115142625 -0.03935194436741111
-0.05300609450757823 -0.1402284219872619 -0.037965307479968
-0.05241141114594748 -0.14123693244733104 -0.035842205674647985
-0.051897920668695544 -0.14196969699918902 -0.03289708088236329
-0.05148713344474129 -0.1423135570541785 -0.029145819114075284
-0.051199101661277086 -0.14219125696621474 -0.024658177878265464
-0.0510603834194504 -0.1415757746702184 -0.019537184915775125
-0.05110680793388049 -0.14049834723325322 -0.01390502955825365
-0.05137993634376186 -0.13904063074732725 -0.007916506544017552
-0.05188631915567871 -0.13734851863260863 -0.0017954884705752103
-0.052594348209673056 -0.13560503936056395 0.0042684514534543
-0.053463116636516525 -0.13396928498775396 0.010150303671075875
-0.05444278540045376 -0.13255355210142844 0.015778521898542987
-0.05547596216483499 -0.13142412653999316 0.021147802957304278
-0.056504266254661054 -0.13061677002651548 0.02632035093921996
-0.05746893723977776 -0.13016696743909886 0.031385128728972075
-0.058310082446909293 -0.13012684811815345 0.03640575817751171
-0.05897610253210303 -0.1305559372969653 0.041396609183795466
-0.05943184946497851 -0.1315090851964941 0.04633777684594669
-0.0596593114025714 -0.13302388970818804 0.05119254863202727
-0.05965835623800675 -0.13512098197378455 0.05593648875057822
-0.059443166661004194 -0.13781984261553265 0.06056290655844138
-0.05904010788114195 -0.14113607571138306 0.0650693475584776
-0.05848557629541064 -0.14507187338232377 0.06944835018667858
-0.05781939280284457 -0.1496112258532227 0.0736839404057594
-0.05707714239658372 -0.1547233482206869 0.07775047917507116
-0.05628511569136824 -0.16036990960284503 0.08161923875227868
-0.05545794433740552 -0.16650261715123718 0.08526233509485778
-0.05460157081227298 -0.17303922504759403 0.08864789308662567
-0.0537174168758017 -0.1798554367975044 0.09174781481015065
-0.052793086130439315 -0.18680576937397042 0.09455631000752655
-0.0517969965425827 -0.19374170486606218 0.09708515164629629
-0.05068178475924724 -0.20052005868724432 0.09936412291085701
-0.04939372894208428 -0.2070315480295865 0.1014441837294168
-0.04788862733785814 -0.21321225143011652 0.10338685763365785
-0.046141453784128234 -0.21903762861402046 0.10524962619524617
-0.04414755929781158 -0.22451553848362488 0.10708081391135225
-0.041914936758597095 -0.22968607331714846 0.10892188181852609
-0.03944911032178262 -0.23461232469843224 0.11081294927398125
-0.03674432718777908 -0.23935460644689535 0.11279286911016284
-0.033786924941630776 -0.24394477059199496 0.1149005611683109
-0.030564812928776657 -0.24837269184646302 0.11717262083554159
-0.02707755838718382 -0.2525854327845896 0.11963831095383708
-0.02334153885172768 -0.25650481735357217 0.12231475016461552
-0.019384854111855004 -0.26005603323846116 0.12520921319363124
-0.015231487374411632 -0.26318926856172115 0.12832900652638096
-0.01088940707416276 -0.26588166835898 0.13168537177557293
-0.0063492451127594276 -0.2681307562084835 0.1352842837737326
-0.0015870311486890472 -0.2699495734623059 0.1391175594803189
0.003431554056224655 -0.2713622817545972 0.1431610252563777
0.008740918693405432 -0.27239435865821904 0.14737981373113196
0.014363749937635232 -0.2730640734853089 0.15173188714180347
0.02029971013200801 -0.27338050265480146 0.15617332527524028
0.026519881491534725 -0.27334785557528596 0.16067004712398572
0.03296849099962988 -0.27297182865335007 0.16520130997311192
0.03957349770491434 -0.2722705802055502 0.1697614012771417
0.046261509305973635 -0.27127825285663665 0.1743514262839578
0.05297047416203182 -0.2700452686483258 0.17897311893276197
0.05965954490711485 -0.2686298605947549 0.18362525534827703
0.06631600671943688 -0.2670916109880172 0.18830291076464606
0.07295166806620507 -0.26549147306191906 0.19299978798873954
0.07959011677987854 -0.26389477491901314 0.19770892587158592
0.0862464356981519 -0.2623742891725437 0.20241934114314747
0.09291128124381946 -0.26100259779221685 0.20711761836439113
0.09955010218753484 -0.2598455537022697 0.21179049494019228
0.10610900985502313 -0.2589575891580886 0.2164310206344244
0.11251872748756421 -0.25838240258646755 0.22103787671868985
0.11870200472379513 -0.2581530915393274 0.22561578026170884
0.12458098680363759 -0.2582920120724369 0.23017482816797907
0.13007920697331485 -0.258813494763751 0.23472571991000798
0.13511625262259544 -0.2597220931394406 0.23926734740908384
0.13961150492135935 -0.2610048011142908 0.24377159178020327
0.14350693019446994 -0.2626248553042079 0.24818542337828908
0.14679561684705908 -0.2645337214967009 0.25245408933018526
0.1495177491681559 -0.26669397076586965 0.25655019022080783
0.15173212002543093 -0.26908904775238734 0.2604799668732371
0.15349262442428066 -0.27171949146981356 0.2642747261309058
0.15483920025884038 -0.274591195370202 0.2679787886512043
0.15580087851643057 -0.27770511891583577 0.27164103084514135
0.1564062296610682 -0.2810497610172803 0.27530652285509494
0.15669290230149477 -0.2846014473856793 0.279013987385468
0.1567093215113501 -0.2883371371331154 0.2827949698207742
0.15650925143817382 -0.2922457567622613 0.28667421503747437
0.1561470183583937 -0.29633184834835796 0.29067121725855727
0.15568153708345128 -0.3005981536512537 0.29479555029366167
0.15518383831920898 -0.3050063197730796 0.2990270682062573
0.15473934425184105 -0.30943267949960046 0.30328325399812284
0.15443240152512108 -0.31366978846689497 0.3074078283821573
LINES 1 120
119 0 1 2 3 4 5 6 7 8 9 10 11 12 13 14 15 16 17 18 19 20 21 22 23 24 25 26 27 28 29 30 31 32 33 34 35 36 37 38 39 40 41 42 43 44 45 46 47 48 49 50 51 52 53 54 55 56 57 58 59 60 61 62 63 64 65 66 67 68 69 70 71 72 73 74 75 76 77 78 79 80 81 82 83 84 85 86 87 88 89 90 91 92 93 94 95 96 97 98 99 100 101 102 103 104 105 106 107 108 109 110 111 112 113 114 115 116 117 118
POINT_DATA 119
SCALARS Curvature float
LOOKUP_TABLE default
-0.025866867493988806
-0.024240894749365843
-0.009961849819454732
0.017097263575144777
0.05560665230057049
0.10278880546980664
0.1546171815099326
0.2061938986038317
0.25227117728919185
0.28785993928671394
0.3088539307317033
0.31259130123000156
0.29827896854944
0.26721831543980884
0.2227924932396258
0.17020338271980423
0.11597675414482565
0.06728358610110291
0.031150078560495707
0.013645371980824519
0.019142044740803377
0.049739049983739424
0.1049202365392781
0.1814957478075959
0.27384138370585054
0.3744162698897589
0.4745061113355624
0.5651119758455951
0.63788636323126
0.6860115844105763
0.7049211287663886
0.6927821495140458
0.6506844055728547
0.5825147202208667
0.49453220267642606
0.3946937767578826
0.2918078560954637
0.19461293019083614
0.11088517420080404
0.04667419176301243
0.005749385418789013
-0.01068662301036694
-0.003993343493394885
0.022193220345192083
0.06248456995743078
0.11043296412710035
0.15930733195084829
0.20285867059196344
0.2359865905903893
0.255234022105684
0.2590607616657244
0.24787534248431037
0.22383491548476667
0.19045062444219304
0.15205795310395717
0.11322515765753101
0.07817675989126167
0.05030304394302602
0.03181172559855917
0.02355668957378788
0.02505392555562521
0.034669898314470225
0.04994582259100482
0.06800541646852032
0.08598554344167757
0.1014294966861044
0.11259113929133317
0.11861322511986977
0.11956267246506044
0.11632652214112409
0.1103918453770476
0.10354832731207568
0.09756163531963293
0.09386788551003679
0.09333447264071003
0.09612116835027196
0.1016595175308535
0.10875055667585164
0.11576336510454598
0.12090243108671689
0.12250228105715723
0.11930453874345466
0.11067589297006826
0.09673475097872412
0.07836818578464737
0.05713707392817818
0.03508366738465485
0.014469881546800432
-0.0025156922492410878
-0.014039979451692275
-0.018856870203946916
-0.016455889407252684
-0.007108546814013802
0.008191987652205726
0.027886609773930784
0.05007636880875561
0.07278399166361628
0.09421134858441992
0.11295476179885247
0.128147186848768
0.1395080735537232
0.14729636404014007
0.15217739885755246
0.155028156692046
0.15671515552445053
0.1578839400863072
0.15879759417098815
0.15925426933381373
0.15860133293494386
0.15584818983232082
0.149863419985764
0.13962708435887733
0.12449819830097754
0.10445225565974242
0.0802453184767959
0.05346961674220426
0.026479884892070645
0.002187960250038353
-0.016257009044773518
