# vtk DataFile Version 2.0
Vessel Segment
ASCII
DATASET POLYDATA
POINTS 119 float
-0.0026466178974212263 -0.00501785432190333 0.0002470027814197219
-0.0060573801629409205 -0.010738640795479776 0.0004447548801045528
-0.010071302961298005 -0.016899344477127588 0.0004923071710939782
-0.014453715550603442 -0.023200297517355067 0.00030686077413067623
-0.01898514440216053 -0.029407079955009165 -0.0001731493796425226
-0.023500468290906674 -0.03538217093060546 -0.0010071415198055905
-0.027879190584599475 -0.04105865691807037 -0.0022702702918887476
-0.032023500441525576 -0.04640577771108183 -0.004046540076322919
-0.03584959664141475 -0.0514097032352509 -0.006396950706558729
-0.039301102845735715 -0.05607802739161976 -0.009323917609269122
-0.04236973276702484 -0.060469011278075274 -0.012794534619401755
-0.04506570791126377 -0.06467232902505177 -0.016793179192358412
-0.047369854410389337 -0.0687574618118888 -0.021289564626771812
-0.04924396760556845 -0.07277154113757477 -0.02620373518055492
-0.05065691806053953 -0.07674646286166538 -0.031449748222318885
-0.051567665837131856 -0.08069002886456188 -0.0369750323824576
-0.051921809943511324 -0.08458308445303156 -0.042741403350091974
-0.05167262064112449 -0.08840251306308318 -0.048692974386213526
-0.050806841938486676 -0.09215801539119348 -0.05477083181780902
-0.04932869118642072 -0.09589558584353133 -0.06093573604775882
-0.04724747543051824 -0.09968898869767864 -0.06715298916354441
-0.04458003954235788 -0.10362467248398384 -0.07336441853392313
-0.04136870326041869 -0.10778307709863774 -0.07946216596897993
-0.03770171285194099 -0.11221801494567317 -0.08528387476970334
-0.033726385519988994 -0.116936176881236 -0.09062757746959858
-0.029650001129122857 -0.1218812664775294 -0.09527368190481737
-0.025719412154765024 -0.12691556753730354 -0.09901534922204333
-0.022163131324814248 -0.13182897730973417 -0.10171279842968402
-0.019157735502862816 -0.13638578035826307 -0.10332599825054317
-0.016800245034319296 -0.140384341437948 -0.1039398935652015
-0.015084730257031265 -0.1437280210022257 -0.10372911538620716
-0.013935164211455608 -0.14642562256632688 -0.10287316926446792
-0.013252023020742167 -0.14856565393459464 -0.10150623484341154
-0.012946363354693229 -0.15028359277918674 -0.09969073499768603
-0.0129550540459841 -0.15170901101793535 -0.09739997876416193
-0.013262441923393138 -0.15291902355089118 -0.09455251416669869
-0.013882541796763142 -0.15393522059545092 -0.09107664264310661
-0.014826147683974075 -0.15473101754248092 -0.08696462073243016
-0.016059322207086252 -0.1552574797349259 -0.08232778357750034
-0.017479538337173747 -0.1555029940834202 -0.07737250802178601
-0.018950623296897357 -0.15551850739743606 -0.07228310971256402
-0.020344847269573682 -0.1553969842250927 -0.0671723310095928
-0.02156122732666152 -0.15525310770524947 -0.06208583671789207
-0.02253181919418777 -0.15521320687927528 -0.05702344276026752
-0.023219067624516882 -0.15540991814776772 -0.05197367499659279
-0.023610043460486084 -0.15597397756892833 -0.04693879490615116
-0.02371287644859208 -0.15702567159260877 -0.04192986768362832
-0.023552915191344597 -0.1586738557937829 -0.03696091687828733
-0.023171577849453315 -0.1610055149473927 -0.03207307577357127
-0.02262540509550382 -0.16404879393615127 -0.027346110485568138
-0.021973481218554542 -0.16776689002178022 -0.022859743038044444
-0.0212654684109323 -0.17209381195516638 -0.01866881004539587
-0.020534086295381046 -0.17695505793070618 -0.014810207690475394
-0.019789878999700614 -0.18227434501757442 -0.011304985230590507
-0.019020201214148564 -0.18797952272788856 -0.008146291508671709
-0.018193565515978997 -0.19400366420678583 -0.005292180501294057
-0.01726672601299582 -0.2002758103673802 -0.002672489266917287
-0.016195283822525067 -0.20670729107368052 -0.0002066330241729539
-0.014944020297619305 -0.21319926634668318 0.0021753151862980076
-0.013491056190206513 -0.21967598905224386 0.004524650687356441
-0.011822640214265339 -0.22610076555445857 0.006879772424431201
-0.009921507165476053 -0.23247070164578737 0.009272628635979621
-0.0077634127379951415 -0.23879764080795784 0.011726550398206921
-0.005325296920967226 -0.2450865701979578 0.014252556569047241
-0.0025922893187465563 -0.2513155817560792 0.016848789687878375
0.00044126371855390464 -0.25743550829912404 0.019507004859653197
0.0037765100691811945 -0.26337688866008696 0.022222903171018132
0.007416218277541396 -0.26905765036973056 0.025001039148852745
0.011364691787389365 -0.2743850201376321 0.027853240868107282
0.015621318154244033 -0.2792668696011901 0.030792868957534206
0.02017721610372651 -0.2836319376246956 0.033833406799465365
0.025019652051643207 -0.28744845257979373 0.03698764094613973
0.030140090300606222 -0.2907295118305982 0.04026859010509832
0.03553703202228565 -0.2935228265950021 0.04368941526431826
0.04120980456290004 -0.29589283846073366 0.047258912640763144
0.04714716574956646 -0.2979083226814488 0.05097032463905102
0.053323037861091944 -0.2996335291077356 0.05479514350069491
0.059700695452209705 -0.3011218199295927 0.05868676763390396
0.06624060182375008 -0.30241193419734963 0.06259448298424485
0.07290670010459695 -0.3035268586301451 0.06647602229828814
0.07966908332243015 -0.30447810839951195 0.07030732486652963
0.0865038040208897 -0.30527170852585545 0.07408644223080366
0.09339014919825363 -0.3059153045707466 0.07783093553115211
0.10030881749524789 -0.3064229684747679 0.0815730656348998
0.10723798616899048 -0.3068187812455309 0.08534832462795335
0.11414605659054855 -0.3071394864399389 0.08918667808133726
0.12098544438408368 -0.30743374875859275 0.09310490596138819
0.12769224466042023 -0.3077616623149298 0.09710427051460986
0.13419103360696044 -0.30818954222008255 0.1011694146151783
0.14040072367082235 -0.3087852470718374 0.10527313275888986
0.14623905866500345 -0.3096135504811724 0.10937988454094368
0.15163100774127705 -0.31072228292658577 0.11345048173879523
0.15652064883633432 -0.3121339201558558 0.11744705942313088
0.16088726320302058 -0.3138439250389808 0.12133854298847303
0.16475451114103773 -0.3158353994222062 0.12510983049462993
0.16817717141367522 -0.31809462184405995 0.1287609510031275
0.1712219881506626 -0.32062156778172146 0.13229989477132353
0.17395507815198602 -0.3234308176189732 0.13573730262270262
0.17643298733509385 -0.3265490928311416 0.1390818390214017
0.17869754421001532 -0.3300090682082633 0.14233939122393446
0.18077454947631102 -0.3338380905067379 0.14551334773192176
0.18267700836598025 -0.3380519918856038 0.14860971592898892
0.18440922036216087 -0.34265577196700986 0.15164137493260474
0.18596803510804358 -0.347648283239202 0.15462703955347468
0.18734279633716658 -0.3530240755464514 0.1575835044879789
0.18851849186029188 -0.358770078724322 0.1605153224649533
0.18948286506085846 -0.36486527057425805 0.16341022687044865
0.19023200571992474 -0.3712833689348376 0.1662391659210886
0.19077298067559706 -0.377996203548539 0.16896186720018835
0.19112245547699624 -0.3849716007422352 0.17153400030465912
0.1913032478104109 -0.39217151128914046 0.17391422027143935
0.19134029581095047 -0.3995496909805769 0.17607485924865568
0.19125889682773214 -0.4070457747898217 0.17800958109047116
0.19108656635746338 -0.4145799514105923 0.17973882728496912
0.19085760445978045 -0.42204333752089285 0.1813085423888382
0.19061604185814837 -0.4292842495593147 0.18277849691796133
0.19040413432414446 -0.4360965053833801 0.1841984554031131
0.19024498300131473 -0.44226075320698366 0.18557777105325524
0.19013675259146157 -0.44765843355814766 0.1868947351629211
LINES 1 120
119 0 1 2 3 4 5 6 7 8 9 10 11 12 13 14 15 16 17 18 19 20 21 22 23 24 25 26 27 28 29 30 31 32 33 34 35 36 37 38 39 40 41 42 43 44 45 46 47 48 49 50 51 52 53 54 55 56 57 58 59 60 61 62 63 64 65 66 67 68 69 70 71 72 73 74 75 76 77 78 79 80 81 82 83 84 85 86 87 88 89 90 91 92 93 94 95 96 97 98 99 100 101 102 103 104 105 106 107 108 109 110 111 112 113 114 115 116 117 118
POINT_DATA 119
SCALARS Curvature float
LOOKUP_TABLE default
0.020490550970578274
0.017497345964511083
0.020109692357903126
0.02955928742575531
0.046212968182126356
0.06942209499141393
0.09750874199528817
0.12789979844615582
0.15740008686360024
0.1825759135692177
0.200203773879765
0.20772760954568914
0.20366378556337084
0.1878966480768316
0.16181894575583755
0.1282893144631813
0.09140131591424214
0.05608242596092257
0.02756383879992438
0.01078004498700836
0.009768398740109275
0.027141678303835258
0.06370037502859813
0.11823667970005029
0.18756051989031514
0.2667520921987507
0.3496182701345807
0.4293053917653911
0.49900135683587693
0.5526481849172064
0.5855837545572435
0.5950387603108817
0.5804311836798796
0.5434238542498536
0.48773817797406105
0.4187454980417413
0.3428833815763881
0.2669642592725063
0.19745585835054458
0.13981534352619868
0.0979517796122313
0.07387542218728677
0.06756947598390262
0.07709319426035877
0.09889783534974252
0.12831238445724513
0.1601370418374874
0.18927147292851743
0.2113028949090112
0.22298627064876797
0.22256409346392422
0.20989439700876747
0.18637994152469411
0.15471590754916872
0.11849483788542851
0.081723428533549
0.0483142713281017
0.02161597093340298
0.00403743694962203
-0.003192165425601844
-0.00010527063637378884
0.01208197676939854
0.031188656150460112
0.054393413817598914
0.07861702137698817
0.10091105917902501
0.11880276329483279
0.13055464987099058
0.13531113941439785
0.13312101174839935
0.12484176858578601
0.1119475046481646
0.09627365105395416
0.07973850653448634
0.06408213291028254
0.05065812132647692
0.0403038883226961
0.0333021268596668
0.029431805214959545
0.028093771576183556
0.028485487900666278
0.029793129620789602
0.03136804146689981
0.03285837478225568
0.034274945278682654
0.035981610504069075
0.038613015961082055
0.0429344762327709
0.04966823892074123
0.05931600116421422
0.07200847293191287
0.08740887487322271
0.10468910945041525
0.12258617410331886
0.13953387008276116
0.15385288470601804
0.16397270513911305
0.16865304101802392
0.16717141984816764
0.15944760704199243
0.146083989822151
0.12831287853717396
0.10785513966837142
0.0867077310324119
0.06688861953124309
0.05017457413166361
0.037869324944982845
0.030636151876228517
0.02842047938059051
0.030475613325441152
0.035490063743506696
0.04180002001794561
0.047657626675501545
0.05151666573234431
0.052293498133848995
0.04956334804728377
0.04366009267960182
0.03566067597626364
0.027251407700622413
