# vtk DataFile Version 2.0
Vessel Segment
ASCII
DATASET POLYDATA
POINTS 119 float
-0.0030096576149652946 -0.005161701032540141 0.0003355285882004522
-0.006721406810554641 -0.010875482974883053 0.0009400730681514934
-0.010965992096149468 -0.01688391735408249 0.0017002574002428154
-0.015533737043532454 -0.02293138333119169 0.002471199827676712
-0.020239677792571457 -0.02883074447799981 0.0031165024232561954
-0.024945327585709796 -0.03447878227442971 0.00351062335290378
-0.02954373736703696 -0.039826687142298686 0.003525896334309546
-0.0339405688704534 -0.044851100974196464 0.0030374746521011665
-0.03805124005682413 -0.049543978160796504 0.0019479534978857395
-0.04181837695614092 -0.05392502555375196 0.0002121846369721866
-0.0452259047585323 -0.05806214468521354 -0.002182517133241021
-0.04827002465480626 -0.06204906455046935 -0.005252223259564908
-0.050919653310893764 -0.06596441977837396 -0.008995371891627786
-0.05311835213824868 -0.06986514151880675 -0.013349730723924935
-0.05481058961940489 -0.07379371734069197 -0.018202790177097514
-0.055957172302966825 -0.07777425139948624 -0.023424388391191066
-0.056531995822319284 -0.08181279728190533 -0.028906232521058596
-0.05651387666801209 -0.0858974479530157 -0.034553598631022975
-0.05589936276353303 -0.09001979276244639 -0.04028749494240126
-0.05469941148571552 -0.09418584557558596 -0.046047518512974506
-0.05293501349584307 -0.09841910694197248 -0.05178627514009056
-0.050638733334135544 -0.10274886192009722 -0.05744680482971014
-0.04786979835971552 -0.10719668230054553 -0.0629363337191451
-0.04472823807412396 -0.11176210094726821 -0.06811540656611241
-0.04136174028397535 -0.11640542247752858 -0.07280558269395324
-0.03795839196745088 -0.12103830120927794 -0.07681945103389176
-0.034717407523390524 -0.12553617236036163 -0.08000554011426386
-0.03180907163190126 -0.129766739600325 -0.0822778427997188
-0.02935486712312196 -0.13359853947159503 -0.08361750863725904
-0.02741806527565068 -0.136911116562669 -0.08408709079296928
-0.02598317834099102 -0.1396576714703596 -0.08382316662544065
-0.024973797998432995 -0.14188403755865622 -0.08297059322217416
-0.0243033420184627 -0.14369513265017253 -0.08160215278496034
-0.02391433674180278 -0.1451801754512753 -0.07971504743528263
-0.023775280163766038 -0.14639175346551409 -0.0772682148871807
-0.02388043985535826 -0.14734689187023983 -0.07420855685705613
-0.0242417687604135 -0.1480352640266235 -0.07050391095316173
-0.024871433523837628 -0.14842832494507285 -0.06617528804290931
-0.025756329637682346 -0.1485010329136631 -0.06133062602956698
-0.026839253091810976 -0.14826997610896134 -0.056152677287416145
-0.028026750971744605 -0.1478104888971774 -0.0508294620750302
-0.029218615988059977 -0.14723707599995356 -0.045492096480168595
-0.0303302533112351 -0.14667417355557918 -0.040210700887569444
-0.03129851805337841 -0.14624261638101307 -0.035012773230881845
-0.03208144204111591 -0.1460551336154182 -0.02990179335302485
-0.03265534565775185 -0.14621336589637565 -0.02487037197050001
-0.03301142856692009 -0.14680911398894414 -0.019904909917046007
-0.03315263455374234 -0.14792860734008134 -0.014995485083696296
-0.03309446142497934 -0.1496450579314396 -0.010160506888843719
-0.0328648601595912 -0.15199416104291086 -0.005451770333788517
-0.03249626883794905 -0.15496738806924343 -0.0009265717691209416
-0.032019449495401024 -0.15853370298391667 0.003373816144956938
-0.031458912466118386 -0.16265538916639588 0.007420848545137931
-0.030829479870191315 -0.16728949264309925 0.0111953174841509
-0.030134265641733257 -0.17238897023079536 0.014695739849177207
-0.029364331307694523 -0.17790373123074177 0.017944050292063928
-0.02850045691090257 -0.18377670716392006 0.020980527879941237
-0.027518908338845734 -0.1899358105586653 0.02385220630550631
-0.026398303240558356 -0.19629589724867097 0.026598880596920668
-0.025124321489303315 -0.20277401892781025 0.029246901488653537
-0.02368836671419246 -0.20930091709111184 0.031815240776198184
-0.022077044332701464 -0.21582645722554245 0.03432432902814857
-0.02026775943543298 -0.22231284689747155 0.03679261902001732
-0.018234290860084205 -0.22872171483010334 0.03923449126767942
-0.015952468538812735 -0.235007237398696 0.0416619589662181
-0.013404879792357664 -0.24111796555601192 0.044087012489310295
-0.010581513620747903 -0.24699911756335963 0.0465242190951499
-0.0074774880606890155 -0.25259579515340136 0.04899177971315001
-0.004091708825812834 -0.25785465213873376 0.05151058436654468
-0.00042672680329056915 -0.26272936506496464 0.05410183354378526
0.003511783238839602 -0.2671868912375045 0.05678592138968965
0.007717403447098635 -0.2712135372752229 0.05958249381276609
0.012186693668644926 -0.27481653259234573 0.06251110936109233
0.016919690701391744 -0.2780175916314052 0.06559076842277982
0.021914825583457424 -0.28084373578318045 0.06883593117106909
0.02716183507269649 -0.28332347907472516 0.07224905685180352
0.032641551316893586 -0.2854848983433649 0.0758177603789443
0.0383302630256621 -0.2873529250792189 0.07951652329242202
0.04420449041893292 -0.28894795057210904 0.0833120725837671
0.050245271003346595 -0.29028620548902834 0.08716960962496059
0.056440458481984784 -0.2913821766888201 0.09106079468829367
0.06278247879032534 -0.29224893845700123 0.09496998689401183
0.0692628132980639 -0.2928992284278609 0.09889446430850837
0.07586665059500465 -0.29334736911979425 0.102842625469044
0.0825678799764801 -0.2936128200856223 0.10682874192872843
0.08932459286546744 -0.29372410961538825 0.11086713130963434
0.09607827245768802 -0.2937219361456478 0.11496683105004986
0.10275834376863296 -0.293660128247947 0.11912744840362444
0.10928940069459321 -0.2936022436058762 0.12333661455115813
0.11559783990227468 -0.2936158700104694 0.12757219662678124
0.12161620733449237 -0.29376756431233836 0.13180429103483324
0.12728772330369437 -0.29411265009352117 0.13599934771140298
0.13257140623751515 -0.2946888040413189 0.1401243138448275
0.13744981499228814 -0.2955134688438279 0.14415051988142874
0.14193384579789248 -0.29659021621529374 0.1480612180826323
0.14605512667820494 -0.29791848344060345 0.1518521449762586
0.14985392887499596 -0.2995018409246082 0.15552809409752147
0.15337038324948757 -0.30135069564996814 0.1590992741969313
0.15663796075555328 -0.3034822953389645 0.16257812769078678
0.15967946582420442 -0.30591759858840567 0.1659784646678627
0.16250518858295152 -0.3086754637984408 0.16931463897558124
0.16511296511601775 -0.31176826235082145 0.1726015655423304
0.16749076043659358 -0.31519946897939544 0.1758522187996574
0.16962183693869406 -0.31896369239646677 0.17907472362394786
0.1714921777085259 -0.32305053771670533 0.18227079287571024
0.1730938234403533 -0.3274493129107352 0.18543643749670274
0.17442454308487845 -0.33215101581494516 0.18856224066648922
0.17548656661854678 -0.3371471734336824 0.19163264988895373
0.1762868220521295 -0.3424261278512382 0.1946273098358191
0.17683792584553115 -0.3479672062096906 0.19752394431054066
0.1771599533649692 -0.3537372651867353 0.2003011820809883
0.17728064141056488 -0.3596915408885444 0.202945648313615
0.17723357762710365 -0.3657778946536846 0.20545705379545542
0.17705626092864296 -0.3719399545314538 0.20785145059297824
0.1767906318417893 -0.3781127400844671 0.21015983370125468
0.1764860280063059 -0.38420538416491073 0.2124185408869961
0.1761938719096815 -0.3900759961137276 0.21464858808356524
0.17595593080211433 -0.3955397714002049 0.21682924108228196
0.17579435900181214 -0.40044643113482753 0.21890618384256808
LINES 1 120
119 0 1 2 3 4 5 6 7 8 9 10 11 12 13 14 15 16 17 18 19 20 21 22 23 24 25 26 27 28 29 30 31 32 33 34 35 36 37 38 39 40 41 42 43 44 45 46 47 48 49 50 51 52 53 54 55 56 57 58 59 60 61 62 63 64 65 66 67 68 69 70 71 72 73 74 75 76 77 78 79 80 81 82 83 84 85 86 87 88 89 90 91 92 93 94 95 96 97 98 99 100 101 102 103 104 105 106 107 108 109 110 111 112 113 114 115 116 117 118
POINT_DATA 119
SCALARS Curvature float
LOOKUP_TABLE default
0.006844039014638389
0.005219856064745247
0.010970365450544237
0.025181899787240593
0.047923318799921545
0.0781058436379253
0.11349790693006163
0.15090486902984693
0.1865009501744363
0.2162788398788243
0.2365641924451583
0.24453023486407
0.23864387666946488
0.21897986395510094
0.18735333020143602
0.1472420698109942
0.10349550515763704
0.06185445077144611
0.028330924752980664
0.008517101954595109
0.006904326253388393
0.02629514477796068
0.0673830526027846
0.12855680782675996
0.20596079495707043
0.293812980900244
0.3849511581587971
0.47155021936988406
0.5459316682686882
0.6013742037817414
0.6328326644780398
0.6374822076057871
0.6150242555934408
0.5677181498002143
0.5001343089970772
0.41865713641715124
0.33079500977361215
0.244376890330062
0.1667277202604174
0.10391634976226903
0.06016012474159197
0.03745073026230971
0.03543889704461623
0.05158450787796861
0.08154732569486056
0.11976582613424692
0.16015078024089036
0.1968087167511356
0.2247094197782738
0.24022107473726315
0.2414551532088689
0.22838811863400726
0.2027552712520814
0.1677399329220331
0.12750523309946116
0.08663309999005367
0.04954371746968603
0.019967868927745255
0.000534678523008279
-0.007480147547336168
-0.004222891784934022
0.008851118497189421
0.029247204259495795
0.05381413649755317
0.07918404825650432
0.10220898588085407
0.12033732278127034
0.13188430886054803
0.13616766935170876
0.13349894344681026
0.12504137080303546
0.11256284472588918
0.09812542469266669
0.0837595319878512
0.07117055852371344
0.06151851117286607
0.05529872686775852
0.05233559143250361
0.051883979872857006
0.0528173021153451
0.053868820664089295
0.0538859712945652
0.052056638146067716
0.048071682591824705
0.042198591944842045
0.03525525303786297
0.028488429764344805
0.023376217543506238
0.021385402687011293
0.02372157747788837
0.03111106411088876
0.043649036234099596
0.060738407191810825
0.08113054130024172
0.10306363697544904
0.1244799723774822
0.14329125996457434
0.15765389728829576
0.1662140483374915
0.16828654888143102
0.1639410444228408
0.1539821983153244
0.13982631155167372
0.12329201578275512
0.10633558260573989
0.0907699110261909
0.07800909980368251
0.06887718025404231
0.06351046883844937
0.06136933738635688
0.061358915216069704
0.06204167235712648
0.061910415192026044
0.05968012443609439
0.05455287402495029
0.04641256565697684
0.035915229696762654
0.024455068006724253
0.0140043293649395
