# vtk DataFile Version 2.0
Vessel Segment
ASCII
DATASET POLYDATA
POINTS 119 float
-0.0027653382287945753 -0.005064629487753149 0.0002759788859448171
-0.0062737561435850416 -0.0107801715210652 0.0006079759241425986
-0.010359550677688692 -0.016882945296800046 0.0008922768462833223
-0.014795393435571055 -0.02308728325662322 0.0010261984390719633
-0.01937337179506506 -0.029175148053774563 0.0009236249688844998
-0.02393793365756409 -0.035021547170362155 0.0005035435186235507
-0.028374202447173355 -0.04056677968747262 -0.00032587415818987296
-0.03258703488436119 -0.04578384295953745 -0.001661213118694419
-0.03649426281471599 -0.050662497309549116 -0.003575253924623647
-0.04004094500530408 -0.0552163856659493 -0.006086217334151952
-0.043216935544340786 -0.05950850596629856 -0.009179568873642558
-0.04602707142233223 -0.06363007728626811 -0.012853068013501463
-0.04844663469540272 -0.06765283464607325 -0.017087494074604387
-0.05042984006873517 -0.07162601383867712 -0.021808626097084435
-0.05193662540181336 -0.0755839679729305 -0.026920214976688582
-0.052926463631252835 -0.07953902544804313 -0.032342056816396
-0.053354518899887154 -0.08347975276633822 -0.03801133564538019
-0.05318281925039867 -0.08738628480112132 -0.04385837203339462
-0.05240172565972844 -0.09126217021097525 -0.04981712890363343
-0.05101807687881231 -0.09514038136522385 -0.055841221185870996
-0.04904529184952611 -0.0990784227676822 -0.06189199397468309
-0.04650543506836646 -0.10314410411832739 -0.06791224355158591
-0.043446297928433034 -0.10739835171521667 -0.07379974446615319
-0.039959930995290854 -0.11187660623123152 -0.0794001542025401
-0.03619379453693301 -0.11656945080726416 -0.08451940950629926
-0.032348772044113454 -0.12140892087266504 -0.08894863355810692
-0.028655478636466822 -0.12626073638830249 -0.0924997357080302
-0.02532238971063267 -0.1309406895716674 -0.09505128687466566
-0.02250691130513936 -0.13524879145756433 -0.09657046109966218
-0.020294263224525332 -0.13901148267427438 -0.09713427431397031
-0.018675216139788578 -0.1421493051151056 -0.09690419342920421
-0.017573688560507422 -0.14468404469722637 -0.09604842314072863
-0.016894976033438838 -0.14671039924242463 -0.09468107092936677
-0.016561547287534617 -0.14834817305545578 -0.09284326447510279
-0.016521260248783733 -0.14970078325387592 -0.09050389615791565
-0.016761564968515354 -0.15082498979206296 -0.08759089489866315
-0.017295368740303442 -0.15173147640730936 -0.08404546450144033
-0.018133660018793123 -0.15239289133292475 -0.07986904790132052
-0.019249655499259465 -0.15276849091949296 -0.07517126056838284
-0.020556458411506356 -0.15285637594930485 -0.07014986428937683
-0.02193236859520547 -0.1527154433324183 -0.06498963708416523
-0.023258763117503543 -0.15244538910506802 -0.0598089704885907
-0.0244398706925979 -0.15216371795432815 -0.05466170397837313
-0.02540914768131689 -0.1519946070381521 -0.04955744183853239
-0.026127672841993167 -0.1520638223095304 -0.04449062851772418
-0.02657929848575307 -0.1524921073969013 -0.03946120008924481
-0.026766926230611 -0.15338976544787986 -0.03447240711005646
-0.02670873881390471 -0.15485749343633423 -0.029530053475988558
-0.026437537428899295 -0.15697725026820805 -0.02466694856435484
-0.02599994911195174 -0.1597799460415492 -0.01995254511172271
-0.02544558861113569 -0.16323913049158947 -0.01545833538696472
-0.024817336325697513 -0.16730153410887597 -0.011234428397655507
-0.024144952655216736 -0.1719057828896047 -0.007315165861227265
-0.0234404604450589 -0.176987203924154 -0.0037214161820979495
-0.022696676800250823 -0.18248222270247763 -0.00044953434128087435
-0.021889835566880084 -0.18832964013359174 0.002535438287854371
-0.020984800277858234 -0.1944632877015262 0.0052935008619537476
-0.019944029900794108 -0.2008001322859034 0.007893924756197887
-0.0187367943013828 -0.20724569365819334 0.010396559635788165
-0.017343639398436923 -0.21372124835944475 0.012844501194679524
-0.015752603679948077 -0.22017860002093292 0.015269827492405809
-0.013947991494844872 -0.22659867421269236 0.017700674950479264
-0.01190652800281241 -0.23297664411703686 0.020158606701376296
-0.009604503131433606 -0.23930316800253923 0.022655527006967307
-0.0070241228072087354 -0.2455485799579012 0.025194019461581535
-0.004155724154393533 -0.2516631299630991 0.027772548452730257
-0.0009949985082781504 -0.2575823408580099 0.03039316423969264
0.0024616710137241506 -0.2632332182131826 0.0330650281965004
0.0062175153368679 -0.2685361310610832 0.03580299080513322
0.010271154405586798 -0.27341423524301983 0.038622977254515974
0.014614575458387442 -0.2778090299328478 0.04154067107530721
0.019236936297955344 -0.2816948363412455 0.04457103504431311
0.024131315075462997 -0.2850829917565955 0.04772925428611307
0.02929694260364899 -0.28801283775602193 0.05103063353772259
0.03473339152030826 -0.29053653674863084 0.054486276655132185
0.04043045981555919 -0.2927093212294028 0.058093043821424856
0.04636501350545645 -0.29458293010612413 0.06182830244635601
0.052505046173275206 -0.29620066980909476 0.0656527641985821
0.05881643732598535 -0.2975947141560986 0.06952149038274388
0.06526867673458381 -0.2987856051344802 0.07339439301425443
0.07183759048807915 -0.299785891568978 0.0772455651719922
0.07850456119563415 -0.30060412682545334 0.08106812245869448
0.08525285921293074 -0.301249866127912 0.08487262028146117
0.09206456656947569 -0.30173745206417 0.08868325459920148
0.0989162190514507 -0.30208956531671816 0.09252841293557926
0.10577247746118766 -0.3023403094567895 0.09643281981548019
0.11258175759902768 -0.30253576899071954 0.10041059773281522
0.11927755895591045 -0.30273401346239703 0.1044623121560971
0.12578408543361763 -0.3030004973198266 0.10857339166748818
0.13202233011705494 -0.3034030343563002 0.11271803819840742
0.1379144614735147 -0.30400699831910644 0.11686220337152392
0.14339094494271662 -0.30486261533739106 0.12096809223267663
0.14840028272542682 -0.3059971065361784 0.12499890480707664
0.15292257921717203 -0.3074126180124003 0.12892391536655867
0.15697749224879956 -0.30909808539057954 0.13272723893943114
0.16061291911069384 -0.31104301781927396 0.13640755746869032
0.16388803203549582 -0.31324750272844176 0.1399722108664322
0.16686173827668097 -0.3157239096214504 0.14343245429968096
0.1695842732842938 -0.3184953625904806 0.14679923612345108
0.17209222221190196 -0.3215906167761642 0.15008224568230055
0.1744069064436135 -0.32503471043017906 0.15328971643989514
0.17653655358283904 -0.32884335654091956 0.15643171659707905
0.17847992148553102 -0.33302235100375477 0.15952199093166577
0.18022888974969795 -0.3375703129225691 0.1625761340438513
0.18177096408860627 -0.3424810118670015 0.1656058289986963
0.18309261419662146 -0.34774287439706053 0.1686123326845913
0.1841840503814873 -0.3533395137267573 0.17158375232008785
0.18504261362104724 -0.35925104833576876 0.174495013424033
0.1856746706631009 -0.3654549256065546 0.17731208393334666
0.18609508237421163 -0.37192249672280936 0.1799977019171276
0.18632555566940504 -0.3786166608696746 0.18251700054246361
0.18639201375091216 -0.38549084954738366 0.18484696218007476
0.1863227291834635 -0.3924869506309179 0.18698309486647427
0.1861488087441597 -0.3995331521934927 0.18894395322148996
0.18590733460229886 -0.40653618621523585 0.19076964072977462
0.18564430376853341 -0.41336614841035574 0.19251085512092994
0.18540524567737676 -0.4198397817479622 0.1942064411264477
0.18521968158613242 -0.42574995601900895 0.19585499780929655
0.1850937738584694 -0.4309671564189945 0.1974244435121101
LINES 1 120
119 0 1 2 3 4 5 6 7 8 9 10 11 12 13 14 15 16 17 18 19 20 21 22 23 24 25 26 27 28 29 30 31 32 33 34 35 36 37 38 39 40 41 42 43 44 45 46 47 48 49 50 51 52 53 54 55 56 57 58 59 60 61 62 63 64 65 66 67 68 69 70 71 72 73 74 75 76 77 78 79 80 81 82 83 84 85 86 87 88 89 90 91 92 93 94 95 96 97 98 99 100 101 102 103 104 105 106 107 108 109 110 111 112 113 114 115 116 117 118
POINT_DATA 119
SCALARS Curvature float
LOOKUP_TABLE default
0.016070504597833886
0.013450276987363325
0.01699230763210435
0.02790449383089181
0.046478549817888876
0.07193949315663764
0.10243862858908773
0.1352010699185886
0.1668178746785619
0.1936522821155573
0.21231216446693296
0.22012910567443678
0.21558030623211744
0.19859362796660313
0.17068830337375063
0.13492282331506814
0.09564503112982511
0.05806457543697381
0.027691398600098237
0.009702772965641275
0.008312978294709476
0.02622234801751221
0.06421551453632524
0.12096287659462729
0.19305636541007273
0.275283213385542
0.3611129525620456
0.44334680798374565
0.5148582730171571
0.5693415615274318
0.6019824239655145
0.6099738737561299
0.5928168060502971
0.5523702416515135
0.4926450156044959
0.4193646255534479
0.33934402515751677
0.2597581056047014
0.1873839249606531
0.127902965175765
0.08534161602486678
0.06171077128125431
0.05688107250905311
0.06870199477192919
0.09334414029678324
0.12581831092492407
0.16060526356390134
0.19231880310383612
0.21632323957583643
0.2292342178672566
0.2292483098332458
0.21626930804491107
0.19182492383495492
0.1587932823746961
0.12098102741528541
0.08261129636859364
0.04778842923426713
0.020006207301298966
0.0017579824867166973
-0.005708381079433548
-0.0024680551899140695
0.0101711705480901
0.0299064057149158
0.05378572371949733
0.0786123323636511
0.10135163234519241
0.1194886214009238
0.13129256879502377
0.1359606021726694
0.13362962777597612
0.12526432307788657
0.11244529217224512
0.09709370907271508
0.08117538134827572
0.06642746208289775
0.05414523509137521
0.04505555230820151
0.03928934172163368
0.03645027116409011
0.03576239222790092
0.03626842777405425
0.03704383574390516
0.03739070603937303
0.03697994245029812
0.035919268714432344
0.0347369275471488
0.034284613918573584
0.03557612917077963
0.03958852307222704
0.04705858111856277
0.058308519543502996
0.07313053282115879
0.09075103366592378
0.1098833478698583
0.12886407568606417
0.145855330862446
0.15908456895481005
0.16708731234155974
0.1689167732314103
0.16428842937981375
0.15363649652795777
0.1380717270318753
0.11924426287422232
0.0991293098423444
0.07976511116628357
0.06298032218994574
0.05015022640017202
0.04201783736358886
0.03860717425207295
0.03924303809693002
0.04267624115209301
0.04729762972183802
0.05141065210025543
0.05352268086330131
0.05261129446855951
0.04832399345894155
0.04107823068472403
0.032042153633825336
0.0229933149781851
