# vtk DataFile Version 2.0
Vessel Segment
ASCII
DATASET POLYDATA
POINTS 119 float
-0.003906077454437795 -0.005521453021392418 0.0005536588933626615
-0.008392950379959978 -0.011306418746266048 0.002137936611068351
-0.013341517591430511 -0.017182862262538973 0.004606533527053592
-0.0186318863227828 -0.023009486966198714 0.007683168217531809
-0.024157751772948717 -0.028684661290608406 0.011061593610078226
-0.029824018633326056 -0.03415277070480485 0.0144448113263132
-0.03552696715464083 -0.03937930804090159 0.01753925270651646
-0.04113984335459504 -0.044331733427332896 0.02006217718326595
-0.04651575281152967 -0.048977299717948716 0.02177201019042175
-0.05151783055038247 -0.05330497702959492 0.022509955016226532
-0.056049225402107904 -0.05734573087452674 0.02221078875524782
-0.06006685662518642 -0.06117844681486977 0.020880252079543776
-0.06355962829154009 -0.06491569674964187 0.01854432071736454
-0.06649409774517952 -0.06867154317283988 0.01526336286341374
-0.06880471294902622 -0.07255009937523556 0.011189964821392943
-0.0704734569366046 -0.07664500488132737 0.00658344644941301
-0.0715402052921592 -0.08104458715599772 0.0016734134086174987
-0.07203694496416803 -0.08578299946728096 -0.0033821700331089456
-0.07197276610324156 -0.09081958568812382 -0.00847066455872118
-0.07136164857083807 -0.09606187361618887 -0.01348671651534778
-0.07024198674117962 -0.10139996149981069 -0.018348170004310743
-0.0686792238936546 -0.1067119044198348 -0.022987635331028794
-0.0667728866436799 -0.11187411990710229 -0.027331605572310076
-0.06465141169605788 -0.11676858372795965 -0.03128198263244366
-0.06246167603318251 -0.12127292950109957 -0.03471045017125085
-0.060348582116689954 -0.12526210522190367 -0.03750019835584564
-0.05841742199709589 -0.12867637164379517 -0.039612205645720926
-0.056730436836358006 -0.13156333207501567 -0.04106548678924508
-0.055312951533531 -0.13399540491548323 -0.04188339260524562
-0.054170924120747255 -0.13600174210680802 -0.04209328651114892
-0.05327096975577715 -0.1376287871272771 -0.04176077437060922
-0.052532413059008416 -0.1389821742465938 -0.04094126702454657
-0.0518796480250728 -0.1401757732614016 -0.03955596559846332
-0.05129285684982597 -0.14120030028789116 -0.03744328909484883
-0.050793947500720256 -0.14195053467279353 -0.03451948312331037
-0.05040343385497323 -0.14231776447917976 -0.03079790115796794
-0.05014082588641764 -0.14222700259415452 -0.026344428155647855
-0.050031865807417544 -0.14165098574395302 -0.021258788794114185
-0.050110437651625386 -0.14061871916472793 -0.015662119540886227
-0.050414450209785626 -0.1392092960734233 -0.0097095654686595
-0.0509466641530844 -0.13756559222650477 -0.0036230798361331354
-0.05167286926360387 -0.13586769816812488 0.0024102037549149054
-0.05255055060966009 -0.1342732601722304 0.008267167712544996
-0.05352946184117094 -0.13289494370489824 0.01387734238451781
-0.05455291783133935 -0.13180089592670766 0.019234701869284238
-0.05556392350391569 -0.13102939841309713 0.024398708247781266
-0.056505639836174744 -0.1306178989658373 0.029455136210706185
-0.057320654586917354 -0.13061940334969382 0.034465593114036984
-0.057960058353637545 -0.13109343498801712 0.03944358694680304
-0.05839112895185523 -0.13209385931226236 0.04436878981818265
-0.05859762838070353 -0.13365673005094508 0.049204608489754297
-0.05858032977828356 -0.1358012975624807 0.05392655197140886
-0.05835355565373145 -0.13854560705032132 0.05852726186864821
-0.05794312875217893 -0.14190366727120657 0.06300348280648595
-0.057384232161325655 -0.14587619571444457 0.0673476988575017
-0.05671494556573824 -0.15044612627265666 0.07154514445492974
-0.055968865655436094 -0.15558190081636963 0.07557252795966171
-0.0551704338673884 -0.1612441385059025 0.07940381708710398
-0.05433292134590244 -0.16738318570104477 0.08301344144967102
-0.05346150006660712 -0.17391643134034906 0.08637150031893111
-0.05255726823665523 -0.18072109170077533 0.08945152374940768
-0.05160794137280549 -0.18765474190139866 0.09224860148816663
-0.05058251705833419 -0.19457268013863555 0.09477463972411901
-0.04943470298504783 -0.2013355350591298 0.09705870922760489
-0.04811205980355452 -0.20783647463087804 0.09915021816134895
-0.04657139147360101 -0.21401221335153944 0.10110883818469919
-0.04478811654774224 -0.2198372461931993 0.10299051720805338
-0.04275745288345272 -0.2253172052806336 0.10484253617901822
-0.04048698359818326 -0.23048877471007642 0.10670565028091153
-0.03798208548040167 -0.23541099750383498 0.10861932083681063
-0.03523741670799141 -0.2401406260473432 0.11062172584945439
-0.032240091962085396 -0.24470765850216586 0.11275104081469979
-0.02897867375887342 -0.24910259270888072 0.11504317902473507
-0.02545279106872141 -0.2532755765654828 0.11752701790004166
-0.0216781798773809 -0.2571528947045583 0.1202197067775201
-0.017681984127216645 -0.2606640095448508 0.12312866101676478
-0.01348757676457871 -0.26376200394889693 0.12626090987636562
-0.009103105361633803 -0.26642535470786144 0.12962674933510596
-0.004520186357247602 -0.2686518197959179 0.13323087686568463
0.0002836205472931397 -0.2704540920212139 0.13706399601638572
0.005340905496289239 -0.2718558008290602 0.1411014654151308
0.010684509650255292 -0.27288201417025715 0.1453088085360364
0.016335943872434037 -0.27355092456860824 0.14964521409637355
0.022294257781025048 -0.27387191501600894 0.1540685623801087
0.028530468183610932 -0.2738498344331764 0.1585464681699279
0.03498906517126747 -0.27349128796278854 0.16305939041340975
0.04159821613484338 -0.2728153675674259 0.16760204756903072
0.048284332801468946 -0.2718571118927606 0.1721753571036863
0.05498456993586114 -0.2706676878378294 0.17678038791654443
0.06165653316800795 -0.26930604301957484 0.181414980537179
0.06828502882451239 -0.2678325297801526 0.18607309087907561
0.07487869562978852 -0.2663085272978461 0.19074720466485118
0.0814579187422638 -0.26479896505957284 0.19542920216703802
0.088035747867133 -0.2633749079802018 0.20010730896611284
0.0946030113768879 -0.2621062230614667 0.20476788928582626
0.10112750926899798 -0.26105565054073054 0.20939793775511295
0.10755926568780884 -0.2602747744451744 0.2139908433826845
0.11383397831795619 -0.25980491615787765 0.21854562002146394
0.11987975648115715 -0.2596774029791082 0.22306720780078557
0.125623872421087 -0.2599134220999915 0.22756587104925158
0.1309945207110316 -0.2605264695197072 0.2320526941123358
0.13591564155171112 -0.2615205419568921 0.23652775532685844
0.14031043472999627 -0.26288264485669693 0.2409654179143512
0.14412314799690717 -0.264576955180372 0.24531602902855332
0.1473466261136201 -0.26655657045176584 0.24952785930149848
0.15001875323210603 -0.26878569570744826 0.25357494073902814
0.152195292442327 -0.27124901352801456 0.2574631494268554
0.15392734651695988 -0.27394781654121797 0.2612219886342407
0.15525272739357152 -0.27688830953255833 0.26489306540594065
0.1561990556635045 -0.2800713000130993 0.2685220799251447
0.15679404043195494 -0.2834847491550285 0.27215093941915774
0.1570747469827425 -0.2871042111619707 0.2758156800712555
0.1570890841232119 -0.29090563691273646 0.27954599468449454
0.15689032389871335 -0.2948766471008938 0.2833658085853096
0.15653238286647586 -0.2990199789342418 0.28729473968726404
0.15607377045522108 -0.30333593536528336 0.2913431950825626
0.15558468949037368 -0.30778328653104003 0.2954925088871006
0.1551488153265559 -0.31223644471491346 0.29966259909340365
0.1548479817136074 -0.316489549148753 0.3037015505082982
LINES 1 120
119 0 1 2 3 4 5 6 7 8 9 10 11 12 13 14 15 16 17 18 19 20 21 22 23 24 25 26 27 28 29 30 31 32 33 34 35 36 37 38 39 40 41 42 43 44 45 46 47 48 49 50 51 52 53 54 55 56 57 58 59 60 61 62 63 64 65 66 67 68 69 70 71 72 73 74 75 76 77 78 79 80 81 82 83 84 85 86 87 88 89 90 91 92 93 94 95 96 97 98 99 100 101 102 103 104 105 106 107 108 109 110 111 112 113 114 115 116 117 118
POINT_DATA 119
SCALARS Curvature float
LOOKUP_TABLE default
-0.02482541678658034
-0.02316659539284994
-0.009054657241248315
0.0176662185242662
0.055714728766285575
0.10237514166456917
0.15368798942903011
0.20481916463786926
0.2505732660849634
0.28599563267898026
0.3069922715330346
0.31089014438669016
0.29686330034040687
0.26616316428748504
0.22211265397000501
0.16985128783960118
0.11584876624279149
0.06723389236518214
0.03101038338140483
0.013247834123547124
0.01834248810983462
0.048437444610711755
0.10307580182279488
0.17913472549845955
0.2710564718801166
0.3713577775675868
0.47136594735350296
0.5621024887248302
0.6352166853775921
0.6838644239577223
0.7034328615543852
0.6920286079348614
0.6506740037153493
0.5831895981050947
0.4957770435733727
0.39635098582550404
0.2936970110736777
0.1965519245489427
0.11271032958678434
0.04825683284863605
0.007006911361573525
-0.009786347866287359
-0.003434530854986897
0.0224654960199989
0.06255084877571483
0.1103832509725438
0.15922472694102519
0.2028051490261652
0.23599293736321694
0.25529528971152937
0.25913780441446566
0.24790209697798757
0.22373027124162073
0.19013307243101552
0.15146080326106076
0.1123100323553103
0.07694330873449391
0.048793351808571465
0.03010862678859888
0.02177605355140499
0.02333182633217418
0.03314630377667822
0.04874694263982529
0.06722706113097526
0.08567973526958247
0.10159617050697842
0.11317610284311054
0.11951273595534943
0.1206341206243816
0.11740391133676016
0.1113041447591568
0.10413840378530699
0.09770341982417523
0.09347968087646058
0.09238683858948993
0.09463854704212911
0.09971559032195075
0.1064581362781506
0.11326031701295874
0.11833559176449272
0.12001153641375988
0.11700912221528338
0.10866457710678125
0.09506099779780709
0.07705057783946656
0.05616457671688333
0.034424584237915945
0.014082852070222177
-0.002670558032559676
-0.013991711151346911
-0.018617561565963805
-0.01601896174953795
-0.006451673433148452
0.009099730791480071
0.02907450189391959
0.05156038533596755
0.07455570056909158
0.09622934126976844
0.1151403069478632
0.13038524203076288
0.1416540460071442
0.14918818047270974
0.15365164039099774
0.15593835404346235
0.15694991862510102
0.1573824819313232
0.15756042625167418
0.15734737589812378
0.1561529106717445
0.15303797004784156
0.14690555088540921
0.136748413901399
0.12191444592071667
0.10234490302128689
0.07874203342932991
0.05263064545251102
0.02629214741171494
0.0025676501517456923
-0.015453572019188011
