# vtk DataFile Version 2.0
Vessel Segment
ASCII
DATASET POLYDATA
POINTS 119 float
-0.003328418992643368 -0.005289367786590481 0.0004131203603571844
-0.007310495714311291 -0.011016399217484095 0.0013681563441540292
-0.011784147825093834 -0.016944746255608798 0.0027363108045220896
-0.016567630222675746 -0.022859622173045754 0.004319226670400967
-0.02150481757367495 -0.028609101562974377 0.005916739716189541
-0.02647540935434314 -0.03411174319466774 0.007344252261994335
-0.0313770978431473 -0.03932702043697822 0.008422214657130478
-0.03610888614469032 -0.04423056770780519 0.008980767226836973
-0.040572275484844086 -0.048809280000725014 0.008883825511334851
-0.044694238206140935 -0.053079468704905916 0.008053936943953574
-0.04844260901373645 -0.057105200617687694 0.006457040618967878
-0.05180373058603642 -0.06098038305102424 0.004070781506342953
-0.0547473858279078 -0.06479572926925818 0.0008875194868632461
-0.05721409374953812 -0.06862429117622523 -0.0030420150674406346
-0.05913549992944096 -0.07252516239978864 -0.007590379901321824
-0.0604760933886719 -0.07654263486995971 -0.012573650745970508
-0.06123314263750792 -0.08070880307843144 -0.017833273347069585
-0.06140547602674485 -0.08502497312535007 -0.023247602677224397
-0.06099561556646175 -0.08946895468925692 -0.028723613771409893
-0.06001756158445423 -0.09401150645411804 -0.03418387624771464
-0.05850034313276402 -0.09863037389621114 -0.03956882948586731
-0.05648942491374658 -0.10330334490707357 -0.044819191316057355
-0.05405893636927867 -0.10800119234137927 -0.04985111381104099
-0.05131936954140161 -0.1126796625610135 -0.05454182879263713
-0.048418499961337666 -0.11726492934540979 -0.058731984716360326
-0.045528431137029 -0.12164906143242678 -0.062260842108080104
-0.042811300813709444 -0.12572541140567803 -0.0650208097404147
-0.0403934167168513 -0.12942716057380224 -0.06696757213382101
-0.0383560146040679 -0.1327031539832091 -0.06809886913180829
-0.03673807476544301 -0.13549363810620993 -0.06846178141006277
-0.035516912934215064 -0.13778942472986466 -0.06816436873205695
-0.03461520155871792 -0.1396625883040485 -0.06732058199648723
-0.033953499215885405 -0.14122632208601335 -0.06594920806203919
-0.03349389190475776 -0.142532653282348 -0.0639902312166821
-0.03322780616000756 -0.14357325281559663 -0.061388248372501016
-0.03315887320618448 -0.14431717588269494 -0.05811432403598438
-0.03330006702243076 -0.1447291859156999 -0.054171146139806114
-0.03366674047343113 -0.1447801239467468 -0.04960654921943877
-0.03426247263781696 -0.14446414602088656 -0.04452990456163439
-0.03506533728968197 -0.1438202015925649 -0.03910956909934391
-0.036016729381753425 -0.14294594970966465 -0.033542023781432034
-0.03704005348889941 -0.14197721670505414 -0.027976855601056644
-0.03806576776201334 -0.14104921029810802 -0.022504232070559935
-0.03903560553350704 -0.14027968567160443 -0.017170726908000193
-0.039903046930617664 -0.13976557077892932 -0.011985783829625469
-0.040633245637533004 -0.13958547170642474 -0.006927690149206652
-0.041200816226730726 -0.1398101633656115 -0.0019590975411819325
-0.04158791672285797 -0.14051104733459505 0.00294885319152742
-0.04178768468119556 -0.14175323620621663 0.007792069033603766
-0.041805937499804456 -0.14357800488586137 0.012535274910472047
-0.04165613657547894 -0.14599514271920994 0.017134068155202596
-0.041356297166412724 -0.14899601059414494 0.021556313843921152
-0.04092573819809522 -0.1525676869354958 0.025781497836015466
-0.040382807403003505 -0.1566913702636529 0.02979471114458191
-0.039742669582261136 -0.16133932098405354 0.033590351072555466
-0.039014080341921685 -0.16647458070148718 0.03717563932836621
-0.038197367030854266 -0.17205051147182066 0.040567020870326966
-0.03728629899270056 -0.17800799896652889 0.04378425826300467
-0.036271815770349866 -0.1842745259365299 0.0468424024805642
-0.03514647663848101 -0.19076486730475362 0.049746614432544044
-0.03390553499757471 -0.19738692529234117 0.05249897432728646
-0.032537071062373066 -0.20405415751045552 0.055110287124073294
-0.031017155868693184 -0.2106883437720473 0.057595892228750514
-0.029314181454693562 -0.2172141965295215 0.059974527016707614
-0.02739483969798006 -0.22356446551204084 0.062271042860775006
-0.02523229112178302 -0.22968447565413663 0.06451464463146013
-0.022810413997488295 -0.23553096673805077 0.06673530191735591
-0.020123572688330656 -0.24107155401639344 0.06896221753020891
-0.017173489556129892 -0.24628589086069963 0.07122377404064556
-0.013963744880309454 -0.2511660192252209 0.07354794314897864
-0.010496240116676617 -0.2557110835134028 0.07596147695008858
-0.006770842771441151 -0.2599225557119129 0.07849045259582503
-0.0027860835039665707 -0.26380173436429716 0.0811601057095733
0.0014582726273032988 -0.26734625585229704 0.08399327738513387
0.005956728643509214 -0.27054951415081196 0.08700662433022971
0.010695328501453452 -0.2734059896028367 0.09020672003182609
0.015656354203076345 -0.2759158689811423 0.09359110469965287
0.02082419274133693 -0.2780842515994205 0.09714963756547058
0.02618810295448732 -0.27991975059266105 0.10086360180347102
0.03174422151074846 -0.2814348455864697 0.10470641910108791
0.037496361152224086 -0.2826466007763452 0.10864903098804343
0.04345141215631299 -0.28357294075492795 0.11266691966021714
0.049611571590488714 -0.28422948526364794 0.11674209057408959
0.05596655405451466 -0.2846295447122152 0.12086376687549841
0.06248811534965264 -0.2847878042587657 0.12502875502368363
0.06912780490164408 -0.2847252467220363 0.1292385603196716
0.07582039952282221 -0.2844752833391334 0.1334963584677532
0.08249230398476044 -0.2840857987233368 0.13780140718592254
0.0890707473960798 -0.28361718066170016 0.14214526035726646
0.09549131435949579 -0.2831357504993023 0.1465118941258577
0.1017026732221907 -0.282708380461008 0.15087862307644198
0.10766792890903089 -0.2823957179664933 0.15521969956065373
0.11336356219555667 -0.282248276098981 0.15950946642523678
0.11877850778055762 -0.28230422643510134 0.16372409805710075
0.12391342212272062 -0.2825895607812908 0.16784711373472097
0.12877684710200274 -0.2831222184219618 0.17187064501825453
0.13337960197280013 -0.28391696315380704 0.17579515075176227
0.13773019092677435 -0.28498828226413986 0.17962697534715466
0.14183204324308332 -0.28635139485285904 0.18337657876959754
0.14568214129366103 -0.28802094525302324 0.18705803179099148
0.14926979011679914 -0.2900087799411919 0.190687471537993
0.152574398251332 -0.2923208719520025 0.19427930014139638
0.1555672957276789 -0.2949533534852108 0.1978390462330035
0.15822100239353334 -0.2978905890093754 0.20136059143233637
0.16052297512660943 -0.30111186511029236 0.20483116082929378
0.16247772758751752 -0.3046023470207552 0.20824102265383143
0.1640985597516639 -0.3083570388023692 0.2115863372488959
0.16539956644838677 -0.31237739533525033 0.21486645633495718
0.16639327013159558 -0.31666315410270884 0.21808103954665806
0.16709307859190523 -0.3212039859813044 0.2212292310362128
0.16751890933378447 -0.3259744517361408 0.22430889870348092
0.1677009489707643 -0.330935801580791 0.2273207857477656
0.16767848561932533 -0.3360455710261046 0.23027196634163966
0.16749569973468897 -0.3412653981178748 0.23317823222763032
0.167199506304945 -0.3465601629852172 0.23606357157210273
0.16684265857713843 -0.35187950664849577 0.23895216080465087
0.16648324628032435 -0.35712513440551963 0.24184844199687383
0.16617790416609787 -0.36213652967827725 0.24470996477404863
0.16596941933816442 -0.3667399768967191 0.24745077102448512
LINES 1 120
119 0 1 2 3 4 5 6 7 8 9 10 11 12 13 14 15 16 17 18 19 20 21 22 23 24 25 26 27 28 29 30 31 32 33 34 35 36 37 38 39 40 41 42 43 44 45 46 47 48 49 50 51 52 53 54 55 56 57 58 59 60 61 62 63 64 65 66 67 68 69 70 71 72 73 74 75 76 77 78 79 80 81 82 83 84 85 86 87 88 89 90 91 92 93 94 95 96 97 98 99 100 101 102 103 104 105 106 107 108 109 110 111 112 113 114 115 116 117 118
POINT_DATA 119
SCALARS Curvature float
LOOKUP_TABLE default
-0.004401148746139363
-0.004427145211508091
0.004620164030065845
0.023532754344601687
0.05195369850382847
0.08827335082011555
0.12969201357471305
0.17245453114074727
0.21223865781107085
0.24465663667232837
0.26581133321783673
0.272837143188837
0.2643535492277308
0.24076633026159772
0.20436748394750495
0.15920815287307133
0.11074648851793775
0.06530101134174583
0.029365961747857217
0.008864953875872508
0.008430202878982176
0.030795022031331783
0.07637681032113995
0.1431073878206458
0.22653957880989084
0.32022669575042045
0.4163389517993143
0.5064518553582414
0.582419955817689
0.6372376967842242
0.6657891545853956
0.6654002301478344
0.6361290975175259
0.5807607652876821
0.5045058692777415
0.4144381428388289
0.31873524407638115
0.2258100978614059
0.14343193419180073
0.07793636691373927
0.03361221747286506
0.012330858586960354
0.013454398687870878
0.03402571627827185
0.06921028532202102
0.11293092753932345
0.1586155200099984
0.1999667048603547
0.23166292265295158
0.2499113332935425
0.2527937485995247
0.24037380164756353
0.21456368589382782
0.17877808434058262
0.13742774654487064
0.09532258595366873
0.05706220970196256
0.02648975239203004
0.006273366657231382
-0.0023394740717921393
0.00042615217253277085
0.013009781755235419
0.032812926085422287
0.05660853480894098
0.08100236378971351
0.10288240762609686
0.11979753421662688
0.13021906343497514
0.1336572838085926
0.13062612735566326
0.12247043584866664
0.11108856149693357
0.09859604763234588
0.08698222733904061
0.07781015562370917
0.07200180504953896
0.06973632427642656
0.07047154964241062
0.0730804670678945
0.0760775986534548
0.07789767513004676
0.07718215649222067
0.0730290213072205
0.06516763829415749
0.054032409414054475
0.04072441369175445
0.02686717129478281
0.014378414593928185
0.005192118927763595
0.0009722508454760033
0.0028607404131106885
0.011296980996252481
0.025935514494629868
0.045674064243588545
0.06878787175482069
0.09315075404913482
0.11651069549273851
0.13677995738844628
0.1522977669140975
0.1620279085099851
0.16566335704461
0.16362402170434537
0.15694966523091278
0.14710576637339087
0.13573317557629336
0.1243809149123512
0.11426408962323678
0.1060851593584868
0.0999472387219282
0.09537400509765523
0.09143421898057053
0.08695224147652136
0.08077175326113503
0.0720303219128939
0.060399085543286664
0.04624530963544142
0.030685635509553832
0.015513211009678304
0.0030005051003494246
