# vtk DataFile Version 2.0
Vessel Segment
ASCII
DATASET POLYDATA
POINTS 119 float
-0.0025013453160740557 -0.004961089792690125 0.00021149868196728474
-0.005793562381375689 -0.010692688517942993 0.00024290756072279542
-0.009724179594294268 -0.016936295036599085 -6.04592749910878e-06
-0.014050628310256379 -0.02337572945923551 -0.0005951478077361282
-0.018538769550527995 -0.029755153902963176 -0.001556040442239732
-0.02301039731401347 -0.03591970255170038 -0.0029215640957074027
-0.02733629153636387 -0.04179157075410181 -0.004746666755664368
-0.031413116645378325 -0.047333235967443925 -0.007100251968735817
-0.03515255961403689 -0.0525238822903674 -0.01002794278591472
-0.03849459347099605 -0.05736081777237626 -0.01350895264432863
-0.04143307193742796 -0.06189459047716921 -0.017482227335615254
-0.043986406845137396 -0.06621296669024049 -0.021911725012761576
-0.046144470963734224 -0.07038381787109364 -0.02675202415168343
-0.04788027669307279 -0.07445321527307114 -0.03191697545237171
-0.04917461195348866 -0.0784513878769474 -0.03733600949307199
-0.0499856775416851 -0.08238167714009065 -0.0429937942706185
-0.050246797877071155 -0.0862161655070451 -0.04888479920830972
-0.0498998821244479 -0.08992824806174277 -0.05497163568470573
-0.04892662647505294 -0.09353537400903257 -0.06120494276407628
-0.047327449918175155 -0.09709935989725754 -0.0675545382637764
-0.045106257159842664 -0.10071369874484584 -0.0739902276977438
-0.04227345935549892 -0.10448775436153698 -0.08045174083124293
-0.038864820135458375 -0.10852639433767691 -0.0868232454971832
-0.03496403558767043 -0.1129068682098539 -0.09293179890968743
-0.030718228765963463 -0.11765688373055967 -0.09856548316797398
-0.02634266733130505 -0.12273604215851214 -0.1034913673366177
-0.022104974359998582 -0.12800357986740596 -0.10747880776273463
-0.01825955344616631 -0.13321701803826302 -0.1103645121644668
-0.015008058578289074 -0.13809458704792238 -0.11209924858923485
-0.012463028080775644 -0.14239812218990178 -0.1127785285714221
-0.010622818781352246 -0.1460087105987474 -0.11259412863358527
-0.009411387351018393 -0.14891806263857915 -0.11173938443543975
-0.008722507568283359 -0.1512060150576425 -0.11037304906553001
-0.008451742370276698 -0.1530280847616432 -0.10858352925903082
-0.008521675632634755 -0.15454728169449858 -0.10634910074777859
-0.00891311990694875 -0.15586664852430185 -0.1035766723798962
-0.009642083184518452 -0.15702180508093025 -0.10017880143300442
-0.010719430572288758 -0.15798723225467926 -0.09613678695343345
-0.012101843115668243 -0.15870327835777154 -0.09156487621320322
-0.013666320318971439 -0.1591455574429267 -0.08668119507165183
-0.015258107522001376 -0.1593551719510535 -0.08167053941270876
-0.016738138356589164 -0.15941723438613065 -0.07663927859813781
-0.017999328060833333 -0.15944355976545788 -0.07162287276118162
-0.018972356941286024 -0.15956375649737953 -0.06660815464416833
-0.019621261511057062 -0.15991954116574333 -0.06157496605244519
-0.019936569204486818 -0.16065470518484568 -0.056527263277611976
-0.019932298438013127 -0.1619028090490224 -0.05148539454527037
-0.019642349859734034 -0.16378379199656104 -0.046474107381397387
-0.019119000930649957 -0.16639144354280194 -0.04154607313743161
-0.018431893544229444 -0.1697499248942923 -0.03679531616404611
-0.017652909375002905 -0.17380800695712004 -0.03231277849964305
-0.01684091070936567 -0.17848220357915934 -0.028159362040521316
-0.016032604857029186 -0.18368038124586106 -0.02437475347636625
-0.015236556840936447 -0.18931107583327647 -0.02097959196002293
-0.014432937089183737 -0.19529115941192318 -0.01796240126056101
-0.01358026294123357 -0.20154639935478283 -0.015272016489962995
-0.012624969613973839 -0.20799962931033303 -0.012825222687423133
-0.011514114092574121 -0.2145549929084449 -0.010527069070707891
-0.010207051525398768 -0.2211085202866673 -0.008295007518439016
-0.008679018218456557 -0.2275890325349135 -0.006067727185945858
-0.006913917388904345 -0.2339751510146049 -0.003799214950217101
-0.004892097020368887 -0.24028481805290985 -0.0014528278593934911
-0.002587478708825329 -0.2465508746169106 0.0009971783139225599
2.275305801301749e-05 -0.25279603233794495 0.0035610566819256413
0.0029500251305322116 -0.2590077875995668 0.006231648917988686
0.006194808037459718 -0.2651374743629483 0.008992353566126607
0.009753983758629906 -0.2711092911960872 0.011830832769024835
0.013629063168336146 -0.2768297884140209 0.014745795803720955
0.017825723733450333 -0.28218973709511436 0.01774529833595737
0.02234452649868891 -0.287077823766994 0.02083957992658366
0.02717583189624178 -0.291406717321965 0.024039536744260372
0.032304869678614956 -0.2951368323658812 0.02735539390118355
0.037721186105610184 -0.29828313714287136 0.030797453933578647
0.043421991474320035 -0.3009034659910051 0.034375863168594756
0.04940545353375801 -0.30307754663291026 0.03809588687811569
0.05565797096902162 -0.3048914953249575 0.0419454559850379
0.06214887862372061 -0.30642598603169274 0.04588803179659803
0.06883503892232366 -0.30774777838202255 0.04986750871849522
0.07567008513298917 -0.30890437093912826 0.0538260452858531
0.0826112675259992 -0.30992197825630075 0.05771910639317547
0.08962179533567473 -0.3108106926196996 0.06152553408961881
0.09667124701674457 -0.3115730918584157 0.06525007574436464
0.10373404530604179 -0.31221411909011004 0.06891940335931386
0.11078931726487934 -0.3127472335842106 0.07257602496289511
0.11781759304305917 -0.31319806265493644 0.07626435663670249
0.12479238371220677 -0.31360651614629914 0.08002094020256878
0.131671611554498 -0.3140244039855305 0.08386597265296125
0.13839514164407832 -0.314514316755545 0.0878017838277271
0.14488853924319534 -0.3151436563159218 0.09181233023695803
0.15106866985560077 -0.3159804188846443 0.09586905299899094
0.15684839069029025 -0.3170888477889436 0.09993510658496484
0.16214647080037137 -0.3185142515151033 0.10397027010252678
0.16690195274186145 -0.3202740405192421 0.1079361318934867
0.17109304189557223 -0.32235662579523977 0.1118018182020568
0.17474755600053485 -0.32473945547901595 0.11555346464733032
0.17792728912122988 -0.3274063790511633 0.11919249786581466
0.1807065012913249 -0.3303584677193448 0.12272687390777277
0.18315841934443625 -0.3336136794437637 0.12616509474815166
0.18534599264028878 -0.3372031765689997 0.12951126004666177
0.1873167254260715 -0.34116387355071714 0.13276471432498882
0.18910181666209547 -0.3455246549040793 0.1359211396228415
0.19072063393403754 -0.3502995450052599 0.1389801718511577
0.19218519521743682 -0.3554903888191959 0.14195286800136328
0.19349953759933539 -0.3610945936118575 0.14486176406572143
0.19465630234419645 -0.36710662407467803 0.1477305621456252
0.19563960911319364 -0.3735108371554958 0.15056877599998753
0.19643504619433289 -0.380279841840135 0.15336451822789948
0.19703797593418884 -0.38737898163736006 0.15608441344231036
0.1974570223263007 -0.3947731391016824 0.15868078544816444
0.19771156078984453 -0.4024263577548282 0.1611006543486184
0.1978259430628354 -0.410300514559201 0.16329459038675628
0.1978237253346639 -0.41835102566121773 0.16522903047915416
0.19772614980155637 -0.4265154619727959 0.16689537671957957
0.19755584733450543 -0.434703780205951 0.16831692749960883
0.19734327742634417 -0.44278620641932853 0.1695481739106654
0.19712968373814918 -0.4505817151862864 0.17066216809987636
0.19695284002519065 -0.45785336272195465 0.17172445772556824
0.19682742704854742 -0.46436550667968696 0.1727591208344944
0.19674148377544678 -0.4700137690040267 0.17375695140922592
LINES 1 120
119 0 1 2 3 4 5 6 7 8 9 10 11 12 13 14 15 16 17 18 19 20 21 22 23 24 25 26 27 28 29 30 31 32 33 34 35 36 37 38 39 40 41 42 43 44 45 46 47 48 49 50 51 52 53 54 55 56 57 58 59 60 61 62 63 64 65 66 67 68 69 70 71 72 73 74 75 76 77 78 79 80 81 82 83 84 85 86 87 88 89 90 91 92 93 94 95 96 97 98 99 100 101 102 103 104 105 106 107 108 109 110 111 112 113 114 115 116 117 118
POINT_DATA 119
SCALARS Curvature float
LOOKUP_TABLE default
0.025283194198554383
0.021945804021216077
0.023578897052312208
0.03141264977044627
0.0458765177921455
0.06645230262828425
0.09165497771154522
0.11915210276977821
0.14601400604508757
0.1690685032486841
0.18531825304230562
0.19236813506009492
0.18880589797600278
0.17448255524313683
0.15064944396601926
0.11992538915729525
0.08608807821403344
0.053705997682083034
0.027648287315664277
0.01252688148266698
0.012136035890333454
0.02895723127941533
0.06379192541444723
0.11557117140925954
0.18137123354474505
0.2566403544797435
0.335616661604907
0.4118939440064427
0.47907359060680743
0.5314296967819967
0.564511698399045
0.5756152969803019
0.5640671958385387
0.5312905337329348
0.48064331296637686
0.41704849816717277
0.3464586109975128
0.27521664027470405
0.2093866415591904
0.15413015324840368
0.11319823510596791
0.08859438525622697
0.08044266348922327
0.08707065933970394
0.10529154301545561
0.13084642393043439
0.15895037384571248
0.18487482805678515
0.2044968072162975
0.21475159349496256
0.21393918472427984
0.20185416373744405
0.17973102400069507
0.15001962861469703
0.11602553336369606
0.08146496070856438
0.049992552400336975
0.024760834259551223
0.008063758302549094
0.0011038388687360638
0.003905131744834969
0.01537498457638598
0.03349866312013941
0.055635028146309044
0.07887033799053099
0.10038221748249443
0.11776726012413842
0.12929314595556998
0.1340483163314287
0.13197731909220492
0.1238057745967692
0.11087334706784872
0.09490424422528466
0.07775124263825788
0.06115037212385312
0.04651927991552553
0.03482375208223118
0.026525304957788803
0.021609958378464796
0.01968616420662433
0.020130128316021595
0.022250770155353424
0.02544506576562924
0.029317593731099677
0.03374515016611705
0.03887714507052107
0.04507357149873504
0.052792926384027064
0.0624509304640406
0.07427595363104982
0.0881879341485702
0.10372415269602256
0.12002800383635294
0.13590699077975837
0.1499550591870235
0.16072377783310235
0.16691840436930552
0.16758987731022468
0.1622930829664866
0.1511855604735648
0.13504866372638763
0.1152240216615995
0.09347039314296561
0.07175792113845118
0.05202658564891041
0.03594183721501217
0.02468195527471702
0.01878825772078967
0.01810124213805248
0.021794095681856
0.02850134512437087
0.03652663964365047
0.044101743129865104
0.04966052541354984
0.05208838095307947
0.05090970441858235
0.046383680950064635
0.039490799443248965
0.03180760047068606
