# vtk DataFile Version 2.0
Vessel Segment
ASCII
DATASET POLYDATA
POINTS 119 float
-0.0038357083831005562 -0.005493214104321342 0.0005365354700996432
-0.008260070397412837 -0.01126924298705618 0.002044232452530008
-0.013146908283572747 -0.017146919251466487 0.0043775250881765825
-0.01836820980107792 -0.022976288997165827 0.007267838037158521
-0.023811792336624546 -0.028650490424643293 0.010421110847594704
-0.02937988873476221 -0.03411147516456413 0.013554529215168903
-0.034969367835068134 -0.03932430031246118 0.01638991689117259
-0.04045718671918869 -0.04425746291187362 0.01866056087987696
-0.04570350904823998 -0.048880810376355915 0.020140553082528687
-0.05058141138655019 -0.05318750360946495 0.02068358807003718
-0.05500456847273405 -0.057213996826351504 0.020229100878721224
-0.05893490219999193 -0.061042234534445704 0.0187774580276924
-0.06235833685345679 -0.06478256533122102 0.016346905884114332
-0.06523623970969651 -0.06854359212660838 0.012993820122699914
-0.06750078585042465 -0.07242307738172477 0.008867144857692095
-0.06913087946564121 -0.07650784155850873 0.004218051075472253
-0.07016105385625915 -0.08087875957272954 -0.0007313976668641767
-0.07061937492426915 -0.08556535170210072 -0.005826980179056073
-0.07051435088634252 -0.09052872587317994 -0.010958152824734642
-0.06986028952050306 -0.09568403402636573 -0.01602279722714003
-0.068694787871119 -0.10093239150738209 -0.020941483760295983
-0.06708112762006331 -0.10616453374606381 -0.02564792244373004
-0.0651159175409638 -0.11126867216012694 -0.030067572362324886
-0.06292553311635542 -0.11613552329134377 -0.03409960453994551
-0.0606570601984243 -0.12064782627278418 -0.03761215161488736
-0.05845861434615308 -0.12468144633573132 -0.04048337502710444
-0.05644174440945213 -0.12816997636837044 -0.04266664245247784
-0.05467547151193127 -0.13114727503302645 -0.04417406534505506
-0.05319084457087921 -0.13367203188836596 -0.045026172126937644
-0.051997150624056854 -0.1357638621889864 -0.04525221925992494
-0.051062167018637916 -0.13746321577653184 -0.044922450063128005
-0.05030575382586729 -0.13887258344320252 -0.044099641886203286
-0.0496524215307738 -0.14010671536427288 -0.042716808771247304
-0.04908125544752177 -0.14116340681903072 -0.04062449803336484
-0.04861117608445439 -0.1419483822554119 -0.037742519162496144
-0.04826069972986206 -0.14236186137907367 -0.03407917447218058
-0.04804829886030465 -0.14233341120026904 -0.029692655762737538
-0.0479981529166498 -0.1418353309762853 -0.02467616559639595
-0.04814032383029451 -0.14089223841120446 -0.01914885251915312
-0.048505483336760434 -0.13957818760338608 -0.013266699910775157
-0.04908888869085522 -0.13803014968469224 -0.007247959326522779
-0.049851165393201176 -0.1364224536093064 -0.0012749606718386744
-0.0507465823217708 -0.1349098902296241 0.004532977220441908
-0.05172404819106549 -0.13360582733593304 0.010107645609436965
-0.05272825369561672 -0.13258206297628766 0.015441744320677535
-0.05370495467046963 -0.13188185146724254 0.020589423229674837
-0.054601141192095505 -0.13154654816366665 0.025630196298371495
-0.0553643138707214 -0.13163096800767635 0.030621681615965395
-0.05595086184396571 -0.13219474031493003 0.03557562187960052
-0.05633284073063267 -0.13328986236819063 0.04047070454645473
-0.05649752838995288 -0.13494933400324827 0.045270381701551725
-0.05644753212804147 -0.13718958513753737 0.049949907520092096
-0.056197505163502914 -0.14002567360810855 0.05450053690461003
-0.05577222726237418 -0.14346830539261918 0.05891743983459186
-0.05520447663877497 -0.1475151774466405 0.06319304025500386
-0.054528864324250706 -0.1521470695885389 0.06731501136534762
-0.05377502616709597 -0.15733083730448963 0.07126474574585656
-0.052963721820901886 -0.163024958959947 0.07502159716192464
-0.05210551576397507 -0.16917705699241659 0.07856465103204778
-0.051204047268632355 -0.17570385204492764 0.08186799352896977
-0.0502597620258758 -0.18248567818177563 0.08490843563953039
-0.0492605731763656 -0.18938630176074633 0.08768284520166053
-0.04817658755656052 -0.19626868567511027 0.0902034169465043
-0.04696358789456807 -0.20300107192269295 0.09249782972734322
-0.04557164501288648 -0.20948148965278035 0.0946124237558866
-0.043959554483936736 -0.21564788128078205 0.09660318898788252
-0.04210363771022448 -0.22147278457967057 0.09852301031548687
-0.03999887355950961 -0.22695737507526564 0.1004170758428262
-0.03765205147482887 -0.23213154118897555 0.10232472028587432
-0.035068274906453686 -0.23704627102589654 0.1042840796891307
-0.03224303805994238 -0.24175126177621264 0.10633197912067642
-0.02916500783283694 -0.24627287390649968 0.10850511362698004
-0.025824030501929423 -0.2506028624068986 0.11083805258058656
-0.02221982943763083 -0.2546974433577622 0.11335892170586681
-0.018366851741386695 -0.2584916320602443 0.11608492470625915
-0.014290371562804431 -0.26192326168676644 0.11902370548711386
-0.01001262459931526 -0.26495113818669935 0.1221816481639561
-0.00554220489400496 -0.267556469961931 0.1255670663335873
-0.0008727527413568683 -0.26973762503574483 0.12918206000748678
0.004015097737039777 -0.2715067248470166 0.13301513126053188
0.009150484776451688 -0.27288639430217565 0.13704076956854044
0.014563126305484873 -0.2739008847779158 0.14122534369849832
0.020272193308085558 -0.27456821360003886 0.14553053244256026
0.026275530907604955 -0.2748983538396417 0.14991783044374588
0.032544060473860555 -0.2748974143799364 0.15435825157092511
0.039022847626733075 -0.2745737964902371 0.1588346715826881
0.04564053514038889 -0.27394842627923655 0.16334269436765358
0.05232320673478778 -0.27305808201649784 0.1678828920634811
0.05900649890862764 -0.2719553441017338 0.17245503725603062
0.06564500670667595 -0.2707004834030148 0.17705513605700926
0.07221869726333002 -0.26935524645031195 0.18167494664349848
0.07873003709281623 -0.26798168709302744 0.1863045595441971
0.085193220236648 -0.2666437664838483 0.1909335684211042
0.09161744639766033 -0.26540904271327587 0.19554863298160802
0.09799403599258513 -0.26434198857960933 0.20013568817945693
0.10429551840179288 -0.26349927396569217 0.20468225881497526
0.110479640830815 -0.2629270110108396 0.2091824465224646
0.1164918267014725 -0.26266203114146003 0.21363598000136355
0.12227060049665295 -0.2627323947769468 0.2180483040236285
0.12775314989696948 -0.26315721638380624 0.2224300675427589
0.13287663592278595 -0.2639485855300966 0.22679313058845937
0.1375733327879676 -0.26510964527101727 0.23113986345702187
0.14177373091432224 -0.26662764980108467 0.2354494008707176
0.14542641074718748 -0.2684687921674675 0.23967857806590634
0.14852367974724928 -0.2705894497298041 0.24378145680076288
0.1510989077969997 -0.27295700213942337 0.24773474771212034
0.15320194964021705 -0.27555842609594833 0.25154349603434956
0.154878507999681 -0.27839628007497513 0.25523357690526516
0.15616234685285207 -0.28147714040657884 0.25884123235762396
0.15707846127733296 -0.2848013017850035 0.2624059535361062
0.15765298340954184 -0.28835551648754615 0.265963527520703
0.15792188352270617 -0.29211372611631947 0.2695448447883239
0.15793205101970287 -0.29604980983452234 0.27317608405759464
0.157735769355929 -0.3001486971010902 0.2768796408715857
0.15738614604910306 -0.3044093971754715 0.2806753918790889
0.1569409147336624 -0.3088271958647233 0.28457534905197857
0.15646867561107755 -0.3133549907733977 0.2885637117776879
0.1560496767566772 -0.31786332940579 0.2925651656230961
0.15576080719467705 -0.32214961488951144 0.29643636822940295
LINES 1 120
119 0 1 2 3 4 5 6 7 8 9 10 11 12 13 14 15 16 17 18 19 20 21 22 23 24 25 26 27 28 29 30 31 32 33 34 35 36 37 38 39 40 41 42 43 44 45 46 47 48 49 50 51 52 53 54 55 56 57 58 59 60 61 62 63 64 65 66 67 68 69 70 71 72 73 74 75 76 77 78 79 80 81 82 83 84 85 86 87 88 89 90 91 92 93 94 95 96 97 98 99 100 101 102 103 104 105 106 107 108 109 110 111 112 113 114 115 116 117 118
POINT_DATA 119
SCALARS Curvature float
LOOKUP_TABLE default
-0.022645691021704998
-0.02097118813051651
-0.007248182612089742
0.01874140907314131
0.05581727190604395
0.10139040730563535
0.15163773302913705
0.20185399827028183
0.2469490284948624
0.28203677428611174
0.30304701151892866
0.30728319200093873
0.29385222743372635
0.2639040322210941
0.22063929740393456
0.16907089505335013
0.11555429780106474
0.06713171742764204
0.03075956404835668
0.012506002987395086
0.016812432085792823
0.045908433496648735
0.09945438885885588
0.17446110666983922
0.26550434179503096
0.3652177209111881
0.4650144839378116
0.5559606797575747
0.6297034812531387
0.679350531254947
0.7002007598656904
0.6902434839797723
0.6503689120926214
0.5842663022397359
0.4980219835323353
0.39946392476699233
0.2973283738679415
0.20034385488664325
0.11633617457074208
0.05145414532844782
0.009600075934334642
-0.007876256525339355
-0.0021932686143169102
0.023129645862440915
0.0627820088832896
0.11034750195592007
0.15907887415553137
0.20266926244173866
0.23593055555946862
0.2553039844625703
0.25915125273619444
0.24780312162449777
0.22337272328946112
0.18936915960926412
0.1501696882229896
0.11042334039563273
0.07446361621840694
0.04580271158123826
0.02676558621267148
0.018301239551427182
0.019983785737777822
0.03019067385113794
0.04642299552731282
0.06571608454330793
0.0850795232666265
0.10190512899540949
0.1142892297956005
0.12123018600731439
0.12268141813667816
0.11946135762553681
0.11304177791062923
0.10525217103312823
0.09794810319269515
0.09269458769342499
0.09051126026793685
0.09171536268711629
0.09588295604697046
0.1019307422328165
0.10830300307158094
0.11323301479643402
0.11503796024732595
0.11240221274003356
0.10460636552748971
0.09166803456337272
0.07437390578128351
0.054198706095952426
0.033123362013226326
0.013379166515701138
-0.002844773866982187
-0.013688651698515394
-0.017862781443911995
-0.01480852371506664
-0.004757748120640207
0.011315689128394382
0.03184317628315178
0.05488377273813157
0.07838772696884759
0.10046157077790226
0.11959581283418282
0.13482263011918813
0.14578219603188508
0.1526906942345055
0.15621847867302383
0.15730092485252
0.15691513033695084
0.15586111841986633
0.1545856801275281
0.1530804470049988
0.15087411395459613
0.14712360682477543
0.1407926453793367
0.13089105654362038
0.11673669235470314
0.09819578142499609
0.07585811781691275
0.051110854711302764
0.026088017423271128
0.0034904703896959403
-0.013709433435775843
