# vtk DataFile Version 2.0
Vessel Segment
ASCII
DATASET POLYDATA
POINTS 119 float
-0.0030408564829023286 -0.005174156920234031 0.0003431268746934419
-0.006778808137548639 -0.010888510632868942 0.000982185955598527
-0.011044726179799777 -0.016887099809735392 0.001802336471518148
-0.015631430767782208 -0.022918238642582266 0.0026533065961544715
-0.020356826997515856 -0.028798483464729525 0.0033923401269335563
-0.025084389758382557 -0.034427051432083154 0.0038881759901919846
-0.029707876979226135 -0.03975620028556274 0.0040083596444199215
-0.03413264658481739 -0.04476271170214679 0.0036241008718903987
-0.0382732671620479 -0.04943838613488011 0.0026346389805169275
-0.042071476503795086 -0.05380312330732011 0.0009916852995287798
-0.04551011607792008 -0.05792496208719916 -0.0013200948954883978
-0.04858442354691017 -0.06189783809232184 -0.004318238489102155
-0.051262968460270605 -0.06580144837085568 -0.008002840517393268
-0.053488459228782224 -0.06969401608198315 -0.012313090082868317
-0.05520371451921849 -0.07361936101630419 -0.017134775575037085
-0.056369778274602135 -0.07760332579974347 -0.02233195226163654
-0.05696287080699052 -0.08165435203845191 -0.02779098297823392
-0.056963850411820456 -0.08576167990902142 -0.03341424056849557
-0.05636994608096813 -0.0899154517878232 -0.03912122767785947
-0.05519252440779637 -0.09411823051770749 -0.044849814522141034
-0.05345345513729812 -0.09838911267653785 -0.050551446027426096
-0.05118661110345497 -0.10275242068381198 -0.05616904943705491
-0.04845268640399005 -0.10722474701776491 -0.06161087660603921
-0.04535273698371235 -0.11180120103546869 -0.06673923216660214
-0.04203447130665726 -0.11643848717541198 -0.07137760813997203
-0.0386843771568356 -0.12104599983787931 -0.07534127348929895
-0.03549784922460658 -0.12550066827389703 -0.07848324487639388
-0.03264058145370328 -0.12967670685975918 -0.08072181766617227
-0.030229796416622164 -0.1334509473528476 -0.08203984581298135
-0.028326178025257425 -0.13670928762467655 -0.08249820516299619
-0.026913487833260124 -0.13940885040323303 -0.08223049393528545
-0.02591525334199244 -0.14159828919119083 -0.08137857176568243
-0.025245760396203624 -0.14338358386880395 -0.080009939985312
-0.024849773249606598 -0.14485018882235934 -0.07811618908304187
-0.024698233264825897 -0.1460444709289291 -0.07565491299384211
-0.02478630847838447 -0.1469785760456791 -0.07257540649228385
-0.02512594680966599 -0.14763962244184892 -0.06884891438652442
-0.025729543656514305 -0.14799895540563085 -0.06449900970948941
-0.026585667928846424 -0.14803345716739671 -0.05963359357324513
-0.027640712353368655 -0.14776196853469345 -0.05443375751908718
-0.028804714636271593 -0.14726195227405284 -0.049088146970957286
-0.029979794970451227 -0.1466498994641537 -0.043729599058100505
-0.031082816554709052 -0.14605122447403757 -0.0384302570493221
-0.032051100766617054 -0.14558641341497505 -0.033219693045771014
-0.032842264399068434 -0.14536660724618888 -0.028102250744905362
-0.033431592394680104 -0.14549111766933084 -0.023069369312470563
-0.03380871559566341 -0.1460495516379474 -0.018105216572514904
-0.03397458615204891 -0.14712649846768927 -0.013197953353147277
-0.03394251434614039 -0.14879421145070143 -0.008364385198875876
-0.03373819712797602 -0.15108894303613568 -0.0036543793677985955
-0.033392067841122045 -0.15400417554708865 0.000876311294563707
-0.0329335008535857 -0.15751136788880682 0.005187438906147035
-0.032386416541022194 -0.16157551897867056 0.0092512336485641
-0.03176598139086643 -0.16615624354579464 0.013048811376788948
-0.031076547777625224 -0.17120850103544596 0.016578165295638096
-0.03031098203762677 -0.1766835538982878 0.019859684970484178
-0.02945203180565235 -0.18252542490821302 0.022931231847688027
-0.028477699580474587 -0.18866336148154964 0.025837090257167343
-0.027367804548869862 -0.1950134387769479 0.02861456163920157
-0.026108692820660043 -0.2014923357952936 0.031287882580229125
-0.02469216985929483 -0.20802833908053373 0.033874353728444065
-0.023105055134108047 -0.21456755301689032 0.03639343949398908
-0.021324725821876646 -0.2210681019530425 0.03886324310026636
-0.01932453381598687 -0.22748795304265423 0.041298518997414865
-0.017079457115908157 -0.23377920184554593 0.0437125112125891
-0.014571132362364573 -0.23989013375807566 0.0461189140617326
-0.01178888971944514 -0.24576715079932454 0.04853384521404858
-0.008727730176676248 -0.25135761129242407 0.05097662004559876
-0.005386830428844936 -0.2566114589086202 0.053468881690490334
-0.0017688606633052264 -0.26148618975086685 0.05603250102387796
0.0021208451787880713 -0.2659519516688196 0.058688487011355636
0.006276477461671301 -0.2699965470614847 0.061457100924341514
0.010695057676440077 -0.2736266455799108 0.06435845583813567
0.015376674039674385 -0.276861663571049 0.06741196808397756
0.020319477383215927 -0.279725392432722 0.07063240933656169
0.02551300666332798 -0.2822430022891201 0.07402279000216844
0.030938411823238633 -0.28443971515555544 0.07757186278247187
0.03657290762206849 -0.2863383254969776 0.08125574362509609
0.042394320881403234 -0.2879578905903641 0.08504262184446315
0.048385170114119566 -0.28931417239313567 0.0888984435703474
0.054534861621469664 -0.29042189931015605 0.09279468207185469
0.06083723608761435 -0.29129466634013845 0.09671470588120423
0.06728482402464614 -0.2919455519987841 0.10065420070086055
0.07386323439603087 -0.2923888255301027 0.10461962000821665
0.08054608484850535 -0.29264350557908647 0.10862347971448176
0.0872907299899769 -0.29273739515222363 0.11267880524418734
0.0940378853191914 -0.2927104943628555 0.11679402185005881
0.100716570720802 -0.29261607525127326 0.12096865883199566
0.10725153601434771 -0.2925174279215963 0.12519068159503263
0.11356997326974522 -0.29248207729140613 0.1294384934383764
0.11960587815265124 -0.2925766924140671 0.13368281409163285
0.12530425101527756 -0.2928572136505278 0.13789075472666454
0.13062561926525978 -0.2933626529877242 0.14202987462874855
0.13555298161711726 -0.2941124849920054 0.14607188280263833
0.14009613596404438 -0.2951123464452667 0.1499999933125632
0.14428450264989734 -0.29636323160541467 0.15380957031774448
0.14815567375782393 -0.2978694799169598 0.1575050098473318
0.1517470195896538 -0.299641549501129 0.16109622760724837
0.15508947837936937 -0.30169617016351824 0.16459561838164005
0.15820374018657954 -0.3040534347686132 0.1680172229708534
0.1610984141979109 -0.30673139033357816 0.1713758409977119
0.16376983887592872 -0.3097417995083371 0.17468666386617618
0.1662045477104348 -0.31308755498938307 0.17796227486386032
0.16838478189997397 -0.316762462797798 0.18120967033602858
0.17029652393803196 -0.32075534825104546 0.18442926913180466
0.17193278126095324 -0.3250553887265041 0.18761650780626474
0.17329255379932382 -0.32965427708252126 0.19076242489371803
0.17437894745048643 -0.33454478642202 0.19385281178405106
0.17519918126126532 -0.33971654515997834 0.19686915752093517
0.17576574951133564 -0.34514992788005994 0.1997911717997308
0.1760986010780094 -0.3508124502326246 0.20259926034024328
0.1762256981403355 -0.3566597823201309 0.20528132647309386
0.1761812399595907 -0.3626406560112247 0.20783768749507822
0.17600345497895395 -0.36870057069639944 0.210284216702099
0.17573483083203528 -0.37477780555625484 0.21265100142553026
0.17542507672582314 -0.38078595214105954 0.21497290534336788
0.1751263051151797 -0.38658787549263585 0.21726904313874468
0.17488177765936452 -0.3920013709916303 0.21951642174732205
0.17471566681613218 -0.39687368196123196 0.2216577726260988
LINES 1 120
119 0 1 2 3 4 5 6 7 8 9 10 11 12 13 14 15 16 17 18 19 20 21 22 23 24 25 26 27 28 29 30 31 32 33 34 35 36 37 38 39 40 41 42 43 44 45 46 47 48 49 50 51 52 53 54 55 56 57 58 59 60 61 62 63 64 65 66 67 68 69 70 71 72 73 74 75 76 77 78 79 80 81 82 83 84 85 86 87 88 89 90 91 92 93 94 95 96 97 98 99 100 101 102 103 104 105 106 107 108 109 110 111 112 113 114 115 116 117 118
POINT_DATA 119
SCALARS Curvature float
LOOKUP_TABLE default
0.005717950947546683
0.0042392287439842295
0.010294639841157728
0.024948218879364437
0.04823391592786735
0.07901779661552753
0.11501652317308161
0.15298169468593287
0.18903697354412408
0.21913292592980707
0.239566198988932
0.24749769150172857
0.24140062740030027
0.22137474936882023
0.1892768658804784
0.14863919139161372
0.10437279711108742
0.0622808259406981
0.02843141887705119
0.008460214929354427
0.006884090892657828
0.026509744295882418
0.0680122598480917
0.12974072262359473
0.20778227918413134
0.2962858355667133
0.3880154877270356
0.47507565103569194
0.5497282256768662
0.6052097759744306
0.6364552623677199
0.6406446506748981
0.6175086467692115
0.5693575114032652
0.5008290666588167
0.4183847146088436
0.32961157443950534
0.24241115023144394
0.16416757603733068
0.1009899558268986
0.057113514232497616
0.03452448143785764
0.032846356292061285
0.04949383106863221
0.08006909199728701
0.11894728277590443
0.1599769807900368
0.19721001736295926
0.2255740936765473
0.24141127732067824
0.2428241770986211
0.2297968475821759
0.2040859684718688
0.16890594538488873
0.1284557944097971
0.0873530885530649
0.05004888488196575
0.02029661159969605
0.0007378146752213662
-0.007349958016980503
-0.004120501072064268
0.008956533857348167
0.02936874818276673
0.05394754442339714
0.0793115382823268
0.10230583870245982
0.12038001581076771
0.13185880169901304
0.13607641375743146
0.1333653720330595
0.1249109781814701
0.11250046218879942
0.09820883759706711
0.08407012301225077
0.0717821076292651
0.062485584151787364
0.05664619838919125
0.05405076002651572
0.05391245252519128
0.055063391139764196
0.05620066115155959
0.05614500183389606
0.05407056200323669
0.049669606376201304
0.043226774834654605
0.03559182208724071
0.028055531805633135
0.022148367613252316
0.019393213361182517
0.021050558050237124
0.027895700232672415
0.0400628368751085
0.0569809824304682
0.07741301242926393
0.09959376011455355
0.12144827969780936
0.1408593100284867
0.1559454150440402
0.16530937308416443
0.1682204450658629
0.16470361129867225
0.1555223757862113
0.1420573416920503
0.12609818655952568
0.10957963995751405
0.0943006521697383
0.0816688205151108
0.07250880561356476
0.06696431804010765
0.06450953544229412
0.06406945753836532
0.06423207679288863
0.06352077853414648
0.060685265915751796
0.054965131773530566
0.046282748254600416
0.035331241791608785
0.02353784269229543
0.012900910914578857
