# vtk DataFile Version 2.0
Vessel Segment
ASCII
DATASET POLYDATA
POINTS 119 float
-0.002855870368729218 -0.005100488482418392 0.00029805603923495545
-0.006439253184303485 -0.010814030067130966 0.0007315649044218127
-0.010582175455965345 -0.01687812459199342 0.0011937179152594231
-0.015063452296342771 -0.023018061199636834 0.0015662870548076137
-0.019683787692518693 -0.029027675676392636 0.0017444525352187077
-0.02429433212863892 -0.03479063392324245 0.001630738370528222
-0.028783676634794843 -0.040251838947388305 0.0011203356437744076
-0.03305767233584589 -0.045386219620329675 0.0001066561198100795
-0.03703415154391123 -0.05018510726104072 -0.0014919882834340584
-0.040658171186415765 -0.054665366504397545 -0.003704461749810332
-0.043917828235230945 -0.05889259320855889 -0.00652780868687049
-0.04681445920965173 -0.0629590835569511 -0.009968008184860199
-0.04932021267534202 -0.06693880439364006 -0.014013276098587218
-0.051384552995022405 -0.07088332732591884 -0.01859391506268578
-0.05296119002535224 -0.07482953974767005 -0.023606965176180293
-0.05401001162493728 -0.07879375018352144 -0.028952690052061178
-0.05449325019890693 -0.08277075385643233 -0.03455064112974697
-0.05437933289120815 -0.08674342808823256 -0.04032135981118696
-0.053661099225933255 -0.09071076883988721 -0.04619375549107999
-0.05234710846742851 -0.09469577797396724 -0.05211614373941866
-0.05045372656926456 -0.09874345359575736 -0.058046713456590654
-0.04800695484829134 -0.10290738080871405 -0.06392860344937983
-0.04505880397021499 -0.10723380535318876 -0.06966340367880537
-0.04170426354981192 -0.11174458360550138 -0.07510252758522665
-0.03809089024916894 -0.11641863859413709 -0.08005780182935185
-0.03441476873685687 -0.12117989134329239 -0.08432839943533015
-0.030894566882102837 -0.1258972490864772 -0.08774010511743907
-0.027724138542731806 -0.13040594269362774 -0.09018497768739925
-0.025047037719048156 -0.13453213421207152 -0.09163550147962897
-0.022939994213802058 -0.13812265359179232 -0.09216305112625511
-0.021391378831555372 -0.14111055638336212 -0.09191953757658732
-0.020325024088182986 -0.1435269510098827 -0.09106453459178043
-0.019649512854444204 -0.14547071667031752 -0.08969684163197593
-0.019295276809464166 -0.14705008084958715 -0.08784131997746335
-0.019218133301658256 -0.14834917405799214 -0.08546329944931279
-0.019408001554207938 -0.14940970689581295 -0.08249778922204305
-0.019877237179785463 -0.1502343621511875 -0.07889585089141983
-0.02063714007380123 -0.15079528038107484 -0.07466607458849306
-0.021666134662307098 -0.15105769012710235 -0.06991716386770198
-0.022888675448011073 -0.15102674524872478 -0.06484089790654102
-0.024193741458866734 -0.15076740148957632 -0.05962290561655244
-0.02546957797131606 -0.15038468930582624 -0.0543861302762362
-0.026624495724975047 -0.1499985193053851 -0.04919053298016936
-0.027593145376869063 -0.14973168403010978 -0.04405269583524414
-0.02833551653712237 -0.14970497276796296 -0.03897089233194193
-0.028832800457405845 -0.15003184889341117 -0.033942734430168486
-0.029083695869260445 -0.1508154643085014 -0.02896535615521982
-0.029100814595853085 -0.15215080553101373 -0.02403856890511382
-0.02891049630006243 -0.1541163359513383 -0.019189443256087534
-0.02855220885206943 -0.15674485105967037 -0.014480344492974428
-0.028068870224502118 -0.1600170288658813 -0.009977070521121532
-0.027498597677053208 -0.16388842501472864 -0.005726300802694505
-0.026869075073459824 -0.16830694169334412 -0.0017602986486713636
-0.026193391543963034 -0.17321629001948544 0.0019004918050055785
-0.02546831468399764 -0.17855919659200192 0.005257594398462805
-0.024675726870844163 -0.18427868467289038 0.008340940708551849
-0.023786501905715393 -0.19031207440788073 0.011203048526062777
-0.022768260118878766 -0.19658049075112835 0.013904794874820115
-0.021593720367579623 -0.2029928628454706 0.016498489962897597
-0.02024531138811256 -0.20946861860858895 0.01902099402325303
-0.01871236596761304 -0.21595136351519068 0.02149953327835026
-0.01698017784849015 -0.22241017280126377 0.023959362996672902
-0.015025919343650622 -0.22882779681653642 0.02642081399918375
-0.012825127633865969 -0.23518406408531078 0.02889661042706785
-0.010357705150625628 -0.241443350781485 0.031392785663289964
-0.007611047234701622 -0.24755535602557674 0.03391285675473651
-0.004578613671190363 -0.25345928340458396 0.036463593702396664
-0.001256245127323532 -0.2590889337291659 0.03905757419620066
0.0023584909240401287 -0.26437452898672886 0.04171191553944726
0.006263724656587059 -0.26925066974778183 0.04444450068720642
0.010452232886330359 -0.2736683991435396 0.04727273381583422
0.014914736499445795 -0.27760654962785614 0.05021328299516581
0.019645577115932615 -0.28107500211390485 0.05328296337173035
0.024644379409484753 -0.2841066371482978 0.056498549720745354
0.02991052964671454 -0.28674430957709385 0.05987259268452565
0.03543412862229769 -0.28903320921787035 0.06340430399510251
0.041193828275322954 -0.2910160106907281 0.06707513086932074
0.047160914688735504 -0.2927288608470034 0.07085108822285652
0.05330529225833992 -0.2941992933624034 0.07469159974097632
0.05960071442114313 -0.2954461290228284 0.07855841860539828
0.06602743285529081 -0.296482653572723 0.08242452957151361
0.07257091289756591 -0.29731919432250037 0.08627959077463226
0.07921746596174703 -0.29796659698016287 0.09012906525984278
0.08595028575184854 -0.2984392826934483 0.0939911744082938
0.09274481659954531 -0.2987587889107406 0.09788899760997957
0.09956311429944889 -0.2989571752433632 0.10184334361404151
0.10635082919863967 -0.2990785452022125 0.10586639038903599
0.1130397587658426 -0.2991794155334026 0.10995827510564922
0.11955407502253691 -0.2993245694829003 0.11410515385854152
0.12581659990000815 -0.2995817771586082 0.11828247152469673
0.1317531458001646 -0.30001688954276995 0.12245755554280668
0.13729866650331396 -0.30068204107095015 0.1265939797693392
0.14240531124842884 -0.3016082793851059 0.13065610274786169
0.14705392464164857 -0.3028032405434032 0.13461376118303361
0.1512609336710057 -0.3042609224935481 0.13845063131084276
0.15506847019768924 -0.3059740211288874 0.1421643103965273
0.1585291747672158 -0.307943390851779 0.14576134311199843
0.16169560309733505 -0.31018021634999426 0.14925290241832498
0.16461240154566886 -0.3127051242055382 0.15265093186459391
0.16731158323295053 -0.31554384352997256 0.15596717745056052
0.16981075798329376 -0.3187192451432763 0.15921271763187644
0.17211449673328286 -0.32224619011578837 0.16239997512588492
0.17421756148114842 -0.3261301556166533 0.1655428538801951
0.1761084510046806 -0.3303687893236527 0.1686544108458826
0.17777376997768302 -0.33495472343207305 0.17174261223821916
0.17920164265270902 -0.33987708481904644 0.1748065738107697
0.18038466516439897 -0.3451225961645123 0.1778350721702938
0.18132160093607946 -0.3506759144310043 0.18080635025246428
0.1820186873956286 -0.35651866258550147 0.18369129647169916
0.18248970363655634 -0.36262506839531083 0.18645810619325476
0.18275563326514496 -0.36895921693141887 0.1890768544522501
0.18284309251491723 -0.37547485066363556 0.19152805061316563
0.18278244057816753 -0.38211587924016216 0.19380866953123552
0.18260730091084434 -0.38881637310593414 0.19593611525825924
0.1823566828413059 -0.3954941326809079 0.19794668127779388
0.18207792059166916 -0.4020345976549335 0.19988511661043534
0.18181884313304356 -0.4082707209759653 0.20178299417402218
0.18161363984759937 -0.41400406999555955 0.20363136300181833
0.18147445307252733 -0.419097155696817 0.20539006732447224
LINES 1 120
119 0 1 2 3 4 5 6 7 8 9 10 11 12 13 14 15 16 17 18 19 20 21 22 23 24 25 26 27 28 29 30 31 32 33 34 35 36 37 38 39 40 41 42 43 44 45 46 47 48 49 50 51 52 53 54 55 56 57 58 59 60 61 62 63 64 65 66 67 68 69 70 71 72 73 74 75 76 77 78 79 80 81 82 83 84 85 86 87 88 89 90 91 92 93 94 95 96 97 98 99 100 101 102 103 104 105 106 107 108 109 110 111 112 113 114 115 116 117 118
POINT_DATA 119
SCALARS Curvature float
LOOKUP_TABLE default
0.012595678552303823
0.010311453144443853
0.014630661498451972
0.026727415565198673
0.04682142818672031
0.0740296824363316
0.10636622099364935
0.14090083616053048
0.17406583232733647
0.20207887649996767
0.2214321576429959
0.2293861920900872
0.22440247661475438
0.20645365885742945
0.1771627003408501
0.13974226693707095
0.0987299493213808
0.0595408685103215
0.02788344020359989
0.009103370208765444
0.007532697850869638
0.02592316859986781
0.06503582558986706
0.12344213503744093
0.19756806104765962
0.28198410723260353
0.3699148946643763
0.4539149885159219
0.5266367911739175
0.5816040594390396
0.6139026032016724
0.6207083462601231
0.6015912217730113
0.5585591725983997
0.4958367251557835
0.4194035421371651
0.3363462725338376
0.2540985165055881
0.17965621250526756
0.11885775832487991
0.07580951966762324
0.052519198855242755
0.04877413768606933
0.06227218691595259
0.08898292977932955
0.1236904425330186
0.16064860352664626
0.19426856973422668
0.2197566427957164
0.23362929705445754
0.2340493530035671
0.22095080956817137
0.195946617261607
0.16204026656239184
0.1231851729844098
0.08375267819065624
0.04797813924545259
0.019454222719505213
0.0007315057228679822
-0.006929741659644753
-0.003633830141242006
0.009249670022017034
0.029336438248289878
0.053588503691926616
0.07873323387439074
0.10168283278139295
0.11990003895212602
0.1316658108050087
0.1362202798013105
0.13376684560083055
0.1253483470293013
0.11262116235456208
0.09756564666403338
0.08217795067205316
0.06818829812117357
0.05684447875625179
0.04878776777158324
0.04403353452711057
0.042052701596486323
0.041935307369425585
0.04260582556662325
0.043053190390569894
0.04253751307894255
0.04074025410999183
0.03783430377330604
0.03446349258876103
0.03163550457337052
0.030545829233444604
0.0323612327235233
0.037997659046104526
0.04792855400807336
0.062055195803012234
0.07966138326086164
0.09946215160637316
0.11974193891626803
0.13856393033178105
0.15402120279444204
0.16449345013323438
0.1688715402179842
0.1667162238123963
0.15832644194883996
0.14470558220888194
0.12742886489941951
0.10842964458393588
0.0897346423164192
0.07318614648170799
0.06019178736772386
0.051539127654297086
0.047303396383094824
0.04686341866922753
0.04902500348796521
0.05223499511761574
0.05485520508130652
0.055455610090467226
0.05308206782366585
0.04745612595723046
0.03907313385686797
0.02917875707641299
0.01962130903496213
