# vtk DataFile Version 2.0
Vessel Segment
ASCII
DATASET POLYDATA
POINTS 119 float
-0.003231196621942376 -0.005250351171808867 0.0003894626811456417
-0.007130204972235408 -0.010971681216786551 0.0012380367457254667
-0.011531400799250031 -0.016919861986477193 0.0024215937659467857
-0.016243968286253685 -0.022867540802691322 0.003757598678657389
-0.021103089360751056 -0.02865263500905596 0.005065018709375674
-0.02598332145597584 -0.03418775116232285 0.006177432487459169
-0.030781498010155776 -0.03943039166572462 0.006931853604673626
-0.0353994254974698 -0.04435699262332625 0.007173329609642188
-0.03974402782064748 -0.04895671969059435 0.006778744434113065
-0.04374860771200388 -0.05324810285688056 0.0056807944245322066
-0.04738718666615738 -0.05729759599156846 0.003850845734031384
-0.05064923443135998 -0.06119955902252845 0.0012664847802827746
-0.05350328800137042 -0.06504079575101732 -0.00207902883101007
-0.055889450561891686 -0.06888879147854103 -0.0061323062058493754
-0.057742292077756975 -0.07279688534477011 -0.010769999790147788
-0.059024843793625464 -0.0768026492716696 -0.01582341130313224
-0.05972730972430219 -0.08092985079918517 -0.02114834063524774
-0.059842596755440326 -0.08517540935302652 -0.026630739718898733
-0.059371622916767425 -0.08952109151769344 -0.032181564530293076
-0.058327719417786146 -0.09394840099197962 -0.037728438224998946
-0.05673768499923605 -0.09844922310041442 -0.043215570284711464
-0.054643167962201526 -0.10301726136839957 -0.048584634417492285
-0.052113783731186386 -0.10763879431766146 -0.053749396528616336
-0.04925684735260801 -0.11228261600496067 -0.05858228641858146
-0.04622013952457165 -0.11688470202440823 -0.06291828398983661
-0.043180556819396844 -0.12134228375923858 -0.06658868616648751
-0.040311093347456514 -0.12554263003072808 -0.06947298025903104
-0.037750791236138045 -0.12939918003896395 -0.07151466132002345
-0.035592406144404364 -0.13283729803374167 -0.07270660046603734
-0.03388183457176188 -0.13577967909524705 -0.07310021702711209
-0.03259847923793983 -0.13820622810209027 -0.0728118329360316
-0.03166535674830424 -0.14018161369180995 -0.07196490025563866
-0.031001247886934483 -0.1418171089671775 -0.0705946821745385
-0.03056303781909235 -0.14317580149791612 -0.0686585743694267
-0.030335635595236714 -0.14426733747959516 -0.0661056793119919
-0.0303197890634895 -0.14507497507987077 -0.06289975751690467
-0.030527922256977435 -0.14557080742859127 -0.05903286045770761
-0.030974217022294852 -0.14572574088811727 -0.05454449273134112
-0.031657234997337684 -0.14552815524195056 -0.04954317154599126
-0.032544591446262545 -0.1450102977026106 -0.044201053656383354
-0.033567214152084704 -0.1442628646662227 -0.038711566845225136
-0.034641339558419464 -0.14341493858103746 -0.033218466024382345
-0.03569281028760497 -0.1425982749060632 -0.02780595047158943
-0.03666186105171507 -0.1419314791145987 -0.022515261749812842
-0.037503435522550164 -0.14151622617609347 -0.017354678899972976
-0.038186216759859094 -0.14143799927217243 -0.012307397387633935
-0.03868999071396927 -0.14177369090820777 -0.007343535267060516
-0.03900335303951779 -0.14259879442757042 -0.002439879439973581
-0.03912628034044976 -0.1439804960713283 0.0023955637863132635
-0.039071166778010626 -0.1459583620448567 0.007123200916698811
-0.03885694606588424 -0.1485370622103335 0.011695370130696284
-0.03850520623245725 -0.1517018081461167 0.016077478677446067
-0.03803665526782274 -0.15543278436872227 0.020246556698782125
-0.03746855304782422 -0.1597043070795033 0.024186167278853143
-0.036812514465975506 -0.164483021157729 0.027891688081531415
-0.036072058815422796 -0.16972812548297955 0.031374589886534375
-0.0352416720444631 -0.17538996714799057 0.03465839827286757
-0.034309838112219854 -0.1814056312792027 0.037771011348202904
-0.03326373036995978 -0.18769871904585478 0.04073485369909173
-0.03209379573074958 -0.19418435879985588 0.04356144171581011
-0.03079417039940226 -0.20077691115415733 0.04625795356287125
-0.02935264198992973 -0.20740047640466155 0.04883806847494801
-0.02774592198686508 -0.2139888661749594 0.05131797156412638
-0.025944277807221115 -0.22047793572066762 0.05371495125177401
-0.02391729221812654 -0.2268070074016858 0.056049883305339256
-0.021640942969514194 -0.2329225097743231 0.05834676406219887
-0.019100835178533518 -0.2387778024583568 0.06063096293645129
-0.01629146174971747 -0.24433375875083208 0.06292841443095903
-0.013213669704147574 -0.2495601040978973 0.0652652640139571
-0.009870759919193737 -0.2544373214478101 0.06766743985022232
-0.00626584094092974 -0.2589548178195834 0.07015974200136492
-0.0024008473574561946 -0.26310944905417155 0.07276625560588529
0.0017241471164846736 -0.2669043603653338 0.07551047842912317
0.00610937736011587 -0.2703446786523433 0.07841416223500855
0.01075076640302104 -0.2734342308053984 0.08149350526685639
0.015635849496832888 -0.27617788979876845 0.08475416441103416
0.02074687160250826 -0.2785840863117242 0.08819104219232361
0.026066065643357637 -0.2806635163297051 0.09178961801272008
0.031578953321195265 -0.2824279485499953 0.09552683312008754
0.03727708171107551 -0.283890750737479 0.09937346842065947
0.04315937990529969 -0.28506816241705746 0.10330041431791107
0.049228327257118204 -0.28597672922065404 0.10728557698027165
0.055482854145202355 -0.28663132564292026 0.11131539350284633
0.061911242095978675 -0.2870456752435364 0.11538477703967892
0.06848575169201375 -0.2872359793179875 0.11949575199414224
0.07515970364695423 -0.2872255532664497 0.12365363995839507
0.08186966174724804 -0.287050069511164 0.12786331249941288
0.08854269727101696 -0.2867592929802363 0.1321240310642646
0.09510499772347876 -0.28641469211739673 0.1364260381918549
0.10148910144859699 -0.2860831389693636 0.14075130594478824
0.10763845454675969 -0.28583163289662317 0.14507475970996442
0.1135096953960295 -0.2857194681256468 0.14936804389075325
0.11907348430548367 -0.28579348524057774 0.15360300004071523
0.12431633930724688 -0.2860855976521861 0.15775411766539332
0.12924176427270095 -0.28661470070881606 0.16180469220936308
0.13386541334009758 -0.2873925185791579 0.16574790143330695
0.13820752544820336 -0.28842963554207 0.16958556011959036
0.14228701637049943 -0.28973845031209683 0.1733253400475355
0.14611744010861025 -0.2913339973229178 0.1769785818834475
0.14970465629329208 -0.293232187281981 0.18055968739096995
0.15304530850191864 -0.2954466057923063 0.18408482938642887
0.15612523549522397 -0.29798509109071986 0.1875693095961207
0.15892140676035327 -0.3008462119000372 0.1910217432000957
0.1614097761192993 -0.30401784309488994 0.1944410426020542
0.16357705727382493 -0.30748293122856385 0.19781922264840401
0.16542337458240566 -0.31122856554033723 0.20114834476545546
0.166956602352803 -0.3152492790881746 0.2044227022065202
0.16818652450552146 -0.31954419552416147 0.20763684918373443
0.16912332604631625 -0.3241100357681883 0.21078406351687204
0.16977967506772804 -0.32893345408848307 0.21385666798753084
0.17017525147014284 -0.3339864882792032 0.21684637148196007
0.17033944377661092 -0.3392282320467362 0.2197493212051868
0.1703099172358048 -0.3446131180956661 0.222570040747154
0.17012898367034615 -0.3500975560956186 0.2253240308396971
0.1698421720977157 -0.3556381014514313 0.22803692300214046
0.16950126711721053 -0.361173178077378 0.23073599757009758
0.16916239283815745 -0.36659231451993873 0.23343017229499702
0.16887771868842846 -0.371728086887782 0.23608336484784043
0.16868371725338988 -0.3764134849179932 0.23861962783017937
LINES 1 120
119 0 1 2 3 4 5 6 7 8 9 10 11 12 13 14 15 16 17 18 19 20 21 22 23 24 25 26 27 28 29 30 31 32 33 34 35 36 37 38 39 40 41 42 43 44 45 46 47 48 49 50 51 52 53 54 55 56 57 58 59 60 61 62 63 64 65 66 67 68 69 70 71 72 73 74 75 76 77 78 79 80 81 82 83 84 85 86 87 88 89 90 91 92 93 94 95 96 97 98 99 100 101 102 103 104 105 106 107 108 109 110 111 112 113 114 115 116 117 118
POINT_DATA 119
SCALARS Curvature float
LOOKUP_TABLE default
-0.0009661722483849298
-0.0015028515902969636
0.00649637943621881
0.023929076573816876
0.05058509975011239
0.08502867309133702
0.1246437218381174
0.16584969727795493
0.2044717340968631
0.23622658538479974
0.25726746329584244
0.26471935078739345
0.2571333969355073
0.23479542717341803
0.1998389247806285
0.15613540407008686
0.10896221823682403
0.06447615821615318
0.029047074423433527
0.008525770574867654
0.007531818270059454
0.028847998690530813
0.07299835241014317
0.13806723602100265
0.21978954698513778
0.3119106053789941
0.4067819165213201
0.49613016962651785
0.5719149819435753
0.6271788776031426
0.6567924085656044
0.6580083892357728
0.6307606898084543
0.5776723797403236
0.5037717059441545
0.41594835221000626
0.32221253532922617
0.23084209962046562
0.1495151531755289
0.08452649093868703
0.04017506125786223
0.018388483276740926
0.01862179520618009
0.038034800144770224
0.07191962142896645
0.11432137060399536
0.15877359908422192
0.19905890137530854
0.2299048419701885
0.24753606590104135
0.250023449055925
0.23739774392970914
0.21152490791197764
0.17576938096794786
0.13449639900309673
0.09248201032628682
0.05430782422863781
0.023815908912490937
0.0036882116924449437
-0.004803868593188406
-0.0018578962921165921
0.010989504132978986
0.03115320188443609
0.05540376585313738
0.08032598443533841
0.1027683668871935
0.12022485366578782
0.13110214092091757
0.13484389848457293
0.13190410863518626
0.12358282282719874
0.11175595223960938
0.09854386804076239
0.08596996230216891
0.07565926670447666
0.06861914518401215
0.06513033376061744
0.06475931244585305
0.06648471637596187
0.06891385555560384
0.07055274843375059
0.07008610062601901
0.06662324690330212
0.05987213937889438
0.050215000279291856
0.03867448986890255
0.026775892499715515
0.016326448714221058
0.00914529171109984
0.006784717854016054
0.010284719058218612
0.01999770442119646
0.035509913605678206
0.055671731525153006
0.07873306255474168
0.10256446928493354
0.12493218811303745
0.14378724342185067
0.15752684901997654
0.16519041166683418
0.16656214039407052
0.1621661065141387
0.15315556977555136
0.14111414112840992
0.12779956322322927
0.11486958152612926
0.10363222110370911
0.0948592894358904
0.0886925304424819
0.08465786769362807
0.08178659849388496
0.07882565314598011
0.07450460503141249
0.06781721006598099
0.0582714607399408
0.04606519936203823
0.032154007830611404
0.018193170600527952
0.00635396846046926
