# vtk DataFile Version 2.0
Vessel Segment
ASCII
DATASET POLYDATA
POINTS 119 float
-0.004012861935499233 -0.005564259826344716 0.0005796481141722807
-0.008595121672435027 -0.011363612554161639 0.0022802115495407925
-0.013639289859095446 -0.017240376325111058 0.004955229925928105
-0.019038015249705907 -0.023066135700171853 0.00831779535119648
-0.024693790982349344 -0.02874673999606692 0.012043546637603816
-0.03051540849770561 -0.03422997969518599 0.015813647493754843
-0.03639812198859611 -0.03948196213239136 0.019310356380307377
-0.042209370198287834 -0.04446867581710952 0.02222542494022876
-0.04779110465782415 -0.04915349768455694 0.024291985100192284
-0.05299039940458455 -0.05351881231276787 0.02533068399714983
-0.057693067176928375 -0.05758666969367995 0.025268331258372558
-0.061847505568561126 -0.06143065719742132 0.024119486945877247
-0.06544722919174104 -0.06516633131013128 0.021923711816777214
-0.06846761289816486 -0.06891612466381894 0.018749135967065983
-0.07084759491157393 -0.07279416292708693 0.014754444211598008
-0.07257439872378796 -0.07690482508924372 0.010210960898506814
-0.07369613527030773 -0.08134805540538341 0.005359250010047876
-0.07425071349903699 -0.08616537415978869 0.00036266260494556644
-0.07424801872909727 -0.09131371336518125 -0.00466309677105819
-0.07370138347086272 -0.09668908284821205 -0.009607837943374506
-0.07265023942119796 -0.10216468229859273 -0.014385303063759017
-0.07116315560183317 -0.10759902127863748 -0.01892643104203314
-0.06934397027709076 -0.11285041818579448 -0.023159231790041666
-0.06732416010453582 -0.11778766408497973 -0.026989651084501395
-0.06525021961779748 -0.12228102569242472 -0.030294649589507446
-0.06326221659628335 -0.12620463335002013 -0.032964873294701214
-0.0614562814550728 -0.12950934998058258 -0.034972462214091025
-0.059884889615665265 -0.13226357056380042 -0.036346486733396785
-0.05856522410605378 -0.13455991914771792 -0.03711442516185782
-0.05749853521813944 -0.1364413967074524 -0.03730101258655125
-0.05664974157699513 -0.13796315659792172 -0.03696505791980281
-0.05593728329379194 -0.13923510290480365 -0.03615064355901455
-0.05528508788671755 -0.1403692778662356 -0.03476112281743348
-0.0546744537242119 -0.14134586785703934 -0.032616678621290994
-0.0541314572091363 -0.14204347218519142 -0.02962810208544283
-0.053679595297626836 -0.14234007565057316 -0.025816357711186552
-0.0533400496559846 -0.14215390046322074 -0.02125900022170967
-0.05314107920769354 -0.14145845229894885 -0.016065747614178463
-0.05312247607054857 -0.1402895127316438 -0.010361011617532629
-0.05333318108769611 -0.13873395621615664 -0.004299021962814397
-0.05378740578084584 -0.1369438455891669 0.0018923743852087387
-0.05445878711385025 -0.1351082002738003 0.008018649903821595
-0.05530963244039906 -0.1333890382926492 0.013951025539430572
-0.05629088433940376 -0.13189787927801747 0.019615908503950306
-0.057343696815289065 -0.13069720973791277 0.02500961112007595
-0.0584069000745024 -0.1298176790398536 0.030199992340394364
-0.05941788038697766 -0.12929082220372498 0.035282507459437326
-0.06031173722392506 -0.1291670677943913 0.040324850028736925
-0.061031407295666404 -0.12950605337716725 0.04534307760206757
-0.06153681042466011 -0.13036470620174312 0.050317997646894874
-0.061806347804617114 -0.13178375830240077 0.05521246678657201
-0.06183809611075082 -0.13378655324900943 0.06000201167176774
-0.06164600907683513 -0.1363953307735424 0.06468122078863461
-0.0612575812039017 -0.1396287737487598 0.06924926439921902
-0.060711660503356246 -0.14349195082380484 0.07369883560723528
-0.06005156686541065 -0.14797092230760509 0.07801156297195988
-0.059316879422921034 -0.15303640910858865 0.08215709962843759
-0.0585376042453928 -0.1586521379930128 0.08610132056846895
-0.05773110792898121 -0.16477253266840888 0.0898117439035082
-0.05690488187317936 -0.17131613707601534 0.09325258669398317
-0.05606098999164994 -0.1781557196083944 0.0963925226131348
-0.055186787162021085 -0.18513975537022165 0.09922402053060807
-0.05424948365788581 -0.19211212698078478 0.10175860878513117
-0.053199507741865174 -0.19892201071280788 0.10402752762362408
-0.05198051710216533 -0.20545518202402394 0.10608487597816295
-0.05054627704737505 -0.2116464033412822 0.10799590384338455
-0.04887088397368642 -0.21747303590338976 0.10982116524030267
-0.04694998239161456 -0.22294738918024662 0.11161106632521524
-0.04479241195819971 -0.22811639341605014 0.11340847058175044
-0.04240401553350062 -0.23305128156463562 0.11525480308450384
-0.03977823554521208 -0.23781956115588107 0.11719026158858636
-0.03689985580429461 -0.2424568655208959 0.11925526192940687
-0.03375545665779898 -0.24695183612158117 0.12148778467549387
-0.030344449116493418 -0.251245260994528 0.12391788566233408
-0.026684481652843206 -0.2552498462203741 0.12656261952242084
-0.022805601248476106 -0.25888204240793483 0.12942893089118412
-0.018733091287005416 -0.26208617340270823 0.1325245914277789
-0.01447465032417447 -0.26483678489705237 0.13586264119198238
-0.010018998701047544 -0.2671310745987274 0.13945156366168604
-0.005339123446038769 -0.26898291109803685 0.14328542536770114
-0.00039724300151623704 -0.2704175840340775 0.14734105326997926
0.004844194720633516 -0.271461395046479 0.15158286137083854
0.010410241996501753 -0.2721327465432047 0.15596639556113165
0.016301807456789157 -0.2724400794749084 0.16044414766432488
0.02249013916562443 -0.2723863055965236 0.16497865274147128
0.028918986703814428 -0.2719752823920795 0.1695467786969488
0.035515950621108065 -0.27122326686558057 0.17414197480546417
0.0422080940376136 -0.27016255537876976 0.17876575213758258
0.0489350210273357 -0.26884200130510627 0.18342120798106978
0.05565906138084418 -0.26731829874328084 0.18810902528410067
0.06237257653799967 -0.2656493389838876 0.1928265568229599
0.06909388249249518 -0.26389504040979983 0.19756997555034503
0.07585318848441683 -0.2621213519294088 0.2023346643919603
0.08266986268119862 -0.26040436687732643 0.2071112356811515
0.08953436878245194 -0.2588221315647388 0.2118867245156852
0.09640748272576184 -0.25744687890747897 0.21664737000301323
0.1032273897621711 -0.2563389614644925 0.22138557992855992
0.10991464285581261 -0.25554709460991926 0.22609942437548533
0.11638096967847461 -0.25510818835896165 0.23079323895346734
0.12253792446744823 -0.2550472002799741 0.2354768432948849
0.1282993627635877 -0.2553803946120046 0.24016018241464435
0.13357579466138744 -0.2561137049986882 0.24483970439720557
0.13827861548995465 -0.2572343388952619 0.24948214175932057
0.14234499454185962 -0.25870380042145613 0.25402745051065806
0.14576845203899821 -0.2604703215608714 0.258414575126488
0.14859385135573006 -0.26249312657795393 0.26261306525629
0.15088618720149155 -0.26475301592804906 0.2666297825399229
0.152705114553909 -0.26724878768170507 0.2704996109957797
0.15409502126745284 -0.26998545935783597 0.27427235311011117
0.1550879530233891 -0.2729640742062812 0.27800337795589447
0.1557143509809616 -0.2761740569988671 0.28174428949884855
0.15601310555337466 -0.27959319093109464 0.28553941639489416
0.15603369098243186 -0.28320038610505244 0.2894242039648458
0.15583085487793458 -0.28698710014881806 0.29342514267979525
0.15545975725706368 -0.2909613761186937 0.29756147941968997
0.15498016278016472 -0.2951307096375423 0.30184104272141493
0.15446481557955463 -0.29946239807054864 0.3062406153076343
0.15400270220505896 -0.3038365977819738 0.31067270008197145
0.1536832787480527 -0.3080427899859174 0.31497213754365133
LINES 1 120
119 0 1 2 3 4 5 6 7 8 9 10 11 12 13 14 15 16 17 18 19 20 21 22 23 24 25 26 27 28 29 30 31 32 33 34 35 36 37 38 39 40 41 42 43 44 45 46 47 48 49 50 51 52 53 54 55 56 57 58 59 60 61 62 63 64 65 66 67 68 69 70 71 72 73 74 75 76 77 78 79 80 81 82 83 84 85 86 87 88 89 90 91 92 93 94 95 96 97 98 99 100 101 102 103 104 105 106 107 108 109 110 111 112 113 114 115 116 117 118
POINT_DATA 119
SCALARS Curvature float
LOOKUP_TABLE default
-0.027891038163121665
-0.026371627227765947
-0.01180146222619433
0.015891935087278694
0.05528420149222724
0.10347595648840695
0.1563075796070256
0.208754251591894
0.25546376794736547
0.29137841663093167
0.31236757880310745
0.3157919006858167
0.30092405016819773
0.2691650967535058
0.2240180252321538
0.17080825095012864
0.11617183980375963
0.06736161468152854
0.03144567671431092
0.01448885699674322
0.020812990751945246
0.05242570543882936
0.10869010723292712
0.1862812109646631
0.279442253083632
0.38051904558899385
0.4807175072028993
0.5710025006394172
0.6430384735508486
0.6900663874020568
0.7076178551134001
0.6939856033107159
0.6503971911650718
0.5808730322036739
0.4917860795900845
0.39117468308646053
0.2878880152248164
0.19066178384963767
0.10722857486936792
0.04356142405908444
0.0033319398612508696
-0.012362268630103554
-0.004978612945793957
0.02176883023036881
0.06244274663475258
0.11058078178977883
0.15947135558598233
0.2029140606973155
0.2358771234565895
0.25498030943953126
0.25875568090690315
0.2476675340328326
0.22390290987369074
0.19097149683875392
0.15317518266615845
0.11502049057932402
0.08065032370380334
0.05336481532796352
0.03528587420142936
0.02719852456568688
0.028577407280623773
0.03778218653590626
0.052384319800542686
0.06957236786937007
0.08657552858892466
0.10104605393815246
0.11135017974791482
0.11673262524512462
0.11733924931603693
0.11410324691455137
0.1085194178083765
0.10234594648874563
0.09728186886041486
0.09466995424533416
0.0952691158091128
0.09912869538921666
0.10558090153195093
0.11334972085300347
0.12075738823349627
0.12599544190934805
0.12741845018744583
0.12381585185775033
0.11462125489420796
0.10002829904063633
0.0809962912994313
0.05914515497522337
0.03655539122731686
0.015502395768776416
-0.0018363437409330743
-0.013659198106523478
-0.0187642441041668
-0.016688175668097067
-0.007742264590917065
0.007057347344937982
0.026152242409691676
0.04767100755135913
0.0696896378432615
0.09048355314568038
0.10873375287648675
0.12365732490120696
0.1350447086301799
0.1432009538870287
0.14880347500206373
0.15270215462862366
0.15569704758006742
0.15833288410293875
0.1607473826504252
0.16260227206459008
0.16311300243074411
0.1611772489676652
0.15558582882738703
0.14528505659303037
0.1296491535794564
0.10871684441370277
0.0833486506754191
0.05527057891384891
0.02698485355256372
0.0015471380428092344
-0.01777023959450949
