# vtk DataFile Version 2.0
Vessel Segment
ASCII
DATASET POLYDATA
POINTS 119 float
-0.003135348240440025 -0.00521194388307356 0.0003661335289249912
-0.006952995419764736 -0.01092903470082387 0.0011094105674806895
-0.011284973147568468 -0.016900589130942067 0.002110413771334035
-0.01593198643617053 -0.022886941033745802 0.003202688159821935
-0.020720562872455977 -0.028715498884379683 0.004224354330522039
-0.025519859932185078 -0.0342924309000704 0.005026759187195679
-0.03022541383812099 -0.03957285310130794 0.0054625876785276
-0.03474116661739807 -0.04453361071434161 0.0053905350807417225
-0.03897840701168392 -0.04916553474818254 0.00469918902548374
-0.04287533853187085 -0.05348837130554187 0.0033308614173487797
-0.046410928899468844 -0.0575698908435283 0.0012630688615078087
-0.04957756158988669 -0.06150443459579248 -0.0015250028377147102
-0.05234335619936436 -0.06537511014352598 -0.005037518986148447
-0.05464916541725407 -0.06924445178248087 -0.00921766152320571
-0.056433311298945396 -0.07316070967686394 -0.0139464485919242
-0.05765769726157905 -0.077155309966375 -0.01907115499236068
-0.05830552123963507 -0.08124414036130165 -0.024462545097581202
-0.058363705549522825 -0.08542010533884757 -0.030014571062380965
-0.05783140688885342 -0.08966908917821743 -0.03564236055627186
-0.056721079062596824 -0.09398319927140053 -0.041278636217275844
-0.05505713201976821 -0.09836809915157 -0.04687128031146511
-0.05287734539348968 -0.10283299115793308 -0.05236271148039548
-0.050246851219029304 -0.10737941365736581 -0.057664070528571754
-0.04726981566206613 -0.11198927459182674 -0.06264281533881176
-0.044093995387098545 -0.11660872669604073 -0.0671282058768147
-0.04090108167542359 -0.12114078070152416 -0.07094353849003189
-0.03787515650899404 -0.12546723692118508 -0.07395516585206152
-0.03516839435384751 -0.12948188425531798 -0.0760941169254908
-0.032885548494821934 -0.1330860847491168 -0.07734829976764004
-0.031079750764686387 -0.13618441788950683 -0.07777373191813157
-0.029732552283357947 -0.13874555852926157 -0.0774952463068742
-0.02876725308608231 -0.14082636427607265 -0.07664559269584698
-0.02810054086955426 -0.1425356971918414 -0.07527627230852056
-0.027683523026950662 -0.1439477839804167 -0.07336188788410677
-0.027494276089751895 -0.1450905025160072 -0.07085587739962676
-0.02753072279938898 -0.14596147276856034 -0.06771474515761439
-0.027804942377973943 -0.1465402367054469 -0.06392006147657138
-0.02833013306692759 -0.14679787129635458 -0.05950324472371113
-0.029099863425965825 -0.1467170097564537 -0.054572323451172064
-0.030071203847551395 -0.1463232102453002 -0.04930370009500401
-0.031164640968499902 -0.14570044653190795 -0.04388819025238866
-0.032289318936255265 -0.14497135895577887 -0.03846396415260721
-0.0333665441653523 -0.14426443423056037 -0.03310921161634881
-0.03433507426922412 -0.14369917901611376 -0.027859506339044077
-0.0351512299600799 -0.14338199509698857 -0.022721427304911654
-0.03578707576702417 -0.14340525629679965 -0.01768255294374344
-0.03622740888023765 -0.1438521226288166 -0.012720169003679713
-0.03646709019271646 -0.14480247860880188 -0.007816727436048162
-0.03651281302064464 -0.14632589437541305 -0.0029844632111586875
-0.03638358445892717 -0.14846027612634013 0.001732168972002195
-0.036103982873568356 -0.1512048764066755 0.006281717328420691
-0.035699377199614635 -0.15453828422731739 0.010626874306538636
-0.03519201052528549 -0.15843332712068617 0.014742243233338545
-0.03459808708306145 -0.1628571244367437 0.01861005798348276
-0.03392562302944186 -0.16777055107021743 0.022226892538747108
-0.03317284585809897 -0.1731288778433461 0.025608603772743037
-0.032328384719930436 -0.17887933798619035 0.028785851722475102
-0.03137546894282592 -0.18495513556165022 0.03179470581131746
-0.030297564278487586 -0.19127606583373286 0.034665009543311635
-0.029083045693098858 -0.1977578880123977 0.037414643342345504
-0.027724900772598576 -0.20432175501425218 0.04005586379799915
-0.02621049924236667 -0.210902648916295 0.042605238769334544
-0.02451699051784891 -0.21744649709093408 0.04507987426339878
-0.022616295930703464 -0.22390024064292163 0.04749573010630862
-0.02048075813699972 -0.23020965043278752 0.04986981315554902
-0.0180891768912038 -0.23632214071089444 0.0522209509886597
-0.01542897240536293 -0.24218762410053743 0.05456989710397868
-0.012494849906840761 -0.2477602216393175 0.056939290632662586
-0.009286810198281769 -0.25299975746140163 0.059353029840821726
-0.00580785459704436 -0.25787520341081477 0.061835007739157344
-0.0020622402083031685 -0.2623663076466357 0.06440810812966122
0.0019461144731775753 -0.26646537723811575 0.06709447656120254
0.006215653853456663 -0.2701773522237668 0.06991590496931051
0.010746570118729742 -0.27351461480209416 0.07289300850495001
0.015536011477652493 -0.27649110943074945 0.07604136312444174
0.020572685567690974 -0.2791219202008941 0.07936544177490633
0.0258384624294588 -0.2814238096465396 0.08285721748328767
0.03131318243033313 -0.28341336945542833 0.0864975850985676
0.03697855305001387 -0.2851058554306169 0.09025911716866068
0.04282157861079476 -0.2865157375437076 0.09411010025418702
0.048836383801671934 -0.28765848265494465 0.09802160115388443
0.05502109709089975 -0.28854919629245135 0.10197415437490259
0.061371426510795385 -0.289201907405177 0.1059587563331377
0.0678742850660858 -0.2896306601800393 0.10997606294140835
0.07450255361585031 -0.2898531010255217 0.11403333521153045
0.08121148729778692 -0.28989481845949305 0.11813973555970535
0.08793962879226322 -0.2897936794452288 0.12230188623945767
0.09461492062657065 -0.2896012409750125 0.1265191395536694
0.10116272382779999 -0.2893799328019033 0.130780541465995
0.1075127799945109 -0.28919701883703536 0.13506620508673445
0.11360364688241917 -0.2891194165327131 0.13934885482776033
0.11938593406293221 -0.2892048312888125 0.14359775007636055
0.12482499556331121 -0.2894962457546264 0.14778246463607472
0.1299053881290748 -0.29001931761999855 0.1518759927477986
0.1346336835808204 -0.29078613957062055 0.1558615244607094
0.13903251563369878 -0.29180277898943285 0.1597333178426065
0.14313106275041357 -0.29307634637108165 0.16349451163512219
0.1469578694236118 -0.2946179093859155 0.16715398883972762
0.15053565546327624 -0.29644302881032514 0.17072376284721924
0.15387816847119673 -0.29856946416020674 0.17421825503026037
0.15698845980340054 -0.3010129123455171 0.17765321640799286
0.15985797243411456 -0.30378319543855586 0.1810442218656216
0.16246869901216207 -0.3068811885588235 0.1844022282641354
0.16479979649464938 -0.3102979499824407 0.18773049225450997
0.16683746704569832 -0.31401961819387986 0.19102539186866072
0.16857799478591054 -0.31803461352772877 0.1942806804666822
0.17002449199115732 -0.3223363477611561 0.19748892361319714
0.17118308988615275 -0.3269210270123866 0.20064014746955028
0.17206221910202762 -0.3317819766961206 0.20372157668679636
0.1726742569825544 -0.33690272760826917 0.2067190686950368
0.17303890534851385 -0.3422529476553503 0.20961853057298369
0.17318481881845887 -0.3477898532987193 0.2124118505511924
0.1731479706411765 -0.35346493122515993 0.21510131650149236
0.17296869193075814 -0.35922920691878996 0.21770246152116454
0.17269104015340223 -0.3650303712712404 0.22024293911001483
0.17236579139146613 -0.37079483954092024 0.22275356648417075
0.17204708591297124 -0.37639920396552945 0.22524812041172734
0.1717826453256128 -0.3816688205064055 0.2276969799362457
0.17160274550767138 -0.38644367056132983 0.2300337512761686
LINES 1 120
119 0 1 2 3 4 5 6 7 8 9 10 11 12 13 14 15 16 17 18 19 20 21 22 23 24 25 26 27 28 29 30 31 32 33 34 35 36 37 38 39 40 41 42 43 44 45 46 47 48 49 50 51 52 53 54 55 56 57 58 59 60 61 62 63 64 65 66 67 68 69 70 71 72 73 74 75 76 77 78 79 80 81 82 83 84 85 86 87 88 89 90 91 92 93 94 95 96 97 98 99 100 101 102 103 104 105 106 107 108 109 110 111 112 113 114 115 116 117 118
POINT_DATA 119
SCALARS Curvature float
LOOKUP_TABLE default
0.0023765112073107168
0.0013553629972288177
0.008358593362900717
0.024374063661719063
0.04932132471547754
0.08192247630854302
0.11973291794921541
0.1593405553230398
0.19671897769948662
0.22769786396743355
0.24849549511384622
0.2562464173775525
0.24945388963049692
0.22830256876692415
0.19478153773895282
0.15258967279785834
0.10682187897122188
0.06346260142543486
0.02873867309561954
0.008403598215284335
0.007037041567521448
0.027444844611667567
0.0702358276221742
0.1336328129535018
0.2135488329432781
0.3039284965463976
0.39732274390860034
0.4856366429547007
0.5609680678999472
0.6164428435918887
0.6469508815112661
0.6496982362687463
0.624510716544443
0.5738532455468282
0.5025621494017392
0.41732096194907414
0.32594011279913176
0.23652339854234272
0.1566167077732249
0.09243559720133822
0.04825793347740971
0.02604727731471523
0.025344588722621502
0.043433679110695164
0.07575359501734182
0.11650271862988486
0.15935821179783913
0.19822296326650532
0.22791162974627438
0.24469751939010026
0.24666144694834063
0.23380966820267987
0.20795718379938719
0.1724013723955439
0.13143550842960458
0.08976928462492151
0.05193200676647298
0.021732873005111616
0.0018421800986567088
-0.006460918085750006
-0.003351737801088248
0.009662747084961778
0.030026389770921914
0.05453033348408312
0.07976534030500039
0.1025676324098405
0.12040007313243346
0.13162223624361724
0.13562031449680859
0.13278834386138
0.12437297226353576
0.11221214893816746
0.09841126629038308
0.08500682262023404
0.07366692410106651
0.06547026811226922
0.06079195877090805
0.05930765679785064
0.06010965957592126
0.061912126802140144
0.06331011596858993
0.06305007595038294
0.0602688461773074
0.054663968351234965
0.046569272006905985
0.036924520502461367
0.027144174958564832
0.01890564817540433
0.013889545690390477
0.013511581189158704
0.018687095753752245
0.029664264485638032
0.04595188547146214
0.06635363362395566
0.0891048947024215
0.11209309146492068
0.133130007090505
0.1502368247302589
0.16190058782244182
0.16726485530345375
0.1662269038398747
0.15942753384208108
0.14813537526502596
0.13404324593784211
0.11900728068140828
0.10476825810199697
0.09269746912446371
0.08360609367096157
0.07764779002862932
0.07433033264205773
0.07263562997988053
0.07123070678131511
0.06873771852430959
0.06402098130310323
0.05644495287288344
0.04605985709638371
0.03368100386536426
0.020842658243943112
0.009625576068757451
