# vtk DataFile Version 2.0
Vessel Segment
ASCII
DATASET POLYDATA
POINTS 119 float
-0.003199095341349041 -0.005237480498377722 0.00038165008812525805
-0.007070795629325851 -0.010957233016610852 0.0011949999146113064
-0.011448562762159022 -0.016912805574958625 0.002317495386045206
-0.01613868854710613 -0.022872710791316968 0.003571940369587104
-0.020973466083342374 -0.028671401638947054 0.004783686609810378
-0.02582568264137888 -0.034219393874451075 0.005792279254526623
-0.03059179007472 -0.039473443391996245 0.006440050908455812
-0.03517438356109616 -0.044410170269946286 0.006576732363441443
-0.039481961086471826 -0.04901936714676664 0.006083239169339732
-0.04344961512896352 -0.053320084062851394 0.004895516585403319
-0.04705314575177669 -0.05737933192727091 0.002986886625005456
-0.050283009903580964 -0.061291512657117124 0.00033528313753213154
-0.05310751112968705 -0.06514217049158212 -0.003065353345372782
-0.055466875703267804 -0.0689970706020415 -0.007160566162106908
-0.05729683640080771 -0.07290778211043339 -0.011828426141821443
-0.058560014918707 -0.07690976510523943 -0.016905473311267807
-0.05924427490707825 -0.08102411148999676 -0.02225242671915077
-0.05934053621618103 -0.08524636210377592 -0.027757859370070904
-0.05884914769827447 -0.08955963922670249 -0.03333409597889347
-0.05778317132309779 -0.0939489971670387 -0.038910454306660715
-0.05616862683863705 -0.09841095337495853 -0.044432379541884406
-0.054045878100649855 -0.10294442210854371 -0.04984181841381475
-0.05148304192347712 -0.1075407938495872 -0.05505168960133018
-0.04858638006539719 -0.11217322552752437 -0.059932785062870184
-0.04550366819589069 -0.11678104342811209 -0.06431818360379826
-0.042413400923579786 -0.1212633374540742 -0.06803651889094176
-0.039492242921078356 -0.12550548610263249 -0.07096292311379149
-0.03688357009138455 -0.12941436907404671 -0.07303676623308117
-0.034684084530195454 -0.1329074081548639 -0.07424927532489226
-0.03294205917847901 -0.13590132267602073 -0.07465337358827771
-0.03163760603416826 -0.13837231002255518 -0.07436819202609558
-0.03069384268709019 -0.14038247955219715 -0.07352030374929308
-0.030028886940379432 -0.14204235425055722 -0.07215041113111545
-0.02959776158338238 -0.1434187255559518 -0.07022166903149704
-0.0293831325721576 -0.14452728839480267 -0.06768464445133199
-0.02938479898347193 -0.14535607029200528 -0.06450067390308588
-0.029615046693668694 -0.14587963365971984 -0.06065829786844055
-0.03008770916332621 -0.1460689303878961 -0.05619429858124112
-0.03079968248109958 -0.14591042311042765 -0.05121698993118329
-0.031715078842972616 -0.1454341299287934 -0.04589989443497489
-0.032761344416820944 -0.14472848106945368 -0.04043552007351023
-0.033852343484032564 -0.14392037850242997 -0.03496573250691457
-0.03491239711249376 -0.1431404670809568 -0.02957273226000741
-0.03588124431041733 -0.1425076456822326 -0.024295908835353666
-0.036714297106573104 -0.14212516552957036 -0.019143034089387636
-0.037381382804590545 -0.14208080351602229 -0.014098822709205655
-0.037863976433744194 -0.14245352318234553 -0.009135814551223656
-0.03815278131569626 -0.14332024758617673 -0.004232681544262439
-0.0382500254553377 -0.14474892362839453 0.0006011968307601959
-0.03817030128769443 -0.1467785608636098 0.0053246674742367965
-0.03793440302233323 -0.1494120592509419 0.009888863303058661
-0.037565155025204224 -0.15263247719187353 0.014258313638045925
-0.03708376093876202 -0.15641759879256054 0.018409235220424605
-0.03650712589090886 -0.16073937592817014 0.022324725337710537
-0.03584567143294056 -0.16556254686247365 0.026000536069391022
-0.035101159782332275 -0.170845010349758 0.029449584522586676
-0.03426612679504825 -0.1765360863984986 0.032697767800317856
-0.03332730161475602 -0.18257157514110123 0.035775703424235396
-0.03227061509523299 -0.188873800188241 0.03870828423284651
-0.03108581887949244 -0.1953580687702034 0.04150914782330251
-0.02976666989516648 -0.20194096812599419 0.04418716807031333
-0.02830083073123045 -0.20855019917070744 0.04675698580466684
-0.026665181731797515 -0.21512360291492424 0.04923508469186903
-0.024830566326353085 -0.2216007363660438 0.05163829677110468
-0.022767501488589418 -0.22792308516532855 0.05398619634533365
-0.02045290460677815 -0.23403741937651573 0.05630105262307089
-0.017872975692900254 -0.23989595689041904 0.058606698336482334
-0.015022269130270244 -0.24545732140294502 0.06092797260443962
-0.011901346980351418 -0.2506879352492909 0.06329027284100029
-0.00851341307960591 -0.2555644396391417 0.06571884766087083
-0.004861965996153117 -0.2600730142322045 0.06823785411054412
-0.0009496113509378165 -0.26420899227412187 0.0708707248224853
0.003223076485011551 -0.267976123677259 0.07364038563941332
0.007656323827921091 -0.27138197922849155 0.07656821545395903
0.012346485151699478 -0.27443379118621175 0.07967022420506352
0.01728152307701089 -0.27713985360561 0.08295170442360977
0.02244359552394819 -0.279511362688278 0.08640661452701015
0.027814164128673526 -0.28156094600159676 0.09001892796178669
0.03337748720699039 -0.2833014986146989 0.0937641320941157
0.039123591859918566 -0.28474673311836785 0.09761215972562526
0.04504979655995581 -0.2859126265941658 0.10153393464365747
0.051157123537467764 -0.28681525189876966 0.10550821635357609
0.057443424102790755 -0.2874692130536472 0.10952294742331813
0.06389651643809101 -0.28788835092785703 0.11357494929778399
0.0704888549997319 -0.2880893565057728 0.11766798986235034
0.07717438708661191 -0.2880963094600655 0.12180866837453697
0.08389031469071008 -0.28794562087328057 0.1260024339952162
0.09056397668624454 -0.2876876622822933 0.13024856882216587
0.09712126116867316 -0.2873842349278242 0.13453690371720764
0.10349374660916072 -0.2871023577620928 0.13884877475971863
0.1096232129086493 -0.28690902400440427 0.14315835235070498
0.11546424104532899 -0.2868630215876052 0.14743646040889652
0.12098566703899168 -0.2870099222418776 0.151654157615811
0.12617330697984863 -0.28737955053938785 0.1557854129368054
0.13103166577401798 -0.2879884991256245 0.15981347292676068
0.1355787416254905 -0.28884654330196285 0.1637318719903527
0.13983780882665783 -0.2899630310304072 0.16754287138796578
0.14383108075022566 -0.2913498346782201 0.17125456251011364
0.14757527287053882 -0.29302208811090735 0.1748785374150608
0.15107898227293848 -0.294996258009784 0.1784292434109755
0.1543410883455484 -0.29728659865303364 0.18192276728793763
0.15734938435796086 -0.2999016042304784 0.1853745732560208
0.1600825763623855 -0.3028406346567203 0.1887941387661549
0.16251770608300245 -0.3060926679402423 0.19218189687463916
0.16464128781857537 -0.30964176884910855 0.19553135921537995
0.16645210381249506 -0.31347553565979835 0.19883515780473973
0.16795636766310076 -0.3175881975979873 0.20208699128392504
0.16916257387456188 -0.32197796756306 0.20527987317093185
0.1700802597296496 -0.32664047288496406 0.20840502741825373
0.1707219485105736 -0.33156133476654076 0.21145258393243713
0.17110730028808993 -0.3367117806903187 0.21441228074916452
0.17126545295969728 -0.342050244891972 0.21727881108393482
0.17123351611249174 -0.3475301588503079 0.2200559207531245
0.17105315429967652 -0.35310615410980645 0.2227590860580472
0.1707694161877727 -0.35873189165868785 0.2254145686741502
0.17043375557768395 -0.3643418817964976 0.22805077583801264
0.17010163861981326 -0.3698214270855916 0.23067819753159927
0.169823751659076 -0.3750007331381604 0.23326289123255614
0.16963448980836363 -0.37971508919288227 0.23573214359987715
LINES 1 120
119 0 1 2 3 4 5 6 7 8 9 10 11 12 13 14 15 16 17 18 19 20 21 22 23 24 25 26 27 28 29 30 31 32 33 34 35 36 37 38 39 40 41 42 43 44 45 46 47 48 49 50 51 52 53 54 55 56 57 58 59 60 61 62 63 64 65 66 67 68 69 70 71 72 73 74 75 76 77 78 79 80 81 82 83 84 85 86 87 88 89 90 91 92 93 94 95 96 97 98 99 100 101 102 103 104 105 106 107 108 109 110 111 112 113 114 115 116 117 118
POINT_DATA 119
SCALARS Curvature float
LOOKUP_TABLE default
0.00015426918896645317
-0.00054716168521882
0.007114108401344887
0.024067434050051524
0.050147772441686604
0.08397369547305711
0.12298757352552761
0.1636656363874177
0.20188234649673922
0.2333911533684814
0.2543653427784587
0.26193102371502824
0.25462117495085246
0.23268588095571544
0.19820898155151154
0.1550037008642735
0.1082867546827771
0.0641586171502136
0.028943446189423443
0.00846221044650505
0.007324067977289978
0.028322283370403878
0.07201147451204933
0.13652365264604127
0.21765353215206296
0.309212129761061
0.4036155646917694
0.49264718052435563
0.5683092544265471
0.6236684428736877
0.6535983595396248
0.6553335184776138
0.6287700942075937
0.5764780434667897
0.5034226048791597
0.4164269901665262
0.3234381006896706
0.23267970553802989
0.1517899791691394
0.08704115137524981
0.042728239946310885
0.020792820504931232
0.02071919277857116
0.03970769228365536
0.07309729214688868
0.11498101213527899
0.15893642434631652
0.19878217144732718
0.22927108373590163
0.24664099067480078
0.24896411944177269
0.23626237836582314
0.21038538965843515
0.1746770998678245
0.133481562263964
0.09155607944044661
0.05346833136935397
0.023052627919366235
0.002989537941485532
-0.005445428682768995
-0.0024420244017114797
0.010472274524669692
0.030720276708672663
0.05507696737285316
0.08012631433385208
0.10270993318857387
0.12030898681328461
0.13131272358723936
0.1351447860464912
0.13223924401263965
0.12387928840694612
0.11192980191471544
0.09850819751910991
0.08564435660870043
0.07497955173643785
0.0675462922043038
0.0636574309645907
0.0629157167651975
0.06433680514701955
0.06656217220030873
0.06812573193041223
0.06773095705791654
0.0644948195185121
0.0581208284908708
0.04897485727933061
0.038052557870391045
0.02684370250814886
0.017114330619795656
0.010639858705719778
0.008929569797599997
0.012984122031185956
0.02312277094472679
0.03890665139679943
0.059170256596792044
0.08215728102168687
0.10574160672941564
0.127701663574449
0.1460085213527223
0.1590860322538792
0.1660054419899234
0.1665865392056085
0.1613912144514238
0.1516112387108684
0.13886780995261072
0.12495363016059485
0.11155699072456408
0.10001022654903241
0.09110145407055467
0.08497916196487448
0.08116527316052599
0.07867573574772933
0.07623093901258275
0.07252377564135265
0.06650318670521953
0.057627131383355755
0.046041869004286036
0.03265400211235297
0.019076715250007197
0.007450045025761253
