# vtk DataFile Version 2.0
Vessel Segment
ASCII
DATASET POLYDATA
POINTS 40 float
97.34 -96.1 84.32
97.34033446281967 -96.00428092179571 84.38358974358974
97.34267570255736 -95.9065550666734 84.44717948717948
97.34903049613109 -95.80481565771507 84.51076923076923
97.36140562045888 -95.69705591800266 84.57435897435897
97.38180785245873 -95.58126907061818 84.63794871794872
97.4122439690487 -95.4554483386436 84.70153846153846
97.4547207471468 -95.31758694516091 84.7651282051282
97.511244963671 -95.16567811325207 84.82871794871795
97.58382339553937 -94.99771506599909 84.8923076923077
97.67384615384616 -94.8123076923077 84.95629461049577
97.76923076923077 -94.62153846153846 85.02837134813466
97.86461538461539 -94.43076923076923 85.1084751934456
97.96 -94.24 85.19259259259259
98.05538461538461 -94.04923076923077 85.27670999173957
98.15076923076923 -93.85846153846154 85.35681383705052
98.24615384615385 -93.6676923076923 85.42889057468939
98.34153846153846 -93.47692307692307 85.48892665082015
98.43692307692308 -93.28615384615385 85.53290851160673
98.5323076923077 -93.09538461538462 85.55682260321313
98.6276923076923 -92.90461538461538 85.55682260321315
98.72307692307692 -92.71384615384615 85.53290851160673
98.81846153846153 -92.52307692307693 85.48892665082015
98.91384615384615 -92.3323076923077 85.4288905746894
99.00923076923077 -92.14153846153846 85.35681383705052
99.1046153846154 -91.95076923076923 85.27670999173958
99.20000000000002 -91.76 85.19259259259259
99.29538461538462 -91.56923076923077 85.10847519344561
99.39076923076924 -91.37846153846154 85.02837134813466
99.48615384615385 -91.1876923076923 84.95629461049579
99.57617660446064 -90.99692307692308 84.8923076923077
99.64875503632899 -90.80615384615385 84.82871794871795
99.70527925285322 -90.61538461538461 84.7651282051282
99.74775603095131 -90.42461538461538 84.70153846153846
99.77819214754126 -90.23384615384616 84.63794871794872
99.79859437954113 -90.04307692307692 84.57435897435897
99.81096950386892 -89.85230769230769 84.51076923076923
99.81732429744264 -89.66153846153847 84.44717948717948
99.81966553718031 -89.47076923076924 84.38358974358974
99.82 -89.28 84.32
LINES 1 41
40 0 1 2 3 4 5 6 7 8 9 10 11 12 13 14 15 16 17 18 19 20 21 22 23 24 25 26 27 28 29 30 31 32 33 34 35 36 37 38 39 
POINT_DATA 40
SCALARS MaximumInscribedSphereRadius float
LOOKUP_TABLE default
1.24
1.179671268902038
1.1258645627876398
1.0785798816568046
1.0378172255095333
1.003576594345825
0.9758579881656805
0.9546614069690993
0.9399868507560816
0.9318343195266272
0.9306009878790944
0.9439795006658913
0.9719071461083296
1.0103703703703704
1.0553556196159746
1.1028493400091033
1.1488379777137174
1.1893079788937775
1.2202457897132453
1.237637856336081
1.2376378563360813
1.2202457897132453
1.189307978893778
1.1488379777137174
1.1028493400091033
1.0553556196159748
1.0103703703703704
0.9719071461083296
0.9439795006658913
0.9306009878790943
0.9318343195266272
0.9399868507560816
0.9546614069690993
0.9758579881656805
1.0035765943458252
1.037817225509533
1.0785798816568046
1.1258645627876396
1.179671268902038
1.24
SCALARS m_attribute int
LOOKUP_TABLE default
2
2
2
2
2
2
2
2
2
2
2
2
2
2
2
2
2
2
2
2
2
2
2
2
2
2
2
2
2
2
2
2
2
2
2
2
2
2
2
2
