# vtk DataFile Version 2.0
Vessel Segment
ASCII
DATASET POLYDATA
POINTS 30 float
80.6 -95.48 85.56
80.40758620689654 -95.41120997170856 85.68758948706383
80.2151724137931 -95.33220058222969 85.81106072409693
80.02275862068964 -95.24159908155316 85.92629546106852
79.8303448275862 -95.1380327196687 86.02917544794785
79.63793103448275 -95.02012874656607 86.11558243470418
79.4455172413793 -94.88651441223502 86.18139817130674
79.25310344827585 -94.7358169666653 86.2225044077248
79.06068965517241 -94.56666365984665 86.23478289392759
78.86827586206896 -94.37768174176882 86.21411537988439
78.67586206896551 -94.16729509204967 86.15862068965518
78.48344827586206 -93.93352084956334 86.0944827586207
78.29103448275862 -93.68052810693344 86.03034482758622
78.09862068965516 -93.41380786420108 85.96620689655172
77.90620689655172 -93.1388511214072 85.90206896551724
77.71379310344827 -92.86114887859281 85.83793103448276
77.52137931034483 -92.58619213579894 85.77379310344828
77.32896551724137 -92.31947189306655 85.70965517241379
77.13655172413793 -92.06647915043668 85.64551724137931
76.94413793103448 -91.83270490795033 85.58137931034483
76.75820656853499 -91.61799663782853 85.51724137931035
76.59839558817498 -91.40727951125507 85.45310344827587
76.46329410799952 -91.1999179958178 85.38896551724137
76.34981344048546 -90.99659846652179 85.3248275862069
76.25486489810982 -90.79800729837223 85.26068965517241
76.17535979334946 -90.60483086637419 85.19655172413793
76.10820943868138 -90.41775554553284 85.13241379310345
76.05032514658248 -90.23746771085325 85.06827586206896
75.99861822952971 -90.06465373734062 85.00413793103448
75.95 -89.9 84.94
LINES 1 31
30 0 1 2 3 4 5 6 7 8 9 10 11 12 13 14 15 16 17 18 19 20 21 22 23 24 25 26 27 28 29 
POINT_DATA 30
SCALARS MaximumInscribedSphereRadius float
LOOKUP_TABLE default
1.3888
1.3381050212597339
1.2961758028403974
1.2627700593752178
1.2376455054974225
1.220559855840239
1.2112708250368944
1.209536127720616
1.2151134785246311
1.227760592082167
1.2483331752109137
1.289277977118439
1.3497919817268347
1.4242839882644234
1.5071627959595284
1.592837204040472
1.6757160117355765
1.7502080182731654
1.8107220228815608
1.8516668247890862
1.8711157866131465
1.878111745961818
1.8737549625249865
1.858338523439878
1.832155515843717
1.7954990268737283
1.7486621436671375
1.6919379533611685
1.625619543093048
1.5500000000000003
SCALARS m_attribute int
LOOKUP_TABLE default
2
2
2
2
2
2
2
2
2
2
2
2
2
2
2
2
2
2
2
2
2
2
2
2
2
2
2
2
2
2
