# vtk DataFile Version 3.0
Curve with Curvature, Torsion, Distance to V, and Extrema
ASCII
DATASET POLYDATA
POINTS 120 float
0.0 0.0 0.0
-0.21810698509216309 -0.35198402404785156 0.2501239776611328
-0.46861720085144043 -0.6779670715332031 0.6178607940673828
-0.7513806819915771 -0.9845485687255859 1.0707855224609375
-1.066284418106079 -1.2781982421875 1.5765457153320312
-1.413231611251831 -1.565053939819336 2.103104591369629
-1.791856050491333 -1.8507213592529297 2.619274139404297
-2.2008559703826904 -2.140265464782715 3.095648765563965
-2.6369826793670654 -2.4383935928344727 3.505976676940918
-3.0938384532928467 -2.749661445617676 3.828697681427002
-3.561035394668579 -3.0785951614379883 4.048409938812256
-4.024026155471802 -3.4295120239257812 4.156741619110107
-4.46472430229187 -3.8059377670288086 4.152612686157227
-4.8629090785980225 -4.2096967697143555 4.0417022705078125
-5.198284864425659 -4.639918327331543 3.834850311279297
-5.452664136886597 -5.092311859130859 3.545872688293457
-5.611943960189819 -5.558994293212891 3.18923282623291
-5.667573690414429 -6.029141426086426 2.778108596801758
-5.617391347885132 -6.490457534790039 2.3231992721557617
-5.465902090072632 -6.931143760681152 1.8324880599975586
-5.224078893661499 -7.341957092285156 1.3119935989379883
-4.908541440963745 -7.717949867248535 0.7673158645629883
-4.540093183517456 -8.0592679977417 0.20560359954833984
-4.141958951950073 -8.37092113494873 -0.3626365661621094
-3.737807035446167 -8.661614418029785 -0.9223203659057617
-3.3497507572174072 -8.941858291625977 -1.4534931182861328
-2.996645212173462 -9.221757888793945 -1.9321985244750977
-2.69295334815979 -9.509037971496582 -2.3324928283691406
-2.4482529163360596 -9.807706832885742 -2.6294384002685547
-2.267603635787964 -10.117882251739502 -2.8024635314941406
-2.152442693710327 -10.435998916625977 -2.8384714126586914
-2.101788282394409 -10.755579948425293 -2.7341461181640625
-2.113468885421753 -11.068318843841553 -2.49688720703125
-2.184931993484497 -11.364356517791748 -2.143914222717285
-2.3134305477142334 -11.632694244384766 -1.6996192932128906
-2.4955365657806396 -11.860887050628662 -1.192392349243164
-2.7263662815093994 -12.035425662994385 -0.6510448455810547
-2.9988644123077393 -12.142876148223877 -0.10138511657714844
-3.3034212589263916 -12.171679973602295 0.4364767074584961
-3.627977132797241 -12.114526271820068 0.9498214721679688
-3.958585023880005 -11.969947338104248 1.4339532852172852
-4.280491590499878 -11.743701934814453 1.8914594650268555
-4.579448461532593 -11.44861364364624 2.330585479736328
-4.8431031703948975 -11.103332996368408 2.7630367279052734
-5.062208890914917 -10.730522632598877 3.201505661010742
-5.231385946273804 -10.35474443435669 3.657285213470459
-5.349322080612183 -10.000625610351562 4.138358116149902
-5.41815447807312 -9.691307067871094 4.648463249206543
-5.442643880844116 -9.447598457336426 5.186673641204834
-5.42920184135437 -9.287355422973633 5.747549533843994
-5.384955167770386 -9.224742889404297 6.321872234344482
-5.317059278488159 -9.269391059875488 6.897792816162109
-5.2323691844940186 -9.425663948059082 7.462151527404785
-5.137348890304565 -9.692471504211426 8.001677513122559
-5.037928342819214 -10.063553810119629 8.503953218460083
-4.939180135726929 -10.5282301902771 8.95812439918518
-4.8448779582977295 -11.072638511657715 9.35533332824707
-4.757047414779663 -11.681212902069092 9.68891978263855
-4.675716161727905 -12.337922096252441 9.954544186592102
-4.598909139633179 -13.027614116668701 10.150238394737244
-4.5228002071380615 -13.73694658279419 10.276020646095276
-4.44194483757019 -14.454652309417725 10.334102511405945
-4.349694013595581 -15.171672582626343 10.328766345977783
-4.238739728927612 -15.881163835525513 10.26596450805664
-4.101729154586792 -16.57801628112793 10.15362560749054
-3.932123899459839 -17.258446276187897 10.001660704612732
-3.7249562740325928 -17.91964915394783 9.822233319282532
-3.477490186691284 -18.559281319379807 9.629747748374939
-3.1896779537200928 -19.175056219100952 9.440656900405884
-2.864243745803833 -19.764596581459045 9.272927045822144
-2.5063693523406982 -20.325345039367676 9.144903659820557
-2.1230814456939697 -20.85429835319519 9.073837995529175
-1.7222912311553955 -21.348394632339478 9.07402777671814
-1.311706781387329 -21.804197788238525 9.155189275741577
-0.897691011428833 -22.218105792999268 9.321296691894531
-0.48418307304382324 -22.58645486831665 9.570005774497986
-0.07187867164611816 -22.90514612197876 9.892752766609192
0.3420069217681885 -23.170347213745117 10.275620698928833
0.7630796432495117 -23.37849235534668 10.701056718826294
1.1986331939697266 -23.527260303497314 11.149585098028183
1.6562883853912354 -23.61643362045288 11.60173999518156
2.1426587104797363 -23.64830255508423 12.039916276931763
2.662275791168213 -23.627891540527344 12.449870705604553
3.2169148325920105 -23.563028812408447 12.821895837783813
3.8054009526968002 -23.463247299194336 13.151136755943298
4.423831522464752 -23.338531017303467 13.437868475914001
5.066057443618774 -23.198105812072754 13.686712265014648
5.724445700645447 -23.049277305603027 13.90557050704956
6.390795946121216 -22.896551609039307 14.104626655578613
7.057223796844482 -22.74150800704956 14.295022964477539
7.717079162597656 -22.58366060256958 14.487642765045166
8.365636587142944 -22.42104196548462 14.691630840301514
9.00051236152649 -22.251447200775146 14.913837671279907
9.621780157089233 -22.073646306991577 15.158334732055664
10.231638669967651 -21.88806986808777 15.426182985305786
10.833637952804565 -21.697091579437256 15.715967655181885
11.431818723678589 -21.505165815353394 16.02426815032959
12.02945065498352 -21.318435192108154 16.34679937362671
12.628019571304321 -21.144218921661377 16.679691314697266
13.226348161697388 -20.990795850753784 17.020089149475098
13.82029938697815 -20.86723566055298 17.366846084594727
14.403164148330688 -20.782931566238403 17.721181392669678
14.966102838516235 -20.746949195861816 18.085566997528076
15.499443292617798 -20.767486333847046 18.463587284088135
15.99422287940979 -20.850532054901123 18.85821771621704
16.44318127632141 -20.999446630477905 19.27075958251953
16.84138035774231 -21.214612245559692 19.70029640197754
17.18652844429016 -21.493218421936035 20.14325523376465
17.478586435317993 -21.830538749694824 20.593605041503906
17.71852421760559 -22.220354080200195 21.043248176574707
17.907687425613403 -22.656392574310303 21.483616828918457
18.047053575515747 -23.13307285308838 21.9063081741333
18.137237787246704 -23.645400047302246 22.304341316223145
18.179088830947876 -24.188815593719482 22.673463821411133
18.174009561538696 -24.759230613708496 23.01197910308838
18.124633073806763 -25.351913928985596 23.32179546356201
18.034820795059204 -25.961935997009277 23.60754108428955
17.909509897232056 -26.584163665771484 23.876023292541504
17.754444360733032 -27.213581085205078 24.135083198547363
17.575761079788208 -27.845585823059082 24.392516136169434
LINES 1 121
120 0 1 2 3 4 5 6 7 8 9 10 11 12 13 14 15 16 17 18 19 20 21 22 23 24 25 26 27 28 29 30 31 32 33 34 35 36 37 38 39 40 41 42 43 44 45 46 47 48 49 50 51 52 53 54 55 56 57 58 59 60 61 62 63 64 65 66 67 68 69 70 71 72 73 74 75 76 77 78 79 80 81 82 83 84 85 86 87 88 89 90 91 92 93 94 95 96 97 98 99 100 101 102 103 104 105 106 107 108 109 110 111 112 113 114 115 116 117 118 119
POINT_DATA 120
SCALARS Curvature float 1
LOOKUP_TABLE default
0.0
0.31001069797947817
0.16680695304055543
0.08804213486714925
0.05356049042709059
0.06528945998124269
0.10338260343843989
0.15377723309208668
0.21158810058321223
0.2685828612955013
0.3129968428503612
0.33605003140342593
0.338587061539986
0.3292287894759646
0.31572223454737214
0.30026001126877155
0.2808590089206253
0.2550758145493059
0.22242430486648843
0.18484498286086345
0.14563149075214218
0.10771272969278416
0.07188701235904976
0.03657380561155193
0.009663644285347904
0.061631784535338095
0.15646829634029
0.337674589246233
0.6343614494423675
0.8589145874650526
0.8622163074256859
0.6711770906408551
0.4267331889569726
0.2773633158135208
0.21050970500887134
0.19114722054094918
0.1988207843089452
0.2202276312608523
0.24123610326331674
0.24807330048670256
0.23225833353359182
0.19861453784869243
0.1613322439149347
0.13746603269700297
0.139250211443676
0.16321899432727305
0.19816436823524528
0.23561713901700182
0.2705026691652301
0.29786640078096244
0.3118413596676619
0.3082355449487636
0.28850895362553014
0.2590610762153657
0.22742257699681043
0.19904545131670273
0.17626849507761583
0.15895808070614065
0.14610147734557197
0.13687623821957148
0.1293570580777378
0.12264463914005783
0.11666096643939526
0.11053263063388553
0.10425481216161471
0.0979605117437611
0.09334129204073045
0.09354001674165366
0.10270270299969132
0.12371225962854948
0.15604708973431922
0.19424727562038183
0.22936305467491624
0.2503702465169645
0.2500663871851867
0.23077079940653206
0.2008135940085666
0.172645210065758
0.1541736160110315
0.14798269493438607
0.1500739645039852
0.1523086457826134
0.1477693109138403
0.13541798493420845
0.1161575497080993
0.09285324727393596
0.06795929702978117
0.04242381793044597
0.017432287661002865
0.01134537481273748
0.03188735298399694
0.048386026456524574
0.05709140705642837
0.05663470962025004
0.04886245097717919
0.037177228738476696
0.029062663151425548
0.032156875166112465
0.04436144548261572
0.06194504039204416
0.08486910653221313
0.11347577581528304
0.14762276157077298
0.18064708197176524
0.20529560977210737
0.2152620452308373
0.20898708479978634
0.19308229707895547
0.1755079715547982
0.16187522576498173
0.15446824271752252
0.15096463418938263
0.1466677742042883
0.13928212118638522
0.12490012655588632
0.10565064957164795
0.08380068402392878
0.06262202876572964
0.04525026248595177
0.0
SCALARS Torsion float 1
LOOKUP_TABLE default
0.0
0.0
0.2718498009229542
0.5688390125324856
0.8736277010323462
0.6695538124695536
0.31625545582026926
0.1735645822689973
0.1327745231874592
0.13592695644601963
0.16115353360266715
0.19546474297668265
0.22445893145808493
0.22931572446117998
0.20028574296288992
0.14178037219476036
0.07050536150369617
0.002834559066380235
-0.05242906300692143
-0.09365938128335316
-0.12218496428910976
-0.14032019054108164
-0.14434977729784715
-0.021956368696653267
0.9999780965129001
0.1942652958944523
-0.02859547219609851
-0.09048469792852544
-0.10901089669043675
-0.10420643565801933
-0.07707251339053169
-0.024295190664158008
0.045103944490985336
0.10997223866671622
0.13006176329205352
0.09008034128280087
0.01840822111403277
-0.051068372442298254
-0.1091470807130414
-0.1706382640689152
-0.2488404994180526
-0.3699036562475984
-0.5385329308703108
-0.6723204102778491
-0.6505034591297882
-0.510960290701215
-0.3720580471117442
-0.277747871803508
-0.2135977272418433
-0.1638059134944889
-0.12295536589913283
-0.0915803016966751
-0.07008681917371098
-0.054930521035682835
-0.041160301188848815
-0.024376189927868396
-0.001248753898808689
0.02807287121665312
0.061418109727567546
0.09779267118278315
0.13715589822378962
0.1778985724328717
0.215037335400845
0.25381059020594876
0.29038315310844776
0.3366759394205925
0.3902232184479928
0.4322177713662402
0.42791949856004696
0.3651533620928966
0.27714924340007385
0.19780280261272293
0.12768119726669058
0.06548990845451298
-0.0014819539945833404
-0.09231991746619225
-0.2066378432559051
-0.3350943025817485
-0.42549543300432763
-0.4339101945631614
-0.37486501354739055
-0.30196758395685885
-0.25052697103160076
-0.2171847546702101
-0.19406841448138867
-0.18076667062567436
-0.16297761977467143
-0.09079172862532947
0.5110251763375607
0.9625156389534483
0.18254850559018476
0.039627714792565105
0.027085101308710915
0.05594514940237287
0.14511576794082715
0.37110639323712075
0.6521256009607933
0.5600720791301866
0.2563395694803472
0.048309604806499734
-0.060188020245301684
-0.089745259596413
-0.09378791705961415
-0.07516228120818767
-0.05077959083591152
-0.027398879338813097
-0.001410460531348863
0.035151616840491486
0.06596169713337048
0.08501751988508784
0.0900022895424653
0.07000855222481804
0.036302038084079225
0.010097029173203383
-0.039518751591705044
-0.08889153028561247
-0.17127789915421762
-0.2969838914162013
-0.47857884549842084
0.0
SCALARS Distance_to_V float 1
LOOKUP_TABLE default
0.0
0.3837785140991898
0.8168657213978446
1.308430971361431
1.8532924998988276
2.4389154174432925
3.049839980240789
3.670241483184383
4.285375200102023
4.882235938420237
5.449884495159056
5.979467350870163
6.464067037321116
6.898429010822668
7.278639140700181
7.6018836897986075
7.866536990022835
8.07275662320107
8.223595338010979
8.326418342599156
8.394091939259702
8.445047870397037
8.501358922212567
8.584919290146848
8.712427978908368
8.890770483405934
9.114737125212335
9.368193097989149
9.628232305990931
9.870999670434278
10.07681601152817
10.233828234355935
10.339700991168698
10.400516802714172
10.427996526797205
10.435432145180966
10.433915549485855
10.42971245829666
10.423412759472605
10.411056309859894
10.386084691674585
10.342280554764722
10.276013446482137
10.187698629786238
10.082415634769072
9.969526108552689
9.861489630702664
9.771728162364463
9.712518826368894
9.692998127813578
9.717721457122716
9.786335705827447
9.894540800112162
10.035924381582575
10.203733906195266
10.39200886114556
10.595971821943795
10.811817753763659
11.036227822528415
11.266028357654694
11.497859481634638
11.728007412737448
11.95243879660534
12.167019944723902
12.367768330285571
12.551245788640236
12.71480716249514
12.856521186029973
12.974878461462694
13.068365150640624
13.13500819702367
13.17200927341884
13.176033282447648
13.143360249436004
13.070410149684172
12.954033538364849
12.791190433752522
12.57911565191403
12.315070066494345
11.996856277675068
11.623401876854478
11.195260434512115
10.71517672071237
10.188579110480374
9.62327573261827
9.028737575855065
8.415279126756072
7.792885382293279
7.169859599845932
6.551912528974776
5.94190600264122
5.339917929306555
4.744088382946105
4.152039517758835
3.5625466613644017
2.9773709048557415
2.404067463125613
1.8612358654028096
1.3918088524303096
1.0919338167744288
1.0882532387401247
1.348162023345784
1.7164230778333875
2.093445295830692
2.433383143170065
2.714133674029511
2.9250979572782394
3.062883224518503
3.1283974434421795
3.1246669649320093
3.055137981011769
2.92251608292951
2.728892105115065
2.476525791751274
2.1682096255208023
1.808645879262099
1.4041259497063312
0.9622856199812233
0.4914685761861256
0.0
SCALARS Local_Extrema int 1
LOOKUP_TABLE default
0
0
0
0
0
0
0
0
0
0
0
0
0
0
0
0
0
0
0
0
0
0
0
0
0
0
0
0
0
0
0
0
0
0
0
1
0
0
0
0
0
0
0
0
0
0
0
0
0
-1
0
0
0
0
0
0
0
0
0
0
0
0
0
0
0
0
0
0
0
0
0
0
1
0
0
0
0
0
0
0
0
0
0
0
0
0
0
0
0
0
0
0
0
0
0
0
0
0
0
0
-1
0
0
0
0
0
0
0
1
0
0
0
0
0
0
0
0
0
0
0
