# vtk DataFile Version 3.0
Curve with Curvature, Torsion, Distance to V, and Extrema
ASCII
DATASET POLYDATA
POINTS 120 float
0.0 0.0 0.0
-0.31317925453186035 -0.6261672973632812 -0.08817768096923828
-0.6970994472503662 -1.216085433959961 -0.09679174423217773
-1.1305673122406006 -1.7765922546386719 -0.03038930892944336
-1.5925424098968506 -2.3143558502197266 0.10582971572875977
-2.0625884532928467 -2.8353729248046875 0.3046879768371582
-2.5218803882598877 -3.344015121459961 0.5548515319824219
-2.9547674655914307 -3.8417320251464844 0.8383498191833496
-3.3503034114837646 -4.325929641723633 1.1290810108184814
-3.7030766010284424 -4.789953231811523 1.3933379650115967
-4.013020277023315 -5.224390029907227 1.5930469036102295
-4.284152269363403 -5.619917869567871 1.6914474964141846
-4.523145914077759 -5.970668792724609 1.6597990989685059
-4.738264322280884 -6.2769670486450195 1.48297119140625
-4.938610315322876 -6.546291351318359 1.1618592739105225
-5.133540391921997 -6.792365074157715 0.712519645690918
-5.331654787063599 -7.032995223999023 0.16274118423461914
-5.539234399795532 -7.286654472351074 -0.4535675048828125
-5.758024454116821 -7.568861961364746 -1.1023249626159668
-5.983136415481567 -7.889141082763672 -1.754021167755127
-6.202074289321899 -8.249364852905273 -2.3866848945617676
-6.39567494392395 -8.643765449523926 -2.9868812561035156
-6.5409510135650635 -9.06088924407959 -3.5490050315856934
-6.615219354629517 -9.48660659790039 -4.0737128257751465
-6.600590944290161 -9.907662391662598 -4.566209316253662
-6.487711191177368 -10.314769744873047 -5.034580707550049
-6.27760910987854 -10.704280853271484 -5.488598346710205
-5.9814417362213135 -11.078912734985352 -5.93842077255249
-5.617542505264282 -11.446084976196289 -6.3929667472839355
-5.206835985183716 -11.815431594848633 -6.857472896575928
-4.768005609512329 -12.196115493774414 -7.330738544464111
-4.313928842544556 -12.593796253204346 -7.80280065536499
-3.8508694171905518 -13.009262084960938 -8.254241466522217
-3.380218744277954 -13.437767505645752 -8.657488346099854
-2.9021494388580322 -13.86922550201416 -8.980241298675537
-2.419389009475708 -14.289992332458496 -9.190480709075928
-1.9397852420806885 -14.684681415557861 -9.261991024017334
-1.4766027927398682 -15.037759780883789 -9.179351329803467
-1.0465624332427979 -15.335471630096436 -8.94109582901001
-0.6662700176239014 -15.566699028015137 -8.560428142547607
-0.3485407829284668 -15.723567962646484 -8.06308889389038
-0.0997014045715332 -15.80262541770935 -7.482640743255615
0.08118247985839844 -15.805896520614624 -6.854465007781982
0.20135784149169922 -15.74236536026001 -6.2096333503723145
0.27242588996887207 -15.628751754760742 -5.57034158706665
0.3079500198364258 -15.4886794090271 -4.9480977058410645
0.32120299339294434 -15.350008964538574 -4.344414234161377
0.32317352294921875 -15.239529609680176 -3.753413677215576
0.3211503028869629 -15.177454948425293 -3.165592670440674
0.31802964210510254 -15.174144744873047 -2.571788787841797
0.31226348876953125 -15.229334831237793 -1.965980052947998
0.29853200912475586 -15.335010528564453 -1.3470826148986816
0.2690911293029785 -15.480406284332275 -0.7195334434509277
0.21554851531982422 -15.657241821289062 -0.09309625625610352
0.13069510459899902 -15.863606929779053 0.5179967880249023
0.010203361511230469 -16.105125427246094 1.0968081951141357
-0.14594793319702148 -16.39242649078369 1.6262855529785156
-0.33249545097351074 -16.73725414276123 2.092655897140503
-0.5388386249542236 -17.148597955703735 2.4886999130249023
-0.7500894069671631 -17.629344701766968 2.8161704540252686
-0.9491860866546631 -18.175177693367004 3.0863423347473145
-1.1195266246795654 -18.77537965774536 3.3184832334518433
-1.2473504543304443 -19.414788365364075 3.536468505859375
-1.3234264850616455 -20.076519042253494 3.764065742492676
-1.3435652256011963 -20.74474596977234 4.01972109079361
-1.307924509048462 -21.406561017036438 4.312490284442902
-1.2192022800445557 -22.053398370742798 4.639967381954193
-1.0804150104522705 -22.680392026901245 4.98918822593987
-0.89304518699646 -23.285683155059814 5.3399778008461
-0.6562941074371338 -23.868377685546875 5.670193314552307
-0.3675694465637207 -24.42703676223755 5.961486279964447
-0.023839473724365234 -24.95838165283203 6.204166054725647
0.3767273426055908 -25.457664489746094 6.399709939956665
0.8335511684417725 -25.918593406677246 6.5600903034210205
1.3431832790374756 -26.335538864135742 6.70428729057312
1.899486780166626 -26.70490550994873 6.853293061256409
2.494214177131653 -27.026140689849854 7.025163173675537
3.1178142726421356 -27.302003383636475 7.231769323348999
3.760140582919121 -27.537003993988037 7.477792739868164
4.411005914211273 -27.736260414123535 7.7620625495910645
5.060724139213562 -27.902905464172363 8.08010458946228
5.700416803359985 -28.038023948669434 8.426914930343628
6.322545528411865 -28.139941215515137 8.798959732055664
6.921466588973999 -28.206408500671387 9.194904804229736
7.494204521179199 -28.235838890075684 9.614996433258057
8.041062593460083 -28.229990005493164 10.059542655944824
8.565823793411255 -28.195053100585938 10.52727746963501
9.07528567314148 -28.141188621520996 11.014517307281494
9.578194856643677 -28.08158588409424 11.515026569366455
10.083528757095337 -28.029309272766113 12.021303653717041
10.599172353744507 -27.99594497680664 12.525825500488281
11.129758596420288 -27.988780975341797 13.02222490310669
11.67613673210144 -28.010788917541504 13.507147312164307
12.2346351146698 -28.06163787841797 13.980469226837158
12.797147512435913 -28.139060974121094 14.445197582244873
13.352510213851929 -28.24189853668213 14.906514644622803
13.88855528831482 -28.370718002319336 15.370784282684326
14.394288778305054 -28.528430938720703 15.843328952789307
14.862833738327026 -28.718860626220703 16.327682971954346
15.293165922164917 -28.94450283050537 16.824097156524658
15.690616369247437 -29.204848289489746 17.329752445220947
16.06632399559021 -29.495988845825195 17.839049816131592
16.433842420578003 -29.811379432678223 18.344411373138428
16.805776357650757 -30.14449977874756 18.83726453781128
17.189395666122437 -30.49113368988037 19.310001850128174
17.584266424179077 -30.852142333984375 19.75609064102173
17.98179316520691 -31.23281478881836 20.171276569366455
18.367501974105835 -31.64228630065918 20.553168773651123
18.72532343864441 -32.09092998504639 20.90013551712036
19.042315244674683 -32.587310791015625 21.21095895767212
19.311739683151245 -33.136399269104004 21.48436212539673
19.53482222557068 -33.73793697357178 21.718740940093994
19.719411611557007 -34.38673496246338 21.913198947906494
19.878263235092163 -35.074021339416504 22.068235874176025
20.02640700340271 -35.7881965637207 22.186184406280518
20.17961287498474 -36.5163459777832 22.271015644073486
20.353463888168335 -37.24483108520508 22.32854127883911
20.562530279159546 -37.96004104614258 22.365225315093994
20.821603536605835 -38.648441314697266 22.388140201568604
21.144899129867554 -39.29629898071289 22.40440034866333
LINES 1 121
120 0 1 2 3 4 5 6 7 8 9 10 11 12 13 14 15 16 17 18 19 20 21 22 23 24 25 26 27 28 29 30 31 32 33 34 35 36 37 38 39 40 41 42 43 44 45 46 47 48 49 50 51 52 53 54 55 56 57 58 59 60 61 62 63 64 65 66 67 68 69 70 71 72 73 74 75 76 77 78 79 80 81 82 83 84 85 86 87 88 89 90 91 92 93 94 95 96 97 98 99 100 101 102 103 104 105 106 107 108 109 110 111 112 113 114 115 116 117 118 119
POINT_DATA 120
SCALARS Curvature float 1
LOOKUP_TABLE default
0.0
0.22272196503974037
0.18263160656209748
0.14747919955150832
0.12069883196102801
0.10076839650219686
0.08259505530663883
0.06137054094331108
0.05576614679696081
0.1430468622807863
0.35500617821507935
0.6282941198666505
0.7121817817155291
0.5429188786829766
0.2960752868637174
0.12889648181291766
0.03501668940260888
0.024273048740115398
0.05681677617314066
0.07711274284704664
0.09275722741082283
0.11684549211698188
0.15968715605261785
0.21369505930161545
0.2501967198184047
0.24191959371997246
0.1905143632685415
0.12322516152714966
0.06438982444010065
0.02673518552855647
0.02581669576625636
0.048243817940364066
0.08543844295756989
0.1442376183971384
0.23000855283757707
0.3364467245490353
0.4312855429551058
0.46907844746418226
0.4384278372224509
0.37155094624518803
0.30399937447626485
0.2501465419758656
0.20662675372691225
0.1633634080300766
0.11158370653381312
0.05738152404405876
0.07661985341485283
0.13644553038481733
0.1652396228327882
0.15340324018730742
0.12148274932526093
0.09506026303898985
0.08999938835645659
0.10752238848379377
0.143277516058603
0.19185862841730733
0.23885623008111648
0.26133908484475693
0.24496191266588208
0.1997512910099643
0.14895418268315302
0.11470292218448166
0.10874588776371076
0.11893519710370695
0.12552342686560808
0.12045312537101073
0.10813425284562063
0.10072721941286131
0.112268781088114
0.14020931285875138
0.1672533931742417
0.1776061847153731
0.1696446739390131
0.1528465759639152
0.1389820897930064
0.1301258504439326
0.12056466734696226
0.10823643955288918
0.09439679879746057
0.08428797852586271
0.0798512295420635
0.08331483497309583
0.09154199742602805
0.09998661275860943
0.10019192596061045
0.08711934396052487
0.06183791236304604
0.029585829885658423
0.015707688663139045
0.040168762402830696
0.05830015450926708
0.06493250673934058
0.06148785276700954
0.05235427672647812
0.0494416854136218
0.06066989234258784
0.08231759959399544
0.10224457660444618
0.10985192029742132
0.1007784321346087
0.07748882883448177
0.05224163857266154
0.044777777354604795
0.05475232292499132
0.06613496434921065
0.07599993392903938
0.09674038256314711
0.13055135780866792
0.16196682767113205
0.17588302593473945
0.16598378510269649
0.13970195395240875
0.1078785794849281
0.07951038213715712
0.0616712222285155
0.06036466994025402
0.07682644260598331
0.10641994578529315
0.14360378405330704
0.0
SCALARS Torsion float 1
LOOKUP_TABLE default
0.0
0.0
-0.2107105526015204
-0.2832930174830124
-0.35239110116570704
-0.4048035534495255
-0.48012716467342875
-0.7316462593939201
-0.9432162463084094
-0.5754920603140167
-0.27863809638508885
-0.1585905997922367
-0.09640983781465075
-0.05728607054553615
-0.02688074233005003
0.03576324334011906
0.6163247003915727
0.8399857757997079
0.06959219806008687
-0.13873593997409744
-0.3081524248328868
-0.39804814085590134
-0.3621966786247061
-0.2744177603288139
-0.1965840502829359
-0.1456857191709485
-0.10776865764647378
-0.07601202594626709
0.04823200323135017
0.777644527890807
0.7672489087495487
0.056573263291474385
-0.12277248776465213
-0.11764989005901323
-0.07821747276847046
-0.04231647036623322
-0.017537108668734886
-0.001447692574113861
-0.003084966170902785
-0.023290292342818267
-0.053261551027032436
-0.08179676630589727
-0.08427430466192903
-0.029967637754584033
0.21280451430862585
0.9491131186499482
0.8528866163602844
0.30896755931996234
0.0894678716594085
-0.04378096256512888
-0.21228004398292022
-0.4061608303549203
-0.3993192685273083
-0.1523961567297987
0.06373394785371964
0.1514494869965724
0.18154327673919013
0.20524208020193654
0.25003946087648327
0.34461976727398846
0.5095111114238532
0.6649885446973776
0.6210415083991194
0.41829115567616876
0.2278179591048822
0.04963493098753177
-0.17085714868328802
-0.40393615001413324
-0.42089838145161634
-0.25853192619374343
-0.07852455954579513
0.08091886885567288
0.25122813330828103
0.395523627776537
0.4557019338272292
0.4125124145353839
0.3283458043455763
0.24358935390609984
0.18272580305729702
0.10916403461943684
0.05807800280229972
0.008017967386126576
0.0076502699684624165
0.010809468594176497
0.03632087648666255
0.07601002966049855
0.17082929924385284
0.6705374837227716
0.9886511776511439
0.3354982604696255
0.1263901336767236
0.035891421692800046
-0.07810312004890106
-0.3035882768889497
-0.5222297019131317
-0.43429400131230556
-0.20932600513746147
-0.06650924866535232
0.028684726464632326
0.11638209492620197
0.30159650729527143
0.6555808322392844
0.7813532952139851
0.4260000758689032
-0.019541398546463862
-0.3295349572054506
-0.40028515395434067
-0.28301007033784303
-0.1577704300680153
-0.059280422336426025
0.037438021104467714
0.12815997860827488
0.2525514861064475
0.4242416889549718
0.6093051631446471
0.6224323188459844
0.4282871813318322
0.26268786444859743
0.159395124682748
0.0
SCALARS Distance_to_V float 1
LOOKUP_TABLE default
0.0
0.6286161006403631
1.2616435573562306
1.9013115676492907
2.5449749161319595
3.1862837252477894
3.8163118881993876
4.424610822690101
5.0001405066888065
5.532425445941027
6.013211233005419
6.438798072288385
6.812833594915541
7.148386477685884
7.4675503683051545
7.797941454411386
8.166567991812276
8.592907555683011
9.08378770273526
9.63186018291907
10.217764852139057
10.814640622228383
11.393621090175662
11.929181956835151
12.403961854035952
12.81217791482543
13.160717831343296
13.467887080630174
13.758548453295928
14.05724543138426
14.38110494192256
14.734006446984166
15.104819281375352
15.469018316931752
15.79322487869395
16.041792517579847
16.18327146137604
16.19566729790184
16.06999864112274
15.811021324721585
15.435481316257727
14.968582748359244
14.439418064043771
13.8767110482984
13.305688792626752
12.746581805276591
12.214303439822885
11.718196992739276
11.262414110264874
10.84744128086492
10.471913108184385
10.135473571824182
9.841589121322528
9.599427847316177
9.423895716607475
9.332927440056991
9.34199366806088
9.458331428170466
9.677448603285066
9.982693471046522
10.3482601088162
10.7437782247308
11.138852458585646
11.507134928282875
11.829468173106493
12.09529647904255
12.302440384822253
12.45440072447544
12.557205812356953
12.616005233101406
12.633176614938215
12.607703646784266
12.536171669885288
12.413508207085997
12.234843168671343
11.99692105556771
11.699523791447112
11.346355682382963
10.944496392328837
10.503349336574695
10.032039975731987
9.53815386473617
9.02609711542768
8.497732605589878
7.952992397287184
7.391999284616956
6.816539334016456
6.230480715837951
5.639706528033654
5.0503049330521605
4.467692491392039
3.8957093792540722
3.336419592634367
2.791595776046966
2.26399899489927
1.759106609327719
1.2856314710677172
0.8600514726571777
0.5267639471350084
0.42674537076072583
0.6122307909977077
0.8888180575042609
1.173096165037324
1.4457458116428414
1.7005338560294327
1.9316075799751287
2.131266150459149
2.2886279893713435
2.390840813535778
2.4266307736619024
2.389058887387199
2.2775474495567627
2.0979831447087367
1.861223054527962
1.5813294652985217
1.2732722457977386
0.9516934387516987
0.6284237320711314
0.3109876823361482
0.0
SCALARS Local_Extrema int 1
LOOKUP_TABLE default
0
0
0
0
0
0
0
0
0
0
0
0
0
0
0
0
0
0
0
0
0
0
0
0
0
0
0
0
0
0
0
0
0
0
0
0
0
1
0
0
0
0
0
0
0
0
0
0
0
0
0
0
0
0
0
-1
0
0
0
0
0
0
0
0
0
0
0
0
0
0
1
0
0
0
0
0
0
0
0
0
0
0
0
0
0
0
0
0
0
0
0
0
0
0
0
0
0
0
0
-1
0
0
0
0
0
0
0
0
0
1
0
0
0
0
0
0
0
0
0
0
