# vtk DataFile Version 3.0
Curve with Curvature, Torsion, Distance to V, and Extrema
ASCII
DATASET POLYDATA
POINTS 120 float
0.0 0.0 0.0
-0.12887334823608398 -0.4872150421142578 0.4242687225341797
-0.3448457717895508 -0.9703102111816406 0.7105708122253418
-0.627899169921875 -1.449880599975586 0.8738012313842773
-0.9580726623535156 -1.9264678955078125 0.9287877082824707
-1.3156208992004395 -2.4004764556884766 0.8900933265686035
-1.681373119354248 -2.8720359802246094 0.7716155052185059
-2.037299156188965 -3.3408126831054688 0.5860438346862793
-2.3672165870666504 -3.805816650390625 0.34436559677124023
-2.65748929977417 -4.265390396118164 0.05565071105957031
-2.8975462913513184 -4.717283248901367 -0.2727656364440918
-3.0800986289978027 -5.158905029296875 -0.6348090171813965
-3.2009940147399902 -5.587543487548828 -1.0251774787902832
-3.2588582038879395 -6.0005340576171875 -1.439079761505127
-3.254669666290283 -6.395425796508789 -1.8722777366638184
-3.191357135772705 -6.77020263671875 -2.321350574493408
-3.073519229888916 -7.123686790466309 -2.7838969230651855
-2.9073052406311035 -7.455992698669434 -3.2585692405700684
-2.700422763824463 -7.768960952758789 -3.744781017303467
-2.4621176719665527 -8.06643009185791 -4.242100238800049
-2.203003406524658 -8.354360580444336 -4.749255657196045
-1.9347162246704102 -8.6406831741333 -5.262983798980713
-1.6693177223205566 -8.934694290161133 -5.776997089385986
-1.4184002876281738 -9.246081352233887 -6.281106472015381
-1.1921515464782715 -9.583419799804688 -6.761045932769775
-0.9984965324401855 -9.952908515930176 -7.199073314666748
-0.8425173759460449 -10.356917381286621 -7.575266361236572
-0.7263126373291016 -10.793370246887207 -7.869475841522217
-0.6493515968322754 -11.255766868591309 -8.063782215118408
-0.6092438697814941 -11.732916831970215 -8.145069599151611
-0.6027545928955078 -12.209676742553711 -8.107001781463623
-0.6268010139465332 -12.66847038269043 -7.9507975578308105
-0.6791696548461914 -13.090423583984375 -7.684900760650635
-0.7587499618530273 -13.4572172164917 -7.323521137237549
-0.865203857421875 -13.753408432006836 -6.884420871734619
-0.9981751441955566 -13.968360900878906 -6.3865485191345215
-1.1563186645507812 -14.097535133361816 -5.848016262054443
-1.3365025520324707 -14.143355369567871 -5.284714221954346
-1.533339023590088 -14.114758491516113 -4.709415912628174
-1.7392706871032715 -14.025784492492676 -4.131643772125244
-1.9450507164001465 -13.893680572509766 -3.5580086708068848
-2.140571117401123 -13.736668586730957 -2.992912769317627
-2.315927028656006 -13.57217788696289 -2.4394259452819824
-2.462463855743408 -13.41600513458252 -1.90004301071167
-2.5736184120178223 -13.281173706054688 -1.3772015571594238
-2.645200252532959 -13.178650856018066 -0.8734622001647949
-2.675199031829834 -13.117894172668457 -0.39127397537231445
-2.663285732269287 -13.10744857788086 0.06740808486938477
-2.6103339195251465 -13.155363082885742 0.5015578269958496
-2.5182271003723145 -13.268790245056152 0.911473274230957
-2.389997959136963 -13.452823638916016 1.2989935874938965
-2.2300591468811035 -13.709691047668457 1.6673040390014648
-2.04433536529541 -14.037681579589844 2.0205230712890625
-1.8401188850402832 -14.43112564086914 2.3630075454711914
-1.625502586364746 -14.881152629852295 2.6985678672790527
-1.4086389541625977 -15.376862525939941 3.0297293663024902
-1.1970057487487793 -15.906874656677246 3.35725736618042
-0.9967217445373535 -16.460898399353027 3.680107593536377
-0.8121123313903809 -17.030292510986328 3.995694875717163
-0.6454553604125977 -17.608827114105225 4.300548791885376
-0.49690866470336914 -18.19257402420044 4.591123342514038
-0.36460447311401367 -18.779442310333252 4.864617347717285
-0.24489974975585938 -19.3687744140625 5.119606971740723
-0.13277053833007812 -19.960763931274414 5.356365919113159
-0.02231311798095703 -20.555646896362305 5.576860785484314
0.09267902374267578 -21.15355110168457 5.784415602684021
0.21815013885498047 -21.754176259040833 5.983145117759705
0.35933351516723633 -22.356417328119278 6.17732048034668
0.5204753875732422 -22.95847576856613 6.3708168268203735
0.7047743797302246 -23.557768881320953 6.56670469045639
0.9145350456237793 -24.150569677352905 6.767059743404388
1.1514458656311035 -24.73215913772583 6.973014205694199
1.4168734550476074 -25.29723620414734 7.184932589530945
1.7120695114135742 -25.839494943618774 7.402806670754217
2.038151979446411 -26.352592706680298 7.62664258480072
2.3959388732910156 -26.830678462982178 7.856852889060974
2.7856640815734863 -27.26884365081787 8.094511449337006
3.2066397666931152 -27.663981437683105 8.34140533208847
3.6569905281066895 -28.015328407287598 8.599890947341919
4.133583188056946 -28.324417114257812 8.872403264045715
4.63220489025116 -28.595085620880127 9.16079592704773
5.148014187812805 -28.832702159881592 9.46563458442688
5.6760594099760056 -29.042806148529053 9.785578966140747
6.211814671754837 -29.229971408843994 10.11737060546875
6.751592516899109 -29.39688205718994 10.456129312515259
7.292690396308899 -29.54329204559326 10.795619010925293
7.833423852920532 -29.665903568267822 11.129603147506714
8.37294626235962 -29.759453296661377 11.452730178833008
8.910988092422485 -29.81787395477295 11.761270523071289
9.44761610031128 -29.83600378036499 12.053895473480225
9.983057498931885 -29.81169891357422 12.33178997039795
10.51751708984375 -29.74720287322998 12.59845495223999
11.05102252960205 -29.649205684661865 12.859666347503662
11.583595275878906 -29.52873468399048 13.12206745147705
12.115230083465576 -29.399317741394043 13.392832279205322
12.645793437957764 -29.275158882141113 13.678606510162354
13.174914836883545 -29.169169425964355 13.98459243774414
13.701974391937256 -29.091567039489746 14.31416654586792
14.225883960723877 -29.04933214187622 14.668753623962402
14.744637966156006 -29.046245098114014 15.047766208648682
15.255611896514893 -29.08395290374756 15.448866367340088
15.75520372390747 -29.163053035736084 15.868232250213623
16.239007472991943 -29.283947944641113 16.300601482391357
16.70225763320923 -29.447627067565918 16.739481449127197
17.14001989364624 -29.65584897994995 17.17756223678589
17.547251224517822 -29.910593032836914 17.607144832611084
17.918988704681396 -30.213414669036865 18.020617961883545
18.250179767608643 -30.565086841583252 18.411473751068115
18.535705089569092 -30.96482753753662 18.77498769760132
18.770480632781982 -31.410045623779297 19.10869550704956
18.950049877166748 -31.89668369293213 19.41248655319214
19.07145071029663 -32.4193811416626 19.68849515914917
19.13412046432495 -32.971858978271484 19.940585613250732
19.140699863433838 -33.54803657531738 20.17328977584839
19.097057819366455 -34.14205455780029 20.39125394821167
19.01218843460083 -34.748677253723145 20.598639965057373
18.897082805633545 -35.36380100250244 20.797973155975342
18.76355218887329 -35.984418869018555 20.98996114730835
18.622661113739014 -36.60850143432617 21.173340320587158
18.4840407371521 -37.23473930358887 21.34514093399048
LINES 1 121
120 0 1 2 3 4 5 6 7 8 9 10 11 12 13 14 15 16 17 18 19 20 21 22 23 24 25 26 27 28 29 30 31 32 33 34 35 36 37 38 39 40 41 42 43 44 45 46 47 48 49 50 51 52 53 54 55 56 57 58 59 60 61 62 63 64 65 66 67 68 69 70 71 72 73 74 75 76 77 78 79 80 81 82 83 84 85 86 87 88 89 90 91 92 93 94 95 96 97 98 99 100 101 102 103 104 105 106 107 108 109 110 111 112 113 114 115 116 117 118 119
POINT_DATA 120
SCALARS Curvature float 1
LOOKUP_TABLE default
0.0
0.4125485270310055
0.3936537095535466
0.33256078156279434
0.2632903451085964
0.2078076731938033
0.17342060655801847
0.15961490969274655
0.16157866169660173
0.17231004498053276
0.18490345700627597
0.19424045298509104
0.1974566297390332
0.193699346290344
0.1833478015388636
0.16691564593015495
0.14485940420226276
0.11780507627155914
0.08694822799363715
0.053614254223693696
0.018647588936267882
0.018568196155569056
0.05833611299251172
0.10351109500345565
0.15815112212828028
0.22611856320212337
0.3091606954970884
0.39806915432153256
0.4674705978351068
0.49348544721011756
0.47379173934185526
0.42870314518592123
0.3815919416509882
0.3426374581604822
0.31024588222512706
0.27822077861295275
0.2409843069963175
0.19839814669683017
0.15362238657754873
0.11014568019550627
0.07276657883524112
0.054036237123080255
0.07180167681990639
0.11324423737790962
0.16658178328622977
0.2302609144818429
0.3011604817730127
0.36615164478530193
0.39913994980870326
0.3789184964796385
0.3139704356512677
0.23282970873779196
0.16142843105289917
0.10945109980969163
0.07619133642129004
0.05811236083305037
0.050797462833152784
0.049131779820388896
0.049980045438903435
0.05127313189994971
0.05158029106302136
0.04988698433554051
0.04561934996758008
0.03927511321462176
0.033891762901429624
0.03326828924718082
0.03816268732846429
0.0456234080341631
0.053185165124084
0.06055381231103484
0.06825458130699678
0.0768698114072366
0.08799339871746958
0.10101450147419908
0.11489064598710165
0.12769551818714459
0.13589089847791813
0.1364535647037638
0.12882699317266955
0.11391613279092938
0.09511477751812954
0.07651669382325897
0.06084654195182517
0.05001552308742897
0.047276498268599074
0.055317088845407064
0.07186232087481365
0.09298432771825818
0.11227852534867652
0.12151834044367467
0.11506451197853694
0.0932044278682028
0.060243543070644764
0.03033811657864817
0.03996984581056415
0.0690796675832494
0.0921514522147769
0.10529072626491447
0.10937437955273951
0.10819908630373604
0.10606840068379621
0.1058929588810068
0.10993642744944954
0.11938805386870895
0.1338181808561123
0.15180597447599178
0.17153078511767147
0.18902762210189902
0.2010364708952387
0.20514843063213853
0.19927612440851053
0.18351945855412596
0.16000043148977172
0.13147271706910432
0.10051149557120632
0.07074344592898146
0.04419571915336219
0.02616248883269546
0.027001408092095457
0.0
SCALARS Torsion float 1
LOOKUP_TABLE default
0.0
0.0
0.10594642021955152
0.14892038142455022
0.2105351669257898
0.2862396160861067
0.3468912997776079
0.3484741452468635
0.2863293188538842
0.2002399128270688
0.12756479597809012
0.07690768883917219
0.042167848975699695
0.014959171136525957
-0.010676083294385734
-0.03425746137509726
-0.05653835370458391
-0.07767870537231662
-0.1004798451669207
-0.1173381465318256
0.07302255023272454
0.4951832240520414
0.0011543301126568095
-0.07061739691593771
-0.10235729158312742
-0.12041401138733417
-0.12941467515428348
-0.1275016456662892
-0.11438854772360274
-0.09024082472335561
-0.055413773307053764
-0.012166621359764554
0.03162174575324942
0.06368025992039336
0.07568166412429563
0.06802082603343029
0.04682834674986583
0.008131987776466683
-0.06219788302793707
-0.22131567434873708
-0.5931829266593147
-0.8955483251229664
-0.7332882838845299
-0.397073127982291
-0.24658930743057134
-0.19212699331631053
-0.17231125328552405
-0.16296219986682783
-0.15293406216045996
-0.1439968090768423
-0.14760819000520603
-0.1644424516992551
-0.2074050377134664
-0.2791653883046978
-0.36380932145106126
-0.40136206640378735
-0.32368926342016235
-0.1690551422388669
-0.00893820169670101
0.11132091240703704
0.193967030917228
0.2639914976260083
0.3498240413900434
0.48257930379923053
0.6230905360285616
0.6379584961958169
0.500347352499254
0.3311554238011297
0.20959714625448994
0.13280815176605953
0.08100446878722743
0.044566534159992136
0.03156953339141954
0.02758569754992409
0.03462705688256272
0.048890360294865515
0.06633204635089462
0.08838257291785626
0.11170836616009017
0.13408987641331002
0.14764028577682714
0.12946152595875024
0.05691018577859552
-0.10027590427577945
-0.2813424371610471
-0.25295786002802806
-0.13770509955998395
-0.04449206414775503
0.0187841172732481
0.05587168678690042
0.0955717518232937
0.20314522403838506
0.4616975316772751
0.9685121334012017
0.8160844377780805
0.32400815258013704
0.14820315772742645
0.080131490420167
0.04395368234123929
0.03615082184292541
0.0366643524585156
0.052456559552372224
0.07817772365761308
0.09195442445330841
0.08695357384882853
0.0718380084084802
0.03926916344015468
-0.0006271637599923746
-0.04383448932590528
-0.07980422271466135
-0.10858361849590166
-0.12701404650825318
-0.12054344192529019
-0.11257500628515967
-0.09098325946102072
8.582431478743047e-05
0.2647627461275511
0.8064150860059291
0.7882753713060963
0.0
SCALARS Distance_to_V float 1
LOOKUP_TABLE default
0.0
0.38986256030896566
0.8007524460302468
1.2466782809259307
1.7304560700412865
2.2470882005047494
2.7869430507339055
3.338335354210223
3.8895442702362657
4.430359222860985
4.95303978369457
5.45271486232805
5.927209087646708
6.376596412689417
6.802772625665147
7.209215245185396
7.60097340746582
7.984714634427227
8.368567876581732
8.761502714451387
9.172139741343885
9.60715382452696
10.06954679982121
10.557105984950175
11.061593337126707
11.569150702442654
12.061412104768127
12.51760202296834
12.917163859726339
13.242005491782294
13.478537615652135
13.618975543159829
13.661423467399684
13.609412986002374
13.471101141218336
13.258137236969183
12.984454279080564
12.665366436580944
12.316338788570938
11.951891116812067
11.58466586034056
11.224701498619346
10.879290725169502
10.553469125857315
10.250257242533918
9.971675499820154
9.719232958115105
9.494208273656138
9.297801315653475
9.13100458656745
8.994327455517485
8.887892148682756
8.811235713704761
8.763436649879754
8.743247646164791
8.749245268116203
8.780119799669379
8.834920470200549
8.912856615399477
9.013252011964916
9.135118897071461
9.276685763641822
9.435169858030383
9.606680123152433
9.78618080512914
9.967971884359592
10.146118310154806
10.314764764660662
10.468562043418906
10.602775677826004
10.713019167224259
10.79511214329773
10.845039610232172
10.858430865051806
10.830992639751463
10.758789825412855
10.6386011446273
10.468607618288509
10.24891237743709
9.981717238634507
9.671447120956069
9.324285801987601
8.947330381293403
8.547636173756148
8.131343763062262
7.702930998045929
7.26458398370735
6.816609229113659
6.357998163622817
5.887256663492514
5.403732356240224
4.9086627190465295
4.405332200886755
3.8997812162125722
3.400208074863521
2.9172005607773146
2.464532665393022
2.061084496288623
1.734198145922471
1.520553277738686
1.4528918532958448
1.5303029595903117
1.7117248315531435
1.9456822254583794
2.191617285286233
2.4215223675400224
2.6160545920620644
2.7611909087925475
2.8468466610993794
2.8661859173600654
2.8153826669093847
2.693803071151485
2.504144036021315
2.2521365667361506
1.9463017154232627
1.5975052608219535
1.2175583316568745
0.8181729768531514
0.40958573795390013
0.0
SCALARS Local_Extrema int 1
LOOKUP_TABLE default
0
0
0
0
0
0
0
0
0
0
0
0
0
0
0
0
0
0
0
0
0
0
0
0
0
0
0
0
0
0
0
0
1
0
0
0
0
0
0
0
0
0
0
0
0
0
0
0
0
0
0
0
0
0
-1
0
0
0
0
0
0
0
0
0
0
0
0
0
0
0
0
0
0
1
0
0
0
0
0
0
0
0
0
0
0
0
0
0
0
0
0
0
0
0
0
0
0
0
0
0
-1
0
0
0
0
0
0
0
0
1
0
0
0
0
0
0
0
0
0
0
