# vtk DataFile Version 3.0
Curve with Curvature, Torsion, Distance to V, and Extrema
ASCII
DATASET POLYDATA
POINTS 120 float
0.0 0.0 0.0
0.004573822021484375 -0.6943454742431641 -0.5171751976013184
-0.1087181568145752 -1.3585491180419922 -0.919945240020752
-0.3273777961730957 -1.9941596984863281 -1.2168653011322021
-0.6383612155914307 -2.6030540466308594 -1.416940450668335
-1.0270838737487793 -3.1879215240478516 -1.5305397510528564
-1.4760286808013916 -3.753070831298828 -1.5705254077911377
-1.9637677669525146 -4.304926872253418 -1.5533006191253662
-2.4649345874786377 -4.851899147033691 -1.4992444515228271
-2.951932191848755 -5.403219223022461 -1.432318925857544
-3.398236036300659 -5.9668474197387695 -1.3788974285125732
-3.78259539604187 -6.547133445739746 -1.3661000728607178
-4.092914342880249 -7.143115997314453 -1.4195616245269775
-4.3282082080841064 -7.748215675354004 -1.5605318546295166
-4.49770188331604 -8.351576805114746 -1.802598237991333
-4.61691689491272 -8.940669059753418 -2.148905038833618
-4.701754808425903 -9.503908157348633 -2.59098744392395
-4.762587308883667 -10.032479286193848 -3.1099979877471924
-4.800177335739136 -10.52076530456543 -3.6802194118499756
-4.804976224899292 -10.966283798217773 -4.273803949356079
-4.759904623031616 -11.368988037109375 -4.865691900253296
-4.645829916000366 -11.731706619262695 -5.437455892562866
-4.44794487953186 -12.060805320739746 -5.979513883590698
-4.1612279415130615 -12.36777114868164 -6.491364240646362
-3.7933032512664795 -12.66829538345337 -6.980036497116089
-3.3642008304595947 -12.980351448059082 -7.456584692001343
-2.9030539989471436 -13.321298599243164 -7.931062459945679
-2.4432451725006104 -13.703921794891357 -8.40641188621521
-2.017315149307251 -14.134226322174072 -8.872990369796753
-1.6530086994171143 -14.610544681549072 -9.305740118026733
-1.3709194660186768 -15.123128414154053 -9.666115522384644
-1.183640956878662 -15.6549711227417 -9.909082174301147
-1.095947265625 -16.182320594787598 -9.993896245956421
-1.1055610179901123 -16.677024602890015 -9.895110845565796
-1.2041542530059814 -17.1096134185791 -9.609930753707886
-1.3782875537872314 -17.452921628952026 -9.159581899642944
-1.6105010509490967 -17.685802459716797 -8.584561109542847
-1.8805010318756104 -17.795255184173584 -7.935645818710327
-2.1669905185699463 -17.776499032974243 -7.2638185024261475
-2.450279474258423 -17.631733417510986 -6.611450910568237
-2.71500563621521 -17.369452238082886 -6.006517171859741
-2.9517366886138916 -17.00299072265625 -5.460007429122925
-3.156430959701538 -16.55065417289734 -4.966507196426392
-3.32784104347229 -16.03542470932007 -4.507606744766235
-3.464120626449585 -15.483400344848633 -4.057685613632202
-3.560363531112671 -14.922936916351318 -3.5909464359283447
-3.608203649520874 -14.382806777954102 -3.088012933731079
-3.597883939743042 -13.891953468322754 -2.5404856204986572
-3.5225446224212646 -13.479151725769043 -1.9528138637542725
-3.3829185962677 -13.172681331634521 -1.3414204120635986
-3.190533399581909 -12.998344898223877 -0.7317700386047363
-2.9672834873199463 -12.976602554321289 -0.15397095680236816
-2.741257429122925 -13.118722915649414 0.36257076263427734
-2.5403826236724854 -13.423174381256104 0.7950329780578613
-2.386380434036255 -13.874889373779297 1.1327708959579468
-2.29107403755188 -14.44659948348999 1.3810667991638184
-2.25565505027771 -15.103633403778076 1.5611399412155151
-2.2722623348236084 -15.809224128723145 1.7055387496948242
-2.3268725872039795 -16.53111696243286 1.84963858127594
-2.4025485515594482 -17.24557065963745 2.021827220916748
-2.4825117588043213 -17.93983507156372 2.2359524965286255
-2.552546262741089 -18.612229466438293 2.4883427023887634
-2.6027252674102783 -19.26929670572281 2.760249674320221
-2.6282389163970947 -19.922337494790554 3.0245223722886294
-2.629220724105835 -20.583194315433502 3.2539324909448624
-2.609675645828247 -21.261799216270447 3.4287301898002625
-2.575526475906372 -21.963727235794067 3.541517734527588
-2.532254457473755 -22.68961453437805 3.5985132455825806
-2.4824721813201904 -23.435738801956177 3.617582380771637
-2.424079179763794 -24.193493366241455 3.6239249110221863
-2.3494365215301514 -24.950878620147705 3.64467853307724
-2.245953321456909 -25.69293975830078 3.703659236431122
-2.097902536392212 -26.40294885635376 3.817327916622162
-1.8892829418182373 -27.06351327896118 3.9924668073654175
-1.6069018840789795 -27.659498691558838 4.225990414619446
-1.2430055141448975 -28.17891502380371 4.50666069984436
-0.7967617511749268 -28.615726470947266 4.818325638771057
-0.2743239402770996 -28.970144271850586 5.1437413692474365
0.31242799758911133 -29.248709678649902 5.468259572982788
0.948007345199585 -29.463266372680664 5.782342195510864
1.6159527897834778 -29.628140449523926 6.082477807998657
2.301130697131157 -29.757861137390137 6.370409965515137
2.991509735584259 -29.864131927490234 6.65121865272522
3.678990960121155 -29.954169273376465 6.930972576141357
4.35934042930603 -30.029086112976074 7.214712381362915
5.031305551528931 -30.085206031799316 7.505342245101929
5.695327520370483 -30.114933967590332 7.803627252578735
6.352309703826904 -30.110132217407227 8.108862161636353
7.00263524055481 -30.064119338989258 8.420020818710327
7.6458899974823 -29.9741268157959 8.736555337905884
8.281067609786987 -29.842062950134277 9.058837175369263
8.907161474227905 -29.674318313598633 9.387928247451782
9.523881673812866 -29.479398727416992 9.724919080734253
10.132205724716187 -29.266502380371094 10.070103406906128
10.734595537185669 -29.043267250061035 10.42219853401184
11.33508038520813 -28.81571388244629 10.778583288192749
11.938702821731567 -28.589412689208984 11.135207414627075
12.550857782363892 -28.371607780456543 11.487610101699829
13.175845384597778 -28.17388916015625 11.832672357559204
13.814893960952759 -28.012316703796387 12.16936993598938
14.464629411697388 -27.905746936798096 12.499945878982544
15.114872217178345 -27.872848987579346 12.829931497573853
15.748628854751587 -27.927452087402344 13.167496919631958
16.343615770339966 -28.07606315612793 13.522342920303345
16.8738272190094 -28.316433906555176 13.903326272964478
17.315234422683716 -28.638663291931152 14.3169424533844
17.64918541908264 -29.02738094329834 14.766146898269653
17.866454362869263 -29.464180946350098 15.25014042854309
17.96999478340149 -29.930042266845703 15.76484990119934
17.972432374954224 -30.4071683883667 16.304872751235962
17.895214319229126 -30.880517959594727 16.864179849624634
17.761948823928833 -31.33946990966797 17.437291383743286
17.5964195728302 -31.77846336364746 18.01858639717102
17.419491052627563 -32.19851779937744 18.60181164741516
17.250340700149536 -32.60705852508545 19.1793110370636
17.106539964675903 -33.01766109466553 19.741544008255005
17.00673794746399 -33.448089599609375 20.277251482009888
16.969823122024536 -33.9190731048584 20.774070024490356
17.015511751174927 -34.45223331451416 21.219165086746216
17.1635000705719 -35.06950092315674 21.599499940872192
LINES 1 121
120 0 1 2 3 4 5 6 7 8 9 10 11 12 13 14 15 16 17 18 19 20 21 22 23 24 25 26 27 28 29 30 31 32 33 34 35 36 37 38 39 40 41 42 43 44 45 46 47 48 49 50 51 52 53 54 55 56 57 58 59 60 61 62 63 64 65 66 67 68 69 70 71 72 73 74 75 76 77 78 79 80 81 82 83 84 85 86 87 88 89 90 91 92 93 94 95 96 97 98 99 100 101 102 103 104 105 106 107 108 109 110 111 112 113 114 115 116 117 118 119
POINT_DATA 120
SCALARS Curvature float 1
LOOKUP_TABLE default
0.0
0.2431349397529386
0.2669199589018244
0.26192109313100953
0.22978348551384473
0.18068714697209384
0.12516728826551773
0.06976141455159461
0.03480897255720345
0.07952025327651266
0.14939570539613786
0.21550348391951435
0.25613326466021363
0.25820756298433933
0.22930976854953816
0.18847201012242154
0.1498902440746022
0.1201500466037437
0.10543393276748964
0.11963300760354145
0.1637208152121832
0.20923718836686406
0.21614150409509025
0.17287265482516956
0.10518579326705392
0.05278057277986271
0.06203211010381823
0.100787401613739
0.14789168574606645
0.22157586410769428
0.3560265418791796
0.5504863138712032
0.6782701604786572
0.6276863367218496
0.46804266190126337
0.3328387435470726
0.2603746614959657
0.23461446789278684
0.23720314410476379
0.2482968309395666
0.24574062834108945
0.21205583817937307
0.15242471576943528
0.09325682436442859
0.07858120380755254
0.11543384440720787
0.16184471081082527
0.20624216775267804
0.25265548443749675
0.3099544978707748
0.38756515988928514
0.4745951303035888
0.5189176699947259
0.47178360565111216
0.3541150777013597
0.2292022331948954
0.13002954049262475
0.06759172532380105
0.0656015427571704
0.08644239579470639
0.08519748059508868
0.060409950570367896
0.05033854887198868
0.08794129255243385
0.12317485639347497
0.13034181120657776
0.10866610214837204
0.06920129568832883
0.025888535828474862
0.03735463556463145
0.08760800989642274
0.1406238598167638
0.1907820846447637
0.2287051928777033
0.24694560233046592
0.24107167740466398
0.21665659640606003
0.1817265755063737
0.14289978411349602
0.10548914387103202
0.07139639139192466
0.04412532005674825
0.028158268552940627
0.028934007295961652
0.0384582795108024
0.05295023236065155
0.068058422692912
0.08060420273924492
0.0856808052981646
0.08196599407794078
0.0704314697055897
0.0557082263404157
0.039941348194207
0.02549732304879853
0.011308944046652251
0.0045767433821420934
0.02287889707762293
0.04526340630731297
0.07229077959996373
0.10344378487011145
0.13728598201041153
0.17044061181161943
0.2024613569378028
0.23373857252662134
0.2601969917641235
0.2748044411863935
0.2678224879887017
0.2364206281757516
0.1930723249868244
0.14527767124164612
0.10434607204773759
0.06936517085695137
0.03870129605737353
0.014815487175180005
0.04937128858862669
0.10972797974668373
0.1773541161371478
0.23080543027592407
0.24306858755252025
0.0
SCALARS Torsion float 1
LOOKUP_TABLE default
0.0
0.0
-0.016347844006749556
-0.022295627333460688
-0.03433390073334661
-0.06627857735330908
-0.15630394648968404
-0.5117638700906655
-0.9866053264578055
-0.5084537314450635
-0.22064690585775215
-0.17869716451477619
-0.19480773248474975
-0.22377038519462225
-0.24081624620854156
-0.22389690792262598
-0.14458953980875047
0.0498115418542831
0.35477588089557605
0.4569856723908981
0.3238708898615718
0.19850488948428627
0.15833856175178035
0.1930400011689691
0.41464771902048664
0.9098308791000795
0.7188507189392089
0.2114067699389608
-0.03637586017377328
-0.16606157738525087
-0.20834627405279765
-0.1902257249489061
-0.1471313006084019
-0.0978762761546193
-0.05065740676844479
-0.012200606630490544
0.005787881936602802
0.0011523737656088965
-0.015717697388235263
-0.03207684404715639
-0.05087798186986043
-0.09730532365921696
-0.252723855079237
-0.6764818093174083
-0.8237901174718261
-0.4214539222416562
-0.15883518488684095
-0.07053093075801402
-0.06517568679698564
-0.10110658307171583
-0.14450580887408654
-0.16529876076929276
-0.15987833509998
-0.1478487975473981
-0.1565855287717996
-0.2257980972298063
-0.468134704771487
-0.8970903483644617
-0.8329120651135224
-0.47641996216655297
-0.4146670312709649
-0.7247796621907434
-0.9160309938183543
-0.5088145436055653
-0.2555051985130551
-0.1616414940651312
-0.10924843076428833
0.0015855361960259856
0.8742683644451761
0.7120630792548532
0.10406198125990973
-0.03812645363983841
-0.09748827966343031
-0.13118631141912623
-0.15103285123808696
-0.161382078631722
-0.16198410523354168
-0.15336352080779272
-0.13703051566296878
-0.09955434880097917
-0.019569955785356696
0.22303165006331888
0.6301455883620414
0.48759310614277496
0.07169168376869872
-0.11130627643791213
-0.11878207347268209
-0.07769882372770243
-0.024813834393704257
0.03601581706978506
0.11167454182408187
0.19159711113283825
0.2864550116603496
0.31608218175746283
0.436654268047123
0.7191740878563269
0.02553748875670747
-0.09953953649605847
-0.14122611861033024
-0.1630069482906548
-0.1790887931292732
-0.1940314681971072
-0.20847831295927768
-0.2144683024559634
-0.19964267837467575
-0.17545766358243597
-0.15054189723898243
-0.13509885541341168
-0.14608674586691267
-0.19029689247349726
-0.26519187151262286
-0.4046193518646778
-0.6473371821698024
-0.9986160891737439
-0.40475880677963383
-0.14316540113711584
-0.0825559709926705
-0.04541806717958056
-0.03038558855098143
0.0
SCALARS Distance_to_V float 1
LOOKUP_TABLE default
0.0
0.813215981008402
1.5383960883938572
2.1995771016610868
2.819429252124201
3.418265405582437
4.012578168577596
4.6131862849552805
5.223722558049523
5.840742381184712
6.456110040070188
7.061284650144179
7.651880188608475
8.230355555107556
8.805444445808329
9.388219249533215
9.986187005626407
10.598310801917455
11.213131951712606
11.811225003783445
12.370558242530038
12.873592785322595
13.313464891467936
13.698160376132275
14.049722445325733
14.399156660757274
14.777762871991513
15.206575705637992
15.688291406607
16.20394103026847
16.715416476807377
17.173757490298005
17.530182489698877
17.74748675890698
17.807686415687783
17.71400421183606
17.48736928101241
17.158636699705593
16.75965370034413
16.316163260627107
15.84503902623816
15.3542402544015
14.845433898146204
14.316796785645511
13.765167706492702
13.188834259545873
12.589662220952128
11.975721013466309
11.363291213642187
10.777832590327682
10.252625502372142
9.824747163032619
9.528346831914927
9.386855792127934
9.407258120789912
9.577383582356259
9.8679667992924
10.238067863564135
10.644104062676716
11.048662818282109
11.427393010007917
11.771640697383097
12.086268514302885
12.385006509532381
12.684752777587429
13.001196431818826
13.34479365919636
13.7182783866499
14.115418238719801
14.520359403152241
14.90975375080598
15.255764427691705
15.530158033123287
15.708320646793167
15.773404185773087
15.717963939087301
15.545249213730381
15.267773210261318
14.904891092056323
14.47954363921366
14.014151580346473
13.52774304500299
13.033579324530693
12.53864350231112
12.043825147548244
11.546124051292754
11.040268707284842
10.521383798441585
9.986228747179128
9.434397869311736
8.868364588791994
8.29318373661222
7.715229512671
7.141965808358565
6.581669760695632
6.044184763404698
5.543093362084828
5.097427312624037
4.731687271962409
4.471674127001601
4.33439821986682
4.316558854267599
4.3895284070100065
4.506432900913649
4.614901209800321
4.669384302373576
4.637238994295222
4.501511475654285
4.26134322765512
3.9273027971702668
3.5190000610004355
3.0581852302717207
2.5670792633212978
2.0661093530785046
1.5754724538989362
1.1155576700327754
0.7088141836319082
0.3778560658789463
0.14228539376035454
0.0
SCALARS Local_Extrema int 1
LOOKUP_TABLE default
0
0
0
0
0
0
0
0
0
0
0
0
0
0
0
0
0
0
0
0
0
0
0
0
0
0
0
0
0
0
0
0
0
0
1
0
0
0
0
0
0
0
0
0
0
0
0
0
0
0
0
0
0
-1
0
0
0
0
0
0
0
0
0
0
0
0
0
0
0
0
0
0
0
0
1
0
0
0
0
0
0
0
0
0
0
0
0
0
0
0
0
0
0
0
0
0
0
0
0
0
0
-1
0
0
0
1
0
0
0
0
0
0
0
0
0
0
0
0
0
0
