# vtk DataFile Version 3.0
Curve with Curvature, Torsion, Distance to V, and Extrema
ASCII
DATASET POLYDATA
POINTS 120 float
0.0 0.0 0.0
-0.6115660667419434 -0.5687046051025391 0.22916793823242188
-1.168130874633789 -1.1460895538330078 0.5289115905761719
-1.677128791809082 -1.7219104766845703 0.8710513114929199
-2.145860195159912 -2.2862682342529297 1.2273967266082764
-2.5813074111938477 -2.8301753997802734 1.5698654651641846
-2.989762306213379 -3.346538543701172 1.8708021640777588
-3.376315116882324 -3.83123779296875 2.103773832321167
-3.744351863861084 -4.283884048461914 2.244935989379883
-4.095052242279053 -4.708033561706543 2.2750625610351562
-4.426985263824463 -5.110744476318359 2.1819002628326416
-4.736128330230713 -5.501399040222168 1.9616777896881104
-5.016062259674072 -5.890533447265625 1.6200950145721436
-5.25870943069458 -6.288776397705078 1.1715948581695557
-5.455562114715576 -6.705837249755859 0.6374740600585938
-5.599192142486572 -7.149635314941406 0.04347848892211914
-5.684495449066162 -7.625398635864258 -0.5831446647644043
-5.709252834320068 -8.134937286376953 -1.2166996002197266
-5.673865795135498 -8.676287651062012 -1.835611343383789
-5.580420017242432 -9.243767738342285 -2.424243450164795
-5.431456089019775 -9.828569412231445 -2.973874568939209
-5.228978633880615 -10.419690132141113 -3.482876777648926
-4.9739603996276855 -11.005156517028809 -3.956244468688965
-4.666588306427002 -11.573537826538086 -4.404413223266602
-4.306949138641357 -12.115239143371582 -4.841602325439453
-3.895905017852783 -12.623380661010742 -5.28361701965332
-3.435769557952881 -13.094586849212646 -5.745308876037598
-2.930736541748047 -13.528730392456055 -6.2378082275390625
-2.387134075164795 -13.92835521697998 -6.765753746032715
-1.8135733604431152 -14.298027038574219 -7.324933052062988
-1.2211270332336426 -14.64255952835083 -7.900725364685059
-0.623589038848877 -14.966307640075684 -8.467879295349121
-0.03763294219970703 -15.271952152252197 -8.992045402526855
0.5173020362854004 -15.55953073501587 -9.433271408081055
1.019700050354004 -15.826287746429443 -9.751063346862793
1.4474246501922607 -16.066988945007324 -9.910332679748535
1.7799930572509766 -16.274696350097656 -9.88721752166748
2.00103759765625 -16.442401885986328 -9.673316955566406
2.1003429889678955 -16.564531564712524 -9.277337074279785
2.0750367641448975 -16.637277364730835 -8.724221229553223
1.9295403957366943 -16.65841507911682 -8.052115440368652
1.6744890213012695 -16.62670135498047 -7.307390213012695
1.3249704837799072 -16.540309190750122 -6.538555145263672
0.8991460800170898 -16.396231174468994 -5.790318489074707
0.4173152446746826 -16.189499855041504 -5.098552703857422
-0.09847497940063477 -15.914106845855713 -4.486520767211914
-0.624636173248291 -15.565200805664062 -3.962890625
-1.1365256309509277 -15.141732692718506 -3.5216445922851562
-1.6094622611999512 -14.649390697479248 -3.1438751220703125
-2.020263195037842 -14.103016376495361 -2.801454544067383
-2.349069118499756 -13.527128219604492 -2.462094783782959
-2.581174850463867 -12.954248905181885 -2.095179557800293
-2.7084546089172363 -12.421310424804688 -1.6775579452514648
-2.730163097381592 -11.965747833251953 -1.1982731819152832
-2.6528382301330566 -11.620146751403809 -0.6613349914550781
-2.4893007278442383 -11.408771514892578 -0.08584880828857422
-2.2569565773010254 -11.345499992370605 0.4967055320739746
-1.9758648872375488 -11.433602333068848 1.047649621963501
-1.6668448448181152 -11.667181015014648 1.5279138088226318
-1.3497910499572754 -12.033170700073242 1.905078411102295
-1.0423989295959473 -12.514330387115479 2.158982038497925
-0.7591547966003418 -13.09136438369751 2.2847037315368652
-0.5106968879699707 -13.74515438079834 2.292149543762207
-0.30347633361816406 -14.457797050476074 2.2028653621673584
-0.13982868194580078 -15.213933944702148 2.045259952545166
-0.018415451049804688 -16.00090742111206 1.8500092029571533
0.06505250930786133 -16.80875277519226 1.646676778793335
0.11693572998046875 -17.630019187927246 1.4618053436279297
0.14480829238891602 -18.459003925323486 1.3181958198547363
0.15680551528930664 -19.290735960006714 1.2347164154052734
0.1612839698791504 -20.11974948644638 1.226090431213379
0.16684389114379883 -20.93945688009262 1.3025388717651367
0.18266725540161133 -21.74107825756073 1.4691765308380127
0.21897506713867188 -22.51334524154663 1.7254650592803955
0.28733158111572266 -23.242960929870605 2.065155506134033
0.4004802703857422 -23.91538667678833 2.476727247238159
0.5715463161468506 -24.51616382598877 2.944477677345276
0.8126401901245117 -25.032758235931396 3.450163960456848
1.1331360340118408 -25.45637798309326 3.974839746952057
1.5380539894104004 -25.783486366271973 4.5007050931453705
2.027014970779419 -26.016887664794922 5.012807279825211
2.5940897464752197 -26.16545867919922 5.50014054775238
3.2285295724868774 -26.24238395690918 5.956365585327148
3.916195899248123 -26.263066291809082 6.379876494407654
4.6413318663835526 -26.243126392364502 6.773273468017578
5.388397753238678 -26.195920944213867 7.1423773765563965
6.143628358840942 -26.131354331970215 7.4950127601623535
6.896148920059204 -26.055564880371094 7.839714527130127
7.63858699798584 -25.970921993255615 8.184506177902222
8.367172002792358 -25.876760482788086 8.535946607589722
9.081448554992676 -25.770075798034668 8.898552894592285
9.783640384674072 -25.64764928817749 9.274540424346924
10.477721214294434 -25.507673740386963 9.663951396942139
11.168702602386475 -25.351896286010742 10.065058708190918
11.860941886901855 -25.186831951141357 10.475164413452148
12.55714464187622 -25.02421236038208 10.891261577606201
13.257351398468018 -24.88028860092163 11.310896873474121
13.957558155059814 -24.774046897888184 11.732863426208496
14.649235248565674 -24.724914073944092 12.15748643875122
15.31978178024292 -24.750165462493896 12.586771965026855
15.953129291534424 -24.862545013427734 13.023798942565918
16.53172731399536 -25.06904888153076 13.471670150756836
17.03848695755005 -25.370760440826416 13.932637214660645
17.459543704986572 -25.76335906982422 14.406620979309082
17.786057949066162 -26.238431930541992 14.890913963317871
18.015076160430908 -26.78490114212036 15.379740715026855
18.14976167678833 -27.390440464019775 15.864980697631836
18.19845724105835 -28.042721271514893 16.337316513061523
18.172780513763428 -28.73015594482422 16.78720188140869
18.08598756790161 -29.442537307739258 17.206372261047363
17.951643466949463 -30.171879768371582 17.588186264038086
17.782116413116455 -30.91228199005127 17.928333282470703
17.58812665939331 -31.659793853759766 18.225077629089355
17.378485202789307 -32.41237258911133 18.479392051696777
17.160098552703857 -33.16926193237305 18.69501781463623
16.938418865203857 -33.93049335479736 18.87773895263672
16.71769666671753 -34.69649314880371 19.034852027893066
16.501393795013428 -35.46781921386719 19.174402236938477
16.292425632476807 -36.24501991271973 19.303698539733887
16.092849254608154 -37.02844429016113 19.428882598876953
LINES 1 121
120 0 1 2 3 4 5 6 7 8 9 10 11 12 13 14 15 16 17 18 19 20 21 22 23 24 25 26 27 28 29 30 31 32 33 34 35 36 37 38 39 40 41 42 43 44 45 46 47 48 49 50 51 52 53 54 55 56 57 58 59 60 61 62 63 64 65 66 67 68 69 70 71 72 73 74 75 76 77 78 79 80 81 82 83 84 85 86 87 88 89 90 91 92 93 94 95 96 97 98 99 100 101 102 103 104 105 106 107 108 109 110 111 112 113 114 115 116 117 118 119
POINT_DATA 120
SCALARS Curvature float 1
LOOKUP_TABLE default
0.0
0.12183189677122921
0.08805368604950906
0.054898080667519694
0.022772752523476006
0.04235662237949681
0.11389975919955614
0.22072537196098788
0.34464114508081367
0.42164242659765316
0.4013954620897043
0.31194323913340255
0.21776584957293407
0.15167449703891983
0.11520905056853108
0.10046397247498459
0.09814355683235194
0.10073370154755266
0.1036341053015143
0.10456552246596636
0.10288066422807408
0.09962867426091071
0.09710641282368314
0.0969365762994916
0.09779127251067585
0.09557893379154946
0.0878129756536925
0.07476944578000119
0.058194271522728866
0.04103327409445608
0.026718084903811147
0.03448818950933935
0.08031559204347397
0.18761195714105708
0.44537558718581427
0.841481012745234
0.9484883932647096
0.7663376806946514
0.4121931953204071
0.22412973099154584
0.14984780040956422
0.12423209399929104
0.1220042731883338
0.13357132207029085
0.15178670159075278
0.167768822135066
0.17276183257067082
0.16416849264316175
0.15105864411687453
0.15363909088897745
0.18868716992301457
0.2506317241597789
0.31797719524119555
0.3660624210023066
0.38546461102829427
0.38773308634054615
0.39146744453954196
0.40493813012245816
0.416027355979832
0.40026351624858697
0.3446259755354308
0.26551374928039867
0.18845816580227953
0.1268250682721727
0.0827456480010629
0.057097730753018355
0.053817377700060565
0.06813826453239932
0.08869682809309366
0.10896428813066965
0.1255925860587503
0.13714055565634467
0.1444813686194637
0.1505973870689724
0.1595519000168044
0.17478917618331513
0.1962728399517247
0.21818776155538136
0.22989316334759458
0.22215100581752703
0.19551525625887173
0.15901771366036263
0.12151591960630413
0.0876224113762786
0.059221651471848935
0.03607286579191407
0.019088985958413716
0.01574043581363578
0.024108852454708368
0.03248728443816803
0.03672385334510107
0.03581779953852193
0.028555705317298574
0.01580806096214208
0.007029639406336944
0.028152531840377845
0.05523242028212826
0.08607313396089981
0.11979478759956129
0.1543734813209788
0.1863681558465997
0.21088865216797087
0.2216908637522358
0.21640143671710277
0.19801203824246116
0.1724047548909723
0.14565158910342366
0.12227314812675377
0.1035266231674036
0.08969013446773744
0.08016484096511244
0.07322696847578974
0.06698804159070684
0.05945748918051377
0.050205640647858436
0.03944878563150734
0.02851234054820822
0.020691735015450626
0.01733426121914673
0.0
SCALARS Torsion float 1
LOOKUP_TABLE default
0.0
0.0
-0.06367604032819857
-0.21361744762329613
-0.9548139853231209
-0.6912778576989661
-0.1566400782241757
-0.023810347741367588
0.03667350751328715
0.08217562271336631
0.12768684257807558
0.1897600005015536
0.27411853693830446
0.3653191396134808
0.4173867873212593
0.384930607309814
0.29194640802662203
0.19135034322789113
0.09926147786844426
0.007010005623909368
-0.0976764940072715
-0.21467752141620702
-0.3106121124423204
-0.3488363817836945
-0.32706524686048644
-0.27514862875746726
-0.21957821094890959
-0.1611867815551594
-0.08102261780516722
0.10822602782705128
0.6498569884923968
0.679220041553416
0.2659563009196571
0.10735810006580482
0.05089192977732184
0.026378786238065027
0.019367391031161838
0.02156289371486989
0.020810175700607267
0.014091327186891784
-0.001570595796662324
-0.03235561228546916
-0.06444427541119647
-0.10024941364257074
-0.135840378343846
-0.179335514748428
-0.24671338643164456
-0.35593375800609534
-0.5022638571413136
-0.5823318745311546
-0.5036792095375421
-0.36408220511822553
-0.2582292596674204
-0.18309869911038001
-0.1271309734354728
-0.07818205889255499
-0.03597753364894948
-0.0087281580005577
-0.0011319512254851834
-0.01387546032380358
-0.03940337024749071
-0.07900888221298023
-0.13806752247947732
-0.24038826730455573
-0.4221026259661223
-0.6458952046649258
-0.6348156307358077
-0.40559109423323314
-0.23813102083372548
-0.1560334261571535
-0.12005878161949202
-0.11189618571859301
-0.12412171348781899
-0.15002384607215688
-0.177752242057806
-0.19193320461718183
-0.18557076322639587
-0.16536957083175227
-0.14233201040084945
-0.12498112134695252
-0.11590812829148966
-0.10916793392109335
-0.1034299265414788
-0.09631053206994297
-0.05361834703024621
0.10237247740602973
0.6420276325390131
0.8257883876521928
0.32833619855315826
0.03151853390660242
-0.07187595905761936
-0.1160434460356941
-0.10924270175489256
0.13359673618225792
0.9901573352055255
0.18004909135586622
-0.0018982004892176274
-0.05321635596683931
-0.0785201879548979
-0.09511305308230408
-0.1000248440790247
-0.09849214703368686
-0.08219483046568657
-0.05997777085123315
-0.028173020804649965
0.009360206612115698
0.05137958699673301
0.09591735966529098
0.1346405102555446
0.1770967517480092
0.19337019735078864
0.19331211718348007
0.18284551316937708
0.16911283007911268
0.17855181073164525
0.22360141097014294
0.35748078591546284
0.5447578126439696
0.5890786866420881
0.0
SCALARS Distance_to_V float 1
LOOKUP_TABLE default
0.0
0.7922510163454919
1.5442911039215128
2.2584082158465972
2.9347412595236397
3.571958120897632
4.168055873101872
4.721334778203961
5.2316070777875066
5.701454212896497
6.1371233590168055
6.548578615651433
6.948307520257192
7.349162255207511
7.761926686678593
8.19340929772964
8.645370418920571
9.1145276814244
9.593523609522276
10.07248200012951
10.540864694502785
10.989361751708023
11.41163831229641
11.805865206836941
12.17559293925785
12.529656584783858
12.881142504416884
13.244860542920526
13.633869688906346
14.055630488263997
14.507910902028007
14.976623356603108
15.435521852234823
15.848626800591662
16.175271773457933
16.376713381068747
16.42308328402341
16.29932980734174
16.008498502082087
15.57170059984687
15.025290117905307
14.415419910589028
13.790483831065831
13.19359893722881
12.65560232836204
12.19050727776965
11.794489537397974
11.448516049160968
11.124181201619766
10.791244527931264
10.424591514624606
10.009350034155771
9.543574091236366
9.038872049750896
8.517871078737821
8.010176127438537
7.546973082114028
7.155920482811868
6.85803010963961
6.6672508686031815
6.592558099748272
6.639111491850478
6.807412233683245
7.09052115746469
7.472972633783932
7.932092985517665
8.441416758427636
8.974294159914221
9.506158529602123
10.01548010476619
10.483827949376227
10.895781610335716
11.238338897565157
11.500481349798953
11.67280994631003
11.747268475435861
11.717235533068672
11.57820606133237
11.328921925168467
10.972633281842295
10.518086026753327
9.979543435728043
9.375444304614529
8.726467236810882
8.053391543211287
7.3746262329715595
6.704687877338654
6.053686111681872
5.427757476698162
4.830851903285065
4.26756533907144
3.7481365460916365
3.29448399788899
2.946213413077681
2.758064674812342
2.7758925071822502
3.000028001650471
3.3803007012751656
3.847654409238528
4.339833809664728
4.807830130109627
5.214967075001248
5.534770948565125
5.750505550132485
5.854397710093525
5.846653293479618
5.734250170056891
5.529009857275945
5.245195045975484
4.89763622886374
4.500129664791034
4.0642897226596855
3.5994434310302506
3.1127155326174414
2.6096418807931703
2.0948888928478326
1.5726712616141834
1.0470676079388517
0.5218307304163535
0.0
SCALARS Local_Extrema int 1
LOOKUP_TABLE default
0
0
0
0
0
0
0
0
0
0
0
0
0
0
0
0
0
0
0
0
0
0
0
0
0
0
0
0
0
0
0
0
0
0
0
0
1
0
0
0
0
0
0
0
0
0
0
0
0
0
0
0
0
0
0
0
0
0
0
0
-1
0
0
0
0
0
0
0
0
0
0
0
0
0
0
1
0
0
0
0
0
0
0
0
0
0
0
0
0
0
0
0
0
0
-1
0
0
0
0
0
0
0
0
0
1
0
0
0
0
0
0
0
0
0
0
0
0
0
0
0
