# vtk DataFile Version 3.0
Curve with Curvature, Torsion, Distance to V, and Extrema
ASCII
DATASET POLYDATA
POINTS 120 float
0.0 0.0 0.0
-0.215118408203125 -0.48558998107910156 0.11770153045654297
-0.5048093795776367 -0.9664335250854492 0.2496471405029297
-0.8510308265686035 -1.4436054229736328 0.39005374908447266
-1.2356209754943848 -1.9181547164916992 0.5330524444580078
-1.640181541442871 -2.3911314010620117 0.6725273132324219
-2.045964241027832 -2.863457679748535 0.8018684387207031
-2.4341421127319336 -3.3358964920043945 0.9137372970581055
-2.786472797393799 -3.8089733123779297 1.0000324249267578
-3.086587429046631 -4.282951354980469 1.0521764755249023
-3.321606159210205 -4.757882118225098 1.061814308166504
-3.4839096069335938 -5.233792304992676 1.021744728088379
-3.57232666015625 -5.710826873779297 0.9268589019775391
-3.5924277305603027 -6.189491271972656 0.7746877670288086
-3.5556640625 -6.670501708984375 0.5655250549316406
-3.4774060249328613 -7.154507637023926 0.3020954132080078
-3.374703884124756 -7.641702651977539 -0.010596275329589844
-3.263894557952881 -8.131561279296875 -0.3649559020996094
-3.1586155891418457 -8.622884750366211 -0.7499847412109375
-3.0687003135681152 -9.113915920257568 -1.150238037109375
-3.0001397132873535 -9.602364540100098 -1.5452289581298828
-2.955911159515381 -10.085184097290039 -1.909830093383789
-2.93743896484375 -10.55828857421875 -2.2162179946899414
-2.9460959434509277 -11.015532970428467 -2.437230110168457
-2.984203815460205 -11.448396682739258 -2.5506162643432617
-3.055476188659668 -11.845955848693848 -2.5429277420043945
-3.16458797454834 -12.195796966552734 -2.411892890930176
-3.3160386085510254 -12.485791206359863 -2.16641902923584
-3.5126404762268066 -12.706528663635254 -1.8244819641113281
-3.7539944648742676 -12.854027271270752 -1.4090604782104492
-4.035195827484131 -12.930227994918823 -0.9437875747680664
-4.346243381500244 -12.94345474243164 -0.44922828674316406
-4.672302722930908 -12.90597128868103 0.05932807922363281
-4.994612216949463 -12.832820415496826 0.5722503662109375
-5.291893482208252 -12.739372253417969 1.084193229675293
-5.542080402374268 -12.641054153442383 1.5918235778808594
-5.7239603996276855 -12.553106784820557 2.0915541648864746
-5.819364070892334 -12.490703582763672 2.5781044960021973
-5.815420627593994 -12.468340396881104 3.0440821647644043
-5.70663595199585 -12.498714447021484 3.480998992919922
-5.496062755584717 -12.590859413146973 3.8809971809387207
-5.1951727867126465 -12.749327182769775 4.238891124725342
-4.822165012359619 -12.973088026046753 4.553623676300049
-4.399265766143799 -13.256261825561523 4.828826427459717
-3.9496140480041504 -13.589613437652588 5.072213649749756
-3.4943251609802246 -13.962135553359985 5.294137477874756
-3.0502405166625977 -14.362683057785034 5.5056867599487305
-2.6288681030273438 -14.781786680221558 5.716817378997803
-2.2363839149475098 -15.212252259254456 5.934991359710693
-1.8746399879455566 -15.649520874023438 6.164324998855591
-1.5427436828613281 -16.092324793338776 6.405468702316284
-1.2388110160827637 -16.541791707277298 6.656006574630737
-0.9613828659057617 -17.001082375645638 6.911327838897705
-0.7101693153381348 -17.474811613559723 7.165744066238403
-0.4860520362854004 -17.967135190963745 7.41372537612915
-0.2903127670288086 -18.48135483264923 7.651058912277222
-0.12331485748291016 -19.01789116859436 7.87584388256073
0.017013072967529297 -19.573593616485596 8.088969349861145
0.13646841049194336 -20.141046285629272 8.294182896614075
0.24508047103881836 -20.708293914794922 8.497449040412903
0.3568246364593506 -21.260331630706787 8.7058767080307
0.48821496963500977 -21.780351161956787 8.926198840141296
0.6562526226043701 -22.252323627471924 9.16328740119934
0.8760111331939697 -22.66351842880249 9.419039785861969
1.1583428382873535 -23.006544589996338 9.691873364150524
1.5083200931549072 -23.280165195465088 9.977142378687859
1.924696683883667 -23.489371299743652 10.268418848514557
2.4003795385360718 -23.64362335205078 10.558890581130981
2.9237581491470337 -23.75448226928711 10.843146324157715
3.480508506298065 -23.83271074295044 11.118110299110413
4.055492073297501 -23.886093139648438 11.382981896400452
4.634475111961365 -23.917992115020752 11.638810396194458
5.20548802614212 -23.926503658294678 11.88833475112915
5.759682297706604 -23.906293869018555 12.134291648864746
6.291828870773315 -23.85010576248169 12.378999948501587
6.800464391708374 -23.75174045562744 12.624348402023315
7.287646532058716 -23.608395099639893 12.871132612228394
7.758429765701294 -23.42281436920166 13.119744777679443
8.219903230667114 -23.20355224609375 13.37069821357727
8.679772853851318 -22.963927745819092 13.624450445175171
9.144906044006348 -22.71947193145752 13.88224458694458
9.619682788848877 -22.48468828201294 14.14609956741333
10.105051517486572 -22.26998472213745 14.418632507324219
10.597962856292725 -22.080145359039307 14.702942371368408
11.09212589263916 -21.913593769073486 15.002118110656738
11.579129695892334 -21.76355266571045 15.319161415100098
12.050209999084473 -21.620432376861572 15.65561580657959
12.498440265655518 -21.474288940429688 16.011767387390137
12.92051076889038 -21.31762981414795 16.386019706726074
13.317863941192627 -21.14746332168579 16.774828910827637
13.697156429290771 -20.96651792526245 17.173412322998047
14.069491863250732 -20.782503604888916 17.575766563415527
14.448225498199463 -20.606786489486694 17.976316452026367
14.846498012542725 -20.452345848083496 18.370596885681152
15.274545192718506 -20.331048488616943 18.755678176879883
15.737035274505615 -20.2526216506958 19.13128662109375
16.231074810028076 -20.223555088043213 19.49914264678955
16.74581003189087 -20.24722957611084 19.862409591674805
17.262099742889404 -20.324427604675293 20.224605560302734
17.75441884994507 -20.453738689422607 20.588314056396484
18.193549633026123 -20.632328033447266 20.954286575317383
18.549594402313232 -20.855064868927002 21.32121467590332
18.796102046966553 -21.115017890930176 21.68568992614746
18.914169788360596 -21.403193950653076 22.0435152053833
18.895016193389893 -21.709654808044434 22.390379905700684
18.742032527923584 -22.025049686431885 22.7229061126709
18.470731258392334 -22.34286403656006 23.03983783721924
18.10671091079712 -22.66060495376587 23.342230796813965
17.6819167137146 -22.979740619659424 23.633057594299316
17.230851650238037 -23.30537223815918 23.917156219482422
16.785269260406494 -23.643099308013916 24.200241088867188
16.371463298797607 -23.99675416946411 24.48867130279541
16.007277965545654 -24.365681648254395 24.788848876953125
15.701520442962646 -24.743356227874756 25.107473373413086
15.45499563217163 -25.116446495056152 25.45209503173828
15.261711597442627 -25.46597385406494 25.83057975769043
15.111484050750732 -25.76833438873291 26.251787185668945
14.991309642791748 -25.99753189086914 26.724754333496094
14.887197017669678 -26.126514434814453 27.258913040161133
14.784899234771729 -26.127799034118652 27.863500595092773
LINES 1 121
120 0 1 2 3 4 5 6 7 8 9 10 11 12 13 14 15 16 17 18 19 20 21 22 23 24 25 26 27 28 29 30 31 32 33 34 35 36 37 38 39 40 41 42 43 44 45 46 47 48 49 50 51 52 53 54 55 56 57 58 59 60 61 62 63 64 65 66 67 68 69 70 71 72 73 74 75 76 77 78 79 80 81 82 83 84 85 86 87 88 89 90 91 92 93 94 95 96 97 98 99 100 101 102 103 104 105 106 107 108 109 110 111 112 113 114 115 116 117 118 119
POINT_DATA 120
SCALARS Curvature float 1
LOOKUP_TABLE default
0.0
0.19762710787351892
0.12975801093881012
0.08002190053269449
0.042447588392585216
0.024902275674451056
0.05284685894989478
0.10282949159986457
0.17030762277922834
0.2516142822772762
0.3261011114267593
0.3596026659779062
0.3337599391133396
0.26555236559227285
0.18898268493169312
0.12666744941218638
0.08543275873050242
0.061917024126510324
0.04983380605936339
0.05204068940266317
0.08338770701503022
0.15582340236580652
0.28406910966855037
0.4726522110549177
0.6540249282976714
0.7192827252487659
0.6485356843544872
0.5014671389917598
0.36027998750912754
0.2588579888965925
0.18695240519663278
0.13468194270590692
0.09541295935908184
0.08504185651424516
0.12462017719351633
0.20924394942228244
0.3282511803121079
0.4551471055052138
0.5325227539018842
0.5168484707362061
0.42495809226577325
0.3114170892077911
0.21598930082926868
0.14741561234672412
0.10202839515922389
0.0775486899269658
0.07322503203872549
0.07952509468156409
0.08555549571970807
0.08668573136222903
0.08318476802971282
0.08064642298071438
0.08479539876786392
0.09402535021917754
0.10272016346996456
0.10286810846223958
0.09092227364106498
0.06566505783293393
0.02844759172913395
0.03197289434101424
0.10107395553429002
0.18810998256489034
0.27640784674878127
0.33290887587702256
0.33288606492121736
0.2836199649325829
0.21627013470064263
0.15468621465776855
0.10793427514142366
0.07611579143066353
0.058747145605085815
0.06016124664277824
0.07993479714477413
0.11111703266636956
0.14031076988302363
0.15383362419885313
0.14164857401966385
0.10583922620081943
0.056423712665039386
0.00560387829946124
0.03826406713597339
0.0665035518909511
0.07837021597783954
0.07617372503717863
0.07027384043315348
0.07252324138136171
0.08558023696752591
0.09657420876721119
0.0930505169377767
0.0688324168885147
0.025240650713658816
0.031724672250360055
0.08664549768556383
0.12820249507600184
0.1477519448952995
0.14668115390164888
0.1361994724518854
0.1307228986063352
0.14443238652370427
0.189574218480217
0.2739210623180193
0.39817385222159096
0.5215500194541779
0.5686747916375682
0.5035033495945236
0.36997612796051216
0.23697299939850328
0.13274571041485
0.051546207844808956
0.03344986095981257
0.09095080991362198
0.14147327432223436
0.1760273240079132
0.1967131380546556
0.2163230855300807
0.257193185979293
0.31324851418288363
0.34916934468835237
0.3291857905282714
0.0
SCALARS Torsion float 1
LOOKUP_TABLE default
0.0
0.0
0.1022767998229605
0.22160988512043583
0.6429786889834789
0.9829737068553972
0.5419345903762819
0.17720930657948258
0.056070333648994775
0.0002960557196189234
-0.0371373031670732
-0.07161230352389764
-0.11596030598028514
-0.1853121100915905
-0.2970617836473135
-0.46067086713838856
-0.6237757208945632
-0.7170107202517326
-0.7779875327205117
-0.7838606941889855
-0.5757662442293983
-0.32887793738125626
-0.16932309732111828
-0.06426001949260865
0.02258464373657576
0.10287867181108243
0.17337440074412483
0.22147788042210942
0.2304270480089972
0.19184416987583788
0.09972413118221343
-0.10256900329714277
-0.5223501432350564
-0.8008130349605321
-0.6066112918964314
-0.33730228621119823
-0.21374776807291918
-0.16743083269351236
-0.15614701134536144
-0.1557461099368391
-0.17412156714512014
-0.19894351739394867
-0.25604315204006817
-0.36857713432077366
-0.5429413127872535
-0.6887414976230584
-0.6514822098351829
-0.47042910456942455
-0.2765927412946917
-0.07474518721122775
0.1304874422299015
0.31798927359776125
0.36871864572825686
0.2759997359120717
0.16360395345506734
0.06475696282862449
-0.014814708245538585
-0.14577394385175702
-0.8227858542945525
-0.8399898753488869
-0.1896198612829253
-0.10476281945798058
-0.09204538219317514
-0.09915841817706562
-0.11441502288427978
-0.13613583686893044
-0.1616933852448339
-0.17345329147849578
-0.1411131114642369
-0.009184648941368723
0.2872333913201562
0.47089969655894837
0.29174759728757366
0.11435331274159477
0.03130427906802499
-0.024814929024272556
-0.04407942241745524
-0.04692482312834356
-0.06446600445924307
0.999987234044784
0.13269306248976176
-0.05347001191013184
-0.18333029918953378
-0.3692192784668895
-0.6036923498502873
-0.653218609235881
-0.5185279668756491
-0.3557587229804446
-0.24463763667814162
-0.12337529332423033
0.4601453962178067
0.6142832494788129
0.05634767342736513
-0.016567903380503173
-0.08660659386030031
-0.1615564365467285
-0.27023365913239494
-0.39148470843636524
-0.41910850672634825
-0.3373428341639366
-0.2437460604049793
-0.16278918775741277
-0.1211088238044828
-0.09213145737077937
-0.06986919926605482
-0.04350868631706621
0.0017319993052741511
0.12220209903137624
0.7807224378745623
0.9793887169144062
0.30029926309625865
0.17922845013582783
0.23154652543937185
0.3748047221623889
0.5027749468129239
0.5109084522729243
0.40812764062131957
0.28343517673120266
0.19209990872237911
0.0
SCALARS Distance_to_V float 1
LOOKUP_TABLE default
0.0
0.4455019273271058
0.941388801836652
1.4790868769714627
2.046989091436062
2.6316875396492563
3.2186628722648023
3.7931263205117465
4.341083106571622
4.8509301921569365
5.315312174502776
5.732993454636569
6.1098286478702795
6.45850880917526
6.7965417979515115
7.142919859753792
7.514453819657682
7.922470824710486
8.370747301275335
8.854871717738591
9.362907710198076
9.876943862449409
10.375554869990719
10.836287000004468
11.23882323931979
11.567860392124178
11.815360115696102
11.981585277902735
12.074904503349089
12.110286369008314
12.105643747539098
12.07857865940666
12.042227033872276
12.003680381633325
11.96308788295266
11.915434972983249
11.852653141410745
11.766411342684892
11.650568420589003
11.503227872106153
11.32771754190884
11.132940510346192
10.931681545036358
10.7383809714885
10.566424696743756
10.425568834025613
10.320511105837465
10.251391693302077
10.215006438210068
10.206856810144503
10.223570902383196
10.263920533800219
10.329477116214134
10.42435288565147
10.553344919021146
10.72064509842534
10.927118956290771
11.168645370739762
11.434802380878592
11.708631009617564
11.968334063516927
12.189621279263493
12.349379596721235
12.429365475604062
12.419259405398577
12.318060077642059
12.134003579184949
11.88244309042928
11.582480144719142
11.253094460407262
10.910059143661485
10.563699567396846
10.217348478492902
9.869194298040197
9.51381886299083
9.14503504724382
8.758821686854311
8.355403313633353
7.939907843243328
7.522336669970708
7.115477517239493
6.7324201212185
6.383742166229675
6.075370536265572
5.807214826750819
5.573428625516239
5.3653562374168855
5.174376232093152
4.995970066198948
4.832569232659866
4.694439874510518
4.59847535705206
4.5635285821801945
4.605099296852172
4.73039273316393
4.935286850677461
5.204827581163858
5.51588370089411
5.839368750040439
6.143285718609681
6.395365552360555
6.56561740215451
6.629641390560336
6.571680127707449
6.386312749577237
6.079513469356648
5.667643268543692
5.17521104150434
4.631594866031164
4.067800275575981
3.512673885353117
2.990992051738912
2.5209558675368946
2.1122412053221233
1.763537772918649
1.4599221421425284
1.1724473313900021
0.8618744971651782
0.48500638883682884
0.0
SCALARS Local_Extrema int 1
LOOKUP_TABLE default
0
0
0
0
0
0
0
0
0
0
0
0
0
0
0
0
0
0
0
0
0
0
0
0
0
0
0
0
0
1
0
0
0
0
0
0
0
0
0
0
0
0
0
0
0
0
0
0
0
-1
0
0
0
0
0
0
0
0
0
0
0
0
0
1
0
0
0
0
0
0
0
0
0
0
0
0
0
0
0
0
0
0
0
0
0
0
0
0
0
0
0
0
-1
0
0
0
0
0
0
0
0
0
1
0
0
0
0
0
0
0
0
0
0
0
0
0
0
0
0
0
