# vtk DataFile Version 3.0
Curve with Curvature, Torsion, Distance to V, and Extrema
ASCII
DATASET POLYDATA
POINTS 120 float
0.0 0.0 0.0
-0.30268585681915283 -0.29965782165527344 0.6019525527954102
-0.6775597333908081 -0.6569137573242188 1.1212158203125
-1.1073912382125854 -1.0624713897705078 1.5573465824127197
-1.5750070810317993 -1.5070362091064453 1.9099116325378418
-2.0634456872940063 -1.9813880920410156 2.178480863571167
-2.5563522577285767 -2.476530075073242 2.3625926971435547
-3.038641095161438 -2.983959197998047 2.4617607593536377
-3.4973565340042114 -3.496044158935547 2.4756367206573486
-3.922653317451477 -4.006414413452148 2.404397487640381
-4.30870258808136 -4.51027774810791 2.2493112087249756
-4.654044270515442 -5.0046796798706055 2.0132977962493896
-4.961623311042786 -5.488448143005371 1.7013494968414307
-5.237812638282776 -5.961840629577637 1.3206932544708252
-5.490861535072327 -6.42580509185791 0.8805136680603027
-5.728933930397034 -6.880969047546387 0.3913722038269043
-5.958075165748596 -7.3265790939331055 -0.1355581283569336
-6.1806217432022095 -7.759705543518066 -0.6893191337585449
-6.394120812416077 -8.1751127243042 -1.2597770690917969
-6.59091579914093 -8.565967559814453 -1.8380427360534668
-6.7586928606033325 -8.925257682800293 -2.4165444374084473
-6.881865620613098 -9.247686386108398 -2.9890589714050293
-6.943766713142395 -9.531673431396484 -3.550598621368408
-6.929300427436829 -9.780866622924805 -4.097327709197998
-6.827612996101379 -10.004714965820312 -4.626466274261475
-6.634310841560364 -10.217733383178711 -5.136180400848389
-6.352893948554993 -10.437448501586914 -5.62546968460083
-5.995205521583557 -10.681679725646973 -6.0937676429748535
-5.580526947975159 -10.965519905090332 -6.540192127227783
-5.133668541908264 -11.298731803894043 -6.962391376495361
-4.682355046272278 -11.684715270996094 -7.35525369644165
-4.254291653633118 -12.120112895965576 -7.709928035736084
-3.8743311166763306 -12.595624923706055 -8.013617992401123
-3.5622535943984985 -13.097280979156494 -8.250457286834717
-3.331560254096985 -13.607781887054443 -8.403542041778564
-3.189386010169983 -14.109088897705078 -8.457798480987549
-3.1375523805618286 -14.583349227905273 -8.403151988983154
-3.174084782600403 -15.014978885650635 -8.237061977386475
-3.2947174310684204 -15.391251564025879 -7.965267658233643
-3.4936920404434204 -15.702547073364258 -7.601097583770752
-3.763769268989563 -15.942225456237793 -7.1631855964660645
-4.095800995826721 -16.1059730052948 -6.67228364944458
-4.478355050086975 -16.19121766090393 -6.148134708404541
-4.897773861885071 -16.19701862335205 -5.607011318206787
-5.3388296365737915 -16.124174118041992 -5.060417652130127
-5.785764813423157 -15.976128101348877 -4.514583110809326
-6.2233463525772095 -15.759642601013184 -3.970832347869873
-6.637488484382629 -15.485183715820312 -3.426588535308838
-7.015556454658508 -15.167485237121582 -2.8767828941345215
-7.346291661262512 -14.824862480163574 -2.3154373168945312
-7.619608044624329 -14.477914810180664 -1.7373323440551758
-7.826606869697571 -14.148532390594482 -1.1395859718322754
-7.9598857164382935 -13.85794973373413 -0.5227699279785156
-8.014310002326965 -13.625555038452148 0.10850191116333008
-7.987886548042297 -13.467992305755615 0.7457857131958008
-7.882635235786438 -13.398719310760498 1.377610445022583
-7.704992413520813 -13.427494049072266 1.990673303604126
-7.465556263923645 -13.559945106506348 2.5712404251098633
-7.178230404853821 -13.797260761260986 3.106348752975464
-6.858805775642395 -14.135958671569824 3.584558129310608
-6.5232239961624146 -14.567950248718262 3.9963451623916626
-6.185968041419983 -15.08117151260376 4.334216475486755
-5.858792424201965 -15.661271095275879 4.592770159244537
-5.550029873847961 -16.292802810668945 4.7687457501888275
-5.264256119728088 -16.96058702468872 4.86148202419281
-5.0024296045303345 -17.651064157485962 4.87353989481926
-4.762263894081116 -18.352768421173096 4.811350703239441
-4.538689732551575 -19.056266844272614 4.685746014118195
-4.324380040168762 -19.75396341085434 4.5120813846588135
-4.110218167304993 -20.439245223999023 4.309718430042267
-3.8858810663223267 -21.105932593345642 4.100773453712463
-3.6404515504837036 -21.747443437576294 3.9082995653152466
-3.3632136583328247 -22.35671353340149 3.7540513277053833
-3.0445739030838013 -22.926206588745117 3.656171441078186
-2.677123188972473 -23.44836688041687 3.627211093902588
-2.256555676460266 -23.916580200195312 3.6730844974517822
-1.7822741270065308 -24.32601833343506 3.7931824922561646
-1.2577317953109741 -24.674216747283936 3.981450319290161
-0.6901956796646118 -24.961806297302246 4.228368282318115
-0.08994674682617188 -25.192341327667236 4.523225128650665
0.5309885740280151 -25.371761322021484 4.855939418077469
1.1603794693946838 -25.50749683380127 5.21812991052866
1.7874204963445663 -25.607370376586914 5.603257417678833
2.4041603207588196 -25.678240299224854 6.006061792373657
3.006475806236267 -25.725200653076172 6.421652674674988
3.5943729877471924 -25.751309871673584 6.844627618789673
4.171498656272888 -25.756893634796143 7.2686357498168945
4.744113087654114 -25.74048900604248 7.686564922332764
5.3194955587387085 -25.698903560638428 8.091249942779541
5.904497504234314 -25.628629207611084 8.47646427154541
6.504184603691101 -25.526766300201416 8.837808609008789
7.120858550071716 -25.392327308654785 9.173325061798096
7.753886580467224 -25.227242946624756 9.483745574951172
8.399933695793152 -25.036946296691895 9.772347450256348
9.053163886070251 -24.831182956695557 10.044600009918213
9.706018328666687 -24.62307119369507 10.307695388793945
10.349827647209167 -24.42854642868042 10.569550037384033
10.975849986076355 -24.264748096466064 10.83848237991333
11.576066851615906 -24.148508548736572 11.122395038604736
12.143370509147644 -24.094013214111328 11.427780628204346
12.672191500663757 -24.11125659942627 11.759456634521484
13.158754229545593 -24.20546579360962 12.120155334472656
13.600355982780457 -24.376904010772705 12.509572505950928
13.995187640190125 -24.62226629257202 12.9244384765625
14.34163749217987 -24.93611431121826 13.358706951141357
14.63797652721405 -25.312499523162842 13.803822040557861
14.88213336467743 -25.745771408081055 14.24959421157837
15.072310328483582 -26.230655193328857 14.684987545013428
15.20683753490448 -26.76153564453125 15.099491596221924
15.284686923027039 -27.332114696502686 15.484038829803467
15.305845141410828 -27.93545961380005 15.83146047592163
15.270282626152039 -28.563814163208008 16.137471675872803
15.17999541759491 -29.209675788879395 16.400575160980225
15.0375155210495 -29.86606788635254 16.622195720672607
14.84810721874237 -30.52718448638916 16.806660175323486
14.618597865104675 -31.188955307006836 16.960526943206787
14.35764491558075 -31.849047660827637 17.092179775238037
14.075667262077332 -32.50663757324219 17.21111249923706
13.783079028129578 -33.16215133666992 17.326565265655518
13.489659190177917 -33.81674003601074 17.44688653945923
LINES 1 121
120 0 1 2 3 4 5 6 7 8 9 10 11 12 13 14 15 16 17 18 19 20 21 22 23 24 25 26 27 28 29 30 31 32 33 34 35 36 37 38 39 40 41 42 43 44 45 46 47 48 49 50 51 52 53 54 55 56 57 58 59 60 61 62 63 64 65 66 67 68 69 70 71 72 73 74 75 76 77 78 79 80 81 82 83 84 85 86 87 88 89 90 91 92 93 94 95 96 97 98 99 100 101 102 103 104 105 106 107 108 109 110 111 112 113 114 115 116 117 118 119
POINT_DATA 120
SCALARS Curvature float 1
LOOKUP_TABLE default
0.0
0.22620704452931953
0.20173753456676086
0.18178026697017646
0.16914173846744804
0.16511701302148277
0.1700818915069998
0.18297218794933418
0.19988821739305207
0.21317156518136554
0.21381763131515058
0.19651520390274668
0.16441956945267774
0.12664710540001453
0.09223856256436905
0.06673689660326519
0.052032875237939806
0.04774337899321981
0.05405388307883415
0.07353755222860617
0.10953075311711653
0.1618666099423936
0.2209097039073637
0.26363551133028584
0.26719830229405256
0.2318298770095977
0.18041397555086996
0.13733971469503917
0.11503113723934731
0.11505168177571373
0.1327430881478722
0.16662076160184874
0.22180289132110392
0.3081885483215731
0.42882670460284
0.548294764052244
0.597379277371194
0.546405021939976
0.4354450979818739
0.3270550210450171
0.25004606847964733
0.20217589129550279
0.17299670364256062
0.15429694681740047
0.13981452109276898
0.1263778427412764
0.1135227797124277
0.10294600959065207
0.10063486847279117
0.11222631429321325
0.13776884271685017
0.1730988509895663
0.21236147118386764
0.2493950104093366
0.277906914831059
0.2928122885757462
0.29243084254898094
0.27920423964478835
0.25838501457715435
0.23547523452288652
0.214483786659876
0.1974182231266784
0.18366415914885434
0.17112866541488675
0.15711162454841418
0.1390659255301311
0.11569579026653745
0.08717143503656774
0.055751161253091715
0.03476937852408106
0.06071875643538557
0.11401854857673015
0.17544073571009383
0.23038463218470956
0.26112802507900507
0.2584772361683407
0.22952610330573486
0.18940037014916963
0.15069919614863714
0.11871343661398448
0.09427640075339577
0.07660673747721748
0.06464343444475097
0.05590813127527718
0.04778965900929099
0.04227462538781049
0.04424879402807114
0.056978034920960444
0.07248064422793793
0.08361787149334336
0.08603420329331764
0.07905950675730641
0.06422485078748186
0.04261879557530435
0.0166835778168375
0.020990882816435723
0.06088862181808505
0.11032813378078497
0.1639448650902168
0.21192577361705736
0.2409845915065388
0.24380906562667656
0.22681997902353312
0.20241369444137772
0.1808241331583929
0.1665879781136149
0.15894692942192212
0.15597889567512288
0.15469679444087583
0.15302138845500912
0.15035612873605364
0.14331571576822694
0.1333337839189675
0.11702949608668033
0.09686824416540796
0.07297632206580097
0.04635352249048382
0.021196871227750342
0.009479641233337952
0.0
SCALARS Torsion float 1
LOOKUP_TABLE default
0.0
0.0
0.05924640793331863
0.07227486547108976
0.08446429949149463
0.09110200722606472
0.08761113224891796
0.07325046967239789
0.05087688182693455
0.024594874745938994
-1.4850584728255678e-05
-0.027496447258360354
-0.05663685531125569
-0.09377413255633565
-0.14156701559952398
-0.18312819792056712
-0.1605748300804621
-0.01126264004072064
0.16443873011551893
0.22333793221717127
0.20877919825219332
0.1909442326732175
0.1908574694600665
0.21134842410037738
0.2525256838085697
0.316071947616267
0.408555372076284
0.5057148839576533
0.5337027109439113
0.4422237322863964
0.28265054972120396
0.1324092985815493
0.014545453147185458
-0.06668433013648012
-0.10684365099696409
-0.10912393242227872
-0.07907546969328105
-0.031136943786986615
0.023065573265432536
0.06437892712692503
0.07305392132073216
0.042283538985565514
-0.017436206465328896
-0.08652038596768631
-0.15437605716656289
-0.22379165307247026
-0.3053621924315963
-0.40268792110271656
-0.4643274669414085
-0.42511656912392465
-0.32680736443224706
-0.22639260185932686
-0.15898958910306343
-0.12079874213439107
-0.10614278028234149
-0.10493552302747923
-0.11003749483870716
-0.11536148432284256
-0.11396241868518682
-0.10145590636658773
-0.07809963027698055
-0.04868961724954047
-0.015306169537791008
0.016502153846991618
0.042031643666374845
0.06666321745602229
0.1036560490889464
0.19099188501201245
0.4969288050127958
0.9370917153512742
0.6014864570336856
0.22144583543273033
0.08505227930750772
0.021236562712886056
-0.016023215517431987
-0.04059815922441993
-0.05530990513484518
-0.053673731383246194
-0.03218998332824547
0.013128087369961669
0.08066979292880051
0.1487306195699831
0.16672467181000883
0.09438935171847539
-0.09721128190696156
-0.4091994828262172
-0.5265534754701733
-0.36682699786796374
-0.20352575562312883
-0.10179254805870507
-0.04698673441174352
-0.021669203439080298
-0.021278676521928077
-0.10854465146962881
-0.7884507756841783
-0.7388936906893468
-0.13597880570560683
-0.0429214378071035
-0.021364582063713396
-0.01800010074291986
-0.016910260219581533
-0.014368367754190186
-0.0027480206759243654
0.016297211431453452
0.0485736988337382
0.07462705824598788
0.0928357293167279
0.08125864995960629
0.06161624208437041
0.04363574375862769
0.0006900136236208734
-0.008745845770512801
-0.04159741665780326
-0.04859020584558749
-0.0682706779047047
-0.0999027371999326
-0.1858948472150436
-0.6156038676436454
-0.9955258588152897
0.0
SCALARS Distance_to_V float 1
LOOKUP_TABLE default
0.0
0.6129146529077664
1.2224022683754796
1.8323180270173802
2.4416197805205426
3.045523754503047
3.6368804376895527
4.207790271735124
4.751404704596935
5.263766476476072
5.745354163084792
6.20171485310216
6.64322388209545
7.083290963523512
7.535574706007064
8.010795709567889
8.513984119110408
9.043028397272751
9.58866468975548
10.13580966676427
10.665963668603856
11.160251704247404
11.602735982739585
11.983475783235047
12.300766366485337
12.561988256647673
12.782755677924447
12.984360617527384
13.189512610488672
13.417295952601304
13.678896142859276
13.974726818000695
14.29414388192286
14.61759470362385
14.92055710175177
15.17895285862286
15.373583344882155
15.494046593171335
15.539823827475585
15.519410805109782
15.447499492541523
15.340905506543006
15.214633173772102
15.079125702487808
14.939208294429166
14.794802766970944
14.642627314618057
14.478149492637067
14.29762231806569
14.099007815093756
13.882128882974675
13.648684755328237
13.40150540700877
13.144262738066827
12.8812628536251
12.61760462069663
12.359239325025127
12.11289459794791
11.885888395265866
11.685670030533105
11.519145591071421
11.392109260132562
11.309051912990816
11.272929129387583
11.284983017510214
11.344728981073656
11.449585789228207
11.594229051098363
11.769977141367933
11.96411021365108
12.159951963628448
12.337484512017234
12.475086458153534
12.551794412793296
12.549903165674758
12.457269899754893
12.26862703196779
11.98588678478826
11.617478834759092
11.176522032331793
10.678603868142174
10.139540412991368
9.573484207958344
8.99149361889502
8.400996494344353
7.806052628316019
7.20769944271766
6.605208578640806
5.997010103177947
5.382265007512795
4.762475724354258
4.143695084091316
3.5391470796434157
2.973194129974233
2.4875919331453376
2.1447825560779266
2.011075305648332
2.102039586496451
2.357231136870845
2.6920892802416176
3.043388223875662
3.3740192299014056
3.664270148606105
3.9044622471270394
4.089912904313817
4.21789192510046
4.2858452851276585
4.291317905700133
4.2319524041195065
4.106287092457984
3.9143288940092953
3.6570596810199754
3.3379691583712066
2.961690966878024
2.5356456537328804
2.0685615579107886
1.5705328864498327
1.0528276198959883
0.5261195234513104
0.0
SCALARS Local_Extrema int 1
LOOKUP_TABLE default
0
0
0
0
0
0
0
0
0
0
0
0
0
0
0
0
0
0
0
0
0
0
0
0
0
0
0
0
0
0
0
0
0
0
0
0
0
0
1
0
0
0
0
0
0
0
0
0
0
0
0
0
0
0
0
0
0
0
0
0
0
0
0
-1
0
0
0
0
0
0
0
0
0
1
0
0
0
0
0
0
0
0
0
0
0
0
0
0
0
0
0
0
0
0
0
0
-1
0
0
0
0
0
0
0
0
0
0
1
0
0
0
0
0
0
0
0
0
0
0
0
