# vtk DataFile Version 3.0
Curve with Curvature, Torsion, Distance to V, and Extrema
ASCII
DATASET POLYDATA
POINTS 120 float
0.0 0.0 0.0
0.2846791744232178 -0.8543615341186523 -0.08755207061767578
0.4000065326690674 -1.6021308898925781 -0.10697174072265625
0.3656771183013916 -2.2507076263427734 -0.06040477752685547
0.2018420696258545 -2.807859420776367 0.04942512512207031
-0.07016754150390625 -3.2822799682617188 0.21800756454467773
-0.4270341396331787 -3.6844167709350586 0.43704891204833984
-0.8432426452636719 -4.02686882019043 0.6923022270202637
-1.2917215824127197 -4.324298858642578 0.9619078636169434
-1.7453529834747314 -4.59260368347168 1.2167634963989258
-2.1785848140716553 -4.847818374633789 1.4238781929016113
-2.5689656734466553 -5.105020523071289 1.5521440505981445
-2.8981387615203857 -5.37761116027832 1.5791378021240234
-3.152545690536499 -5.676998138427734 1.4964346885681152
-3.3235785961151123 -6.012528419494629 1.3111610412597656
-3.407871961593628 -6.391074180603027 1.0438413619995117
-3.40775465965271 -6.8160929679870605 0.7228913307189941
-3.331606149673462 -7.286457061767578 0.37720394134521484
-3.1934926509857178 -7.795502662658691 0.029111862182617188
-3.011608839035034 -8.330673694610596 -0.31015777587890625
-2.805424928665161 -8.874503135681152 -0.6417570114135742
-2.592122793197632 -9.406431674957275 -0.9773969650268555
-2.3834731578826904 -9.905617713928223 -1.3349876403808594
-2.183973550796509 -10.35395860671997 -1.7330732345581055
-1.9908673763275146 -10.73895788192749 -2.1851987838745117
-1.7963497638702393 -11.056078910827637 -2.695490837097168
-1.5912349224090576 -11.309800386428833 -3.255847930908203
-1.3690321445465088 -11.513254404067993 -3.84505558013916
-1.1291301250457764 -11.686223030090332 -4.430036544799805
-0.8780312538146973 -11.852044582366943 -4.96891975402832
-0.628446102142334 -12.032127380371094 -5.415907859802246
-0.3966705799102783 -12.240667581558228 -5.727657318115234
-0.19934654235839844 -12.480989217758179 -5.870379447937012
-0.05077338218688965 -12.743632793426514 -5.8262939453125
0.038552045822143555 -13.008775115013123 -5.597308158874512
0.0624384880065918 -13.250267624855042 -5.205630302429199
0.018912315368652344 -13.440374493598938 -4.690211296081543
-0.08983349800109863 -13.55438780784607 -4.100115776062012
-0.25742077827453613 -13.573673963546753 -3.486082077026367
-0.4734210968017578 -13.487500309944153 -2.892213821411133
-0.7239971160888672 -13.293391108512878 -2.3496227264404297
-0.9934771060943604 -12.997784614562988 -1.873061180114746
-1.2665891647338867 -12.615015029907227 -1.4607162475585938
-1.5306196212768555 -12.166435718536377 -1.0969257354736328
-1.7764976024627686 -11.6779465675354 -0.7573471069335938
-1.9983537197113037 -11.17719554901123 -0.41506481170654297
-2.1920979022979736 -10.690550804138184 -0.046600341796875
-2.3536417484283447 -10.240923881530762 0.3633232116699219
-2.4781339168548584 -9.846663475036621 0.8191056251525879
-2.5603973865509033 -9.522271156311035 1.3142404556274414
-2.5967600345611572 -9.280191898345947 1.833704948425293
-2.587409734725952 -9.132368564605713 2.357926368713379
-2.5382449626922607 -9.090441703796387 2.8673253059387207
-2.461390733718872 -9.16386365890503 3.34622859954834
-2.3739402294158936 -9.356576442718506 3.7855186462402344
-2.2950356006622314 -9.664259910583496 4.1834938526153564
-2.241973638534546 -10.07345724105835 4.545278549194336
-2.2265164852142334 -10.562873363494873 4.881109237670898
-2.2522199153900146 -11.107146739959717 5.203764200210571
-2.3138225078582764 -11.680905818939209 5.52586817741394
-2.3984344005584717 -12.262322664260864 5.8573620319366455
-2.4886739253997803 -12.836310386657715 6.203839898109436
-2.5663931369781494 -13.395508527755737 6.565954566001892
-2.616241693496704 -13.939298748970032 6.940074563026428
-2.6281940937042236 -14.471766829490662 7.320045471191406
-2.598539113998413 -14.999449297785759 7.699311554431915
-2.5291340351104736 -15.527958393096924 8.0728410333395
-2.425246000289917 -16.060830235481262 8.438250571489334
-2.293025255203247 -16.59795391559601 8.79612797498703
-2.1373226642608643 -17.136251211166382 9.149375677108765
-1.960529088973999 -17.67049765586853 9.502034068107605
-1.7624404430389404 -18.194700479507446 9.857967853546143
-1.5409727096557617 -18.703954219818115 10.219693183898926
-1.2932097911834717 -19.194754600524902 10.587732076644897
-1.0163519382476807 -19.66581916809082 10.960994958877563
-0.7084877490997314 -20.117397785186768 11.337023973464966
-0.3690662384033203 -20.550435066223145 11.713115453720093
0.0009081363677978516 -20.965440273284912 12.087450504302979
0.3989754915237427 -21.36110210418701 12.45959186553955
0.8215975761413574 -21.734004974365234 12.830947875976562
1.2647501230239868 -22.07820224761963 13.203931331634521
1.7245907187461853 -22.38520908355713 13.58155870437622
2.197924926877022 -22.6456356048584 13.965951442718506
2.682478606700897 -22.850422859191895 14.358235836029053
3.176830232143402 -22.99236297607422 14.757514953613281
3.680186152458191 -23.06761932373047 15.161260604858398
4.192076206207275 -23.07688331604004 15.565760612487793
4.712180137634277 -23.024853706359863 15.966192722320557
5.240097999572754 -22.919965744018555 16.35758399963379
5.77524209022522 -22.772770881652832 16.735511779785156
6.316663980484009 -22.594289779663086 17.096640586853027
6.862985849380493 -22.394870281219482 17.43919277191162
7.4122536182403564 -22.182808876037598 17.7636775970459
7.962057828903198 -21.96432638168335 18.073105812072754
8.509690046310425 -21.743264198303223 18.372783660888672
9.05261492729187 -21.522268295288086 18.670077323913574
9.58892035484314 -21.302780151367188 18.97310733795166
10.11778712272644 -21.086089611053467 19.289725303649902
10.639758348464966 -20.8739275932312 19.62611675262451
11.156450510025024 -20.668925285339355 19.985926628112793
11.669484376907349 -20.475454807281494 20.370166778564453
12.17985463142395 -20.30014944076538 20.777684211730957
12.686403512954712 -20.15204381942749 21.205674171447754
13.185405015945435 -20.042846202850342 21.650141716003418
13.67046570777893 -19.986186027526855 22.1065034866333
14.133452653884888 -19.996027946472168 22.568885803222656
14.564702272415161 -20.08529281616211 23.030911445617676
14.9545738697052 -20.263179302215576 23.48606300354004
15.294069528579712 -20.533535480499268 23.92859649658203
15.575406312942505 -20.893917560577393 24.354734420776367
15.792678117752075 -21.334943294525146 24.76314353942871
15.941749811172485 -21.841418266296387 25.15494155883789
16.020403146743774 -22.39352512359619 25.533870697021484
16.02734875679016 -22.968506813049316 25.904842376708984
15.96179986000061 -23.541783332824707 26.27385711669922
15.822683572769165 -24.088366508483887 26.647127151489258
15.608479738235474 -24.58329963684082 27.03053855895996
15.317067384719849 -25.001460075378418 27.43000602722168
14.946369409561157 -25.31845474243164 27.851491928100586
14.494099855422974 -25.50950050354004 28.300600051879883
LINES 1 121
120 0 1 2 3 4 5 6 7 8 9 10 11 12 13 14 15 16 17 18 19 20 21 22 23 24 25 26 27 28 29 30 31 32 33 34 35 36 37 38 39 40 41 42 43 44 45 46 47 48 49 50 51 52 53 54 55 56 57 58 59 60 61 62 63 64 65 66 67 68 69 70 71 72 73 74 75 76 77 78 79 80 81 82 83 84 85 86 87 88 89 90 91 92 93 94 95 96 97 98 99 100 101 102 103 104 105 106 107 108 109 110 111 112 113 114 115 116 117 118 119
POINT_DATA 120
SCALARS Curvature float 1
LOOKUP_TABLE default
0.0
0.27938140393197675
0.38230404906849125
0.44303256539046154
0.42427936487563317
0.34307957529922845
0.2445713636901398
0.15504608508325957
0.08453920465296731
0.11757258775501395
0.29505935677153655
0.5410336476998207
0.685616764496043
0.6313623916206141
0.4539271803947662
0.293205343445095
0.19684870187100145
0.14121096962702695
0.09864689308573595
0.05502123840721936
0.030537181404064178
0.08753766812275052
0.15953431809816188
0.21088873298508495
0.21810397458337383
0.1845720666399331
0.13229085144381428
0.0815078445818965
0.07800993797152421
0.19866172183621764
0.49335939476792456
0.8811837721618033
0.9690081547451447
0.8491250773509686
0.5380402009216103
0.3434388861840309
0.2713842980788796
0.2609622078199531
0.2803691719640263
0.30493493797900406
0.30608466019817765
0.2683417306069069
0.1980195302356254
0.11759070501131606
0.06457102138232568
0.09894234389281878
0.15954045994530408
0.20912307562549956
0.24663501842251553
0.2833770476399044
0.33349031301850646
0.4022753158867068
0.46826241272294206
0.4835108826279373
0.4232446330255968
0.3181068279036319
0.21582958966273677
0.13805170463681712
0.0834981866871906
0.04797573015540752
0.038259394206503566
0.05400889392620255
0.07537099720065174
0.091899879418189
0.09850256669932293
0.09445751168381288
0.08249340088814726
0.0671429469064415
0.053790740584350544
0.048454339410726785
0.053884432923744716
0.06443943181033504
0.07465013583872966
0.08095686021930672
0.0830310918579366
0.08171202708874441
0.07820797836019562
0.07470277848512934
0.07319492946036728
0.07766372426937648
0.09102108815935318
0.11040395888816838
0.13191756137129115
0.14972956688063618
0.15837115725977563
0.15437811501550494
0.14054064050150955
0.11999964970198841
0.09806933499806325
0.07845337837388641
0.062274439789461504
0.04891487738617868
0.03535245718771449
0.020115260817683854
0.003979877477915256
0.01931811586067744
0.036847090953417
0.04916075109197753
0.05518836102898465
0.05814994481831709
0.06274827888432799
0.07352662664020529
0.093319873237169
0.1230782462448436
0.16101522113744995
0.20535639815001525
0.24536505761766741
0.2690872741219542
0.2683272127518428
0.24473897620451066
0.21110991354002634
0.17847714870606382
0.15744893547326513
0.15312775628233274
0.1694532402057475
0.20556960716611294
0.25633934918440804
0.3030203746983045
0.32193337690319257
0.0
SCALARS Torsion float 1
LOOKUP_TABLE default
0.0
0.0
-0.05522145382451329
-0.06671662274522258
-0.07474840237412196
-0.06919974363858161
-0.021662128263610476
0.20387870827627338
0.9192834994348951
0.8946524250600758
0.3765316833178707
0.1968833861930532
0.18679451083546791
0.2556254137032233
0.37134732959755423
0.4820426713769282
0.513667565692068
0.44491615443626714
0.30154402256044827
-0.1611990707163377
-0.9897691599980418
-0.36219685070994523
-0.043980457359552916
0.06264970986275539
0.129556924611285
0.20941745199871334
0.37659407455844174
0.7979178981290495
0.9404851211530694
0.516842826662049
0.23919020156389237
0.11531112098592086
0.034036431509699566
-0.016355387036609534
-0.038360399288426245
-0.036011884942540914
-0.024001075821268095
-0.022982480705707267
-0.036849843860274185
-0.06437731661248083
-0.09799855223411878
-0.15167017988590395
-0.2639562599997078
-0.6013016146137996
-0.9741092897257383
-0.7007325436706374
-0.27071978613672426
-0.09715399525416474
-0.01842574953036699
-0.0023457088462645256
-0.04629786715765471
-0.12670850668537487
-0.20232758151124774
-0.2565776425393822
-0.29985498467506144
-0.34683379665242026
-0.41392363588016434
-0.5109711688573729
-0.6762031905910215
-0.8941330516066179
-0.9220536742581503
-0.6574023434435992
-0.45270431582046466
-0.3675409186253759
-0.32975137205871297
-0.2811260647380004
-0.22237223252019275
-0.06586161996488532
0.20061029427028715
0.42069073597309997
0.35098563599509003
0.15756533263878295
0.018573846992401083
-0.06563790290093936
-0.11509287284645758
-0.11688424471642926
-0.06332112439047996
0.0424685478849299
0.1706053274808645
0.23273980175946116
0.21231895191270966
0.1292242750970087
0.06498667240043125
0.006482584877719584
-0.03107931056699787
-0.061596873405815857
-0.10331427940167358
-0.1509245403454272
-0.21061752431952688
-0.2744598464505915
-0.3298988021929763
-0.3125530979009552
-0.26047721801499274
-0.0010408548084727132
0.9999983965499498
0.3075261846677978
0.09625457642304883
0.10009775473810305
0.1512874495152987
0.22695842280182346
0.2775150900295673
0.23616022160925618
0.162811227520685
0.08838767968516147
0.05494989551965786
0.023526085209545106
0.005630746660690519
-0.016460413781562284
-0.04852984006584089
-0.09118789129954093
-0.14947204645047718
-0.23176470335818417
-0.3080918295271698
-0.3544249586511924
-0.32054654948038525
-0.24434999367692525
-0.17593883219227838
-0.12555300534912245
-0.08905551015985538
0.0
SCALARS Distance_to_V float 1
LOOKUP_TABLE default
0.0
0.6985171698750366
1.2618304473602413
1.7214693243470591
2.11088237067188
2.464090284099443
2.8125424049006615
3.179942780056925
3.577516778301957
4.002557034552604
4.441652221993499
4.877359482422265
5.29523100265364
5.688725602536483
6.060389902115804
6.419669860433129
6.778816517554869
7.148883804535495
7.537170652704547
7.94635378872706
8.375159751351399
8.819544820726932
9.274084410746513
9.733013966063078
10.19099510461842
10.64394413779184
11.08921474706668
11.524882036810947
11.947939551727217
12.352074089292897
12.724969417064216
13.04791430714188
13.298555627873949
13.45535848273663
13.503344405315431
13.438104659266653
13.266632847276286
13.005383751960716
12.675754457265734
12.29896912320531
11.891730269421828
11.464976367993359
11.024277529661651
10.572638811394391
10.113200834774862
9.651229321524005
9.194710682675042
8.753854327878859
8.339884985773182
7.96394990148709
7.636609093093963
7.367898656474484
7.167711498317167
7.045839062058149
7.0110263586764905
7.069045496216104
7.219948420575781
7.4556597320459135
7.7597371344476285
8.109397945519415
8.479097254970418
8.845282014325836
9.189801924206979
9.50160977398696
9.776920389070863
10.01821001862022
10.231335151349128
10.42308159392035
10.59816772934718
10.75802333047937
10.90054438066005
11.021094593170643
11.114525399671496
11.176388060622296
11.204178726054096
11.197467299228283
11.157460914470692
11.086095943213268
10.98481337227878
10.853812379410073
10.691381759695144
10.493404660747336
10.25457131745302
9.96919142371438
9.632791991511843
9.24341111091315
8.80262636812919
8.315381369625742
7.789692912526435
7.2353791102116105
6.662865866797577
6.082334014899163
5.502605502946101
4.9309911355262335
4.373006636714653
3.833083274574138
3.315186132126492
2.8249856422103257
2.3737161730826584
1.9846327119070144
1.7007168169588083
1.579468503751136
1.6506327344069334
1.8760392793410083
2.181380455508269
2.502511623949061
2.7942431352836796
3.026703667418634
3.181231343824423
3.248192968754768
3.225986220045797
3.11897795238747
2.935642246259211
2.6856769521307178
2.3777917804156368
2.017419961150952
1.6057062093013987
1.1387589476910305
0.6079097135797712
0.0
SCALARS Local_Extrema int 1
LOOKUP_TABLE default
0
0
0
0
0
0
0
0
0
0
0
0
0
0
0
0
0
0
0
0
0
0
0
0
0
0
0
0
0
0
0
0
0
0
1
0
0
0
0
0
0
0
0
0
0
0
0
0
0
0
0
0
0
0
-1
0
0
0
0
0
0
0
0
0
0
0
0
0
0
0
0
0
0
0
1
0
0
0
0
0
0
0
0
0
0
0
0
0
0
0
0
0
0
0
0
0
0
0
0
0
0
-1
0
0
0
0
0
0
0
1
0
0
0
0
0
0
0
0
0
0
