# vtk DataFile Version 3.0
Curve with Curvature, Torsion, Distance to V, and Extrema
ASCII
DATASET POLYDATA
POINTS 120 float
0.0 0.0 0.0
-0.4940090775489807 -0.20424461364746094 0.242462158203125
-0.9674577116966248 -0.49782752990722656 0.48026227951049805
-1.4224018454551697 -0.8686695098876953 0.7213535308837891
-1.8607680201530457 -1.3044919967651367 0.973085880279541
-2.284014403820038 -1.7924222946166992 1.2408177852630615
-2.6926323771476746 -2.3183507919311523 1.5256321430206299
-3.0856985449790955 -2.8659915924072266 1.821451187133789
-3.4607831835746765 -3.416043281555176 2.1128854751586914
-3.814528167247772 -3.945667266845703 2.37494158744812
-4.14372318983078 -4.429328918457031 2.5758938789367676
-4.446192443370819 -4.841899871826172 2.682795524597168
-4.721211135387421 -5.164109230041504 2.6688003540039062
-4.969288527965546 -5.3891096115112305 2.520031213760376
-5.191826045513153 -5.527575492858887 2.2399609088897705
-5.39108008146286 -5.608128547668457 1.849036693572998
-5.570426166057587 -5.672216415405273 1.3800907135009766
-5.734597384929657 -5.764492034912109 0.8705010414123535
-5.889356315135956 -5.921991348266602 0.3536491394042969
-6.040717780590057 -6.166099548339844 -0.14758682250976562
-6.193757712841034 -6.499882698059082 -0.623349666595459
-6.35123747587204 -6.910627365112305 -1.075108528137207
-6.5120503306388855 -7.3759965896606445 -1.5110220909118652
-6.669767081737518 -7.870705604553223 -1.9408364295959473
-6.811649024486542 -8.371472835540771 -2.372310161590576
-6.9190680384635925 -8.85946273803711 -2.809907913208008
-6.969831645488739 -9.320723056793213 -3.2552247047424316
-6.942115962505341 -9.745959758758545 -3.7079901695251465
-6.818916022777557 -10.130434036254883 -4.166886806488037
-6.591608226299286 -10.473877429962158 -4.6296210289001465
-6.2615644335746765 -10.781166553497314 -5.092147350311279
-5.839667022228241 -11.061159610748291 -5.547276973724365
-5.344169318675995 -11.325786590576172 -5.983129978179932
-4.797812640666962 -11.587673664093018 -6.381965160369873
-4.225204646587372 -11.857625484466553 -6.72023344039917
-3.650669515132904 -12.142531871795654 -6.97040319442749
-3.09692519903183 -12.444275856018066 -7.104600429534912
-2.58390611410141 -12.759186029434204 -7.099575519561768
-2.1277264952659607 -13.078251123428345 -6.9417948722839355
-1.7395042777061462 -13.388303995132446 -6.631231784820557
-1.4246647953987122 -13.672357320785522 -6.182653903961182
-1.1832507252693176 -13.910635709762573 -5.6239495277404785
-1.0114542841911316 -14.082597017288208 -4.992063999176025
-0.9039109349250793 -14.16856861114502 -4.327487468719482
-0.8556599020957947 -14.153541326522827 -3.668470859527588
-0.8625525832176208 -14.029834270477295 -3.045966625213623
-0.9199559092521667 -13.799225330352783 -2.479887008666992
-1.0207311511039734 -13.474292039871216 -1.9771037101745605
-1.1541836857795715 -13.07768702507019 -1.531486988067627
-1.3071984648704529 -12.639904499053955 -1.1260910034179688
-1.4673392176628113 -12.196097373962402 -0.7372193336486816
-1.6263564229011536 -11.781733512878418 -0.3396463394165039
-1.7818560004234314 -11.42809247970581 0.0880279541015625
-1.9362165331840515 -11.158642768859863 0.559415340423584
-2.093101441860199 -10.986873149871826 1.0785222053527832
-2.2537960410118103 -10.917685985565186 1.6400110721588135
-2.415207803249359 -10.949561595916748 2.230961322784424
-2.5709068179130554 -11.078096866607666 2.832875967025757
-2.714030921459198 -11.297853946685791 3.4236470460891724
-2.8402835726737976 -11.60362195968628 3.9796284437179565
-2.9490241408348083 -11.990007400512695 4.4781365394592285
-3.0423142313957214 -12.450487613677979 4.900453165173531
-3.122952163219452 -12.97719144821167 5.234986633062363
-3.192943513393402 -13.559622287750244 5.479744523763657
-3.253086507320404 -14.185476541519165 5.64357990026474
-3.303482711315155 -14.84112560749054 5.745268166065216
-3.34432715177536 -15.512875974178314 5.810751020908356
-3.3764447569847107 -16.188450204208493 5.868875563144684
-3.4010645747184753 -16.85802036523819 5.946455538272858
-3.4192416071891785 -17.515310049057007 6.063774824142456
-3.430783689022064 -18.157626509666443 6.231549263000488
-3.433489501476288 -18.785860538482666 6.449860095977783
-3.4228095412254333 -19.403198719024658 6.70914089679718
-3.392018973827362 -20.014029026031494 6.993128538131714
-3.332939565181732 -20.62233018875122 7.282505989074707
-3.2369770407676697 -21.2304744720459 7.558760166168213
-3.096151053905487 -21.838292598724365 7.807211875915527
-2.904003322124481 -22.442609786987305 8.018909454345703
-2.6562713980674744 -23.037802696228027 8.191149473190308
-2.3512479662895203 -23.616618633270264 8.327028274536133
-1.989860475063324 -24.17121410369873 8.43407678604126
-1.5755708813667297 -24.694164276123047 8.522743463516235
-1.113949954509735 -25.179564476013184 8.604727029800415
-0.6121248006820679 -25.623400688171387 8.691425323486328
-0.07802209258079529 -26.023696899414062 8.792779922485352
0.48034214973449707 -26.380338668823242 8.916435718536377
1.0555921792984009 -26.69451332092285 9.067413330078125
1.6414830088615417 -26.96867561340332 9.248046875
2.2332494854927063 -27.205333709716797 9.458439350128174
2.827562391757965 -27.407318115234375 9.69699764251709
3.422368586063385 -27.577089309692383 9.961260795593262
4.016399681568146 -27.716748237609863 10.248360633850098
4.608614265918732 -27.827455520629883 10.555881023406982
5.197540104389191 -27.909483909606934 10.882063388824463
5.780721485614777 -27.961837768554688 11.226298332214355
6.354386627674103 -27.982017517089844 11.588580131530762
6.913352787494659 -27.9663028717041 11.969715595245361
7.4515493512153625 -27.910147666931152 12.370593070983887
7.962859928607941 -27.808940887451172 12.79182767868042
8.442493736743927 -27.65932273864746 13.232794284820557
8.888453781604767 -27.460869789123535 13.691124439239502
9.302859604358673 -27.21762752532959 14.162181377410889
9.692670166492462 -26.93882179260254 14.639666080474854
10.069375336170197 -26.639326095581055 15.115163326263428
10.447571098804474 -26.33821678161621 15.580187320709229
10.842495262622833 -26.056167602539062 16.02722406387329
11.266485512256622 -25.81246852874756 16.45171308517456
11.726865112781525 -25.621234893798828 16.8530592918396
12.22363692522049 -25.48906898498535 17.23564100265503
12.749440491199493 -25.414462089538574 17.608269214630127
13.290919601917267 -25.38908576965332 17.982689380645752
13.83113032579422 -25.400863647460938 18.37149477005005
14.351678192615509 -25.437767028808594 18.78620481491089
14.834798157215118 -25.491004943847656 19.235415935516357
15.264322578907013 -25.556087493896484 19.7245135307312
15.625576317310333 -25.63222026824951 20.256064891815186
15.905103027820587 -25.720582962036133 20.83031702041626
16.089836418628693 -25.823246955871582 21.446664333343506
16.16714984178543 -25.94178581237793 22.103749752044678
16.124399483203888 -26.077899932861328 22.80039930343628
LINES 1 121
120 0 1 2 3 4 5 6 7 8 9 10 11 12 13 14 15 16 17 18 19 20 21 22 23 24 25 26 27 28 29 30 31 32 33 34 35 36 37 38 39 40 41 42 43 44 45 46 47 48 49 50 51 52 53 54 55 56 57 58 59 60 61 62 63 64 65 66 67 68 69 70 71 72 73 74 75 76 77 78 79 80 81 82 83 84 85 86 87 88 89 90 91 92 93 94 95 96 97 98 99 100 101 102 103 104 105 106 107 108 109 110 111 112 113 114 115 116 117 118 119
POINT_DATA 120
SCALARS Curvature float 1
LOOKUP_TABLE default
0.0
0.23589085618417135
0.17761538486388703
0.12913004788880683
0.09320518179557433
0.06783900228071625
0.048216733081427515
0.030722231645270454
0.03669616632483289
0.10760010554142119
0.28404710758218676
0.6168515146533168
0.8458880444031628
0.7732944914932698
0.47117223096184496
0.20249600708343513
0.11721172480227016
0.1950437333914445
0.24999309156316518
0.23960525497746718
0.18208238024288276
0.11296282161924791
0.054806844547319045
0.03693494644967755
0.08057488664072501
0.14500832439441338
0.2169772642673311
0.2713753181537818
0.28014881239311
0.24213474160357715
0.18560230327938113
0.13738950692837867
0.11473411179514731
0.12807305453515935
0.17959901068679504
0.2676220891862943
0.37578480159037536
0.45181384139619696
0.44564724961663255
0.3746526311940098
0.2967314873330239
0.2478250174151328
0.23780870032296214
0.26160523818053344
0.30395147392577254
0.33376155978283645
0.31818844278435887
0.2528761315395531
0.15763265940735408
0.049421492133550626
0.07542152429359483
0.19608399369166626
0.2889985721612223
0.3211652236072353
0.3000778928846694
0.2589000390003159
0.22711560115902887
0.21439703603775603
0.2208983711110764
0.24062771255374776
0.2627783074001358
0.2720232937298395
0.2543910963546778
0.2101508130755864
0.15002078749568792
0.08505021910477517
0.025421867776838414
0.0468419079356203
0.09332730418767997
0.11967787744568129
0.11947186829484041
0.0979044360426061
0.07038657529290926
0.06290073049004377
0.08575867745525113
0.11646992893872463
0.14052086186891166
0.15314338803792166
0.15473760126198152
0.1490922018978238
0.14054317363134236
0.13231383038198527
0.1262737669221462
0.12249762365215279
0.11980651001967148
0.11714047207727066
0.11241187538338934
0.10663608115947452
0.09882347411169037
0.09068754366198065
0.0826952808248917
0.07711149580184978
0.07437262971015175
0.07605106828548962
0.08248715631296456
0.09388356394738939
0.1088078737369445
0.12463342519357197
0.13591354717698353
0.13672223480624598
0.12296453624645706
0.09459920580292568
0.05362414625083068
0.02013150843588537
0.06726346908460151
0.12373784290267076
0.16402292713837996
0.17288275690125807
0.15150779380172677
0.11533623663238944
0.08788290677243044
0.0921063545462998
0.12130324721049314
0.15693992883636965
0.19130420054672387
0.21987015901297613
0.23927473531681584
0.2428574852755327
0.22865680660266252
0.0
SCALARS Torsion float 1
LOOKUP_TABLE default
0.0
0.0
0.17425707114138997
0.2295566248288614
0.27483920038195436
0.265686549002643
0.11312708684245126
-0.56536347772366
-0.8432342808308348
-0.3230915098163253
-0.13154328527016587
-0.06290704341214096
-0.00767556915284337
0.08120906866617612
0.29354513518935493
0.8413453316314063
0.9885189367435179
0.569520770866717
0.23816399085259732
0.13253437974921406
0.0850383671563434
-0.0039928361541004265
-0.5381688211437448
-0.9610352982932595
-0.3515314984726836
-0.03564015760513933
0.037739511181108076
0.05171493541346792
0.056707773973715465
0.08664698249574244
0.15616896024383395
0.3091757329125701
0.4632113780406191
0.41382908554683395
0.2328982674016207
0.09724520209130072
0.020785787743267323
-0.023033130274535227
-0.05392128419367296
-0.09694534378432577
-0.15697380211722975
-0.21511263649565313
-0.23597026064647442
-0.1873019694742706
-0.1163694403251926
-0.060981532320736144
-0.029852393136211533
-0.017367527551459438
0.013039932632261147
0.7424469471332159
0.5759655848617035
0.048116715283576084
-0.0421206943276172
-0.06273917822430924
-0.04789034395922516
-0.005909896548345221
0.02735673253674884
0.01983350741536474
-0.027461843414000268
-0.07208439610217064
-0.08737437616138846
-0.07294945466228514
-0.042768907226214986
-0.00246693270539073
0.05769613142151979
0.23570807878490668
0.9915130922820604
0.6422161594191396
0.15270648230154915
0.033619790007302724
-0.06249244536834613
-0.24518713460085206
-0.619818082414359
-0.7829980510352412
-0.490410225428056
-0.20733322087787842
-0.0492657599224165
0.050656530256563796
0.1317862750648221
0.2009919842718777
0.2593857158969882
0.2966460310506903
0.30721254562846634
0.29232793837078525
0.2579027808025617
0.21160628933867448
0.16551568059219135
0.10904052778690833
0.06480875668815364
0.021377593415540935
-0.010854389345202827
-0.025578921001096547
-0.018344357474200972
0.00805548441631471
0.016060319213165593
0.030163090515251907
0.02326514507781266
0.013429968790029221
-0.004839241180065712
-0.023097087541504652
-0.05519263234219769
-0.1207787293272518
-0.458750837862579
-0.9993080811017355
-0.39612642575133583
-0.15897780577983836
-0.11435424772415283
-0.1424976278271448
-0.2337461778239391
-0.444058270893445
-0.7065345116364826
-0.6600512177250045
-0.3643920560501622
-0.14793910972440394
-0.03748097183408115
0.006432039160173181
0.018855802692608694
0.011342519473162864
0.010124371130995017
0.0
SCALARS Distance_to_V float 1
LOOKUP_TABLE default
0.0
0.5820928620099621
1.1691437529117465
1.7661199151752776
2.375038997708997
2.9948799700765183
3.621160616278474
4.245320511494047
4.8544760473716115
5.432057489363222
5.9598741726234605
6.421353298614526
6.805616503031594
7.1113090148686995
7.349158534424272
7.541878678461539
7.7209711158824605
7.920647411966251
8.170404136840839
8.489074723197152
8.88233419799178
9.343741640739651
9.857930284181263
10.404012584451452
10.958186777742483
11.495939248649178
11.994473744123061
12.435736888896276
12.809520624158658
13.115311767072996
13.36255045734204
13.567370859747214
13.747902668633913
13.918126414020128
14.082915673520771
14.235894431765004
14.361134333107183
14.43759417947068
14.444979464842167
14.369215851512486
14.204834935296947
13.954867514581673
13.629081835618642
13.240727387364847
12.804841914454677
12.336477754099677
11.84952980408623
11.356195428219088
10.8665730007809
10.389224241067009
9.932967142682411
9.508757152764668
9.13065494178866
8.814930611781929
8.57691351881658
8.4279417915161
8.372176535679433
8.406437167273149
8.521824110980475
8.707246059334402
8.952015837575832
9.246967444891833
9.584618466643565
9.957851028764047
10.359391675686311
10.78095679952235
11.213038386709057
11.645465748453503
12.06834159954491
12.473692312574752
12.856247525113682
13.213867083931422
13.546560263149354
13.855204519609874
14.140123035529667
14.400301358813843
14.633141882303788
14.8346829603602
15.000386883046078
15.125784421114904
15.207042677175757
15.241365475213764
15.227373204348954
15.165110294750551
15.055908835074485
14.902196011942642
14.707013878945467
14.474037304323875
14.206667160767044
13.908298882121427
13.581777939495298
13.22958916186065
12.85340225492183
12.454312908685734
12.032528711341289
11.58747671784919
11.117830856470574
10.621809138601321
10.09752570613672
9.543936517535531
8.96188729464379
8.355116007265009
7.730200670534154
7.097132429040831
6.467616293711523
5.853720786744899
5.2667650010106
4.715933666156431
4.207877038863743
3.746250753718985
3.3309090582452376
2.9572839421138366
2.6166438786513746
2.2975390458661566
1.9867592285647546
1.6697636834732132
1.330699527432865
0.9519531223781401
0.5147961026247261
0.0
SCALARS Local_Extrema int 1
LOOKUP_TABLE default
0
0
0
0
0
0
0
0
0
0
0
0
0
0
0
0
0
0
0
0
0
0
0
0
0
0
0
0
0
0
0
0
0
0
0
0
0
0
1
0
0
0
0
0
0
0
0
0
0
0
0
0
0
0
0
0
-1
0
0
0
0
0
0
0
0
0
0
0
0
0
0
0
0
0
0
0
0
0
0
0
0
1
0
0
0
0
0
0
0
0
0
0
0
0
0
0
0
0
0
0
0
0
0
0
0
0
0
0
0
0
0
0
0
0
0
0
0
0
0
0
