# vtk DataFile Version 3.0
Curve with Curvature, Torsion, Distance to V, and Extrema
ASCII
DATASET POLYDATA
POINTS 120 float
0.0 0.0 0.0
-0.14133383333683014 -0.6208679676055908 -0.50867760181427
-0.39980944991111755 -1.2012559175491333 -0.7879659533500671
-0.750996470451355 -1.7418718338012695 -0.880877673625946
-1.170560359954834 -2.2434916496276855 -0.8307255506515503
-1.634498119354248 -2.707010507583618 -0.6813750267028809
-2.119717597961426 -3.133521318435669 -0.4772065579891205
-2.605041980743408 -3.524345636367798 -0.26227396726608276
-3.072948932647705 -3.881150007247925 -0.07820328325033188
-3.511648178100586 -4.20627498626709 0.039454616606235504
-3.9162209033966064 -4.50324821472168 0.06527639925479889
-4.287876129150391 -4.777301788330078 -0.014086869545280933
-4.6319756507873535 -5.035391330718994 -0.20078998804092407
-4.955808162689209 -5.285778045654297 -0.4891032576560974
-5.2673234939575195 -5.537524700164795 -0.8657454252243042
-5.573940277099609 -5.799411296844482 -1.3100510835647583
-5.881091594696045 -6.077949523925781 -1.7980245351791382
-6.191254615783691 -6.375918388366699 -2.3067269325256348
-6.503122329711914 -6.691462993621826 -2.817491292953491
-6.810635566711426 -7.017933368682861 -3.318227529525757
-7.102472305297852 -7.345126152038574 -3.804246187210083
-7.363175392150879 -7.662099838256836 -4.276533603668213
-7.575679302215576 -7.9601263999938965 -4.738415718078613
-7.724014759063721 -8.234091758728027 -5.192907810211182
-7.795471668243408 -8.482656478881836 -5.64143180847168
-7.7818989753723145 -8.707386016845703 -6.083733081817627
-7.680245876312256 -8.911499977111816 -6.518585681915283
-7.492666244506836 -9.099041938781738 -6.944819927215576
-7.226391792297363 -9.274730682373047 -7.362499237060547
-6.893341064453125 -9.444452285766602 -7.773624897003174
-6.508612155914307 -9.615785598754883 -8.181739807128906
-6.088897228240967 -9.798399925231934 -8.590773582458496
-5.649717330932617 -10.003026008605957 -9.002500534057617
-5.202868938446045 -10.239194869995117 -9.41413688659668
-4.756046295166016 -10.513554573059082 -9.817900657653809
-4.313832759857178 -10.829357147216797 -10.201818466186523
-3.878302574157715 -11.185141563415527 -10.54957389831543
-3.449582099914551 -11.572291374206543 -10.839682579040527
-3.0277788639068604 -11.973963737487793 -11.046805381774902
-2.6155457496643066 -12.369206428527832 -11.147132873535156
-2.219383478164673 -12.738615036010742 -11.124307632446289
-1.8495299816131592 -13.069457054138184 -10.975034713745117
-1.518188238143921 -13.356277465820312 -10.708033561706543
-1.2375067472457886 -13.597867012023926 -10.338366508483887
-1.0181221961975098 -13.796024322509766 -9.884849548339844
-0.8677496314048767 -13.955038070678711 -9.368462562561035
-0.7895959615707397 -14.0808744430542 -8.809708595275879
-0.7815938591957092 -14.180575370788574 -8.226768493652344
-0.8367428779602051 -14.261595726013184 -7.634469985961914
-0.9437106847763062 -14.331357955932617 -7.043870449066162
-1.087906837463379 -14.397017478942871 -6.46223258972168
-1.252972960472107 -14.465543746948242 -5.893574237823486
-1.4226446151733398 -14.543907165527344 -5.3395209312438965
-1.5829092264175415 -14.639042854309082 -4.800180435180664
-1.7233495712280273 -14.757511138916016 -4.27495813369751
-1.837328314781189 -14.905147552490234 -3.763246774673462
-1.9219270944595337 -15.086838722229004 -3.2646868228912354
-1.9780712127685547 -15.306489944458008 -2.7794322967529297
-2.0105984210968018 -15.567289352416992 -2.3082869052886963
-2.0267603397369385 -15.872045516967773 -1.8525900840759277
-2.034677028656006 -16.222978591918945 -1.4138143062591553
-2.042128562927246 -16.620986938476562 -0.9932910799980164
-2.0553746223449707 -17.06454849243164 -0.5918529033660889
-2.078385353088379 -17.549467086791992 -0.20981460809707642
-2.1127493381500244 -18.069459915161133 0.15284740924835205
-2.157726526260376 -18.61716079711914 0.4962475597858429
-2.2105209827423096 -19.185091018676758 0.8204246163368225
-2.266383171081543 -19.76641845703125 1.1253467798233032
-2.3189311027526855 -20.355546951293945 1.4109184741973877
-2.3604323863983154 -20.948484420776367 1.6771905422210693
-2.382488965988159 -21.543153762817383 1.924354076385498
-2.377321481704712 -22.13914680480957 2.1528100967407227
-2.339090585708618 -22.73705291748047 2.363102912902832
-2.2644505500793457 -23.33757972717285 2.55586838722229
-2.1520438194274902 -23.940868377685547 2.731928825378418
-2.0016448497772217 -24.546085357666016 2.89225697517395
-1.8134617805480957 -25.15085220336914 3.038109064102173
-1.5872459411621094 -25.7504825592041 3.1710500717163086
-1.321641445159912 -26.337575912475586 3.292905569076538
-1.0140429735183716 -26.902257919311523 3.4056103229522705
-0.6612284779548645 -27.43321418762207 3.5110297203063965
-0.26029661297798157 -27.918973922729492 3.6108179092407227
0.19036215543746948 -28.349157333374023 3.7064716815948486
0.690338671207428 -28.715681076049805 3.7993993759155273
1.2364848852157593 -29.01408576965332 3.8911514282226562
1.8228282928466797 -29.244319915771484 3.983684778213501
2.44108510017395 -29.41058921813965 4.079727649688721
3.0811164379119873 -29.521196365356445 4.183043479919434
3.731844663619995 -29.58742332458496 4.2985992431640625
4.3820013999938965 -29.62257957458496 4.432467937469482
5.021101951599121 -29.640893936157227 4.5914626121521
5.6405792236328125 -29.656116485595703 4.7820868492126465
6.234884738922119 -29.68024253845215 5.008917808532715
6.801970958709717 -29.722766876220703 5.273312568664551
7.343323230743408 -29.790395736694336 5.572718143463135
7.863328456878662 -29.887039184570312 5.900885105133057
8.367859840393066 -30.014665603637695 6.2494635581970215
8.862945556640625 -30.174026489257812 6.609568119049072
9.353797912597656 -30.364917755126953 6.972902297973633
9.84353256225586 -30.586261749267578 7.332969665527344
10.332159042358398 -30.836530685424805 7.68595027923584
10.816158294677734 -31.114397048950195 8.030801773071289
11.28866958618164 -31.419296264648438 8.368722915649414
11.740248680114746 -31.751747131347656 8.70218276977539
12.160177230834961 -32.11331558227539 9.033720016479492
12.53808307647705 -32.50613021850586 9.364836692810059
12.865486145019531 -32.932273864746094 9.695233345031738
13.13681411743164 -33.39305877685547 10.02266788482666
13.349722862243652 -33.88867950439453 10.343306541442871
13.505085945129395 -34.4179573059082 10.652164459228516
13.606706619262695 -34.97831344604492 10.943726539611816
13.660795211791992 -35.56587600708008 11.212554931640625
13.675228118896484 -36.175819396972656 11.453845024108887
13.65860652923584 -36.802791595458984 11.663780212402344
13.619550704956055 -37.441314697265625 11.839707374572754
13.566329956054688 -38.085960388183594 11.979971885681152
13.506779670715332 -38.731510162353516 12.083761215209961
13.448351860046387 -39.37287521362305 12.150786399841309
13.398289680480957 -40.005096435546875 12.181069374084473
13.363746643066406 -40.623207092285156 12.174728393554688
LINES 1 121
120 0 1 2 3 4 5 6 7 8 9 10 11 12 13 14 15 16 17 18 19 20 21 22 23 24 25 26 27 28 29 30 31 32 33 34 35 36 37 38 39 40 41 42 43 44 45 46 47 48 49 50 51 52 53 54 55 56 57 58 59 60 61 62 63 64 65 66 67 68 69 70 71 72 73 74 75 76 77 78 79 80 81 82 83 84 85 86 87 88 89 90 91 92 93 94 95 96 97 98 99 100 101 102 103 104 105 106 107 108 109 110 111 112 113 114 115 116 117 118 119
POINT_DATA 120
SCALARS Curvature float 1
LOOKUP_TABLE default
0.0
0.4726490844976863
0.46136559159814433
0.3585033027009636
0.24283249759208506
0.14911468067418332
0.07551624605270513
0.06640584536442269
0.17939212658754136
0.3402032387816721
0.4646081537831765
0.466337212944437
0.3625927725828599
0.23025753918877298
0.12353664252388957
0.05564696687345792
0.02706409856646655
0.03126917517285207
0.032932710566547736
0.029017965661672293
0.054087027253905545
0.11313477277550621
0.1924935441662663
0.276890384344769
0.3406842852787433
0.3594607645095118
0.32837211116612836
0.2635563106676746
0.18731583320323972
0.1172221196637384
0.06351193426477
0.04783695059403968
0.06552137856844219
0.08520570534542887
0.1032985044159671
0.12353908704698431
0.1542022037212061
0.20962770440554143
0.29775780586860545
0.4000307561805933
0.4631267418263655
0.45989412917055
0.41414693431180577
0.3546138164478552
0.2995312025850298
0.2541182320907948
0.2151792272558108
0.17930029575525477
0.14331608474192922
0.10557599512452466
0.06726107693687287
0.04197461629109801
0.06112580162707422
0.09964538572502339
0.13514369074759014
0.15986718462807237
0.17007571700667318
0.16716397305448963
0.1586164427098565
0.14898230816984265
0.13850525884606044
0.12510815208658851
0.10912489087532445
0.09257805912689505
0.07726275205540267
0.06417824556838092
0.053959984630961084
0.048776981692372316
0.05174828525989257
0.06387535406393054
0.07994362645897987
0.09325276607449226
0.09999076495634719
0.10055989153294996
0.09762423024790376
0.09395308245655364
0.09326531653776339
0.0989905585611843
0.11321272221383306
0.1350264711164733
0.16103279778060528
0.18566276346439078
0.20217845296180187
0.2041657793521639
0.19044081552635367
0.1656499127644183
0.13509970029646898
0.10512018663430377
0.08138348004757034
0.07311766410288624
0.08571424961028085
0.10766922662693855
0.12477980666146986
0.12865476226129877
0.11832273953851587
0.10124776666605308
0.08555062055754394
0.07548541963103896
0.07073399949359613
0.06820450375960235
0.0669633752225457
0.06998076408482246
0.08153222502900473
0.10210744444013607
0.12724026883183387
0.15056326416264112
0.16625866786589075
0.17154507528120708
0.16654975351382825
0.15397871934241553
0.13759839950559807
0.12091178480143845
0.10654673420118133
0.09559510374702758
0.08846416832583645
0.08512054204170491
0.08596925551625034
0.09159019669121418
0.10296742330101658
0.0
SCALARS Torsion float 1
LOOKUP_TABLE default
0.0
0.0
0.017505951954267546
0.03179992583290272
0.07061909166314262
0.20811302379865868
0.7926736081606149
0.9694065800922441
0.40340424042589473
0.14265675369451686
0.06502931276720834
0.0458950374340961
0.05855452535304583
0.10858472100508242
0.26330556066673144
0.6935487510777322
0.9754147598710353
0.7024337722103726
0.10770568985927809
-0.76854749124677
-0.5984991852405962
-0.2058814661886852
-0.04086549512993512
0.03578457370767583
0.07345294889491016
0.08701507619589381
0.08860623286592578
0.0908151772094975
0.12398735349526138
0.2715817765485325
0.7329672534642566
0.8902532166041601
0.4245844334136134
0.041963753168452744
-0.1200070969947834
-0.21912313423491336
-0.2958053133100565
-0.30179928938276046
-0.22464600783651228
-0.12740911474585304
-0.02874633479526116
0.056590103220894736
0.10999195697788874
0.1487958962779146
0.1775210707289764
0.18456910320842004
0.18186341449211776
0.18215740427024074
0.2021681047726087
0.2884535764155518
0.6050482340213346
0.9632078744431951
0.7544461281626823
0.30399587624456476
0.09639656873988905
-0.01064645441711555
-0.10309456209832614
-0.2126707451492902
-0.2891329102697695
-0.30738908176939717
-0.28069407291686904
-0.22958250249302667
-0.17273752695636538
-0.11702516402376004
-0.04256566937748156
0.06726341918649997
0.24185053941631518
0.42304662440672997
0.47290448641244404
0.3599308936537824
0.22237931853106202
0.12490659957617725
0.06770609303692265
0.04583252342855648
0.04582878275671898
0.06949376218896665
0.11096133650307514
0.14222847113492396
0.1396071128631908
0.11194677359927378
0.08122030760045434
0.059819215769558225
0.04716422751104693
0.044885331658457095
0.054571303578473604
0.08451200959134897
0.15232973218311538
0.29310092559339573
0.5268230603524342
0.6732603348909406
0.5519134281673779
0.3602636379739623
0.2536104309530592
0.22793821328216607
0.26443315103944637
0.34748749371784404
0.43149377549831214
0.4515206610080006
0.35416874514110436
0.16443088735604625
-0.06425811522167105
-0.2426980566639729
-0.2763668956808056
-0.2019154607236429
-0.11055930449439275
-0.03583585297527429
0.018248474500520237
0.05924578304229326
0.09593425510006456
0.131742825675701
0.16925454092941963
0.20781714956644817
0.24099275103344578
0.2646655235887512
0.2805920396540218
0.28943698421454633
0.2891889710952517
0.2791595578677234
0.255149701774392
0.0
SCALARS Distance_to_V float 1
LOOKUP_TABLE default
0.0
0.7180618891341625
1.2820926217889483
1.7633949328480638
2.220684452754539
2.6908110362559485
3.185980624919282
3.698938460644791
4.2128137218826
4.711209837024688
5.185335584080751
5.6365984977208194
6.0751456464828975
6.516260798788182
6.976179465870631
7.467352828505592
7.994843489644502
8.555564908492716
9.1394559413216
9.731468259269846
10.313909638578458
10.869017118936979
11.381141828614766
11.838180108722765
12.23247123710478
12.561102558763995
12.825844412231131
13.03308323005331
13.193948942368712
13.32422877210734
13.44283202936558
13.569614411104233
13.720966544900701
13.90534072281768
14.122011815617288
14.36226973945291
14.609524315694612
14.8384470495826
15.016878107078723
15.113212643229385
15.104265489317052
14.982199927490958
14.753498074556497
14.432476964384005
14.038376605980735
13.593624993842912
13.1209209196747
12.641097814468562
12.171691309225809
11.72591056179954
11.312006509567697
10.933453776048744
10.58989027513822
10.278643733962143
9.996261991306483
9.739637195940368
9.50672915186027
9.297410489678105
9.114223124979416
8.961852681474774
8.845885576358706
8.771474927145022
8.741722996407457
8.756844130993613
8.814267465001985
8.909077253942502
9.034600576054148
9.182736762328146
9.344435858073748
9.510020118237593
9.669945135465513
9.81585704890673
9.94159358878924
10.043428850344027
10.119388270410472
10.168361537344481
10.189203482154399
10.179615649775029
10.135394412272127
10.050413257480065
9.917609272091992
9.730336882160762
9.483677267101548
9.17551252368498
8.80755247480068
8.385548945555739
7.918529028652431
7.4180040223652375
6.8963512829702065
6.365429621438401
5.835104326621362
5.312160924584607
4.800196743291641
4.30062620549119
3.8142539681999112
3.3429318860976625
2.8908881517108083
2.4659385297088203
2.081184411095191
1.7572227452877098
1.5228461391885701
1.4069296481274691
1.416031374887236
1.5203300011557888
1.6717269306532274
1.827929852820601
1.9600752470263165
2.0508526652506496
2.091192401208064
2.0779156722431966
2.0121104112620136
1.897902022380835
1.7413285384380053
1.5492196461277177
1.3284261372017245
1.0854132318131986
0.8261020356175844
0.555801738998529
0.27915774544470157
0.0
SCALARS Local_Extrema int 1
LOOKUP_TABLE default
0
0
0
0
0
0
0
0
0
0
0
0
0
0
0
0
0
0
0
0
0
0
0
0
0
0
0
0
0
0
0
0
0
0
0
0
0
0
0
1
0
0
0
0
0
0
0
0
0
0
0
0
0
0
0
0
0
0
0
0
0
0
-1
0
0
0
0
0
0
0
0
0
0
0
0
0
1
0
0
0
0
0
0
0
0
0
0
0
0
0
0
0
0
0
0
0
0
0
0
0
0
-1
0
0
0
0
0
0
1
0
0
0
0
0
0
0
0
0
0
0
