# vtk DataFile Version 3.0
Curve with Curvature, Torsion, Distance to V, and Extrema
ASCII
DATASET POLYDATA
POINTS 120 float
0.0 0.0 0.0
-0.278378963470459 -0.6541061401367188 0.7415759563446045
-0.5227241516113281 -1.27960205078125 1.2682857513427734
-0.7415764331817627 -1.8768558502197266 1.595613956451416
-0.9432451725006104 -2.446369171142578 1.7394297122955322
-1.135282278060913 -2.9889907836914062 1.7166657447814941
-1.3237621784210205 -3.5062427520751953 1.5460338592529297
-1.5126149654388428 -4.000471115112305 1.2483372688293457
-1.703500509262085 -4.474630355834961 0.8459131717681885
-1.8961460590362549 -4.931713104248047 0.3612642288208008
-2.0889155864715576 -5.374052047729492 -0.18463516235351562
-2.2792484760284424 -5.80296516418457 -0.7737278938293457
-2.4636504650115967 -6.218920707702637 -1.3915224075317383
-2.6374661922454834 -6.62203311920166 -2.0269994735717773
-2.7945826053619385 -7.012544631958008 -2.672088146209717
-2.927403688430786 -7.391070365905762 -3.3211002349853516
-3.027364492416382 -7.758563041687012 -3.970080852508545
-3.0857927799224854 -8.116379737854004 -4.616340160369873
-3.0950539112091064 -8.466241836547852 -5.258128643035889
-3.0496246814727783 -8.81039047241211 -5.894413471221924
-2.9469187259674072 -9.151798248291016 -6.524789333343506
-2.7879722118377686 -9.494546890258789 -7.149195194244385
-2.57794451713562 -9.844063758850098 -7.767394542694092
-2.3264896869659424 -10.207453727722168 -8.378071308135986
-2.04775071144104 -10.593070983886719 -8.977577686309814
-1.7595188617706299 -11.009522438049316 -9.558516025543213
-1.481327772140503 -11.46403694152832 -10.108733654022217
-1.2317736148834229 -11.960029602050781 -10.610914707183838
-1.0258686542510986 -12.495113372802734 -11.043158054351807
-0.8731567859649658 -13.059712409973145 -11.381345272064209
-0.7770950794219971 -13.637275695800781 -11.601841449737549
-0.7358624935150146 -14.205924987792969 -11.685328960418701
-0.7440855503082275 -14.741609573364258 -11.62059736251831
-0.7949812412261963 -15.220442295074463 -11.407121181488037
-0.8822629451751709 -15.621356964111328 -11.056493282318115
-1.0014235973358154 -15.927420616149902 -10.59100866317749
-1.1500232219696045 -16.125837326049805 -10.040582180023193
-1.326826810836792 -16.20817804336548 -9.437567234039307
-1.5302469730377197 -16.170663356781006 -8.811903476715088
-1.7567718029022217 -16.014965057373047 -8.187048435211182
-2.0001885890960693 -15.749382495880127 -7.577268123626709
-2.2518513202667236 -15.389463424682617 -6.987204074859619
-2.50166916847229 -14.9580078125 -6.41294527053833
-2.7395107746124268 -14.48410701751709 -5.844583034515381
-2.956618547439575 -14.001215934753418 -5.269509792327881
-3.1469290256500244 -13.545029640197754 -4.675971508026123
-3.30792498588562 -13.150348663330078 -4.056248188018799
-3.440805196762085 -12.848926544189453 -3.4090919494628906
-3.5500171184539795 -12.666106224060059 -2.741119861602783
-3.642005205154419 -12.618753433227539 -2.0668506622314453
-3.7232882976531982 -12.714384078979492 -1.4074139595031738
-3.7982075214385986 -12.950556755065918 -0.7881045341491699
-3.8670523166656494 -13.316230773925781 -0.2351689338684082
-3.925347089767456 -13.793697357177734 0.22786498069763184
-3.964843511581421 -14.361196041107178 0.5838842391967773
-3.9758894443511963 -14.995657444000244 0.8253953456878662
-3.9502618312835693 -15.674505710601807 0.9568042755126953
-3.883558511734009 -16.377268314361572 0.9953160285949707
-3.776435613632202 -17.086688995361328 0.9697589874267578
-3.6344850063323975 -17.789490699768066 0.916865348815918
-3.4669296741485596 -18.476449728012085 0.8755135536193848
-3.284674882888794 -19.1430983543396 0.8801040649414062
-3.0983049869537354 -19.789762020111084 0.9544858932495117
-2.91631817817688 -20.421165108680725 1.107792854309082
-2.7441327571868896 -21.045639276504517 1.3335001468658447
-2.583711862564087 -21.673800230026245 1.6116671562194824
-2.433858633041382 -22.316828101873398 1.9140543937683105
-2.290940999984741 -22.983844995498657 2.210735559463501
-2.149686574935913 -23.68022060394287 2.4765957593917847
-2.0038974285125732 -24.40569829940796 2.6963725090026855
-1.846984624862671 -25.153223514556885 2.867318630218506
-1.6723296642303467 -25.909372568130493 2.999072551727295
-1.4735839366912842 -26.655216693878174 3.111162543296814
-1.2450077533721924 -27.368592739105225 3.229055404663086
-0.9820091724395752 -28.026493072509766 3.3792556524276733
-0.6815659999847412 -28.60912322998047 3.584500551223755
-0.34265637397766113 -29.10241937637329 3.86002254486084
0.03379321098327637 -29.50049114227295 4.211299475282431
0.44527530670166016 -29.807025909423828 4.633649915456772
0.8884062767028809 -30.034335613250732 5.1134244203567505
1.359678030014038 -30.20134449005127 5.6307162046432495
1.856003999710083 -30.329519271850586 6.16266405582428
2.3748934268951416 -30.438603401184082 6.686965703964233
2.914251744747162 -30.542858123779297 7.1850504875183105
3.471981607377529 -30.64853858947754 7.6445348262786865
4.045459687709808 -30.75400733947754 8.060757398605347
4.631022334098816 -30.85204792022705 8.437075138092041
5.223750591278076 -30.93305778503418 8.783870697021484
5.817698955535889 -30.98854637145996 9.116456985473633
6.406613349914551 -31.01380157470703 9.452069759368896
6.985049486160278 -31.00888729095459 9.806451320648193
7.549433469772339 -30.97860336303711 10.191033840179443
8.098534345626831 -30.931246757507324 10.611420631408691
8.633310556411743 -30.877737045288086 11.067564010620117
9.156220197677612 -30.830108642578125 11.555039405822754
9.670460939407349 -30.800233840942383 12.066632747650146
10.179401159286499 -30.79783344268799 12.594296932220459
10.686210870742798 -30.82963275909424 13.130101680755615
11.19385552406311 -30.89874839782715 13.666654109954834
11.704861402511597 -31.004749298095703 14.197482585906982
12.220621824264526 -31.14521598815918 14.717126369476318
12.740915060043335 -31.317320823669434 15.220900058746338
13.26352572441101 -31.519227981567383 15.704874515533447
13.784007787704468 -31.751707077026367 16.165902614593506
14.296446561813354 -32.01898384094238 16.600680828094482
14.793954610824585 -32.32774257659912 17.006478786468506
15.269859075546265 -32.68603229522705 17.3809494972229
15.718132734298706 -33.10109615325928 17.72394323348999
16.13433337211609 -33.57688903808594 18.037782192230225
16.5152690410614 -34.11264991760254 18.3284010887146
16.85951018333435 -34.70272254943848 18.604777812957764
17.166959524154663 -35.33692169189453 18.877784252166748
17.438339948654175 -36.00204658508301 19.158668041229248
17.674845457077026 -36.68394756317139 19.45687437057495
17.877526998519897 -37.36911869049072 19.77776575088501
18.04673171043396 -38.04672050476074 20.120968341827393
18.18175196647644 -38.71010208129883 20.47952699661255
18.28086829185486 -39.35686111450195 20.839970111846924
18.341909170150757 -39.98938179016113 21.183924198150635
18.36300539970398 -40.613243103027344 21.490652561187744
LINES 1 121
120 0 1 2 3 4 5 6 7 8 9 10 11 12 13 14 15 16 17 18 19 20 21 22 23 24 25 26 27 28 29 30 31 32 33 34 35 36 37 38 39 40 41 42 43 44 45 46 47 48 49 50 51 52 53 54 55 56 57 58 59 60 61 62 63 64 65 66 67 68 69 70 71 72 73 74 75 76 77 78 79 80 81 82 83 84 85 86 87 88 89 90 91 92 93 94 95 96 97 98 99 100 101 102 103 104 105 106 107 108 109 110 111 112 113 114 115 116 117 118 119
POINT_DATA 120
SCALARS Curvature float 1
LOOKUP_TABLE default
0.0
0.1985054338150719
0.30597552569646047
0.41702086231776303
0.4660448290151438
0.42008448296448114
0.31827798947749025
0.21808602619014908
0.1441704816309314
0.09579823336069455
0.06587881845984157
0.048365323167773366
0.039642698818780395
0.03867153582918798
0.045500069577432675
0.058663480777607926
0.07537423927786924
0.0920023745149509
0.10451482930303073
0.1094233020743233
0.10482148137275761
0.09158834580719134
0.07364717613642642
0.05930670239575016
0.06170876073000113
0.08473665821702944
0.12099121210553909
0.16831394350150006
0.2293565002640998
0.31023881736396086
0.40892669569084295
0.4976614406658636
0.5316412533675324
0.49370226207201545
0.41681549134372076
0.34545834840876966
0.2976596570504898
0.26819025158477267
0.24301951224587026
0.20995406397849567
0.1663777023249159
0.11653930672803893
0.06731885908267941
0.03777824251819173
0.0691039485320237
0.12482767853136172
0.18614368213675592
0.24289217937690588
0.2853811581440002
0.30927325712334813
0.3164848120531318
0.31497702295160535
0.30996717295494036
0.30106012972167867
0.28270276083999374
0.24927071041477028
0.20105463319409164
0.14368658944894674
0.08626874005387175
0.06104076444871905
0.10433454600889502
0.15573610500506085
0.1749227227327556
0.1514691760559318
0.09913949210211828
0.0413215806579759
0.03309635190106103
0.06859717136517696
0.08799454472493583
0.08669167128742425
0.07010507163619728
0.05271766742397211
0.06838500999311183
0.12483561094292057
0.19983792492555738
0.2667763745979699
0.291734197416079
0.26212246959197727
0.20015565147220704
0.1337324563806566
0.08020717165619033
0.05315733543731699
0.06073533351235385
0.07779372060640467
0.08608737170135261
0.08181388734545571
0.06923090014280077
0.06025100219957111
0.06627603773486151
0.0802877256704349
0.08827160547883155
0.08537440901901876
0.07406052687357531
0.06172830464898106
0.055888361691484284
0.05819297183160499
0.06362348228921488
0.06721716245400162
0.06723861708728653
0.0655656103242068
0.06430864124672164
0.06506422906369072
0.070157910049748
0.08293097666799372
0.10208966288856354
0.12491151157874783
0.14274181455183393
0.14759574811554735
0.13739790911022845
0.11676301893268592
0.09362949686414514
0.07569186163938935
0.06717307789390387
0.06626836365619874
0.06717080893575994
0.06550814406129113
0.06291804668808089
0.07079202582890637
0.10116707806667936
0.0
SCALARS Torsion float 1
LOOKUP_TABLE default
0.0
0.0
-0.05855684191298331
-0.06631136106293631
-0.07058375084331012
-0.06826994273715424
-0.05726171341960758
-0.03926401363883587
-0.014829568082741391
0.017458259253462796
0.06680581862441386
0.1556486911734137
0.27626654587905275
0.34437587106170076
0.29343652188884933
0.196925945914996
0.12688356116244257
0.08543093139239835
0.06750720353838092
0.06675725440147395
0.09025605257591546
0.15337022997817493
0.3068057024114663
0.5396355828499115
0.5659342672480205
0.34216666988741484
0.15138021005134597
0.03494144570159349
-0.03782445828479316
-0.08698468947098179
-0.10950305706730334
-0.1062546473942479
-0.08179428656020073
-0.039531317912123415
0.0137452616142082
0.06703622616994558
0.09508844160243736
0.08653239279549098
0.04949648493272838
-0.0013316979638397994
-0.0655907086806997
-0.1829237602206465
-0.5260928087070634
-0.9552200726120375
-0.5505738483720367
-0.23069847401640547
-0.1471342183090174
-0.12067152438803652
-0.11072536722576212
-0.09963574518497337
-0.0760667614732687
-0.03576736335004326
0.016004007010927516
0.06518359395330994
0.10187562714893694
0.13131349598307882
0.17549632132252233
0.29676344436407803
0.677355622510629
0.9416393120222899
0.5634954557274541
0.2669546092853811
0.17276854231586647
0.16645106686804412
0.27623951957958803
0.8531688278633291
0.9174069056582308
0.287779196991375
0.15858926405419294
0.18189584894989336
0.3597138545464085
0.7442454961360925
0.6764476152157585
0.3281452109209978
0.15903315657981176
0.08219465688246161
0.03596587801984308
-0.0035053834647446463
-0.061727968318904064
-0.18463012936009532
-0.49827839395117696
-0.8212374533486818
-0.6099099996850481
-0.22556307907804574
0.031085944746922695
0.26010494527992944
0.5432799933179437
0.7436158144341837
0.6756146788819214
0.48508498321431437
0.3671380277473111
0.3313451854649292
0.39117690458747395
0.5068697886407975
0.5677676466014728
0.46897443963185825
0.337419157604857
0.25701633347904684
0.22014921781240432
0.18759627086116706
0.13959134224100955
0.05658771657953923
-0.0562544120524603
-0.10783336466022984
-0.1193319065609155
-0.09383109312103008
-0.0914858653192839
-0.09074951125977124
-0.12979955499309756
-0.19065461836390418
-0.29193482961719897
-0.40734854193045167
-0.43257911238618396
-0.33268815085683595
-0.1613774239156818
0.06872330023167558
0.37446374506118035
0.5507595365839301
0.4314329992009743
0.0
SCALARS Distance_to_V float 1
LOOKUP_TABLE default
0.0
0.6959168905293643
1.240662343703066
1.6684619804941963
2.0189097965811684
2.3356486962916185
2.6617440363094493
3.0322607477948638
3.467917389473021
3.9737356884289734
4.542787519812069
5.161830201630339
5.815838949043534
6.490639337726174
7.173964011815353
7.855755129262998
8.52816855825787
9.185707887059314
9.82539608566055
10.446963380255442
11.052917989461914
11.648363554715699
12.240299477459747
12.83644817452635
13.443161345705105
14.062778115203567
14.691188267091144
15.316029180474247
15.916612187148118
16.466040043303355
16.93440675844936
17.29336981889308
17.521088536947456
17.605482442004057
17.546589779746324
17.355828074529715
17.05313779912724
16.662421809196168
16.207239148235224
15.707503428062589
15.17783229611002
14.627883103894874
14.063924949403713
13.491248750202773
12.916571943585335
12.350344675516423
11.807763811743154
11.309109581244432
10.877793370738788
10.537185462969816
10.306438296195989
10.195752256339292
10.203740166402406
10.317565315584654
10.516310225769834
10.7759835521157
11.07354226720249
11.388979106496173
11.705285600171859
12.007570916324253
12.282543360311
12.51990359780125
12.714657439257415
12.869153308290505
12.99356565189203
13.104087254622396
13.219281815294112
13.355455816316855
13.523129961204718
13.724542462146864
13.952587883908338
14.191424851042804
14.417917962735999
14.604416974890011
14.722417238213538
14.747444976854664
14.66290490395892
14.462923329033982
14.153353681922434
13.750191057901551
13.276387621938502
12.75729191224523
12.216262382704793
11.671260692550959
11.132866131367297
10.604324004194721
10.0831617882038
9.563314102709425
9.037368348312771
8.498508888210305
7.941852815948104
7.365447118449906
6.770617866083236
6.162013722267567
5.546786878039626
4.933498294894102
4.3301165182778005
3.7430536378445467
3.176432792123503
2.6319627696243812
2.1102123344744954
1.6120898703318005
1.1403298971347913
0.7021322671491348
0.32137693658201305
0.2021554551745018
0.4476174456725788
0.6869979956878849
0.8712264467586868
0.9960338425685391
1.0651298662050441
1.0851809509029378
1.0629491261921173
1.0036397097443164
0.9106097762670643
0.7859619895125818
0.631452446106034
0.4489484088051239
0.23917777713098573
0.0
SCALARS Local_Extrema int 1
LOOKUP_TABLE default
0
0
0
0
0
0
0
0
0
0
0
0
0
0
0
0
0
0
0
0
0
0
0
0
0
0
0
0
0
0
0
0
0
1
0
0
0
0
0
0
0
0
0
0
0
0
0
0
0
0
0
-1
0
0
0
0
0
0
0
0
0
0
0
0
0
0
0
0
0
0
0
0
0
0
0
1
0
0
0
0
0
0
0
0
0
0
0
0
0
0
0
0
0
0
0
0
0
0
0
0
0
0
0
0
0
-1
0
0
0
0
0
1
0
0
0
0
0
0
0
0
