# vtk DataFile Version 3.0
Curve with Curvature, Torsion, Distance to V, and Extrema
ASCII
DATASET POLYDATA
POINTS 120 float
0.0 0.0 0.0
-0.6582204699516296 -0.43675804138183594 0.5040369033813477
-1.22017902135849 -0.9257488250732422 0.9127540588378906
-1.701772153377533 -1.453958511352539 1.2169437408447266
-2.118762195110321 -2.0084571838378906 1.407839298248291
-2.4863776564598083 -2.576681137084961 1.4780473709106445
-2.818487584590912 -3.146902084350586 1.4230122566223145
-3.1265572905540466 -3.708770751953125 1.242619514465332
-3.4185909628868103 -4.2537994384765625 0.9424104690551758
-3.698382318019867 -4.775662422180176 0.5340576171875
-3.965387284755707 -5.270204544067383 0.03475618362426758
-4.215144574642181 -5.735185623168945 -0.5345678329467773
-4.440050542354584 -6.169975280761719 -1.1516366004943848
-4.630415856838226 -6.575252532958984 -1.795334815979004
-4.775763928890228 -6.952744483947754 -2.44802188873291
-4.866439759731293 -7.305027008056641 -3.097031593322754
-4.895068109035492 -7.635396957397461 -3.7355775833129883
-4.85773891210556 -7.947890281677246 -4.3625898361206055
-4.754672467708588 -8.247506141662598 -4.981578826904297
-4.590403974056244 -8.540742874145508 -5.598407745361328
-4.373540818691254 -8.836345672607422 -6.218105316162109
-4.115963399410248 -9.145649909973145 -6.8415937423706055
-3.8317059874534607 -9.481778144836426 -7.462862968444824
-3.535878598690033 -9.85771656036377 -8.067326545715332
-3.2438425421714783 -10.283514976501465 -8.632051467895508
-2.9707135558128357 -10.763411521911621 -9.127674102783203
-2.7309476733207703 -11.293859481811523 -9.521906852722168
-2.5375589728355408 -11.862712860107422 -9.784089088439941
-2.400972545146942 -12.449616432189941 -9.890032768249512
-2.327885329723358 -13.028055667877197 -9.826101303100586
-2.320453107357025 -13.568237781524658 -9.591858863830566
-2.3760549426078796 -14.040365219116211 -9.200563430786133
-2.4877795577049255 -14.418169498443604 -8.677104949951172
-2.645375669002533 -14.681110858917236 -8.05431079864502
-2.8362120985984802 -14.816106796264648 -7.368221282958984
-3.0463656783103943 -14.818133354187012 -6.653326034545898
-3.261593759059906 -14.690820217132568 -5.938426971435547
-3.4680275321006775 -14.444791316986084 -5.244051933288574
-3.652824819087982 -14.096935272216797 -4.58126163482666
-3.8049039244651794 -13.668871879577637 -3.952040672302246
-3.9157981276512146 -13.185348987579346 -3.351015090942383
-3.980435311794281 -12.673190116882324 -2.7679519653320312
-3.9976977705955505 -12.16006088256836 -2.1907196044921875
-3.970766007900238 -11.67327880859375 -1.6082420349121094
-3.9070915579795837 -11.237783432006836 -1.012864589691162
-3.8180288672447205 -10.8745756149292 -0.4017300605773926
-3.718108594417572 -10.59990406036377 0.2230215072631836
-3.623863637447357 -10.424242973327637 0.8551807403564453
-3.5523032546043396 -10.352396011352539 1.4859342575073242
-3.5189852118492126 -10.384421348571777 2.1053926944732666
-3.5356892943382263 -10.516759872436523 2.703728675842285
-3.608221471309662 -10.743404388427734 3.2717301845550537
-3.7351431250572205 -11.056824684143066 3.800837993621826
-3.9080094695091248 -11.448317527770996 4.282780289649963
-4.11327451467514 -11.90778923034668 4.708956241607666
-4.335440099239349 -12.423514366149902 5.0700143575668335
-4.560521066188812 -12.983251571655273 5.356140971183777
-4.778484761714935 -13.575198650360107 5.55830991268158
-4.984183251857758 -14.189161777496338 5.670697882771492
-5.176635682582855 -14.817860126495361 5.693352922797203
-5.357191026210785 -15.45726490020752 5.634126976132393
-5.52752822637558 -16.106613636016846 5.5085175931453705
-5.688089311122894 -16.767741441726685 5.33761864900589
-5.837301194667816 -17.443785667419434 5.144600510597229
-5.971655309200287 -18.13821816444397 4.950486600399017
-6.086322247982025 -18.85399091243744 4.771131634712219
-6.17615407705307 -19.592830896377563 4.615767955780029
-6.236613690853119 -20.35487872362137 4.487512588500977
-6.264449059963226 -21.139023631811142 4.385262489318848
-6.257889211177826 -21.94247817993164 4.306003570556641
-6.216266572475433 -22.760299682617188 4.247093200683594
-6.139066636562347 -23.585232496261597 4.207573652267456
-6.024794518947601 -24.40717363357544 4.188693404197693
-5.87007611989975 -25.212984561920166 4.193616271018982
-5.669250428676605 -25.986873626708984 4.226507186889648
-5.414720952510834 -26.71125030517578 4.291677951812744
-5.09816974401474 -27.368951320648193 4.392811417579651
-4.712405622005463 -27.945284843444824 4.5324108600616455
-4.253476083278656 -28.430301189422607 4.711645603179932
-3.722493588924408 -28.820862770080566 4.9303476214408875
-3.126497209072113 -29.121153831481934 5.1873778104782104
-2.47823566198349 -29.341766357421875 5.480958789587021
-1.7948281168937683 -29.497767448425293 5.809138588607311
-1.0955409407615662 -29.60575008392334 6.1700966358184814
-0.3992735743522644 -29.680622100830078 6.562145888805389
0.27777761220932007 -29.733074188232422 6.983503460884094
0.9240334779024124 -29.767892837524414 7.431756258010864
1.5337286591529846 -29.783631324768066 7.903207778930664
2.107230007648468 -29.774141311645508 8.392417669296265
2.6503154635429382 -29.72995662689209 8.892234563827515
3.1726754307746887 -29.64193058013916 9.394497632980347
3.6858895421028137 -29.50333023071289 9.89120626449585
4.201598227024078 -29.31214714050293 10.37576675415039
4.730069935321808 -29.07226276397705 10.84397268295288
5.279212534427643 -28.79372501373291 11.294202327728271
5.853873789310455 -28.49178123474121 11.727406024932861
6.455214083194733 -28.18503189086914 12.147130966186523
7.080216467380524 -27.894104480743408 12.558919429779053
7.721562445163727 -27.639328002929688 12.969595432281494
8.368084013462067 -27.439560413360596 13.386846542358398
9.005785524845123 -27.311113357543945 13.818256855010986
9.619438707828522 -27.267094135284424 14.269715309143066
10.194648325443268 -27.31626558303833 14.744590759277344
10.719985544681549 -27.462660312652588 15.242807388305664
11.188078463077545 -27.705842971801758 15.760078430175781
11.59660679101944 -28.04104232788086 16.288360595703125
11.948660433292389 -28.459954261779785 16.817049026489258
12.251374781131744 -28.95223331451416 17.334369659423828
12.514216959476471 -29.50623607635498 17.829444885253906
12.747075617313385 -30.10978889465332 18.29430389404297
12.957660257816315 -30.751419067382812 18.725102424621582
13.150638163089752 -31.42061424255371 19.12209987640381
13.327327311038971 -32.10884094238281 19.48957061767578
13.485895693302155 -32.80966758728027 19.83372402191162
13.622338831424713 -33.51869297027588 20.16127109527588
13.732482492923737 -34.23366165161133 20.47782039642334
13.812855303287506 -34.953993797302246 20.786450386047363
13.86135059595108 -35.680097579956055 21.08713722229004
13.878094255924225 -36.412882804870605 21.376469612121582
13.863850176334381 -37.15313148498535 21.648588180541992
LINES 1 121
120 0 1 2 3 4 5 6 7 8 9 10 11 12 13 14 15 16 17 18 19 20 21 22 23 24 25 26 27 28 29 30 31 32 33 34 35 36 37 38 39 40 41 42 43 44 45 46 47 48 49 50 51 52 53 54 55 56 57 58 59 60 61 62 63 64 65 66 67 68 69 70 71 72 73 74 75 76 77 78 79 80 81 82 83 84 85 86 87 88 89 90 91 92 93 94 95 96 97 98 99 100 101 102 103 104 105 106 107 108 109 110 111 112 113 114 115 116 117 118 119
POINT_DATA 120
SCALARS Curvature float 1
LOOKUP_TABLE default
0.0
0.16674818874680677
0.19900901887474526
0.2356875464480196
0.26998200891578106
0.2882349227148558
0.2788581503289764
0.2441648742501694
0.19816692465235286
0.15447847128273554
0.1200369236114627
0.09671122381854462
0.08539291166346406
0.08737826910470563
0.1012460189204771
0.12101209781790596
0.13671428039809885
0.13849511871122597
0.12258293685274095
0.09437618141978184
0.06610877082396262
0.055477644207408035
0.07297646006405104
0.10853593637949958
0.15835969745155554
0.2270281926940952
0.3174304246537793
0.4158636000585973
0.48361827334980534
0.48537202682617475
0.43018201531367084
0.3578017412311883
0.29862160640266544
0.25953061909872843
0.23584760076972858
0.21842916811063315
0.20149253245463625
0.17959931101244933
0.15204962262278002
0.1217348825484788
0.09415754228630169
0.0794290774163127
0.08725302450276272
0.11299899130098025
0.1462288384375271
0.18222341411156676
0.21816870914805003
0.2520174680127229
0.2799328130158064
0.2944785607332272
0.28927330476013957
0.26586928884906136
0.23425546104406653
0.20675354586537942
0.19187879679781986
0.19217757746312078
0.20272537822403547
0.2125959936710702
0.20857535702974153
0.18265437678985694
0.13877424761118592
0.08810880929033331
0.04454995558064013
0.03404676662116357
0.052782357220871316
0.06716035563941755
0.07202041250340507
0.06998737189994475
0.06476452751120881
0.05993366928823828
0.05812238201463718
0.06160928265482694
0.07259600598361386
0.09339975287889062
0.12644724439531246
0.17111201171152868
0.2193441534951885
0.252646484576477
0.25226209705370944
0.21883033107002314
0.17017438406292518
0.12359518755890578
0.0884795161473658
0.06901381674316452
0.06494834373778041
0.06960574175468529
0.07530958521156735
0.07883224734313601
0.08302483887813643
0.08967514585761645
0.09734524840825819
0.09926309309789133
0.09133303549868216
0.07490208821367368
0.055633290781975986
0.04166563674210917
0.04380734282408434
0.06144663126105919
0.08727690152168457
0.1182683394150827
0.1519851579307946
0.1825038867967019
0.20196232700650438
0.20535282866036392
0.19264629115376758
0.16924144113033054
0.14350509496376132
0.12027173814057673
0.10108307211249684
0.08608700586304102
0.07298927880242659
0.06042453658261498
0.050373438908298165
0.04556004734734158
0.04646782274045675
0.05030492866590145
0.053745376069539684
0.05525896568854339
0.05809507103590203
0.0
SCALARS Torsion float 1
LOOKUP_TABLE default
0.0
0.0
-0.21674128939147244
-0.23649791360931482
-0.23456609116887886
-0.21175108595694647
-0.17609867750865307
-0.13353624735040434
-0.08467937252480735
-0.02563366703450308
0.05409648595292718
0.16424719372809526
0.2768490834746723
0.3116263785501269
0.2520761530817789
0.16523182170455594
0.09768386130062015
0.06025688499858414
0.06640442636718762
0.16609188386536797
0.45104581763693363
0.6616227959615892
0.4229914571247647
0.17305444478548915
0.05786068103780914
0.009810736119699952
-0.01054501568316062
-0.019648927656117313
-0.023597956617056853
-0.02507078621688007
-0.025494936904946384
-0.025270052082082953
-0.02601347617544015
-0.030817740091529818
-0.040236433689224395
-0.055907589334578865
-0.08175442847057339
-0.12356131085340169
-0.1927199989871512
-0.30951260356946425
-0.4971197203558181
-0.6537404025590757
-0.5928694976891593
-0.41695650957374114
-0.29982634040317363
-0.2466465673266045
-0.22616019472496948
-0.21662296675834325
-0.19909747597022223
-0.1620717604716556
-0.10322703843395176
-0.02607587222392818
0.06044011790068377
0.1352855907858995
0.16564212899915057
0.1376292143684825
0.07368723315106561
0.013867631152837137
-0.01853665262046538
-0.019047129673466123
0.02484595436144828
0.19151139648174784
0.7484903678949247
0.9037371758948539
0.38793006190342705
0.09329273469236093
-0.029038195873976227
-0.08721016016706984
-0.1080280213382756
-0.09068492552441151
-0.051658473609311174
-0.014223761664071487
0.00015783362398077462
-0.007773343571317428
-0.018627839053355775
-0.023545443926512494
-0.022259273664648214
-0.013824085466085993
0.0014296600348800408
0.028165842068392836
0.0745293411772348
0.1615989257864392
0.30517386960962356
0.4325591129794382
0.3880574698587919
0.19344704905336443
-0.02703697918165479
-0.22027845297626247
-0.3705685834619832
-0.40116168364069676
-0.3575208915536736
-0.30476773836589244
-0.28744493114717967
-0.3417618689085519
-0.5015197244985242
-0.7053912237714057
-0.6605242691705342
-0.4115810460080534
-0.2593341391632641
-0.18058264520458328
-0.12649407800049145
-0.08883311121489583
-0.05286890121580436
-0.013859306571612613
0.028241443049000184
0.07934033596074865
0.13764036197275395
0.18664655493058882
0.2099439399432738
0.177493329416709
0.10342477851519008
-0.03423837637925428
-0.22013171608531076
-0.35664289623265444
-0.3062545688805006
-0.16011971230723937
-0.0166611117650044
0.1211898594746938
0.18422660693873866
0.0
SCALARS Distance_to_V float 1
LOOKUP_TABLE default
0.0
0.8480003866170202
1.581024390527458
2.2163123597472407
2.774149126068463
3.2779897390459025
3.7535037008847194
4.22617455513735
4.717648411069603
5.241994960163231
5.803474020268566
6.396704587399932
7.009022556291368
7.624071158384394
8.225634310164908
8.80096307869796
9.343146968486739
9.852302160862402
10.335519411561737
10.805572515605494
11.27835180922511
11.769187557419903
12.288424496725264
12.837437753465533
13.406349690336878
13.974077871326898
14.510991609391594
14.98339269517679
15.35880731733861
15.611176935242725
15.724761958224951
15.695938225448874
15.532686542999373
15.251860290519522
14.875404805274938
14.426278765295654
13.925385573268597
13.388940516633253
12.827956982916652
12.248874473399813
11.655321809603373
11.050645244223588
10.440286714350371
9.83372693698792
9.24504190655698
8.692624472246875
8.198123413852738
7.784059084528924
7.471200786439897
7.27575951952549
7.2064806232464464
7.2624857613800025
7.432820979578338
7.698092802727199
8.033832880108731
8.414760858287625
8.819258549792485
9.232266490989618
9.646424518615841
10.061284675998065
10.480621132353905
10.90916786425759
11.349685537259552
11.801245699223054
12.259450297590616
12.717801309419896
13.169510194230973
13.608852730614093
14.031932559366458
14.436197682555944
14.819158485290918
15.176918595607187
15.502608656647393
15.785517769446015
16.011243562195606
16.16277215049116
16.222956450111194
16.177303175988417
16.016863529059055
15.74067013526781
15.35641119078017
14.879512398786432
14.330772120323042
13.732907675007633
13.106979961071579
12.469564099620442
11.830990975746351
11.195003468555514
10.559926352288382
9.920047583952353
9.268190214519386
8.597388435874043
7.90251212601566
7.1812616957518305
6.434960514928236
5.668740629818576
4.8913018802295865
4.115298541867798
3.3571335120085393
2.6372024229009026
1.9812902194272455
1.4258313165375005
1.0291153663885544
0.8669098741890114
0.9289915532923215
1.0870358736313264
1.2449811104083457
1.3663709073632424
1.4419638663664032
1.472845033103367
1.4631641922732948
1.4179879847292147
1.3419287393282944
1.2379213645507594
1.1068291107149142
0.9480007393964802
0.7596578183315951
0.539749386304489
0.2869801381808278
0.0
SCALARS Local_Extrema int 1
LOOKUP_TABLE default
0
0
0
0
0
0
0
0
0
0
0
0
0
0
0
0
0
0
0
0
0
0
0
0
0
0
0
0
0
0
1
0
0
0
0
0
0
0
0
0
0
0
0
0
0
0
0
0
0
0
-1
0
0
0
0
0
0
0
0
0
0
0
0
0
0
0
0
0
0
0
0
0
0
0
0
0
1
0
0
0
0
0
0
0
0
0
0
0
0
0
0
0
0
0
0
0
0
0
0
0
0
0
0
-1
0
0
0
0
0
1
0
0
0
0
0
0
0
0
0
0
