# vtk DataFile Version 3.0
Curve with Curvature, Torsion, Distance to V, and Extrema
ASCII
DATASET POLYDATA
POINTS 120 float
0.0 0.0 0.0
-0.5846261978149414 -0.8197212219238281 -0.12194299697875977
-1.0931496620178223 -1.5669212341308594 -0.04176807403564453
-1.5334391593933105 -2.247499465942383 0.18978309631347656
-1.9133944511413574 -2.8675575256347656 0.5217986106872559
-2.241076946258545 -3.4336700439453125 0.9031810760498047
-2.5246787071228027 -3.95330810546875 1.2832708358764648
-2.7722883224487305 -4.435129165649414 1.6138596534729004
-2.991344451904297 -4.888967514038086 1.8527765274047852
-3.1877903938293457 -5.325708389282227 1.9683051109313965
-3.3652095794677734 -5.756990432739258 1.9432177543640137
-3.5241236686706543 -6.194818496704102 1.7769217491149902
-3.66178560256958 -6.650754928588867 1.4839177131652832
-3.772270679473877 -7.1346235275268555 1.089968204498291
-3.847102642059326 -7.6528730392456055 0.6266021728515625
-3.8767848014831543 -8.207477569580078 0.1250162124633789
-3.8527255058288574 -8.79563045501709 -0.38883304595947266
-3.7690491676330566 -9.410263061523438 -0.8970174789428711
-3.623656749725342 -10.04120922088623 -1.3904170989990234
-3.4181485176086426 -10.67673397064209 -1.867997169494629
-3.156815528869629 -11.305185317993164 -2.3350400924682617
-2.8451194763183594 -11.916521072387695 -2.800527572631836
-2.488223075866699 -12.503772735595703 -3.274229049682617
-2.090087413787842 -13.06384563446045 -3.763821601867676
-1.6531281471252441 -13.598193168640137 -4.272417068481445
-1.1788554191589355 -14.112483024597168 -4.7968034744262695
-0.6692557334899902 -14.615375518798828 -5.326681137084961
-0.12871646881103516 -15.117246627807617 -5.844883918762207
0.43394994735717773 -15.628135204315186 -6.328570365905762
1.0040955543518066 -16.155325889587402 -6.751247406005859
1.5609467029571533 -16.701873779296875 -7.085354804992676
2.0787301063537598 -17.264472007751465 -7.305270195007324
2.5289883613586426 -17.83354425430298 -7.390456199645996
2.883879065513611 -18.393113613128662 -7.328617095947266
3.1194390058517456 -18.92237639427185 -7.117998123168945
3.2183995246887207 -19.398332834243774 -6.76859188079834
3.172158718109131 -19.798471212387085 -6.301765441894531
2.981754779815674 -20.10323143005371 -5.747825622558594
2.658208966255188 -20.297685861587524 -5.141983985900879
2.2223024368286133 -20.371978282928467 -4.519726753234863
1.7033302783966064 -20.320959091186523 -3.912411689758301
1.136913776397705 -20.143255710601807 -3.344038963317871
0.5617742538452148 -19.839917421340942 -2.8297548294067383
0.015830516815185547 -19.41443920135498 -2.375997543334961
-0.4677443504333496 -18.872785568237305 -1.9818134307861328
-0.8637499809265137 -18.224881172180176 -1.6404104232788086
-1.1569938659667969 -17.4864559173584 -1.3404827117919922
-1.3428001403808594 -16.680257320404053 -1.0673151016235352
-1.426222324371338 -15.8371262550354 -0.8038578033447266
-1.4203624725341797 -14.996050834655762 -0.5320954322814941
-1.3438935279846191 -14.201929092407227 -0.23490285873413086
-1.218109130859375 -13.50279426574707 0.10163354873657227
-1.0636916160583496 -12.944809913635254 0.48576831817626953
-0.8977804183959961 -12.567049980163574 0.9180393218994141
-0.731806755065918 -12.3961820602417 1.3904438018798828
-0.5706768035888672 -12.44300365447998 1.887120246887207
-0.4133486747741699 -12.700565338134766 2.386409282684326
-0.25471925735473633 -13.145162582397461 2.8636887073516846
-0.08843803405761719 -13.740459442138672 3.2940869331359863
0.09013605117797852 -14.442919731140137 3.65450119972229
0.28151416778564453 -15.208106994628906 3.92492938041687
0.4807412624359131 -15.997055530548096 4.089597225189209
0.677509069442749 -16.780075550079346 4.138481378555298
0.8575518131256104 -17.539417266845703 4.0694420337677
1.0048973560333252 -18.269413948059082 3.890343427658081
1.104473352432251 -18.974266052246094 3.6200613975524902
1.1445884704589844 -19.664790868759155 3.287693738937378
1.1189465522766113 -20.354593515396118 2.929913282394409
1.0279788970947266 -21.05607533454895 2.586778163909912
0.8794214725494385 -21.7773255109787 2.2968029975891113
0.6881771087646484 -22.520303964614868 2.0925168991088867
0.4754202365875244 -23.279897809028625 1.9972100257873535
0.26687192916870117 -24.044753670692444 2.0234389305114746
0.09027290344238281 -24.798821926116943 2.173358917236328
-0.02763843536376953 -25.523665189743042 2.440330982208252
-0.0642390251159668 -26.201194524765015 2.8111391067504883
-0.00363922119140625 -26.816369771957397 3.2683677673339844
0.16179513931274414 -27.35893440246582 3.7925827503204346
0.4312553405761719 -27.824309825897217 4.364233732223511
0.796459436416626 -28.21364974975586 4.965372323989868
1.243565559387207 -28.532200813293457 5.581039309501648
1.7556276321411133 -28.78798198699951 6.200053185224533
2.3150603771209717 -28.989763259887695 6.8150491416454315
2.9057167768478394 -29.145920753479004 7.42192816734314
3.5142568945884705 -29.26354455947876 8.018728137016296
4.1308466494083405 -29.347973823547363 8.604504823684692
4.749417752027512 -29.402302265167236 9.17820692062378
5.367596507072449 -29.427252292633057 9.737813234329224
5.986269474029541 -29.421998023986816 10.280084371566772
6.608816623687744 -29.385284900665283 10.800981044769287
7.240084648132324 -29.31641960144043 11.29671049118042
7.885103225708008 -29.21714448928833 11.764882564544678
8.54788875579834 -29.093384742736816 12.20617961883545
9.230362892150879 -28.954973697662354 12.624603748321533
9.931596279144287 -28.81570053100586 13.027412414550781
10.647592544555664 -28.691624641418457 13.42439603805542
11.371434211730957 -28.59891986846924 13.826172351837158
12.093465328216553 -28.55232572555542 14.2427659034729
12.802058696746826 -28.56386947631836 14.682494163513184
13.484790325164795 -28.64219570159912 15.150596618652344
14.128787517547607 -28.79251480102539 15.64915943145752
14.72207498550415 -29.016636848449707 16.177485466003418
15.254318714141846 -29.31321620941162 16.73186683654785
15.717183589935303 -29.678523063659668 17.306467056274414
16.10543394088745 -30.106982707977295 17.89384174346924
16.41666841506958 -30.59179449081421 18.485434532165527
16.65089750289917 -31.125717163085938 19.07199192047119
16.80998468399048 -31.701379776000977 19.644503593444824
16.896667003631592 -32.311598777770996 20.19520378112793
16.91425657272339 -32.95008087158203 20.717665672302246
16.866556644439697 -33.61118221282959 21.20744800567627
16.758805751800537 -34.290282249450684 21.662304878234863
16.598092555999756 -34.98401355743408 22.08173179626465
16.393742084503174 -35.68994998931885 22.466651916503906
16.156330585479736 -36.406405448913574 22.818432807922363
15.896837711334229 -37.13209247589111 23.13786792755127
15.625340938568115 -37.86561965942383 23.424609184265137
15.34962797164917 -38.60525703430176 23.676356315612793
15.074775218963623 -39.34903526306152 23.88809108734131
14.803761005401611 -40.09488296508789 24.05283260345459
LINES 1 121
120 0 1 2 3 4 5 6 7 8 9 10 11 12 13 14 15 16 17 18 19 20 21 22 23 24 25 26 27 28 29 30 31 32 33 34 35 36 37 38 39 40 41 42 43 44 45 46 47 48 49 50 51 52 53 54 55 56 57 58 59 60 61 62 63 64 65 66 67 68 69 70 71 72 73 74 75 76 77 78 79 80 81 82 83 84 85 86 87 88 89 90 91 92 93 94 95 96 97 98 99 100 101 102 103 104 105 106 107 108 109 110 111 112 113 114 115 116 117 118 119
POINT_DATA 120
SCALARS Curvature float 1
LOOKUP_TABLE default
0.0
0.25145387184901163
0.23793619093840873
0.19684939522154093
0.14106593466395378
0.07320009620981913
0.05423901670505989
0.21546199569524194
0.4410712007155557
0.5721381679619353
0.5003672453712238
0.32433580198655665
0.18120139460656098
0.105743072266064
0.08437339591148636
0.08859117312011067
0.09509439380963201
0.09606084856853239
0.09114203244945486
0.0833118858323437
0.07683871692132568
0.0736360719248026
0.07121119562870788
0.06520773510949733
0.05424979618250987
0.04211230115465268
0.03826033201835493
0.05167926123388548
0.07900959854455152
0.11906030197063336
0.17645644752451936
0.2590157623304131
0.36523363940490833
0.46626700731400705
0.5091128857928539
0.4724021351883276
0.3913304526224084
0.3120724886851817
0.2545154630562134
0.21863434350908706
0.19981968487397767
0.1950724996065666
0.20021494102466386
0.20823549378117906
0.20781332273679315
0.191987749252703
0.16442519372468797
0.134980442539828
0.11428601778771359
0.1150881551048836
0.15590631900189758
0.25997922834003273
0.44485130004713647
0.6320051185739693
0.6544868052887066
0.5034634985363895
0.3288618093539149
0.22021159916346741
0.16810472120421247
0.15115154276784054
0.15630699872932877
0.17427626940159507
0.1935603598638391
0.1987853561665852
0.18069452101711717
0.1457849267094177
0.11405962345926747
0.10791643015369547
0.1274831491955426
0.15391443752161024
0.17555007306652853
0.19068089567646493
0.2029386062675341
0.21616747060711813
0.2300380685163198
0.23879252904183718
0.23530633065285447
0.21689386994390852
0.18721451716635518
0.15396538090432918
0.12241327524172266
0.09574109288005556
0.07454515788645007
0.05890434355354591
0.04861349326220869
0.043782897286001154
0.04423809669274644
0.04885278038346699
0.05609954096271498
0.06360086466945178
0.06696410094837038
0.06198253327453399
0.049586213094316045
0.033982683430360074
0.030009313933324233
0.04636781548059368
0.06926312386137881
0.09171812286925944
0.11094858341723247
0.126499639419886
0.1375610476845034
0.14367189884020345
0.14584269466229585
0.14377313294278316
0.13879958654118818
0.13262714447030344
0.12636888437299706
0.1210045789649762
0.11661860233031315
0.11200172881851017
0.10507429837979769
0.09519482926137408
0.08222973653476989
0.06877956712373125
0.05763593450441425
0.051391444443934405
0.051774952218335585
0.05879130362962152
0.0704327329226031
0.0
SCALARS Torsion float 1
LOOKUP_TABLE default
0.0
0.0
-0.01999279668793613
-0.042180711116705266
-0.11918619982426588
-0.623103786791067
-0.9854438428899215
-0.2816379523803556
-0.08707095918626312
-0.010601193271881817
0.0607864821503853
0.17007733692818902
0.3751680558077106
0.6289035013479449
0.6095647273626548
0.34042423048463544
0.12346300670729937
-0.01273067906911532
-0.12316895666903938
-0.23005570997783997
-0.30316672871624034
-0.293270763818996
-0.2099610625339473
-0.08189277467063988
0.1002566914597366
0.38816086584504256
0.5887238802517589
0.4190373848853311
0.23177170189520785
0.1446957152533689
0.0993097932089586
0.07682082644864982
0.05994167152764554
0.04919890813643593
0.04444543857085214
0.04290920521365009
0.039660850212047974
0.026618219261027393
-0.003194287261048895
-0.04961379377176445
-0.10707201237427666
-0.1599685469886072
-0.18659679021255118
-0.18443523372013737
-0.16959074348080394
-0.16283243794382266
-0.18081098100488496
-0.24398056097907467
-0.3638189097755089
-0.45748211042895826
-0.400397394256957
-0.2636571822797747
-0.14749318833392977
-0.06108085158895646
0.008111575890842881
0.06866596338088796
0.1229594966691377
0.16270445987812315
0.16952045310915256
0.12844529545410457
0.051050999802561364
-0.02891941254294205
-0.0993056035357201
-0.1686705771693107
-0.2629576845870137
-0.4208166800485461
-0.6169493063869986
-0.6383837167504715
-0.4636442660162059
-0.31424823668116514
-0.24207331835543494
-0.21673756746290845
-0.2082653918444476
-0.1971466372665021
-0.17551360059033072
-0.14711864772356292
-0.11878117344079567
-0.09535723244945869
-0.07701686606545557
-0.05620176294042331
-0.033266708277866694
0.0004578922387895243
0.04274775699936177
0.08600413210914759
0.10865940655041784
0.07761761247204163
-0.007016164190596169
-0.08887469954617765
-0.12856219347965395
-0.13123230235799546
-0.14083093341253092
-0.1866587102016083
-0.3052576653716662
-0.6397863157136059
-0.7842258931421402
-0.43343334634444003
-0.2151420039286541
-0.1291691254563795
-0.08225776384756268
-0.05916007014739745
-0.044205483964110934
-0.028940872017412144
-0.01749709377864757
-0.0025879843779588515
0.012220424701754554
0.02961065171715179
0.040271725788321625
0.03859501740111879
0.03950699576295921
0.03075097135543458
0.031707164045589056
0.04853513189983046
0.08422502595107904
0.14334920983587132
0.227071662614056
0.27489691232786856
0.22441457364009731
0.11780089098888293
0.03998153257147892
0.0
SCALARS Distance_to_V float 1
LOOKUP_TABLE default
0.0
0.9167075728116652
1.6691377818676392
2.2988717424290597
2.8398970112338264
3.3173331866529816
3.747541108779783
4.140067800436803
4.50132045955238
4.838965758552925
5.165177107140032
5.496770687953551
5.85174442371404
6.2435276544877825
6.676212763925914
7.143992213253409
7.634544759650875
8.134063140040695
8.631482769463837
9.120750509424708
9.601258737936218
10.076850710098748
10.554238879832305
11.041033048417544
11.543917514929381
12.066852643685516
12.609445930441279
13.165965234857085
13.724589971730829
14.267147961693471
14.77011904902602
15.20616870684378
15.547688296793986
15.770728912517946
15.859318589925053
15.809135121646067
15.629240873567612
15.341111616412508
14.974939157230233
14.563808064533488
14.136969038699783
13.713837750760602
13.300344609689203
12.889507721097578
12.465193222769557
12.008253269086003
11.502678021516813
10.939965353175445
10.321663549236652
9.659995441397271
8.976348756115485
8.299200812701336
7.660683554289509
7.092930859232154
6.623705377290394
6.272296342131003
6.045989737959328
5.939295654851292
5.937358564054155
6.021993919882445
6.1781646941571005
6.39857733429581
6.684082219627935
7.041017528872675
7.476075274710056
7.990749877809576
8.577847556047246
9.220896364907768
9.895981582103445
10.575007209272275
11.22888630556592
11.829657366111368
12.351937368527595
12.773593451733298
13.076465033429754
13.247548401122838
13.280434790391848
13.176197115819251
12.943429116246785
12.597227794724486
12.156698851403851
11.64247126688927
11.074067653395357
10.468249659995916
9.838266468138308
9.193808665733789
8.541335078621987
7.884800125776199
7.2269230522455725
6.570601197110268
5.920270999743954
5.2842438384217925
4.677031183345877
4.121782525706098
3.652305624826699
3.3104305164913645
3.1342289775479215
3.136482054246965
3.291294124884548
3.5468026568626816
3.8476582293531334
4.148762177858465
4.418097453578589
4.634295564511788
4.784787317998249
4.8633479944808435
4.868104936030211
4.799981754515998
4.661200163377947
4.454611747137357
4.183623501362054
3.85299052427695
3.4691023958075706
3.04038680613833
2.57631737106873
2.0865254914018485
1.579576731009307
1.0615184968518598
0.5350762675627643
0.0
SCALARS Local_Extrema int 1
LOOKUP_TABLE default
0
0
0
0
0
0
0
0
0
0
0
0
0
0
0
0
0
0
0
0
0
0
0
0
0
0
0
0
0
0
0
0
0
0
1
0
0
0
0
0
0
0
0
0
0
0
0
0
0
0
0
0
0
0
0
0
0
0
-1
0
0
0
0
0
0
0
0
0
0
0
0
0
0
0
0
0
1
0
0
0
0
0
0
0
0
0
0
0
0
0
0
0
0
0
0
0
-1
0
0
0
0
0
0
0
0
0
1
0
0
0
0
0
0
0
0
0
0
0
0
0
