# vtk DataFile Version 3.0
Curve with Curvature, Torsion, Distance to V, and Extrema
ASCII
DATASET POLYDATA
POINTS 120 float
0.0 0.0 0.0
-0.008228729479014874 -0.566523015499115 0.36108899116516113
-0.14126817882061005 -1.1671584844589233 0.6667840480804443
-0.37047940492630005 -1.7945499420166016 0.9106366634368896
-0.6673048138618469 -2.4411892890930176 1.086437463760376
-1.0034410953521729 -3.0989959239959717 1.1888264417648315
-1.3512530326843262 -3.758896589279175 1.2140215635299683
-1.684397578239441 -4.410546779632568 1.160525918006897
-1.9789249897003174 -5.042478561401367 1.0294886827468872
-2.2147769927978516 -5.642977237701416 0.8246086835861206
-2.377556324005127 -6.2016987800598145 0.5516404509544373
-2.4595370292663574 -6.711559772491455 0.21773360669612885
-2.458876371383667 -7.169608116149902 -0.16923314332962036
-2.379561424255371 -7.578401565551758 -0.6008700728416443
-2.2307944297790527 -7.946343898773193 -1.0684078931808472
-2.025280714035034 -8.286484718322754 -1.5631173849105835
-1.7774403095245361 -8.61474609375 -2.0767486095428467
-1.5012900829315186 -8.947402954101562 -2.602064609527588
-1.2084946632385254 -9.298786163330078 -3.132891893386841
-0.9074130654335022 -9.679715156555176 -3.6635169982910156
-0.6032109260559082 -10.097214698791504 -4.1876020431518555
-0.29850801825523376 -10.55433177947998 -4.696993350982666
0.005975544918328524 -11.049707412719727 -5.18018913269043
0.3103972375392914 -11.577255249023438 -5.621255874633789
0.6146233081817627 -12.126317024230957 -5.999993324279785
0.9174623489379883 -12.682342529296875 -6.293797492980957
1.2162163257598877 -13.227764129638672 -6.480498790740967
1.5064897537231445 -13.743304252624512 -6.541579246520996
1.7817713022232056 -14.210039138793945 -6.466744422912598
2.0327060222625732 -14.61330795288086 -6.259518623352051
2.2470030784606934 -14.946954727172852 -5.938601493835449
2.410236358642578 -15.214162826538086 -5.533407688140869
2.5070552825927734 -15.423685073852539 -5.077146053314209
2.522357225418091 -15.586739540100098 -4.602260112762451
2.4431750774383545 -15.714072227478027 -4.137033939361572
2.2627553939819336 -15.812249183654785 -3.70115327835083
1.9829331636428833 -15.88201904296875 -3.3049092292785645
1.616869330406189 -15.917698860168457 -2.9486615657806396
1.1927670240402222 -15.907153129577637 -2.620588779449463
0.7486448884010315 -15.837494850158691 -2.3006432056427
0.3224242329597473 -15.701613426208496 -1.9674075841903687
-0.05420868098735809 -15.500212669372559 -1.6023499965667725
-0.3605087101459503 -15.242480278015137 -1.192847490310669
-0.5894071459770203 -14.94552230834961 -0.734093427658081
-0.7442959547042847 -14.630918502807617 -0.22753986716270447
-0.8339444398880005 -14.32131290435791 0.321665495634079
-0.8697166442871094 -14.038326263427734 0.9056968092918396
-0.8629875779151917 -13.799983024597168 1.5142992734909058
-0.8229488730430603 -13.619465827941895 2.135500431060791
-0.7555142641067505 -13.505569458007812 2.7564985752105713
-0.6631083488464355 -13.463356971740723 3.3642685413360596
-0.5456228852272034 -13.495466232299805 3.9462389945983887
-0.40214085578918457 -13.603317260742188 4.491186618804932
-0.23277124762535095 -13.788251876831055 4.9900007247924805
-0.03973458707332611 -14.05171012878418 5.43665075302124
0.17291893064975739 -14.394763946533203 5.828132629394531
0.40014559030532837 -14.816957473754883 6.1642165184021
0.6368430256843567 -15.31394100189209 6.448453426361084
0.8789963722229004 -15.875726699829102 6.688174247741699
1.1244395971298218 -16.488107681274414 6.892461776733398
1.372458815574646 -17.135595321655273 7.070039749145508
1.6227411031723022 -17.804079055786133 7.228117942810059
1.8744374513626099 -18.482322692871094 7.372066497802734
2.1254568099975586 -19.162710189819336 7.505533695220947
2.372018337249756 -19.841474533081055 7.630794048309326
2.608659029006958 -20.518238067626953 7.749370098114014
2.828890323638916 -21.194902420043945 7.862846851348877
3.026736259460449 -21.87381362915039 7.973693370819092
3.19873309135437 -22.555883407592773 8.085765838623047
3.345738410949707 -23.23927116394043 8.20438289642334
3.47406005859375 -23.918874740600586 8.335831642150879
3.5954999923706055 -24.586776733398438 8.486570358276367
3.7261228561401367 -25.23346519470215 8.662127494812012
3.8833799362182617 -25.849756240844727 8.86606216430664
4.082854747772217 -26.428361892700195 9.099696159362793
4.336740970611572 -26.96415901184082 9.362634658813477
4.652961730957031 -27.454017639160156 9.653386116027832
5.0332818031311035 -27.896879196166992 9.969449043273926
5.471899509429932 -28.293214797973633 10.307573318481445
5.957230091094971 -28.643421173095703 10.664193153381348
6.475819110870361 -28.94649887084961 11.035859107971191
7.015420436859131 -29.199954986572266 11.419425010681152
7.566679000854492 -29.40080451965332 11.812150955200195
8.123649597167969 -29.54715919494629 12.211763381958008
8.683277130126953 -29.6396541595459 12.616497039794922
9.244232177734375 -29.681955337524414 13.025171279907227
9.80583381652832 -29.680240631103516 13.43716812133789
10.367264747619629 -29.641952514648438 13.85241413116455
10.927112579345703 -29.574094772338867 14.271235466003418
11.48338508605957 -29.481861114501953 14.69399356842041
12.033891677856445 -29.368227005004883 15.12082290649414
12.576769828796387 -29.234519958496094 15.551393508911133
13.110980987548828 -29.08145523071289 15.984891891479492
13.636655807495117 -28.9102840423584 16.420103073120117
14.15530776977539 -28.723615646362305 16.85564613342285
14.669671058654785 -28.525657653808594 17.290241241455078
15.183269500732422 -28.321943283081055 17.72309112548828
15.699827194213867 -28.118724822998047 18.15410804748535
16.22257423400879 -27.922338485717773 18.584060668945312
16.753610610961914 -27.738895416259766 19.014549255371094
17.293291091918945 -27.574148178100586 19.44770050048828
17.839900970458984 -27.433944702148438 19.885578155517578
18.389751434326172 -27.324790954589844 20.32984733581543
18.937255859375 -27.25437355041504 20.781570434570312
19.474836349487305 -27.23182487487793 21.241127014160156
19.993064880371094 -27.267431259155273 21.708026885986328
20.481168746948242 -27.371471405029297 22.180681228637695
20.927976608276367 -27.55278968811035 22.656295776367188
21.322856903076172 -27.817564010620117 23.130672454833984
21.656599044799805 -28.16856575012207 23.59814453125
21.92259979248047 -28.604347229003906 24.051197052001953
22.11821746826172 -29.118640899658203 24.480316162109375
22.24547576904297 -29.70108985900879 24.874637603759766
22.31070327758789 -30.338733673095703 25.22304916381836
22.323530197143555 -31.01740074157715 25.515287399291992
22.29606819152832 -31.722469329833984 25.74253273010254
22.241857528686523 -32.43932342529297 25.897485733032227
22.175344467163086 -33.15351104736328 25.974170684814453
22.111379623413086 -33.85067367553711 25.967370986938477
22.064918518066406 -34.51654815673828 25.872207641601562
LINES 1 121
120 0 1 2 3 4 5 6 7 8 9 10 11 12 13 14 15 16 17 18 19 20 21 22 23 24 25 26 27 28 29 30 31 32 33 34 35 36 37 38 39 40 41 42 43 44 45 46 47 48 49 50 51 52 53 54 55 56 57 58 59 60 61 62 63 64 65 66 67 68 69 70 71 72 73 74 75 76 77 78 79 80 81 82 83 84 85 86 87 88 89 90 91 92 93 94 95 96 97 98 99 100 101 102 103 104 105 106 107 108 109 110 111 112 113 114 115 116 117 118 119
POINT_DATA 120
SCALARS Curvature float 1
LOOKUP_TABLE default
0.0
0.28369336547398166
0.21904497237384005
0.17275876805320378
0.1466908616775051
0.13903686867650325
0.14756274369312594
0.17064289156728302
0.20642282350435517
0.24906419745481662
0.28511957622366496
0.2990528665004456
0.27774345189303234
0.2247102183808823
0.15813064280104383
0.09427776199336392
0.04547731929199935
0.03134415920453997
0.04659570560970029
0.06083276813912029
0.07067306674180102
0.0796616872056018
0.09338328569930078
0.1183804443483157
0.1616809423418008
0.2313910798010572
0.3319871765209258
0.44168792829136433
0.503025383832037
0.48517205877466385
0.42125910800665056
0.369120993447107
0.3619269890104972
0.40071765299892664
0.4385578474657369
0.4242727381409821
0.3505178734875759
0.2506329504891597
0.1946962992202355
0.21847802114170586
0.27010393139713385
0.29181635301991965
0.2663254222866872
0.21977255982207514
0.1803369023668986
0.15822350752189782
0.1532179607819396
0.16020519857764792
0.1753669166917258
0.19684259055330044
0.2250653351564001
0.2584029567695506
0.2902863475502733
0.307017971842014
0.29820794742765744
0.2639185668982709
0.21138084001925508
0.15440639381699275
0.10572844362985494
0.06959489835142993
0.04494672660200138
0.0291693781673852
0.019709987620265847
0.015623296226121111
0.019755045275299705
0.03106342836970328
0.0433160940709949
0.05099261595678765
0.05110736251382647
0.0453704858316626
0.04565944404873395
0.06799142306244328
0.10631420423073554
0.14609278087271854
0.17676008163747797
0.19051943426473641
0.18303331284878843
0.1598375412792731
0.13425323313460627
0.11645770958164339
0.10898246921227656
0.10920111937044207
0.11177327419191574
0.11102154122038127
0.10379703719462077
0.09058957196771696
0.07453187837957857
0.05990105154902399
0.04989003698744838
0.045116572851381556
0.043740435589626356
0.04306111052564234
0.04052017002085529
0.034422439069802566
0.024560338966739866
0.012307413869211055
0.0068776102859281225
0.01822564233210522
0.030022385919392235
0.040310750810342154
0.050363332231034334
0.06211263425124519
0.07749447633718981
0.09824578707693507
0.12517855621499135
0.15671212534047452
0.1885838764482853
0.21451725965369997
0.22864803485368793
0.22764884500354782
0.21345826697212797
0.19273954355552222
0.17220781772351038
0.15593064083192892
0.14566839430731027
0.14315500636453393
0.1500259873964644
0.16902303786938433
0.2024346796668044
0.0
SCALARS Torsion float 1
LOOKUP_TABLE default
0.0
0.0
0.21070565534893732
0.27816142731372195
0.32952471803925665
0.3375050884882413
0.30132384239303595
0.24258191781771843
0.1820176078723257
0.12780690089279984
0.08696768583634411
0.06455502751450322
0.05875024864905937
0.07469341493012038
0.13153652262365403
0.31021468833326976
0.8019602594046591
0.9368095555444297
0.4532464357835564
0.1288450854974651
-0.013176198307892129
-0.10321345588329059
-0.15026311537340686
-0.1491454360776631
-0.1211932756731246
-0.0900140579909768
-0.06377417198257244
-0.037502619697170794
0.006735799692395086
0.09436948104243019
0.2437666687723723
0.405346879438057
0.48567635243530294
0.42005154441497267
0.24408877785326843
0.06163904869219006
-0.161428810347197
-0.5813308158264571
-0.8472291831866815
-0.7179739009523319
-0.4659082917906835
-0.3258166198867747
-0.2945009016303634
-0.33519711645330075
-0.3988340629183352
-0.4305230609438285
-0.37438316136796734
-0.26113614807041774
-0.1432624662690444
-0.04006781320270886
0.024996182769447713
0.04182330330638947
0.015670416969770548
-0.029179131439959302
-0.06448385319580174
-0.0818140084528788
-0.08466000633281871
-0.06894799322550449
-0.02517687254724653
0.04815712975743362
0.13454827903148442
0.17945601952217172
0.0031318208277155424
-0.49912303910777683
-0.5153601266431148
-0.2771747432213935
-0.1807666004175315
-0.1904187965558795
-0.29976481099954894
-0.5518964665168965
-0.7317799257001498
-0.5420339719231514
-0.3143668760563588
-0.19275702869360617
-0.12948005866235582
-0.08825374745323221
-0.0512642643824487
-0.0016009204963839951
0.05956494238546708
0.10695769977305236
0.11344232914562118
0.0825717216815524
0.04121444296237862
0.010923615558411408
0.00024247891824623856
0.007377169771188904
0.03816007814621978
0.09515686639255286
0.14322061941931244
0.13669402622901305
0.07715790258020883
0.011268054732827298
-0.04287989312606056
-0.10206449891740664
-0.22685066006931798
-0.698118931278058
-0.9873508373494186
-0.35805832402759097
-0.18815717299948395
-0.16330363384417437
-0.15260625326596572
-0.13237875629320295
-0.10480394470312257
-0.07988089627182443
-0.05777863899817938
-0.04126275831366579
-0.028937054082272554
-0.018162477931959815
-0.007159909148172737
0.01055532815155412
0.03850866630628694
0.07638676297892666
0.1189558750287328
0.15911600112487714
0.19670545339002093
0.22252965110831757
0.23446129166214746
0.2250897674882212
0.19753951050825905
0.0
SCALARS Distance_to_V float 1
LOOKUP_TABLE default
0.0
0.31650080821016685
0.7518609435600223
1.2805773924259733
1.8771278873310175
2.516609794335286
3.1751050931566045
3.830038722537667
4.460991998276532
5.051171135059129
5.589507642383049
6.072315612659421
6.502957157111389
6.892144029860946
7.256806994226688
7.617093765405675
7.99307255877239
8.401383195627368
8.852880259697278
9.351742489190626
9.895937449461327
10.477688216521718
11.0831470355116
11.692131014482552
12.278769766559517
12.81350154503207
13.265849844145253
13.607747884951362
13.818412076499301
13.89120894718023
13.837435923681177
13.68343138132629
13.462922625761028
13.211714856503946
12.96330169006483
12.74262272975609
12.563489566264742
12.425973376076273
12.311973005571799
12.191301791299322
12.033249870523678
11.813776223295395
11.52110043871198
11.159042399778594
10.743414027661993
10.296318804479267
9.842731376704188
9.406778459178671
9.008476378061465
8.661940400551478
8.374454460510186
8.147183955256262
7.977130664775823
7.860045234123257
7.7926393162459195
7.7735356575704175
7.802860874199171
7.8801273473076625
8.001782963887118
8.160826118215976
8.348343152393666
8.555673143078748
8.776027487123898
9.00558569715489
9.244057469773152
9.49434333005093
9.761176735415031
10.048636394459594
10.357451732720756
10.683033448377751
11.014751507523723
11.336662283674627
11.629614127671667
11.874763314683785
12.056744990159382
12.164571467021718
12.19181579669941
12.137801699158723
12.007958838424756
11.811343105525411
11.557037195733972
11.252072657419072
10.901078155138917
10.507112423462603
10.073027086222313
9.602532191724826
9.100499394262323
8.57255160876538
8.024176886247893
7.459894265633379
6.882853971675619
6.295061182311164
5.69787880052044
5.092678902356989
4.481301897022168
3.8663492316653834
3.2513268368903687
2.6410598691727514
2.0432023241181088
1.473625749263955
0.9774958779049361
0.7076217420524797
0.8709711542235098
1.2836123081160524
1.7445975247621612
2.184847104397371
2.573226838660492
2.8894213718371797
3.1184306013597816
3.249592767049469
3.2770721733170265
3.2006973122640456
3.0257261834995863
2.7615286462758633
2.4199749867499967
2.014279703544444
1.557766279860029
1.0630314349728935
0.5410086265298668
0.0
SCALARS Local_Extrema int 1
LOOKUP_TABLE default
0
0
0
0
0
0
0
0
0
0
0
0
0
0
0
0
0
0
0
0
0
0
0
0
0
0
0
0
0
1
0
0
0
0
0
0
0
0
0
0
0
0
0
0
0
0
0
0
0
0
0
0
0
0
0
-1
0
0
0
0
0
0
0
0
0
0
0
0
0
0
0
0
0
0
0
0
1
0
0
0
0
0
0
0
0
0
0
0
0
0
0
0
0
0
0
0
0
0
0
0
0
-1
0
0
0
0
0
0
0
0
1
0
0
0
0
0
0
0
0
0
