# vtk DataFile Version 3.0
Curve with Curvature, Torsion, Distance to V, and Extrema
ASCII
DATASET POLYDATA
POINTS 120 float
0.0 0.0 0.0
-0.5264666080474854 -0.41623497009277344 -0.10047483444213867
-0.9968082904815674 -0.8622159957885742 -0.05953168869018555
-1.4211182594299316 -1.3268098831176758 0.08846473693847656
-1.8095386028289795 -1.7989091873168945 0.30893707275390625
-2.172386884689331 -2.267611503601074 0.5668540000915527
-2.519922971725464 -2.7225255966186523 0.8267507553100586
-2.861959218978882 -3.1545495986938477 1.053518295288086
-3.2066195011138916 -3.5568342208862305 1.2143912315368652
-3.5586907863616943 -3.926039695739746 1.2820239067077637
-3.9178249835968018 -4.263349533081055 1.2380008697509766
-4.277722120285034 -4.574690818786621 1.0752534866333008
-4.626315355300903 -4.869946479797363 0.7988734245300293
-4.947322130203247 -5.161402702331543 0.4251089096069336
-5.2227818965911865 -5.46142578125 -0.021693706512451172
-5.436138391494751 -5.780379295349121 -0.5131258964538574
-5.574542760848999 -6.124975204467773 -1.0209145545959473
-5.63050103187561 -6.497525215148926 -1.5206637382507324
-5.602303743362427 -6.895931243896484 -1.9946742057800293
-5.493492841720581 -7.314249038696289 -2.4336209297180176
-5.311481714248657 -7.743738174438477 -2.8368706703186035
-5.065809965133667 -8.174296379089355 -3.2112860679626465
-4.766427755355835 -8.595961570739746 -3.5688090324401855
-4.422494173049927 -9.000595092773438 -3.9229893684387207
-4.041801691055298 -9.383141040802002 -4.285027027130127
-3.631294012069702 -9.742420673370361 -4.6601433753967285
-3.1979992389678955 -10.080894947052002 -5.044810771942139
-2.7502453327178955 -10.403622150421143 -5.42578649520874
-2.298685312271118 -10.715828895568848 -5.7810893058776855
-1.856647253036499 -11.020877361297607 -6.083043575286865
-1.4399917125701904 -11.318647384643555 -6.302875995635986
-1.0659146308898926 -11.605382919311523 -6.4159770011901855
-0.751255989074707 -11.874512672424316 -6.4065985679626465
-0.5100493431091309 -12.118700981140137 -6.270606517791748
-0.35108232498168945 -12.332355976104736 -6.0157647132873535
-0.27608180046081543 -12.513210773468018 -5.659642696380615
-0.2794480323791504 -12.662786483764648 -5.225485324859619
-0.34995055198669434 -12.785956382751465 -4.737480640411377
-0.47342467308044434 -12.88861608505249 -4.216662883758545
-0.6355385780334473 -12.97579026222229 -3.67818021774292
-0.8234736919403076 -13.049912929534912 -3.13035249710083
-1.026383399963379 -13.11051058769226 -2.5755324363708496
-1.235349416732788 -13.155844688415527 -2.0124831199645996
-1.4433326721191406 -13.184918880462646 -1.4394440650939941
-1.6452934741973877 -13.200131177902222 -0.8568835258483887
-1.8382012844085693 -13.209074020385742 -0.269411563873291
-2.0209038257598877 -13.22461199760437 0.3139171600341797
-2.1940977573394775 -13.263676643371582 0.880681037902832
-2.3598735332489014 -13.344395399093628 1.4174809455871582
-2.5209076404571533 -13.482518434524536 1.913062572479248
-2.6792027950286865 -13.68778920173645 2.3614726066589355
-2.83476185798645 -13.961762428283691 2.7642693519592285
-2.9846012592315674 -14.296872854232788 3.1309165954589844
-3.1226513385772705 -14.678730010986328 3.4770429134368896
-3.2406976222991943 -15.089438438415527 3.820920705795288
-3.3302080631256104 -15.512212753295898 4.179181098937988
-3.3842508792877197 -15.934457659721375 4.563190221786499
-3.3991477489471436 -16.350193560123444 4.977235317230225
-3.3751895427703857 -16.75873501598835 5.418501377105713
-3.3163530826568604 -17.163740038871765 5.878806710243225
-3.2290866374969482 -17.570394575595856 6.34693169593811
-3.1204535961151123 -17.983069896697998 6.810822606086731
-2.99613881111145 -18.404850006103516 7.259146675467491
-2.8589742183685303 -18.836729764938354 7.682287588715553
-2.7079966068267822 -19.27836585044861 8.072964191436768
-2.5387375354766846 -19.72787642478943 8.426774621009827
-2.34452748298645 -20.18236994743347 8.742962121963501
-2.118306875228882 -20.63791823387146 9.025083661079407
-1.8545196056365967 -21.089006900787354 9.281014204025269
-1.5502822399139404 -21.528865337371826 9.521967887878418
-1.2057042121887207 -21.9502911567688 9.760487794876099
-0.823258638381958 -22.345890045166016 10.007744312286377
-0.40695714950561523 -22.709574222564697 10.271670818328857
0.03874611854553223 -23.03668737411499 10.555224418640137
0.5096476078033447 -23.3242769241333 10.857043504714966
1.002118706703186 -23.57051134109497 11.172348022460938
1.512951910495758 -23.77451801300049 11.495005130767822
2.0389510691165924 -23.936313152313232 11.81934118270874
2.5764938294887543 -24.05618190765381 12.14137077331543
3.121335029602051 -24.134716033935547 12.459714889526367
3.6686832904815674 -24.17311382293701 12.775363445281982
4.21359384059906 -24.17322540283203 13.090773105621338
4.751408815383911 -24.13821840286255 13.409750938415527
5.278301954269409 -24.073192596435547 13.735846519470215
5.791642665863037 -23.985064029693604 14.072057723999023
6.290316820144653 -23.882445812225342 14.420411586761475
6.774935007095337 -23.774059772491455 14.781407833099365
7.247813940048218 -23.667500495910645 15.153316974639893
7.7128331661224365 -23.567083835601807 15.532658100128174
8.175112962722778 -23.473512649536133 15.914112567901611
8.64034390449524 -23.3839168548584 16.29147481918335
9.113914251327515 -23.293784618377686 16.65888547897339
9.600539445877075 -23.199642658233643 17.012004375457764
10.103029012680054 -23.100903034210205 17.349772930145264
10.622068166732788 -23.001451015472412 17.674161434173584
11.156158208847046 -22.909407138824463 17.99028444290161
11.701617956161499 -22.83605670928955 18.305002689361572
12.25231146812439 -22.794503211975098 18.62539052963257
12.800409078598022 -22.797473907470703 18.956757068634033
13.336025953292847 -22.855828285217285 19.30095148086548
13.847537755966187 -22.97742986679077 19.655184268951416
14.322057485580444 -23.166768074035645 20.013060092926025
14.745522260665894 -23.42503070831299 20.36488676071167
15.103965520858765 -23.75067710876465 20.70059633255005
15.385644674301147 -24.139214515686035 21.01189374923706
15.583823919296265 -24.58294153213501 21.29492712020874
15.698203802108765 -25.070701599121094 21.551311016082764
15.73641562461853 -25.587729454040527 21.788506031036377
15.712732076644897 -26.11701774597168 22.018659114837646
15.64562201499939 -26.641529083251953 22.256045818328857
15.553842306137085 -27.146080017089844 22.513908863067627
15.452787160873413 -27.6212739944458 22.801228046417236
15.351767301559448 -28.064372062683105 23.120681285858154
15.252628087997437 -28.480606079101562 23.467522144317627
15.151089429855347 -28.881714820861816 23.830503940582275
15.037849187850952 -29.284719467163086 24.193344593048096
14.900666952133179 -29.709182739257812 24.536983966827393
14.72613787651062 -30.175981521606445 24.841230869293213
14.500324010848999 -30.70646381378174 25.085150241851807
14.209199666976929 -31.321999549865723 25.248100757598877
LINES 1 121
120 0 1 2 3 4 5 6 7 8 9 10 11 12 13 14 15 16 17 18 19 20 21 22 23 24 25 26 27 28 29 30 31 32 33 34 35 36 37 38 39 40 41 42 43 44 45 46 47 48 49 50 51 52 53 54 55 56 57 58 59 60 61 62 63 64 65 66 67 68 69 70 71 72 73 74 75 76 77 78 79 80 81 82 83 84 85 86 87 88 89 90 91 92 93 94 95 96 97 98 99 100 101 102 103 104 105 106 107 108 109 110 111 112 113 114 115 116 117 118 119
POINT_DATA 120
SCALARS Curvature float 1
LOOKUP_TABLE default
0.0
0.35098360481301094
0.274624949986093
0.1889332176965542
0.1082979328799297
0.027468176645401826
0.06913721503855304
0.19596238888131057
0.3416465471552044
0.4419511867362641
0.4397126952261864
0.35921717395611896
0.26836114860613225
0.21011082131804193
0.19096982898667236
0.1998489406632428
0.21946528783392774
0.23429115714312643
0.23303606902920146
0.212344603026753
0.17784280044409473
0.14103113315509858
0.11349583925165418
0.09828374573471223
0.08591767004419416
0.06832113047831134
0.048197013549555606
0.0531302532139092
0.10672968401836491
0.21009270354592116
0.3868541232690193
0.6268390041822245
0.7937522244837418
0.7879864111951519
0.6292407661499291
0.4236856890182628
0.27017551707053433
0.17453397249190747
0.11511826592734421
0.07670505853735522
0.05304346651875222
0.0446457652484083
0.046215415687010396
0.04352438286570722
0.031185522186573448
0.029057583524445218
0.07093474368524158
0.1407545054711125
0.2246517260369428
0.2921082193264672
0.3054539628514937
0.2549898570209705
0.17225070800643905
0.10394602805303269
0.0989529640289906
0.1261867977192928
0.13634997361987827
0.123642426735137
0.09688181885239014
0.06990208486888438
0.05568059844085133
0.060338854814097564
0.07560935969301487
0.09450715926054379
0.11329825267903379
0.1290644439936313
0.13701565140369992
0.1349396446637012
0.12749068402446972
0.1223246298822653
0.12419699153007335
0.12756243008441284
0.128044209882977
0.12421745611242402
0.11863665755756028
0.11353082444042988
0.10936803184077931
0.1065709329675286
0.10381272010471826
0.10016891138893559
0.09631556091622478
0.09135476675473639
0.08388852324476664
0.07408738375572796
0.06242334423335418
0.05192119640167076
0.042552285916017195
0.03296332436070427
0.0202501951353779
0.017345109470123927
0.03532359569877548
0.05279985637275154
0.05818386975515
0.052281398835996314
0.04342284627798993
0.05170919559820066
0.07904539078670623
0.11114807856513417
0.14138957227680582
0.16857197997718748
0.1955257441481402
0.22698810910744394
0.26514344451214417
0.301596704240142
0.31747891121488664
0.29970944478136574
0.24918540091650457
0.18524926329976818
0.13060463762016314
0.11335034445605331
0.13058427137856837
0.14433762697305033
0.12544699473186033
0.07331129234931422
0.03670615759077953
0.11307315008459709
0.18650716644353774
0.2233719646124018
0.21215931154723364
0.0
SCALARS Torsion float 1
LOOKUP_TABLE default
0.0
0.0
0.00853151737810137
0.016023485245059074
0.03877061549990961
0.357098944748212
0.04731687851977184
0.031270569235250525
0.05428957760096426
0.09529508842649707
0.15950930025075089
0.2593533881485477
0.393255660707712
0.49832911919490097
0.48886395218086004
0.3762200565226201
0.24709375223928237
0.1404011082706449
0.04676198892811598
-0.05828951319255219
-0.1999437102543356
-0.38462145345974796
-0.5180800823472136
-0.48682610728004544
-0.3181487845857897
-0.020047794154929466
0.6137754680126088
0.8013293452184369
0.39845085398864694
0.1663362134881531
0.08041443896665569
0.04981573201290295
0.045513745366800876
0.05866599951756472
0.07698953441733594
0.0961200276393377
0.12559724878606413
0.13102616025069108
0.08268413514232495
-0.14443035727407216
-0.5732372061173947
-0.7236499027440936
-0.5659029391003313
-0.46947688560425854
-0.7556718493978194
-0.9343115999472696
-0.4508387450424765
-0.1977107110623635
-0.10511066217492508
-0.04890229861881839
0.015178700864525434
0.1369459480880219
0.44593208781416727
0.8888151705801997
0.8583058799566338
0.4572534369701595
0.14591564456386663
-0.04045779606419023
-0.2555317799104215
-0.5387459074003588
-0.7174494091800159
-0.5860264784477227
-0.2744321958276509
-0.027739009414199045
0.13640363922575668
0.2295802306832044
0.30074966693740207
0.38827653140704127
0.475102793962748
0.5030568959978869
0.43123547548033825
0.3045322719851457
0.15548453508420212
0.035301518014633965
-0.06794485129306482
-0.11934665049056412
-0.1158524987510016
-0.06320849486523811
0.028168005102308297
0.1214679364880197
0.1905097142397153
0.265415545337861
0.3079567165225546
0.3787319622525564
0.4993608945171906
0.5963342420874421
0.667053259448781
0.6911806287254965
0.910459980667216
0.9562224260401744
0.4765563915579024
0.16763264424312957
-0.009529100530777823
-0.31880400917655094
-0.7185032833053103
-0.6853843928939505
-0.38080804141416014
-0.18094448843338343
-0.08360877875326217
-0.02142659180793774
0.006074908133340037
0.02444602912127298
0.013718045220706115
-0.00688945431492561
-0.04198388934471596
-0.09423163037975237
-0.19062314857503074
-0.39563358762293643
-0.7157302184584778
-0.8277715842319103
-0.6247189302164413
-0.3512188995231045
-0.10527261337355909
0.4371236108739539
0.9983953296078685
0.37078143764613336
0.11597448020967904
0.05267070038624762
0.02860968391249773
0.0
SCALARS Distance_to_V float 1
LOOKUP_TABLE default
0.0
0.6749106171378596
1.292267169169298
1.8659866027679344
2.407183462164886
2.9245199497963954
3.4245565654599037
3.9124555192385175
4.392303014718879
4.8673874393987395
5.340107963393939
5.811876871509745
6.282651731647148
6.750580314695934
7.211831098443292
7.661156339673118
8.092505122755043
8.500179911343489
8.879918669787964
9.229828662844728
9.55093064045702
9.84728264990051
10.125588554952316
10.394472551124517
10.66309557258292
10.939540114671079
11.228446782552307
11.5287826085215
11.83177106877639
12.120788613922493
12.373477657984568
12.566088594379371
12.678681541622877
12.699753721578158
12.629030902047248
12.47729376347254
12.263367376647482
12.009713634887957
11.737172990696335
11.461281232672077
11.190333144706292
10.925899162519922
10.665858156977361
10.40814237189925
10.154560778983209
9.91310778042421
9.697664238988962
9.525873456982579
9.415154384174082
9.378327901760835
9.419847816105246
9.534051086382236
9.705239740377067
9.91063465641794
10.124554583432891
10.323723563499842
10.491241760512285
10.61932701615751
10.708618629306008
10.76652953469133
10.803798708850467
10.831056058890404
10.856656748820773
10.884951905133128
10.915986315884105
10.945682128605878
10.967179206929206
10.972204230826204
10.952176554233327
10.899237373090433
10.807049675109669
10.670835992770563
10.488041951952303
10.258253955817695
9.982947474951388
9.66489716280388
9.307710404845707
8.915546362464413
8.492604643479376
8.04284752417533
7.570048800486955
7.077737710114967
6.569259434573422
6.048431673079054
5.519466460092264
4.9870239079218806
4.455492202316975
3.9287140406774
3.4086685229513267
2.89579466088188
2.389651965812193
1.8919010015936772
1.413280782902198
0.9939241589162717
0.7639745915517603
0.899453247132879
1.2894043182979005
1.7608818674684772
2.242725459535033
2.702484153293305
3.1189492481473278
3.4750351117864167
3.7555730416149853
3.947600379129078
4.042259572114234
4.0373847387397115
3.938650630927724
3.760463675762638
3.523452641860759
3.250671427199313
2.9632031304840862
2.6762882951313554
2.398232562587566
2.1300375193472347
1.866800165057598
1.5969188077986285
1.302191509350932
0.9582162331605052
0.5352362305042574
0.0
SCALARS Local_Extrema int 1
LOOKUP_TABLE default
0
0
0
0
0
0
0
0
0
0
0
0
0
0
0
0
0
0
0
0
0
0
0
0
0
0
0
0
0
0
0
0
0
1
0
0
0
0
0
0
0
0
0
0
0
0
0
0
0
-1
0
0
0
0
0
0
0
0
0
0
0
0
0
0
0
0
0
1
0
0
0
0
0
0
0
0
0
0
0
0
0
0
0
0
0
0
0
0
0
0
0
0
0
0
-1
0
0
0
0
0
0
0
0
0
1
0
0
0
0
0
0
0
0
0
0
0
0
0
0
0
