# vtk DataFile Version 3.0
Curve with Curvature, Torsion, Distance to V, and Extrema
ASCII
DATASET POLYDATA
POINTS 120 float
0.0 0.0 0.0
-0.5101232528686523 -0.3459205627441406 0.2415771484375
-0.9818572998046875 -0.7542381286621094 0.463104248046875
-1.4155378341674805 -1.2146720886230469 0.6588573455810547
-1.8125085830688477 -1.7184486389160156 0.8233661651611328
-2.173914909362793 -2.2584190368652344 0.9509048461914062
-2.4999895095825195 -2.8284950256347656 1.0352630615234375
-2.7898149490356445 -3.422801971435547 1.0696544647216797
-3.041285514831543 -4.034816741943359 1.0467758178710938
-3.251400947570801 -4.65655517578125 0.9599323272705078
-3.417239189147949 -5.278528213500977 0.8054866790771484
-3.53659725189209 -5.890825271606445 0.5839824676513672
-3.6090993881225586 -6.484775543212891 0.3007240295410156
-3.6361684799194336 -7.054216384887695 -0.035961151123046875
-3.620211601257324 -7.5956268310546875 -0.4168281555175781
-3.5644311904907227 -8.108053207397461 -0.8325405120849609
-3.4720964431762695 -8.592350006103516 -1.2747001647949219
-3.3461999893188477 -9.050485610961914 -1.7360954284667969
-3.1898202896118164 -9.485450744628906 -2.210447311401367
-3.005770683288574 -9.900678634643555 -2.6925296783447266
-2.7967824935913086 -10.30000114440918 -3.177896499633789
-2.565354347229004 -10.687471389770508 -3.662708282470703
-2.3140439987182617 -11.067480087280273 -4.143522262573242
-2.045212745666504 -11.444646835327148 -4.617046356201172
-1.761174201965332 -11.82396125793457 -5.079854965209961
-1.464228630065918 -12.21086311340332 -5.528034210205078
-1.1567678451538086 -12.611429214477539 -5.956661224365234
-0.8415842056274414 -13.032684326171875 -6.358968734741211
-0.5225315093994141 -13.482704162597656 -6.72532844543457
-0.20571517944335938 -13.970832824707031 -7.041032791137695
0.09775829315185547 -14.506868362426758 -7.282732009887695
0.36643028259277344 -15.096302032470703 -7.4140167236328125
0.5609989166259766 -15.725870132446289 -7.385343551635742
0.6299886703491211 -16.34130096435547 -7.161687850952148
0.5500869750976562 -16.86758041381836 -6.772968292236328
0.34364986419677734 -17.27035140991211 -6.29200553894043
0.0450897216796875 -17.55535888671875 -5.775411605834961
-0.3191871643066406 -17.738428115844727 -5.254293441772461
-0.731715202331543 -17.83251190185547 -4.745378494262695
-1.1795930862426758 -17.847463607788086 -4.258197784423828
-1.6521520614624023 -17.790637969970703 -3.798053741455078
-2.1396970748901367 -17.668394088745117 -3.3671035766601562
-2.6331300735473633 -17.48675537109375 -2.964628219604492
-3.123753547668457 -17.251951217651367 -2.5868911743164062
-3.6036367416381836 -16.971145629882812 -2.227092742919922
-4.065680503845215 -16.65215492248535 -1.8758049011230469
-4.503310203552246 -16.304235458374023 -1.5207157135009766
-4.908974647521973 -15.938873291015625 -1.1458377838134766
-5.272103309631348 -15.572732925415039 -0.7306137084960938
-5.575760841369629 -15.233844757080078 -0.2503662109375
-5.795449256896973 -14.968107223510742 0.3132152557373047
-5.905600547790527 -14.83043098449707 0.9491367340087891
-5.900559425354004 -14.849090576171875 1.6089439392089844
-5.799077033996582 -15.011865615844727 2.241281509399414
-5.628352165222168 -15.286882400512695 2.8180065155029297
-5.4106340408325195 -15.6458740234375 3.3294410705566406
-5.1623430252075195 -16.068483352661133 3.7742385864257812
-4.895844459533691 -16.540712356567383 4.154029846191406
-4.621232032775879 -17.052478790283203 4.471933364868164
-4.347121238708496 -17.595563888549805 4.733451843261719
-4.080609321594238 -18.16360855102539 4.9452056884765625
-3.827420234680176 -18.751758575439453 5.114253997802734
-3.5919179916381836 -19.35616111755371 5.247987747192383
-3.376397132873535 -19.973215103149414 5.355188369750977
-3.180434226989746 -20.599369049072266 5.446104049682617
-3.001326560974121 -21.231374740600586 5.531246185302734
-2.8341474533081055 -21.866029739379883 5.620859146118164
-2.6724328994750977 -22.49993133544922 5.7246246337890625
-2.5080747604370117 -23.128982543945312 5.851079940795898
-2.3317575454711914 -23.74795150756836 6.007410049438477
-2.133284568786621 -24.349903106689453 6.199308395385742
-1.9024171829223633 -24.925888061523438 6.430370330810547
-1.6302556991577148 -25.465309143066406 6.701076507568359
-1.311051368713379 -25.957392692565918 7.008022308349609
-0.9435596466064453 -26.3935604095459 7.344112396240234
-0.5310811996459961 -26.769695281982422 7.700040817260742
-0.07961082458496094 -27.086315155029297 8.066514015197754
0.40427112579345703 -27.346948623657227 8.435824394226074
0.9142570495605469 -27.55697250366211 8.802349090576172
1.444864273071289 -27.722261428833008 9.162537574768066
1.9916772842407227 -27.84795093536377 9.514446258544922
2.550945281982422 -27.938651084899902 9.857465744018555
3.11971378326416 -27.997254371643066 10.191764831542969
3.695315361022949 -28.025707244873047 10.518218040466309
4.275362968444824 -28.02458095550537 10.83797836303711
4.8575286865234375 -27.99374008178711 11.152355194091797
5.43952751159668 -27.93258762359619 11.462575912475586
6.01912784576416 -27.8405179977417 11.769635200500488
6.594302177429199 -27.71758460998535 12.07420539855957
7.163514614105225 -27.565102577209473 12.376623153686523
7.725965976715088 -27.385805130004883 12.676998138427734
8.281724452972412 -27.183744430541992 12.975404739379883
8.831704139709473 -26.963997840881348 13.272042274475098
9.37748384475708 -26.732285499572754 13.567349433898926
9.921035766601562 -26.49467372894287 13.862090110778809
10.464394092559814 -26.257319450378418 14.157392501831055
11.009365320205688 -26.02633285522461 14.454752922058105
11.557324647903442 -25.80791187286377 14.75606632232666
12.10900592803955 -25.60835838317871 15.063570022583008
12.664477109909058 -25.434795379638672 15.379835605621338
13.222844243049622 -25.295126914978027 15.707492351531982
13.781766891479492 -25.19854164123535 16.04930830001831
14.3366339802742 -25.1554536819458 16.408079624176025
14.879749888554215 -25.17694664001465 16.78605556488037
15.399930596351624 -25.273337364196777 17.18387508392334
15.882675290107727 -25.45256233215332 17.599580764770508
16.312414169311523 -25.71677017211914 18.027803421020508
16.674957275390625 -26.0620174407959 18.46047878265381
16.96141743659973 -26.477686882019043 18.888346672058105
17.170143365859985 -26.949268341064453 19.30319833755493
17.305227994918823 -27.462271690368652 19.69918131828308
17.37396001815796 -28.004467010498047 20.07288908958435
17.384588718414307 -28.56653118133545 20.422784090042114
17.344779014587402 -29.141807079315186 20.748369693756104
17.261414766311646 -29.725607872009277 21.049729347229004
17.14069104194641 -30.314688205718994 21.32729470729828
16.98839259147644 -30.906859397888184 21.581858277320862
16.809632897377014 -31.500758171081543 21.814277052879333
16.60908544063568 -32.09564208984375 22.02547562122345
16.39114022254944 -32.69126319885254 22.216429829597473
LINES 1 121
120 0 1 2 3 4 5 6 7 8 9 10 11 12 13 14 15 16 17 18 19 20 21 22 23 24 25 26 27 28 29 30 31 32 33 34 35 36 37 38 39 40 41 42 43 44 45 46 47 48 49 50 51 52 53 54 55 56 57 58 59 60 61 62 63 64 65 66 67 68 69 70 71 72 73 74 75 76 77 78 79 80 81 82 83 84 85 86 87 88 89 90 91 92 93 94 95 96 97 98 99 100 101 102 103 104 105 106 107 108 109 110 111 112 113 114 115 116 117 118 119
POINT_DATA 120
SCALARS Curvature float 1
LOOKUP_TABLE default
0.0
0.17128302172167356
0.1569698961575546
0.14661077796166716
0.14206267395835007
0.14344157348344727
0.14994935649601268
0.1607235097170661
0.1731638076892652
0.18202475351328276
0.18497821966117697
0.17946066231713087
0.16760824490296142
0.15308395264534522
0.13658163401556858
0.12054042855555072
0.10599839612186136
0.09184565208296883
0.0792588573913722
0.06771425868591556
0.05778108050765361
0.049205682178371686
0.043702071780124835
0.042652282888700335
0.047669887047080035
0.059341089867818934
0.07814102735526937
0.10491123425531218
0.14356525988634378
0.20047379034211024
0.28272446949860663
0.3902561436205172
0.48385381006153333
0.4943494793080297
0.4231647338376002
0.33542427792783003
0.2691852354681562
0.22796589307161283
0.2006829292787292
0.1814590133645283
0.16516621163541106
0.14950063732889882
0.1329420547485545
0.114614810896089
0.09765719950621223
0.08647627899845044
0.09417236825625079
0.1328589293394669
0.2072496905866291
0.30687287420263976
0.3946304924979852
0.4169695224951011
0.3784983457156349
0.3141687757047168
0.2584977117564458
0.21741740931311826
0.18848552461364895
0.16669910926132847
0.14587437409488882
0.12731194503225243
0.1112794935756243
0.09700651475867464
0.0808119840875426
0.061512664488232185
0.04271007736226136
0.02964437695746337
0.03460430015772014
0.05317280002682489
0.07670363973533266
0.10270920295147198
0.12933193558621486
0.15354558545587196
0.17129974472807807
0.17894910643815898
0.17491378668649962
0.16237813955072244
0.1464393717122791
0.12915654392690137
0.1126707363290159
0.09897291271242052
0.08679986474599011
0.07865972418722807
0.07255464857639124
0.06973520729915246
0.06887773721862787
0.06961043990431584
0.07091396207317716
0.07115797492473958
0.06875874698645303
0.063107589808594
0.05420233465699709
0.042566817531268494
0.029050973779741678
0.014428416420849143
0.0014757693329121684
0.01568696529966684
0.030774502093726005
0.04601098661687219
0.06301871354521374
0.0815767734702738
0.10299199677330423
0.12752369380593587
0.1545957139350544
0.182048818114853
0.20795071700561268
0.22590585989590142
0.23539401934955984
0.23195735174040014
0.21650862811455235
0.1945987472694308
0.17100513335473855
0.14890402400496783
0.1303090791847484
0.11468938373291095
0.1012866850162952
0.08905466029839676
0.07856293429131113
0.06923179406351009
0.060777006990517794
0.0
SCALARS Torsion float 1
LOOKUP_TABLE default
0.0
0.0
-0.12973750166825068
-0.15215733888178362
-0.1587680104406693
-0.14678525449292773
-0.1259915372215551
-0.10382950773488496
-0.07943086653238586
-0.05214982683028112
-0.024203760772594157
0.0008644878333860032
0.021438744113354394
0.0403466773725078
0.06014649190728692
0.08035600018013125
0.10207743964914141
0.12778731260754092
0.15668238765767412
0.19852802221490032
0.2583914386420366
0.3444690929139078
0.4334531016909597
0.47610473514089485
0.4226562756775484
0.3135847045425946
0.21347047022028728
0.14382418317631232
0.09863932342977734
0.07232298567943805
0.05894497000750492
0.055257714521272934
0.062105018499468735
0.08447247450986857
0.11607702191920417
0.12183966673871333
0.09681155452508206
0.0667186556664517
0.03309343972754067
-0.006649419542283652
-0.04759712971422145
-0.09692180733681792
-0.16819786330196826
-0.268562138053511
-0.4098675728148702
-0.574420037459753
-0.602350229226151
-0.44070856478562215
-0.27640505572675017
-0.18605747296811048
-0.13238439060146515
-0.09965885902668062
-0.08071976502741036
-0.06746543672460187
-0.06499468470334761
-0.07527431865275172
-0.09142484813100682
-0.11275341239860545
-0.140396695948643
-0.16958446640468966
-0.19939221376045593
-0.2297896295836316
-0.2811668639952864
-0.39572068243088504
-0.6249279775818637
-0.8754708319516374
-0.7588946431578848
-0.4422137152075126
-0.2713658961733028
-0.19382680014927609
-0.1515030934318668
-0.12758972527972096
-0.11278597335915024
-0.10385987930054118
-0.09873509178807932
-0.09638530240650847
-0.09264129309913742
-0.08534973236281632
-0.07131054123396109
-0.05000402333256835
-0.02070168063335337
0.018746317334751628
0.062413266675494475
0.09521610676953172
0.11204593709381631
0.10955019830673286
0.09488151938958689
0.07440466747726704
0.052284445978674675
0.03239436875148797
0.016938602275984573
0.005250142207177873
0.0023495415094989874
0.0723359330018821
0.999999999998191
0.11738715310358516
-0.0005670910383673011
-0.030580392972900234
-0.03575590910703788
-0.0343767260770831
-0.03715577079507606
-0.04417424418251152
-0.048516836942984774
-0.04820600550927051
-0.045247325131712965
-0.04134835169863214
-0.035746235460767405
-0.029194816152496292
-0.019718144705193303
-0.007649966337132009
0.004934465056827124
0.016402235738914157
0.026604539359561297
0.037495648154335565
0.050101814045923086
0.06475541665017535
0.08070578413683026
0.10208226804760322
0.13250216867223552
0.0
SCALARS Distance_to_V float 1
LOOKUP_TABLE default
0.0
0.632845630692224
1.2463083520877976
1.8394313296621918
2.412861819258375
2.9679111682183126
3.5059434707890964
4.028105202217588
4.535195959224572
5.027686339090917
5.506101765706296
5.971135004386077
6.424211067420331
6.867431922409575
7.303039411044502
7.7334487206978215
8.160841154048143
8.586995801093714
9.013696054278618
9.442466380504037
9.874735693643073
10.311704111997631
10.754542459143968
11.204112744825693
11.660980618049582
12.125243333396586
12.59629490034442
13.072444904901497
13.550277657970515
14.023206691856677
14.478572767785352
14.89216418609889
15.221220886536578
15.413826827255905
15.45624403007667
15.38772045297877
15.255931473294968
15.094107894553987
14.922463217781207
14.753137858084171
14.59257460370554
14.443190029834449
14.304210102770295
14.172295766353573
14.042707717094176
13.910010258368066
13.768841225143422
13.613654523594485
13.439281065258502
13.24284143180353
13.029915715076028
12.818185087021241
12.629295167856183
12.47451139965219
12.35356282204616
12.262706224477085
12.199298279247325
12.16282761512643
12.15456261353175
12.17624735428745
12.229768171252742
12.316758947112534
12.438025711367418
12.592078752107225
12.774342288364439
12.977958342446474
13.193966009828435
13.411954845611097
13.620060462765787
13.805263821452012
13.953451961498919
14.05011058084778
14.081918311765032
14.039206430410701
13.918273410180834
13.722231692499339
13.458977433982664
13.138131126667899
12.769537378596043
12.362054199650442
11.922794788476223
11.45762752283085
10.970551037373102
10.464522489961174
9.941338280017254
9.40221812999727
8.848044394413034
8.279692603396999
7.6984015599757365
7.1060188616553
6.504983631802507
5.8982244277603755
5.28909649757623
4.681471689064097
4.0801238709937575
3.491555607466568
2.925665338855274
2.3992028930165774
1.9424921307735545
1.609685121405098
1.4741268434790036
1.567966685968771
1.8307887130233178
2.170422905070206
2.5181586307421613
2.828864111698573
3.072829755159209
3.231148721677127
3.2960841584619103
3.26999192728391
3.1614341735604357
2.981437056775301
2.740936310807136
2.449345362108297
2.114600458394962
1.7434288307234753
1.3417489627390824
0.9145151289994436
0.4660040734111154
0.0
SCALARS Local_Extrema int 1
LOOKUP_TABLE default
0
0
0
0
0
0
0
0
0
0
0
0
0
0
0
0
0
0
0
0
0
0
0
0
0
0
0
0
0
0
0
0
0
0
1
0
0
0
0
0
0
0
0
0
0
0
0
0
0
0
0
0
0
0
0
0
0
0
-1
0
0
0
0
0
0
0
0
0
0
0
0
0
1
0
0
0
0
0
0
0
0
0
0
0
0
0
0
0
0
0
0
0
0
0
0
0
0
0
0
0
-1
0
0
0
0
0
0
0
1
0
0
0
0
0
0
0
0
0
0
0
