# vtk DataFile Version 3.0
Curve with Curvature, Torsion, Distance to V, and Extrema
ASCII
DATASET POLYDATA
POINTS 120 float
0.0 0.0 0.0
-0.09061479568481445 -0.5016994476318359 -0.22334527969360352
-0.23308134078979492 -1.0710678100585938 -0.25411319732666016
-0.42914581298828125 -1.6882286071777344 -0.14468050003051758
-0.6801204681396484 -2.3329830169677734 0.05328845977783203
-0.9859395027160645 -2.984285354614258 0.290285587310791
-1.3432979583740234 -3.619832992553711 0.5211710929870605
-1.7434930801391602 -4.216431617736816 0.707453727722168
-2.1708130836486816 -4.751767158508301 0.8189749717712402
-2.602630615234375 -5.207756042480469 0.8348126411437988
-3.012193202972412 -5.574677467346191 0.743767261505127
-3.3735337257385254 -5.855129241943359 0.544858455657959
-3.667487621307373 -6.066125869750977 0.24776077270507812
-3.8865036964416504 -6.238003730773926 -0.12751388549804688
-4.0360331535339355 -6.409506797790527 -0.5525779724121094
-4.132108211517334 -6.620098114013672 -0.9945459365844727
-4.195972919464111 -6.902046203613281 -1.4215002059936523
-4.247798442840576 -7.274393081665039 -1.8083982467651367
-4.301126956939697 -7.740241050720215 -2.142024040222168
-4.359335422515869 -8.287226676940918 -2.423356056213379
-4.4146809577941895 -8.890958786010742 -2.6663312911987305
-4.450218677520752 -9.520455360412598 -2.893434524536133
-4.443457126617432 -10.144501686096191 -3.1293468475341797
-4.371190547943115 -10.736988067626953 -3.394711494445801
-4.214623928070068 -11.281695365905762 -3.700932502746582
-3.9639477729797363 -11.773628234863281 -4.046782493591309
-3.621096134185791 -12.219005584716797 -4.41691780090332
-3.2000250816345215 -12.630767822265625 -4.78300666809082
-2.7249250411987305 -13.023950099945068 -5.107513427734375
-2.2271018028259277 -13.40930986404419 -5.349905967712402
-1.7413578033447266 -13.789233684539795 -5.473621368408203
-1.3020787239074707 -14.156531810760498 -5.452380180358887
-0.9387884140014648 -14.49649429321289 -5.274585723876953
-0.6715188026428223 -14.79017972946167 -4.944972991943359
-0.5073404312133789 -15.019474983215332 -4.483280181884766
-0.43959474563598633 -15.171116352081299 -3.9199600219726562
-0.45060110092163086 -15.24059247970581 -3.2900924682617188
-0.5168676376342773 -15.234172344207764 -2.626689910888672
-0.6148037910461426 -15.167825698852539 -1.9554052352905273
-0.7246217727661133 -15.063892841339111 -1.2914667129516602
-0.8317732810974121 -14.945817470550537 -0.6395177841186523
-0.9263448715209961 -14.833014488220215 0.004024505615234375
-1.001401424407959 -14.738504886627197 0.6469287872314453
-1.0511541366577148 -14.669994831085205 1.2964262962341309
-1.0695414543151855 -14.633198738098145 1.9551506042480469
-1.05010986328125 -14.63654088973999 2.618600368499756
-0.9877128601074219 -14.692549705505371 3.2748312950134277
-0.8810849189758301 -14.817528247833252 3.906407117843628
-0.7350044250488281 -15.027713775634766 4.494020938873291
-0.5609278678894043 -15.334695816040039 5.020689010620117
-0.37552309036254883 -15.742104053497314 5.475426197052002
-0.1978917121887207 -16.243740797042847 5.855318546295166
-0.0462956428527832 -16.825377702713013 6.165549039840698
0.06459188461303711 -17.467520236968994 6.41752290725708
0.12555599212646484 -18.149524450302124 6.625854671001434
0.13370370864868164 -18.85332018136978 6.805297613143921
0.09253501892089844 -19.565202623605728 6.968287408351898
0.01164102554321289 -20.276692628860474 7.123624473810196
-0.09396743774414062 -20.983219504356384 7.276087462902069
-0.2046518325805664 -21.682589888572693 7.426861986517906
-0.2975172996520996 -22.373090744018555 7.5744874300435185
-0.3482074737548828 -23.052277088165283 7.716002270579338
-0.3335561752319336 -23.71601676940918 7.848349511623383
-0.23452997207641602 -24.35896110534668 7.96978372335434
-0.03928327560424805 -24.976263999938965 8.0811225771904
0.2547883987426758 -25.56375789642334 8.186507821083069
0.640470027923584 -26.119094848632812 8.293390035629272
1.1022982597351074 -26.64104413986206 8.411548435688019
1.6197905540466309 -27.1277174949646 8.551278352737427
2.1716833114624023 -27.57404613494873 8.721192598342896
2.739750862121582 -27.9705753326416 8.92616856098175
3.3113919496536255 -28.303322792053223 9.166305661201477
3.8801939487457275 -28.555888175964355 9.437065362930298
4.444924771785736 -28.713480949401855 9.730768203735352
5.007352069020271 -28.76814556121826 10.038879156112671
5.57006773352623 -28.721284866333008 10.354111909866333
6.1349204778671265 -28.58528232574463 10.672072649002075
6.702571749687195 -28.380078315734863 10.991097211837769
7.2720561027526855 -28.128931045532227 11.311166763305664
7.8420374393463135 -27.852910041809082 11.632486820220947
8.41107177734375 -27.567152500152588 11.953624725341797
8.978642463684082 -27.279364109039307 12.271512985229492
9.545201778411865 -26.991361141204834 12.581597328186035
10.112736225128174 -26.701451301574707 12.879334926605225
10.68385124206543 -26.40808391571045 13.161727905273438
11.262001514434814 -26.112299919128418 13.428415775299072
11.849472522735596 -25.818918704986572 13.681477069854736
12.447805881500244 -25.53651475906372 13.92627763748169
13.055829524993896 -25.27538537979126 14.170011043548584
13.670058727264404 -25.047285079956055 14.421344757080078
14.285494327545166 -24.862351417541504 14.689209938049316
14.895838260650635 -24.729214668273926 14.982192516326904
15.495340824127197 -24.653553009033203 15.30656909942627
16.080321788787842 -24.638087272644043 15.665249824523926
16.64979600906372 -24.68212604522705 16.05714511871338
17.20552396774292 -24.783904552459717 16.475786209106445
17.750864505767822 -24.939929008483887 16.910883903503418
18.286933422088623 -25.14732837677002 17.349624633789062
18.81103277206421 -25.40471887588501 17.77946949005127
19.312401294708252 -25.711292266845703 18.19131565093994
19.7724871635437 -26.066951751708984 18.581151962280273
20.166340351104736 -26.470431327819824 18.950583457946777
20.46801996231079 -26.91863441467285 19.30526638031006
20.65665102005005 -27.40613889694214 19.651265144348145
20.722121715545654 -27.92652988433838 19.992270469665527
20.669569492340088 -28.473655700683594 20.326699256896973
20.518269062042236 -29.043054580688477 20.648036003112793
20.299058437347412 -29.632786750793457 20.946788787841797
20.04758596420288 -30.24249267578125 21.213340759277344
19.797797679901123 -30.872291564941406 21.44194984436035
19.575571537017822 -31.521114349365234 21.633358001708984
19.394779682159424 -32.184449195861816 21.795902252197266
19.25581693649292 -32.85424995422363 21.94516658782959
19.146324634552002 -33.518442153930664 22.101993560791016
19.04548692703247 -34.16197204589844 22.289674758911133
18.926076412200928 -34.76729774475098 22.531933784484863
18.758723735809326 -35.31645107269287 22.85111713409424
18.512959957122803 -35.790855407714844 23.268400192260742
18.159058094024658 -36.17226219177246 23.803736686706543
17.666598796844482 -36.44260025024414 24.476998329162598
LINES 1 121
120 0 1 2 3 4 5 6 7 8 9 10 11 12 13 14 15 16 17 18 19 20 21 22 23 24 25 26 27 28 29 30 31 32 33 34 35 36 37 38 39 40 41 42 43 44 45 46 47 48 49 50 51 52 53 54 55 56 57 58 59 60 61 62 63 64 65 66 67 68 69 70 71 72 73 74 75 76 77 78 79 80 81 82 83 84 85 86 87 88 89 90 91 92 93 94 95 96 97 98 99 100 101 102 103 104 105 106 107 108 109 110 111 112 113 114 115 116 117 118 119
POINT_DATA 120
SCALARS Curvature float 1
LOOKUP_TABLE default
0.0
0.5204798018534725
0.29912319510096896
0.1597131793430595
0.09476674462964386
0.09114564328925813
0.12723511661847775
0.1865626381986758
0.2731369579867412
0.3918768463521207
0.5120510810792428
0.5558653889026693
0.4806524958366529
0.34090662826782164
0.2552807141446103
0.27986953056898817
0.31268950749754626
0.2869935521567747
0.21560472743515202
0.1330495264922014
0.07002383721982547
0.09746120564026793
0.18053147390344676
0.24811217377742134
0.2614724129032181
0.22126247875434282
0.1675977400953458
0.1437970856688993
0.18211161006045015
0.2801555483686458
0.4221680937515684
0.5566770609508864
0.5993118629543028
0.5260739367811887
0.39924403401078357
0.2859422261615684
0.20296110987357543
0.14064071105745818
0.08625753354633393
0.035712752817330086
0.026944158889082238
0.061114040784963464
0.0856274881234122
0.10310328660005647
0.1242445697555274
0.15488419400505127
0.1980955964930549
0.24702863497090052
0.2847411255771625
0.29321988199218657
0.2683349855697896
0.22499771296031004
0.1803234252074474
0.14433693926780075
0.11811411151043315
0.09716006596180186
0.0750829580183061
0.04739016580138709
0.011718323288748021
0.03251069051780433
0.08520246862707477
0.1429510841916019
0.19621362596118339
0.22775672565547206
0.22657383019548222
0.19718487276263336
0.15767484077693728
0.12585641307033432
0.1129698308249741
0.11982032316087839
0.143016194089219
0.1793451580333754
0.22063379369951366
0.24565460363430708
0.2372981285623563
0.19488589074764026
0.1387923709912269
0.08578991033871161
0.044638790349712215
0.018268443810638336
0.007285875877749887
0.01338202053382437
0.02422113185475777
0.03256920018059813
0.03520199917114474
0.03346083094379233
0.03495709103331536
0.04702385065606267
0.06965446480897249
0.0947461095654276
0.12053085852944903
0.14018831685431943
0.14888800909904723
0.14321753840906132
0.1281286363675914
0.10899081511453709
0.09789834723601717
0.0986479436852512
0.10995835696010327
0.13435141201917716
0.17740446069036644
0.2384077597001066
0.29556631962024826
0.313637753981893
0.2768694934936515
0.20982652697527482
0.14039181602000936
0.09254677837119747
0.08327651214271291
0.09837810411231883
0.10463250341836482
0.08968382328282624
0.062280368564314445
0.07833347657159413
0.15394840897068787
0.2421703681258851
0.2985465259139643
0.28387954337422583
0.2150553826719203
0.0
SCALARS Torsion float 1
LOOKUP_TABLE default
0.0
0.0
0.23304730156722012
0.4546673786884313
0.7458438183458616
0.6905494844251623
0.3983132084093908
0.23859886836684896
0.1983017315814442
0.21787930121810137
0.27231747016725116
0.36098757430372924
0.5263608869290612
0.7958563144851367
0.9256314059801025
0.7699972582904018
0.460661163494657
0.24880069787555928
0.08458245280396323
-0.22551730188808564
-0.9140053178819124
-0.7443123024018108
-0.24500009187909333
-0.05021594576103364
0.06022061358366274
0.20562837520163355
0.4536930615282313
0.6682221172474871
0.5426011316751647
0.3036877674529485
0.14830164732922452
0.05763036405389538
-0.01043098482808285
-0.06670366540212598
-0.1248829122762146
-0.1753628337022307
-0.2136648302154486
-0.24969371442755656
-0.34786772727013593
-0.8727467720902397
-0.9646761474770622
-0.28273300626115216
-0.05492993503633009
0.009207690618793063
-0.026914807972524636
-0.0822153052891842
-0.13014022961259689
-0.15380197260122047
-0.16934748447930123
-0.1866058967452122
-0.21266258240425137
-0.2532349091685501
-0.3057986442732513
-0.351826069498067
-0.36367056806989023
-0.33455830959996113
-0.2831688707913872
-0.24495643823171567
-0.2588346987997962
0.050984979187287616
-0.008726206703866313
-0.001694696717633482
0.014396273628150432
0.03566268351624223
0.07105930886890899
0.1268682212208834
0.2171958571064619
0.32457870763575114
0.34571006230582824
0.2157082844878941
0.02983781875914121
-0.09717256835573786
-0.1433216993442705
-0.1379278263765411
-0.11460789996877771
-0.07918290200261996
-0.04280151833289638
0.015706930599517006
0.09643327433803943
-0.01595190668752365
-0.9720539949487107
-0.43313667172857395
0.006739255213912498
-0.01491890056096232
-0.19566265650293782
-0.45204416784354573
-0.6479105651608469
-0.4956191155309611
-0.3102777808840079
-0.2037144099860088
-0.14865306730937627
-0.09867524641904117
-0.04861867945690035
-0.0004989302929384667
0.10821459000929778
0.2123168305172342
0.2718688487147546
0.20931924512742178
0.006168210468137952
-0.16186024563030207
-0.24056352123376212
-0.2238184671930708
-0.1678984591539111
-0.10278920431027157
-0.014043503610424973
0.11427265660851091
0.3705183527170175
0.7248950400352501
0.7624861892508998
0.5202378829554828
0.3847201761867014
0.47323931545185344
0.8508425297626223
0.7937121571418466
0.3778366989297872
0.18648474851127805
0.11162605543847116
0.07072229965577366
0.05155051299318509
0.0
SCALARS Distance_to_V float 1
LOOKUP_TABLE default
0.0
0.5036101258094915
0.9478318148717896
1.385941128914884
1.855355218755691
2.3737431695025024
2.940643024865992
3.5417820863921112
4.153640097209751
4.748207761914801
5.2988381979818895
5.786950810433832
6.208143645273138
6.5748942409934665
6.913433058148742
7.255389786460705
7.627808949681449
8.046070778862727
8.512077297612006
9.016472359267937
9.542413498458878
10.069518480546991
10.57748680173189
11.049509043722882
11.475738725328224
11.854300691850506
12.189863077653031
12.487969090344784
12.749477284478804
12.966325634095613
13.121975365548781
13.196057629012328
13.171231876077826
13.038766442308631
12.80193072939756
12.475142677831753
12.080861173994604
11.645014842016675
11.19249274988434
10.743759079749738
10.31267407086806
9.905809363371766
9.523902400511945
9.165041622572408
8.828021628202587
8.515417369469912
8.234058649414596
7.99448782631545
7.808854283167856
7.688997924767
7.645012566565953
7.683666463187126
7.807419769621769
8.013307174725824
8.293131341449913
8.63486495253489
9.024251191618662
9.446246123480329
9.885174983106726
10.324409157592667
10.746020686832804
11.131155393241908
11.461255979554476
11.72037832861759
11.898236788042464
11.991432852376946
12.00397413624043
11.945158107666943
11.825946382844183
11.654774973434815
11.435134443729721
11.164888859469283
10.838081967653599
10.448183907474261
9.992072944247525
9.472047419273952
8.896896577285165
8.279972245380787
7.637221412893532
6.983737987097659
6.332430916932414
5.692952440189808
5.073383023121234
4.481966227128891
3.9309421278772145
3.440236534635105
3.041678761428734
2.7766105980387756
2.682117204949773
2.7660762696838552
2.997013153102762
3.3231627068752703
3.697383786100898
4.087352601433376
4.475076615677217
4.853068208574647
5.21967491578887
5.572748204918273
5.906650773341335
6.208401775862829
6.458207166326971
6.631603690851262
6.70462701230669
6.659443565531914
6.488926648184708
6.200305648379668
5.813439813055005
5.357951496243241
4.867478356541035
4.374677363786722
3.9069881572094873
3.4841595269575207
3.115061945783724
2.7942635888315364
2.5012167395379286
2.2003923714077946
1.847450939607146
1.3942520904013636
0.7937635074339834
0.0
SCALARS Local_Extrema int 1
LOOKUP_TABLE default
0
0
0
0
0
0
0
0
0
0
0
0
0
0
0
0
0
0
0
0
0
0
0
0
0
0
0
0
0
0
0
1
0
0
0
0
0
0
0
0
0
0
0
0
0
0
0
0
0
0
-1
0
0
0
0
0
0
0
0
0
0
0
0
0
0
0
1
0
0
0
0
0
0
0
0
0
0
0
0
0
0
0
0
0
0
0
0
0
-1
0
0
0
0
0
0
0
0
0
0
0
0
0
1
0
0
0
0
0
0
0
0
0
0
0
0
0
0
0
0
0
