# vtk DataFile Version 3.0
Curve with Curvature, Torsion, Distance to V, and Extrema
ASCII
DATASET POLYDATA
POINTS 74 float
-0.5739265713142595 -0.8155789147008066 0.09320995693391106
-1.2925168276058934 -1.7371370129296917 0.2865053328423863
-2.081938508391595 -2.671211584680007 0.5179019835515654
-2.883735154028018 -3.5610103663433654 0.7207320353490176
-3.6571986707933455 -4.382101402406101 0.8317140414707374
-4.36761395414088 -5.124325774163733 0.7958419594609233
-4.989322151181956 -5.792593536089625 0.577117785461797
-5.508135420597712 -6.407636843292916 0.16306102829009123
-5.913424916631944 -6.997015738264419 -0.4260361024368897
-6.19837521680888 -7.591105115464609 -1.1420751889916
-6.360216449973527 -8.2152582237905 -1.9385745133580556
-6.3901380494698765 -8.875588065174348 -2.7737331058453067
-6.273826471783623 -9.566945934346352 -3.6329169283037097
-6.007597065963903 -10.271281247961243 -4.48108086053658
-5.603045406887597 -10.989725135813305 -5.301738495276699
-5.093472880643639 -11.714797135906725 -6.0647706284193434
-4.54219568535787 -12.42910611266246 -6.711232404684235
-4.022174186101692 -13.108576767949632 -7.175982487537047
-3.6003415654056474 -13.710904716636588 -7.411045223845609
-3.3041416302417685 -14.199027575029888 -7.423600466328326
-3.118726021672469 -14.579898094524287 -7.2532550802107565
-3.0201789198019773 -14.873728448035822 -6.922408080291646
-2.9998989659998023 -15.090470481433876 -6.429295072477852
-3.0614587886615348 -15.215760093303235 -5.768963770731414
-3.2020425530137704 -15.228664265117006 -4.969907796962758
-3.3999774048152536 -15.135865009803409 -4.089667388802519
-3.621538054604362 -14.97299888512716 -3.1779538909186114
-3.8293711173051146 -14.794642040094772 -2.272322777138324
-3.996340608221093 -14.65825974907165 -1.3832248343267126
-4.108652677548422 -14.614050014719812 -0.5101798335495468
-4.163361937908446 -14.700061389993785 0.34082701705573715
-4.1659206056887434 -14.937359341934894 1.1598592437061155
-4.124759046545416 -15.334474792172012 1.9404446053901654
-4.046996524171522 -15.896526166210482 2.6766251531135072
-3.940355645125107 -16.61913304278163 3.3560441278448954
-3.813588068662663 -17.48078194984897 3.9666316331090314
-3.674145386453511 -18.451068178972758 4.502663322251839
-3.5267806988798047 -19.495453876174736 4.9621232444151495
-3.369447506434882 -20.580381130103 5.351704215684136
-3.191126569689582 -21.68038130154824 5.685679572526052
-2.97809333516766 -22.778238835035726 5.979870553730623
-2.7212524155193516 -23.85824754537651 6.255459841683711
-2.4051864445734616 -24.91129283741598 6.541781871623089
-2.0149303731175636 -25.924381087547555 6.858567990353596
-1.5385903525238622 -26.878548453332712 7.218744802892013
-0.968896697491793 -27.75181058745711 7.631287391647867
-0.3056938313664597 -28.523120406955776 8.10095374580437
0.44465520166180145 -29.178466339124338 8.627243308618292
1.2740114804630287 -29.71180559664849 9.202518375812316
2.174207616785739 -30.125191822559465 9.809578130523606
3.13959516142964 -30.42707039833072 10.430750551241093
4.165199229883462 -30.625340277792823 11.054236258470644
5.242322864733399 -30.72428225379002 11.675690967660945
6.355829353423838 -30.72708825582822 12.297531097382388
7.4871991091287 -30.641145785479257 12.926380821484146
8.62111730554867 -30.48205817508398 13.56906609803998
9.748816392614685 -30.27421230257542 14.229795763197398
10.8671505645059 -30.048443064067637 14.90977965466391
11.974670913922221 -29.83757024846323 15.607442290563803
13.067026159841793 -29.672025935699065 16.31898896306922
14.133299888183284 -29.57833678442497 17.038950318426217
15.15595251165488 -29.578193827408384 17.761454509058545
16.113216043637888 -29.68664929173371 18.48253968619214
16.980429505756454 -29.91054134430946 19.199862055747722
17.734649049885515 -30.247699566631457 19.908878295080672
18.36515708889356 -30.691715468429198 20.604478016743162
18.871692606167482 -31.239118722920768 21.285339873932273
19.256407543147663 -31.88775008473107 21.951692444410586
19.524228776825538 -32.631136586376726 22.603132840000878
19.686800154646622 -33.455972172994684 23.239149755477744
19.761232934264143 -34.345209309078854 23.861915196604198
19.767666605772025 -35.27649553325675 24.476234437480016
19.732215848054032 -36.20835733101228 25.081541404151288
19.68440153748599 -37.06973586233776 25.650848882598897
LINES 1 75
74 0 1 2 3 4 5 6 7 8 9 10 11 12 13 14 15 16 17 18 19 20 21 22 23 24 25 26 27 28 29 30 31 32 33 34 35 36 37 38 39 40 41 42 43 44 45 46 47 48 49 50 51 52 53 54 55 56 57 58 59 60 61 62 63 64 65 66 67 68 69 70 71 72 73
POINT_DATA 74
SCALARS Curvature float 1
LOOKUP_TABLE default
0.0
0.03447871992514926
0.03094372323205911
0.06889762679664271
0.141485559641124
0.228631517521598
0.2703474591130995
0.2345983887728719
0.17147907410646937
0.1296991264520082
0.117073516340364
0.11473702335820966
0.11360074950114264
0.10067581002561554
0.08704498268169229
0.09055613073976747
0.1439715733428885
0.3022453662349192
0.5961318886051418
0.8014843907805616
0.7454300849393338
0.4985036846097877
0.29571217982620207
0.19015218097797082
0.1246495364201278
0.07126895091134677
0.023171075021490392
0.06334009245481217
0.13411691859073985
0.19295558476602817
0.22022481566719845
0.21174533919801974
0.1843056050841774
0.15225013045222968
0.12051728782696099
0.09417976857434586
0.07539270988722788
0.05893118304720593
0.04526267431999967
0.03926089757616842
0.0378260221747015
0.05085292559012464
0.0699311102035663
0.08893218692090157
0.10627063262135884
0.11844730810210635
0.1213261607517407
0.1155941809293547
0.10331734444569801
0.08913429602677768
0.07729264976374703
0.06807461530680334
0.06003346645742449
0.05184847648926597
0.04192082956491822
0.029174088495404604
0.015569910582502526
0.014469121736893015
0.02812796946839392
0.04423980515148196
0.06206318027873862
0.08215037844083237
0.10472650352012666
0.1280883992622192
0.1467802290580377
0.15685960815684305
0.1555223085751644
0.14062228894644574
0.11504319144592146
0.0866043993551456
0.059833252648707175
0.03456127092347317
0.017094486419515015
0.0
SCALARS Torsion float 1
LOOKUP_TABLE default
0.0
0.0
0.6912159779384421
0.28787203554949814
0.13720202133288856
0.10024640282062534
0.10753395946195625
0.16977419001832136
0.29388754579676896
0.3269008480782448
0.21099175590087466
0.026327189788436872
0.04191678066647383
0.08082376554199554
0.1494171770489928
0.33370059553509385
0.3078041417834211
0.1751872326120602
0.046030479454449436
-0.005000285930069147
-0.06659890913915167
-0.03262761680045457
-0.04738464241188767
-0.06535510644961522
-0.08284036771652385
-0.22798098467361294
-0.9864762748825664
-0.3976609728763989
-0.1398066687230543
-0.102670221813592
-0.09013697161914873
-0.0739163761610782
-0.055444627472986424
-0.04707014678454949
-0.037958573216356054
-0.025004307040412427
-0.0015994280277790117
0.08279798789790681
0.2779724770907848
0.39075828015776887
0.43680877735380047
0.32998787277149455
0.1250396150161211
0.054094210019758726
0.03363655785776247
0.0277459113031951
0.01971290124106511
-0.009437317861567388
-0.06378346607513623
-0.09202736735425819
-0.06927163056162221
-0.005608781345840433
0.0701830447271023
0.12808356714779237
0.16146739878701608
0.23234307541853605
0.5948102602759886
0.6552685566805654
0.1979760539781873
0.0628666426707952
0.007811699095622397
-0.028106430638965653
-0.0539274549464761
-0.0544697603645645
-0.026710767632813923
-0.004847986750499252
-0.0009703302056280278
-0.0027293719613574476
-0.002994440628155432
-0.016909349929978192
-0.08066617370045422
-0.34582952596585315
-0.8937132029232501
0.0
SCALARS Distance_to_V float 1
LOOKUP_TABLE default
0.0
1.0793234054622256
2.2239310943343673
3.358138235665997
4.436493530422713
5.428503641110702
6.325206029471853
7.143157280556396
7.909348466150877
8.651707110505134
9.393235263147904
10.13470643571898
10.871205486446932
11.585240542820072
12.284250497916458
12.967320405940153
13.609907811650945
14.165555706582508
14.574992385967949
14.808644502076502
14.8842323397647
14.82143292811084
14.626301760786637
14.295335782708118
13.845468114740502
13.3248695878519
12.786524622315637
12.278361652577596
11.830887426784539
11.46513996053785
11.199219996665532
11.043618123478746
10.999674735384545
11.065528155732716
11.236914763576811
11.502010756399505
11.844254149250052
12.244767051866118
12.68009355917224
13.124014079224587
13.55315855878845
13.946810882223502
14.280516407860606
14.529787603129543
14.670259661201701
14.679903433467683
14.543390102914419
14.25593426543479
13.821494618453446
13.252943711884773
12.566331007653812
11.775471722101232
10.892132381693484
9.929160350190504
8.90223428446833
7.829806782245333
6.733516230113577
5.639270984058468
4.57951462923336
3.597778939591607
2.7583568257368536
2.1545746981074836
1.8774399988076198
1.900880844034186
2.06326110709875
2.2195425469554406
2.2949324673679676
2.2559567585771423
2.0919710583585305
1.8098957747541564
1.4272574007772296
0.9685528617286211
0.4732567884432288
0.0
SCALARS Local_Extrema int 1
LOOKUP_TABLE default
0
0
0
0
0
0
0
0
0
0
0
0
0
0
0
0
0
0
0
0
1
0
0
0
0
0
0
0
0
0
0
0
-1
0
0
0
0
0
0
0
0
0
0
0
0
1
0
0
0
0
0
0
0
0
0
0
0
0
0
0
0
0
-1
0
0
0
1
0
0
0
0
0
0
0
