# vtk DataFile Version 3.0
Curve with Curvature, Torsion, Distance to V, and Extrema
ASCII
DATASET POLYDATA
POINTS 120 float
0.0 0.0 0.0
-0.3516242504119873 -0.3443784713745117 0.3622465133666992
-0.6984490156173706 -0.754643440246582 0.6987204551696777
-1.038308024406433 -1.213484764099121 1.005906581878662
-1.3690515756607056 -1.7035236358642578 1.280341625213623
-1.6884921789169312 -2.2072267532348633 1.5187387466430664
-1.994301438331604 -2.7069740295410156 1.7181482315063477
-2.283868432044983 -3.185516357421875 1.8763427734375
-2.5542250871658325 -3.626824378967285 1.9919238090515137
-2.802244782447815 -4.017525672912598 2.063910484313965
-3.025274395942688 -4.348494529724121 2.0903563499450684
-3.222206711769104 -4.6166229248046875 2.066378593444824
-3.3944894075393677 -4.825993537902832 1.9831457138061523
-3.546721577644348 -4.987760543823242 1.8293218612670898
-3.686456322669983 -5.119289398193359 1.5951848030090332
-3.823069214820862 -5.242269515991211 1.2773785591125488
-3.9656940698623657 -5.380003929138184 0.8828377723693848
-4.120998501777649 -5.554473876953125 0.42959022521972656
-4.291255593299866 -5.783024787902832 -0.0559697151184082
-4.473245739936829 -6.075510025024414 -0.5441923141479492
-4.657948136329651 -6.4322004318237305 -1.0081453323364258
-4.830978512763977 -6.843255996704102 -1.4291400909423828
-4.974277138710022 -7.2901611328125 -1.8002815246582031
-5.068738579750061 -7.749013423919678 -2.1273417472839355
-5.0977665185928345 -8.19498586654663 -2.426821231842041
-5.050845265388489 -8.607222557067871 -2.721762180328369
-4.92581045627594 -8.972866535186768 -3.03641939163208
-4.728864789009094 -9.28894853591919 -3.3912549018859863
-4.472627282142639 -9.562558650970459 -3.7988572120666504
-4.17236053943634 -9.808369636535645 -4.261476993560791
-3.8419333696365356 -10.044539451599121 -4.770400524139404
-3.491160035133362 -10.288609981536865 -5.306589603424072
-3.1251946687698364 -10.553291320800781 -5.842393398284912
-2.7461239099502563 -10.844685554504395 -6.344112873077393
-2.355984330177307 -11.161091327667236 -6.775413990020752
-1.9597665071487427 -11.494412183761597 -7.1012444496154785
-1.5675112009048462 -11.830828666687012 -7.292286396026611
-1.1947494745254517 -12.153605461120605 -7.3293585777282715
-0.8612056970596313 -12.44516897201538 -7.2069172859191895
-0.5882495641708374 -12.689265012741089 -6.933903217315674
-0.39562392234802246 -12.873193502426147 -6.532623767852783
-0.29802000522613525 -12.989881992340088 -6.03494119644165
-0.30217409133911133 -13.038896322250366 -5.476499080657959
-0.4050273895263672 -13.02744460105896 -4.890763759613037
-0.5935851335525513 -12.969165802001953 -4.304312229156494
-0.8468314409255981 -12.882827043533325 -3.734205722808838
-1.1390985250473022 -12.789731740951538 -3.1875967979431152
-1.4443632364273071 -12.711038589477539 -2.6631836891174316
-1.7403019666671753 -12.665238380432129 -2.154118061065674
-2.010965943336487 -12.666564464569092 -1.6512775421142578
-2.2478593587875366 -12.723615169525146 -1.14646577835083
-2.4498292207717896 -12.838577508926392 -0.6347565650939941
-2.621510148048401 -13.008550643920898 -0.11597061157226562
-2.7712069749832153 -13.227607727050781 0.4049954414367676
-2.908279538154602 -13.489786982536316 0.9186844825744629
-3.040542721748352 -13.79216182231903 1.4123449325561523
-3.1720372438430786 -14.135653853416443 1.8719158172607422
-3.301923394203186 -14.524554669857025 2.2844479084014893
-3.424522042274475 -14.964276641607285 2.6406216621398926
-3.530394673347473 -15.457536518573761 2.936816453933716
-3.6080886125564575 -16.002218425273895 3.1761884689331055
-3.646100640296936 -16.589664220809937 3.368701934814453
-3.6348568201065063 -17.204795837402344 3.5301156044006348
-3.568623661994934 -17.82777976989746 3.680344581604004
-3.4467211961746216 -18.435927629470825 3.8411014080047607
-3.273957371711731 -19.006946086883545 4.033170461654663
-3.059935688972473 -19.521801948547363 4.27356743812561
-2.8175183534622192 -19.967670917510986 4.573082089424133
-2.5603314638137817 -20.339770317077637 4.9348262548446655
-2.30007803440094 -20.642300128936768 5.354105889797211
-2.0439778566360474 -20.887237071990967 5.819522500038147
-1.7932111024856567 -21.092580795288086 6.315151572227478
-1.5427478551864624 -21.278783321380615 6.823258697986603
-1.2828892469406128 -21.46504545211792 7.327160120010376
-1.0019110441207886 -21.664724826812744 7.813549876213074
-0.689116358757019 -21.88314437866211 8.274113655090332
-0.33726251125335693 -22.116857051849365 8.706066370010376
0.05593907833099365 -22.354657649993896 9.111558198928833
0.4876549243927002 -22.58075189590454 9.496549844741821
0.950580358505249 -22.778218746185303 9.869418144226074
1.4345058612525463 -22.931843280792236 10.239401817321777
1.9282471537590027 -23.030507564544678 10.61534309387207
2.4216535687446594 -23.068615436553955 11.004145622253418
2.9071580171585083 -23.046473503112793 11.40993356704712
3.3805878162384033 -22.96900987625122 11.833391666412354
3.840983510017395 -22.845163822174072 12.272092819213867
4.289449095726013 -22.685646057128906 12.72102165222168
4.727587580680847 -22.50223970413208 13.173899173736572
5.155871510505676 -22.306485652923584 13.624467372894287
5.57251250743866 -22.1099214553833 14.068019390106201
5.973485350608826 -21.92325496673584 14.502194881439209
6.353511214256287 -21.755441665649414 14.926734447479248
6.708303809165955 -21.612990856170654 15.34282922744751
7.037228941917419 -21.498700618743896 15.752445697784424
7.345615744590759 -21.411561965942383 16.15624189376831
7.645554900169373 -21.347111701965332 16.553635120391846
7.954354643821716 -21.298605918884277 16.942331790924072
8.2909597158432 -21.258862495422363 17.319112300872803
8.671783328056335 -21.221675395965576 17.68064832687378
9.106769919395447 -21.184001922607422 18.02508020401001
9.597902655601501 -21.146234035491943 18.352073192596436
10.139536261558533 -21.11274814605713 18.663590908050537
10.719332098960876 -21.091444492340088 18.963263034820557
11.32060182094574 -21.09226369857788 19.25641965866089
11.924503684043884 -21.125126361846924 19.549686908721924
12.51159131526947 -21.1983699798584 19.85046148300171
13.063787817955017 -21.316677570343018 20.16623067855835
13.565443396568298 -21.480546474456787 20.503921031951904
14.005008101463318 -21.685866832733154 20.869369983673096
14.375653624534607 -21.925262928009033 21.266326427459717
14.675895094871521 -22.1888108253479 21.695963382720947
14.909875273704529 -22.46587610244751 22.15689706802368
15.086161971092224 -22.747268199920654 22.64534044265747
15.216694235801697 -23.026681423187256 23.15519952774048
15.315418601036072 -23.302302360534668 23.677931308746338
15.397188544273376 -23.577677726745605 24.20300531387329
15.476972937583923 -23.86105251312256 24.71833848953247
15.569568037986755 -24.16365337371826 25.210386753082275
15.689689993858337 -24.498324394226074 25.665340900421143
15.8520005941391 -24.878400802612305 26.069300174713135
LINES 1 121
120 0 1 2 3 4 5 6 7 8 9 10 11 12 13 14 15 16 17 18 19 20 21 22 23 24 25 26 27 28 29 30 31 32 33 34 35 36 37 38 39 40 41 42 43 44 45 46 47 48 49 50 51 52 53 54 55 56 57 58 59 60 61 62 63 64 65 66 67 68 69 70 71 72 73 74 75 76 77 78 79 80 81 82 83 84 85 86 87 88 89 90 91 92 93 94 95 96 97 98 99 100 101 102 103 104 105 106 107 108 109 110 111 112 113 114 115 116 117 118 119
POINT_DATA 120
SCALARS Curvature float 1
LOOKUP_TABLE default
0.0
0.1623996332703031
0.1291695978446122
0.1075401220703776
0.09496845759211295
0.0907753782094842
0.096082141717299
0.11550546800043705
0.16107225424153088
0.2633092860603093
0.47435796612852665
0.7417324264171123
0.8330870421107948
0.6753163339094312
0.34855683729014614
0.11428170105516283
0.06056326743982311
0.11060424327073512
0.14867891020908175
0.17291844108796559
0.18441753830529972
0.18576824579233775
0.18921208694129393
0.22362729141919527
0.2992833694691824
0.35805854011206784
0.33728409680261334
0.2483896320877536
0.14807009987786815
0.06836219936523134
0.010957202181322852
0.04160204210982286
0.09301524355165415
0.15923905585171952
0.25592871046118576
0.39329441143247773
0.5516559050207038
0.6589826077372414
0.6634949499032009
0.5821592255167927
0.4725358536707676
0.37731503343640477
0.3013600427000163
0.23711249827165604
0.17663366736875896
0.11663013854692869
0.06861140829124285
0.08978389333852879
0.15502040891814056
0.20345066836113337
0.2112636415388001
0.18619685147988232
0.15034027669267108
0.1257936420426468
0.12715591820046243
0.15275157851481916
0.19070306649290017
0.2234616584787579
0.2331089347927728
0.21617271640230842
0.18305804215201668
0.15060607527775483
0.13328828010059107
0.1416799325124451
0.17531329395366554
0.2230835436030242
0.26588673062934065
0.28304341090099416
0.2625651989488187
0.21048974049757843
0.1394283830142339
0.06290796965984999
0.028853751349539547
0.08572154633844165
0.12492718797938453
0.1364217417241187
0.12738399617774607
0.11382978659917227
0.11047548329127727
0.12240333529179351
0.14109332333750224
0.15472396689529272
0.15517858040125432
0.14204891154237326
0.1174946718794877
0.08909621864037921
0.06076421567905084
0.03614136809851372
0.014778407336237274
0.017233442581489154
0.04304477594242129
0.07275401598785161
0.09685403728279784
0.10155841432041483
0.08465191096671998
0.08024359923963696
0.11705893991721238
0.1493515052604091
0.1510103767640771
0.1299629011589621
0.09950452793077648
0.0724676374741313
0.05996154295762496
0.07050147151196486
0.09915828639598596
0.13577121740582068
0.17522971774239457
0.20928756127810771
0.23049628435098324
0.23185547497151368
0.21292456072281798
0.1803588126166359
0.13994065955992316
0.09515554377929507
0.047736229518217974
0.03342931071195524
0.09295469529259374
0.16644971019410185
0.2351450067921815
0.0
SCALARS Torsion float 1
LOOKUP_TABLE default
0.0
0.0
-0.11364609585944709
-0.15873823980216312
-0.2174417593805351
-0.28243423202117895
-0.32901040153694355
-0.33355316315821226
-0.27109534974391236
-0.13692923031522528
0.027548493103478594
0.1441776167849723
0.20036624536901865
0.25937602317357267
0.4326880817835606
0.9344187362622856
0.9923646374416248
0.3973963933352913
0.09138770362485638
-0.033755569906650726
-0.15687568871159752
-0.3474601385634918
-0.5973902718933113
-0.697604115623692
-0.5980554954757049
-0.46070345388438455
-0.37688665070123334
-0.34435414135605896
-0.3461351715725747
-0.3461522884055888
0.9974831722526758
0.30797714301059853
-0.04651970337578959
-0.09855729508788012
-0.08757616660783411
-0.06893024420006548
-0.036832660911364445
-0.005480511126934193
0.02446168378856105
0.052439485697259494
0.07627784347357264
0.08929641484185218
0.10683551590034078
0.1301646264938646
0.21294898133311618
0.4823622316317601
0.946665528722334
0.8382441225147206
0.3789493924016662
0.1587441010937556
0.04722872513479022
-0.060058077129333545
-0.21291462984156295
-0.3825156287237185
-0.3833663489702343
-0.19972844903339834
-0.02079189239419124
0.09167496032710107
0.16751641973848358
0.24436483800856929
0.3515636455525035
0.49304546485037587
0.6029817013065233
0.5845202935659192
0.4635627478315162
0.3444521119253952
0.26597769376939456
0.21683291765614734
0.1865492069450551
0.15358847105788842
0.08660997491545211
-0.40928754144072765
-0.9982943026438444
-0.2689017583164591
0.03134198221783663
0.1925571116993974
0.3727316202881335
0.5423556278379267
0.5999611093191078
0.5122235383973227
0.3783646982252059
0.26718108407488883
0.192319598058043
0.12542726040164812
0.07343577999795704
0.0013337920367115785
-0.061798547410639205
-0.08146906192538769
0.8045261804310612
0.900084904512293
0.17107815312032826
0.013452856231138732
0.01946800780007009
0.2260563417247473
0.7056022429334919
0.9124821407774706
0.6220765823647284
0.3012652723574899
0.10866452392714843
-0.015383822838741817
-0.1947499809237043
-0.48267201901290846
-0.7009389621248882
-0.5900060712122246
-0.37249456069389153
-0.25156884726473955
-0.20093787580679254
-0.18893982464946574
-0.17989717744531497
-0.18706957174464117
-0.19859966667103893
-0.2008460601956551
-0.19112604541010197
-0.0896775575338401
0.581349573645879
0.9851108479046787
0.3336249641200498
0.10030738462339689
0.04438178673396927
0.0
SCALARS Distance_to_V float 1
LOOKUP_TABLE default
0.0
0.5231179369857769
1.0545658755403546
1.5913829494391722
2.1284133385255597
2.6587120300427087
3.1738590536118005
3.664360950118963
4.120230942498142
4.532094298638465
4.892793229154237
5.199570355192169
5.456062013842721
5.673428719580381
5.870451237653509
6.071918915169859
6.304736662466515
6.592431075061643
6.949166099321937
7.3758254154038045
7.8594322639813905
8.37601468954795
8.895923425432963
9.389908066608877
9.834982667554831
10.219253622431856
10.544480303547811
10.825336127446404
11.085915977462136
11.353202823251998
11.64967343154915
11.987518599361353
12.365067916567712
12.76732836372208
13.168496513100154
13.536942099519404
13.83970384072553
14.048272122960029
14.143046055807512
14.116070681103384
13.97241629025113
13.729423343961022
13.413458760596574
13.056041572516708
12.688669164124875
12.338819702070062
12.02676433325037
11.764393340907732
11.556093529115568
11.401127265906604
11.296018805934699
11.236387552449525
11.218900156286967
11.242377929843528
11.308450548114475
11.421539465123873
11.586902282998938
11.808395467974602
12.086084317996836
12.414039074034712
12.780295481800943
13.16731160571869
13.55352467783491
13.915671849412215
14.230881078028036
14.47954645991603
14.647706860708803
14.729329910222132
14.727183855116438
14.65249617469397
14.522396173440907
14.356749924698757
14.174005151508904
13.987971023547445
13.805208049320074
13.625130144265832
13.441321179374407
13.243700779469739
13.021193479996809
12.763893667817136
12.46424279277768
12.117790824253852
11.723627771267799
11.284337587060138
10.805163706714099
10.293784025104209
9.75918050123242
9.211454481916286
8.661206503649863
8.119750662309972
7.598226824135062
7.106508457420482
6.651683851305226
6.235823864958102
5.855122050829324
5.499332108424879
5.153327840438717
4.800258674134886
4.4253106181429365
4.020195620431357
3.5854064525377742
3.1313142181622866
2.6785898061861095
2.2567436295997894
1.9012714326823574
1.6463280829141382
1.5069890308023837
1.4626652014944173
1.4648431687956138
1.4648852003150232
1.4302966276735802
1.3461713332554577
1.2107543542805925
1.0313360386002042
0.8216455078043224
0.5998346174490335
0.38682040639962606
0.20495096992637624
0.07486570794119471
0.0
SCALARS Local_Extrema int 1
LOOKUP_TABLE default
0
0
0
0
0
0
0
0
0
0
0
0
0
0
0
0
0
0
0
0
0
0
0
0
0
0
0
0
0
0
0
0
0
0
0
0
0
0
1
0
0
0
0
0
0
0
0
0
0
0
0
0
-1
0
0
0
0
0
0
0
0
0
0
0
0
0
0
1
0
0
0
0
0
0
0
0
0
0
0
0
0
0
0
0
0
0
0
0
0
0
0
0
0
0
0
0
0
0
0
0
0
0
0
0
0
0
0
-1
0
1
0
0
0
0
0
0
0
0
0
0
