# vtk DataFile Version 3.0
Curve with Curvature, Torsion, Distance to V, and Extrema
ASCII
DATASET POLYDATA
POINTS 120 float
0.0 0.0 0.0
-0.3892759382724762 -0.4594917297363281 0.16582870483398438
-0.7947640717029572 -0.9200534820556641 0.3374824523925781
-1.2160967886447906 -1.3781242370605469 0.5090141296386719
-1.652866154909134 -1.8300981521606445 0.6745319366455078
-2.1046104729175568 -2.272212028503418 0.828338623046875
-2.570677548646927 -2.7005701065063477 0.9651689529418945
-3.049958735704422 -3.111170768737793 1.0805025100708008
-3.5403232872486115 -3.500596046447754 1.1708946228027344
-4.037708789110184 -3.867154121398926 1.2340126037597656
-4.5350580513477325 -4.212556838989258 1.2685508728027344
-5.021549254655838 -4.543392181396484 1.2738609313964844
-5.482838183641434 -4.871427536010742 1.2496261596679688
-5.902539283037186 -5.2122955322265625 1.1955738067626953
-6.264825373888016 -5.582390785217285 1.111485481262207
-6.557313472032547 -5.995060920715332 0.9971914291381836
-6.772857218980789 -6.457413673400879 0.8524875640869141
-6.910020858049393 -6.968588829040527 0.6769113540649414
-6.971915274858475 -7.5199127197265625 0.4694395065307617
-6.9641328155994415 -8.097002983093262 0.22845077514648438
-6.892832785844803 -8.682655334472656 -0.04786205291748047
-6.763633280992508 -9.25997257232666 -0.3605155944824219
-6.581689387559891 -9.814902782440186 -0.7083034515380859
-6.352799445390701 -10.337864875793457 -1.0861186981201172
-6.084984332323074 -10.824244499206543 -1.4833555221557617
-5.78988316655159 -11.273623943328857 -1.8826828002929688
-5.48306992650032 -11.688244342803955 -2.259889602661133
-5.182844191789627 -12.070635795593262 -2.585066795349121
-4.907484084367752 -12.420945644378662 -2.825495719909668
-4.671899825334549 -12.73486042022705 -2.950193405151367
-4.484854727983475 -13.003302574157715 -2.9356794357299805
-4.347655326128006 -13.213860034942627 -2.7711191177368164
-4.25494197010994 -13.353025197982788 -2.460822105407715
-4.196463614702225 -13.409681558609009 -2.024271011352539
-4.159704238176346 -13.37820839881897 -1.4925870895385742
-4.132602721452713 -13.260049104690552 -0.9026565551757812
-4.105693370103836 -13.063912868499756 -0.29051780700683594
-4.073411971330643 -12.804640769958496 0.3143119812011719
-4.034439116716385 -12.501538753509521 0.8925409317016602
-3.9910793602466583 -12.175632953643799 1.4364261627197266
-3.9477382004261017 -11.848008155822754 1.9486322402954102
-3.908704310655594 -11.537909507751465 2.4391679763793945
-3.875825434923172 -11.26198673248291 2.9212393760681152
-3.847353011369705 -11.034867763519287 3.4069552421569824
-3.8183083832263947 -10.86933422088623 3.903587818145752
-3.7822532951831818 -10.777554988861084 4.411173343658447
-3.7336964905261993 -10.770264625549316 4.921832084655762
-3.669932872056961 -10.856188297271729 5.420749187469482
-3.5918116867542267 -11.039748191833496 5.889325380325317
-3.5035827457904816 -11.320833683013916 6.309609413146973
-3.411975175142288 -11.693075180053711 6.669179201126099
-3.32516410946846 -12.144711971282959 6.964941740036011
-3.251806288957596 -12.659209251403809 7.204488754272461
-3.2001116573810577 -13.217472553253174 7.40455961227417
-3.1770158112049103 -13.80046272277832 7.586792707443237
-3.1873691380023956 -14.391878128051758 7.772110462188721
-3.233326941728592 -14.980067491531372 7.975714802742004
-3.3139746487140656 -15.55921471118927 8.203985571861267
-3.4252269566059113 -16.12895178794861 8.45413601398468
-3.5598473846912384 -16.692678928375244 8.716276407241821
-3.707635909318924 -17.25625981669873 8.976990401744843
-3.8557482063770294 -17.82549250125885 9.223345875740051
-3.9892201721668243 -18.404659271240234 9.446090668439865
-4.0919409096241 -18.995320916175842 9.641453377902508
-4.148009806871414 -19.5963077545166 9.811288386583328
-4.143380671739578 -20.203227281570435 9.961922496557236
-4.067540675401688 -20.809669733047485 10.10233986377716
-3.9146972000598907 -21.407154083251953 10.24203684926033
-3.684233695268631 -21.985663414001465 10.389569222927094
-3.3803270161151886 -22.53461265563965 10.551482796669006
-3.0110576450824738 -23.04231071472168 10.732194721698761
-2.587110549211502 -23.49711847305298 10.933860898017883
-2.1204958260059357 -23.887993812561035 11.157484412193298
-1.6233845055103302 -24.205605030059814 11.403364062309265
-1.1072819530963898 -24.443992137908936 11.67185127735138
-0.5824966728687286 -24.60242462158203 11.963206052780151
-0.05773404240608215 -24.686095714569092 12.277570724487305
0.46033662543050013 -24.707242965698242 12.61423373222351
0.9675155580043793 -24.683114051818848 12.971603393554688
1.46249458193779 -24.634066104888916 13.346273183822632
1.9468494355678558 -24.579720497131348 13.733220100402832
2.4246841371059418 -24.536003589630127 14.126161098480225
2.9017312228679657 -24.51209783554077 14.518615245819092
3.3841314017772675 -24.509674072265625 14.90468454360962
3.8773302733898163 -24.523061752319336 15.27992582321167
4.385031431913376 -24.54231834411621 15.64263391494751
4.908642739057541 -24.55556631088257 15.993202209472656
5.44710299372673 -24.552573204040527 16.334667205810547
5.997130841016769 -24.525671005249023 16.671282291412354
6.5536889731884 -24.471714973449707 17.007842540740967
7.1104826629161835 -24.391687870025635 17.348615646362305
7.660430401563644 -24.29099988937378 17.697269916534424
8.196560353040695 -24.17901086807251 18.055542945861816
8.711896389722824 -24.06871747970581 18.42401123046875
9.200349301099777 -23.97622299194336 18.801920890808105
9.65750452876091 -23.91967248916626 19.187700271606445
10.080437153577805 -23.917601108551025 19.579235076904297
10.468126744031906 -23.985962390899658 19.974736213684082
10.820135563611984 -24.135769844055176 20.373438835144043
11.136170834302902 -24.370638847351074 20.77587890625
11.414914578199387 -24.686060428619385 21.183616638183594
11.653430432081223 -25.070863246917725 21.598888397216797
11.8473000228405 -25.509190559387207 22.02369976043701
11.991145581007004 -25.983299255371094 22.458303451538086
12.079760998487473 -26.47606086730957 22.901137351989746
12.109341114759445 -26.972294807434082 23.348565101623535
12.078605145215988 -27.458800315856934 23.795557975769043
11.989898175001144 -27.924473762512207 24.236921310424805
11.849901646375656 -28.359373092651367 24.66856575012207
11.668929547071457 -28.75457763671875 25.088711738586426
11.460031002759933 -29.102041244506836 25.49835777282715
11.23708388209343 -29.396621704101562 25.900324821472168
11.011941403150558 -29.6380615234375 26.297877311706543
10.792424649000168 -29.833909034729004 26.692282676696777
10.581273525953293 -30.000507354736328 27.081212043762207
10.375503987073898 -30.16295623779297 27.45815372467041
10.168216198682785 -30.35328769683838 27.81309413909912
9.94998213648796 -30.60711669921875 28.133801460266113
9.70970293879509 -30.962188720703125 28.40684413909912
9.436540096998215 -31.45650005340576 28.618700981140137
LINES 1 121
120 0 1 2 3 4 5 6 7 8 9 10 11 12 13 14 15 16 17 18 19 20 21 22 23 24 25 26 27 28 29 30 31 32 33 34 35 36 37 38 39 40 41 42 43 44 45 46 47 48 49 50 51 52 53 54 55 56 57 58 59 60 61 62 63 64 65 66 67 68 69 70 71 72 73 74 75 76 77 78 79 80 81 82 83 84 85 86 87 88 89 90 91 92 93 94 95 96 97 98 99 100 101 102 103 104 105 106 107 108 109 110 111 112 113 114 115 116 117 118 119
POINT_DATA 120
SCALARS Curvature float 1
LOOKUP_TABLE default
0.0
0.028888670328244968
0.03256393143681943
0.040320822897056956
0.05051356600305335
0.06195074190356457
0.07369083168679834
0.08375351330269971
0.08966558589994135
0.08895869797246544
0.08551172576976529
0.1020292145696717
0.16230939722065627
0.24773265440362077
0.3132032517775859
0.32347481149608925
0.2839368660555691
0.22817719812196705
0.1828291920745296
0.1563680605233015
0.14546483103279031
0.14141802159014472
0.1352345074324556
0.12134301645572085
0.09899887488000253
0.07476182637268158
0.08937849433270144
0.212474537067571
0.5071391760299754
0.8691975860575744
0.952132624959657
0.8185320483323416
0.5049896810388024
0.29662780060094196
0.20307330131215726
0.16168153440988822
0.13977293053272088
0.1201197269916252
0.09289821041305893
0.050033331256508655
0.011975842580357464
0.08342055002327438
0.15782017058522912
0.22140569957022518
0.27292768424201963
0.3135939727111369
0.3494173696957874
0.37685953087345975
0.3890173359963895
0.3690684472611495
0.3146022778703158
0.23802261870495997
0.16004795659493518
0.10164248692945403
0.0864458706205911
0.1017452259602206
0.10924431045499827
0.09576096821127185
0.06553318830667297
0.03198945911431113
0.03792143217835346
0.07288345692065328
0.1068912260152201
0.13688516532062905
0.16200867798026714
0.18034251984548505
0.1899306378906184
0.19122596320746765
0.18688011517046985
0.18280235913082138
0.18223391598711813
0.1878338880895054
0.1988470797145849
0.21036191357049736
0.21353496873221456
0.202327287331895
0.1724480154224115
0.1308558851022305
0.0838369344525286
0.04406697475550653
0.035585623173869575
0.05166254718326536
0.06028060220495963
0.05685191953013492
0.04996947909210851
0.05007985014889882
0.05534010248581555
0.06157880415386069
0.06265451053738923
0.05962078146520136
0.053140435375270426
0.046318839894933725
0.049267365126003326
0.07269387764126166
0.1183621225510958
0.18144259785409744
0.24468290533471154
0.28339875298451006
0.27846972362445327
0.23970261770522408
0.19235600825142632
0.15451703812244652
0.1339434846916488
0.12835183498285455
0.13166061605210866
0.13837337883955717
0.1441395526327861
0.14650296662516019
0.1467199019366537
0.149009798233312
0.15758771861827486
0.17013233757481058
0.16287282798418326
0.11014948213853674
0.006017807165507566
0.1699922173824455
0.31941467331111345
0.3675307433847265
0.29969256711261655
0.0
SCALARS Torsion float 1
LOOKUP_TABLE default
0.0
0.0
0.47226261579696094
0.30615423995010815
0.18477231348090006
0.1091601654242718
0.06093322834608305
0.048691256517298706
0.09366750773034348
0.2533483358791983
0.5744558212590796
0.7068169479159457
0.5015630008751233
0.28239245697884374
0.15133912188371032
0.06599532509092297
-0.010441947989755021
-0.09686913849812945
-0.18171719377248374
-0.22627825762611056
-0.20177317137073184
-0.13345182032665176
-0.053703386324515434
0.04316270833786719
0.23651453834433256
0.71085091686221
0.8636735460852171
0.47815747223966126
0.16685297613869615
-0.007209260106647519
-0.1303947621619142
-0.2306569887702895
-0.3050581691260507
-0.3354142820381085
-0.31148455891712185
-0.24973776708998974
-0.17948974965471823
-0.11579154193542507
-0.041390806531877516
0.16233551328789217
0.9994669847406742
0.1257501611278089
0.11645640098563949
0.13965123445317357
0.1384810318286799
0.10542534774465706
0.05295939113650381
0.003294651556313595
-0.041329381759413815
-0.07616464037565603
-0.12323785027929417
-0.21577874590089993
-0.4325305175597805
-0.7805164272600572
-0.8337456814366568
-0.5382139095419058
-0.242724952382521
-0.01861254269820986
0.31584855161865577
0.9529557272017612
0.8653478914593262
0.3973081871595136
0.29346684360968367
0.2805665494782483
0.2742498944290479
0.25251227387481956
0.22351389473122216
0.19688921417358202
0.17026922033326977
0.152425291356173
0.12865663893967588
0.11620141665458092
0.10289517441082106
0.10033567620924579
0.10430565257045094
0.12361094772644865
0.16928398279340515
0.27220480212576154
0.5148089702692982
0.9198650232823399
0.9534470421728004
0.6122642999947828
0.47020285114768745
0.5750853027671323
0.7019890121326882
0.7119393151780055
0.5727794794429626
0.4458356256908624
0.3848260135823771
0.38750435164658587
0.4960932660951186
0.641827177878448
0.7212837017100352
0.5539872822197419
0.35140204106644657
0.2228246152311759
0.14337725971378337
0.07480999972498012
0.0107090635085655
-0.06998126815755118
-0.17203553144260966
-0.2747170958053041
-0.30983328643649655
-0.26809222043878256
-0.1847584956819201
-0.12361601927364203
-0.09945542593865195
-0.137158140465506
-0.23533766562289724
-0.38665128472813426
-0.4761615071878324
-0.4593737509227784
-0.3918319843823348
-0.3617056620195486
1.0
0.04392195670645571
-0.016854594516548048
-0.022139010710388686
-0.009178410242228818
0.0
SCALARS Distance_to_V float 1
LOOKUP_TABLE default
0.0
0.512960201862364
1.0403525276695622
1.581314525763911
2.1348457258276246
2.699762380670776
3.274578673981852
3.8572560922206414
4.444917927209425
5.033444432622066
5.617150012317366
6.188730871642287
6.7398139277224764
7.262217380320762
7.7496862220084175
8.199565860438495
8.613342702839958
8.995978012616662
9.35402673336638
9.693625296256588
10.019183688344304
10.333237349669169
10.63718795367748
10.932237598415934
11.219640501841905
11.499639980595473
11.769375332674098
12.020365823792629
12.23698237096345
12.397439808657202
12.47803437988812
12.458896577498003
12.328661869525769
12.087510735959947
11.7471261552959
11.327889343862843
10.854809849839402
10.353532075514211
9.847531189825478
9.356097182972375
8.894051614783006
8.471616607751606
8.094790515553544
7.766482127598134
7.4874126164674495
7.257601606345914
7.076736471311546
6.944610840588836
6.860730208974694
6.825266012807562
6.839026095183784
6.90363600150301
7.019982708824089
7.18621755022546
7.396602480527578
7.642398075812149
7.914344265848082
8.205323006169822
8.511320853496255
8.830299229878454
9.16042247418255
9.497671458687071
9.834684061350753
10.16067798036625
10.462704956652969
10.727040055413985
10.941422997664146
11.096228094545545
11.185115048757766
11.205213533238759
11.155877822976104
11.038210247192291
10.853942142690833
10.605115303910987
10.294355543325489
9.926012075690176
9.506729289255325
9.046663126787147
8.558369339540125
8.05617038682483
7.55388250201352
7.063142820372693
6.591546714318604
6.1425566242709015
5.715862499041444
5.309262006143324
4.920835034214035
4.550979665465254
4.203683266145053
3.887923562906715
3.617309198773542
3.408309264957079
3.2770963305255223
3.2330061177421667
3.2737075841208347
3.384580126347176
3.542864828397031
3.724011641371632
3.905871123595568
4.0711694316016755
4.2072813351621345
4.304905927189566
4.35686419781825
4.357461286599024
4.3024549100258325
4.189721988045409
4.019921789718829
3.7971170951788595
3.5290214099336263
3.225863702972856
2.8993457835083816
2.5614423005751856
2.2230431969086233
1.8940225473285364
1.5828366494870278
1.2931795112979672
1.0191041577878666
0.7393624935013856
0.41582316830199967
0.0
SCALARS Local_Extrema int 1
LOOKUP_TABLE default
0
0
0
0
0
0
0
0
0
0
0
0
0
0
0
0
0
0
0
0
0
0
0
0
0
0
0
0
0
0
1
0
0
0
0
0
0
0
0
0
0
0
0
0
0
0
0
0
0
-1
0
0
0
0
0
0
0
0
0
0
0
0
0
0
0
0
0
0
0
1
0
0
0
0
0
0
0
0
0
0
0
0
0
0
0
0
0
0
0
0
0
0
0
-1
0
0
0
0
0
0
0
0
0
1
0
0
0
0
0
0
0
0
0
0
0
0
0
0
0
0
