# vtk DataFile Version 3.0
Curve with Curvature, Torsion, Distance to V, and Extrema
ASCII
DATASET POLYDATA
POINTS 120 float
0.0 0.0 0.0
-0.13335943222045898 -0.4133586883544922 0.3065614700317383
-0.33305883407592773 -0.8433160781860352 0.58917236328125
-0.5934700965881348 -1.2877578735351562 0.8519525527954102
-0.9088540077209473 -1.7442140579223633 1.0989742279052734
-1.2730507850646973 -2.209275245666504 1.3340721130371094
-1.6787433624267578 -2.6777267456054688 1.5603322982788086
-2.116281509399414 -3.141775131225586 1.7791366577148438
-2.5726752281188965 -3.5905380249023438 1.9888553619384766
-3.031078815460205 -4.010227203369141 2.1835098266601562
-3.471263885498047 -4.385376930236816 2.3522400856018066
-3.870856761932373 -4.701677322387695 2.4802985191345215
-4.207215309143066 -4.950048446655273 2.551727294921875
-4.459831237792969 -5.131012916564941 2.553281784057617
-4.613300323486328 -5.257767677307129 2.4784750938415527
-4.659862518310547 -5.3556413650512695 2.329486846923828
-4.601656913757324 -5.458312034606934 2.11710262298584
-4.452378273010254 -5.60170841217041 1.8586645126342773
-4.2363786697387695 -5.8166704177856445 1.5741386413574219
-3.9853124618530273 -6.122976303100586 1.2818174362182617
-3.732802391052246 -6.526247978210449 0.994959831237793
-3.5083441734313965 -7.017943382263184 0.7200021743774414
-3.331597328186035 -7.577746391296387 0.4563732147216797
-3.2087478637695312 -8.17741584777832 0.19776439666748047
-3.1314806938171387 -8.785492897033691 -0.06554794311523438
-3.078925132751465 -9.371908187866211 -0.3437938690185547
-3.0221409797668457 -9.912087440490723 -0.6445789337158203
-2.9300756454467773 -10.390225410461426 -0.9700603485107422
-2.775874614715576 -10.80032730102539 -1.3148832321166992
-2.542133331298828 -11.146283626556396 -1.6654253005981445
-2.223971366882324 -11.439246654510498 -2.000676155090332
-1.8299188613891602 -11.693407535552979 -2.2944955825805664
-1.3803091049194336 -11.922668933868408 -2.519108772277832
-0.9036364555358887 -12.1369047164917 -2.6492204666137695
-0.4318375587463379 -12.340781927108765 -2.6659793853759766
0.004413604736328125 -12.533517837524414 -2.5598220825195312
0.3798189163208008 -12.709571599960327 -2.3316164016723633
0.6772418022155762 -12.861091613769531 -1.9916296005249023
0.8887557983398438 -12.979140758514404 -1.5568466186523438
1.014899730682373 -13.056769371032715 -1.0475835800170898
1.0627753734588623 -13.091033697128296 -0.4842348098754883
1.0437476634979248 -13.084137916564941 0.11501312255859375
0.9715726375579834 -13.043566226959229 0.7356681823730469
0.8607892990112305 -12.980394124984741 1.3671741485595703
0.7252578735351562 -12.908134460449219 2.0022764205932617
0.5767176151275635 -12.841661930084229 2.635854721069336
0.42365479469299316 -12.795524835586548 3.2635421752929688
0.2709028720855713 -12.784409999847412 3.880706787109375
0.12017416954040527 -12.822072982788086 4.481858253479004
-0.028606414794921875 -12.920497179031372 5.0607590675354
-0.17562246322631836 -13.089312314987183 5.61108922958374
-0.31982851028442383 -13.334192037582397 6.1274895668029785
-0.4584660530090332 -13.656028032302856 6.60677433013916
-0.5874862670898438 -14.050269603729248 7.0489161014556885
-0.7024421691894531 -14.507124900817871 7.457479238510132
-0.7993459701538086 -15.012239575386047 7.839357137680054
-0.8751788139343262 -15.54929530620575 8.203809976577759
-0.9279079437255859 -16.101449087262154 8.561031818389893
-0.9561448097229004 -16.65370887517929 8.920579195022583
-0.9585967063903809 -17.19424992799759 9.289914906024933
-0.9336023330688477 -17.71602487564087 9.673213839530945
-0.8789186477661133 -18.216260194778442 10.07060021162033
-0.7918062210083008 -18.696485996246338 10.478082433342934
-0.6692733764648438 -19.161033391952515 10.88785207271576
-0.5082659721374512 -19.61487865447998 11.290058612823486
-0.3056764602661133 -20.061642169952393 11.674022555351257
-0.058248043060302734 -20.501290798187256 12.030969500541687
0.2373638153076172 -20.929362773895264 12.355035781860352
0.584148645401001 -21.33753776550293 12.644321918487549
0.9839143753051758 -21.715428829193115 12.900771379470825
1.4363126754760742 -22.053402423858643 13.129271268844604
1.938197374343872 -22.344207286834717 13.336475372314453
2.483542799949646 -22.584322452545166 13.529863119125366
3.0641170740127563 -22.774062633514404 13.716570854187012
3.6704950034618378 -22.916056632995605 13.902331113815308
4.2932566702365875 -23.01383924484253 14.09142279624939
4.923821687698364 -23.07077646255493 14.286287784576416
5.555074572563171 -23.088787078857422 14.488199710845947
6.1814587116241455 -23.06763792037964 14.69719123840332
6.798872947692871 -23.005723476409912 14.912805080413818
7.404430627822876 -22.900561809539795 15.134746551513672
7.996183395385742 -22.750643253326416 15.36286973953247
8.572914600372314 -22.557480335235596 15.597679615020752
9.134044170379639 -22.32754611968994 15.84027624130249
9.679491519927979 -22.07257890701294 16.09213352203369
10.209712505340576 -21.81019163131714 16.355138301849365
10.72567081451416 -21.561357021331787 16.631306648254395
11.228759288787842 -21.348034858703613 16.922553062438965
11.721089363098145 -21.18964433670044 17.23001194000244
12.204669952392578 -21.099321842193604 17.55449390411377
12.681447982788086 -21.081425189971924 17.895974159240723
13.152233123779297 -21.13094139099121 18.25398015975952
13.615489959716797 -21.23447036743164 18.62788486480713
14.066594123840332 -21.3738374710083 19.017000198364258
14.496915817260742 -21.530455589294434 19.421606063842773
14.894725799560547 -21.6887845993042 19.84208106994629
15.246294975280762 -21.83947467803955 20.279093742370605
15.53917407989502 -21.980082988739014 20.732749938964844
15.7638521194458 -22.114715099334717 21.20189666748047
15.916566848754883 -22.25378704071045 21.68307590484619
15.999686241149902 -22.41224765777588 22.170920372009277
16.021270751953125 -22.607239723205566 22.657721519470215
15.992772102355957 -22.8545560836792 23.134831428527832
15.927502632141113 -23.166096687316895 23.59320640563965
15.83797550201416 -23.547008991241455 24.0249080657959
15.73497486114502 -23.995265007019043 24.42391872406006
15.626755714416504 -24.502962112426758 24.787134170532227
15.519231796264648 -25.056889533996582 25.115286827087402
15.416107177734375 -25.641772270202637 25.41309928894043
15.319829940795898 -26.241276741027832 25.689457893371582
15.231378555297852 -26.84004783630371 25.95599365234375
15.150792121887207 -27.425485610961914 26.225826263427734
15.076559066772461 -27.98851203918457 26.510805130004883
15.005777359008789 -28.5244083404541 26.820262908935547
14.933770179748535 -29.03311538696289 27.15928077697754
14.854360580444336 -29.51837730407715 27.528779983520508
14.760108947753906 -29.98680305480957 27.92625617980957
14.64305591583252 -30.446724891662598 28.346904754638672
14.494928359985352 -30.9075288772583 28.784841537475586
14.30739974975586 -31.378400802612305 29.233999252319336
LINES 1 121
120 0 1 2 3 4 5 6 7 8 9 10 11 12 13 14 15 16 17 18 19 20 21 22 23 24 25 26 27 28 29 30 31 32 33 34 35 36 37 38 39 40 41 42 43 44 45 46 47 48 49 50 51 52 53 54 55 56 57 58 59 60 61 62 63 64 65 66 67 68 69 70 71 72 73 74 75 76 77 78 79 80 81 82 83 84 85 86 87 88 89 90 91 92 93 94 95 96 97 98 99 100 101 102 103 104 105 106 107 108 109 110 111 112 113 114 115 116 117 118 119
POINT_DATA 120
SCALARS Curvature float 1
LOOKUP_TABLE default
0.0
0.22000065437682306
0.17314903677258772
0.1332162385773409
0.1018942147396574
0.07915401575554344
0.06432306966620552
0.05706515027558243
0.05768482136434037
0.07035625380314554
0.11163748697372759
0.23935749461892775
0.6173650453550072
0.9863291414623113
0.9991679381254115
0.9111735474617256
0.46932932799035026
0.2682629435553343
0.23398753186617285
0.2203229214227651
0.20108635051891707
0.17434503189027187
0.14121096243237813
0.10386998394835957
0.07713712837733627
0.11043648281249262
0.1976284343183791
0.2870097789784211
0.33123496945129727
0.3226658692144043
0.2967913274038123
0.29244852111122444
0.32965736565341797
0.4039198428731798
0.4903703018019152
0.546260763649282
0.5380153443223107
0.4706340375642258
0.37665494534589
0.2865648916911653
0.21182008140101485
0.15070664598763667
0.10013922395229405
0.0580281902944329
0.033386765881797426
0.04947805383837624
0.086117867401541
0.12820091338526715
0.17170910704637238
0.21116542216923734
0.23534491369747157
0.23650510082000029
0.21415559689044572
0.17618124022792156
0.13246804075923663
0.09250992578592926
0.06353250492896646
0.05648507000499844
0.06910068683103922
0.08458503731619137
0.09433170001467776
0.09665668758401777
0.09668618945480693
0.10265329521692265
0.11765665083136657
0.13727302116063822
0.156896316926817
0.17361017303953657
0.1858408273904907
0.19015331532450988
0.18440891361298212
0.16834442661399043
0.14593665124420296
0.12391572984957616
0.10630474693905395
0.09452825933019199
0.08967945824029284
0.09155787203500775
0.09746766406136306
0.10556889481515146
0.11078681425831426
0.10831974604353854
0.09494125983426469
0.0725472722104145
0.046888123052093195
0.051579762036642864
0.0976477566282722
0.15432769899796744
0.19949621525388958
0.2135782057576381
0.19291619938347102
0.15009481285917703
0.10594397760136089
0.0831902938103032
0.09637797317518017
0.1370133227358552
0.18592971381960835
0.23202259719983367
0.2586582587081009
0.2623910182261105
0.25170101000146633
0.23969961804582773
0.22780574327084332
0.21031000303781086
0.18583305161394237
0.15737672429286048
0.12583330476218443
0.09394772366931957
0.05981262169320111
0.025670852941606877
0.025452322628466483
0.05965306575768338
0.08954161218544622
0.1044577374449769
0.1031263395460683
0.09057368963953004
0.07646108038161009
0.0700536240799153
0.07338826991360474
0.0
SCALARS Torsion float 1
LOOKUP_TABLE default
0.0
0.0
-0.0604607857711459
-0.08221166612683367
-0.11871568332887195
-0.16710283660081374
-0.19918607772041944
-0.1679756490610327
-0.018536841805388282
0.2253666382195398
0.4201257867343747
0.5000184704953782
0.5528196664129612
0.6422822502447837
0.7672104387202353
0.9050428605044154
0.9785948635320921
0.9549598715710967
0.7058477056659713
0.4430630944228586
0.3332905677326634
0.3134160229793353
0.3786574307571942
0.6041037242318337
0.9019916946364037
0.7694054404623738
0.45726712629303856
0.33914755761042586
0.3419360028294514
0.40970395455343844
0.49099266177714074
0.5181384199536667
0.43359680579299714
0.3013536260539201
0.17658316776512448
0.07395223071788452
0.0024521685010906458
-0.06468033126651015
-0.10003798273606337
-0.10817567669190539
-0.08576198490262744
-0.026098351921149412
0.08274196637009325
0.4441117284030254
0.9487504519144335
0.6672985790682774
0.20007885950075127
0.02827418451684882
-0.023031615237037298
-0.021855866334975157
0.002821814033175933
0.03816570526025329
0.07903344800582202
0.13281395054797288
0.227546595406704
0.4130325425227448
0.7005619267297011
0.7572038638812275
0.49419895089636035
0.20280392454119384
-0.0039048714237591986
-0.19644938633314024
-0.36405988660341615
-0.40054129945749267
-0.31693399567282987
-0.14684319149496775
0.004940096551683787
0.1245651968786067
0.1945655266852061
0.2145614891609242
0.21568196916390878
0.21425709510931837
0.21487278775185234
0.21490789688425285
0.21578815134921311
0.18507613635630304
0.13946569831803354
0.0629355001665697
0.016832795908710993
0.0018988626461189963
0.0038443950273351073
0.03962736510813274
0.11814745454763255
0.31254412264416687
0.8249482515129909
0.8553554157857675
0.41488956488809925
0.1989962237523954
0.09710917717255105
0.049469999383765555
-0.009435136284495771
-0.13277815007228605
-0.4024764120154803
-0.711792624239171
-0.5838522063782798
-0.22386622769104403
0.00801687829267822
0.14859316795409364
0.2797390200076191
0.4009157196914227
0.498363705719944
0.4958122267810898
0.43179351910087277
0.32036512547988855
0.2314585626245298
0.16481742932593707
0.12988995750053298
0.12934254331515305
0.27005078837542057
0.8883086256881754
0.9160172659184628
0.2969395480301089
0.15798271574028055
0.16639484131190138
0.23849320334972304
0.38001102179870594
0.5308915652909818
0.5758202973835839
0.4468494240590104
0.0
SCALARS Distance_to_V float 1
LOOKUP_TABLE default
0.0
0.2940214764041213
0.6543001381101694
1.0754711263666514
1.5515806758980897
2.0757371083827905
2.639171960913224
3.2298993636408433
3.8316105822944535
4.423256982735465
4.979924805661638
5.475069647791148
5.88394740061624
6.187890748769571
6.37894351773097
6.4630090795324255
6.4616035338301545
6.411662431010149
6.36098927978865
6.359588474918253
6.448425344838295
6.649646976176383
6.962644081836728
7.367492187485308
7.832527640098856
8.322010814084491
8.802161363593896
9.24567569111425
9.634255803533245
9.959778277653424
10.222398849422651
10.426339993415192
10.575712148180617
10.670631895931807
10.706816748532885
10.677425286151415
10.576087638200617
10.400265497815333
10.152131338725418
9.83934233659882
9.474273818959869
9.072793606306163
8.652681645584996
8.231667880124956
7.826614463349521
7.453347089529023
7.126329262873687
6.859539543739759
6.665560645272082
6.553947699511945
6.529407872034879
6.589883526418573
6.72655327622967
6.9252577226330025
7.1688164324127985
7.438982939199267
7.718566507587465
7.992073926162739
8.246617924714634
8.472196395253171
8.662338134676467
8.813688984233966
8.925985083038203
9.001193129730385
9.041988870400981
9.050493192538257
9.026525158473262
8.967233570898824
8.867593041299097
8.721932099762922
8.526215055631365
8.279426618008864
7.984385369680091
7.647474000661583
7.277259721124311
6.882834061620962
6.4728675371344995
6.054321398770115
5.632255021841563
5.210494872340493
4.792313375586554
4.382658315670774
3.9904226229869133
3.630918187863848
3.326514954604039
3.1046637370965113
2.9895479143517947
2.9910550241947944
3.0989516459607103
3.2872893246429644
3.526872357822513
3.793376390260125
4.069224999982216
4.341943075693749
4.600510751267114
4.834165994248643
5.031383359963994
5.181896983053052
5.277492447341126
5.313823461530009
5.2899981345180445
5.207898532636516
5.070580581534763
4.882063492062772
4.64704214795153
4.371724548257225
4.063907664760192
3.733780643485692
3.392680758490178
3.05280059022316
2.724666771637394
2.4152390300569273
2.1259672973694537
1.852725863058582
1.586841141253346
1.317544672815899
1.033806394915421
0.7256335597602841
0.3838898419377562
0.0
SCALARS Local_Extrema int 1
LOOKUP_TABLE default
0
0
0
0
0
0
0
0
0
0
0
0
0
0
0
1
0
0
0
-1
0
0
0
0
0
0
0
0
0
0
0
0
0
0
1
0
0
0
0
0
0
0
0
0
0
0
0
0
0
0
-1
0
0
0
0
0
0
0
0
0
0
0
0
0
0
1
0
0
0
0
0
0
0
0
0
0
0
0
0
0
0
0
0
0
0
0
-1
0
0
0
0
0
0
0
0
0
0
0
0
1
0
0
0
0
0
0
0
0
0
0
0
0
0
0
0
0
0
0
0
0
