# vtk DataFile Version 3.0
Curve with Curvature, Torsion, Distance to V, and Extrema
ASCII
DATASET POLYDATA
POINTS 120 float
0.0 0.0 0.0
-0.11385965347290039 -0.8012962341308594 -0.5172381401062012
-0.2966337203979492 -1.5465660095214844 -0.8152680397033691
-0.5358681678771973 -2.236837387084961 -0.9371075630187988
-0.8190798759460449 -2.8732547760009766 -0.9258174896240234
-1.133692741394043 -3.457303047180176 -0.8244595527648926
-1.4670414924621582 -3.991151809692383 -0.6757535934448242
-1.8065028190612793 -4.47808837890625 -0.5211272239685059
-2.139744281768799 -4.922969818115234 -0.3989067077636719
-2.4551830291748047 -5.33245849609375 -0.34177446365356445
-2.7425169944763184 -5.715041160583496 -0.37395477294921875
-2.993075370788574 -6.080680847167969 -0.509213924407959
-3.1999402046203613 -6.440027236938477 -0.7501144409179688
-3.357855796813965 -6.8032426834106445 -1.0887184143066406
-3.4629669189453125 -7.178651809692383 -1.5087294578552246
-3.512484550476074 -7.571551322937012 -1.9887375831604004
-3.5043601989746094 -7.983624458312988 -2.5057835578918457
-3.4371862411499023 -8.413084030151367 -3.038719654083252
-3.3102993965148926 -8.855353355407715 -3.5705838203430176
-3.123959541320801 -9.304213523864746 -4.0899529457092285
-2.879523277282715 -9.753244400024414 -4.591243267059326
-2.579637050628662 -10.197176933288574 -5.073868274688721
-2.2283682823181152 -10.632901191711426 -5.540591716766357
-1.8313980102539062 -11.060195446014404 -5.995367527008057
-1.3960785865783691 -11.481017589569092 -6.44120454788208
-0.9313716888427734 -11.898604393005371 -6.878250598907471
-0.44769716262817383 -12.315943241119385 -7.302358150482178
0.04331159591674805 -12.733826637268066 -7.7043776512146
0.5291619300842285 -13.150241374969482 -8.070230960845947
0.9968323707580566 -13.559488296508789 -8.381792545318604
1.433201789855957 -13.953227519989014 -8.61873483657837
1.8256723880767822 -14.321974277496338 -8.760999202728271
2.162959337234497 -14.656579971313477 -8.791696071624756
2.435943365097046 -14.949840068817139 -8.700034618377686
2.638375759124756 -15.197932243347168 -8.48358964920044
2.767126441001892 -15.400658130645752 -8.149160861968994
2.821899175643921 -15.56093716621399 -7.7124810218811035
2.804361939430237 -15.68376111984253 -7.196156024932861
2.7170493602752686 -15.774779796600342 -6.626894474029541
2.562410831451416 -15.838798761367798 -6.032555103302002
2.3423447608947754 -15.878776788711548 -5.439306735992432
2.0584516525268555 -15.895503044128418 -4.869247913360596
1.712954044342041 -15.886719465255737 -4.338594913482666
1.3098597526550293 -15.847441673278809 -3.856966495513916
0.8557922840118408 -15.770122051239014 -3.427055835723877
0.36025142669677734 -15.64554214477539 -3.044966220855713
-0.16477727890014648 -15.464471578598022 -2.701244831085205
-0.7056746482849121 -15.219555854797363 -2.382354259490967
-1.2480478286743164 -14.907363414764404 -2.0723633766174316
-1.7774324417114258 -14.529553890228271 -1.7548632621765137
-2.279508590698242 -14.09398889541626 -1.4148592948913574
-2.739990711212158 -13.614632606506348 -1.040489673614502
-3.1444249153137207 -13.110763549804688 -0.6244511604309082
-3.4781312942504883 -12.605768203735352 -0.1649479866027832
-3.726618766784668 -12.125312805175781 0.33396387100219727
-3.876753807067871 -11.6955885887146 0.8626351356506348
-3.918466567993164 -11.341277122497559 1.4067797660827637
-3.846673011779785 -11.08375072479248 1.9489903450012207
-3.6631317138671875 -10.939344882965088 2.4705934524536133
-3.377558708190918 -10.918121814727783 2.9536945819854736
-3.0076494216918945 -11.023415088653564 3.383192300796509
-2.5782113075256348 -11.251895904541016 3.7484967708587646
-2.1191372871398926 -11.59432077407837 4.044848203659058
-1.662618637084961 -12.037285804748535 4.27393364906311
-1.239729881286621 -12.565029621124268 4.4435648918151855
-0.8769145011901855 -13.160736083984375 4.5667405128479
-0.592963695526123 -13.80763292312622 4.6601457595825195
-0.3968510627746582 -14.489952564239502 4.7420876026153564
-0.2866067886352539 -15.192996740341187 4.830307245254517
-0.24983882904052734 -15.90373945236206 4.93990159034729
-0.26534271240234375 -16.610405683517456 5.081746220588684
-0.3057675361633301 -17.302496433258057 5.261711597442627
-0.34087181091308594 -17.970684945583344 5.480772256851196
-0.34090614318847656 -18.606482312083244 5.735894560813904
-0.27988147735595703 -19.202506810426712 6.021469533443451
-0.1383213996887207 -19.75231444835663 6.331044256687164
0.09500598907470703 -20.25048589706421 6.658695966005325
0.4225907325744629 -20.693103551864624 6.999945156276226
0.8388428688049316 -21.07775855064392 7.352058827877045
1.3317277431488037 -21.403276443481445 7.713767826557159
1.8850650787353516 -21.66965627670288 8.0846027135849
2.481031656265259 -21.877878665924072 8.464108943939209
3.102285623550415 -22.029059886932373 8.851223587989807
3.7337186336517334 -22.124326705932617 9.243930578231812
4.363408744335175 -22.164118766784668 9.639412641525269
4.9829822182655334 -22.148444414138794 10.034480571746826
5.587555229663849 -22.07782292366028 10.426069498062134
6.175305724143982 -21.95370841026306 10.811772346496582
6.746959686279297 -21.78007411956787 11.190335273742676
7.305327653884888 -21.56423592567444 11.561570644378662
7.854787111282349 -21.31715965270996 11.925997257232666
8.400793313980103 -21.053305864334106 12.284446716308594
8.949334144592285 -20.789616346359253 12.637574195861816
9.506260871887207 -20.54387891292572 12.985408306121826
10.076647281646729 -20.333252906799316 13.327289581298828
10.664355754852295 -20.172473549842834 13.661918640136719
11.271220207214355 -20.072655081748962 13.987849235534668
11.897084712982178 -20.040778160095215 14.303964138031006
12.539626598358154 -20.07963788509369 14.610097408294678
13.193973541259766 -20.188252329826355 14.907698154449463
13.852880477905273 -20.362633109092712 15.200067043304443
14.506994247436523 -20.596524953842163 15.491963863372803
15.144463539123535 -20.882603645324707 15.78945779800415
15.75171184539795 -21.213186025619507 16.09911870956421
16.313922882080078 -21.58120107650757 16.427114009857178
16.81565284729004 -21.98077392578125 16.77799081802368
17.242076873779297 -22.407280921936035 17.153655529022217
17.580368995666504 -22.857473850250244 17.553189754486084
17.820857048034668 -23.32908868789673 17.972046375274658
17.9583101272583 -23.820429801940918 18.402626514434814
17.992026329040527 -24.329593181610107 18.835175037384033
17.92589282989502 -24.854435443878174 19.258968830108643
17.768027305603027 -25.39250612258911 19.6635479927063
17.52943992614746 -25.940677165985107 20.040015697479248
17.222637176513672 -26.495854377746582 20.382522106170654
16.86083984375 -27.054818153381348 20.688232898712158
16.456697463989258 -27.614758491516113 20.95790433883667
16.02155590057373 -28.17353916168213 21.195496082305908
15.565145492553711 -28.729782104492188 21.40738821029663
15.095993995666504 -29.282687187194824 21.601354122161865
LINES 1 121
120 0 1 2 3 4 5 6 7 8 9 10 11 12 13 14 15 16 17 18 19 20 21 22 23 24 25 26 27 28 29 30 31 32 33 34 35 36 37 38 39 40 41 42 43 44 45 46 47 48 49 50 51 52 53 54 55 56 57 58 59 60 61 62 63 64 65 66 67 68 69 70 71 72 73 74 75 76 77 78 79 80 81 82 83 84 85 86 87 88 89 90 91 92 93 94 95 96 97 98 99 100 101 102 103 104 105 106 107 108 109 110 111 112 113 114 115 116 117 118 119
POINT_DATA 120
SCALARS Curvature float 1
LOOKUP_TABLE default
0.0
0.296033051461171
0.3214081556933472
0.29456216132021873
0.2341339850917456
0.16206528346545343
0.09277966477780995
0.09572928304848091
0.22139475537820746
0.3796452698967389
0.47417886166871004
0.4471062876375405
0.3412959028230895
0.23535273739404433
0.16577451226137402
0.13122401357700578
0.11911349578799767
0.11745914583986188
0.11838870094926057
0.11728624432521773
0.11158040858852607
0.10047848744752841
0.08458375653882186
0.06646240236698947
0.049461933640777805
0.03821580790984293
0.0386254044673885
0.05344588661330063
0.08426641668475442
0.14200946508357187
0.2519252384243999
0.4443063714583944
0.6704947397002803
0.7640195406608413
0.6696827700828578
0.47003462005988983
0.30534994079529204
0.21312287602791874
0.17285213092177726
0.16449995740746035
0.17420738741173525
0.19074701975655964
0.20305490288670539
0.20306383901453953
0.18918751542970724
0.16689994681799833
0.1443403571756927
0.1267627650171043
0.11628926052905494
0.1120472433699144
0.11421596639129987
0.12374276107725118
0.14260941483979628
0.1742790025410573
0.22348696155025125
0.29401842778812
0.3800685279731848
0.45394054668000483
0.4774841678985299
0.43972606488582283
0.36758172722660665
0.2962209589858222
0.2437473730934743
0.2124092538554332
0.19721858745756232
0.19060076038888304
0.18395180976897946
0.16987205338522177
0.14662568743480078
0.11769843238271907
0.09274973215315684
0.09023753508699323
0.1218448001732034
0.17331191036933288
0.22418216650301726
0.254786905385206
0.2539367934252108
0.22696948118000587
0.18934490032837972
0.1538649862589859
0.12658158985151235
0.10947708067532136
0.1009680616617465
0.09974375088484042
0.10306339785105237
0.10714276503474261
0.10915734682182895
0.10426628078149161
0.09009502930793255
0.0668397100669711
0.036526006968665696
0.011811121265261015
0.04144661204647931
0.07791227706827576
0.10978392715461247
0.1320919225605994
0.14233342116977984
0.1405549171708376
0.1299311813196062
0.11544975511612261
0.10181666143366935
0.09421303259810196
0.09580379921531802
0.10852849956673621
0.1315400199983347
0.16139715419546824
0.19323387492075345
0.21946816135589764
0.2324963410979914
0.23008454569049575
0.21452629280921867
0.1911176489781302
0.1661085237916119
0.14202050239539363
0.11981745430490923
0.09897191169861208
0.07881846840370405
0.059010949063229554
0.03942999775728461
0.0
SCALARS Torsion float 1
LOOKUP_TABLE default
0.0
0.0
0.041494809500906414
0.07145486395132893
0.14017876730762374
0.3430529046933351
0.8881194425832448
0.9559331485410363
0.49342512820604
0.258233678078309
0.19755641701965443
0.20357721205591664
0.2516709374813136
0.32975717464684584
0.39842277151786853
0.3916722301183033
0.2908157632903629
0.1586682492684196
0.04725324834408756
-0.03141354583666412
-0.07903116322117644
-0.09768362517675293
-0.07540544703643354
-0.011864367123030017
0.15044673484672208
0.4149598480027472
0.46963830056839917
0.27522017367627283
0.09129398788009147
0.011041424550297357
-0.013197907756082025
-0.01381262090449652
-0.000950694952086488
0.02352541165640971
0.05508535253143505
0.09831177314448741
0.15407636001585137
0.2056342284224644
0.21376840550921983
0.16358162069932544
0.0880430576821546
-0.0005266451451519244
-0.07840824624331676
-0.16491740267531538
-0.26209113017380264
-0.35800039798701566
-0.43010130434931193
-0.45793543335819276
-0.4392464098333689
-0.394982235295248
-0.338112094725864
-0.27433610569570066
-0.2106890297122481
-0.1510839919618085
-0.10441661831038247
-0.07163301116987324
-0.05422937931216687
-0.050647335343950176
-0.05995304838596941
-0.08243297284664683
-0.11883672464581697
-0.16851286939928103
-0.2287365182562273
-0.27943280138350446
-0.30346247939502385
-0.3033501531159178
-0.29426647121865834
-0.29998063553834203
-0.3425761714855392
-0.4612482496837859
-0.6613600557795941
-0.7280700313910543
-0.5322308035978109
-0.3202012309379969
-0.1883233040214514
-0.10506636168662495
-0.04453888140717518
0.009049315269245774
0.06239277567610114
0.11273933025450943
0.15151662231586413
0.16716412221668692
0.14503956572654314
0.0967545336819671
0.043542381206572105
0.0019131349581134258
-0.023507267066820447
-0.0331879526977958
-0.04739786467053221
-0.09599788566750406
-0.36443497917449796
-0.9996470111368149
-0.3547230831127951
-0.09597845482462858
-0.033984014613409254
-0.018401699351209673
-0.016258756755192973
-0.02891939956686365
-0.06378274958741997
-0.11885214058777482
-0.18669884496544348
-0.26134170923420497
-0.2811098342849677
-0.23246210767447026
-0.14992407863803608
-0.07491813781842704
-0.019362478672773145
0.027859752564428852
0.06295245472247021
0.08738217803787533
0.10870670313061045
0.1272121772315482
0.13300574909290622
0.12833416078430665
0.12137208243445555
0.10225262555455751
0.0774387691993792
0.04601095864823823
0.012075545718110217
0.0
SCALARS Distance_to_V float 1
LOOKUP_TABLE default
0.0
0.9222559365084466
1.6726475872913027
2.2975256458584314
2.8384013281114635
3.3293108856044693
3.7948891091865424
4.250055917902657
4.701669433036088
5.151715081473353
5.60093931195486
6.051589064804103
6.508262601357252
6.97677282089536
7.4617964311897085
7.964613848475315
8.482087825040468
9.007439379282069
9.532171710479025
10.048455224544659
10.551266149655088
11.03959478561968
11.516500035806468
11.988212026862975
12.46183061831384
12.94275600729258
13.431974206448682
13.923765456502588
14.405182174633776
14.85634506493095
15.25297075795771
15.569786446108258
15.784290758109714
15.880559940843264
15.852310847172753
15.703974218571163
15.450240989705193
15.113731634382578
14.721785579538736
14.303012923414578
13.884219609696489
13.488067563759618
13.130711377384786
12.820862540231982
12.558994267400173
12.337677700526923
12.1433411683055
11.958989859520354
11.767484544589513
11.554396650159614
11.310406476180445
11.032192222607202
10.722061821994792
10.386530955830496
10.034036736181726
9.672881975944847
9.309666958724806
8.949012825963166
8.594677214912965
8.25167109521678
7.928603119234856
7.639315543818877
7.402688389426383
7.2404460226079195
7.172654515023935
7.212157019386173
7.360529791614204
7.607390452360958
7.932388889830635
8.309382048176307
8.70964430926258
9.104388671756787
9.466361374601007
9.77090652628857
9.997432884563713
10.130561041877856
10.161113002437444
10.086666148752688
9.911066535354136
9.643098857320618
9.294844711378506
8.879877505047437
8.411363265157695
7.900925982710412
7.357622905088897
6.787870320208583
6.196077764283728
5.585153116616823
4.957818334217873
4.317733177974107
3.6706643269774797
3.0259365602491073
2.399002459867461
1.8183476184555747
1.345697428208621
1.1111886142154503
1.2307271649037896
1.6023892584098303
2.0734537233730745
2.5702889941269063
3.061976257250142
3.5324125065554712
3.969260020173559
4.360777833303273
4.694646519949571
4.958036078484939
5.138787011420006
5.226655846201681
5.214592037804597
5.099859214278465
4.884111773437716
4.573151434159062
4.17637339460291
3.7055490207550847
3.173245087772396
2.5923537343592566
1.974863526851135
1.3312790917025972
0.6704361592819398
0.0
SCALARS Local_Extrema int 1
LOOKUP_TABLE default
0
0
0
0
0
0
0
0
0
0
0
0
0
0
0
0
0
0
0
0
0
0
0
0
0
0
0
0
0
0
0
0
0
1
0
0
0
0
0
0
0
0
0
0
0
0
0
0
0
0
0
0
0
0
0
0
0
0
0
0
0
0
0
0
-1
0
0
0
0
0
0
0
0
0
0
0
1
0
0
0
0
0
0
0
0
0
0
0
0
0
0
0
0
0
0
-1
0
0
0
0
0
0
0
0
0
0
0
1
0
0
0
0
0
0
0
0
0
0
0
0
