# vtk DataFile Version 3.0
Curve with Curvature, Torsion, Distance to V, and Extrema
ASCII
DATASET POLYDATA
POINTS 120 float
0.0 0.0 0.0
-0.28864336013793945 -0.702723503112793 0.4038710594177246
-0.5932633876800537 -1.2429351806640625 0.5756916999816895
-0.9054315090179443 -1.6502447128295898 0.553347110748291
-1.2169454097747803 -1.9546432495117188 0.3745846748352051
-1.5200750827789307 -2.1870527267456055 0.07675647735595703
-1.8076274394989014 -2.3794708251953125 -0.3036928176879883
-2.0726583003997803 -2.564213752746582 -0.7321763038635254
-2.3078958988189697 -2.771794319152832 -1.1774120330810547
-2.505371332168579 -3.027751922607422 -1.6132235527038574
-2.656940221786499 -3.349154472351074 -2.020573616027832
-2.755767583847046 -3.741893768310547 -2.3891220092773438
-2.7982208728790283 -4.199741363525391 -2.7176504135131836
-2.7852237224578857 -4.705195426940918 -3.013277053833008
-2.722426652908325 -5.2321929931640625 -3.289639472961426
-2.6187756061553955 -5.750123023986816 -3.564084053039551
-2.4838244915008545 -6.228654384613037 -3.854541778564453
-2.324575662612915 -6.642250061035156 -4.176657676696777
-2.143059492111206 -6.974088668823242 -4.541522979736328
-1.935800313949585 -7.218550205230713 -4.954123497009277
-1.6957981586456299 -7.381815433502197 -5.412688255310059
-1.4163105487823486 -7.480412483215332 -5.908693313598633
-1.095167875289917 -7.537738800048828 -6.427138328552246
-0.7382781505584717 -7.579309463500977 -6.946937561035156
-0.3609144687652588 -7.628011703491211 -7.441567420959473
0.013193368911743164 -7.700716972351074 -7.880560874938965
0.35474419593811035 -7.806885719299316 -8.232149124145508
0.6332058906555176 -7.949118614196777 -8.467291831970215
0.8217611312866211 -8.124643802642822 -8.564634323120117
0.901775598526001 -8.326435089111328 -8.515008926391602
0.8654217720031738 -8.543761730194092 -8.323443412780762
0.7167413234710693 -8.76184892654419 -8.008443832397461
0.47145509719848633 -8.961497783660889 -7.599016189575195
0.15423107147216797 -9.119872570037842 -7.128940582275391
-0.20540690422058105 -9.213025093078613 -6.630410194396973
-0.577564001083374 -9.219778060913086 -6.128938674926758
-0.9358909130096436 -9.126235961914062 -5.640488624572754
-1.2602684497833252 -8.929694175720215 -5.171051025390625
-1.5379259586334229 -8.640825271606445 -4.718035697937012
-1.762953519821167 -8.283223628997803 -4.273113250732422
-1.9345662593841553 -7.890341281890869 -3.825592041015625
-2.055011034011841 -7.50091028213501 -3.365544319152832
-2.127578020095825 -7.153533935546875 -2.8862762451171875
-2.155482530593872 -6.881622791290283 -2.3856329917907715
-2.1416141986846924 -6.709628582000732 -1.865999698638916
-2.0892388820648193 -6.6509833335876465 -1.3334264755249023
-2.0031821727752686 -6.707921981811523 -0.796196460723877
-1.8907248973846436 -6.873066425323486 -0.2635173797607422
-1.7616407871246338 -7.132562637329102 0.2553544044494629
-1.6271259784698486 -7.469699859619141 0.7513866424560547
-1.4980838298797607 -7.868260383605957 1.2159619331359863
-1.3834240436553955 -8.314668655395508 1.6414158344268799
-1.288923978805542 -8.798611640930176 2.022160768508911
-1.216902494430542 -9.312386989593506 2.355982780456543
-1.1662518978118896 -9.849703788757324 2.645350933074951
-1.1328203678131104 -10.404520511627197 2.8978593349456787
-1.1100218296051025 -10.970186471939087 3.125633478164673
-1.0896270275115967 -11.539700984954834 3.343661308288574
-1.0627262592315674 -12.105643391609192 3.5672357082366943
-1.0206749439239502 -12.661857604980469 3.8092617988586426
-0.9560906887054443 -13.203524649143219 4.078073024749756
-0.8634555339813232 -13.72811272740364 4.376516103744507
-0.7396214008331299 -14.2351453602314 4.70235800743103
-0.58400559425354 -14.726163923740387 5.049809992313385
-0.398606538772583 -15.203449964523315 5.411640495061874
-0.18780875205993652 -15.669923663139343 5.781011402606964
0.04209542274475098 -16.128291606903076 6.152729392051697
0.2837648391723633 -16.58131694793701 6.523639142513275
0.5300083160400391 -17.0310275554657 6.8923211097717285
0.7751014232635498 -17.47895073890686 7.25836706161499
1.016049861907959 -17.925838470458984 7.6216325759887695
1.253443717956543 -18.371277809143066 7.981817722320557
1.4916410446166992 -18.81352424621582 8.338200092315674
1.7380403280258179 -19.250216960906982 8.689655303955078
2.001617193222046 -19.678419589996338 9.034743070602417
2.2910085916519165 -20.095755577087402 9.371909856796265
2.61275851726532 -20.50071620941162 9.699750423431396
2.9702603220939636 -20.892587184906006 10.017303466796875
3.3635053634643555 -21.270447731018066 10.324759006500244
3.7895842641592026 -21.632246494293213 10.62330150604248
4.243709981441498 -21.97340965270996 10.915168762207031
4.7202876806259155 -22.28656578063965 11.203638553619385
5.21381151676178 -22.561864852905273 11.492057800292969
5.719444513320923 -22.78806209564209 11.783153533935547
6.2332353591918945 -22.954376220703125 12.078348159790039
6.752113580703735 -23.052539825439453 12.377662658691406
7.2737157344818115 -23.078508377075195 12.679800510406494
7.796271562576294 -23.03397846221924 12.982771873474121
8.318495988845825 -22.926003456115723 13.284371376037598
8.839574575424194 -22.766430854797363 13.582879066467285
9.359109163284302 -22.570639610290527 13.877763748168945
9.87709641456604 -22.354907035827637 14.16905403137207
10.39374041557312 -22.134695053100586 14.458263397216797
10.909138917922974 -21.922512531280518 14.747386932373047
11.423354864120483 -21.72671127319336 15.039436340332031
11.935657262802124 -21.551758766174316 15.338212013244629
12.444610357284546 -21.398175716400146 15.647496223449707
12.948270559310913 -21.264860153198242 15.971271514892578
13.444291830062866 -21.151171684265137 16.31253147125244
13.930225133895874 -21.059348106384277 16.672962188720703
14.403445959091187 -20.995710372924805 17.05266284942627
14.860435247421265 -20.97018814086914 17.450119018554688
15.295925855636597 -20.994713306427002 17.862988471984863
15.701884984970093 -21.08019733428955 18.28846263885498
16.067786931991577 -21.23371696472168 18.723712921142578
16.381026029586792 -21.456923007965088 19.16604709625244
16.62874674797058 -21.745769500732422 19.612284660339355
16.79975199699402 -22.091185569763184 20.058445930480957
16.88590979576111 -22.481124877929688 20.499536514282227
16.88383936882019 -22.90288257598877 20.93004035949707
16.795462369918823 -23.34486961364746 21.34485912322998
16.62844157218933 -23.7974214553833 21.740214347839355
16.395658254623413 -24.2537899017334 22.114962577819824
16.114581823349 -24.709388732910156 22.470805168151855
15.805826902389526 -25.161352157592773 22.81258487701416
15.49198603630066 -25.607590675354004 23.147622108459473
15.196959257125854 -26.046175956726074 23.484898567199707
14.944995641708374 -26.47573184967041 23.83497905731201
14.760721921920776 -26.89413833618164 24.208609580993652
14.668800115585327 -27.29960060119629 24.6170015335083
LINES 1 121
120 0 1 2 3 4 5 6 7 8 9 10 11 12 13 14 15 16 17 18 19 20 21 22 23 24 25 26 27 28 29 30 31 32 33 34 35 36 37 38 39 40 41 42 43 44 45 46 47 48 49 50 51 52 53 54 55 56 57 58 59 60 61 62 63 64 65 66 67 68 69 70 71 72 73 74 75 76 77 78 79 80 81 82 83 84 85 86 87 88 89 90 91 92 93 94 95 96 97 98 99 100 101 102 103 104 105 106 107 108 109 110 111 112 113 114 115 116 117 118 119
POINT_DATA 120
SCALARS Curvature float 1
LOOKUP_TABLE default
0.0
0.4676752348511282
0.6754566421306121
0.6879368221077163
0.5203470364529442
0.3116051962271957
0.16391407653234072
0.13398159589922476
0.2077416414520694
0.28210794769988673
0.3083864625104077
0.27906323922603554
0.21774699357812688
0.15379888522291077
0.11759455872118775
0.14931312149151418
0.23710685661092393
0.327240404074122
0.3591268169901167
0.31047388265789905
0.21906286448672416
0.1344323208454151
0.08351382735909815
0.08318729572352296
0.131314234966435
0.24592454768948488
0.5382373694239825
0.954175507550848
0.9987920569256639
0.9285151236403956
0.5194968620218565
0.2754184232597057
0.19660995594144215
0.1887010077266568
0.219188948452364
0.2650648676347056
0.293413860373051
0.2775654805048522
0.22369080483955703
0.16350026338145876
0.13863185628213226
0.18042853605590983
0.264490831931232
0.34912618753833247
0.3928889033761684
0.3764220032442627
0.31813315593733643
0.25229839055330444
0.20116582108459094
0.171193945416455
0.15943615678081843
0.15777200078548423
0.15607838584372966
0.14461030305595135
0.11827037877219691
0.07778352677365041
0.02886869817603762
0.024825012732982137
0.06960414328346679
0.1020774508109306
0.11758959331877751
0.11735514297293588
0.10574458270548545
0.08927431814780895
0.07063414046868531
0.05166563261491306
0.03225434465540143
0.014479150307120957
0.002329712300980986
0.0082383024457538
0.0067119764343237685
0.007366757127965312
0.027994335060164313
0.05393219833054861
0.07816069855652853
0.09484351702540068
0.10115480684274764
0.09830282239736907
0.09089457989358678
0.08552941975796004
0.08798099562419262
0.10235761088396376
0.12749495645806688
0.15740168230422702
0.18328954194293348
0.1960350236369794
0.1891061815680299
0.16533548098242132
0.13021272479127585
0.08951764410735583
0.04986509841117406
0.012767109648806195
0.018249657101853584
0.041185246872188434
0.05638056366957921
0.06304863100366775
0.06752612370337495
0.07278400677349031
0.08200874858696328
0.09756121274422067
0.12190296422722308
0.15545006816121892
0.19255202802648075
0.22539641096964036
0.24943991906833546
0.2626824828300357
0.26588159336633177
0.26220706875024574
0.2510703921452796
0.23160111445762732
0.2029054944800233
0.16583861744043896
0.1225029781605672
0.07452046887193474
0.02166054056224287
0.04007650524178851
0.11451406810318618
0.20128397707674572
0.28491296820992473
0.0
SCALARS Torsion float 1
LOOKUP_TABLE default
0.0
0.0
0.06401330296495268
0.10322807139319451
0.19096007128726203
0.42152107375051
0.873782430875372
0.9432010954098335
0.5420208404696131
0.19923792187482325
0.03472703880328376
-0.07986303747477119
-0.22911709164074853
-0.5219023583994962
-0.8341592157838477
-0.7245653385508863
-0.3778844303332745
-0.1397454578154018
0.013956186581305596
0.1439278863261998
0.3039805213443956
0.5663973121323934
0.8516198992743533
0.8214559156190129
0.5245414758059369
0.3066341631722161
0.19625874419935094
0.14019673698074614
0.11171851064969997
0.09405445379135192
0.057437006810448346
-0.025517938357587575
-0.13303243806596507
-0.19547459398718248
-0.19543545749080665
-0.1769728209287779
-0.17515324212446512
-0.2161929976885708
-0.3447160993103885
-0.6188632713139983
-0.8084001485417556
-0.6336246698974648
-0.35169618972368283
-0.18326178544838337
-0.09889728542972477
-0.06452316673826607
-0.06661501216144057
-0.10082794687859518
-0.15184714700124455
-0.18546089649567124
-0.16848163902073343
-0.11360082482429609
-0.0588533624780674
-0.01969442829290255
0.01017323927363965
0.0641033824462402
0.5816245658158643
0.7733141391276996
0.09236563244445595
-0.010516392858487114
-0.07349865217374792
-0.1301049114596582
-0.19202880323638163
-0.23406073952877335
-0.2663045633666356
-0.26681245620066835
-0.31105073052608756
-0.4841578614772734
-0.999999995582731
-0.4067320348582806
0.24734011823333357
0.8426106905160243
0.13429271650715802
0.044610773667726256
0.004502469428866986
-0.01113110133755081
-0.01330643682100559
0.029689639541688524
0.10122609425768608
0.22021195244868455
0.3028569919774943
0.26465104937230016
0.1722550639344882
0.0885070939100573
0.034620833074742556
9.683285948471065e-05
-0.019473864047394943
-0.03578877505307351
-0.04924622719430815
-0.05537540552718895
-0.14140992535033453
-0.5902370759703867
-0.17230890850353198
-0.08929876705278528
-0.1493231907747616
-0.21744259621128276
-0.25786598534510724
-0.19014028838383118
-0.030942852045397234
0.11213708694675158
0.15382666845888543
0.11352921459419128
0.04168893803255881
-0.027043352919081567
-0.08939881945205105
-0.12583225317861635
-0.14313592656112734
-0.13576583387417965
-0.10718131205818493
-0.07339722851498778
-0.04194478900932787
-0.014085034095036732
0.004395824254570538
-0.00039671932131491675
-0.384712372491995
-0.1803895827266348
-0.019969633853822943
-9.162353650792737e-05
0.0005744458222560465
0.0
SCALARS Distance_to_V float 1
LOOKUP_TABLE default
0.0
0.5871023372802199
1.1122989067441353
1.591852016021099
2.0407272733425823
2.4726213956824084
2.899904257814221
3.3331724801496145
3.7802690349091095
4.245253099163384
4.728020262537083
5.224796833867168
5.729292893474243
6.233880546675115
6.730706690782409
7.2123519548746255
7.672419506938521
8.106062209500243
8.510964871110543
8.88848432713659
9.244545119691207
9.589274286491849
9.934371658410582
10.288328635300738
10.651033891595482
11.010551572563463
11.343926873432709
11.622431190795877
11.819468981999123
11.917955962305602
11.914252682218955
11.817570560777465
11.645609637029153
11.417341162101176
11.146379143832233
10.837780362685336
10.48935916376966
10.096387619698865
9.657072850659729
9.176517286005424
8.667839826737517
8.150849965949819
7.64888510154755
7.184906373158971
6.777829287586963
6.4400978926029016
6.177061411695621
5.988236525124509
5.8698656767466435
5.817400932133384
5.827048701320836
5.895971184949992
6.021407370306129
6.199410768358272
6.423507554015203
6.683920620422232
6.9674711529468984
7.258722392193601
7.541386301954679
7.801033531109135
8.026613152864144
8.211838813642677
8.355198701984527
8.459476705537146
8.530126660851103
8.57442981426315
8.600174369564723
8.615132673380186
8.625837274926441
8.637139139264317
8.651498619374339
8.668365561055758
8.684088768954783
8.692896188680523
8.687871356479068
8.662940051495694
8.614179645277979
8.540380060563933
8.44219266481417
8.321069655225491
8.177368519502094
8.009199504859884
7.812325786339283
7.580884433440041
7.30908991249877
6.993075661925701
6.632560982326668
6.232081270626136
5.8009097670075365
5.352673020662659
4.904414534512357
4.47545448946587
4.085697430820156
3.754402336753306
3.497693394493659
3.3264726130319486
3.244260153297504
3.246718013909229
3.3236438380676514
3.4613606021435936
3.6441868308301553
3.854491157165129
4.072306266283025
4.27572772274578
4.442836936523659
4.553413786043786
4.591216556261736
4.545386314511603
4.4106805112234335
4.187662468818145
3.8820274278049625
3.504296613155485
3.0686101394210272
2.5922752150116715
2.094471190057229
1.595531975194441
1.116536334429539
0.6780142837818632
0.30002730032806885
0.0
SCALARS Local_Extrema int 1
LOOKUP_TABLE default
0
0
0
0
0
0
0
0
0
0
0
0
0
0
0
0
0
0
0
0
0
0
0
0
0
0
0
0
0
1
0
0
0
0
0
0
0
0
0
0
0
0
0
0
0
0
0
0
0
-1
0
0
0
0
0
0
0
0
0
0
0
0
0
0
0
0
0
0
0
0
0
0
0
1
0
0
0
0
0
0
0
0
0
0
0
0
0
0
0
0
0
0
0
0
0
0
-1
0
0
0
0
0
0
0
0
0
1
0
0
0
0
0
0
0
0
0
0
0
0
0
