# vtk DataFile Version 3.0
Curve with Curvature, Torsion, Distance to V, and Extrema
ASCII
DATASET POLYDATA
POINTS 120 float
0.0 0.0 0.0
-0.5444586277008057 -0.31321144104003906 0.2263946533203125
-1.020817518234253 -0.6739673614501953 0.3871493339538574
-1.4345958232879639 -1.07781982421875 0.4874916076660156
-1.7914283275604248 -1.5202713012695312 0.5327138900756836
-2.097201108932495 -1.9966964721679688 0.5282163619995117
-2.3581511974334717 -2.502307891845703 0.479464054107666
-2.580883741378784 -3.032172203063965 0.39178466796875
-2.7721750736236572 -3.5812110900878906 0.27003955841064453
-2.9386727809906006 -4.144107818603516 0.11830806732177734
-3.0863564014434814 -4.7150678634643555 -0.06033515930175781
-3.219982862472534 -5.287424087524414 -0.26389026641845703
-3.3421647548675537 -5.85333251953125 -0.4914278984069824
-3.452526330947876 -6.403562545776367 -0.7430033683776855
-3.5470054149627686 -6.927785873413086 -1.01936674118042
-3.6178781986236572 -7.415373802185059 -1.32142972946167
-3.6544506549835205 -7.8566436767578125 -1.6495881080627441
-3.6447513103485107 -8.244404792785645 -2.002917766571045
-3.5778048038482666 -8.575291633605957 -2.3787474632263184
-3.445970296859741 -8.850675582885742 -2.7727837562561035
-3.2468488216400146 -9.07676887512207 -3.1797919273376465
-2.9843242168426514 -9.264446258544922 -3.5945115089416504
-2.6687262058258057 -9.428781509399414 -4.012466907501221
-2.3157379627227783 -9.588303565979004 -4.430022716522217
-1.9445579051971436 -9.763704299926758 -4.84374475479126
-1.5755069255828857 -9.97564697265625 -5.249233722686768
-1.2274863719940186 -10.241585731506348 -5.639655590057373
-0.9159815311431885 -10.572832584381104 -6.004727840423584
-0.6518986225128174 -10.972057342529297 -6.3303093910217285
-0.4413411617279053 -11.432065963745117 -6.598905086517334
-0.28644371032714844 -11.936184883117676 -6.791492938995361
-0.18639063835144043 -12.459835052490234 -6.890300273895264
-0.13862967491149902 -12.973568439483643 -6.882124423980713
-0.13967657089233398 -13.446278095245361 -6.7609429359436035
-0.18566036224365234 -13.849145889282227 -6.529247760772705
-0.27265453338623047 -14.15858268737793 -6.197925090789795
-0.3966648578643799 -14.360190153121948 -5.784366130828857
-0.5535776615142822 -14.449566841125488 -5.309666156768799
-0.7388365268707275 -14.432889699935913 -4.795469760894775
-0.9471180438995361 -14.325260162353516 -4.2613091468811035
-1.1718823909759521 -14.147303581237793 -3.722607135772705
-1.4049618244171143 -13.922476768493652 -3.189650058746338
-1.6362626552581787 -13.673393726348877 -2.6674952507019043
-1.8538291454315186 -13.420295238494873 -2.1564278602600098
-2.0445897579193115 -13.18012523651123 -1.6532716751098633
-2.1956937313079834 -12.966948986053467 -1.1530194282531738
-2.2961666584014893 -12.791930198669434 -0.6505694389343262
-2.3386147022247314 -12.663757801055908 -0.14229249954223633
-2.3203060626983643 -12.588255405426025 0.37293100357055664
-2.2437241077423096 -12.569049835205078 0.8931632041931152
-2.115882158279419 -12.60786247253418 1.4135031700134277
-1.946868658065796 -12.70540714263916 1.9266033172607422
-1.7481944561004639 -12.861884593963623 2.423405170440674
-1.5310790538787842 -13.077689170837402 2.894505739212036
-1.3056271076202393 -13.35262393951416 3.331612706184387
-1.080364465713501 -13.68534231185913 3.7291327714920044
-0.8621408939361572 -14.072431087493896 4.085145115852356
-0.6560041904449463 -14.508126020431519 4.401733577251434
-0.4650146961212158 -14.984627962112427 4.6845457553863525
-0.2901124954223633 -15.492238283157349 4.941632241010666
-0.13024234771728516 -16.02126121520996 5.181831318885088
0.017522335052490234 -16.562193274497986 5.413125142455101
0.15761995315551758 -17.107513308525085 5.641251653432846
0.29546642303466797 -17.651496708393097 5.868943214416504
0.4368431568145752 -18.19105284381658 6.095834374427795
0.5871243476867676 -18.72501903772354 6.319126009941101
0.7504799365997314 -19.254401683807373 6.534756422042847
0.9291503429412842 -19.781043887138367 6.738829970359802
1.1229655742645264 -20.30759048461914 6.9289973974227905
1.329352617263794 -20.83618688583374 7.1053197383880615
1.5438313484191895 -21.368762731552124 7.270517110824585
1.7610164880752563 -21.905792474746704 7.429599285125732
1.9758602380752563 -22.446686267852783 7.588954925537109
2.1850438117980957 -22.988938331604004 7.755042791366577
2.388159155845642 -23.5289044380188 7.9331464767456055
2.5883654356002808 -24.061445236206055 8.126258611679077
2.792527139186859 -24.580681324005127 8.334553241729736
3.010286271572113 -25.080654621124268 8.555437088012695
3.252661883831024 -25.55596351623535 8.784322500228882
3.5299166962504387 -26.002408504486084 9.015979051589966
3.849382519721985 -26.41772174835205 9.246020793914795
4.213680803775787 -26.801934242248535 9.472387313842773
4.61988627910614 -27.15650749206543 9.69612979888916
5.059999346733093 -27.48378849029541 9.921573638916016
5.522317290306091 -27.78566074371338 10.15572214126587
5.993708372116089 -28.062539100646973 10.406773567199707
6.462002992630005 -28.31255531311035 10.682573795318604
6.918135166168213 -28.53219509124756 10.98847484588623
7.357578992843628 -28.716591835021973 11.326187133789062
7.780833005905151 -28.861687660217285 11.692584991455078
8.193061590194702 -28.965152740478516 12.08000659942627
8.602744340896606 -29.02779769897461 12.47726058959961
9.019818544387817 -29.05377197265625 12.871644496917725
9.453592538833618 -29.049567222595215 13.251078128814697
9.910955667495728 -29.023164749145508 13.606045246124268
10.395263433456421 -28.98197650909424 13.93156099319458
10.906041860580444 -28.93171501159668 14.227367877960205
11.439042329788208 -28.875496864318848 14.497522830963135
11.987670183181763 -28.814414978027344 14.748891353607178
12.543898820877075 -28.748270988464355 14.989859104156494
13.09986138343811 -28.678040504455566 15.227602481842041
13.64883542060852 -28.607036590576172 15.466959476470947
14.186403512954712 -28.542295455932617 15.709190845489502
14.710485696792603 -28.49470806121826 15.952049732208252
15.221494913101196 -28.47781276702881 16.190717220306396
15.721415758132935 -28.505155563354492 16.419450283050537
16.21317982673645 -28.587651252746582 16.63392686843872
16.699185609817505 -28.731103897094727 16.832767963409424
17.180689096450806 -28.935179710388184 17.01872491836548
17.65684723854065 -29.1937255859375 17.19842767715454
18.12410283088684 -29.496335983276367 17.381893634796143
18.576584100723267 -29.83084774017334 17.58062219619751
19.005778551101685 -30.185376167297363 17.805717945098877
19.401454210281372 -30.550238609313965 18.066288471221924
19.751664400100708 -30.918334007263184 18.368817806243896
20.04374623298645 -31.285554885864258 18.71680784225464
20.26415753364563 -31.650014877319336 19.11146306991577
20.39926838874817 -32.011226654052734 19.55255365371704
20.43522572517395 -32.369102478027344 20.03916597366333
20.35819935798645 -32.72420024871826 20.56999921798706
LINES 1 121
120 0 1 2 3 4 5 6 7 8 9 10 11 12 13 14 15 16 17 18 19 20 21 22 23 24 25 26 27 28 29 30 31 32 33 34 35 36 37 38 39 40 41 42 43 44 45 46 47 48 49 50 51 52 53 54 55 56 57 58 59 60 61 62 63 64 65 66 67 68 69 70 71 72 73 74 75 76 77 78 79 80 81 82 83 84 85 86 87 88 89 90 91 92 93 94 95 96 97 98 99 100 101 102 103 104 105 106 107 108 109 110 111 112 113 114 115 116 117 118 119
POINT_DATA 120
SCALARS Curvature float 1
LOOKUP_TABLE default
0.0
0.24872291976531072
0.26597700876677277
0.26302393311570516
0.2414387231917596
0.2079461809043997
0.17045924207622437
0.13520281308669838
0.1057338166833818
0.08421125787160343
0.07201604806055957
0.070527822540255
0.08017327186421688
0.10177106964143855
0.13777710899532958
0.1906028074565718
0.2552917851560438
0.313406565301179
0.3375669697720639
0.3131524029581834
0.2500723115050588
0.1706654659946509
0.09511025352592851
0.0596549928775176
0.10669825506704791
0.17209059954617878
0.22818592034973792
0.2671695210138296
0.29291614043970726
0.31847942424559184
0.3578300839616541
0.41867927634446167
0.4950148701471589
0.5606807066836687
0.581463219077087
0.5364584112931151
0.4440292381427556
0.33865476701707886
0.24637730974199606
0.17434418200665022
0.11648437615607315
0.06844808579217929
0.0350928598788589
0.06555875026206383
0.13105246258394918
0.20283743386918293
0.2615746357284836
0.2887787127110088
0.282416935220358
0.25625396423893027
0.22886507858883384
0.21164894296414788
0.2082563115723448
0.21237256540078703
0.21501069805550485
0.20749078684222197
0.1867060131504918
0.15530718600792365
0.11830713156815727
0.08262942325448935
0.05075834110810499
0.025284653726733494
0.00511689383176445
0.012599308766889793
0.028880805662982123
0.04380216710827476
0.05493465351717315
0.05850352524671511
0.052903737508134215
0.038970768660152234
0.020246073502157035
0.009972295220812298
0.024162750726398764
0.03740821649794942
0.046439196364115816
0.05624747441494665
0.07467302510207204
0.10378835788956807
0.1359917051142358
0.15888480396311572
0.16242903813981413
0.1467777384334788
0.11947335101413216
0.09419410782385343
0.08653415503943652
0.10188111748818454
0.12557273117061712
0.145647891709167
0.1517793036430929
0.14384895861102553
0.12693450675221882
0.11302778585540534
0.11235440186134318
0.11948962795972765
0.12210408254080839
0.11310388454377152
0.09225780694833279
0.06502961172619935
0.036086444391508835
0.013787394925766229
0.012400678632234034
0.025514452141389532
0.05139366047388543
0.09494651138583374
0.1477833198894513
0.19225466119523268
0.20939146594149247
0.19398132067364898
0.15817293577916924
0.12122771002943857
0.10206924159203278
0.11091400449883493
0.13861094371140426
0.1750792187246879
0.21282462504347593
0.24835009179919695
0.27328607820895695
0.2799122773973329
0.26255802382224164
0.0
SCALARS Torsion float 1
LOOKUP_TABLE default
0.0
0.0
-0.0054193888658748725
-0.007175265515624686
-0.01123833802193624
-0.020040710570483275
-0.039141712307138914
-0.07574778580204354
-0.13926929884164102
-0.22446112617284064
-0.2939574102689078
-0.261502354554651
-0.13023765201760307
0.01654067200413542
0.10980507211915003
0.15414985228490707
0.17022563838361562
0.17531571543381808
0.1803452525803882
0.1898675343080135
0.22324633865587828
0.33675663761489777
0.7310338981356732
0.9781145995026973
0.5892615187834962
0.2045383751640078
0.04908303258788896
-0.04307763843536164
-0.11699021280603578
-0.16885838991937865
-0.18978588289728288
-0.17182438710797815
-0.13073329992692756
-0.08031654443645946
-0.030877771742731014
0.010570306683609549
0.04227973178997757
0.06443303369016991
0.07897722446020819
0.07361383019916792
0.017285838710421483
-0.31249667559448946
-0.9821324570627955
-0.6967815717865623
-0.2261040708618669
-0.09118201101346773
-0.06358685223959874
-0.06338393683187235
-0.0953066438492388
-0.1389775162281143
-0.18865812823421238
-0.21722871278921038
-0.208829074664217
-0.17414800738057887
-0.14243715731424952
-0.12658698945518707
-0.12987675394685838
-0.15221771611547175
-0.19750222272653162
-0.2801211068053808
-0.42451957796507156
-0.655418314931616
-0.9997484233235993
-0.18421916428670682
-0.23405518824258673
-0.2588011041100791
-0.22933038738098266
-0.23019031023632708
-0.24038587880530105
-0.3752470925641765
-0.7749945792060364
-0.9974653427023892
-0.5137297853076367
-0.3510522356777954
-0.4425854471864279
-0.5411429096377457
-0.5035870992360373
-0.3780428755711353
-0.25317957059217916
-0.15934469889911382
-0.07538554427023804
0.03430845155896703
0.21590374905057236
0.49859020266961074
0.6281976377231722
0.45436894865574967
0.20610054883089254
0.007236201696078692
-0.14436352669761113
-0.31487070606838286
-0.5047833591193214
-0.6465148025509543
-0.632362032531621
-0.507537783731469
-0.350819800086838
-0.22949901741307582
-0.10097942854702979
0.05599882177110889
0.4934054468330887
0.9865963539834894
0.9480142027304486
0.595751122113821
0.4553335229901344
0.30050216226827886
0.18668962002140863
0.10364174605008772
0.03315920052207025
-0.05628066983112476
-0.19981019809630474
-0.45200646388272325
-0.6280314820269544
-0.5293963031367463
-0.28848889209483164
-0.10798932209349082
0.0020287397504674815
0.05735057088754579
0.07334314690537587
0.06789740292001409
0.06270444068522668
0.0
SCALARS Distance_to_V float 1
LOOKUP_TABLE default
0.0
0.6619181275146088
1.2654961365097077
1.8225558722240822
2.344442526302896
2.8417693444039083
3.3241219659086587
3.799775275788481
4.275388615993487
4.755784418429078
5.243640280577364
5.7391976916351926
6.239813935665938
6.739683700453367
7.229950524927464
7.699552984185213
8.136679375298632
8.53089186172631
8.87539934383683
9.16902522971334
9.41727224275464
9.632426161312699
9.832575996798068
10.039148893842267
10.273365075894768
10.552042440207753
10.88352979551013
11.265538992282107
11.684819088739363
12.118693674333441
12.538297540909781
12.91248967878821
13.212433130692107
13.41522754757767
13.506805326060716
13.483069764660586
13.350402700420846
13.123721487157566
12.824265058881153
12.476470347897274
12.104212736964083
11.728171573374967
11.363172065515466
11.01742710305523
10.693086829779926
10.38827772145046
10.099201191706909
9.82253612489431
9.556670920766356
9.303005173897136
9.065806458584735
8.85162106375438
8.668097479316582
8.522726774047744
8.42146632945772
8.368004699514634
8.36334624392644
8.405773329801315
8.490994904872732
8.612110982216883
8.760833808229624
8.927764797744585
9.10390498407721
9.281099179875964
9.453059912773176
9.615446941345608
9.766442429962725
9.906285080550886
10.0373876891478
10.16334862390278
10.288577420051384
10.416681222744556
10.549803476953949
10.687298319200853
10.82569220166333
10.958401691585728
11.076375100600664
11.169256805780806
11.226636174494988
11.239680708210765
11.202832464053262
11.114978559203003
10.97925626368643
10.802139347920725
10.591492539665321
10.354502700872235
10.09589543629677
9.81771018417206
9.519215734677132
9.19859163116348
8.85362921954151
8.482884013266627
8.085993945491017
7.663588916227299
7.2175554712396535
6.750458377320919
6.265547776802636
5.76662714674142
5.257738671904648
4.743007001863593
4.2273683890718114
3.7167353929235847
3.2184654967261173
2.7417554252422303
2.2970780111417084
1.8956998856934137
1.549557485935528
1.2727694114038441
1.081808800245873
0.988822710417469
0.9852344286518542
1.0374484356323936
1.1042003345967752
1.1517558466572249
1.1556335311241022
1.0983367517628595
0.9659559228848098
0.7464277388949196
0.4282091811292466
0.0
SCALARS Local_Extrema int 1
LOOKUP_TABLE default
0
0
0
0
0
0
0
0
0
0
0
0
0
0
0
0
0
0
0
0
0
0
0
0
0
0
0
0
0
0
0
0
0
0
1
0
0
0
0
0
0
0
0
0
0
0
0
0
0
0
0
0
0
0
0
0
-1
0
0
0
0
0
0
0
0
0
0
0
0
0
0
0
0
0
0
0
0
0
0
1
0
0
0
0
0
0
0
0
0
0
0
0
0
0
0
0
0
0
0
0
0
0
0
0
0
0
0
0
0
0
-1
0
0
0
1
0
0
0
0
0
