# vtk DataFile Version 3.0
Curve with Curvature, Torsion, Distance to V, and Extrema
ASCII
DATASET POLYDATA
POINTS 120 float
0.0 0.0 0.0
-0.5231342315673828 -0.3210296630859375 0.053009033203125
-1.0095748901367188 -0.6938438415527344 0.1156768798828125
-1.456094741821289 -1.1110572814941406 0.19397544860839844
-1.8630504608154297 -1.5632667541503906 0.2916526794433594
-2.234081268310547 -2.0409812927246094 0.4093437194824219
-2.5762195587158203 -2.5356578826904297 0.5436267852783203
-2.897686004638672 -3.0412845611572266 0.6880245208740234
-3.2071361541748047 -3.554170608520508 0.8331565856933594
-3.5127487182617188 -4.072507858276367 0.9664802551269531
-3.821401596069336 -4.595602035522461 1.0706672668457031
-4.138154983520508 -5.12150764465332 1.1213607788085938
-4.463289260864258 -5.643003463745117 1.0859146118164062
-4.786643981933594 -6.141681671142578 0.9280548095703125
-5.084856033325195 -6.589288711547852 0.6303997039794922
-5.334264755249023 -6.968540191650391 0.21520614624023438
-5.525938034057617 -7.28557014465332 -0.2765522003173828
-5.661518096923828 -7.557209014892578 -0.812530517578125
-5.745664596557617 -7.799890518188477 -1.3725624084472656
-5.781562805175781 -8.025920867919922 -1.9446659088134766
-5.771417617797852 -8.24433708190918 -2.520772933959961
-5.715456008911133 -8.461523056030273 -3.0947093963623047
-5.61359977722168 -8.682052612304688 -3.6609954833984375
-5.464847564697266 -8.909013748168945 -4.214191436767578
-5.268270492553711 -9.144113540649414 -4.748727798461914
-5.023933410644531 -9.387638092041016 -5.259239196777344
-4.733758926391602 -9.638643264770508 -5.7413482666015625
-4.402050018310547 -9.895513534545898 -6.192638397216797
-4.035581588745117 -10.156755447387695 -6.61357307434082
-3.643087387084961 -10.421833038330078 -7.007877349853516
-3.233827590942383 -10.691673278808594 -7.381418228149414
-2.8166637420654297 -10.968481063842773 -7.740888595581055
-2.399404525756836 -11.255298614501953 -8.09231185913086
-1.9884567260742188 -11.555526733398438 -8.439931869506836
-1.5887165069580078 -11.872697830200195 -8.785543441772461
-1.2035980224609375 -12.210319519042969 -9.12834358215332
-0.8351268768310547 -12.572044372558594 -9.464761734008789
-0.4843406677246094 -12.962196350097656 -9.787992477416992
-0.1519756317138672 -13.386564254760742 -10.08647346496582
0.1603870391845703 -13.853071212768555 -10.339765548706055
0.44690513610839844 -14.370468139648438 -10.509031295776367
0.6854629516601562 -14.934778213500977 -10.516183853149414
0.8195648193359375 -15.472599029541016 -10.263998031616211
0.8117218017578125 -15.859249114990234 -9.79043197631836
0.6973762512207031 -16.087623596191406 -9.231435775756836
0.5139179229736328 -16.20964813232422 -8.656574249267578
0.2803192138671875 -16.26218032836914 -8.089025497436523
0.0068187713623046875 -16.26754379272461 -7.536951065063477
-0.30019378662109375 -16.240028381347656 -7.003377914428711
-0.6350021362304688 -16.190406799316406 -6.4883880615234375
-0.9920520782470703 -16.127197265625 -5.990043640136719
-1.3648090362548828 -16.058042526245117 -5.504110336303711
-1.7460060119628906 -15.98996353149414 -5.02459716796875
-2.1273040771484375 -15.929920196533203 -4.544103622436523
-2.4989013671875 -15.885160446166992 -4.054481506347656
-2.8495044708251953 -15.863115310668945 -3.548198699951172
-3.1672611236572266 -15.870889663696289 -3.020374298095703
-3.4429702758789062 -15.913545608520508 -2.4710769653320312
-3.6720924377441406 -15.993913650512695 -1.9048538208007812
-3.8566551208496094 -16.11199188232422 -1.3290023803710938
-4.0026397705078125 -16.26680564880371 -0.7507362365722656
-4.117769241333008 -16.45677375793457 -0.17595481872558594
-4.208961486816406 -16.680482864379883 0.39095115661621094
-4.281503677368164 -16.936378479003906 0.9468441009521484
-4.338666915893555 -17.22258186340332 1.4896106719970703
-4.381721496582031 -17.536914825439453 2.0179367065429688
-4.410350799560547 -17.876798629760742 2.5312137603759766
-4.4228973388671875 -18.23954200744629 3.029268264770508
-4.41682243347168 -18.62246799468994 3.5121021270751953
-4.388847351074219 -19.02329444885254 3.979379653930664
-4.335670471191406 -19.43984317779541 4.430419921875
-4.253765106201172 -19.870408058166504 4.863624572753906
-4.140157699584961 -20.313339233398438 5.276716232299805
-3.992412567138672 -20.7670259475708 5.666660308837891
-3.809206008911133 -21.229528427124023 6.030294418334961
-3.5898189544677734 -21.698471069335938 6.364441871643066
-3.3345260620117188 -22.170700073242188 6.666952133178711
-3.043947219848633 -22.64201259613037 6.937355995178223
-2.718442916870117 -23.106800079345703 7.177607536315918
-2.3575191497802734 -23.557926177978516 7.391888618469238
-1.9597206115722656 -23.986557960510254 7.586064338684082
-1.5234603881835938 -24.38225269317627 7.766960144042969
-1.048330307006836 -24.733379364013672 7.9416303634643555
-0.5373458862304688 -25.02963924407959 8.116604804992676
0.0026874542236328125 -25.2650146484375 8.296797752380371
0.5625133514404297 -25.440366744995117 8.485028266906738
1.1332330703735352 -25.563130378723145 8.682225227355957
1.7084226608276367 -25.64372444152832 8.888199806213379
2.2842674255371094 -25.69273853302002 9.102252960205078
2.8589096069335938 -25.719594955444336 9.323423385620117
3.431643486022949 -25.73130226135254 9.550813674926758
4.002368927001953 -25.73279857635498 9.783503532409668
4.571223258972168 -25.726685523986816 10.020662307739258
5.138389587402344 -25.713241577148438 10.261533737182617
5.70395565032959 -25.690601348876953 10.505448341369629
6.267820358276367 -25.65536117553711 10.751779556274414
6.829591751098633 -25.603504180908203 10.999927520751953
7.388556480407715 -25.53135108947754 11.249313354492188
7.943818092346191 -25.436680793762207 11.499431610107422
8.494585990905762 -25.319558143615723 11.749987602233887
9.040436744689941 -25.18233585357666 12.001127243041992
9.581646919250488 -25.029990196228027 12.253616333007812
10.119136333465576 -24.86942481994629 12.508966445922852
10.654221534729004 -24.70919132232666 12.769514083862305
11.188176155090332 -24.55921459197998 13.038313865661621
11.721478462219238 -24.430553436279297 13.319095611572266
12.25293254852295 -24.335058212280273 13.616016387939453
12.778668403625488 -24.285064697265625 13.933372497558594
13.291352272033691 -24.292150497436523 14.274812698364258
13.779738426208496 -24.365975379943848 14.642724990844727
14.23015570640564 -24.510733604431152 15.036929607391357
14.628904342651367 -24.724458694458008 15.454692363739014
14.966689467430115 -24.99843120574951 15.890698432922363
15.240070104598999 -25.32133960723877 16.33832597732544
15.451997518539429 -25.68198013305664 16.790571212768555
15.609190583229065 -26.071608543395996 17.241225719451904
15.720744967460632 -26.484230041503906 17.685067653656006
15.796785593032837 -26.916687488555908 18.117454528808594
15.847798109054565 -27.36794137954712 18.534061908721924
15.88373064994812 -27.838115692138672 18.930862188339233
LINES 1 121
120 0 1 2 3 4 5 6 7 8 9 10 11 12 13 14 15 16 17 18 19 20 21 22 23 24 25 26 27 28 29 30 31 32 33 34 35 36 37 38 39 40 41 42 43 44 45 46 47 48 49 50 51 52 53 54 55 56 57 58 59 60 61 62 63 64 65 66 67 68 69 70 71 72 73 74 75 76 77 78 79 80 81 82 83 84 85 86 87 88 89 90 91 92 93 94 95 96 97 98 99 100 101 102 103 104 105 106 107 108 109 110 111 112 113 114 115 116 117 118 119
POINT_DATA 120
SCALARS Curvature float 1
LOOKUP_TABLE default
0.0
0.1673267070235162
0.16097965880833828
0.14696585034884865
0.12664704480330594
0.09807352954197443
0.0669776890186422
0.03698714995386941
0.03568249289901349
0.07797658647408484
0.1416913170062543
0.22432764006523817
0.3165343725470268
0.37694306678947204
0.3618133198921213
0.29142187868088565
0.21885635710334228
0.16610597612831268
0.1371381524333836
0.1226464196397483
0.12017502791580227
0.12215861415909388
0.12853953647912397
0.13594383998640389
0.14147506799926185
0.14228863035441205
0.13611715893126777
0.12138046256999803
0.09819450962089044
0.0712286149931181
0.046236555798991524
0.0337962146765022
0.040258503416965866
0.053684171002509606
0.06649117229035147
0.07875329779110214
0.09443481626159075
0.12068703619540967
0.16934383552396962
0.26143677242834434
0.43288705524014154
0.6286813723346818
0.6552029930514953
0.49588989822764157
0.3231183500106256
0.22226954363055582
0.16598142333332516
0.13199901138845951
0.10509433516394794
0.08121225654821962
0.05491036563163309
0.02804957686498632
0.021308825742463584
0.05332129179042902
0.0922240350480715
0.12908793745909727
0.15326794466237623
0.1624262825103025
0.15442299415610805
0.13940088499631048
0.12280826659171204
0.11037882441922335
0.10175197458818701
0.09559776534983132
0.09088001711785838
0.08657684661261292
0.08357542622950076
0.0824529538246854
0.08476283287493164
0.08886890023857237
0.09604976159968871
0.10366705219023746
0.11172051113757575
0.11795543583397006
0.12336975984456566
0.12557425313030054
0.12491903692877096
0.12202726049756468
0.12046684932841047
0.12474241866526771
0.136915389502973
0.15522947444205765
0.17078674151452353
0.17615836305132487
0.16606002768856576
0.142285216802171
0.11346294846041284
0.08559652623607664
0.06126048946137791
0.04337062163044199
0.030731433638467934
0.023741488449458736
0.022079307298384573
0.02583910554309299
0.03405495362578153
0.044316836564703324
0.053980413983093695
0.060026063043205444
0.06020963173046915
0.05443414894083258
0.04176729828345597
0.024910670946240106
0.015099065403607748
0.03476828676259372
0.06430520695839927
0.09691213047733648
0.1313933044910074
0.16511006987764998
0.19685566210410188
0.2190765438968086
0.23074191564992438
0.22646666897328185
0.21165891559504973
0.18780910869609385
0.16156605903260768
0.13482831020926345
0.1107544918837978
0.09199419654695007
0.08211481938001614
0.0
SCALARS Torsion float 1
LOOKUP_TABLE default
0.0
0.0
0.19351858513858475
0.1917569937800777
0.1688992454901158
0.10255451946138965
-0.09687938504429046
-0.7747271999919315
-0.9118664030065163
-0.32456167049022777
-0.08501631082971145
-0.008204264435641026
0.027267888900860224
0.0585085362805722
0.11535338210189126
0.2040931414618913
0.3014266833478875
0.3751301915282276
0.3901680926679875
0.3558058892932895
0.28091431667368105
0.2098553891468015
0.1436772906934172
0.09300099403940457
0.05461122267976759
0.0292515175179742
0.019221127124193504
0.02976903195338035
0.08195529617254674
0.23541419251070658
0.5966337522786033
0.8590198252105086
0.6336054483350141
0.24443331476489583
0.012773670320676694
-0.12819134256276882
-0.2098657328701061
-0.2327681747958824
-0.2085542099257795
-0.15555087004980286
-0.09729640152232608
-0.04825145546289295
-0.0044693385205046635
0.09920426323935849
0.24012890806697298
0.2816942725982798
0.2714475478128328
0.25251588466568153
0.24339543556872098
0.2556558675770745
0.3705104810585951
0.8356535971978604
0.9723988146456208
0.3725142700736601
0.14444423644232024
0.06525433985261897
0.015475593581462943
-0.03484823154590678
-0.0983949543921177
-0.16957994540966256
-0.2264395847193446
-0.23821182821828318
-0.20196032113137277
-0.1279337372193369
-0.03775012583615894
0.04921247407360274
0.1242186222964916
0.16905587170588365
0.1737911512980118
0.15016922375039896
0.10637433448702782
0.06448799844123192
0.029839144962423084
0.010347328189208527
0.007329278592320201
0.023716769416987686
0.07188601130942189
0.16072761882551687
0.25926462055173843
0.3198422033283799
0.3109493854724794
0.2602859309335163
0.20887568312632473
0.16741851346755726
0.14399916503371302
0.13561314683020972
0.13789933044027042
0.15330705188473465
0.18359945059827537
0.21663034531608408
0.2298192371376382
0.1261122349150586
-0.10347752730090276
-0.20556873881156867
-0.159712558468654
-0.09501055615235944
-0.05157037778837179
-0.022582974039679658
0.0034971999536338276
0.045798152162368225
0.15821461028190556
0.5935527649070392
0.9857055000333295
0.49090898254246806
0.14943606406135757
0.04246123492096934
-0.006770213251609605
-0.035731445408735844
-0.0575140741893004
-0.0778837551097453
-0.09315555676330864
-0.09848142828951201
-0.07843285249437194
-0.03324551976054617
0.02691569174223661
0.1119475680668597
0.24523591127108674
0.404009551931953
0.4907184668093049
0.0
SCALARS Distance_to_V float 1
LOOKUP_TABLE default
0.0
0.614507528778866
1.221660054667436
1.8158413240021034
2.393088958813213
2.9519412784050973
3.494229428868228
4.024073585685811
4.547188773308121
5.069948042787897
5.598490998018655
6.137611575176067
6.6872197038642325
7.235857493679641
7.758455600175917
8.233522756722857
8.659669429677363
9.047488363514551
9.409257575645498
9.754000158418672
10.088212042857926
10.415395327679652
10.737557530425109
11.054822263695335
11.36606772101955
11.669521676057622
11.963647050979082
12.24820636698059
12.525304708747512
12.799949296024195
13.079142874823363
13.370615717767084
13.681342678618428
14.016382552221225
14.378274196065151
14.766921578489784
15.179711413761803
15.611663649206694
16.054891818842503
16.49589784328462
16.907582647561515
17.225987916949673
17.335481561124265
17.19848667141971
16.918629727387728
16.580735509860943
16.225314986294496
15.87313323164106
15.536489229585815
15.223205958977665
14.938000360709909
14.682822596230501
14.457422482727527
14.25979890454926
14.086624440991397
13.933817139267765
13.79750984722191
13.67544775745372
13.567571788181002
13.476096864355489
13.40445866075859
13.356142953572599
13.333767478064374
13.338474295485195
13.3696002029049
13.424731717933547
13.499940905107545
13.590233641915468
13.690045484226667
13.79371017190446
13.895810815520182
13.991377504171128
14.07617868936897
14.146752500687581
14.200568908683158
14.235623130261745
14.250403624553853
14.243124312067522
14.21084823537395
14.14885873272105
14.050413699892022
13.907414946692628
13.711666612636622
13.458138693339189
13.14721373690473
12.785434003272202
12.383342646892949
11.951718022231516
11.499721823300384
11.034552303473264
10.56117623792035
10.082952827202556
9.601676458657257
9.117699568208359
8.630112264292865
8.137181618115491
7.63700165315223
7.128124274232613
6.61019110165109
6.0842819670370485
5.552742883026915
5.01925983203576
4.488582680901077
3.9667253970364356
3.4614718971651297
2.9830994450400823
2.5450580935740206
2.1638849902757453
1.8563039636359353
1.631686500648293
1.4815910520563529
1.3780801633665083
1.2864238208749297
1.179813843124112
1.0449600825235945
0.8787318752103821
0.6842641345896221
0.46790297008561615
0.23733116173245133
0.0
SCALARS Local_Extrema int 1
LOOKUP_TABLE default
0
0
0
0
0
0
0
0
0
0
0
0
0
0
0
0
0
0
0
0
0
0
0
0
0
0
0
0
0
0
0
0
0
0
0
0
0
0
0
0
0
0
1
0
0
0
0
0
0
0
0
0
0
0
0
0
0
0
0
0
0
0
-1
0
0
0
0
0
0
0
0
0
0
0
0
0
1
0
0
0
0
0
0
0
0
0
0
0
0
0
0
0
0
0
0
0
0
0
0
0
0
0
0
0
0
0
0
0
0
0
0
0
0
0
0
0
0
0
0
0
