# vtk DataFile Version 3.0
Curve with Curvature, Torsion, Distance to V, and Extrema
ASCII
DATASET POLYDATA
POINTS 120 float
0.0 0.0 0.0
-0.44570302963256836 -0.03962898254394531 -0.667290210723877
-0.800532341003418 -0.31543731689453125 -1.1189346313476562
-1.088212013244629 -0.7750110626220703 -1.3857693672180176
-1.332017421722412 -1.3664741516113281 -1.4988150596618652
-1.5538606643676758 -2.0397233963012695 -1.489555835723877
-1.772742748260498 -2.748490333557129 -1.3904614448547363
-2.002981662750244 -3.452718734741211 -1.2355647087097168
-2.2526674270629883 -4.120972633361816 -1.0608410835266113
-2.522891044616699 -4.73203182220459 -0.9036464691162109
-2.807771682739258 -5.275604248046875 -0.8006801605224609
-3.095597267150879 -5.751729965209961 -0.7843513488769531
-3.3708343505859375 -6.168906211853027 -0.8782567977905273
-3.6163272857666016 -6.540924072265625 -1.0936603546142578
-3.8153934478759766 -6.883474349975586 -1.4285035133361816
-3.953401565551758 -7.210969924926758 -1.8688654899597168
-4.019035339355469 -7.534829139709473 -2.392646312713623
-4.005368232727051 -7.863556861877441 -2.9744105339050293
-3.9106130599975586 -8.204000473022461 -3.589423656463623
-3.738201141357422 -8.563011169433594 -4.216213703155518
-3.4961280822753906 -8.948114395141602 -4.8372111320495605
-3.1958093643188477 -9.366982460021973 -5.437972545623779
-2.850836753845215 -9.825502872467041 -6.0051751136779785
-2.476022720336914 -10.325224876403809 -6.524285793304443
-2.0869688987731934 -10.86107587814331 -6.977694034576416
-1.6997714042663574 -11.419212341308594 -7.344058513641357
-1.330653190612793 -11.97739839553833 -7.599855899810791
-0.9950060844421387 -12.505374908447266 -7.722859859466553
-0.7057957649230957 -12.967903137207031 -7.697059154510498
-0.47169971466064453 -13.32917594909668 -7.517623424530029
-0.29580116271972656 -13.558453559875488 -7.1939568519592285
-0.1753559112548828 -13.63575005531311 -6.749649524688721
-0.10254240036010742 -13.556668043136597 -6.219265460968018
-0.06601762771606445 -13.335310935974121 -5.642248630523682
-0.052863121032714844 -13.003485679626465 -5.0559983253479
-0.05080842971801758 -12.606364727020264 -4.489879131317139
-0.050336360931396484 -12.194698333740234 -3.9615941047668457
-0.046097755432128906 -11.815377712249756 -3.4763970375061035
-0.03719377517700195 -11.501637935638428 -3.028625965118408
-0.026128292083740234 -11.267111778259277 -2.60483980178833
-0.016811847686767578 -11.104419231414795 -2.187375545501709
-0.012493133544921875 -10.990014553070068 -1.7574715614318848
-0.014510154724121094 -10.893391132354736 -1.29819917678833
-0.022361278533935547 -10.788776874542236 -0.7971320152282715
-0.03473234176635742 -10.663666725158691 -0.2487163543701172
-0.050559043884277344 -10.523538589477539 0.3439664840698242
-0.06942987442016602 -10.390571117401123 0.9684104919433594
-0.0911259651184082 -10.298116683959961 1.6037917137145996
-0.11458778381347656 -10.282806396484375 2.223727226257324
-0.13694047927856445 -10.37691354751587 2.800325870513916
-0.1532588005065918 -10.601954460144043 3.3089826107025146
-0.15731573104858398 -10.964928150177002 3.732806444168091
-0.14302921295166016 -11.457001686096191 4.0655012130737305
-0.1061244010925293 -12.056175708770752 4.3123695850372314
-0.04544496536254883 -12.732084274291992 4.489026308059692
0.03651857376098633 -13.452284574508667 4.618756532669067
0.13420724868774414 -14.186790943145752 4.728691577911377
0.24075746536254883 -14.912087678909302 4.845431208610535
0.3504815101623535 -15.613354325294495 4.9907695055007935
0.46115541458129883 -16.283578753471375 5.178246378898621
0.5749592781066895 -16.92312380671501 5.411557674407959
0.6976795196533203 -17.537212908267975 5.685052394866943
0.8364701271057129 -18.133661210536957 5.986083030700684
0.9972367286682129 -18.721104741096497 6.298666298389435
1.1829185485839844 -19.30722713470459 6.607222691178322
1.3930654525756836 -19.897276163101196 6.89988998323679
1.6247148513793945 -20.49363350868225 7.170650899410248
1.8738505840301514 -21.095975160598755 7.420138120651245
2.136826515197754 -21.70124053955078 7.6550984382629395
2.4117696285247803 -22.30410861968994 7.886475086212158
2.6995739936828613 -22.897228240966797 8.126350283622742
3.0045523643493652 -23.471615314483643 8.384722828865051
3.3341076374053955 -24.01642417907715 8.667137026786804
3.697289228439331 -24.519440174102783 8.974031686782837
4.10265851020813 -24.96866798400879 9.301609992980957
4.556163549423218 -25.35342025756836 9.64366340637207
5.059857130050659 -25.66589641571045 9.993392705917358
5.611574977636337 -25.903240203857422 10.344870805740356
6.205534964799881 -26.068537712097168 10.693660259246826
6.833558440208435 -26.17070960998535 11.037095069885254
7.486384034156799 -26.222968101501465 11.37417221069336
8.154857635498047 -26.241239547729492 11.705183029174805
8.830719470977783 -26.24078369140625 12.031933784484863
9.506895780563354 -26.23382568359375 12.356892108917236
10.177475929260254 -26.227721214294434 12.683666229248047
10.837480545043945 -26.22372817993164 13.01635217666626
11.483094692230225 -26.218109130859375 13.358833312988281
12.111198425292969 -26.202879905700684 13.713969230651855
12.720576286315918 -26.168380737304688 14.08289623260498
13.31156873703003 -26.1063232421875 14.46406364440918
13.886869430541992 -26.011608123779297 14.854149341583252
14.450154304504395 -25.884812355041504 15.248301982879639
15.006239891052246 -25.732330322265625 15.642576694488525
15.559032440185547 -25.564992904663086 16.034952640533447
16.111260414123535 -25.3959903717041 16.426032543182373
16.663941383361816 -25.237860202789307 16.81955575942993
17.216053009033203 -25.100372791290283 17.220563411712646
17.76581382751465 -24.98998737335205 17.634725093841553
18.3110990524292 -24.910719871520996 18.066691875457764
18.850337028503418 -24.865473747253418 18.519002437591553
19.3820161819458 -24.85680913925171 18.991326808929443
19.904297828674316 -24.888275623321533 19.480990886688232
20.414361000061035 -24.9638614654541 19.98295259475708
20.906758308410645 -25.088260650634766 20.490599155426025
21.37366008758545 -25.26710319519043 20.996485233306885
21.80411434173584 -25.50612163543701 21.493098735809326
22.18510627746582 -25.810187339782715 21.974263668060303
22.50298500061035 -26.182615280151367 22.43546724319458
22.746374130249023 -26.62380313873291 22.874417781829834
22.909250259399414 -27.130884170532227 23.29086446762085
22.993223190307617 -27.69684410095215 23.686810970306396
23.008737564086914 -28.309563636779785 24.066850185394287
22.975194931030273 -28.951501846313477 24.438218593597412
22.919200897216797 -29.599616050720215 24.810855388641357
22.872669219970703 -30.2256498336792 25.197030544281006
22.871137619018555 -30.797054290771484 25.610251903533936
22.95151710510254 -31.278468132019043 26.064918041229248
23.15147590637207 -31.632457733154297 26.57542371749878
23.50889778137207 -31.82077121734619 27.156676769256592
24.06170082092285 -31.805099487304688 27.82309865951538
LINES 1 121
120 0 1 2 3 4 5 6 7 8 9 10 11 12 13 14 15 16 17 18 19 20 21 22 23 24 25 26 27 28 29 30 31 32 33 34 35 36 37 38 39 40 41 42 43 44 45 46 47 48 49 50 51 52 53 54 55 56 57 58 59 60 61 62 63 64 65 66 67 68 69 70 71 72 73 74 75 76 77 78 79 80 81 82 83 84 85 86 87 88 89 90 91 92 93 94 95 96 97 98 99 100 101 102 103 104 105 106 107 108 109 110 111 112 113 114 115 116 117 118 119
POINT_DATA 120
SCALARS Curvature float 1
LOOKUP_TABLE default
0.0
0.652771584953871
0.6252133737888426
0.4269506374692419
0.25297267272116913
0.15184142098475623
0.09764760508419623
0.07418478778366444
0.08995152725622585
0.16115068507761507
0.2909677754442256
0.43560787744127044
0.49480299124176585
0.43471970993102355
0.3250575138345328
0.2357405723931877
0.1812906237112871
0.14980789256856344
0.12938723407942274
0.11457333642918564
0.1047173757459541
0.10117089427606966
0.10496952785769335
0.1175718485179004
0.14336056694654314
0.19404101526742587
0.2925395273291871
0.47096940311917435
0.6943048490078442
0.7935188776091526
0.6958507289666664
0.48435523724800417
0.3113389331508524
0.2059055884790315
0.1370803929524167
0.07734740421495831
0.011255767512384246
0.10907991009878253
0.24139839142222808
0.3112068254807834
0.24791404488073193
0.10969217970847858
0.01995609605237572
0.03172251735740373
0.013380049208731527
0.033789236016631696
0.10081320063211668
0.19676749858790193
0.32420870713357447
0.4429067117611085
0.47398467019556806
0.39813566163382325
0.28090324103368514
0.17969515989138501
0.10421383880714827
0.04610529500844443
0.02333075736625008
0.06352500014365296
0.09854059893960333
0.11251302865116576
0.1026790662009948
0.07809406898981552
0.055998437005021495
0.05275217616771203
0.06091841094587139
0.06430014165114392
0.05725918426971571
0.04088767415613384
0.02565030500465141
0.03704222676312233
0.06406441457958967
0.09313540392986748
0.12238942477346346
0.1497171659929
0.17185476295210111
0.18363907794145443
0.1801143038908112
0.1615039841497785
0.132364823383306
0.09903121982222525
0.06532631741374066
0.0354883099883031
0.011970662561755972
0.007484242590031393
0.01876296635329514
0.028989809666134174
0.042103445073171625
0.05723078188890903
0.06958873475166612
0.0753460175124195
0.07039749996305995
0.054617510202477675
0.03144054612185893
0.004201683390146288
0.02292698498457777
0.045298829581056736
0.06200662351879867
0.07312393494482766
0.07946447800265789
0.08237285954921375
0.08586027242208406
0.0908648936954846
0.10092985303892557
0.11802613045300989
0.143080587173231
0.1743173099240164
0.2069106923951591
0.22818161181018642
0.2261967908788717
0.19762232987707537
0.15065119879827601
0.09571607085957375
0.03917716370006878
0.04543862780149679
0.14023944357237542
0.2752685317969692
0.4052584633742398
0.4132475340566591
0.28803858252782333
0.0
SCALARS Torsion float 1
LOOKUP_TABLE default
0.0
0.0
0.09301265353235037
0.14907230157644097
0.24476674262696443
0.40057747147857986
0.6254872818304286
0.8179076921955112
0.7734564927244602
0.5531668657317491
0.4046853636652822
0.33827493292066746
0.32129748674234704
0.33759758653485306
0.36965512756043
0.3884960528567613
0.3688293971750251
0.32626082819252716
0.2987104991423299
0.29704920488727665
0.302788493078973
0.28155388159645856
0.2212799536265783
0.14103655326992703
0.056700682370447716
-0.007859496198627705
-0.0604960106064282
-0.0984904808184304
-0.12972838052543867
-0.15498397838581776
-0.1717078907597034
-0.17729071653777698
-0.17236660227666836
-0.17022461333853628
-0.1913050928145089
-0.339252277805318
-0.9999999999885707
-0.23344582098920086
-0.1326864460192703
-0.147846093688288
-0.23133738779992633
-0.6042180140695451
-0.9999998888748606
-0.7189647868469272
0.3881939223971097
0.31956266728759597
0.047321235549395324
0.024367796491995247
0.0293386846643664
0.04091067502957263
0.05449499053995153
0.07079853273576761
0.09221421628649211
0.12814674416229963
0.21901860610439994
0.6562799519528495
0.9909294009300514
0.3293531299661435
0.08288614173602046
-0.041687961635087006
-0.19952389357592476
-0.4703631950793631
-0.7693074929701182
-0.7543335323824668
-0.496545624785758
-0.28791295309697684
-0.12728446612713396
0.1918247970198539
0.8645222683633629
0.6401209423845251
0.16050906093658368
-0.041296973846531
-0.11722544610529728
-0.13172231447271615
-0.11250838918914931
-0.08278253396742552
-0.05563762777545688
-0.03831128926597156
-0.030187614620058766
-0.029510385918814417
-0.051949355438913825
-0.03261206582300611
0.366140967272525
0.9597251875983781
0.0031950979774387767
-0.27195939381026396
-0.32665547928825966
-0.2832174507678616
-0.2417993911361984
-0.22682505791499777
-0.2294463846015688
-0.2556532448061825
-0.3283987548177646
-0.999427769363867
-0.05476800298984519
-0.10218828729882473
-0.11832334710158224
-0.09788157082724992
-0.04062006261107441
0.018585346808870626
0.06984313870737004
0.09318791977879622
0.06928132340454582
0.0401206609955946
-0.004389511029344206
-0.04221542330097834
-0.0617165838551776
-0.06869181219413686
-0.06054292042901598
-0.054933555640445664
-0.06802687650773183
-0.14602471425789854
-0.7909624006006154
-0.7971468545140946
-0.16126895961636312
-0.05336150112649003
-0.024618024050120528
-0.012109135168488449
-0.009105687897714742
0.0
SCALARS Distance_to_V float 1
LOOKUP_TABLE default
0.0
0.5596752210073056
1.141681828298496
1.7393905444854074
2.3451935038716973
2.9514960069953293
3.551703488894431
4.140771466546222
4.715316358266606
5.27312459765242
5.812642776335091
6.333001147593494
6.834726060286072
7.320317024214266
7.794305898973392
8.262029913770021
8.72837606711845
9.197593866528948
9.673992781088252
10.162872850154432
10.670260788017277
11.20131537528366
11.75730012860396
12.332269711265013
12.910685229471193
13.466213271692851
13.964036045436993
14.364423276070417
14.629009619084933
14.727676118517278
14.644522643322075
14.381346012579955
13.95817938163925
13.410703342018913
12.784904958358178
12.13040382122237
11.493268033625096
10.90953595802114
10.399642576044334
9.966152706195235
9.594622944530606
9.258646714357265
8.928173431189855
8.579923047006613
8.205555181050617
7.816417415554502
7.4422344186493445
7.123841955545732
6.901630033415198
6.803886989281381
6.8397521169331
7.000215415612907
7.264401494392572
7.606834479374875
8.001736068768244
8.42516214718348
8.855452856698662
9.274439087017395
9.668776341123941
10.029936415993395
10.35479678725482
10.644595151484568
10.903873652010592
11.13952821797738
11.359485804320032
11.57111936843253
11.779938531265321
11.988526166103403
12.195542635573338
12.395460937947151
12.578864716089598
12.733371857669573
12.844608698524858
12.897861520660213
12.88038113104294
12.782921370595172
12.601080091310227
12.336506465416061
11.99703939471071
11.595759273252854
11.1490463837562
10.674782115845039
10.189193356128316
9.705119311627259
9.230288112429664
8.76661087664847
8.31114548625212
7.857340300357153
7.3970688644991185
6.924043538926855
6.434938977123572
5.932156909558428
5.422928482303944
4.918571944508264
4.432570602966157
3.9777898127895925
3.5654913545213
3.2044623782124777
2.902087262954458
2.665305390547087
2.5000441717034696
2.4082871478878562
2.384339241286822
2.4122766233446513
2.4680142432915635
2.52291656323325
2.5483504680756877
2.5195443603100274
2.4192287791553864
2.240858530108793
1.991378191452134
1.694161931704404
1.3924630338700927
1.14902076992754
1.022591987650859
1.0036873380101117
0.9959905816838823
0.8853267975961107
0.5783257631538421
0.0
SCALARS Local_Extrema int 1
LOOKUP_TABLE default
0
0
0
0
0
0
0
0
0
0
0
0
0
0
0
0
0
0
0
0
0
0
0
0
0
0
0
0
0
1
0
0
0
0
0
0
0
0
0
0
0
0
0
0
0
0
0
0
0
-1
0
0
0
0
0
0
0
0
0
0
0
0
0
0
0
0
0
0
0
0
0
0
0
1
0
0
0
0
0
0
0
0
0
0
0
0
0
0
0
0
0
0
0
0
0
0
0
0
0
0
0
0
-1
0
0
0
1
0
0
0
0
0
0
0
0
0
0
0
0
0
