# vtk DataFile Version 3.0
Curve with Curvature, Torsion, Distance to V, and Extrema
ASCII
DATASET POLYDATA
POINTS 120 float
0.0 0.0 0.0
-0.036787986755371094 -0.7465724945068359 -0.46979308128356934
-0.20747923851013184 -1.5314979553222656 -0.7599985599517822
-0.4837510585784912 -2.3382720947265625 -0.9324285984039307
-0.8372619152069092 -3.150543212890625 -1.0479323863983154
-1.239814043045044 -3.952378273010254 -1.16404128074646
-1.6638295650482178 -4.728858947753906 -1.3310506343841553
-2.083198308944702 -5.466803550720215 -1.587106466293335
-2.474273920059204 -6.155438423156738 -1.9541118144989014
-2.816795587539673 -6.787031173706055 -2.4354937076568604
-3.0939667224884033 -7.357541084289551 -3.017472505569458
-3.29162335395813 -7.867239952087402 -3.6732752323150635
-3.397207021713257 -8.32117748260498 -4.369934320449829
-3.399709939956665 -8.729267120361328 -5.075762033462524
-3.291404962539673 -9.105849266052246 -5.766728639602661
-3.0704705715179443 -9.468218803405762 -6.430131196975708
-2.7429020404815674 -9.83399772644043 -7.0652220249176025
-2.322235345840454 -10.218148231506348 -7.6802637577056885
-1.8272311687469482 -10.630758285522461 -8.286287546157837
-1.2785828113555908 -11.07739543914795 -8.88887906074524
-0.6964445114135742 -11.559396743774414 -9.480690240859985
-0.0997617244720459 -12.075163841247559 -10.03749394416809
0.49242615699768066 -12.620055198669434 -10.519829034805298
1.0588083267211914 -13.18496322631836 -10.880150079727173
1.574090600013733 -13.75545072555542 -11.07341980934143
2.0091665983200073 -14.312118530273438 -11.06879734992981
2.3338711857795715 -14.832438945770264 -10.858119249343872
2.521821618080139 -15.294371128082275 -10.45808720588684
2.5559349060058594 -15.679780960083008 -9.905428171157837
2.432543992996216 -15.978246688842773 -9.24755311012268
2.1630682945251465 -16.18902611732483 -8.530832529067993
1.7725075483322144 -16.322917938232422 -7.792077302932739
1.2951608896255493 -16.400997161865234 -7.054575204849243
0.7683956623077393 -16.450474739074707 -6.3292152881622314
0.22610807418823242 -16.49752926826477 -5.619349718093872
-0.3068065643310547 -16.557963132858276 -4.926846742630005
-0.8177139759063721 -16.62995457649231 -4.25765061378479
-1.3070704936981201 -16.69135856628418 -3.625112771987915
-1.7860252857208252 -16.70243740081787 -3.0498063564300537
-2.2706892490386963 -16.616790533065796 -2.5549638271331787
-2.7750208377838135 -16.39498543739319 -2.159132242202759
-3.3044521808624268 -16.018479347229004 -1.8683149814605713
-3.852208375930786 -15.497396469116211 -1.6709635257720947
-4.398566007614136 -14.870851516723633 -1.5373990535736084
-4.91324257850647 -14.1988844871521 -1.4239823818206787
-5.360452890396118 -13.549916744232178 -1.2811987400054932
-5.705764055252075 -12.986608028411865 -1.0635793209075928
-5.923086404800415 -12.55421495437622 -0.7392632961273193
-5.999450922012329 -12.275574207305908 -0.2962634563446045
-5.935870409011841 -12.152193546295166 0.25615572929382324
-5.744587182998657 -12.1721830368042 0.8903567790985107
-5.4438793659210205 -12.316914558410645 1.5674281120300293
-5.052553415298462 -12.567838668823242 2.2468807697296143
-4.586693525314331 -12.9067964553833 2.895356297492981
-4.059062719345093 -13.314868927001953 3.492520719766617
-3.480260133743286 -13.771187782287598 4.032209187746048
-2.8607494831085205 -14.252787113189697 4.518598139286041
-2.2124078273773193 -14.737492084503174 4.958204984664917
-1.5491149425506592 -15.206435203552246 5.3509440422058105
-0.8863027095794678 -15.647607803344727 5.683492660522461
-0.24007606506347656 -16.057627201080322 5.928597450256348
0.3735013008117676 -16.44274616241455 6.051394462585449
0.9386880397796631 -16.81699299812317 6.021118879318237
1.4399281740188599 -17.199797868728638 5.822888374328613
1.8616201877593994 -17.61267590522766 5.464677691459656
2.1884515285491943 -18.07530701160431 4.978140115737915
2.4067723751068115 -18.60252356529236 4.412458896636963
2.507136344909668 -19.200827062129974 3.825031541287899
2.4872310757637024 -19.868739411234856 3.2724952399730682
2.3541640043258667 -20.597399950027466 2.8037359714508057
2.1252806186676025 -21.373368978500366 2.4553738832473755
1.8274418115615845 -22.181599140167236 2.2492876052856445
1.4946516752243042 -23.00632095336914 2.192411422729492
1.1640949249267578 -23.832001209259033 2.278786778450012
0.8711395263671875 -24.642603397369385 2.4936307668685913
0.6442270278930664 -25.42107629776001 2.8181223273277283
0.5010871887207031 -26.149849891662598 3.233214259147644
0.4479389190673828 -26.81261920928955 3.721346225589514
0.48227357864379883 -27.39686918258667 4.266306817531586
0.5982179641723633 -27.896676063537598 4.8522573709487915
0.7917177677154541 -28.31398296356201 5.4631043672561646
1.0624265670776367 -28.65801239013672 6.0832624435424805
1.411120891571045 -28.940646171569824 6.699915170669556
1.834932804107666 -29.172167778015137 7.305399179458618
2.323931038379669 -29.35717010498047 7.897881746292114
2.8617082238197327 -29.493409156799316 8.479711294174194
3.4302971214056015 -29.575098037719727 9.053541421890259
4.016554236412048 -29.59646224975586 9.61831259727478
4.616736531257629 -29.55699062347412 10.16720986366272
5.236870288848877 -29.46389865875244 10.688476800918579
5.888521432876587 -29.33190631866455 11.16995644569397
6.582483530044556 -29.180410385131836 11.603767156600952
7.323273420333862 -29.029056549072266 11.99076247215271
8.10640835762024 -28.89342975616455 12.341204404830933
8.919199228286743 -28.78361415863037 12.673156499862671
9.744230508804321 -28.70426082611084 13.007275342941284
10.564283609390259 -28.657150268554688 13.361919164657593
11.366875410079956 -28.643407821655273 13.74816107749939
12.14739203453064 -28.664435386657715 14.167646169662476
12.909796476364136 -28.721800804138184 14.613051176071167
13.66442084312439 -28.816311836242676 15.071308851242065
14.424804449081421 -28.947985649108887 15.528055906295776
15.202562093734741 -29.116570472717285 15.971298933029175
16.00237536430359 -29.322896003723145 16.394140005111694
16.817960500717163 -29.57057476043701 16.795400381088257
17.629955053329468 -29.866644859313965 17.178574323654175
18.40613627433777 -30.219980239868164 17.549443006515503
19.104340314865112 -30.63847541809082 17.91356062889099
19.678606748580933 -31.125642776489258 18.275126218795776
20.086334943771362 -31.67845630645752 18.635138273239136
20.295872449874878 -32.28704833984375 18.992326498031616
20.292805433273315 -32.937541007995605 19.3437077999115
20.083901166915894 -33.614952087402344 19.686196088790894
19.696194410324097 -34.30600547790527 20.01736617088318
19.17357897758484 -35.001136779785156 20.336375951766968
18.570364713668823 -35.69433879852295 20.64342474937439
17.94646716117859 -36.38249588012695 20.940053701400757
17.363341093063354 -37.06430625915527 21.228543996810913
16.882657766342163 -37.739131927490234 21.51115584373474
16.565999746322632 -38.40679931640625 21.790599584579468
LINES 1 121
120 0 1 2 3 4 5 6 7 8 9 10 11 12 13 14 15 16 17 18 19 20 21 22 23 24 25 26 27 28 29 30 31 32 33 34 35 36 37 38 39 40 41 42 43 44 45 46 47 48 49 50 51 52 53 54 55 56 57 58 59 60 61 62 63 64 65 66 67 68 69 70 71 72 73 74 75 76 77 78 79 80 81 82 83 84 85 86 87 88 89 90 91 92 93 94 95 96 97 98 99 100 101 102 103 104 105 106 107 108 109 110 111 112 113 114 115 116 117 118 119
POINT_DATA 120
SCALARS Curvature float 1
LOOKUP_TABLE default
0.0
0.30185419111833955
0.20416560408307236
0.11461406082817001
0.05921361422465226
0.07478851910544829
0.12248794183370726
0.16206671174874265
0.18074970708203075
0.17949054199434025
0.16897418556712152
0.16206135077042547
0.16712548020228438
0.180958445778326
0.1861335049070937
0.16608033982937961
0.12478884705206338
0.08110827699426092
0.05108515353276339
0.042022784116233995
0.0539169232514425
0.08651128417143022
0.1473337963151673
0.24954991952575684
0.390200049790595
0.5086945978041517
0.5243984324779226
0.4449590240379381
0.339768250402847
0.25108355130737753
0.18055615858124607
0.12115067516664754
0.06893631468620341
0.02731001541214076
0.019584563031218867
0.020472810313311905
0.014134033221380531
0.10177153209270731
0.23957986860933672
0.35248108111257576
0.34044350972291304
0.24157131521886016
0.14450913064391568
0.07833987360960065
0.08977489539007404
0.23976899455601391
0.5163135285672084
0.6951897231208034
0.587992117556877
0.3710412145470964
0.23209334539366078
0.16978799680092047
0.14238743187248848
0.12467576438982624
0.10503921590069713
0.08263177439055298
0.06477221767424199
0.05958608439438081
0.07304267341022828
0.1170517125620106
0.20774934609898488
0.32640970930414004
0.3896162581570672
0.34864033863540966
0.2634101260576071
0.20209116684434003
0.179734770902204
0.18299818959741943
0.1948113029338037
0.20317119493749397
0.2014083857144029
0.19029054852403884
0.17671009248151803
0.16896670100726346
0.1711795602091437
0.18094207286045766
0.19227081443523963
0.20010187202568247
0.20142655961703904
0.19550050020170895
0.18330663244630555
0.16822930410524523
0.14881447698166556
0.1253870856220011
0.1044830967733001
0.09420799134809325
0.09520242177611297
0.09674177379147543
0.09510314884124023
0.09388521471046199
0.09380426567438756
0.08749420486452253
0.07169995772319752
0.0509707067342131
0.03945795326247022
0.04805734197654732
0.061790202548149
0.0671701624553637
0.061446480115204975
0.05052990846002451
0.04523423140985839
0.04844925691935758
0.05188087991488604
0.052671867166694586
0.05763040049696122
0.07777982196055451
0.12047224214572698
0.18962872959726879
0.2817092696052544
0.3621730765441395
0.3725398678668125
0.30343479537349666
0.20974519310920542
0.13079421939603608
0.07226170524096326
0.023968009642699385
0.030304664371134445
0.10515155625599582
0.23146959249823268
0.0
SCALARS Torsion float 1
LOOKUP_TABLE default
0.0
0.0
0.1563461714790859
0.39896553846477617
0.878549498192435
0.6497627532770701
0.259087975475646
0.13874445063606214
0.10678740560889899
0.11703929970487477
0.16515759897620194
0.23809443135529892
0.28475072349098063
0.27024146432793095
0.22699007244964545
0.1917571732657113
0.1825431390408467
0.22052437457895802
0.35082024944499735
0.36467111645772127
0.1454736136868435
0.01328618650812935
-0.015354437397556313
-0.006495846517328728
0.016062074648926616
0.04532336973181037
0.0777991689025638
0.10036065470065504
0.10873706202666257
0.09646148901817272
0.08809205313798987
0.10443720614483577
0.23098356607269377
0.8510132537012549
0.92900117658694
0.47855461371974395
-0.6564825086138105
-0.02298775698305089
0.00279890553136777
-0.0018516641628422764
-0.016643552235678996
-0.05584680800195746
-0.18937970369674761
-0.7074333867925106
-0.8108741321059539
-0.3111135119970042
-0.11497772268387335
-0.04037872018912306
0.00288328987266593
0.02885481082437315
0.05343741986554086
0.059050659790424134
0.06591506265763339
0.07958213722617997
0.11479233490193681
0.1935026336849054
0.2823559486407418
0.24326343500952846
-0.014707470072174711
-0.17027232128231223
-0.1763045550904682
-0.15695473187752457
-0.17015821078467458
-0.22554548029061378
-0.3194557511530285
-0.3968569637134287
-0.3701879913890788
-0.28263198742457757
-0.206606603340031
-0.17048489984053286
-0.16855697151502982
-0.18942491739046413
-0.22223918353560407
-0.23669630855879076
-0.20546221715113386
-0.1350142278650551
-0.05920805816650106
-0.010169098232129851
-0.014509837787940632
-0.07814537296793365
-0.16934741436499726
-0.20339900187150955
-0.1502262241171881
-0.005311252051655724
0.19792844009102473
0.29163508033816476
0.18428617851488396
-0.039671282805359476
-0.27380054252446817
-0.3970295475287801
-0.39329921986788685
-0.35586932980865416
-0.3717838997326807
-0.5496354215902849
-0.725810200716613
-0.5061818720226571
-0.2181578026978116
-0.02739281240209762
0.17027611093486392
0.4126361127421703
0.5291064464502164
0.3754291329930169
0.14419259315461067
-0.0970340092577415
-0.28527027753071044
-0.27790778309906833
-0.18332658132465074
-0.11648198196698653
-0.0734186586274315
-0.05277238500070256
-0.03562088485084894
-0.024292721107157418
-0.012314442077355723
0.003009290924037903
0.04951222370577304
0.5037393147322585
0.4256117249817469
0.05743856060455943
0.02260825067962978
0.0
SCALARS Distance_to_V float 1
LOOKUP_TABLE default
0.0
0.7978443897530714
1.5127993391860675
2.207267218245419
2.9206919322290164
3.6704387569333656
4.457761687530918
5.2747849954570265
6.109658411286482
6.948809783757785
7.77731006972275
8.578772665171618
9.336880277367362
10.038996157406206
10.68094225142102
11.270263867008468
11.826091939557378
12.374683823469413
12.941612753854193
13.54331435582884
14.179562482853044
14.830315163805782
15.457423033502032
16.010954662847837
16.439085628159138
16.699660144944534
16.76978524624843
16.650845961795643
16.367026508238244
15.959395692209688
15.475929412734482
14.963258882659177
14.46036355663219
13.995646927792846
13.58672690291381
13.241213585934865
12.958795496000587
12.734001710919205
12.558338401934197
12.422290945854465
12.315861748422233
12.228962594039603
12.151316771530778
12.072246602309606
11.980021322549204
11.862199331001658
11.70694943356636
11.50548474579753
11.254877939548319
10.959025806298815
10.628591765930343
10.276878141095702
9.915471016776728
9.550171298374618
9.18051249138951
8.8019996437235
8.409484320383037
8.000918505948997
7.579694241179851
7.156684320345913
6.751358474883826
6.393279533344916
6.122922839789424
5.990138861079771
6.044215054138586
6.314036667474703
6.792009224816733
7.435421108994745
8.184224188369246
8.978343436383687
9.767761740211807
10.515479992411683
11.195442888644816
11.78941823409339
12.283409244507881
12.665863617666336
12.92820808464808
13.066642414137416
13.083263521612569
12.985593726523716
12.784425023081734
12.491590814855254
12.117785570888552
11.672518940783263
11.164404241098719
10.601308968667794
9.990649579315521
9.338598506519414
8.650465120663007
7.9311241820258385
7.185805534038582
6.421656547848568
5.64870902405548
4.8804824601909615
4.133544243719984
3.4267858063969117
2.7822953764547167
2.231757875857487
1.8296428621797391
1.6582222404055615
1.7703631113538707
2.118941782051948
2.6141890117342266
3.189823107427019
3.8012693241327766
4.409298532088572
4.971538129175383
5.441463179183341
5.772926020603451
5.926535659413702
5.876151674903639
5.613431713102265
5.150226473839768
4.516631769694601
3.7570119698644873
2.9240821761256424
2.074617072780991
1.2660574478653113
0.5556550230255911
0.0
SCALARS Local_Extrema int 1
LOOKUP_TABLE default
0
0
0
0
0
0
0
0
0
0
0
0
0
0
0
0
0
0
0
0
0
0
0
0
0
0
1
0
0
0
0
0
0
0
0
0
0
0
0
0
0
0
0
0
0
0
0
0
0
0
0
0
0
0
0
0
0
0
0
0
0
0
0
-1
0
0
0
0
0
0
0
0
0
0
0
0
0
0
1
0
0
0
0
0
0
0
0
0
0
0
0
0
0
0
0
0
0
0
0
-1
0
0
0
0
0
0
0
0
0
1
0
0
0
0
0
0
0
0
0
0
