# vtk DataFile Version 3.0
Curve with Curvature, Torsion, Distance to V, and Extrema
ASCII
DATASET POLYDATA
POINTS 120 float
0.0 0.0 0.0
-0.2892465591430664 -0.45459842681884766 -0.26535820960998535
-0.6390380859375 -0.8842220306396484 -0.4813408851623535
-1.0364474058151245 -1.288599967956543 -0.6511924266815186
-1.468481183052063 -1.6674480438232422 -0.7784373760223389
-1.9221092462539673 -2.0204153060913086 -0.867424488067627
-2.384355902671814 -2.3469762802124023 -0.9242126941680908
-2.842657446861267 -2.6462326049804688 -0.9574732780456543
-3.2854727506637573 -2.9169092178344727 -0.9790582656860352
-3.7030504941940308 -3.1577014923095703 -1.0037174224853516
-4.088017821311951 -3.3680925369262695 -1.0477557182312012
-4.435927748680115 -3.549454689025879 -1.1269536018371582
-4.745706915855408 -3.7062597274780273 -1.2545199394226074
-5.019749045372009 -3.8464784622192383 -1.4395885467529297
-5.263360857963562 -3.980653762817383 -1.6867284774780273
-5.483503699302673 -4.119720458984375 -1.9958648681640625
-5.686986327171326 -4.272526741027832 -2.3629775047302246
-5.8786715269088745 -4.444183349609375 -2.780674457550049
-6.0600727796554565 -4.635819435119629 -3.238567352294922
-6.228705286979675 -4.846137046813965 -3.723867893218994
-6.378299117088318 -5.073484420776367 -4.222248554229736
-6.499610781669617 -5.317471504211426 -4.719138145446777
-6.581591486930847 -5.579531669616699 -5.201396942138672
-6.6130818128585815 -5.862262725830078 -5.659156799316406
-6.584496855735779 -6.1681671142578125 -6.087189674377441
-6.489385485649109 -6.49825382232666 -6.485376358032227
-6.325404047966003 -6.851249694824219 -6.857802391052246
-6.094763159751892 -7.223564147949219 -7.210738182067871
-5.8041099309921265 -7.609861850738525 -7.549874305725098
-5.464040160179138 -8.003944873809814 -7.877453804016113
-5.088425517082214 -8.39950180053711 -8.190180778503418
-4.69365394115448 -8.790483951568604 -8.478160858154297
-4.297508597373962 -9.171157360076904 -8.725414276123047
-3.9176219701766968 -9.536004066467285 -8.911516189575195
-3.5697649717330933 -9.879600048065186 -9.014599800109863
-3.265950083732605 -10.19657278060913 -9.015114784240723
-3.0128949880599976 -10.482007026672363 -8.899797439575195
-2.811477541923523 -10.731616497039795 -8.664310455322266
-2.6574610471725464 -10.942281246185303 -8.3140869140625
-2.5429338216781616 -11.11299991607666 -7.863648414611816
-2.4587494134902954 -11.244841814041138 -7.333985328674316
-2.3969157934188843 -11.342170715332031 -6.749270439147949
-2.352530837059021 -11.412368774414062 -6.1336517333984375
-2.3247040510177612 -11.466178178787231 -5.508893966674805
-2.316457152366638 -11.516142845153809 -4.89285135269165
-2.333530306816101 -11.575316667556763 -4.298702716827393
-2.3821953535079956 -11.655482292175293 -3.7349185943603516
-2.466584324836731 -11.765553951263428 -3.205580711364746
-2.5863746404647827 -11.910431385040283 -2.710850238800049
-2.7355979681015015 -12.090654611587524 -2.2476024627685547
-2.903067946434021 -12.30198884010315 -1.8101272583007812
-3.0744417905807495 -12.536900997161865 -1.3910374641418457
-3.2352346181869507 -12.78569221496582 -0.9825396537780762
-3.3736852407455444 -13.039446830749512 -0.5780200958251953
-3.4826654195785522 -13.292163252830505 -0.17368340492248535
-3.560036540031433 -13.543473839759827 0.2300870418548584
-3.6076873540878296 -13.79918122291565 0.6283707618713379
-3.629937529563904 -14.070323050022125 1.0127997398376465
-3.6319679021835327 -14.370483368635178 1.3738926649093628
-3.6186083555221558 -14.711832091212273 1.7039991617202759
-3.593535304069519 -15.101669386029243 1.9997557401657104
-3.558728575706482 -15.540645599365234 2.263260245323181
-3.514382243156433 -16.022982120513916 2.5016270875930786
-3.458854556083679 -16.538066148757935 2.725204288959503
-3.3890460729599 -17.072928428649902 2.945153035223484
-3.3008140325546265 -17.61467146873474 3.1709560602903366
-3.189496397972107 -18.15212106704712 3.408696234226227
-3.050413966178894 -18.67690372467041 3.660397708415985
-2.87920606136322 -19.182823181152344 3.924332857131958
-2.672186255455017 -19.665315628051758 4.196274638175964
-2.426502823829651 -20.12001132965088 4.470996856689453
-2.140335440635681 -20.542329788208008 4.743732810020447
-1.812989592552185 -20.92683696746826 5.011082291603088
-1.445074200630188 -21.267807960510254 5.271404981613159
-1.0386348962783813 -21.560386657714844 5.524765253067017
-0.5972744226455688 -21.801165103912354 5.7724833488464355
-0.1259746551513672 -21.98993682861328 6.0166096687316895
0.369239866733551 -22.129221439361572 6.25946831703186
0.8819268941879272 -22.22498846054077 6.503318786621094
1.4058156311511993 -22.285032749176025 6.750205755233765
1.935299038887024 -22.31888198852539 7.001959800720215
2.465689182281494 -22.336235523223877 7.260282516479492
2.9932724237442017 -22.3456449508667 7.526843547821045
3.515251040458679 -22.353280544281006 7.803218841552734
4.02961266040802 -22.362263202667236 8.09069538116455
4.535033106803894 -22.371991634368896 8.389872550964355
5.030866503715515 -22.378321647644043 8.700175762176514
5.517221093177795 -22.374510288238525 9.01946210861206
5.995048642158508 -22.352768421173096 9.343818187713623
6.46615469455719 -22.30556583404541 9.6677885055542
6.933087944984436 -22.228629112243652 9.985096454620361
7.398816704750061 -22.121671676635742 10.28996467590332
7.866291642189026 -21.990099906921387 10.577880382537842
8.337989926338196 -21.844109535217285 10.847487926483154
8.815563321113586 -21.697554111480713 11.100152969360352
9.299548268318176 -21.565155506134033 11.34054183959961
9.789333462715149 -21.459855556488037 11.575467109680176
10.283212780952454 -21.39022922515869 11.812963485717773
10.778616070747375 -21.359734535217285 12.060951232910156
11.272568821907043 -21.367241859436035 12.325905799865723
11.761552929878235 -21.409085273742676 12.611400604248047
12.242178082466125 -21.481451988220215 12.918051719665527
12.710857510566711 -21.58284568786621 13.24324893951416
13.16346275806427 -21.714672565460205 13.581809997558594
13.59482204914093 -21.881409645080566 13.9273099899292
13.998722195625305 -22.089066982269287 14.273231506347656
14.36767303943634 -22.343668460845947 14.614319801330566
14.693146824836731 -22.649457931518555 14.947042465209961
14.967127919197083 -23.008614540100098 15.26949405670166
15.182873845100403 -23.420010566711426 15.580953598022461
15.33692181110382 -23.87935447692871 15.88197135925293
15.43005383014679 -24.37848663330078 16.17316436767578
15.468140721321106 -24.905375480651855 16.456541061401367
15.462660908699036 -25.443634033203125 16.73458194732666
15.430095791816711 -25.972561836242676 17.011225700378418
15.391474843025208 -26.467244148254395 17.291743278503418
15.371297955513 -26.899540901184082 17.582759857177734
15.396209836006165 -27.23861789703369 17.8915376663208
15.493847966194153 -27.452362060546875 18.225862503051758
15.692400097846985 -27.50830078125 18.5939998626709
LINES 1 121
120 0 1 2 3 4 5 6 7 8 9 10 11 12 13 14 15 16 17 18 19 20 21 22 23 24 25 26 27 28 29 30 31 32 33 34 35 36 37 38 39 40 41 42 43 44 45 46 47 48 49 50 51 52 53 54 55 56 57 58 59 60 61 62 63 64 65 66 67 68 69 70 71 72 73 74 75 76 77 78 79 80 81 82 83 84 85 86 87 88 89 90 91 92 93 94 95 96 97 98 99 100 101 102 103 104 105 106 107 108 109 110 111 112 113 114 115 116 117 118 119
POINT_DATA 120
SCALARS Curvature float 1
LOOKUP_TABLE default
0.0
0.2278970231606807
0.199750469284649
0.17304427056420973
0.14896308792136506
0.12597689759614533
0.10104337078495729
0.07175632468060975
0.060767204793212445
0.13320692585261157
0.27062643106360607
0.4192989662291166
0.49250366032064874
0.4477439901386368
0.3281686879151962
0.2108488576030682
0.13213963990408215
0.08999334422504061
0.07425643349022863
0.07873011573989595
0.10192649049304367
0.1437675691926844
0.19836940267754316
0.24873445481638765
0.27037969579537635
0.25233463052936883
0.20706820701269266
0.15683849679685247
0.11627310044146105
0.08982460500715196
0.08039410605517491
0.09780593709306859
0.15917944254246927
0.28733076141329816
0.4901561063582004
0.6694247410516364
0.6882626722447259
0.5472038351815379
0.3600284072871805
0.22455908938032434
0.14258629097217823
0.09327807014409846
0.06093855979703446
0.051535702144231164
0.07908489968353932
0.1280655333316226
0.17738895756031434
0.20647755281149655
0.2022963556277244
0.16586921741737798
0.11482826951092495
0.07747695109469725
0.0894615657251946
0.11891439438004918
0.1327975960504491
0.13220953534350588
0.14589565207622232
0.18983337145866172
0.23111972444434267
0.2357782428481792
0.20055355547431192
0.14436112964306344
0.08774294684379653
0.048025282797279
0.04868337139323053
0.07206349040035376
0.09338294044412947
0.10996316599523712
0.12361787487435935
0.13784802748784883
0.15321435875500064
0.16984544875983618
0.18520170867873476
0.19507194656486015
0.19688074867237382
0.18626222499191997
0.16643832715548798
0.13813272924186115
0.10802745027186682
0.0770851524859181
0.050159013872585714
0.03356193504351636
0.032758844828142376
0.03878354119966198
0.04241410832996451
0.043529406689460294
0.04803801634514069
0.06036229225221846
0.07908296270830054
0.09397567282646514
0.1006755816624514
0.0935407259292016
0.0745431189464324
0.05663450952746856
0.06310724741969044
0.09168039607311457
0.11741899679442486
0.13033781875493916
0.12975707683182433
0.12160116071040826
0.11212048561513695
0.10680178371130601
0.10898058648406166
0.12365627250040974
0.14950514313248497
0.18244818695928872
0.21469815573999274
0.23816913652154367
0.24547600011483506
0.23264429399239447
0.20382887176101935
0.1646473086345646
0.12096882919147643
0.07736768630662647
0.06687310511599448
0.1697661822673303
0.4019826470203886
0.6992538408880998
0.7704579853753205
0.0
SCALARS Torsion float 1
LOOKUP_TABLE default
0.0
0.0
-0.047367895653753836
-0.05972793011675808
-0.06297148860341975
-0.03292507854762397
0.10972824737451442
0.6410338778964473
0.9789747345122692
0.6994871656655094
0.3415645203782267
0.23368319387783246
0.23171897642452832
0.2762003891066912
0.3402068461948517
0.3995397035746377
0.4273682796017068
0.39384323426054
0.3125407447936215
0.2125548289622079
0.1284693087588205
0.06802111416178187
0.022651279804449594
-0.016758569795384155
-0.05757969045995394
-0.10013207200801277
-0.14012294982700216
-0.16061199951504196
-0.1174943831965322
0.05388760037944186
0.33639853871306946
0.426075498409091
0.2873765839561192
0.14419069216274955
0.05251409261707729
-0.004808495129117574
-0.05177618066710908
-0.09340763829001301
-0.13088430155849762
-0.16347102950207001
-0.1411321041247862
-0.005148981756968901
0.46187264318656684
0.8232348674221973
0.5589015872930699
0.25480186792912773
0.13719861295304026
0.11710389962922732
0.17029652217827104
0.3158433403936308
0.671677060523442
0.9513185857803352
0.851186729207957
0.457454202758451
0.0034148748278533536
-0.49626984242109873
-0.705162022635593
-0.5542931012112813
-0.331861741513484
-0.1792723844294894
-0.06704372672558606
0.0654319432475054
0.382189091283948
0.9010221993756937
0.8468710511992394
0.36092569484407133
0.06474870225212398
-0.07835980738367698
-0.1420990987781799
-0.14059619345316973
-0.09708279179936037
-0.03134986323334976
0.027742961548440512
0.0687632612248941
0.09744111057577451
0.10842708314523004
0.12461114441291876
0.14217710628538954
0.1874487634221406
0.29637311387158183
0.5569749331318337
0.8394555066836664
0.7476988669551704
0.35066731008971613
-0.07536500796775897
-0.43471033732425224
-0.5908245559696508
-0.5288610289551071
-0.408462754335354
-0.3378409337234058
-0.3169202300518506
-0.40939878968088883
-0.6062096799705472
-0.8837864012072371
-0.841215479147116
-0.5510770186820937
-0.37533255593612114
-0.3141562721192302
-0.29575138616124536
-0.26203404125539476
-0.18292546229955883
-0.01669463613700342
0.13736439043939713
0.1890229825802234
0.1460879344026694
0.06399444937118531
-0.008037521018909283
-0.043115254629725326
-0.06887066621276752
-0.08205480059975917
-0.08442223551216853
-0.13505309680040584
-0.25138078467910074
-0.7112944844567792
-0.9621591723101343
-0.5367758037344855
-0.22162502860306976
-0.1118061241688124
-0.06725418218426188
0.0
SCALARS Distance_to_V float 1
LOOKUP_TABLE default
0.0
0.5949127692765184
1.183520939248849
1.7668205917191908
2.34330609181962
2.9094777092614414
3.4603558108088515
3.989998115143026
4.492198520071588
4.961413306492417
5.393832985707559
5.788695769881111
6.149724877568292
6.485802801769357
6.81020538738894
7.138114768196885
7.483205719695081
7.854455615770328
8.254147142311268
8.678026387357038
9.117042558075036
9.5598001184677
9.994947976394519
10.413218857248651
10.808760125497162
11.179700528452068
11.527865903804406
11.857814463198299
12.175188894450903
12.48461540864855
12.78756811092369
13.080529364035048
13.354127007198322
13.593476529519416
13.780230831051004
13.895832136647641
13.925550890176746
13.86139967277104
13.703658679277865
13.461060918709556
13.148805504153147
12.786902902577088
12.397821468294927
12.00527689465758
11.632391248307023
11.30031421205371
11.026539966000161
10.82305386340734
10.69460601206206
10.63781477199136
10.641021961809672
10.68665892627079
10.754528566874429
10.826628970125034
10.890861219992388
10.943761476686737
10.990226298877882
11.041159364551508
11.10969205672634
11.206981662140604
11.339096263119124
11.505583431705302
11.699878487563405
11.910702981129456
12.124358160443542
12.327056587191324
12.506723546176119
12.654188785957372
12.762952822259631
12.82874814364096
12.848348683415631
12.819066788849558
12.738185426165339
12.603317578560379
12.413200444488202
12.168215950132014
11.871447756150298
11.528240859501855
11.146295292933024
10.734287574987635
10.301486795096128
9.85658983533847
9.40682978615392
8.95726016078112
8.510493424423446
8.066500985414061
7.622958217615062
7.176016546811924
6.721398987735912
6.255209835316837
5.775707762717272
5.283508043910883
4.7827877758898945
4.28038859107946
3.785800480142366
3.309552290028541
2.862234740953838
2.453258323543519
2.0908884329293986
1.783318176469883
1.5413326314127884
1.3786123572798565
1.3070243392025647
1.324295975036182
1.4074893859859956
1.5220039990207248
1.633904388139436
1.7158518163647407
1.748532178389447
1.7201081648728735
1.6264892590386553
1.4719768723033033
1.2694302464580434
1.0416238290383113
0.8205113864635531
0.6422312015714563
0.5242579225317325
0.43097665370154103
0.28288658605416117
0.0
SCALARS Local_Extrema int 1
LOOKUP_TABLE default
0
0
0
0
0
0
0
0
0
0
0
0
0
0
0
0
0
0
0
0
0
0
0
0
0
0
0
0
0
0
0
0
0
0
0
0
1
0
0
0
0
0
0
0
0
0
0
0
0
-1
0
0
0
0
0
0
0
0
0
0
0
0
0
0
0
0
0
0
0
0
1
0
0
0
0
0
0
0
0
0
0
0
0
0
0
0
0
0
0
0
0
0
0
0
0
0
0
0
0
0
0
0
-1
0
0
0
0
0
1
0
0
0
0
0
0
0
0
0
0
0
