# vtk DataFile Version 3.0
Curve with Curvature, Torsion, Distance to V, and Extrema
ASCII
DATASET POLYDATA
POINTS 120 float
0.0 0.0 0.0
-0.38315582275390625 -0.16684722900390625 0.360107421875
-0.7587676048278809 -0.41954612731933594 0.6013789176940918
-1.1317553520202637 -0.7420186996459961 0.7484951019287109
-1.5068554878234863 -1.1180410385131836 0.8260283470153809
-1.8880858421325684 -1.5310611724853516 0.8580360412597656
-2.2778148651123047 -1.9639301300048828 0.8670458793640137
-2.67551851272583 -2.399044990539551 0.8722705841064453
-3.0764899253845215 -2.818727493286133 0.8872880935668945
-3.4712796211242676 -3.206234931945801 0.9178848266601562
-3.846470355987549 -3.547271728515625 0.9609966278076172
-4.186894416809082 -3.8317718505859375 1.0053143501281738
-4.478910446166992 -4.055913925170898 1.0334138870239258
-4.713708877563477 -4.223481178283691 1.025153636932373
-4.889721870422363 -4.346294403076172 0.9616050720214844
-5.012983322143555 -4.442866325378418 0.8284883499145508
-5.094949722290039 -4.535201072692871 0.6187281608581543
-5.1486663818359375 -4.644549369812012 0.333524227142334
-5.184706687927246 -4.7876739501953125 -0.01831817626953125
-5.208094596862793 -4.974449157714844 -0.42197275161743164
-5.217550277709961 -5.207601547241211 -0.8586945533752441
-5.207071304321289 -5.48452091217041 -1.308609962463379
-5.168652534484863 -5.799626350402832 -1.7533702850341797
-5.0951337814331055 -6.146562576293945 -2.1783952713012695
-4.9821577072143555 -6.519576072692871 -2.574467182159424
-4.828889846801758 -6.914013862609863 -2.9383749961853027
-4.637472152709961 -7.326396942138672 -3.2722601890563965
-4.411868095397949 -7.754197120666504 -3.5819029808044434
-4.1566691398620605 -8.195538997650146 -3.874363422393799
-3.876282215118408 -8.648663520812988 -4.155375003814697
-3.5748610496520996 -9.111235618591309 -4.427269458770752
-3.256849765777588 -9.579584121704102 -4.6874518394470215
-2.9278955459594727 -10.047963619232178 -4.928177356719971
-2.595653533935547 -10.507879257202148 -5.136966228485107
-2.2699851989746094 -10.948142528533936 -5.298186779022217
-1.9622855186462402 -11.355628967285156 -5.395142078399658
-1.684110164642334 -11.716623306274414 -5.41249418258667
-1.4454312324523926 -12.019048929214478 -5.3385910987854
-1.2533073425292969 -12.25505805015564 -5.1672492027282715
-1.1112360954284668 -12.423571348190308 -4.8988471031188965
-1.019716739654541 -12.530929565429688 -4.540256023406982
-0.9775490760803223 -12.590124368667603 -4.103933811187744
-0.9830365180969238 -12.619153261184692 -3.606797695159912
-1.0342607498168945 -12.637437343597412 -3.068467617034912
-1.1280970573425293 -12.663881301879883 -2.509237766265869
-1.2582268714904785 -12.714522123336792 -1.9482722282409668
-1.413440227508545 -12.801958799362183 -1.4019765853881836
-1.577230453491211 -12.934571266174316 -0.8829126358032227
-1.7291145324707031 -13.116618633270264 -0.399078369140625
-1.8476295471191406 -13.348581314086914 0.04634857177734375
-1.9141907691955566 -13.626573085784912 0.4548068046569824
-1.9167985916137695 -13.943761229515076 0.8317980766296387
-1.8524370193481445 -14.290594220161438 1.1857852935791016
-1.7274384498596191 -14.657025337219238 1.5264277458190918
-1.5563526153564453 -15.034333646297455 1.8623840808868408
-1.359130859375 -15.41744464635849 2.199183225631714
-1.1574821472167969 -15.80512522161007 2.5380444526672363
-0.9710421562194824 -16.200285524129868 2.8759844303131104
-0.8141202926635742 -16.607857644557953 3.2075083255767822
-0.6935043334960938 -17.032549142837524 3.5269887447357178
-0.6074752807617188 -17.476425051689148 3.8310906887054443
-0.5466780662536621 -17.93783450126648 4.120166301727295
-0.49608278274536133 -18.410975694656372 4.398372411727905
-0.43798208236694336 -18.887725830078125 4.6724467277526855
-0.35514235496520996 -19.35847234725952 4.949722409248352
-0.23358631134033203 -19.815012216567993 5.235947757959366
-0.06421995162963867 -20.251185417175293 5.533665530383587
0.15681886672973633 -20.66395854949951 5.841580450534821
0.4288356304168701 -21.052259922027588 6.154982209205627
0.7478759288787842 -21.416364192962646 6.467158615589142
1.1081957817077637 -21.756486415863037 6.7712647914886475
1.503305435180664 -22.071805953979492 7.062316417694092
1.9266489744186401 -22.35999298095703 7.338487267494202
2.3719162940979004 -22.617350101470947 7.601567506790161
2.833340585231781 -22.839655876159668 7.856356620788574
3.3060199916362762 -23.023162841796875 8.109169721603394
3.7862176448106766 -23.165632247924805 8.365963697433472
4.271523535251617 -23.267512321472168 8.630760192871094
4.760824918746948 -23.3321270942688 8.904825210571289
5.2540000677108765 -23.36585521697998 9.186689138412476
5.751418113708496 -23.3768367767334 9.472904205322266
6.253418684005737 -23.373969078063965 9.759201526641846
6.759789943695068 -23.36471700668335 10.041687488555908
7.269530773162842 -23.354089736938477 10.317546367645264
7.780773639678955 -23.343090534210205 10.586153984069824
8.29102897644043 -23.328802585601807 10.848403930664062
8.797620296478271 -23.305611610412598 11.106563568115234
9.29820966720581 -23.267011165618896 11.363799571990967
9.791314601898193 -23.208419799804688 11.623592853546143
10.276481628417969 -23.128629207611084 11.888734340667725
10.754601001739502 -23.03130865097046 12.161730766296387
11.226716995239258 -22.924277782440186 12.444296836853027
11.694239616394043 -22.817590713500977 12.738253593444824
12.157959938049316 -22.72145414352417 13.045441627502441
12.61768627166748 -22.64347791671753 13.367127418518066
13.072955131530762 -22.588297843933105 13.704393863677979
13.523151397705078 -22.556375980377197 14.056105136871338
13.96829891204834 -22.54574728012085 14.41944169998169
14.40967845916748 -22.553297519683838 14.788547039031982
14.849471092224121 -22.577167987823486 15.154901027679443
15.290494918823242 -22.61755084991455 15.509459972381592
15.734325408935547 -22.67767333984375 15.843478679656982
16.180511474609375 -22.76292371749878 16.151992321014404
16.625057220458984 -22.87964391708374 16.434409618377686
17.0603609085083 -23.03295087814331 16.69600534439087
17.4752254486084 -23.225409030914307 16.946712017059326
17.85671043395996 -23.45716428756714 17.199289798736572
18.191368103027344 -23.726096630096436 17.466267108917236
18.468083381652832 -24.02957820892334 17.756471157073975
18.679018020629883 -24.365206718444824 18.073099613189697
18.820576667785645 -24.73119354248047 18.413111209869385
18.893269538879395 -25.126503944396973 18.767993450164795
18.900894165039062 -25.55015468597412 19.125328540802002
18.849565505981445 -26.000707626342773 19.471184253692627
18.74706745147705 -26.475646018981934 19.791143894195557
18.601892471313477 -26.971691131591797 20.07146406173706
18.42253303527832 -27.484752655029297 20.298871517181396
18.21789264678955 -28.010234832763672 20.460702419281006
17.996413230895996 -28.54345703125 20.54456377029419
17.766799926757812 -29.079599380493164 20.538200855255127
LINES 1 121
120 0 1 2 3 4 5 6 7 8 9 10 11 12 13 14 15 16 17 18 19 20 21 22 23 24 25 26 27 28 29 30 31 32 33 34 35 36 37 38 39 40 41 42 43 44 45 46 47 48 49 50 51 52 53 54 55 56 57 58 59 60 61 62 63 64 65 66 67 68 69 70 71 72 73 74 75 76 77 78 79 80 81 82 83 84 85 86 87 88 89 90 91 92 93 94 95 96 97 98 99 100 101 102 103 104 105 106 107 108 109 110 111 112 113 114 115 116 117 118 119
POINT_DATA 120
SCALARS Curvature float 1
LOOKUP_TABLE default
0.0
0.5028290616838109
0.4129475708432675
0.28013198785929344
0.16115424242764795
0.07157271459798775
0.016754524185949457
0.04870087171741616
0.08207846402061682
0.10303609672124923
0.1120371133023664
0.1540458206522064
0.45309823493942075
0.9010313849209682
0.9736522598331168
0.8332687561551421
0.41568537049560444
0.1726822059644236
0.1205065533383682
0.11933002586148822
0.12803725921003584
0.14396966930845437
0.16317446401242444
0.17701034777597432
0.17656860712037875
0.1591980513609868
0.12981934192229216
0.09764822504709178
0.07130595154693595
0.05506913947660254
0.05037738364117709
0.05766420467051281
0.07992917640919817
0.1238654799555404
0.2061559187718668
0.3567623569284435
0.5846415932310072
0.7709417276763562
0.7813779875192721
0.6166569304562621
0.3903234737674625
0.2289646307463672
0.14716851928875876
0.12096478579474934
0.12496497766238583
0.1409790937063633
0.16440575784426728
0.20079507745881747
0.2530223848915942
0.3031359710480737
0.32308404613438096
0.2940587539657786
0.2290821423839998
0.1513570025752142
0.07618083907741727
0.009101141120585604
0.05556105928410755
0.10771484935771963
0.1400621215364902
0.14186410989833886
0.11267270861619938
0.06119613533224622
0.029784403389700044
0.08382800664197684
0.13735196280096743
0.1706673909096402
0.17942523696112245
0.17104742848460125
0.15523205656451397
0.14065901924351248
0.13012369636756824
0.12310851702850036
0.11909796064735291
0.11934764924896481
0.12470761704344992
0.13134067824949452
0.13112137404399224
0.12000308858380092
0.097387204268901
0.06943776054789907
0.04190275896939084
0.024898231859909276
0.02248961533472951
0.021366022580188028
0.018840496391152584
0.028765350462102754
0.04986961586868945
0.06753110181365839
0.0742794192712191
0.065305385945004
0.04709563037378584
0.0382630356106984
0.05390821056968295
0.07293195265563195
0.0854382821771143
0.0841395848031412
0.07431987164230089
0.0585615881461577
0.05013091502525364
0.06095700726398201
0.08788714643838341
0.11508626148693603
0.13687973085268396
0.14981122260740973
0.16372577274189634
0.19232450409534219
0.23568215830853928
0.27472882673715965
0.29103156599454333
0.2788864913554704
0.24870811367475415
0.21594974949603749
0.19079158288038786
0.17706214004473567
0.17527652567947072
0.18530908872752264
0.20436292498839229
0.23108235023242202
0.25957060991134573
0.0
SCALARS Torsion float 1
LOOKUP_TABLE default
0.0
0.0
-0.026573629587177384
-0.048242263060255086
-0.10938214309667928
-0.41053240273119335
-0.9999948856520455
-0.5363451202104218
-0.10105526779624108
0.14971969316924308
0.6788310541806282
0.9735074657141878
0.8355761340581014
0.5915379741833731
0.5164066222928171
0.6125898332758022
0.848383393393204
0.9735054473784794
0.8697456232685852
0.3209750508384117
-0.051843038661448404
-0.15041086000933845
-0.13570826083013526
-0.09764127409930339
-0.07029834178651032
-0.06168224895824772
-0.07346424289512114
-0.09894748825873502
-0.11084411161958857
-0.046187397602597074
0.1133848208740143
0.20249902123747546
0.1796854916543433
0.12720487771622627
0.08292892498149242
0.04860445511648293
0.026800694697930432
0.02323470210131295
0.04696658555382337
0.10688086337523689
0.23346852837223456
0.4655972430266276
0.6747678679976333
0.7045497518503465
0.5718518087864467
0.4844037623469368
0.477907837369169
0.4890190337637836
0.4550638931294151
0.4007536917877378
0.3426284548895872
0.32151393596326555
0.3224032108889497
0.3529463708090387
0.3686383975307253
-0.9999847411845715
-0.22629574591959412
0.07478714473872353
0.14176392280380895
0.18052678817649095
0.27375842415233675
0.6962246111783179
0.9987635064257118
0.45139240493656974
0.14554387806544106
0.04250714375849085
-0.036274349405117264
-0.10135629874707908
-0.15822954896647734
-0.16943593928590517
-0.10463571894046587
0.030320579482283186
0.19925757341358313
0.32377017612623693
0.3488894543403026
0.2893369859919425
0.1983074871550618
0.09926362133319308
-0.012087187101819663
-0.19326729714843766
-0.5686662592846707
-0.9072924794274136
-0.8330157883128795
-0.22581481844816842
0.7585775485467973
0.6769201217408697
0.3294040539709425
0.1993201880696295
0.15995431182713635
0.29688059471948447
0.6692327620658551
0.9050128874529643
0.6296153065808259
0.2707291996578656
0.09948778311970086
0.040930269240096094
0.06493045065401479
0.3346889374577735
0.6921393696525776
0.5794679403628274
0.22885744846725753
-0.04104352030622149
-0.2308826516742125
-0.4121011759769405
-0.5404376337121061
-0.5343116324036603
-0.4203954175824581
-0.25389412646189624
-0.10794348560150965
0.022281217563314748
0.14618210621163194
0.25005877376461083
0.3083662414206724
0.3280663704653338
0.30478152359250715
0.2561314546692728
0.21370060936404836
0.16288733677648415
0.1311508328983194
0.0
SCALARS Distance_to_V float 1
LOOKUP_TABLE default
0.0
0.5344416142290688
1.0178345767113188
1.4874531128921686
1.9690873864412044
2.4755934199001133
3.0079280392898795
3.557635611403257
4.109473356931811
4.644005262182832
5.140258204332611
5.578639316232127
5.944388495265488
6.230916758277011
6.4425002821295285
6.594884325800222
6.71288002543448
6.825319241451085
6.958725349745893
7.131235612680016
7.349305216598282
7.608572687349418
7.897655029116345
8.203177179850025
8.513955811173323
8.823320382549811
9.129454092121827
9.434308246397134
9.741784733351931
10.055521314442698
10.376936835920244
10.703591831228973
11.028343044173758
11.338934842124756
11.618813444078283
11.848847146029424
12.009869158186499
12.085930264539437
12.067598132084774
11.95475395172797
11.757384875878516
11.494798450968661
11.193885269961305
10.885188238239078
10.599179317377617
10.361565750923987
10.189592126801541
10.08915692064535
10.054446013782044
10.070320465558407
10.116080249434964
10.171098311109125
10.218579511983743
10.248673333293839
10.25968053641102
10.258109423738272
10.256439453370767
10.27050673919681
10.315157586927631
10.400264714498665
10.527420539873813
10.689196377087805
10.87012063013819
11.05038434523051
11.209276639833277
11.329750189521832
11.400497718333465
11.417100365277111
11.380683121926209
11.296208100318731
11.170013974562531
11.00787819911371
10.813808340526386
10.589654710238635
10.335464228299161
10.050239119552963
9.732989919049203
9.384032168226328
9.005596661087129
8.602325115328158
8.18060000082298
7.747863087421109
7.311072468892623
6.875888410418133
6.445144214438363
6.01886163671098
5.594680163322306
5.168823857997639
4.7379631839256255
4.300765490227896
3.858884041789126
3.4177220967682573
2.9849553284176684
2.5700776866420556
2.1837763336166414
1.8385573071816625
1.5520485751159359
1.3503971824351284
1.2661492056221388
1.3173416598571834
1.4859682514694723
1.7315991711286
2.015407930918981
2.307878541102026
2.58688116865063
2.834471631301978
3.0355053172662845
3.17709754910217
3.2498782059857247
3.248444504327635
3.171916350547624
3.0232611977138637
2.8081603401274347
2.5336814989732166
2.2075552553487516
1.836929740040867
1.4276219312293439
0.984107967065016
0.5083286660395608
0.0
SCALARS Local_Extrema int 1
LOOKUP_TABLE default
0
0
0
0
0
0
0
0
0
0
0
0
0
0
0
0
0
0
0
0
0
0
0
0
0
0
0
0
0
0
0
0
0
0
0
0
0
1
0
0
0
0
0
0
0
0
0
0
-1
0
0
0
0
0
1
0
-1
0
0
0
0
0
0
0
0
0
0
1
0
0
0
0
0
0
0
0
0
0
0
0
0
0
0
0
0
0
0
0
0
0
0
0
0
0
0
0
0
0
-1
0
0
0
0
0
0
0
0
0
1
0
0
0
0
0
0
0
0
0
0
0
