# vtk DataFile Version 3.0
Curve with Curvature, Torsion, Distance to V, and Extrema
ASCII
DATASET POLYDATA
POINTS 120 float
0.0 0.0 0.0
-0.21154022216796875 -0.3775177001953125 0.39293336868286133
-0.49985575675964355 -0.7884025573730469 0.6261022090911865
-0.8490664958953857 -1.222604751586914 0.7317671775817871
-1.243506908416748 -1.670114517211914 0.7417247295379639
-1.667994499206543 -2.121002197265625 0.6862456798553467
-2.1081886291503906 -2.565866470336914 0.5920681953430176
-2.5510334968566895 -2.996273994445801 0.4798774719238281
-2.985564708709717 -3.405132293701172 0.36204981803894043
-3.404132843017578 -3.7869434356689453 0.24150538444519043
-3.8036646842956543 -4.137638092041016 0.11230921745300293
-4.186514377593994 -4.454381942749023 -0.03780078887939453
-4.559985637664795 -4.735634803771973 -0.22350072860717773
-4.934357166290283 -4.981047630310059 -0.4579038619995117
-5.319370269775391 -5.191804885864258 -0.7496647834777832
-5.720321178436279 -5.370784759521484 -1.1018085479736328
-6.134942531585693 -5.522477149963379 -1.5119900703430176
-6.552043437957764 -5.652868270874023 -1.973376750946045
-6.9524664878845215 -5.769245147705078 -2.4757132530212402
-7.311743259429932 -5.88014030456543 -3.006286144256592
-7.603973865509033 -5.995246887207031 -3.550899028778076
-7.805826663970947 -6.125309944152832 -4.094949245452881
-7.900267124176025 -6.281344413757324 -4.624819755554199
-7.879098415374756 -6.473292350769043 -5.129330635070801
-7.743871212005615 -6.708688735961914 -5.600886344909668
-7.50486421585083 -6.991456031799316 -6.03593635559082
-7.178511142730713 -7.3213090896606445 -6.434502601623535
-6.7838969230651855 -7.693629264831543 -6.798757553100586
-6.339563846588135 -8.099742889404297 -7.131039619445801
-5.861591815948486 -8.527801513671875 -7.43161678314209
-5.363443851470947 -8.964131355285645 -7.696938514709473
-4.857354164123535 -9.39503288269043 -7.918675422668457
-4.3562846183776855 -9.808619499206543 -8.083897590637207
-3.875504970550537 -10.196332931518555 -8.176627159118652
-3.432722568511963 -10.553474426269531 -8.18042278289795
-3.046433925628662 -10.87959098815918 -8.081664085388184
-2.733020782470703 -11.1774263381958 -7.872901916503906
-2.503544330596924 -11.4527587890625 -7.555377960205078
-2.3616342544555664 -11.712897300720215 -7.139853477478027
-2.302856922149658 -11.966736316680908 -6.6459455490112305
-2.3158669471740723 -12.224009037017822 -6.099665641784668
-2.3851118087768555 -12.494228839874268 -5.5295820236206055
-2.49373197555542 -12.785890579223633 -4.962899208068848
-2.6261096000671387 -13.104496955871582 -4.421810150146484
-2.7692184448242188 -13.452049255371094 -3.9210500717163086
-2.9127449989318848 -13.826555252075195 -3.4666333198547363
-3.0480685234069824 -14.223371982574463 -3.0559864044189453
-3.16707181930542 -14.635720252990723 -2.6795225143432617
-3.2616143226623535 -15.05700159072876 -2.3233823776245117
-3.324366569519043 -15.48205280303955 -1.9733033180236816
-3.350721836090088 -15.909384489059448 -1.618612289428711
-3.340719223022461 -16.341349363327026 -1.2553539276123047
-3.299643039703369 -16.784054160118103 -0.8874077796936035
-3.236851692199707 -17.245245814323425 -0.5253129005432129
-3.1629929542541504 -17.73195743560791 -0.18300342559814453
-3.0867695808410645 -18.248004138469696 0.12647461891174316
-3.012296199798584 -18.79194838926196 0.3950352668762207
-2.938066005706787 -19.357341289520264 0.6223349571228027
-2.857375144958496 -19.93310844898224 0.8165700435638428
-2.7600932121276855 -20.506273865699768 0.9930434226989746
-2.635110378265381 -21.06439757347107 1.170727014541626
-2.4726638793945312 -21.598068475723267 1.3676843643188477
-2.266108989715576 -22.10239052772522 1.5966603755950928
-2.012633800506592 -22.577285528182983 1.862437129020691
-1.713076114654541 -23.025961875915527 2.161158323287964
-1.3708786964416504 -23.45241403579712 2.482239246368408
-0.9907228946685791 -23.858638286590576 2.811842441558838
-0.5773041248321533 -24.24273109436035 3.1366621255874634
-0.13451147079467773 -24.598191738128662 3.4470154941082
0.33476781845092773 -24.915513038635254 3.738580197095871
0.8283216953277588 -25.18452787399292 4.0125744342803955
1.3439127206802368 -25.398284912109375 4.274753451347351
1.8785959482192993 -25.555482864379883 4.533693015575409
2.428247814066708 -25.662017345428467 4.798768758773804
2.987643837928772 -25.73062562942505 5.078348994255066
3.5508673191070557 -25.778647899627686 5.3784120082855225
4.111991047859192 -25.82468557357788 5.701736092567444
4.665605306625366 -25.884963035583496 6.047757625579834
5.207326173782349 -25.970619678497314 6.413077116012573
5.733904123306274 -26.08519411087036 6.792401075363159
6.243411064147949 -26.22396183013916 7.179669141769409
6.7352705001831055 -26.37445640563965 7.5691001415252686
7.210415363311768 -26.518457412719727 7.956034183502197
7.6712775230407715 -26.63531255722046 8.337445735931396
8.121675968170166 -26.70645809173584 8.71212911605835
8.566351890563965 -26.719653606414795 9.080636501312256
9.010369300842285 -26.673095703125 9.44493293762207
9.45834732055664 -26.576053619384766 9.8078293800354
9.913736820220947 -26.447980403900146 10.172267436981201
10.378281116485596 -26.31419277191162 10.540721416473389
10.851170063018799 -26.20114517211914 10.914843559265137
11.328982830047607 -26.132118701934814 11.296297550201416
11.805600643157959 -26.123902320861816 11.685980796813965
12.272449970245361 -26.185637950897217 12.085850715637207
12.720095157623291 -26.319743156433105 12.497426986694336
13.139706134796143 -26.523143768310547 12.921381950378418
13.52499532699585 -26.7890682220459 13.356460571289062
13.872686862945557 -27.109436988830566 13.798019409179688
14.182572841644287 -27.475847244262695 14.239365577697754
14.456082820892334 -27.880574226379395 14.671157836914062
14.694021701812744 -28.317216873168945 15.084554672241211
14.895249843597412 -28.78088092803955 15.471845626831055
15.056210994720459 -29.26759624481201 15.828989028930664
15.172357082366943 -29.773873329162598 16.15595817565918
15.240393161773682 -30.296605110168457 16.45646095275879
15.261412143707275 -30.83222484588623 16.73783588409424
15.242805004119873 -31.376968383789062 17.008334159851074
15.19791555404663 -31.926817893981934 17.276333808898926
15.144211292266846 -32.47852611541748 17.547992706298828
15.09989881515503 -33.03023147583008 17.82564926147461
15.079989910125732 -33.58164024353027 18.107735633850098
15.093562602996826 -34.13463878631592 18.3885555267334
15.142691135406494 -34.692626953125 18.659363746643066
15.222760677337646 -35.259796142578125 18.91051483154297
15.323941707611084 -35.84073829650879 19.132280349731445
15.433495044708252 -36.43941688537598 19.316251754760742
15.53698205947876 -37.0594482421875 19.455599784851074
15.618971347808838 -37.703712463378906 19.544358253479004
15.664473056793213 -38.375131607055664 19.57776165008545
15.657899379730225 -39.07619857788086 19.550600051879883
LINES 1 121
120 0 1 2 3 4 5 6 7 8 9 10 11 12 13 14 15 16 17 18 19 20 21 22 23 24 25 26 27 28 29 30 31 32 33 34 35 36 37 38 39 40 41 42 43 44 45 46 47 48 49 50 51 52 53 54 55 56 57 58 59 60 61 62 63 64 65 66 67 68 69 70 71 72 73 74 75 76 77 78 79 80 81 82 83 84 85 86 87 88 89 90 91 92 93 94 95 96 97 98 99 100 101 102 103 104 105 106 107 108 109 110 111 112 113 114 115 116 117 118 119
POINT_DATA 120
SCALARS Curvature float 1
LOOKUP_TABLE default
0.0
0.5290053512497783
0.40888747708913636
0.27269166452117194
0.16929504604173154
0.1003201584744325
0.057666232857885164
0.037388848677661
0.03819660780054985
0.06621289566954279
0.12470437444523762
0.1922626636892821
0.23147254145829274
0.2223460464249089
0.18166145642730153
0.1376887191130211
0.107409370355819
0.0991772015454958
0.1181520956090163
0.1658508244408804
0.24182596612180515
0.33305649600966075
0.39968506741860926
0.3989346060756793
0.33367228406039395
0.24628847101988888
0.17190653697724445
0.12080273760484071
0.09128724918681935
0.08041107846621051
0.08767127289191609
0.11541127693671224
0.17094326827177805
0.2671550066902808
0.40340760688448307
0.5231045840416989
0.538120051537796
0.4412338379732733
0.30667675605726963
0.1982302435912646
0.13074553162045371
0.10239103291467158
0.1064013006266595
0.1240816226387043
0.13662281441029456
0.1346501379829688
0.11667323534529955
0.09981895830085155
0.10465556935433869
0.11797653973361309
0.1136376690426411
0.09093031412654896
0.07451140369798216
0.08984237119301822
0.11705948414361556
0.130710525933677
0.12222245640507458
0.09354123541938848
0.06475483822219526
0.08495104950870654
0.13746601903394837
0.17515106294347793
0.17908471533273856
0.15487230960304094
0.1221503690841149
0.0990798652040958
0.09368705875608993
0.10332323363882435
0.12118444236061274
0.14243040298629367
0.15745955658939162
0.15698002686771179
0.13646514863975773
0.10144511017564216
0.06575585136083203
0.050656519612518484
0.06260402781071706
0.07760001626292962
0.08157379136302483
0.07091418947925222
0.045869337143824566
0.023024061678054205
0.06543695528087584
0.12541459865328922
0.17136203703375996
0.17842115699811234
0.14395942548728194
0.08132416526269212
0.011591215945977423
0.05905072553283246
0.1177028407439571
0.16025305212985172
0.1841466779082447
0.1914963696734448
0.18615259819665642
0.17215569580403128
0.15532704565160718
0.13806926406441633
0.12554192761831848
0.12159988262453553
0.12741795928082353
0.13867825535959777
0.14974557078691358
0.1540107750796638
0.14190607349715395
0.11253988869857494
0.06990759067102832
0.023207568217429753
0.02857553890144641
0.06445191325139664
0.08684331649417672
0.09569922169385302
0.09565794689976526
0.09616356371135763
0.10343665683253127
0.1172688564308762
0.13497284574904994
0.14917005746125978
0.15867016106856585
0.0
SCALARS Torsion float 1
LOOKUP_TABLE default
0.0
0.0
-0.029337429179857426
-0.05265502892570843
-0.10673621846520083
-0.2248521520381868
-0.44855790953873104
-0.5622101000279118
0.014177579039890364
0.26311501651282576
0.12046505161348278
0.01858683291122379
-0.039601310770073006
-0.05368097784308702
-0.014727605561647969
0.10487332114965385
0.3068345139212762
0.4473528281854013
0.40167379408098913
0.28288529619620223
0.20195807236008018
0.16064386544141682
0.14196472320004702
0.13777564210896298
0.1408450562995261
0.14762363387264058
0.1450160367511579
0.10895910810287412
0.022530275835492344
-0.07005610936784974
-0.06539318022041414
0.02006073550963257
0.10332442781803361
0.1467070315689653
0.1644636052208087
0.16182198033974288
0.16600318892332186
0.1758870490031921
0.22932957903822485
0.35306875021723744
0.5583976170829406
0.696407080971509
0.5845539317592242
0.39148682045109673
0.27981584440772667
0.301133029900505
0.4951608831320205
0.7427326770357219
0.7044883139976895
0.4098884599490898
0.073763883128737
-0.4002289680237131
-0.7799782954727902
-0.6326620455430985
-0.3163112555332903
-0.10419653557802278
0.07722976935521964
0.4185405342583069
0.8972098793864469
0.7815015923360362
0.3770848777354874
0.1674376626636129
0.04645858090262023
-0.07711376032849691
-0.23995109921189495
-0.3821074033887713
-0.3453302797809389
-0.13645024706654177
0.05885171643056816
0.17041150549854445
0.21333348792481893
0.24354761578377732
0.30068462247841504
0.4511917552389572
0.7544501002586876
0.8840842551542224
0.6301395644687976
0.3512659778940038
0.19083302687232778
0.05714766325733192
-0.3334902099978192
-0.995732788840253
-0.48412863335034084
-0.15364832043629345
-0.07073716924556471
-0.047075502905701824
-0.04988672093915528
-0.12696996935102572
-0.9999674958731173
-0.19210965182031914
-0.07485669946724059
-0.06855754705077213
-0.11373882900569761
-0.1304640489738588
-0.13992063381510816
-0.11637897074283468
-0.04473479115871348
0.029871090627944713
0.13283460809741152
0.14139038892744415
0.09437899617273987
-0.02164153188664042
-0.11193707394228308
-0.1636218727538427
-0.21301956682778098
-0.23575434317199814
-0.40238510348908485
-0.9710438287538599
-0.7301885665506349
-0.236884337978012
-0.25509252357429824
-0.34348990204042884
-0.4446848284084229
-0.5242608791451457
-0.4862359411767036
-0.3969088855972532
-0.29706983534101405
-0.21060426543165264
-0.1503018810111716
0.0
SCALARS Distance_to_V float 1
LOOKUP_TABLE default
0.0
0.4146595358060035
0.8292115414503614
1.2831026269777397
1.7884046896303545
2.337864053811326
2.9144825292842587
3.4987030642660244
4.073225026795783
4.626142812892038
5.152561435156409
5.6549787807568395
6.142170807560966
6.626566003633471
7.120522920450892
7.632427470419837
8.163746619319275
8.707949111597568
9.25162461879593
9.777166165792023
10.266409396560478
10.704252265023898
11.081642492862228
11.39715952170003
11.657032705258064
11.873366718502501
12.061129145205008
12.23441291731158
12.403068088020593
12.570534319972301
12.73334146525061
12.882109642819778
13.003460559382138
13.082527090742309
13.105367592308275
13.061753609117375
12.947480694045273
12.7667300835055
12.53240569625311
12.265595810464001
11.992565980583423
11.7402077402988
11.531624833066047
11.382025541728074
11.297111182605052
11.272931334124198
11.29767457141428
11.353723911649231
11.421249893428515
11.482125540986582
11.524658902766463
11.546486186408442
11.555266164361319
11.565893990848727
11.595491058940878
11.657629713798494
11.75748157853223
11.890011645116264
12.040208414783345
12.186451743042197
12.30507778303544
12.375439848476292
12.384041650905056
12.326513985859593
12.207055582299835
12.035479503110484
11.823117213127327
11.579155562937263
11.308228778723642
11.01025513358534
10.681699655865962
10.318402885357616
9.917973385704197
9.48178476032926
9.01560898914134
8.528942256981168
8.03337904856003
7.540618091879496
7.060625798541895
6.599837667238413
6.160154155663106
5.738676342189864
5.328302511568147
4.919392723472774
4.5024509601131735
4.0711555823608
3.625877871136908
3.1760907570357895
2.742806467658968
2.359628615862418
2.071157854302751
1.9199759986237133
1.920533384121486
2.0417755471271275
2.229799863026551
2.4372548195922485
2.6343594132911723
2.805892793801266
2.945730024588172
3.0518710678682854
3.1222505017071627
3.153080217228186
3.1390847567147113
3.075456745658361
2.9600382447594553
2.796473603403392
2.5951821174984118
2.3728766522878395
2.1497252867523335
1.9448372547879142
1.7712196554036377
1.6313715195417111
1.5167474447924223
1.4112061038470178
1.2953791094210714
1.1512048747529287
0.9629149066507032
0.7165646662180295
0.3998152402449834
0.0
SCALARS Local_Extrema int 1
LOOKUP_TABLE default
0
0
0
0
0
0
0
0
0
0
0
0
0
0
0
0
0
0
0
0
0
0
0
0
0
0
0
0
0
0
0
0
0
0
1
0
0
0
0
0
0
0
0
0
0
-1
0
0
0
0
0
0
0
0
0
0
0
0
0
0
0
0
1
0
0
0
0
0
0
0
0
0
0
0
0
0
0
0
0
0
0
0
0
0
0
0
0
0
0
0
0
-1
0
0
0
0
0
0
0
0
0
1
0
0
0
0
0
0
0
0
0
0
0
0
0
0
0
0
0
0
