# vtk DataFile Version 3.0
Curve with Curvature, Torsion, Distance to V, and Extrema
ASCII
DATASET POLYDATA
POINTS 120 float
0.0 0.0 0.0
-0.017893314361572266 -0.10400581359863281 0.5829892158508301
-0.14791345596313477 -0.31952667236328125 0.9778268933296204
-0.3516654968261719 -0.6217041015625 1.1978508234024048
-0.5919356346130371 -0.9855747222900391 1.2567580938339233
-0.8348374366760254 -1.386204719543457 1.1690921783447266
-1.0528244972229004 -1.7993345260620117 0.9507555961608887
-1.2276763916015625 -2.2028932571411133 0.6193348169326782
-1.3523211479187012 -2.578768730163574 0.19395756721496582
-1.4305472373962402 -2.914255142211914 -0.3052656650543213
-1.474522590637207 -3.20266056060791 -0.8582353591918945
-1.500105857849121 -3.4427967071533203 -1.4460241794586182
-1.5212230682373047 -3.6376752853393555 -2.051868438720703
-1.544896125793457 -3.7927370071411133 -2.661882162094116
-1.5684280395507812 -3.9141321182250977 -3.26545786857605
-1.579920768737793 -4.007537841796875 -3.8553225994110107
-1.5619053840637207 -4.078146934509277 -4.427263498306274
-1.496973991394043 -4.13153076171875 -4.979684114456177
-1.373110294342041 -4.175052642822266 -5.513094186782837
-1.187185287475586 -4.2191572189331055 -6.0295703411102295
-0.9456119537353516 -4.277705192565918 -6.532329797744751
-0.6624526977539062 -4.367076873779297 -7.025231599807739
-0.35582637786865234 -4.503963470458984 -7.512150049209595
-0.04412269592285156 -4.70211124420166 -7.996124505996704
0.25684452056884766 -4.969521522521973 -8.478363275527954
0.5351855754852295 -5.3065080642700195 -8.957005739212036
0.7830498218536377 -5.705255508422852 -9.425735712051392
0.9957735538482666 -6.151134490966797 -9.872843027114868
1.1709671020507812 -6.624804496765137 -10.281073808670044
1.307675838470459 -7.104809284210205 -10.628579378128052
1.405806064605713 -7.569997787475586 -10.891457796096802
1.4653449058532715 -8.00157356262207 -11.04735016822815
1.485457181930542 -8.384689807891846 -11.079932451248169
1.4636733531951904 -8.709073066711426 -10.982061624526978
1.395986557006836 -8.968913555145264 -10.758331537246704
1.2781193256378174 -9.161859035491943 -10.423720598220825
1.1076457500457764 -9.288058280944824 -10.001295328140259
0.8859724998474121 -9.349909782409668 -9.51728367805481
0.6195006370544434 -9.352772235870361 -8.996726274490356
0.31980228424072266 -9.305575370788574 -8.460021257400513
0.002796649932861328 -9.220788478851318 -7.920652627944946
-0.3129410743713379 -9.11320686340332 -7.3847620487213135
-0.6085171699523926 -8.99807071685791 -6.852334260940552
-0.8673529624938965 -8.889361381530762 -6.319606065750122
-1.0775399208068848 -8.799329280853271 -5.781860113143921
-1.2334003448486328 -8.739011764526367 -5.23614239692688
-1.3356876373291016 -8.719594955444336 -4.683099985122681
-1.3903956413269043 -8.753136157989502 -4.127531290054321
-1.4068126678466797 -8.85204792022705 -3.5777313709259033
-1.3952860832214355 -9.02701473236084 -3.043813943862915
-1.3655080795288086 -9.284458637237549 -2.535581350326538
-1.3249826431274414 -9.624343872070312 -2.0604138374328613
-1.2780547142028809 -10.039590835571289 -1.6217970848083496
-1.2255325317382812 -10.516916751861572 -1.2188208103179932
-1.1651673316955566 -11.039164066314697 -0.8466958999633789
-1.0930213928222656 -11.588367223739624 -0.49816155433654785
-1.0054593086242676 -12.148133039474487 -0.16510009765625
-0.9011869430541992 -12.706334352493286 0.1597309112548828
-0.7826642990112305 -13.256447076797485 0.4813990592956543
-0.6562414169311523 -13.79703438282013 0.8020374774932861
-0.5308632850646973 -14.331523418426514 1.1207128763198853
-0.41572141647338867 -14.86615239083767 1.4338601529598236
-0.31762027740478516 -15.408144742250443 1.7362055219709873
-0.23889446258544922 -15.963796734809875 2.021881550550461
-0.17643308639526367 -16.537063241004944 2.285722494125366
-0.12196969985961914 -17.128490686416626 2.5242703557014465
-0.06331157684326172 -17.73519468307495 2.736461877822876
0.013920783996582031 -18.350508451461792 2.9235628843307495
0.12445688247680664 -18.965435028076172 3.088534951210022
0.2816615104675293 -19.56941032409668 3.2349588871002197
0.49607205390930176 -20.151803493499756 3.3659019470214844
0.7742948532104492 -20.703214645385742 3.4831608533859253
1.1184160709381104 -21.216705799102783 3.587221622467041
1.5260167121887207 -21.68839406967163 3.6778889894485474
1.9906699657440186 -22.11752700805664 3.755545973777771
2.502756714820862 -22.506366729736328 3.822537899017334
3.050446629524231 -22.858936309814453 3.8842992782592773
3.620869278907776 -23.180336952209473 3.949774742126465
4.201416611671448 -23.47454071044922 4.030673265457153
4.781120210886002 -23.743783950805664 4.139737129211426
5.351800084114075 -23.98669147491455 4.288230895996094
5.908868908882141 -24.198936462402344 4.483203887939453
6.451549768447876 -24.373262405395508 4.725376129150391
6.982515573501587 -24.501060485839844 5.008354902267456
7.5067994594573975 -24.573784828186035 5.319627046585083
8.03013825416565 -24.584932327270508 5.6434006690979
8.557157039642334 -24.53188705444336 5.964500188827515
9.08972692489624 -24.416759490966797 6.272257566452026
9.625919342041016 -24.247584342956543 6.563294172286987
10.160013675689697 -24.037646293640137 6.842436075210571
10.683279991149902 -23.80354881286621 7.1216161251068115
11.185880661010742 -23.56389331817627 7.4167821407318115
11.659073829650879 -23.33570098876953 7.743847608566284
12.098158359527588 -23.133310317993164 8.114657163619995
12.503153800964355 -22.966957092285156 8.533996820449829
12.880151748657227 -22.842588424682617 8.998294115066528
13.239999771118164 -22.763171672821045 9.496302366256714
13.595499992370605 -22.729883670806885 10.011584043502808
13.958148002624512 -22.74383544921875 10.526094198226929
14.334489822387695 -22.806849479675293 11.023805379867554
14.72396469116211 -22.922351837158203 11.493820905685425
15.118147850036621 -23.094451904296875 11.931298017501831
15.502562522888184 -23.32735538482666 12.337229490280151
15.860050201416016 -23.62392234802246 12.716631650924683
16.173646926879883 -23.984203338623047 13.076328039169312
16.430017471313477 -24.405089378356934 13.422255277633667
16.620851516723633 -24.880504608154297 13.758498907089233
16.74300765991211 -25.401578903198242 14.086427450180054
16.79865264892578 -25.95841121673584 14.4051034450531
16.794508934020996 -26.540699005126953 14.712486982345581
16.741711616516113 -27.138270378112793 15.006148099899292
16.65615749359131 -27.74178981781006 15.284678220748901
16.55816650390625 -28.34249782562256 15.548171758651733
16.472376823425293 -28.931711196899414 15.798724889755249
16.42716121673584 -29.501201629638672 16.040119886398315
16.453100204467773 -30.042821884155273 16.277442693710327
16.58206558227539 -30.548320770263672 16.516409635543823
16.845996856689453 -31.009804725646973 16.76333785057068
17.27694606781006 -31.41950511932373 17.024521589279175
17.90679931640625 -31.769600868225098 17.306499242782593
LINES 1 121
120 0 1 2 3 4 5 6 7 8 9 10 11 12 13 14 15 16 17 18 19 20 21 22 23 24 25 26 27 28 29 30 31 32 33 34 35 36 37 38 39 40 41 42 43 44 45 46 47 48 49 50 51 52 53 54 55 56 57 58 59 60 61 62 63 64 65 66 67 68 69 70 71 72 73 74 75 76 77 78 79 80 81 82 83 84 85 86 87 88 89 90 91 92 93 94 95 96 97 98 99 100 101 102 103 104 105 106 107 108 109 110 111 112 113 114 115 116 117 118 119
POINT_DATA 120
SCALARS Curvature float 1
LOOKUP_TABLE default
0.0
0.7878672153078429
0.8178602931081063
0.7036131211737617
0.5455925008605191
0.42870753870766315
0.35279807046129374
0.29449317655073076
0.24108917057721563
0.1912758312249989
0.14961534558602596
0.11984190542430118
0.09977151372085945
0.08341656368977554
0.07846348988051456
0.10908687269623461
0.16305472788481673
0.20395027957712838
0.20836758972450287
0.18115081710844247
0.14969403802957454
0.14227908040267886
0.15556566678259037
0.1662613396842324
0.16341408602328006
0.1510854679579678
0.13956709081467286
0.1391381375868825
0.16381754764796322
0.23950732609259057
0.4127022585724672
0.6845931695837378
0.8580392224355593
0.8239723445889778
0.6159511733327341
0.39261373319603676
0.2578758499767915
0.18395716423457548
0.13615495421643797
0.09567198289227716
0.05788943906774979
0.04869641311659521
0.091736395573949
0.14517584707998235
0.18679276380104737
0.21052092692050323
0.223877672627003
0.23812225885478414
0.25413655363339244
0.2609970553080455
0.24779070639925194
0.21452823420344852
0.16977494149157563
0.12362335474905807
0.08375672201586074
0.05561920061662507
0.04317226294798339
0.03720197159420364
0.024967906002689007
0.003603427848703905
0.027010143466364277
0.05421501468338828
0.07276434131899846
0.07941097052433628
0.07661639822861536
0.07224045335166629
0.07666350360970438
0.09546733128134642
0.12420436527095256
0.1552444871000886
0.18075066762181818
0.1937703853495712
0.19109247850069266
0.1741725178821494
0.1471547441642041
0.11661919965068755
0.08857686644126124
0.0761930230001845
0.08800857225272687
0.11609905194307359
0.14328778001694054
0.16036844244540452
0.1649410366032597
0.16358641410719996
0.16392778027410831
0.16514131735311907
0.15954794718758963
0.1384016494857122
0.10282092214379963
0.06502911735275475
0.06489504381159746
0.11382566830416481
0.16239294065457466
0.1865865910633646
0.1778162768976666
0.14904778331864968
0.12295910788114932
0.11941913595537756
0.1355275952399173
0.15601864675605986
0.17180479544403804
0.1861339672450031
0.20294890028217002
0.21946258096729632
0.22732448662990434
0.22051605297524884
0.2012643086415147
0.1747875003688292
0.1455588046460973
0.1150354006297984
0.08092295571789437
0.042140475222009026
0.02984727504935527
0.10076192358138589
0.20447101420000466
0.31916860472555303
0.3840665156311072
0.3498835977662687
0.24922271665479725
0.0
SCALARS Torsion float 1
LOOKUP_TABLE default
0.0
0.0
0.17709529679960123
0.23315602923946024
0.2481017353306535
0.19894196317142904
0.10880988857410616
0.008189553338388167
-0.09548495086305447
-0.2157671756430321
-0.34375583446183466
-0.41161489214386965
-0.31154034415162546
0.11473752390265979
0.6676550890699323
0.600062225627023
0.3538728520067635
0.24987668968198024
0.2801064846073938
0.43462498828479074
0.6405060564683145
0.6617645450437769
0.48137829839414453
0.2953494514341397
0.17525601531550059
0.08946036592940793
0.0028461463587262092
-0.10500416415618827
-0.202424039439048
-0.2255791716748987
-0.17475159909436208
-0.09171667737263979
-0.00017666337635625917
0.10144560621421479
0.19472946799984045
0.2605095638259327
0.2576000259974242
0.19416897279780715
0.0851426648742035
-0.12350352466008793
-0.6960354480316506
-0.9379516748295953
-0.5084148021492746
-0.24248641496441609
-0.1936242613848279
-0.24251565185213908
-0.31517886118736077
-0.3418018809728566
-0.29686087114900017
-0.22247692161506247
-0.14619989898929767
-0.07418701498600885
0.011381013892073952
0.14632103547105738
0.3856519525931297
0.6928772224178276
0.7727591550499082
0.6466427424064775
0.6195405712298592
0.9999999896189543
0.17374288664860205
0.14840863434412307
0.1946497679931407
0.2807571714024452
0.4162467686836437
0.5604012420394079
0.5892747790316432
0.45962690083578484
0.3030022627894997
0.1838095662659726
0.10182856139651247
0.04609922600755752
0.012078464611789033
0.004914364022002739
0.036261674368786974
0.14796143942856094
0.3974064480955378
0.6210005467825949
0.5171388204297619
0.2380897524411531
0.03881211490867309
-0.12439856070015805
-0.26820995768786043
-0.38704777507288607
-0.42131953169521996
-0.364647628732373
-0.253572265637206
-0.11201766391110615
0.15171698503692063
0.7695325803603202
0.8807656941256918
0.4378910739787217
0.22726420610874407
0.17078666279919788
0.21977174141562408
0.3731135134508897
0.5614868687677621
0.5712262277956541
0.35883687324355
0.0928752197044988
-0.13178805498558904
-0.29045792478363386
-0.3416159034615462
-0.31945722777273977
-0.2467535885922418
-0.17956260304851043
-0.1203842315988171
-0.05941417430529975
-0.01268335784040793
0.048276996804519134
0.1684960395203574
0.6823992660084195
0.9787212191398048
0.2906714915696106
0.10947410221117992
0.05733921810214833
0.037414551141756784
0.024123150088569745
0.019325291314941737
0.0
SCALARS Distance_to_V float 1
LOOKUP_TABLE default
0.0
0.49611126095868585
0.844980985779956
1.108093993186676
1.3396628780380828
1.5787134245168717
1.8464398379156015
2.151157026011948
2.4955624791266326
2.880520048762559
3.3048859910865795
3.763765789109356
4.247941633185283
4.745022038114457
5.241552808019312
5.725345874423722
6.187793993179069
6.625924903456214
7.043625757801681
7.451361447805178
7.864019014615109
8.297401533745802
8.764535351855447
9.272855027994181
9.82306253374901
10.408860523248043
11.016955466765062
11.627489453377475
12.21485648804648
12.749392637036733
13.20036881810615
13.539842719969583
13.747236658495629
13.81241947071927
13.738054059892962
13.538107769677332
13.235436714990133
12.85714920617429
12.430698067472465
11.980563847717029
11.525695307315685
11.07819168174374
10.643430430282761
10.221797371731176
9.811771910491267
9.41356815363587
9.032180967845012
8.678377720356917
8.367394330315689
8.115453994316862
7.935679791920404
7.834328070805706
7.808902686055829
7.848337411716914
7.9353358753972785
8.050164202243682
8.174369573110248
8.294635927331823
8.405088214316038
8.50733323138448
8.60942853147048
8.72273659335093
8.858454834076209
9.024343339252729
9.222475534361624
9.448329830633211
9.691467222856035
9.936772934966564
10.16707619037925
10.365369497450326
10.51724751081485
10.61279127876902
10.647755730469955
10.623641391181033
10.546743348980568
10.42660154407497
10.273491169853989
10.096266703621792
9.899810756071641
9.684355947382567
9.445277359019665
9.175460298570615
8.867597534265693
8.516879637281884
8.122509420761164
7.688296383213255
7.222302795960552
6.735540186423454
6.240830622329706
5.750517736353168
5.273688766215165
4.814689197705495
4.372199258733278
3.9419849651027903
3.5212433775905385
3.113576173306405
2.733145226201983
2.4055965072009835
2.164094927260904
2.0362850444438783
2.0248737952782068
2.0997560517889693
2.2125148130844665
2.3167033227166858
2.37722245713383
2.3722496069107217
2.2911520863678927
2.132217913691944
1.9005339832145451
1.6061562648266337
1.263329284521461
0.8901921543610816
0.5085109585071506
0.143863394324867
0.17576630115019845
0.4190468778234944
0.5547740124049967
0.5512856151491151
0.37689030409918384
0.0
SCALARS Local_Extrema int 1
LOOKUP_TABLE default
0
0
0
0
0
0
0
0
0
0
0
0
0
0
0
0
0
0
0
0
0
0
0
0
0
0
0
0
0
0
0
0
0
1
0
0
0
0
0
0
0
0
0
0
0
0
0
0
0
0
0
0
-1
0
0
0
0
0
0
0
0
0
0
0
0
0
0
0
0
0
0
0
1
0
0
0
0
0
0
0
0
0
0
0
0
0
0
0
0
0
0
0
0
0
0
0
0
0
0
0
-1
0
0
0
1
0
0
0
0
0
0
0
0
-1
0
0
1
0
0
0
