# vtk DataFile Version 3.0
Curve with Curvature, Torsion, Distance to V, and Extrema
ASCII
DATASET POLYDATA
POINTS 120 float
0.0 0.0 0.0
-0.04881644248962402 -0.7420711517333984 0.3715782165527344
-0.23773932456970215 -1.3744487762451172 0.7878952026367188
-0.5361087322235107 -1.9213247299194336 1.2115693092346191
-0.913116455078125 -2.4067859649658203 1.6061346530914307
-1.337923526763916 -2.8544921875 1.937690019607544
-1.7807703018188477 -3.2870092391967773 2.1773569583892822
-2.215329647064209 -3.724595069885254 2.3041832447052
-2.6217641830444336 -4.183670997619629 2.3076460361480713
-2.989474296569824 -4.675030708312988 2.1891796588897705
-3.3175926208496094 -5.202447891235352 1.961531639099121
-3.613131523132324 -5.761770248413086 1.6457808017730713
-3.8865065574645996 -6.340991020202637 1.2662646770477295
-4.145823955535889 -6.921558380126953 0.8446927070617676
-4.392117023468018 -7.48077392578125 0.39571142196655273
-4.617218971252441 -7.995182991027832 -0.0750117301940918
-4.805020809173584 -8.444469451904297 -0.569674015045166
-4.935647487640381 -8.815201759338379 -1.0950360298156738
-4.990636348724365 -9.103553771972656 -1.6585688591003418
-4.957505226135254 -9.316417694091797 -2.2653584480285645
-4.832095623016357 -9.470449447631836 -2.9164485931396484
-4.618846416473389 -9.589664459228516 -3.608396530151367
-4.3292717933654785 -9.702038764953613 -4.333466529846191
-3.9797911643981934 -9.835816860198975 -5.079866409301758
-3.5894713401794434 -10.016132354736328 -5.831656455993652
-3.178389549255371 -10.262381076812744 -6.568294525146484
-2.7665252685546875 -10.586088180541992 -7.264118194580078
-2.373067855834961 -10.989936351776123 -7.888533592224121
-2.0159130096435547 -11.468150615692139 -8.40738582611084
-1.7109971046447754 -12.006358623504639 -8.786121368408203
-1.471534013748169 -12.583775520324707 -8.994572639465332
-1.3073620796203613 -13.174471855163574 -9.012754440307617
-1.2246954441070557 -13.750079154968262 -8.835966110229492
-1.226285696029663 -14.281919956207275 -8.477860450744629
-1.3121044635772705 -14.742656230926514 -7.970083236694336
-1.4798367023468018 -15.10768723487854 -7.358371734619141
-1.7250652313232422 -15.355699062347412 -6.69542121887207
-2.0406599044799805 -15.469724655151367 -6.032304763793945
-2.4159841537475586 -15.439095973968506 -5.410610198974609
-2.8364057540893555 -15.261618852615356 -4.856558799743652
-3.2838783264160156 -14.946079969406128 -4.378168106079102
-3.7383947372436523 -14.51283574104309 -3.9658145904541016
-4.179952144622803 -13.993783473968506 -3.5959367752075195
-4.590365409851074 -13.429008483886719 -3.237107276916504
-4.954095840454102 -12.862990379333496 -2.856809616088867
-5.258315086364746 -12.338986873626709 -2.428302764892578
-5.492201328277588 -11.894061088562012 -1.9354681968688965
-5.646470546722412 -11.555647850036621 -1.3751187324523926
-5.713721752166748 -11.339017868041992 -0.7563033103942871
-5.6900200843811035 -11.248106479644775 -0.09697961807250977
-5.576904773712158 -11.277491092681885 0.5807714462280273
-5.382894039154053 -11.41561508178711 1.255647897720337
-5.123605251312256 -11.648003578186035 1.9108309745788574
-4.820082664489746 -11.960238933563232 2.5357749462127686
-4.49584436416626 -12.339879035949707 3.1258398294448853
-4.173451900482178 -12.777133464813232 3.6801230907440186
-3.871608257293701 -13.265437126159668 4.198445737361908
-3.603306293487549 -13.800573110580444 4.678537845611572
-3.3748221397399902 -14.379967451095581 5.1144507811404765
-3.1857714653015137 -15.000929355621338 5.496642351150513
-3.030060291290283 -15.659549951553345 5.8131895661354065
-2.8973145484924316 -16.3499653339386 6.051818907260895
-2.77492094039917 -17.06496626138687 6.202271342277527
-2.6497983932495117 -17.79662524908781 6.258835196495056
-2.509939193725586 -18.537483394145966 6.222601294517517
-2.345184803009033 -19.280512928962708 6.102975428104401
-2.1473140716552734 -20.019839763641357 5.9175384640693665
-1.9095606803894043 -20.749207019805908 5.690462231636047
-1.6259775161743164 -21.46145749092102 5.449504345655441
-1.2910866737365723 -22.147791862487793 5.222653262317181
-0.8999762535095215 -22.79773759841919 5.035247594118118
-0.4490811824798584 -23.39989423751831 4.907802700996399
0.06262421607971191 -23.942969799041748 4.854918330907822
0.632524847984314 -24.41763734817505 4.884929776191711
1.2537405490875244 -24.8177170753479 5.0002259612083435
1.9154360592365265 -25.139960289001465 5.1981257274746895
2.6039013862609863 -25.384675979614258 5.471895277500153
3.3041046857833862 -25.553924083709717 5.811862468719482
4.001299619674683 -25.651484489440918 6.206462979316711
4.682373285293579 -25.68145179748535 6.643259763717651
5.336973428726196 -25.647371292114258 7.10987663269043
5.958406925201416 -25.55224084854126 7.594591379165649
6.544337749481201 -25.398605823516846 8.086834192276001
7.097332000732422 -25.189139366149902 8.577331304550171
7.624870777130127 -24.92737579345703 9.05825424194336
8.138766288757324 -24.619667530059814 9.523528575897217
8.653514862060547 -24.27526330947876 9.96922492980957
9.183736324310303 -23.906569480895996 10.394139766693115
9.741247177124023 -23.529043674468994 10.800371170043945
10.33228588104248 -23.160387992858887 11.193177700042725
10.955586433410645 -22.819924354553223 11.580862998962402
11.60168743133545 -22.527740478515625 11.973389148712158
12.252962112426758 -22.303657054901123 12.381174087524414
12.885387420654297 -22.165668964385986 12.813552379608154
13.470925331115723 -22.127991199493408 13.277105331420898
13.981534957885742 -22.19999074935913 13.773762702941895
14.393143653869629 -22.38513994216919 14.300026893615723
14.689790725708008 -22.68100357055664 14.846786499023438
14.866016387939453 -23.079818725585938 15.399749755859375
14.927023887634277 -23.569446563720703 15.942153930664062
14.887106895446777 -24.134852409362793 16.45704936981201
14.765894889831543 -24.759785175323486 16.93034267425537
14.585204124450684 -25.428417205810547 17.353020668029785
14.366148948669434 -26.12643051147461 17.72196388244629
14.127138137817383 -26.842439651489258 18.040281295776367
13.883070945739746 -27.568029403686523 18.316164016723633
13.645849227905273 -28.29744052886963 18.56094741821289
13.424064636230469 -29.027938842773438 18.78726863861084
13.224072456359863 -29.758241653442383 19.007034301757812
13.050236701965332 -30.488428115844727 19.230114936828613
12.905562400817871 -31.21900749206543 19.463526725769043
12.791939735412598 -31.950459480285645 19.711437225341797
12.710274696350098 -32.6830997467041 19.975093841552734
12.660540580749512 -33.416778564453125 20.253997802734375
12.641984939575195 -34.15113067626953 20.545982360839844
12.65243911743164 -34.88569259643555 20.8477840423584
12.689042091369629 -35.619537353515625 21.155569076538086
12.748323440551758 -36.35218811035156 21.465482711791992
12.826509475708008 -37.08278274536133 21.77322769165039
12.919699668884277 -37.81050109863281 22.07469940185547
LINES 1 121
120 0 1 2 3 4 5 6 7 8 9 10 11 12 13 14 15 16 17 18 19 20 21 22 23 24 25 26 27 28 29 30 31 32 33 34 35 36 37 38 39 40 41 42 43 44 45 46 47 48 49 50 51 52 53 54 55 56 57 58 59 60 61 62 63 64 65 66 67 68 69 70 71 72 73 74 75 76 77 78 79 80 81 82 83 84 85 86 87 88 89 90 91 92 93 94 95 96 97 98 99 100 101 102 103 104 105 106 107 108 109 110 111 112 113 114 115 116 117 118 119
POINT_DATA 120
SCALARS Curvature float 1
LOOKUP_TABLE default
0.0
0.28852629048947565
0.2389705159224645
0.19017408957939427
0.16950250541748407
0.20068848184567742
0.27170588921936456
0.32860760511470793
0.31964423048869395
0.2510886864961051
0.16863405172324453
0.10428348146576791
0.06836942107285522
0.06411662371574055
0.0901162184693213
0.1452450246880029
0.22158368313512222
0.2836315944395227
0.28638376003482446
0.23039131824430412
0.15614968148596492
0.09698130856046411
0.0677664112427561
0.0702873101543192
0.0891760154410647
0.11482265749965145
0.14923091617639006
0.2015569179852535
0.2828445913721079
0.3952560356412711
0.4959831734241319
0.5132966785377072
0.4397750999148376
0.34343943577556746
0.2776357236649452
0.25438562787292945
0.26684853489937427
0.29717275414080363
0.3141485896795963
0.2893797085895748
0.22686901382609492
0.15169516449272258
0.08937389884213393
0.08403742864242908
0.15015185832434297
0.23861132009601313
0.31664282544656636
0.3537044019067892
0.3423240778397788
0.2995191357028302
0.24751660822709481
0.19888757720138556
0.1584396418412455
0.1284955784139376
0.11170470594750205
0.10945057234017469
0.1167660707795442
0.12743374459337883
0.13745418611733057
0.14704240392750698
0.1569385323059145
0.16612963430709565
0.16958916954043882
0.16180876005319234
0.14164126765340268
0.11384288781266441
0.08829694558871183
0.07817994141070206
0.09268602458912185
0.12522131737009282
0.16415516979405445
0.19875022499281111
0.21812077216871134
0.21706906382079602
0.2006514520857521
0.17663626216024897
0.15404361277561845
0.13557786209840433
0.12296619382280989
0.11599065759377954
0.11280781086601217
0.11125176297562715
0.10822311004954238
0.1011373897327411
0.08741971628510382
0.07065866070626843
0.05656485752943125
0.05051947000171254
0.05375935477600225
0.06382308118275064
0.08129633445696892
0.10824524068438329
0.14732173167282223
0.1990771980625238
0.25836766004595774
0.3081951152557375
0.3255089280480276
0.3029101582754104
0.2556727825380871
0.20494087799708685
0.16287320450278028
0.13066022909555877
0.10597324005804107
0.08514975463036133
0.06572198858660716
0.04787190255770747
0.03550660086816415
0.034530480659634065
0.042204109734822595
0.05064711292712792
0.0561755448383694
0.05787292535402857
0.0567345990843397
0.05353761260754346
0.048034585668769836
0.04202089018151532
0.03576031346981549
0.030120230548870437
0.025727980364055537
0.0
SCALARS Torsion float 1
LOOKUP_TABLE default
0.0
0.0
0.2716570607880367
0.47915681167058366
0.6624596143796498
0.6099201682234232
0.42011031165969176
0.2708302888212074
0.17727060898690275
0.1134954794735044
0.04336389659296032
-0.09168545782070467
-0.3337364224520034
-0.34519138358148305
-0.06366426820310084
0.09002478479566527
0.12649678899148886
0.13497481345253068
0.15035126334085752
0.19353431267895133
0.2966100229207984
0.5030341424545762
0.6730836283700788
0.5164165192191653
0.26906559961210896
0.1248308335086841
0.045636568745660175
-0.0014822764875375566
-0.029996207060000595
-0.0405314298854982
-0.037984812240619094
-0.02260670797118899
0.0041488680910976156
0.04299055192996966
0.08583841167284516
0.1082383655851097
0.0906168105189243
0.04689774674742055
-0.005145436833389014
-0.059779578470021126
-0.1408944345992585
-0.319555498833631
-0.74830677430105
-0.8366349220352469
-0.41192685309427973
-0.18083461587519087
-0.0779281995871423
-0.011997420517530319
0.027951624104229973
0.04303521089722254
0.02565282832610223
-0.027591440821097116
-0.1213393017333596
-0.24467272575618373
-0.3333259845100053
-0.30606508289802925
-0.18071452435862834
-0.032503765454831274
0.08968656865043367
0.17290151879300864
0.21399654673938218
0.21499278105566044
0.19883631037997757
0.18548392855989795
0.20248615715438795
0.2777622446657436
0.44624464705619427
0.5712438325306661
0.44749031568874653
0.2502956570636643
0.12468268670075075
0.05873944097914538
0.029081482831700776
0.019127520282987174
0.01611956016197959
0.021674312566784197
0.01802308561011392
0.013538081286608728
-0.0037883781611771482
-0.0320725868735669
-0.06629747117277578
-0.1058072125500646
-0.15562745710193343
-0.2221947835422477
-0.3225301552622921
-0.47026279078148603
-0.6142366799992685
-0.6506945246803547
-0.5563519701673515
-0.44754600434954533
-0.3495832107396202
-0.27268214716745937
-0.2077942308811397
-0.15925019484120387
-0.11343183580857205
-0.07540087900658017
-0.03510796931924489
0.010310340887286551
0.05367674791900609
0.10270864221278599
0.1432380924709553
0.17785106086411476
0.20533579203849883
0.23680547995900883
0.2993244660421152
0.465322874894783
0.671973400970809
0.6528126875041023
0.4060625668630193
0.2090606091223841
0.09881790970638149
0.02081620420835792
-0.013062856609931572
-0.055806072211299414
-0.08604068778633737
-0.11724660427474962
-0.16327679619924954
-0.2468493800227942
-0.32792455131999226
0.0
SCALARS Distance_to_V float 1
LOOKUP_TABLE default
0.0
0.2862144418238708
0.6765021810583762
1.1592773834268237
1.7021017146879118
2.2695184873813288
2.8308619270779665
3.3657640227489294
3.8681712619116855
4.347388846463871
4.8237230116744145
5.319623704165398
5.849439690906268
6.413031321820074
6.995952270117928
7.574753394842945
8.124204512534513
8.624157452307832
9.064625705707183
9.448586017031804
9.791658298444947
10.119083049548843
10.460292633498398
10.842367641239838
11.283675141404624
11.78923469826968
12.34837569930786
12.935500409894075
13.513698729968176
14.039737351370588
14.471287586210096
14.773804222772721
14.926898166610851
14.928022987499345
14.792538332891954
14.550216180940588
14.238296683626691
13.893404414224985
13.544726560756125
13.209614458073823
12.893095141326688
12.590253435894516
12.2913992571229
11.986904029297744
11.671082614050412
11.343634354834233
11.008632601568117
10.67215884191863
10.339107628546909
10.011999523100616
9.691445207002117
9.378282761306252
9.075866678424662
8.791274018990793
8.53479441558881
8.318014776190987
8.151836459854774
8.044445772072011
7.999910757706981
8.01730521626466
8.091184147725498
8.212888097966248
8.372968922966011
8.562991930343987
8.776634275104271
9.00872220131828
9.253591836406889
9.50220961442561
9.74078012684366
9.95090310303229
10.111446301515297
10.201696278136176
10.204496891655214
10.109053583464858
9.912280456793397
9.618127752914113
9.236661723148043
8.781455351373163
8.268072012337498
7.712064317553204
7.127612019486758
6.527247957654898
5.922160131760749
5.323688880395503
4.745963518804106
4.210437998806064
3.7506287885014613
3.41532016039352
3.2614601565329755
3.3280124478031032
3.6063079246773997
4.042921100772082
4.567459513789889
5.113646869072956
5.625637299989266
6.059189085782575
6.381987681622347
6.574776377435052
6.631436142851461
6.557586033207097
6.367991201200448
6.082494294749367
5.722977281543021
5.3109050708695165
4.865558005447117
4.403517594369712
3.939018545149079
3.4830505241047938
3.0443146571321553
2.6289523641315036
2.2411420782673983
1.88343174214826
1.5568329177614137
1.261294707067323
0.995726540605821
0.757475043411538
0.5432056876074991
0.34868704029569103
0.16925707389388633
0.0
SCALARS Local_Extrema int 1
LOOKUP_TABLE default
0
0
0
0
0
0
0
0
0
0
0
0
0
0
0
0
0
0
0
0
0
0
0
0
0
0
0
0
0
0
0
0
0
1
0
0
0
0
0
0
0
0
0
0
0
0
0
0
0
0
0
0
0
0
0
0
0
0
-1
0
0
0
0
0
0
0
0
0
0
0
0
0
1
0
0
0
0
0
0
0
0
0
0
0
0
0
0
0
-1
0
0
0
0
0
0
0
0
0
1
0
0
0
0
0
0
0
0
0
0
0
0
0
0
0
0
0
0
0
0
0
