# vtk DataFile Version 3.0
Curve with Curvature, Torsion, Distance to V, and Extrema
ASCII
DATASET POLYDATA
POINTS 120 float
0.0 0.0 0.0
-0.3308887481689453 -0.5094051361083984 -0.017731189727783203
-0.6784136295318604 -1.0379180908203125 -0.021968841552734375
-1.047757863998413 -1.5817108154296875 -0.01076364517211914
-1.4438598155975342 -2.136813163757324 0.017207622528076172
-1.8707549571990967 -2.6988391876220703 0.0615229606628418
-2.330272912979126 -3.262929916381836 0.11864566802978516
-2.8198559284210205 -3.824054718017578 0.1810436248779297
-3.3301408290863037 -4.377690315246582 0.2373800277709961
-3.8434178829193115 -4.920699119567871 0.2736668586730957
-4.333776235580444 -5.451770782470703 0.2749667167663574
-4.769693613052368 -5.971385955810547 0.22721529006958008
-5.118761777877808 -6.481240272521973 0.11887788772583008
-5.35349440574646 -6.983670234680176 -0.05768442153930664
-5.456496000289917 -7.481212615966797 -0.30536746978759766
-5.423580884933472 -7.9763689041137695 -0.6221513748168945
-5.263955354690552 -8.47124195098877 -1.0016603469848633
-4.997736692428589 -8.96678352355957 -1.4342546463012695
-4.651862382888794 -9.461714744567871 -1.9080629348754883
-4.2554638385772705 -9.951916694641113 -2.4095277786254883
-3.836294412612915 -10.430802345275879 -2.922922134399414
-3.418565511703491 -10.890673160552979 -3.4292945861816406
-3.022247076034546 -11.325328826904297 -3.9054946899414062
-2.663304567337036 -11.731850624084473 -4.324159622192383
-2.3542802333831787 -12.112821102142334 -4.655716896057129
-2.1049535274505615 -12.475890159606934 -4.872358322143555
-1.9225575923919678 -12.831470012664795 -4.953386306762695
-1.811826229095459 -13.189666748046875 -4.8896284103393555
-1.7750146389007568 -13.555355072021484 -4.684871673583984
-1.8118386268615723 -13.925315618515015 -4.355047225952148
-1.9197418689727783 -14.285965204238892 -3.924405097961426
-2.0943491458892822 -14.614991903305054 -3.420989990234375
-2.3300769329071045 -14.885273218154907 -2.872713088989258
-2.6207258701324463 -15.068940162658691 -2.3048248291015625
-2.9593160152435303 -15.142305135726929 -1.7384681701660156
-3.336735486984253 -15.089214324951172 -1.1896486282348633
-3.739331007003784 -14.903236150741577 -0.6685318946838379
-4.146801233291626 -14.58927297592163 -0.1791062355041504
-4.531686067581177 -14.16381025314331 0.28046369552612305
-4.8613879680633545 -13.654304265975952 0.7164745330810547
-5.102449178695679 -13.09751844406128 1.1377196311950684
-5.226142644882202 -12.536188125610352 1.5533766746520996
-5.214191675186157 -12.016284942626953 1.971196174621582
-5.063161611557007 -11.581263542175293 2.396328926086426
-4.786509275436401 -11.268721103668213 2.830801486968994
-4.413286447525024 -11.10536813735962 3.273535966873169
-3.983494997024536 -11.105185508728027 3.7205069065093994
-3.541198492050171 -11.267790794372559 4.16474986076355
-3.1269171237945557 -11.579614162445068 4.596119403839111
-2.771289110183716 -12.01651906967163 5.001183986663818
-2.4917008876800537 -12.547950744628906 5.36348831653595
-2.292356252670288 -13.141809940338135 5.664563894271851
-2.1672470569610596 -13.76898193359375 5.886026859283447
-2.1046030521392822 -14.40691351890564 6.012550532817841
-2.0907223224639893 -15.041340112686157 6.03507798910141
-2.111990213394165 -15.666257739067078 5.9533162117004395
-2.155103921890259 -16.281991839408875 5.776400566101074
-2.2067019939422607 -16.893101513385773 5.521927714347839
-2.253415822982788 -17.506205685436726 5.213524341583252
-2.283146619796753 -18.127802670001984 4.878167629241943
-2.2872731685638428 -18.76272141933441 4.544022560119629
-2.2626821994781494 -19.41369616985321 4.23884916305542
-2.212367296218872 -20.080137014389038 3.9886815547943115
-2.144045114517212 -20.758923530578613 3.81634259223938
-2.0671627521514893 -21.44377851486206 3.7396535873413086
-1.989440679550171 -22.126110076904297 3.769803762435913
-1.9140369892120361 -22.795788764953613 3.9103987216949463
-1.8383560180664062 -23.44177770614624 4.157400131225586
-1.7545714378356934 -24.052623748779297 4.500184535980225
-1.6518261432647705 -24.618123531341553 4.923309564590454
-1.5189940929412842 -25.128527641296387 5.40857195854187
-1.3470804691314697 -25.575132369995117 5.936902046203613
-1.1304986476898193 -25.949520111083984 6.49003541469574
-0.866715669631958 -26.242984771728516 7.05141594260931
-0.5550565719604492 -26.447566986083984 7.6065768003463745
-0.19544005393981934 -26.556904792785645 8.143266558647156
0.21184277534484863 -26.568395614624023 8.651788353919983
0.6653268337249756 -26.485145568847656 9.125625848770142
1.1613871455192566 -26.31658172607422 9.562092304229736
1.6937703788280487 -26.078468322753906 9.962635040283203
2.254158064723015 -25.79105281829834 10.332131147384644
2.8334144353866577 -25.47740077972412 10.678093194961548
3.4232871532440186 -25.16070556640625 11.00862741470337
4.017753839492798 -24.861831188201904 11.33083963394165
4.613776683807373 -24.59606647491455 11.64937686920166
5.211142063140869 -24.37070941925049 11.96588134765625
5.8114941120147705 -24.183559894561768 12.278865814208984
6.417065858840942 -24.022942543029785 12.585004329681396
7.029398202896118 -23.870112419128418 12.880584239959717
7.648534059524536 -23.70393943786621 13.163500308990479
8.272508382797241 -23.50621747970581 13.434556007385254
8.897855043411255 -23.266064167022705 13.698502540588379
9.520162343978882 -22.98313808441162 13.963297367095947
10.134602308273315 -22.66826820373535 14.238746166229248
10.736970663070679 -22.342402935028076 14.535112857818604
11.323520421981812 -22.033376693725586 14.861088752746582
11.891574621200562 -21.77162265777588 15.222616195678711
12.438913106918335 -21.58591866493225 15.621952056884766
12.96372389793396 -21.49930453300476 16.057143211364746
13.46458125114441 -21.525893926620483 16.522201538085938
13.939914464950562 -21.66987657546997 17.00823974609375
14.386953115463257 -21.926409244537354 17.504496574401855
14.800824880599976 -22.28300952911377 18.000536918640137
15.17435336112976 -22.722759246826172 18.48707103729248
15.497481107711792 -23.22700548171997 18.957706451416016
15.759406805038452 -23.777507781982422 19.40861701965332
15.949970006942749 -24.357863903045654 19.83890724182129
16.06255316734314 -24.95358419418335 20.250906944274902
16.096057653427124 -25.551401138305664 20.650094985961914
16.056966543197632 -26.13904094696045 21.04500102996826
15.958383321762085 -26.704434394836426 21.446666717529297
15.819775342941284 -27.236339569091797 21.867006301879883
15.663979291915894 -27.725194931030273 22.317298889160156
15.514659643173218 -28.164015769958496 22.806488037109375
15.394711256027222 -28.548906326293945 23.339713096618652
15.324771642684937 -28.880105018615723 23.918070793151855
15.324334859848022 -29.161124229431152 24.53935718536377
15.41189169883728 -29.39823818206787 25.198920249938965
15.605722188949585 -29.59904384613037 25.890833854675293
15.924099683761597 -29.771799087524414 26.609000205993652
LINES 1 121
120 0 1 2 3 4 5 6 7 8 9 10 11 12 13 14 15 16 17 18 19 20 21 22 23 24 25 26 27 28 29 30 31 32 33 34 35 36 37 38 39 40 41 42 43 44 45 46 47 48 49 50 51 52 53 54 55 56 57 58 59 60 61 62 63 64 65 66 67 68 69 70 71 72 73 74 75 76 77 78 79 80 81 82 83 84 85 86 87 88 89 90 91 92 93 94 95 96 97 98 99 100 101 102 103 104 105 106 107 108 109 110 111 112 113 114 115 116 117 118 119
POINT_DATA 120
SCALARS Curvature float 1
LOOKUP_TABLE default
0.0
0.03517184548077842
0.04104131870799027
0.046953407231537195
0.05024801033380895
0.049531731816850416
0.04454926361105924
0.03746701484164331
0.0391236352708123
0.06882966960484901
0.1339954200576193
0.23915800097195725
0.36472442347533607
0.43715966177012766
0.3988548351798827
0.29029353889996534
0.18495952704146534
0.11123790390325654
0.06534740998731127
0.03757456877932208
0.01930459185598391
0.005055881412745567
0.042363230046136985
0.13889040196858168
0.35911454475319676
0.6788279450306675
0.8063108331101959
0.6709894423234862
0.4267952364485251
0.2721124592907984
0.2114242869617996
0.2048321348337358
0.22965273251126414
0.2652450090464759
0.28790171251850705
0.28018709197557495
0.2457573720476782
0.20538271356142998
0.1797253503487597
0.18397448561034732
0.22625987378253742
0.30247644699505477
0.390133272902146
0.44946173697966463
0.4513579451394516
0.41003983072487427
0.3561407630216068
0.3103688969390853
0.27640285788842983
0.2529712070793867
0.24074339428481026
0.24281873672030546
0.25936566013524326
0.2768538287813501
0.270557421049431
0.22924854638636477
0.16554084637730415
0.10056152828014749
0.053090629175524644
0.05178007123475274
0.08428290702148562
0.12228736596878137
0.16146861249051866
0.1973580941770994
0.22234422388286626
0.22950786512575047
0.21921543267658883
0.20004417280286357
0.18070697486429954
0.1695313391178158
0.16825290218599195
0.17722732833467905
0.19609265798748685
0.22134360305243406
0.24665611474095037
0.25839571729643995
0.2451187530913375
0.20865152103249482
0.15995925755629892
0.11120043103143658
0.06697759415667306
0.033634550443534146
0.03455729802762164
0.05859965124994103
0.07564105308405178
0.07559563979138234
0.05652671048137393
0.030375230557477227
0.03906122697884597
0.0655845702409977
0.07914848846018864
0.07513901213750313
0.059277586074661194
0.047233083553797385
0.06765590028134666
0.11521400372001016
0.17283759870595602
0.22381376993359253
0.24958701528688718
0.2435764584885367
0.216540390588083
0.18370408760276113
0.15700390555398985
0.1413962006983666
0.13689308501743952
0.14190352392492922
0.14956564711580494
0.15255762421895488
0.14439624471985277
0.12892105974539197
0.11448368292914367
0.11689446541377407
0.1387881142136308
0.1674923953226531
0.1888556317773861
0.19964459483490476
0.19892072919838327
0.18925482649633504
0.17136025433796356
0.0
SCALARS Torsion float 1
LOOKUP_TABLE default
0.0
0.0
0.3605272267338125
0.2376433628586741
0.20721931773458926
0.24857650460097783
0.3677127117162782
0.6025151346275204
0.7351172959742636
0.4909302015541669
0.2738466252164254
0.16823638850362246
0.11173083945886142
0.07655343520552035
0.05172995426765283
0.030409392098618884
0.0032472359909283995
-0.04575348525010463
-0.13760396090981475
-0.2717883866173809
-0.33045556490784617
0.9999747458805568
0.16704257349502294
0.009328141716464705
0.005939228314264324
0.025817177445300467
0.05690392673317185
0.08590290295395436
0.11293169103849436
0.10036772276255732
0.04682123024853631
-0.006450005868905498
-0.03145343618136559
-0.03583292212795776
-0.046193934366043556
-0.079250329678353
-0.14730056356291443
-0.2615589634397853
-0.3925653248972549
-0.44883272264240504
-0.3935791728769876
-0.3166685516521656
-0.26247395088869996
-0.24971842510105013
-0.2561986726224548
-0.2679349436184272
-0.25932076583191394
-0.21777265485786426
-0.1447985772515117
-0.04611484341452876
0.0726028633564017
0.18239473010810686
0.23385266470787025
0.2205277143183083
0.1854518095036709
0.1748925865630091
0.23069624613523113
0.4577607202854471
0.8905569904584385
0.8464777557576559
0.43411763404024045
0.26516640053093027
0.20136833004130994
0.14938853964361254
0.09258363662094679
0.025696497906792293
-0.0513998282378422
-0.13650816001292276
-0.2101922239304405
-0.24692445368329272
-0.23406895505915917
-0.18092033424697043
-0.11889849379209513
-0.0766497926984787
-0.05610016603755013
-0.053100163738834624
-0.05765133882013404
-0.06347291444907249
-0.08009649861699272
-0.12659435474658443
-0.3102632857384864
-0.8637038845720469
-0.8407103927715915
-0.3135357966604766
-0.07264809418508283
0.08718492450377203
0.3605529276475075
0.9370999061204717
0.7845195671246382
0.3431521935035488
0.24756032239187736
0.2946335016059992
0.5137626605806973
0.8077200612133539
0.6095869077598642
0.31301130881575046
0.17959853222154815
0.12268215909940756
0.09550790590938137
0.07708888973785522
0.05874241214017699
0.019574084656163025
-0.029995730296575214
-0.10994997545081348
-0.15845119105663963
-0.1807661747497007
-0.18573289108981372
-0.20473901023493726
-0.2654398092135721
-0.4007307079166142
-0.5683654344612104
-0.6043440037427568
-0.48245365635709386
-0.35265305370851324
-0.2774760166093467
-0.24686253401713748
-0.22609877475681067
-0.19605522618073332
-0.15966447797508196
0.0
SCALARS Distance_to_V float 1
LOOKUP_TABLE default
0.0
0.5667682752318532
1.154106433108952
1.7631842982820403
2.395347615109617
3.0517131010572567
3.7322964236824925
4.4343533867194225
5.150409343796964
5.867047562139518
6.565137667338034
7.222344451430343
7.817566201897293
8.336358431145927
8.775466911927664
9.144845717691263
9.465990616820916
9.766795584471144
10.074358845656787
10.408113536655023
10.775585805582558
11.171507544744182
11.580333785275325
11.979976812136364
12.347315923369221
12.662860972883626
12.914491946029045
13.099581212112499
13.223147260074184
13.295109241679846
13.325317830121097
13.3205772358456
13.28384274150058
13.21487558999892
13.112438913123206
12.975394118821221
12.802526036641247
12.591845864624249
12.339713242801013
12.041225212766703
11.691969835700862
11.290426179376544
10.841713136451231
10.359070816525133
9.865427968674085
9.391178277533715
8.970707746201914
8.636417992419751
8.413036445259342
8.313285740816037
8.336813296829055
8.472575868039957
8.70357417379786
9.012230020629504
9.38400645351409
9.808330603819797
10.276939591846656
10.78179258359088
11.313653149163047
11.861802874024564
12.414778588515105
12.96160879514656
13.49162913031762
13.994886877510128
14.461302943646105
14.880950796058258
15.244388065995809
15.542999875997547
15.76909708577657
15.917009969715629
15.982550388286587
15.96352087100569
15.859044450827703
15.668654374061536
15.392316199119765
15.030371568772743
14.584882552678973
14.061310960883208
13.469375162151087
12.823288801889289
12.140431707597706
11.439700960471693
10.739405097910828
10.055422082106377
9.399229586543191
8.776753610925505
8.188179214902677
7.6283131936431054
7.088452987824337
6.559228524710568
6.0339637324743
5.511002159895142
4.996229455970264
4.5041124097900145
4.057074774464915
3.6825541819704712
3.405968537685108
3.240975128889112
3.1817459719584784
3.2043957248454102
3.2769293320225703
3.3695055618150596
3.4585756042094213
3.527409205139047
3.5630608453894625
3.5562188309132052
3.500437878345805
3.393271351030059
3.2369934143512618
3.0390955070192653
2.809786937703903
2.56021325795818
2.2986849774222926
2.0286951854223654
1.7491433436288122
1.4558002739599334
1.1427598743179763
0.8027934568306114
0.42625270277129335
0.0
SCALARS Local_Extrema int 1
LOOKUP_TABLE default
0
0
0
0
0
0
0
0
0
0
0
0
0
0
0
0
0
0
0
0
0
0
0
0
0
0
0
0
0
0
1
0
0
0
0
0
0
0
0
0
0
0
0
0
0
0
0
0
0
-1
0
0
0
0
0
0
0
0
0
0
0
0
0
0
0
0
0
0
0
0
1
0
0
0
0
0
0
0
0
0
0
0
0
0
0
0
0
0
0
0
0
0
0
0
0
0
0
0
-1
0
0
0
0
0
1
0
0
0
0
0
0
0
0
0
0
0
0
0
0
0
