# vtk DataFile Version 3.0
Curve with Curvature, Torsion, Distance to V, and Extrema
ASCII
DATASET POLYDATA
POINTS 120 float
0.0 0.0 0.0
-0.39351844787597656 -0.5817909240722656 0.18138504028320312
-0.8275737762451172 -1.1620044708251953 0.4216041564941406
-1.2837989330291748 -1.7383708953857422 0.6984200477600098
-1.743964672088623 -2.308694839477539 0.9893965721130371
-2.1904711723327637 -2.8710498809814453 1.2715778350830078
-2.607179641723633 -3.424056053161621 1.5212984085083008
-2.980940341949463 -3.967240333557129 1.714552879333496
-3.3032784461975098 -4.501358985900879 1.8286638259887695
-3.5719170570373535 -5.028410911560059 1.8453054428100586
-3.791494846343994 -5.551580429077148 1.754159927368164
-3.9726462364196777 -6.074939727783203 1.5554800033569336
-4.129341125488281 -6.602959632873535 1.2609491348266602
-4.275059700012207 -7.139971733093262 0.8922309875488281
-4.418800354003906 -7.68940544128418 0.4773712158203125
-4.562045574188232 -8.252849578857422 0.04607582092285156
-4.697897911071777 -8.828965187072754 -0.37541961669921875
-4.812466621398926 -9.412616729736328 -0.7691693305969238
-4.887872219085693 -9.994786262512207 -1.1289949417114258
-4.905984878540039 -10.56363296508789 -1.4616398811340332
-4.852235794067383 -11.106603145599365 -1.7847704887390137
-4.718729496002197 -11.613536357879639 -2.1218972206115723
-4.506404876708984 -12.079963207244873 -2.494870662689209
-4.225632190704346 -12.508785724639893 -2.9159178733825684
-3.8951282501220703 -12.90967845916748 -3.3817028999328613
-3.5395889282226562 -13.296543598175049 -3.870882511138916
-3.1865530014038086 -13.68227243423462 -4.345897197723389
-2.8629026412963867 -14.074497699737549 -4.758718967437744
-2.5916881561279297 -14.472341537475586 -5.05944299697876
-2.389716625213623 -14.864728212356567 -5.205677509307861
-2.2665042877197266 -15.232576370239258 -5.1704277992248535
-2.224616527557373 -15.552157163619995 -4.946959018707275
-2.2611513137817383 -15.800088167190552 -4.55023717880249
-2.370178699493408 -15.956590414047241 -4.013998508453369
-2.545201301574707 -16.008275508880615 -3.384986400604248
-2.7807068824768066 -15.947641849517822 -2.7159457206726074
-3.07222843170166 -15.77243161201477 -2.0578112602233887
-3.4148054122924805 -15.485066413879395 -1.4524059295654297
-3.8003311157226562 -15.092557668685913 -0.9270319938659668
-4.214785099029541 -14.607158660888672 -0.4916648864746094
-4.636617183685303 -14.047789573669434 -0.1393275260925293
-5.037289619445801 -13.439536094665527 0.15067815780639648
-5.384136199951172 -12.814366340637207 0.40741443634033203
-5.645115375518799 -12.209047794342041 0.6619973182678223
-5.794475078582764 -11.663032054901123 0.9414076805114746
-5.818203449249268 -11.21465015411377 1.2634196281433105
-5.717642307281494 -10.896890640258789 1.6336069107055664
-5.510397434234619 -10.733261108398438 2.0451016426086426
-5.227761268615723 -10.735779285430908 2.481220245361328
-4.909221649169922 -10.904399394989014 2.920071601867676
-4.595086097717285 -11.227455615997314 3.3398873805999756
-4.319040298461914 -11.684375286102295 3.723424196243286
-4.102315425872803 -12.24812126159668 4.060227870941162
-3.951143741607666 -12.888386726379395 4.346084117889404
-3.8576998710632324 -13.575714111328125 4.580344200134277
-3.804093360900879 -14.28438138961792 4.762595891952515
-3.7677454948425293 -14.994921922683716 4.890443444252014
-3.7266459465026855 -15.695932388305664 4.9595760107040405
-3.6633801460266113 -16.383002519607544 4.966253876686096
-3.567246437072754 -17.058172583580017 4.9107745885849
-3.4343528747558594 -17.726971745491028 4.8004162311553955
-3.266335964202881 -18.396393448114395 4.650371313095093
-3.068131923675537 -19.072437345981598 4.4823726415634155
-2.8455591201782227 -19.75809621810913 4.321639537811279
-2.603266716003418 -20.45218074321747 4.192989110946655
-2.343386650085449 -21.14928936958313 4.117451906204224
-2.065168857574463 -21.840024948120117 4.1097657680511475
-1.7654180526733398 -22.512511730194092 4.1772301197052
-1.4394664764404297 -23.153894901275635 4.31951117515564
-1.0824363231658936 -23.75234889984131 4.529469609260559
-0.6903111934661865 -24.297955989837646 4.794779300689697
-0.2608680725097656 -24.78414297103882 5.100356936454773
0.2056112289428711 -25.207812786102295 5.4312774538993835
0.7054978609085083 -25.56953525543213 5.775747060775757
1.231001377105713 -25.87260150909424 6.127437770366669
1.7697851657867432 -26.122604370117188 6.486746147274971
2.305689826607704 -26.325886249542236 6.860117584466934
2.8212186694145203 -26.487640857696533 7.257461488246918
3.301461935043335 -26.61095094680786 7.68790078163147
3.7383575439453125 -26.69618511199951 8.155582308769226
4.133754849433899 -26.741382598876953 8.656919240951538
4.500290870666504 -26.744261741638184 9.180187940597534
4.859274864196777 -26.703760147094727 9.707666635513306
5.236099481582642 -26.621644496917725 10.219489812850952
5.654446840286255 -26.503073692321777 10.698060512542725
6.130917310714722 -26.35619878768921 11.131986141204834
6.671782493591309 -26.190765380859375 11.51838207244873
7.272557258605957 -26.017090797424316 11.863040924072266
7.919891357421875 -25.84443426132202 12.179282188415527
8.595144271850586 -25.680733680725098 12.484565258026123
9.27855634689331 -25.531935691833496 12.797004699707031
9.953123092651367 -25.402542114257812 13.131961822509766
10.607529163360596 -25.29575777053833 13.498499393463135
11.237549304962158 -25.213950157165527 13.89849853515625
11.8457350730896 -25.15927219390869 14.326724529266357
12.439813137054443 -25.133830070495605 14.772429943084717
13.030214786529541 -25.140239715576172 15.221880435943604
13.626550197601318 -25.181528091430664 15.662279605865479
14.234840869903564 -25.261615753173828 16.083900928497314
14.854989528656006 -25.3851637840271 16.482601642608643
15.480271816253662 -25.557594776153564 16.859504222869873
16.0978741645813 -25.78473663330078 17.220153331756592
16.690078258514404 -26.072118759155273 17.57232904434204
17.23690366744995 -26.423808574676514 17.923933506011963
17.718729496002197 -26.841459274291992 18.280766010284424
18.118104457855225 -27.322895050048828 18.645646572113037
18.421638011932373 -27.862204551696777 19.01813840866089
18.620805263519287 -28.44911003112793 19.39461088180542
18.71169424057007 -29.070451736450195 19.769726276397705
18.69556188583374 -29.711868286132812 20.137467861175537
18.578973293304443 -30.35948657989502 20.492406368255615
18.374454975128174 -31.002307891845703 20.83051824569702
18.101746082305908 -31.63309097290039 21.150063037872314
17.788339138031006 -32.24935722351074 21.451210498809814
17.469071865081787 -32.85301494598389 21.736314296722412
17.18527364730835 -33.44963455200195 22.009149074554443
16.9822735786438 -34.04712200164795 22.274428844451904
16.907589435577393 -34.65507125854492 22.53734827041626
17.00975465774536 -35.283308029174805 22.803368091583252
17.337499141693115 -35.942100524902344 23.077999591827393
LINES 1 121
120 0 1 2 3 4 5 6 7 8 9 10 11 12 13 14 15 16 17 18 19 20 21 22 23 24 25 26 27 28 29 30 31 32 33 34 35 36 37 38 39 40 41 42 43 44 45 46 47 48 49 50 51 52 53 54 55 56 57 58 59 60 61 62 63 64 65 66 67 68 69 70 71 72 73 74 75 76 77 78 79 80 81 82 83 84 85 86 87 88 89 90 91 92 93 94 95 96 97 98 99 100 101 102 103 104 105 106 107 108 109 110 111 112 113 114 115 116 117 118 119
POINT_DATA 120
SCALARS Curvature float 1
LOOKUP_TABLE default
0.0
0.10085434620210205
0.05879449061056487
0.02504897608790805
0.010729707490957857
0.05250018333602255
0.1139562098138527
0.2005298803153113
0.29474729922096315
0.34386706197193284
0.31138546030418485
0.22476908043586263
0.13395847869091515
0.06235356473175083
0.012414099377241625
0.03292055144611235
0.06572695468260273
0.09738875732261158
0.13494431816719638
0.18215155507075811
0.22398689392885504
0.22966532972670822
0.19013992058315365
0.1268804768436488
0.059388728469405516
0.017732722576254224
0.11110330755379391
0.2841564176306463
0.5930818401576914
0.860984799191685
0.8653129269727058
0.6421438320298971
0.39809814919168723
0.2713520124628668
0.2242194591213589
0.21830466913564145
0.2287901131889422
0.2330356392859065
0.2152022031862176
0.17657301170437065
0.13245749529894693
0.10656950051818932
0.14507191115416768
0.2696622593911392
0.46424068602365687
0.6331871685187961
0.6607306979458393
0.5657239620785811
0.4446528327707741
0.3557069557883858
0.297447905997832
0.25083627352811494
0.2061518222997566
0.16325937780034255
0.12699864541589823
0.10760925227004685
0.11551581098573102
0.1389099855854028
0.15108888855170735
0.13673313457633146
0.10003397944241407
0.058110750649870625
0.04191158146903133
0.0673908295133639
0.09966288353189798
0.12657302220131297
0.14579588121685427
0.15700126843082413
0.16086665676278236
0.15994781176861203
0.15604706771721905
0.15073148768916325
0.14251541786248345
0.13015781360927947
0.11366836960584316
0.10251448277345321
0.11250140317737568
0.13997601433510323
0.16232845529353085
0.1614496754437106
0.13564133938010664
0.1076915472671357
0.11584451236340315
0.15157603906260605
0.172810116361324
0.1627568358485726
0.12875402890292995
0.08475981896847311
0.04380825037545811
0.02883836113642438
0.053015528151053815
0.07552725259527913
0.08505940684560775
0.08015715035127412
0.06658527528092238
0.058555768830509655
0.06610464640705475
0.08032009304206432
0.08979998863268929
0.09491212646500428
0.10182648583433584
0.11772338125610321
0.14295932388016044
0.17192819980784316
0.19676167711536344
0.2114442680379979
0.2137367692045071
0.20743965423563887
0.19485132737035069
0.17761771573690593
0.15474274641994157
0.12363732243797836
0.08229475058049376
0.02923465793979678
0.057032894385868865
0.16251821106234227
0.28168986855360945
0.34652535717982025
0.3014146208686668
0.0
SCALARS Torsion float 1
LOOKUP_TABLE default
0.0
0.0
-0.07340265692906967
-0.3474254673971647
-0.9602181561836718
-0.12265127133373488
-0.07212445364403954
-0.07137885316266136
-0.07971050373084909
-0.09257967465030977
-0.11165474683639821
-0.1373474276765322
-0.16764294563173332
-0.1589732022769045
0.9953534035367567
0.45668868642318483
-0.09512705461450038
-0.2933856332440868
-0.39835324712573184
-0.4115616853589287
-0.3654213217264502
-0.3054001513388845
-0.25456765541429216
-0.2101932543634682
-0.05200372772871456
0.9995350760787313
0.1358605259018646
-0.022056513135378736
-0.07071297861568902
-0.09103299733957176
-0.09481374539767085
-0.07353591713387472
-0.028023926670821285
0.03580977904857947
0.08370793816942339
0.0938009110079456
0.07086602020198919
0.02915327521077421
-0.031876460490690386
-0.1394578535422775
-0.3876193719036041
-0.7300863672356643
-0.6625553040025132
-0.39241294579611496
-0.25059228965816166
-0.2011267909227275
-0.19783695839963125
-0.21823191352658602
-0.23482337679347803
-0.22471930385760927
-0.18816077163031336
-0.13801900001225087
-0.07513525054818262
0.03253805688469141
0.2413098116813863
0.4948976882528866
0.49722886834927293
0.32161001279258183
0.18882993435836556
0.15093509852774536
0.23726701257105487
0.6391585214826885
0.9011060125713634
0.45377989884518344
0.13584729784153926
-0.00037139366456970246
-0.07652301019664114
-0.1323583268778263
-0.17506656846180496
-0.21090623235471392
-0.2280632729911424
-0.21630603993886208
-0.1605170809666884
-0.04101465933825331
0.1814693269828785
0.4607791812453328
0.5026581478872371
0.32256462752909065
0.1210052862822873
-0.0857639443769107
-0.3850916243806426
-0.7470455573136827
-0.7355404438470272
-0.46664465138801053
-0.28618404630152566
-0.20715415338752982
-0.20327367332068338
-0.2937897987135333
-0.7147841470738149
-0.9485911071045526
-0.4356908508990557
-0.14360341607809973
-0.005088823926919811
0.15257699728673896
0.4053561861692353
0.6219798922992483
0.4862590373266464
0.2342782330417999
0.010838591090341632
-0.16373737908472277
-0.2816002461667907
-0.2932858133257786
-0.23136771619157728
-0.15521743810592076
-0.10339012081696455
-0.06531618673350327
-0.042003516776536826
-0.031067215125497597
-0.02206238923612333
-0.017264377943449368
-0.004073406255263682
0.014137783455936586
0.11285080258450508
0.9007770399401731
0.5372336792443967
0.10307066729797776
0.0389099537185604
0.021557333486258927
0.012730423265493526
0.0
SCALARS Distance_to_V float 1
LOOKUP_TABLE default
0.0
0.6075266428717938
1.2504149493983443
1.9141800046068354
2.581180428157032
3.232684689398681
3.8509393671204326
4.421911935441092
4.938399576232575
5.402920630766602
5.829131423251679
6.239911168047771
6.661634999568057
7.116209468226532
7.6140379011758785
8.150944444131776
8.71013842509567
9.267647758771615
9.798836189469688
10.284248987178609
10.713895586073136
11.089639713721905
11.42519504137797
11.742476696826671
12.064522734673552
12.406772433873309
12.768956938754345
13.132521590341492
13.464496202281468
13.725993004133388
13.883056416152952
13.915070123148505
13.819913538487176
13.613465617928195
13.325901896451866
12.994649857513066
12.656674574748514
12.341445651436823
12.06603153854885
11.833215632511093
11.63316627495869
11.446825621772097
11.252128479341975
11.029564344840772
10.767650975074107
10.466399318959333
10.138288210098688
9.806505478473031
9.501188774825158
9.254098481097413
9.092538259246663
9.034535219040926
9.085087083745359
9.235302466858986
9.464909730227221
9.74707577152103
10.054568118711833
10.365532890283399
10.666464815819362
10.953282556389409
11.22881664702792
11.499210365588407
11.769440685545383
12.039723054419722
12.30395898692594
12.55042303389463
12.763790979176747
12.928126776818708
13.029517856340593
13.058293139672356
13.009679442050226
12.88410805221018
12.686283216004124
12.424309999232566
12.108327900428066
11.749544988100947
11.35870563822667
10.94434411365215
10.512064151839446
10.064340825895803
9.600918512831822
9.119594485985164
8.61633780085794
8.085942012290436
7.523466905705064
6.926554221021268
6.2974869805069735
5.644350906664277
4.9796536207935445
4.3182945193608795
3.6743622864987326
3.0596377611085432
2.4851819803732824
1.9672329347354736
1.54139950951728
1.2829127158911418
1.2838516405306488
1.5343230224845208
1.929959439424613
2.3860251966695962
2.8544052294704714
3.3039423443582887
3.7091794783661984
4.047484987855655
4.299331623062548
4.44946913298105
4.488196201007774
4.412215930165292
4.223716170150016
3.9301500033448398
3.543655346851855
3.0806665394570354
2.562740532237385
2.0167035405514024
1.4746301163094133
0.9737618691053727
0.5559845974650268
0.2682030246620448
0.13091370314814088
0.0
SCALARS Local_Extrema int 1
LOOKUP_TABLE default
0
0
0
0
0
0
0
0
0
0
0
0
0
0
0
0
0
0
0
0
0
0
0
0
0
0
0
0
0
0
0
1
0
0
0
0
0
0
0
0
0
0
0
0
0
0
0
0
0
0
0
-1
0
0
0
0
0
0
0
0
0
0
0
0
0
0
0
0
0
1
0
0
0
0
0
0
0
0
0
0
0
0
0
0
0
0
0
0
0
0
0
0
0
0
0
-1
0
0
0
0
0
0
0
0
0
0
1
0
0
0
0
0
0
0
0
0
0
0
0
0
