# vtk DataFile Version 3.0
Curve with Curvature, Torsion, Distance to V, and Extrema
ASCII
DATASET POLYDATA
POINTS 120 float
0.0 0.0 0.0
-0.5488929748535156 -0.0056171417236328125 0.21723413467407227
-1.1184197664260864 -0.13014602661132812 0.49701642990112305
-1.6989631652832031 -0.3542976379394531 0.8087477684020996
-2.2808411717414856 -0.6582517623901367 1.121851921081543
-2.8543879985809326 -1.020730972290039 1.4059500694274902
-3.410014569759369 -1.417963981628418 1.631624698638916
-3.9386013746261597 -1.8232402801513672 1.7718334197998047
-4.432275891304016 -2.208184242248535 1.8042898178100586
-4.885393500328064 -2.546079635620117 1.7142415046691895
-5.295759439468384 -2.8170337677001953 1.497152328491211
-5.665688991546631 -3.013406753540039 1.1604804992675781
-6.0024635791778564 -3.143429756164551 0.7236480712890625
-6.317855596542358 -3.2310867309570312 0.21608352661132812
-6.626187562942505 -3.311335563659668 -0.3268275260925293
-6.941021680831909 -3.4221315383911133 -0.8688740730285645
-7.2709784507751465 -3.595831871032715 -1.3783044815063477
-7.615980625152588 -3.8530282974243164 -1.8320574760437012
-7.965091228485107 -4.200248718261719 -2.2181878089904785
-8.297070026397705 -4.631418228149414 -2.536210536956787
-8.584135055541992 -5.1316118240356445 -2.795640468597412
-8.798110961914062 -5.681452751159668 -3.0135083198547363
-8.917340755462646 -6.260894775390625 -3.2114644050598145
-8.932210922241211 -6.8517537117004395 -3.412919521331787
-8.847276210784912 -7.438957691192627 -3.640389919281006
-8.679358959197998 -8.010722160339355 -3.912553310394287
-8.4524827003479 -8.558136463165283 -4.240932941436768
-8.191449165344238 -9.074514865875244 -4.626265048980713
-7.916492462158203 -9.554924964904785 -5.055252552032471
-7.640488624572754 -9.996069431304932 -5.499189853668213
-7.369232177734375 -10.395807266235352 -5.915635585784912
-7.104015350341797 -10.752524614334106 -6.254077434539795
-6.844958543777466 -11.063663959503174 -6.464932918548584
-6.593469619750977 -11.324470520019531 -6.509636402130127
-6.352886915206909 -11.528116941452026 -6.368637561798096
-6.127674102783203 -11.667708396911621 -6.045150279998779
-5.922069072723389 -11.73951005935669 -5.563577175140381
-5.739556312561035 -11.745672941207886 -4.963730335235596
-5.583384275436401 -11.694854736328125 -4.29318380355835
-5.457549571990967 -11.599875926971436 -3.5998663902282715
-5.367454767227173 -11.472498655319214 -2.926450252532959
-5.319750547409058 -11.318742513656616 -2.306731700897217
-5.3214287757873535 -11.13613510131836 -1.763476848602295
-5.378236293792725 -10.914580345153809 -1.3068451881408691
-5.492376327514648 -10.642696857452393 -0.9333276748657227
-5.66002082824707 -10.314930438995361 -0.625971794128418
-5.869909763336182 -9.938486576080322 -0.3568081855773926
-6.103821516036987 -9.534682750701904 -0.09174823760986328
-6.339709758758545 -9.13625955581665 0.20261478424072266
-6.556389808654785 -8.780218601226807 0.552009105682373
-6.738505601882935 -8.500073432922363 0.9695372581481934
-6.879569053649902 -8.31941556930542 1.4540801048278809
-6.982091426849365 -8.248546600341797 1.992048978805542
-7.054597854614258 -8.284667015075684 2.561584711074829
-7.106955528259277 -8.415245056152344 3.1372084617614746
-7.146786212921143 -8.623412609100342 3.693878412246704
-7.17842960357666 -8.893703937530518 4.209673166275024
-7.2045769691467285 -9.216258525848389 4.667552590370178
-7.22847318649292 -9.587869644165039 5.0569252371788025
-7.254496097564697 -10.009668350219727 5.375566840171814
-7.286585807800293 -10.482625961303711 5.631161630153656
-7.325722694396973 -11.004467964172363 5.840874344110489
-7.368232250213623 -11.567073822021484 6.028612844645977
-7.406190395355225 -12.158430218696594 6.219726786017418
-7.429535865783691 -12.76474642753601 6.434959352016449
-7.429168224334717 -13.37401556968689 6.685308933258057
-7.399658679962158 -13.978702299296856 6.96952098608017
-7.340661525726318 -14.576602518558502 7.274762868881226
-7.25673246383667 -15.17067563533783 7.580099701881409
-7.155712127685547 -15.766709208488464 7.86182975769043
-7.046359062194824 -16.371668338775635 8.098965406417847
-6.9357850551605225 -16.99092674255371 8.27780818939209
-6.8276207447052 -17.627331018447876 8.394469261169434
-6.721070051193237 -18.280056953430176 8.45523452758789
-6.611018657684326 -18.945022583007812 8.474904775619507
-6.4890971183776855 -19.615327835083008 8.473894119262695
-6.3452253341674805 -20.28210210800171 8.474719285964966
-6.16939115524292 -20.935229778289795 8.49863314628601
-5.953260898590088 -21.564239025115967 8.562909603118896
-5.691380500793457 -22.159110069274902 8.679135799407959
-5.381693601608276 -22.711066246032715 8.852521657943726
-5.025540828704834 -23.213165283203125 9.082372903823853
-4.627067685127258 -23.660696983337402 9.363281726837158
-4.192288160324097 -24.051485061645508 9.686884641647339
-3.7280922532081604 -24.385467529296875 10.04358434677124
-3.2413427531719208 -24.664756774902344 10.42425537109375
-2.738186866044998 -24.892648696899414 10.820845603942871
-2.223714530467987 -25.072742462158203 11.227355480194092
-1.7017064094543457 -25.208614349365234 11.639032363891602
-1.1747312545776367 -25.302435874938965 12.052188396453857
-0.6441540718078613 -25.35498809814453 12.463057518005371
-0.11027073860168457 -25.36502742767334 12.867626667022705
0.42746591567993164 -25.329941749572754 13.260618209838867
0.9702155590057373 -25.246171951293945 13.636183738708496
1.5192842483520508 -25.111038208007812 13.988392353057861
2.075453281402588 -24.923624992370605 14.312957286834717
2.638150691986084 -24.687204360961914 14.608655452728271
3.204535961151123 -24.40971851348877 14.878636837005615
3.7687716484069824 -24.104897499084473 15.131916522979736
4.3218183517456055 -23.790574073791504 15.382766246795654
4.851951599121094 -23.486689567565918 15.64900827407837
5.346416473388672 -23.211463928222656 15.949382305145264
5.79390811920166 -22.977717399597168 16.299387454986572
6.187701225280762 -22.789350509643555 16.70800542831421
6.5284576416015625 -22.640317916870117 17.174540042877197
6.82586669921875 -22.51647186279297 17.68877077102661
7.098134994506836 -22.399527549743652 18.232362270355225
7.369301795959473 -22.2728271484375 18.782901287078857
7.66481876373291 -22.126717567443848 19.318103313446045
8.006196975708008 -21.960267543792725 19.820006847381592
8.40736198425293 -21.781529903411865 20.27773141860962
8.87234115600586 -21.60515022277832 20.687954425811768
9.395195007324219 -21.449602603912354 21.0549578666687
9.961441040039062 -21.33524990081787 21.388658046722412
10.550992965698242 -21.28257942199707 21.70278787612915
11.14021110534668 -21.31103801727295 22.012746334075928
11.703871726989746 -21.438759326934814 22.33439016342163
12.21658992767334 -21.6824312210083 22.68369436264038
12.652901649475098 -22.05805015563965 23.076045513153076
12.987199783325195 -22.581199645996094 23.527099132537842
LINES 1 121
120 0 1 2 3 4 5 6 7 8 9 10 11 12 13 14 15 16 17 18 19 20 21 22 23 24 25 26 27 28 29 30 31 32 33 34 35 36 37 38 39 40 41 42 43 44 45 46 47 48 49 50 51 52 53 54 55 56 57 58 59 60 61 62 63 64 65 66 67 68 69 70 71 72 73 74 75 76 77 78 79 80 81 82 83 84 85 86 87 88 89 90 91 92 93 94 95 96 97 98 99 100 101 102 103 104 105 106 107 108 109 110 111 112 113 114 115 116 117 118 119
POINT_DATA 120
SCALARS Curvature float 1
LOOKUP_TABLE default
0.0
0.27410820091879756
0.1823068116774104
0.13478635908628253
0.11937519800157466
0.132739128666959
0.17810563795834228
0.26262601741511354
0.38040194911341163
0.47453175589641816
0.46454828461936165
0.34967955347937285
0.2002040734603803
0.06541338371572705
0.07452648401346071
0.17978933627758975
0.2537602637454539
0.2789112691386061
0.2666394313652796
0.24627860033118787
0.24173551647044017
0.25432690497498656
0.262041076048013
0.24595927043680524
0.21068809842395067
0.17365404520462566
0.14410495503800613
0.11724043018443422
0.08355496130944245
0.04814368842417559
0.14060444133984298
0.43939228338053193
0.8395120733951212
0.9226075935607162
0.7201696262140775
0.39725566492286807
0.21873894450208325
0.1392552366867468
0.10561475155603071
0.10208985961621798
0.13270603732584663
0.21467760408661743
0.35022099484198965
0.45259343654068673
0.41205857156918113
0.2542429934879814
0.0774624837302943
0.08958259609288562
0.23893180026268396
0.3596835487472783
0.4116760056364945
0.38638028160588106
0.3215975288700571
0.2601682653738111
0.22278461561357318
0.2153507340179814
0.23781696978163291
0.2777549664812857
0.30004660339903755
0.26888499159975005
0.18964095263687988
0.09520694587812475
0.02174037887156202
0.05659866652989427
0.09035397411880502
0.09673362109165902
0.07985531011882467
0.055598465523862654
0.06434478085332326
0.10505607533955512
0.13935937358943784
0.14841072828061064
0.12910467634403716
0.09095979249756847
0.05012396613088347
0.047841029601258786
0.09041039814626152
0.1372112570282613
0.1750416803991761
0.197043684217741
0.20156602440823165
0.19226028367001735
0.1750691850998571
0.15585231591073911
0.137081427752494
0.12072501373011098
0.10788578699470167
0.09775975748774882
0.09237581806339268
0.0912315794252694
0.09566343181283656
0.10465766654584306
0.11682683253315336
0.12703558774336382
0.13072194480745775
0.12197760155504696
0.10088953254501072
0.06685264435178044
0.029496762356056277
0.05450325088903928
0.12569558905606185
0.20107277688118072
0.2492432845958306
0.24144129920646853
0.1819678900970514
0.09597545261340187
0.02373607779705922
0.08731973568220908
0.15055772955935842
0.18367914725963916
0.18581358166562803
0.16781983675693596
0.14987240502062357
0.1513267196973216
0.18090630276894842
0.23143906882291385
0.2812669998117512
0.30167804737412024
0.2739233903881737
0.0
SCALARS Torsion float 1
LOOKUP_TABLE default
0.0
0.0
-0.29448418890698913
-0.4026471356097793
-0.4667021131520791
-0.43631744429952773
-0.35344553936024714
-0.27355148607115587
-0.21141367420442028
-0.16090765016130124
-0.1145304195256995
-0.0586635689899787
0.06550485050260735
0.8700299447933623
0.7965085333732053
0.14394593902801056
0.008674736586058912
-0.08968698329913585
-0.2245884993928909
-0.38405896925997296
-0.47616751682701935
-0.4577000142986974
-0.4049357418236537
-0.38992085919637487
-0.4185666639753038
-0.4455893302146832
-0.4093754005415325
-0.28877932171251897
0.03765539195206152
0.9770495141063342
0.6328335343418521
0.2024136569587806
0.0773532053111265
0.014417770576609493
-0.034229774539645395
-0.07151915412376095
-0.08478286243492626
-0.05920698419657593
0.010795543885828214
0.06518568809621185
0.03544503702582506
-0.03773320928633726
-0.08113364092645162
-0.08152615962617779
-0.06978633761695656
-0.009197645728306947
0.6285177831460754
0.6034534623818004
0.06471962003426512
-0.019766518666729585
-0.06778421461668713
-0.11492864347703168
-0.1596350214027933
-0.18431016360295185
-0.1714502475794591
-0.12327402789507827
-0.08644367482319586
-0.08436824827593896
-0.09403745450643243
-0.09408500599779665
-0.06015278742330287
0.1401841604897798
0.999894076830412
0.5060685190706635
0.06260583484146676
-0.1012663223394729
-0.35020979695754206
-0.8202072143756353
-0.7915687683309635
-0.4021774293210362
-0.19209384113579872
-0.08741115677878539
0.011827145018753205
0.2192048711871897
0.8083105287593376
0.8882888237904863
0.3702692067642116
0.13998537897474245
0.056159731548729636
0.013798580513866197
-0.012081592286712975
-0.031887883801804476
-0.046310691781104585
-0.05692613702847097
-0.05672620740720194
-0.05889022930568578
-0.04305897889591308
-0.047409944371979686
-0.05021205368061983
-0.07985461574459868
-0.09617045934176234
-0.1199451774120166
-0.11220860882842178
-0.10454717437199756
-0.07617925799016294
-0.05404692262250249
-0.0016721755979533445
0.19104179995644688
0.9653800215466303
0.6921868172725789
0.1716903698467579
0.03702106169226277
-0.031382054782731345
-0.09008554040047574
-0.182268374931836
-0.49710840689701763
-0.9999918970704741
-0.40022474684518583
-0.20289808343179247
-0.21396061717019493
-0.2675379348497648
-0.3700062894459161
-0.49961469817779014
-0.5397047241245746
-0.4388227626341364
-0.29966157731967186
-0.19817602754385688
-0.13038768067670214
-0.09283195047432662
0.0
SCALARS Distance_to_V float 1
LOOKUP_TABLE default
0.0
0.5878808673627904
1.2307789362148653
1.9094718687642183
2.6046472606312183
3.2971760892874915
3.9682843490295077
4.600032507978894
5.176534455222803
5.685864468517874
6.122817874399259
6.491748330841483
6.808257387635984
7.098513255845466
7.394999646642979
7.729368174053511
8.124336204531797
8.587759966701396
9.110780687141729
9.670498577280686
10.236147272264652
10.77692650713043
11.269565047512952
11.703664099029055
12.083208632271889
12.423694662441962
12.745826399155819
13.067618868730944
13.397534554516291
13.730724775027335
14.048954462715946
14.3243814339212
14.525500107495553
14.623953950924925
14.600716901473252
14.450561293372697
14.183683490538977
13.824200266893397
13.405904686502026
12.966051015872921
12.53819153718633
12.146743518724012
11.804044815868094
11.510502285456974
11.258660651185194
11.037862283764335
10.83953609948243
10.65969324606786
10.500119431397339
10.367074729641947
10.269322192341887
10.215564309376937
10.212083281201519
10.260739156661057
10.357873438582931
10.495184295544998
10.662620440055832
10.852473854199095
11.062310568671586
11.294831725928592
11.554476537603191
11.843098834424056
12.155965463156665
12.481813354722751
12.80528569170571
13.111814300710584
13.392131088136194
13.644562719740103
13.87506511960928
14.09465022655676
14.316444971144982
14.551883532961952
14.808281808877258
15.08678554178064
15.381977627866632
15.682503999619053
15.972770974427606
16.23521851717277
16.452845669116304
16.61140203728921
16.700887545651085
16.71621762760175
16.657035665430563
16.526958324224502
16.33221503919534
16.080605928227463
15.780160202618106
15.43800344656488
15.060123127319484
14.650524280573551
14.211530192333402
13.743485554930022
13.245636535013798
12.716392015228594
12.154759740842218
11.560928022360109
10.938073100644413
10.292880792265588
9.636224183630127
8.982067921512794
8.345989474640579
7.742167407513215
7.180935330943077
6.666346945035093
6.195799043908567
5.760498868335659
5.346819888831215
4.938263890569055
4.518367147151075
4.073438908508941
3.5955713097814948
3.084782169902966
2.5496907604038785
2.0071866321258036
1.4800671632240583
0.9950921765207051
0.5811873992480158
0.26836590965030044
0.08596198822746708
0.0
SCALARS Local_Extrema int 1
LOOKUP_TABLE default
0
0
0
0
0
0
0
0
0
0
0
0
0
0
0
0
0
0
0
0
0
0
0
0
0
0
0
0
0
0
0
0
0
1
0
0
0
0
0
0
0
0
0
0
0
0
0
0
0
0
0
0
-1
0
0
0
0
0
0
0
0
0
0
0
0
0
0
0
0
0
0
0
0
0
0
0
0
0
0
0
0
1
0
0
0
0
0
0
0
0
0
0
0
0
0
0
0
0
0
0
0
0
0
0
0
0
0
0
0
0
0
0
0
0
0
0
0
0
0
0
