# vtk DataFile Version 3.0
Curve with Curvature, Torsion, Distance to V, and Extrema
ASCII
DATASET POLYDATA
POINTS 120 float
0.0 0.0 0.0
-0.4530022144317627 -0.43451499938964844 -0.07155656814575195
-0.8973422050476074 -0.8976373672485352 -0.008994102478027344
-1.332855224609375 -1.3718585968017578 0.14658451080322266
-1.7593083381652832 -1.8399066925048828 0.3540935516357422
-2.1763651371002197 -2.2853593826293945 0.5727691650390625
-2.5833115577697754 -2.693868637084961 0.7632200717926025
-2.9788568019866943 -3.055034637451172 0.8895735740661621
-3.360743761062622 -3.364546775817871 0.9226977825164795
-3.7255146503448486 -3.6257734298706055 0.8437509536743164
-4.068277597427368 -3.84995174407959 0.6466598510742188
-4.382697343826294 -4.054289817810059 0.3382225036621094
-4.661173105239868 -4.25823974609375 -0.06436729431152344
-4.89569878578186 -4.479535102844238 -0.5376744270324707
-5.079436540603638 -4.731427192687988 -1.0561838150024414
-5.208707094192505 -5.021905899047852 -1.5953636169433594
-5.284551382064819 -5.354696273803711 -2.1333274841308594
-5.313009023666382 -5.730842590332031 -2.651655673980713
-5.303906202316284 -6.149864196777344 -3.1357831954956055
-5.268449068069458 -6.610033988952637 -3.575587749481201
-5.216241121292114 -7.107509613037109 -3.966240406036377
-5.15279746055603 -7.635088920593262 -4.309075832366943
-5.0779969692230225 -8.181131362915039 -4.6121039390563965
-4.986005067825317 -8.729600429534912 -4.88953161239624
-4.866703271865845 -9.261691093444824 -5.159679889678955
-4.708194971084595 -9.758965492248535 -5.441569805145264
-4.499905824661255 -10.207492351531982 -5.7502923011779785
-4.235485792160034 -10.601822853088379 -6.092367649078369
-3.9148857593536377 -10.947361946105957 -6.4622673988342285
-3.545158624649048 -11.25972032546997 -6.841397762298584
-3.139613389968872 -11.560964107513428 -7.200104236602783
-2.7159054279327393 -11.872668743133545 -7.502511501312256
-2.2933428287506104 -12.208592891693115 -7.713215351104736
-1.8902397155761719 -12.568578481674194 -7.804139614105225
-1.5219485759735107 -12.93660020828247 -7.7598395347595215
-1.200042724609375 -13.28360652923584 -7.579941272735596
-0.9325478076934814 -13.574289321899414 -7.278310298919678
-0.724729061126709 -13.776434659957886 -6.879436016082764
-0.5795973539352417 -13.8687424659729 -6.4133172035217285
-0.49775195121765137 -13.84560251235962 -5.909842014312744
-0.4765045642852783 -13.71712875366211 -5.394230365753174
-0.5090138912200928 -13.505502700805664 -4.883981227874756
-0.5843296051025391 -13.23924994468689 -4.387657642364502
-0.6886897087097168 -12.948541164398193 -3.905203342437744
-0.8077223300933838 -12.661993741989136 -3.4293580055236816
-0.9286432266235352 -12.40379548072815 -2.948472023010254
-1.0417265892028809 -12.191710948944092 -2.4501781463623047
-1.1408939361572266 -12.033546447753906 -1.9253644943237305
-1.223740816116333 -11.927258014678955 -1.3712711334228516
-1.2911708354949951 -11.861368656158447 -0.7930107116699219
-1.3466105461120605 -11.820425033569336 -0.20302534103393555
-1.3948357105255127 -11.790896892547607 0.38093996047973633
-1.4408364295959473 -11.768057823181152 0.9390556812286377
-1.4890668392181396 -11.759802341461182 1.453066349029541
-1.543121337890625 -11.786559104919434 1.9097778797149658
-1.605574607849121 -11.874998569488525 2.3038995265960693
-1.6778814792633057 -12.04946231842041 2.639352560043335
-1.7602672576904297 -12.323423624038696 2.928658604621887
-1.851975917816162 -12.695316076278687 3.190186858177185
-1.951643466949463 -13.149572134017944 3.4438048601150513
-2.057929039001465 -13.662129878997803 3.70585298538208
-2.1699180603027344 -14.2075355052948 3.9851080179214478
-2.28716778755188 -14.765145063400269 4.281182795763016
-2.4093759059906006 -15.32237160205841 4.585833877325058
-2.5356557369232178 -15.874887734651566 4.8866429179906845
-2.6636040210723877 -16.424189671874046 5.171818524599075
-2.78855299949646 -16.974634170532227 5.4341989159584045
-2.903129816055298 -17.529635071754456 5.673133730888367
-2.9974725246429443 -18.090626001358032 5.894036173820496
-3.060025930404663 -18.655691862106323 6.106012463569641
-3.079047441482544 -19.220953464508057 6.318859577178955
-3.0444653034210205 -19.780526638031006 6.540706038475037
-2.94964337348938 -20.328436851501465 6.776895761489868
-2.792598009109497 -20.858896255493164 7.030184268951416
-2.5761494636535645 -21.36624574661255 7.30153489112854
-2.3068313598632812 -21.845427989959717 7.590656995773315
-1.9927806854248047 -22.29175329208374 7.8958258628845215
-1.6414213180541992 -22.70083713531494 8.213183879852295
-1.2576992511749268 -23.068962574005127 8.536339521408081
-0.8437039852142334 -23.393357753753662 8.856991291046143
-0.3996375799179077 -23.672091960906982 9.166847705841064
0.07435786724090576 -23.90497922897339 9.460151195526123
0.576465368270874 -24.093717098236084 9.73569393157959
1.1023394018411636 -24.242258071899414 9.997379779815674
1.6454366743564606 -24.356682777404785 10.25289011001587
2.1982430815696716 -24.444857597351074 10.511046409606934
2.7538907527923584 -24.515217781066895 10.779226779937744
3.307474136352539 -24.574783325195312 11.060995101928711
3.8566150665283203 -24.6277494430542 11.35571575164795
4.401147842407227 -24.673551559448242 11.659371376037598
4.942303419113159 -24.70716094970703 11.966788291931152
5.4816858768463135 -24.720985412597656 12.273088932037354
6.020528078079224 -24.707277297973633 12.57514476776123
6.559553384780884 -24.662620544433594 12.872059345245361
7.09909462928772 -24.590548515319824 13.163703441619873
7.639554262161255 -24.50267505645752 13.45027208328247
8.181613683700562 -24.417625427246094 13.730991840362549
8.726174116134644 -24.357393264770508 14.003790378570557
9.273852586746216 -24.342479705810547 14.266464710235596
9.824206590652466 -24.388113021850586 14.517175197601318
10.375002145767212 -24.500554084777832 14.756798267364502
10.921529054641724 -24.67727279663086 14.990012645721436
11.45617127418518 -24.90801429748535 15.225672245025635
11.969114542007446 -25.17778968811035 15.475941181182861
12.448695421218872 -25.471105575561523 15.754589557647705
12.883194208145142 -25.774588584899902 16.07335901260376
13.262627840042114 -26.080286979675293 16.43970823287964
13.579994440078735 -26.38606548309326 16.854119777679443
13.832175493240356 -26.69558620452881 17.309518337249756
14.019858598709106 -27.016715049743652 17.792667865753174
14.146154642105103 -27.359028816223145 18.28709077835083
14.21583104133606 -27.730759620666504 18.77556276321411
14.23401951789856 -28.137487411499023 19.243730068206787
14.205713510513306 -28.580601692199707 19.681331157684326
14.135951280593872 -29.05744171142578 20.083064556121826
14.029520273208618 -29.56217861175537 20.447771549224854
13.89136815071106 -30.086562156677246 20.777371883392334
13.726386308670044 -30.621280670166016 21.075669765472412
13.53948712348938 -31.15660285949707 21.347035884857178
13.335700273513794 -31.6825008392334 21.596299648284912
LINES 1 121
120 0 1 2 3 4 5 6 7 8 9 10 11 12 13 14 15 16 17 18 19 20 21 22 23 24 25 26 27 28 29 30 31 32 33 34 35 36 37 38 39 40 41 42 43 44 45 46 47 48 49 50 51 52 53 54 55 56 57 58 59 60 61 62 63 64 65 66 67 68 69 70 71 72 73 74 75 76 77 78 79 80 81 82 83 84 85 86 87 88 89 90 91 92 93 94 95 96 97 98 99 100 101 102 103 104 105 106 107 108 109 110 111 112 113 114 115 116 117 118 119
POINT_DATA 120
SCALARS Curvature float 1
LOOKUP_TABLE default
0.0
0.3128609960602902
0.20443750667031269
0.11820944252920668
0.047945576192848255
0.06769448081464141
0.19465313609408424
0.37422918255987453
0.5257508656441998
0.5395817540990632
0.4284274248243269
0.29679661492060744
0.21252202296446088
0.17641373192870283
0.1655247631385872
0.16251307751831395
0.1610037904532077
0.16057585213863484
0.16089813441428302
0.15740781631049677
0.1430710904927242
0.11399331554083171
0.07800061710190527
0.08164434315486008
0.14700378391013685
0.2156405939917833
0.24172200564026028
0.211547445851349
0.14995109629490216
0.10961375071165146
0.15953161968550314
0.2692299410078684
0.3861983423849572
0.47113464514911846
0.5114348953995418
0.5255992786851499
0.529682687062841
0.5166679205093911
0.470274777562075
0.39180442482902683
0.2992129610981117
0.20799699235489527
0.12120634531680285
0.04948962867713433
0.08814821325699741
0.16122386157227064
0.1949017754675661
0.18109145823944522
0.1341481061637361
0.08127427289147555
0.0375641643222496
0.017911154882414883
0.057184951623678655
0.1872637822528421
0.42356176485629843
0.6058548368508682
0.5568981014244762
0.3521343228225198
0.1670597255764485
0.0564754649885931
0.0028640823644572252
0.022553205342401426
0.020935041492062437
0.012843947916441452
0.03234967519652304
0.054409478217477686
0.06626282011726971
0.07356380698341879
0.08985003334281619
0.11864382780328345
0.14917928329585944
0.1705253503585821
0.17738732475074806
0.17166592256723498
0.15876392618780896
0.14569412135131868
0.13714186900442998
0.1347849007578426
0.13902541546032202
0.14866159799035292
0.15534949658236635
0.1507743702523341
0.13128793125923738
0.1019413521147006
0.07211338916013188
0.05197137169444733
0.04405725504488402
0.0386064766023224
0.031572047096252685
0.03366844788385364
0.05121863581596952
0.07267812214025358
0.08222307774359625
0.07302437843537674
0.043454172225330545
0.01706532867794005
0.06903440350087228
0.12519734418874934
0.16629661638992735
0.1780504850920494
0.16396406540116282
0.13682751998603618
0.11674409812749868
0.1255521757090478
0.15789454005278358
0.19307160056283368
0.21127268967913587
0.20661018054947375
0.18787424177420672
0.17147455086476387
0.1654804326910142
0.16777004535744144
0.168613447109333
0.16104665284385902
0.14598462614593735
0.12596322109992902
0.10527656323186707
0.08689574930478977
0.07107287881545646
0.0
SCALARS Torsion float 1
LOOKUP_TABLE default
0.0
0.0
0.0975967403116704
0.2708700108014849
0.9541308113304487
0.857086563037292
0.2687278911792109
0.16183360042825193
0.1637935207864227
0.2193721980916753
0.32697161634818966
0.470210365805595
0.5624296145429937
0.5198625070395554
0.40043987621426536
0.3169514420887221
0.2948967714410945
0.2997866650053799
0.28404229770335726
0.22133248107951
0.10591135053486253
-0.14276399805609896
-0.7352164864643435
-0.8686931874253673
-0.44669046032916854
-0.1785172481469245
-0.03810416006824685
0.12085684806565489
0.4781288422035966
0.8819717214548194
0.6681492038186881
0.28548458878651994
0.0784549221243504
-0.057730395833374026
-0.17055115742249063
-0.2472797348976565
-0.25125170339302244
-0.1931674730257035
-0.10524922359470139
-0.019602091565946056
0.05934326477831209
0.15612180040608278
0.44199661454097205
0.9961500620258708
0.7707835062882277
0.2564968133357406
0.12696427613136005
0.09263871554875057
0.12119744833366125
0.19045175230721847
0.27243620699047216
-0.9682823745615088
-0.29825330377278114
0.0921237005284346
0.10380777273910122
0.08976079105890085
0.08314013285973802
0.08932557448900359
0.12813636881394858
0.30380001632242276
1.0
0.1825867936714307
0.4577624099690315
0.9860639620538629
0.5126706069930255
0.3141967720429135
0.39871231970017346
0.54970671418915
0.5423047975493169
0.37376008791758286
0.22646916863961034
0.13015743109384495
0.09015018450071945
0.09005363681834477
0.10318421751788685
0.09916497569796406
0.04243937554921561
-0.06545866922178323
-0.1616356225195539
-0.17986533978122005
-0.13406730755500673
-0.040924783808747214
0.09212158802413327
0.2902500474827323
0.5571022774881494
0.7549129983329267
0.6869312656697021
0.4148278559064266
-0.2923850828788542
-0.668773553353502
-0.38688581029629143
-0.13580025921473715
-0.03230121476228895
-0.05141410401238215
-0.3228128117776434
-0.999481769483482
-0.2931197394548334
-0.0856557624874894
-0.040176876089309976
-0.0649166047638963
-0.15165736419724407
-0.3417134060110717
-0.5715194868974444
-0.5666147288664658
-0.35899562858618517
-0.1510537784403566
0.0026638324455605655
0.1511317221935311
0.3057692212443094
0.4161075895989704
0.4236931418355069
0.33417147685930126
0.21829379819538797
0.1210260731567642
0.04018990082331776
-0.028517016382615126
-0.10122898169955212
-0.18168129530345423
-0.321590750236696
0.0
SCALARS Distance_to_V float 1
LOOKUP_TABLE default
0.0
0.6131553385862821
1.2042694265460416
1.781787413671823
2.347532813184035
2.8985186525752917
3.4289935450448765
3.932901909956919
4.406277615615843
4.849301932701313
5.267077328596572
5.668615880402343
6.064093539597092
6.462016681442006
6.867664183633979
7.283341285580198
7.709676648682808
8.146683031946774
8.593943871145886
9.050172074503362
9.512445004108994
9.975905857756512
10.43391026795188
10.878830133646535
11.303323255496386
11.701959083561135
12.072681894799752
12.417455322910984
12.741292052737839
13.049390114682952
13.34321458429551
13.616822859273947
13.855723609694376
14.038579314473864
14.141657982387116
14.144305625952507
14.033703771564722
13.808225885880285
13.478071043349772
13.063386078337123
12.590253796195167
12.085677625401258
11.572922355268132
11.068954124007089
10.58398347074817
10.122454073083002
9.685143045506425
9.270205994421966
8.875490305004549
8.499560011959177
8.144079857024368
7.815111380556469
7.524101966366584
7.286913171553588
7.121203024316381
7.041471750957624
7.0547819117021495
7.158021996817887
7.338381879541598
7.576329662750118
7.850595723712683
8.14319324474805
8.44280501718436
8.745273468513757
9.05143368529931
9.363321274260061
9.68092070118286
9.999603618766217
10.310188739307094
10.599626636401945
10.853708799424217
11.059093398696946
11.205966992135837
11.289079333246683
11.307578847847145
11.264194692582343
11.16345358699457
11.010024802462738
10.807701358379163
10.559160225405211
10.266186183054339
9.930889706808358
9.556501578901107
9.14790545238654
8.7114680238656
8.254533889501705
7.784336266520006
7.306901956037562
6.826282406046631
6.343658092403044
5.857383864530292
5.364285490803499
4.860976244559626
4.346419240273633
3.824377681751579
3.3048095692352675
2.805439858175404
2.3528703780617546
1.9833376860657224
1.7411424236962927
1.659897198087593
1.7323786332881983
1.908165006738927
2.1272475604643244
2.3422486448074946
2.521774522373731
2.6475542005516743
2.7121609786037912
2.71655735939371
2.6666131642784268
2.56879603124819
2.428108881284642
2.246614878566439
2.024732598553721
1.7631875693173562
1.464038891562183
1.1315830973820333
0.7717895421789335
0.391877390413581
0.0
SCALARS Local_Extrema int 1
LOOKUP_TABLE default
0
0
0
0
0
0
0
0
0
0
0
0
0
0
0
0
0
0
0
0
0
0
0
0
0
0
0
0
0
0
0
0
0
0
0
1
0
0
0
0
0
0
0
0
0
0
0
0
0
0
0
0
0
0
0
-1
0
0
0
0
0
0
0
0
0
0
0
0
0
0
0
0
0
0
1
0
0
0
0
0
0
0
0
0
0
0
0
0
0
0
0
0
0
0
0
0
0
0
0
0
-1
0
0
0
0
0
0
0
1
0
0
0
0
0
0
0
0
0
0
0
