# vtk DataFile Version 3.0
Curve with Curvature, Torsion, Distance to V, and Extrema
ASCII
DATASET POLYDATA
POINTS 120 float
0.0 0.0 0.0
-0.406402587890625 -0.3536033630371094 -0.001407623291015625
-0.8137331008911133 -0.7284183502197266 0.020687580108642578
-1.219923973083496 -1.1206493377685547 0.06227540969848633
-1.6228995323181152 -1.5264625549316406 0.11922454833984375
-2.0205912590026855 -1.9419002532958984 0.18700599670410156
-2.4109296798706055 -2.3627662658691406 0.26021337509155273
-2.7918286323547363 -2.784515380859375 0.3319544792175293
-3.161200523376465 -3.202211380004883 0.39333009719848633
-3.5170021057128906 -3.610685348510742 0.4333491325378418
-3.8572463989257812 -4.004946708679199 0.4396219253540039
-4.180092811584473 -4.380958557128906 0.39983272552490234
-4.48381233215332 -4.736528396606445 0.3036961555480957
-4.766732215881348 -5.072249412536621 0.14495468139648438
-5.0271196365356445 -5.392098426818848 -0.07716894149780273
-5.26298713684082 -5.703340530395508 -0.3575406074523926
-5.471895217895508 -6.015616416931152 -0.6857895851135254
-5.650823593139648 -6.339336395263672 -1.047961711883545
-5.795987129211426 -6.683664321899414 -1.4289469718933105
-5.902790069580078 -7.054660797119141 -1.8149762153625488
-5.965888023376465 -7.453991889953613 -2.1957268714904785
-5.97947883605957 -7.878466606140137 -2.565523624420166
-5.937872886657715 -8.32045841217041 -2.923400402069092
-5.836310386657715 -8.769103050231934 -3.2720561027526855
-5.6719970703125 -9.2121000289917 -3.6159119606018066
-5.44511604309082 -9.637673377990723 -3.958646297454834
-5.159692764282227 -10.036237716674805 -4.300905704498291
-4.824082374572754 -10.401407241821289 -4.63860559463501
-4.450986862182617 -10.730487823486328 -4.962073802947998
-4.056906700134277 -11.02397346496582 -5.2563090324401855
-3.6609487533569336 -11.284212112426758 -5.502416133880615
-3.2831082344055176 -11.514175415039062 -5.679910182952881
-2.942194938659668 -11.7156343460083 -5.76980447769165
-2.653872489929199 -11.8882474899292 -5.757492542266846
-2.4292497634887695 -12.029733180999756 -5.634769916534424
-2.273897171020508 -12.136319637298584 -5.401058673858643
-2.187593460083008 -12.204011917114258 -5.0633864402771
-2.164921760559082 -12.230266094207764 -4.635067462921143
-2.1964006423950195 -12.214920997619629 -4.133691310882568
-2.2698941230773926 -12.160925388336182 -3.578784465789795
-2.3722457885742188 -12.074511528015137 -2.9896302223205566
-2.490678310394287 -11.96542501449585 -2.383561611175537
-2.613746166229248 -11.846447467803955 -1.7749972343444824
-2.7317628860473633 -11.732810497283936 -1.175112247467041
-2.836787223815918 -11.641310691833496 -0.592012882232666
-2.92244815826416 -11.588823318481445 -0.03129005432128906
-2.9838485717773438 -11.590885162353516 0.5032806396484375
-3.0175724029541016 -11.659881591796875 1.0091824531555176
-3.0219225883483887 -11.803799629211426 1.4847941398620605
-2.997091770172119 -12.025506019592285 1.9293456077575684
-2.94515323638916 -12.322695255279541 2.3429737091064453
-2.869819164276123 -12.688524723052979 2.7268476486206055
-2.775953769683838 -13.112592697143555 3.083178997039795
-2.668931484222412 -13.582262992858887 3.414933204650879
-2.5539965629577637 -14.084888935089111 3.7255048751831055
-2.435720920562744 -14.608246326446533 4.018208980560303
-2.317732810974121 -15.142269611358643 4.295799970626831
-2.2027225494384766 -15.679687261581421 4.560168981552124
-2.0925869941711426 -16.216003894805908 4.812250852584839
-1.9886360168457031 -16.74942398071289 5.05212926864624
-1.8917474746704102 -17.28034782409668 5.279364347457886
-1.8023195266723633 -17.810617327690125 5.493522644042969
-1.7200875282287598 -18.342639565467834 5.694623708724976
-1.6437926292419434 -18.878601014614105 5.883614182472229
-1.5708694458007812 -19.41982153058052 6.062527775764465
-1.4972457885742188 -19.9663128554821 6.234386563301086
-1.4173603057861328 -20.5165393948555 6.4027992486953735
-1.3244314193725586 -21.06749176979065 6.571298837661743
-1.210942268371582 -21.61501967906952 6.742675244808197
-1.0693039894104004 -22.15384864807129 6.918410360813141
-0.8925576210021973 -22.678136348724365 7.098467707633972
-0.6749615669250488 -23.18164324760437 7.2814648151397705
-0.41253089904785156 -23.658011436462402 7.465212106704712
-0.1034097671508789 -24.101149559020996 7.647499851882458
0.2519659996032715 -24.5054292678833 7.826895207166672
0.6508932113647461 -24.865899562835693 8.00332236289978
1.0886881351470947 -25.178903579711914 8.178319811820984
1.559187650680542 -25.442209720611572 8.35482543706894
2.0554349422454834 -25.655276775360107 8.536608517169952
2.570341944694519 -25.81937885284424 8.727527976036072
3.097275733947754 -25.937769412994385 8.930782079696655
3.6305378079414368 -26.015376091003418 9.148316621780396
4.165667675435543 -26.057950496673584 9.380496263504028
4.699555218219757 -26.071606636047363 9.626094341278076
5.230417549610138 -26.062387943267822 9.882640838623047
5.7575777769088745 -26.03537082672119 10.146610498428345
6.281181573867798 -25.994609355926514 10.414411544799805
6.801898717880249 -25.942999362945557 10.682694911956787
7.320600986480713 -25.882428646087646 10.948799133300781
7.838049650192261 -25.814210891723633 11.211277723312378
8.354677200317383 -25.73914909362793 11.469780683517456
8.870490074157715 -25.657649517059326 11.725666046142578
9.38497018814087 -25.569929599761963 11.981353282928467
9.897276401519775 -25.476023197174072 12.239968299865723
10.406137466430664 -25.37584400177002 12.505142211914062
10.91016149520874 -25.269632816314697 12.780473232269287
11.40813159942627 -25.158353805541992 13.068953514099121
11.89896821975708 -25.0440731048584 13.37265920639038
12.382072448730469 -24.930890560150146 13.692409992218018
12.85666561126709 -24.824835777282715 14.02775239944458
13.32214069366455 -24.73384714126587 14.377085208892822
13.777606964111328 -24.667596340179443 14.73784065246582
14.221561431884766 -24.636624813079834 15.106796264648438
14.651558876037598 -24.650991439819336 15.480611324310303
15.064075469970703 -24.719250202178955 15.85607385635376
15.455059051513672 -24.8477201461792 16.22987985610962
15.81986141204834 -25.03901720046997 16.599103450775146
16.153613090515137 -25.292890548706055 16.96103525161743
16.45197296142578 -25.606053829193115 17.313066005706787
16.71157932281494 -25.972923755645752 17.652663707733154
16.93055820465088 -26.386631965637207 17.977603435516357
17.108909606933594 -26.839628219604492 18.28618574142456
17.248587608337402 -27.32426881790161 18.577158451080322
17.353652000427246 -27.83341884613037 18.849759578704834
17.429166793823242 -28.360507011413574 19.104109287261963
17.480907440185547 -28.90025806427002 19.34089422225952
17.514385223388672 -29.44837474822998 19.561066150665283
17.534066200256348 -30.001639366149902 19.76569128036499
17.543062210083008 -30.558061599731445 19.95579195022583
17.543434143066406 -31.116297721862793 20.132263660430908
LINES 1 121
120 0 1 2 3 4 5 6 7 8 9 10 11 12 13 14 15 16 17 18 19 20 21 22 23 24 25 26 27 28 29 30 31 32 33 34 35 36 37 38 39 40 41 42 43 44 45 46 47 48 49 50 51 52 53 54 55 56 57 58 59 60 61 62 63 64 65 66 67 68 69 70 71 72 73 74 75 76 77 78 79 80 81 82 83 84 85 86 87 88 89 90 91 92 93 94 95 96 97 98 99 100 101 102 103 104 105 106 107 108 109 110 111 112 113 114 115 116 117 118 119
POINT_DATA 120
SCALARS Curvature float 1
LOOKUP_TABLE default
0.0
0.08888837893247645
0.07127449898875601
0.056763797697340565
0.04392433624330416
0.03171726208359034
0.023261760308072945
0.03463294655619357
0.06956456944400578
0.12318565813112824
0.1915667503435885
0.260765145892012
0.30501704550132186
0.30359685747694526
0.26058393797305895
0.20147226870100698
0.15524750025382755
0.1400100500825214
0.14917982706882843
0.16389542056064393
0.17356172128791472
0.1772500752695198
0.17868136995242992
0.18044808170287496
0.1809629119441267
0.17645948749953128
0.16575645788330287
0.15155629007838428
0.14227691231288858
0.15774639915894265
0.23579123137323144
0.4278525168273984
0.7272596182887162
0.90871562891452
0.8940273491832942
0.6916853527480258
0.4203947945034153
0.24490164945659776
0.14977790969223997
0.09517619214107544
0.05761812363911141
0.024873087390750025
0.012435436422366473
0.059439049177528
0.12201866519792517
0.19965997493541138
0.27876418466703545
0.3335909538854813
0.34250297882921593
0.30719265329982204
0.24873692642048958
0.18831224996292983
0.13708777132750713
0.09803820420981493
0.06883569170140323
0.04873013998583192
0.03648460488432263
0.03098700336013912
0.031214701041964575
0.03527589292194043
0.040426296463959316
0.04380310490765401
0.04257854119412419
0.03563908368642907
0.024926363507434778
0.0216650421437342
0.037457333691835064
0.06125617621781438
0.08704759937967878
0.112447953138145
0.13639629488266836
0.15762480461370723
0.17447634507220397
0.18569169180586556
0.1906885212934943
0.18902276421505576
0.18230871183259353
0.17211594811126626
0.15957795576451908
0.1445901529677697
0.12751261675382025
0.10973265242481307
0.09141522983565231
0.07299560548226346
0.05626725466018643
0.042264874701497826
0.0322365325003013
0.026940233312232158
0.024471203776496253
0.022958924063122787
0.020487004221692397
0.018816252027536895
0.02120252047497705
0.028433928460747795
0.0370657416282335
0.04411098535762572
0.048765503274347095
0.05079595488143975
0.054756759508008325
0.06463223691382858
0.08404443527481785
0.1120569896325558
0.1445325616092351
0.17684916793408745
0.20390656330302448
0.2192676506330667
0.22439002238436473
0.21915098720500337
0.20714368424234117
0.19138569433910044
0.17298603157670028
0.15313977055502564
0.13201304754862933
0.11109321185454239
0.09133688013056457
0.07431923664310124
0.06132315270687749
0.05260764394790418
0.04680176910125494
0.0
SCALARS Torsion float 1
LOOKUP_TABLE default
0.0
0.0
-0.08459707053933006
-0.12735758009121195
-0.22620094631085305
-0.5036207312791963
-0.8964352695666531
-0.7502540737835349
-0.3407529731224085
-0.1512625818227893
-0.06609697092455745
-0.011386978273778034
0.043120850123908386
0.11921193753835413
0.24467696712173337
0.44385911797738753
0.6443092666807264
0.6536421020335752
0.4493633918767235
0.19302184810171702
-0.01801935983021158
-0.1768658722741142
-0.2736753293533284
-0.29475444913586435
-0.2514330725988149
-0.17035621520600422
-0.05940061686994627
0.11125311051117656
0.36884142975065015
0.578196323873192
0.5561111797081003
0.37910216369590083
0.20844427658008566
0.08621126958418646
-0.010452673845875005
-0.08537657253524174
-0.13660616181201524
-0.17943131926690956
-0.21444164938440693
-0.24809496276529971
-0.28997108676561933
-0.5381606233839624
-0.7949512311952204
-0.10024869976985351
-0.062181676389445203
-0.04655498492971746
-0.03361613865963833
-0.02761465498396205
-0.026371538527312464
-0.02956692483478807
-0.03769560231424128
-0.04977494666112925
-0.06696220431408506
-0.10181319839429644
-0.14047262835704147
-0.20836831206292022
-0.2832481566782601
-0.2897641182699529
-0.19028834285352783
-0.07354539419094795
-0.0036858384928086657
0.03976013899369031
0.09648667693102554
0.2509334441903805
0.685331069745121
0.9087740174124306
0.5235542393926615
0.19356506566791876
0.05844691858791126
-0.004620912154739851
-0.03175493095896125
-0.035954012168230236
-0.022338562287954725
0.007164869852062623
0.04849875368772265
0.09507122876673132
0.14180605297721224
0.17890903834825445
0.20131529363379022
0.20904490234348197
0.2038366350706036
0.18015394777853988
0.14154604034963228
0.08888504058235167
-0.041436609779300054
-0.19575803653443252
-0.4032334202389331
-0.4959097331019223
-0.38242160526228464
-0.17444420173858677
0.24864648879126372
0.5736883947461497
0.5879710325389788
0.4098021891095119
0.27064924853177885
0.21866571926705922
0.23598074036954653
0.35753776710071633
0.4369933133947099
0.44128040810772934
0.35035825296745166
0.23370477218144317
0.13417286090624908
0.06579425721706071
0.03294392246474601
-0.006514006320127899
-0.028931924039904636
-0.04032051103327423
-0.043050826370330204
-0.037556819414351766
-0.026288336720648318
-0.003811977280575307
0.03732364493906873
0.0559980429402129
0.10493877481704764
0.1488480328649726
0.16642270815931656
0.1482523663155277
0.11259585618381476
0.0
SCALARS Distance_to_V float 1
LOOKUP_TABLE default
0.0
0.5304791665291103
1.071006679703288
1.618341081223462
2.169109611168387
2.7198176364012006
3.2668274975504366
3.806340050873486
4.334456025002724
4.8474027287786345
5.341911665389984
5.815889236553995
6.269012444768787
6.703189849678225
7.1225478365105666
7.532735542380839
7.9396559684546855
8.347969237068483
8.759701654043507
9.173533751685513
9.584902468804161
9.986867410345281
10.371464032875986
10.731197249417784
11.06041459707342
11.356104466140517
11.617950746565286
11.847466907922836
12.046539199201831
12.215536661766967
12.351655576773451
12.448533758663748
12.496960670032664
12.487032064964094
12.410964814237236
12.265355676502786
12.052603260731154
11.781110795420842
11.464021571326844
11.117358315138867
10.758047072286061
10.402546075911971
10.065765501251187
9.76048530242016
9.49694701521623
9.282365432896771
9.120772892207945
9.012820025483629
8.956234071622752
8.946563897582493
8.978083449119229
9.044613355833958
9.139986987880173
9.258302846296832
9.394477081390574
9.543813491392935
9.702591008245165
9.868296217989158
10.039640253259103
10.216612361933683
10.400235804011851
10.591994181593153
10.793099869037317
11.003687341308016
11.222155741316737
11.444762945928519
11.665569823445807
11.876826666677577
12.069697066587871
12.234930367250188
12.363810128602005
12.448704306110256
12.48354811976747
12.464179250767778
12.388358894295141
12.25566323107699
12.067454097699859
11.826508468658245
11.536717243678394
11.202839359434943
10.83042950209658
10.425588078874485
9.994459352144878
9.543000133082296
9.076711470300207
8.600237924852376
8.117204649351786
7.630231567215196
7.141082091966324
6.650933534276779
6.160588037443649
5.6703039939909345
5.180176594584565
4.690089323181123
4.199837871038167
3.7094659030480384
3.2197755356271696
2.7331475284164677
2.255063912601686
1.796322118743055
1.3774463067044047
1.0394954888282146
0.8558399823048216
0.8823295593045635
1.0571324218976461
1.2776990260187242
1.4846457559529536
1.6505536726421937
1.7630781260841377
1.8173542112667465
1.8129018281371059
1.7523812388351292
1.6407406244190215
1.484701746445704
1.291764778525861
1.0694313462757032
0.8245112788651834
0.5624079069936129
0.286759004104181
0.0
SCALARS Local_Extrema int 1
LOOKUP_TABLE default
0
0
0
0
0
0
0
0
0
0
0
0
0
0
0
0
0
0
0
0
0
0
0
0
0
0
0
0
0
0
0
0
1
0
0
0
0
0
0
0
0
0
0
0
0
0
0
0
0
-1
0
0
0
0
0
0
0
0
0
0
0
0
0
0
0
0
0
0
0
0
0
0
1
0
0
0
0
0
0
0
0
0
0
0
0
0
0
0
0
0
0
0
0
0
0
0
0
0
0
0
0
0
-1
0
0
0
0
0
0
1
0
0
0
0
0
0
0
0
0
0
