# vtk DataFile Version 3.0
Curve with Curvature, Torsion, Distance to V, and Extrema
ASCII
DATASET POLYDATA
POINTS 120 float
0.0 0.0 0.0
-0.5156981945037842 -0.5838336944580078 -0.2297964096069336
-1.0320143699645996 -1.108489990234375 -0.36033058166503906
-1.539139747619629 -1.5771465301513672 -0.4140911102294922
-2.0273613929748535 -1.9930706024169922 -0.41356754302978516
-2.4872918128967285 -2.359821319580078 -0.38118934631347656
-2.910327434539795 -2.681558609008789 -0.3391122817993164
-3.2893571853637695 -2.9634132385253906 -0.30873584747314453
-3.6195826530456543 -3.211851119995117 -0.3098335266113281
-3.8992276191711426 -3.434803009033203 -0.35937023162841797
-4.129908084869385 -3.6415367126464844 -0.47031688690185547
-4.316267490386963 -3.8421630859375 -0.6508274078369141
-4.464986801147461 -4.046895980834961 -0.9037952423095703
-4.583491802215576 -4.265275955200195 -1.2267742156982422
-4.678500175476074 -4.505439758300781 -1.6125822067260742
-4.754889011383057 -4.773710250854492 -2.050532341003418
-4.815135955810547 -5.074560165405273 -2.5278377532958984
-4.859339714050293 -5.410728454589844 -3.03096866607666
-4.885734558105469 -5.783397674560547 -3.546748161315918
-4.891569137573242 -6.192359924316406 -4.063006401062012
-4.874338150024414 -6.636111259460449 -4.568744659423828
-4.833005905151367 -7.111804008483887 -5.053702354431152
-4.769048690795898 -7.615144729614258 -5.5077409744262695
-4.687088966369629 -8.140215873718262 -5.920185089111328
-4.594964504241943 -8.679291725158691 -6.279350280761719
-4.503146171569824 -9.222744941711426 -6.572559356689453
-4.4235687255859375 -9.75922966003418 -6.786678314208984
-4.368191242218018 -10.27605152130127 -6.9092864990234375
-4.347451210021973 -10.760110855102539 -6.930242538452148
-4.368957996368408 -11.198894500732422 -6.843194007873535
-4.436637878417969 -11.581546783447266 -6.646705627441406
-4.550308704376221 -11.900202751159668 -6.34486198425293
-4.705552101135254 -12.150893211364746 -5.9472246170043945
-4.894270896911621 -12.334081649780273 -5.467851638793945
-5.105628967285156 -12.45510196685791 -4.923792839050293
-5.327104568481445 -12.523598670959473 -4.33343505859375
-5.545544624328613 -12.552547454833984 -3.7149248123168945
-5.748171806335449 -12.557592391967773 -3.0847482681274414
-5.923453330993652 -12.554780960083008 -2.4566850662231445
-6.061882972717285 -12.559211730957031 -1.8412199020385742
-6.156536102294922 -12.58357048034668 -1.2453432083129883
-6.203452110290527 -12.636725425720215 -0.6726436614990234
-6.201838493347168 -12.722905158996582 -0.12366867065429688
-6.154044151306152 -12.841730117797852 0.4034099578857422
-6.065298080444336 -12.989053726196289 0.911956787109375
-5.9430999755859375 -13.158571243286133 1.4058494567871094
-5.796314239501953 -13.343811988830566 1.8884148597717285
-5.634073257446289 -13.540328025817871 2.361466407775879
-5.464695930480957 -13.747413635253906 2.824622631072998
-5.2947587966918945 -13.968589782714844 3.275053024291992
-5.128600120544434 -14.210918426513672 3.707821846008301
-4.968379020690918 -14.483521461486816 4.116748809814453
-4.814664840698242 -14.795336723327637 4.4956440925598145
-4.667333126068115 -15.15306568145752 4.839639663696289
-4.526525497436523 -15.55986213684082 5.146371841430664
-4.3934245109558105 -16.014639377593994 5.416876316070557
-4.270416259765625 -16.512195587158203 5.655849456787109
-4.160660266876221 -17.043957233428955 5.8712568283081055
-4.067337989807129 -17.599191665649414 6.073439121246338
-3.9927353858947754 -18.16658067703247 6.273797512054443
-3.937379837036133 -18.735677003860474 6.483231544494629
-3.8994760513305664 -19.297884225845337 6.710540771484375
-3.874757766723633 -19.847620964050293 6.961060523986816
-3.856720447540283 -20.382559537887573 7.235905051231384
-3.8371591567993164 -20.903319358825684 7.5320188999176025
-3.806884288787842 -21.41249370574951 7.842965722084045
-3.7564969062805176 -21.913403272628784 8.16028904914856
-3.6771602630615234 -22.40916332602501 8.475236535072327
-3.5612411499023438 -22.90121638774872 8.780338704586029
-3.402750015258789 -23.388914108276367 9.070550430566072
-3.1975927352905273 -23.869372487068176 9.343710586428642
-2.943690299987793 -24.337966203689575 9.600389838218689
-2.640998363494873 -24.789361000061035 9.843286454677582
-2.291400909423828 -25.21831512451172 10.07632690668106
-1.898486614227295 -25.620614767074585 10.303686380386353
-1.467139720916748 -25.993603229522705 10.528934955596924
-1.0030303001403809 -26.336309671401978 10.75464153289795
-0.5120508670806885 -26.649373531341553 10.982027173042297
0.00022745132446289062 -26.934643745422363 11.210737228393555
0.5289924144744873 -27.194266319274902 11.439331531524658
1.0704293251037598 -27.430373191833496 11.665854692459106
1.6217572689056396 -27.644670009613037 11.88786005973816
2.181149959564209 -27.837812900543213 12.103026390075684
2.747513771057129 -28.0093936920166 12.309683084487915
3.3201733082532883 -28.158268451690674 12.506957292556763
3.8986145853996277 -28.282145023345947 12.695188760757446
4.482208847999573 -28.378615856170654 12.875499248504639
5.070035696029663 -28.445168018341064 13.049994468688965
5.660748481750488 -28.47989559173584 13.221569538116455
6.252525568008423 -28.482267379760742 13.393681526184082
6.8430445194244385 -28.45338535308838 13.570265293121338
7.429378032684326 -28.396509647369385 13.755260467529297
8.008320808410645 -28.317378997802734 13.953056812286377
8.576097965240479 -28.22350263595581 14.167903423309326
9.128647327423096 -28.123513221740723 14.403894901275635
9.66211986541748 -28.02634334564209 14.665010452270508
10.173133850097656 -27.940105438232422 14.954570293426514
10.659187316894531 -27.871438026428223 15.274715423583984
11.119377136230469 -27.82508897781372 15.626014709472656
11.554683685302734 -27.804349422454834 16.006709098815918
11.967984199523926 -27.81137180328369 16.412620544433594
12.363791465759277 -27.847959518432617 16.837132930755615
12.747467994689941 -27.91667938232422 17.271303176879883
13.123805046081543 -28.020745754241943 17.705410957336426
13.496012687683105 -28.16460943222046 18.129490852355957
13.86451530456543 -28.353283405303955 18.534915924072266
14.226569175720215 -28.591281414031982 18.915413856506348
14.576577186584473 -28.881595611572266 19.26757049560547
14.906673431396484 -29.224899291992188 19.591249465942383
15.207674026489258 -29.619239807128906 19.88935089111328
15.47068977355957 -30.05990505218506 20.167064666748047
15.688080787658691 -30.539875030517578 20.430893898010254
15.854504585266113 -31.050979614257812 20.687591552734375
15.967728614807129 -31.584874153137207 20.943060874938965
16.028839111328125 -32.133596420288086 21.201394081115723
16.042174339294434 -32.69082736968994 21.46439552307129
16.014406204223633 -33.25202178955078 21.73121166229248
15.953935623168945 -33.814690589904785 21.998424530029297
15.869405746459961 -34.37828350067139 22.26034450531006
15.768765449523926 -34.94334411621094 22.50990867614746
LINES 1 121
120 0 1 2 3 4 5 6 7 8 9 10 11 12 13 14 15 16 17 18 19 20 21 22 23 24 25 26 27 28 29 30 31 32 33 34 35 36 37 38 39 40 41 42 43 44 45 46 47 48 49 50 51 52 53 54 55 56 57 58 59 60 61 62 63 64 65 66 67 68 69 70 71 72 73 74 75 76 77 78 79 80 81 82 83 84 85 86 87 88 89 90 91 92 93 94 95 96 97 98 99 100 101 102 103 104 105 106 107 108 109 110 111 112 113 114 115 116 117 118 119
POINT_DATA 120
SCALARS Curvature float 1
LOOKUP_TABLE default
0.0
0.1765264891558829
0.16720666560328076
0.14735906088921155
0.11606310654137303
0.06864704527421757
0.043511830759557515
0.18375537479490384
0.4099848100833527
0.6090289143918998
0.6434129051188744
0.5121790075127077
0.3224470554017571
0.17960822840749144
0.1009680148678703
0.0695126347247249
0.06568831890771215
0.07204378337367977
0.08045963528429384
0.08831796696393812
0.09510663980562502
0.10147797011296539
0.10973958892686635
0.12456140051748098
0.1533466329050006
0.20652350749008527
0.29531831890965293
0.420537138865462
0.5452043178893308
0.5991513966602626
0.5473731260115577
0.4260545983760839
0.30200764044992057
0.20750129668084105
0.14241993965184516
0.09812230693098414
0.06912716043971942
0.06330681896155711
0.08522659114689339
0.12361970800239223
0.16455180832135877
0.19391300840857745
0.20051655921871656
0.18232419413801854
0.14745946188867248
0.10779333389805264
0.07385459215400651
0.05583048455952478
0.06542256911188034
0.09892435260369023
0.14383384333737284
0.1862049251661465
0.21178850398491184
0.21239982738693267
0.18969208963189785
0.15314671764849141
0.1131188264756111
0.0777978309019829
0.0563301915009622
0.056952232352169396
0.0700470118655745
0.08018350756838824
0.08037185655353514
0.07099061186208443
0.06044493189340271
0.0636848968394851
0.08364638193226333
0.10871271876942133
0.1297626760839408
0.1433019167206702
0.14926258530156902
0.14895770541404108
0.14431583162161513
0.13642263442705096
0.12605596337142166
0.11389047988862762
0.10061204549329897
0.08725240716639956
0.07579544221374895
0.06676475486840737
0.06097048105110443
0.05942525368144063
0.061223918376534556
0.06475856289983155
0.07021619483467571
0.07553026515644964
0.08068162550771597
0.0843333010178991
0.08499293109082783
0.08270350688075498
0.0772417471999383
0.07008823074847638
0.06633486210081864
0.07094114369476068
0.085389304515774
0.10514682846551668
0.12393235318891553
0.13583564654843217
0.1372480304600774
0.12866084426993252
0.11452804637862454
0.10405320961520852
0.10540763005667222
0.12105156694157734
0.14395490676902903
0.1657908591181345
0.1814096001710617
0.18840793950625556
0.18804212461112207
0.18224357901801602
0.17429640000648344
0.1658890169827675
0.15589321385332425
0.1428614100068376
0.12563725451481683
0.10523454067295299
0.08255137049150209
0.06240597677811482
0.05185699782306887
0.0
SCALARS Torsion float 1
LOOKUP_TABLE default
0.0
0.0
0.030592138537896052
0.062498489265273405
0.16479054069334653
0.6908256468223934
0.9995188853782133
0.4514205446056545
0.18418925294360844
0.11825965397175743
0.10808318381821735
0.13482070807530785
0.21453571872548635
0.3818515826520428
0.6170831491983036
0.7035667963137858
0.5057447747272249
0.24383277456596936
0.09706861226899344
0.04441678915010896
0.04650060703482824
0.08347672511779484
0.14141487868849562
0.1984439072219828
0.22522885098775436
0.21005701858629755
0.16968895817486182
0.1237175004207172
0.0825662095303751
0.04864279797527151
0.019787750551990814
-0.010357131695847826
-0.04528281458701129
-0.09415901629700427
-0.17932282444603806
-0.34740249368701703
-0.6425202088571987
-0.7584502849784366
-0.5514077308528733
-0.31312742947048866
-0.17165826293245914
-0.08701682306280187
-0.028227643336220368
0.018313358078106214
0.04966595422281712
0.03245195702490138
-0.18170457891063072
-0.6292662491845944
-0.5761081177050541
-0.2221617170799176
-0.033664831471614975
0.02567694471046745
0.031239713368963837
0.007972653155775469
-0.0432470217705785
-0.13076482381991567
-0.28665009575671835
-0.5639690233591265
-0.8147385121305947
-0.760386640720982
-0.5260360007367508
-0.3805853048808649
-0.37142901910457976
-0.4994525070372359
-0.7090498002505257
-0.7188429741980027
-0.48695480451972667
-0.24652177541368564
-0.0878370863220897
0.02360145637904701
0.10456563647472865
0.1573426397069444
0.18676853632528914
0.19042762142435282
0.17417698971429482
0.1496992786310847
0.11050019141496747
0.047404699065197606
-0.015924929507988975
-0.07245897641443698
-0.1334737371500585
-0.12991325854217778
-0.0725572442890227
-0.01017251371595683
0.07573912518633504
0.10729623326230875
0.14489228690567715
0.16768997865911991
0.18944996902941616
0.22907471236466292
0.28685105769661845
0.4178771461823297
0.5199772611757891
0.5217123899203563
0.41405296400669034
0.27869377796402917
0.1851921541170926
0.13535037239523495
0.141655721031638
0.1906646621895321
0.3061055219385819
0.4563355706831959
0.4597943924267177
0.33884116319155283
0.16292145834930905
0.023511000120483183
-0.07513981948305377
-0.15745505571727444
-0.22533549662804878
-0.26830186534113637
-0.29268115696597125
-0.2873395937693556
-0.2559275396607279
-0.21053020848114656
-0.14715714907110541
-0.05719741007775771
0.10256313065525101
0.40057808498903436
0.6464047622968173
0.0
SCALARS Distance_to_V float 1
LOOKUP_TABLE default
0.0
0.7963240157897632
1.52297542993142
2.189408052682375
2.8011489544166173
3.360493851423637
3.8676895434379066
4.322561623995943
4.726387138941743
5.0836291951311905
5.403167955311382
5.698386116684849
5.985962791947886
6.283592798737888
6.607026474402097
6.9675298248881585
7.3705540240307865
7.8157990555076
8.298387027151684
8.810517169771837
9.343058471584634
9.886434924211633
10.430901907228353
10.966275941671235
11.481418602500783
11.963901610445484
12.400189901735098
12.776543365942443
13.080686461046055
13.303558148401253
13.440799046597729
13.493816381566148
13.469790809838857
13.380699948619272
13.241861161300765
13.069803759089222
12.880164267578776
12.686303528191456
12.497700689945605
12.319757240061358
12.154123714325534
11.999399487471013
11.852210634089337
11.70851324489426
11.56485507703999
11.419431317017079
11.272754586920929
11.127968956849147
10.990655377827114
10.867898371121957
10.766979594295071
10.694191042802546
10.653954717156944
10.64862438405349
10.67891544224845
10.744449600755049
10.843981541759929
10.975198095956149
11.13439865734866
11.31636798760032
11.51453225841425
11.721386658481434
11.929424024872647
12.131741456748703
12.322315431080767
12.495833791869032
12.647341571670944
12.772094454818411
12.865216902591246
12.921859338321122
12.937413356446985
12.907924270831982
12.830647909499412
12.704378841518611
12.529764857063553
12.309297727528165
12.047005548380437
11.748039305827128
11.418128267318036
11.062730802579976
10.686616215257546
10.293666814461352
9.886518222530725
9.466615703913511
9.034590865217048
8.590092776642699
8.132609480728336
7.661481423939928
7.1763635389887535
6.677688442084327
6.166802578864152
5.646480534578631
5.120677606119956
4.594518228212051
4.073659165856103
3.5633667131590316
3.0679137640354166
2.590336926200378
2.1324858218671783
1.6967858623533425
1.2891539355044512
0.9267182936962948
0.6595191269185052
0.5903171628718211
0.7378569298890998
0.9750046597885488
1.2167374372462987
1.4287075099222957
1.5951682416309825
1.7076653830927015
1.7619513929050719
1.7565076635521184
1.6918972223817665
1.5706811797108269
1.3974469550473294
1.1785150413492607
0.9214033713073874
0.6343665556299412
0.3250892396068204
0.0
SCALARS Local_Extrema int 1
LOOKUP_TABLE default
0
0
0
0
0
0
0
0
0
0
0
0
0
0
0
0
0
0
0
0
0
0
0
0
0
0
0
0
0
0
0
1
0
0
0
0
0
0
0
0
0
0
0
0
0
0
0
0
0
0
0
0
0
-1
0
0
0
0
0
0
0
0
0
0
0
0
0
0
0
0
1
0
0
0
0
0
0
0
0
0
0
0
0
0
0
0
0
0
0
0
0
0
0
0
0
0
0
0
0
0
0
0
0
-1
0
0
0
0
0
0
1
0
0
0
0
0
0
0
0
0
