# vtk DataFile Version 3.0
Curve with Curvature, Torsion, Distance to V, and Extrema
ASCII
DATASET POLYDATA
POINTS 120 float
0.0 0.0 0.0
-0.26848626136779785 -0.506169319152832 0.1094975471496582
-0.577412486076355 -1.0368289947509766 0.21901941299438477
-0.922674298286438 -1.5716791152954102 0.3229379653930664
-1.2997742891311646 -2.0908594131469727 0.4153327941894531
-1.7030152082443237 -2.575855255126953 0.48943090438842773
-2.124327778816223 -3.0112924575805664 0.5368046760559082
-2.5522321462631226 -3.387186050415039 0.5467448234558105
-2.9716380834579468 -3.701083183288574 0.5064153671264648
-3.3652223348617554 -3.959059715270996 0.402407169342041
-3.7164095640182495 -4.174527168273926 0.22376155853271484
-4.013274073600769 -4.36536979675293 -0.034258365631103516
-4.2517794370651245 -4.550187110900879 -0.36723995208740234
-4.436734080314636 -4.744998931884766 -0.7611775398254395
-4.579858183860779 -4.960969924926758 -1.1951656341552734
-4.6950825452804565 -5.202694892883301 -1.6466283798217773
-4.792965769767761 -5.467095375061035 -2.09720516204834
-4.876090407371521 -5.743577003479004 -2.5372047424316406
-4.9373520612716675 -6.0166425704956055 -2.966428756713867
-4.961413741111755 -6.2711591720581055 -3.3912792205810547
-4.928902983665466 -6.498787879943848 -3.819204330444336
-4.821828246116638 -6.702794075012207 -4.252947807312012
-4.628502249717712 -6.89892578125 -4.687003135681152
-4.346964240074158 -7.111536026000977 -5.107097625732422
-3.986059546470642 -7.3659162521362305 -5.492820739746094
-3.5647329092025757 -7.679430961608887 -5.821704864501953
-3.109917998313904 -8.054344654083252 -6.073526382446289
-2.653607726097107 -8.474561214447021 -6.233514785766602
-2.229571223258972 -8.906978130340576 -6.294049263000488
-1.8698316812515259 -9.307872772216797 -6.254795074462891
-1.6010774374008179 -9.632643699645996 -6.121522903442383
-1.441306710243225 -9.846728324890137 -5.904294967651367
-1.3971155881881714 -9.934631824493408 -5.615248680114746
-1.4625333547592163 -9.90420389175415 -5.266478538513184
-1.6200143098831177 -9.78417158126831 -4.868443489074707
-1.8435138463974 -9.615809440612793 -4.429299354553223
-2.1029800176620483 -9.441482067108154 -3.9552621841430664
-2.36902916431427 -9.29405689239502 -3.451754570007324
-2.6167229413986206 -9.190925598144531 -2.924528121948242
-2.8279188871383667 -9.13405466079712 -2.380417823791504
-2.992022395133972 -9.11505651473999 -1.8273658752441406
-3.105596899986267 -9.122287273406982 -1.2737035751342773
-3.1709307432174683 -9.146941661834717 -0.7268795967102051
-3.1937865018844604 -9.185815334320068 -0.19194412231445312
-3.180862307548523 -9.240342617034912 0.3296389579772949
-3.1376651525497437 -9.312921047210693 0.8402423858642578
-3.0677655935287476 -9.403140544891357 1.3451919555664062
-2.9732059240341187 -9.50637149810791 1.8509025573730469
-2.855570673942566 -9.61586046218872 2.3624982833862305
-2.716699004173279 -9.727082252502441 2.8813929557800293
-2.5587576627731323 -9.841945171356201 3.4036967754364014
-2.384074091911316 -9.970546245574951 3.919891834259033
-2.195576548576355 -10.129429340362549 4.416218280792236
-1.9983965158462524 -10.337030172348022 4.877633571624756
-1.8021408319473267 -10.608386993408203 5.291351675987244
-1.62201988697052 -10.950897216796875 5.649891495704651
-1.4776052236557007 -11.362586498260498 5.952582836151123
-1.3888624906539917 -11.833415508270264 6.205115020275116
-1.3709462881088257 -12.347841143608093 6.4177427887916565
-1.4296404123306274 -12.889352917671204 6.602866053581238
-1.559289813041687 -13.443799436092377 6.772945582866669
-1.7438327074050903 -14.001607745885849 6.939203664660454
-1.9606324434280396 -14.558583170175552 7.111151643097401
-2.1854323148727417 -15.114353477954865 7.296595990657806
-2.3968056440353394 -15.670712113380432 7.501912951469421
-2.5787099599838257 -16.229157090187073 7.731939435005188
-2.72054660320282 -16.78890585899353 7.989575564861298
-2.8153046369552612 -17.345855236053467 8.275091886520386
-2.856834292411804 -17.892561197280884 8.585419654846191
-2.837760806083679 -18.418482303619385 8.913916826248169
-2.749061942100525 -18.911866664886475 9.250940561294556
-2.581543803215027 -19.36109733581543 9.585230588912964
-2.328600287437439 -19.75656223297119 9.905972242355347
-1.9889041185379028 -20.09259605407715 10.205010652542114
-1.5679317712783813 -20.367906093597412 10.478596210479736
-1.0776976346969604 -20.58634328842163 10.727628707885742
-0.5348423719406128 -20.75524616241455 10.957837343215942
0.04209446907043457 -20.88426685333252 11.177861213684082
0.6353626847267151 -20.982951164245605 11.397573471069336
1.2300018668174744 -21.059343338012695 11.626585006713867
1.814846321940422 -21.118377685546875 11.872799396514893
2.382697105407715 -21.161409378051758 12.141490936279297
2.9299092292785645 -21.18658685684204 12.435120582580566
3.4559035301208496 -21.189704418182373 12.752626419067383
3.9627350568771362 -21.16565704345703 13.089717388153076
4.454835057258606 -21.109883785247803 13.438703060150146
4.938632369041443 -21.01987075805664 13.789525985717773
5.421976447105408 -20.895448684692383 14.131190776824951
5.912966370582581 -20.739540576934814 14.453722476959229
6.4185134172439575 -20.557830333709717 14.750665664672852
6.942792057991028 -20.358344554901123 15.021059036254883
7.485992074012756 -20.151580810546875 15.269902229309082
8.043771862983704 -19.949471473693848 15.50735092163086
8.60758364200592 -19.76641607284546 15.746596336364746
9.165833592414856 -19.618031978607178 16.000422477722168
9.705774903297424 -19.52104091644287 16.278225898742676
10.215722680091858 -19.49130916595459 16.5837984085083
10.687245965003967 -19.542301654815674 16.91407585144043
11.11678659915924 -19.682426929473877 17.260836601257324
11.505988717079163 -19.912827014923096 17.61331844329834
11.861145615577698 -20.226491928100586 17.961471557617188
12.190868020057678 -20.608232498168945 18.300039291381836
12.503361344337463 -21.037336349487305 18.62937355041504
12.80277407169342 -21.490423679351807 18.955852508544922
13.086994767189026 -21.946264266967773 19.288572311401367
13.346640229225159 -22.389609336853027 19.63585090637207
13.566272377967834 -22.813448905944824 20.001720428466797
13.727841973304749 -23.21928882598877 20.383645057678223
13.814810395240784 -23.615715980529785 20.772552490234375
13.816976189613342 -24.014946937561035 21.15514850616455
13.732974648475647 -24.429511070251465 21.517507553100586
13.571228623390198 -24.869257926940918 21.848095893859863
13.348218560218811 -25.33995246887207 22.1402645111084
13.085823655128479 -25.84300136566162 22.393006324768066
12.808254837989807 -26.375560760498047 22.6102294921875
12.539632439613342 -26.932068824768066 22.79990005493164
12.302914261817932 -27.50530433654785 22.97224521636963
12.119995713233948 -28.086737632751465 23.13872528076172
12.011828064918518 -28.66801166534424 23.311342239379883
11.99929964542389 -29.24020004272461 23.502099990844727
LINES 1 121
120 0 1 2 3 4 5 6 7 8 9 10 11 12 13 14 15 16 17 18 19 20 21 22 23 24 25 26 27 28 29 30 31 32 33 34 35 36 37 38 39 40 41 42 43 44 45 46 47 48 49 50 51 52 53 54 55 56 57 58 59 60 61 62 63 64 65 66 67 68 69 70 71 72 73 74 75 76 77 78 79 80 81 82 83 84 85 86 87 88 89 90 91 92 93 94 95 96 97 98 99 100 101 102 103 104 105 106 107 108 109 110 111 112 113 114 115 116 117 118 119
POINT_DATA 120
SCALARS Curvature float 1
LOOKUP_TABLE default
0.0
0.061013050750419996
0.07135064332499766
0.08794416204021034
0.1118236269051817
0.14400214567379266
0.18688590858238052
0.2469484282799319
0.33282743612447874
0.430079666288177
0.4772882746453587
0.4289076721203731
0.3164227662623675
0.20435350669679073
0.1308994874918576
0.09739378821650946
0.07664384595263589
0.07832034257665856
0.1572517595668903
0.2584793016611114
0.3109427772666307
0.29852110444687396
0.2629979314729927
0.2428703819598853
0.23839337009355993
0.23831783585497265
0.2437961312789963
0.2699964220371715
0.3534527272131515
0.5703085412064653
0.8809612267742778
0.9628872944435419
0.8215640710272313
0.4408139503613747
0.1713269151274605
0.053696496098673746
0.09873831533829255
0.15081574855804358
0.17628776627074727
0.1804621118212754
0.1740592211165094
0.16434258732270854
0.1535109083374338
0.14378639237125287
0.13529548725181895
0.1205977513072152
0.09702046532685563
0.07471909126122694
0.06188884562470086
0.05575809372744031
0.0711185431162154
0.12474318919865462
0.2008551343430747
0.27339230434850986
0.31715941200689485
0.3248689752584604
0.3086004933584039
0.2804950922390169
0.24346165680581613
0.1954292211296606
0.13827772317011963
0.07858975324468458
0.03714034236662352
0.06012517661683145
0.09632121593758386
0.12085471867606751
0.13567353273359836
0.1490726146249823
0.17061236658554482
0.2065075310216701
0.256039665788485
0.3043491824869574
0.3252576727922508
0.30412761552189393
0.2494214623585184
0.18408998458691
0.124431092917114
0.07998719937748873
0.058482987464587716
0.06400223612478488
0.07972359491103982
0.09363630842233696
0.10127570841615789
0.10303891510311948
0.10013943120706385
0.09628588643986995
0.09694109919133106
0.10091131737558483
0.10174904333245272
0.09175103990359657
0.06940814727763703
0.04342139937765608
0.0490497428114179
0.09350352803338434
0.15240236595255718
0.2147803360495974
0.2692321830364527
0.2985713781783723
0.29025581984585613
0.24783718784664302
0.18582315307722175
0.12128923486670727
0.0641007958462537
0.04150094845922076
0.07564372251870825
0.12410912203943286
0.1768797049615849
0.2309912694168702
0.27116614208332523
0.27963763906843553
0.25183235447679864
0.20274229806285182
0.15074577007759105
0.1091331314300183
0.08722333219992393
0.09611170662606186
0.13417149877324092
0.1928910099948886
0.26204199526511857
0.0
SCALARS Torsion float 1
LOOKUP_TABLE default
0.0
0.0
-0.0016578448066877157
0.014753530866116794
0.05180500338487219
0.12298622416933974
0.23570799670174625
0.3720694953937064
0.46711779977625295
0.48060120501490355
0.4503805165300594
0.4314693945957351
0.4754608660237148
0.6249202510933017
0.7910945787998027
0.754210008573886
0.08817572719571976
-0.860858615713492
-0.4719794891255274
-0.07276005536229274
0.17762825034890395
0.3950808273234295
0.5348877440284738
0.5125166293621986
0.37863710134168066
0.23541008328152332
0.11449547914956847
2.313733071566959e-05
-0.10711245837860053
-0.16732798245104466
-0.146680903880896
-0.07166031867366193
0.031629418408831766
0.19403896093614376
0.6298159585018515
0.9995552386838406
0.6743078320610556
0.3130872521312069
0.28292576315048884
0.3228623983279488
0.33251419515779745
0.23983907096015974
0.02698079576279583
-0.20124865877422596
-0.24743318909436754
-0.0765156208892199
0.25973457614741174
0.5382577563126922
0.43000241662012745
-0.2858052249171508
-0.6225237698498671
-0.3763884342344663
-0.21833149720737174
-0.19288902510851197
-0.23986352021337629
-0.32138288935915155
-0.3858784031620129
-0.4020557459535645
-0.37059719863700863
-0.3383896972277475
-0.3679670926901701
-0.6293149176106496
-0.9901047925696113
-0.7059369672095391
-0.24832829199580647
-0.0883634060480625
-0.034560938400814076
-0.042745501938054126
-0.0760488511683987
-0.10701511894953782
-0.10748434160391228
-0.08807659524650505
-0.06218666691231586
-0.02431827078624947
0.011364237309948844
0.09607328788761706
0.24451655409315626
0.5524336612011748
0.7911403762108957
0.6126779279541904
0.25904694933534816
0.01509498526462727
-0.15938213332823617
-0.2890254111747436
-0.4185540649216606
-0.5165881577721246
-0.5464659017906541
-0.49926138981611545
-0.4210212573229749
-0.38421360476709115
-0.5089806283288043
-0.8639749723002293
-0.846080712017605
-0.3689682299968845
-0.12028103783133554
-0.003012774547012556
0.08299565868502858
0.1361089793552313
0.17063730681508046
0.19508360558176766
0.17609276747511254
0.10710243723192607
-0.4389595901837943
-0.9581234571582908
-0.4297346287572159
0.06704337120248621
0.2652262427616598
0.341751051269168
0.3506356683804926
0.34016528485680797
0.3418611043768957
0.3703070103962696
0.4563805096912737
0.6090641222303721
0.7467363897506455
0.666481419916399
0.43993896238840663
0.262204886838807
0.1620642634595953
0.0
SCALARS Distance_to_V float 1
LOOKUP_TABLE default
0.0
0.45953760094244545
0.9651326612652628
1.5042803634107
2.064506462568314
2.633239113260792
3.1977794473909866
3.745485083216604
4.264535785063435
4.745620677473088
5.184275561985765
5.583299089849949
5.953477718181643
6.311239757276368
6.673499583482523
7.051396269112567
7.446156190163725
7.848784645306898
8.243497993975044
8.613259627872468
8.945643543243827
9.237175878988728
9.494696937662814
9.732852536801884
9.968102845575185
10.21130260281095
10.461814520148058
10.705459178061101
10.91690234640236
11.065839365728854
11.124760367100679
11.076453706905832
10.919089828515988
10.667489914678155
10.349749144098885
10.000216080883384
9.650939835238745
9.324448518055407
9.030318793756965
8.766579157535773
8.524716194282755
8.295645886742802
8.073971949386193
7.858866678906547
7.651954967673425
7.4538256028469085
7.261772438870973
7.070142922520642
6.873304984181515
6.669296492648204
6.4619991145790125
6.26073747572461
6.077887449044987
5.926547620651315
5.820070973306071
5.772522811558169
5.798163820718521
5.908616805783258
6.108468841987265
6.392745083460255
6.747048150907544
7.15038231278473
7.579383120940475
8.01181133859292
8.429300849796524
8.818188983280775
9.16861354009919
9.472566935472337
9.721731044455263
9.905877149351799
10.013338511735144
10.032694543091345
9.955735132371128
9.780407900597048
9.512050509874255
9.16343690867654
8.752042919604772
8.297207699022673
7.816680476403705
7.324382320310536
6.829084745820805
6.334467489443009
5.840056290024031
5.342734980116885
4.838221201257112
4.322414669971051
3.7922376584390163
3.245574610216897
2.6817317242133574
2.1016758478305486
1.5096313171947566
0.9200195807972904
0.41247395714620866
0.5112708529381625
1.0338168762210627
1.570491014552594
2.064390073287215
2.4946560690020276
2.8507536844955323
3.1308029554311343
3.3416269289860856
3.4973931110563927
3.6157822216651767
3.712605386825552
3.796384786443725
3.8654002382726302
3.9084408057746516
3.9086344657224434
3.8479473028814626
3.712418454091656
3.4951198372082404
3.197968334513238
2.8310708969651572
2.4110230558435926
1.958660149029818
1.496608595481473
1.0477452498155047
0.6348414376529343
0.2791807127439366
0.0
SCALARS Local_Extrema int 1
LOOKUP_TABLE default
0
0
0
0
0
0
0
0
0
0
0
0
0
0
0
0
0
0
0
0
0
0
0
0
0
0
0
0
0
0
1
0
0
0
0
0
0
0
0
0
0
0
0
0
0
0
0
0
0
0
0
0
0
0
0
-1
0
0
0
0
0
0
0
0
0
0
0
0
0
0
0
1
0
0
0
0
0
0
0
0
0
0
0
0
0
0
0
0
0
0
0
0
-1
0
0
0
0
0
0
0
0
0
0
0
0
0
0
1
0
0
0
0
0
0
0
0
0
0
0
0
