# vtk DataFile Version 3.0
Curve with Curvature, Torsion, Distance to V, and Extrema
ASCII
DATASET POLYDATA
POINTS 120 float
0.0 0.0 0.0
-0.6288461685180664 -0.2613258361816406 0.3161964416503906
-1.2366886138916016 -0.570159912109375 0.6308479309082031
-1.8300199508666992 -0.9105377197265625 0.9407882690429688
-2.4198217391967773 -1.2667350769042969 1.239532470703125
-3.0194034576416016 -1.62548828125 1.5146770477294922
-3.641357421875 -1.9770431518554688 1.745412826538086
-4.292890548706055 -2.3149566650390625 1.9020500183105469
-4.968771934509277 -2.63653564453125 1.9521617889404297
-5.648306846618652 -2.9441871643066406 1.8739299774169922
-6.304071426391602 -3.245960235595703 1.6698722839355469
-6.9148712158203125 -3.5526199340820312 1.3601303100585938
-7.4691572189331055 -3.87384033203125 0.9691791534423828
-7.960207939147949 -4.216037750244141 0.5162849426269531
-8.38100814819336 -4.5818023681640625 0.013811111450195312
-8.72150707244873 -4.969499588012695 -0.5311470031738281
-8.968672752380371 -5.372707366943359 -1.1136932373046875
-9.107207298278809 -5.78074836730957 -1.7277965545654297
-9.124480247497559 -6.180076599121094 -2.3625431060791016
-9.017786979675293 -6.558183670043945 -3.0015697479248047
-8.797152519226074 -6.908422470092773 -3.6273670196533203
-8.482417106628418 -7.232213973999023 -4.226863861083984
-8.095300674438477 -7.536832809448242 -4.793355941772461
-7.655124664306641 -7.8321380615234375 -5.325130462646484
-7.176787376403809 -8.128164291381836 -5.822519302368164
-6.671855926513672 -8.434030532836914 -6.286584854125977
-6.148712158203125 -8.757795333862305 -6.717123031616211
-5.6139373779296875 -9.107135772705078 -7.111835479736328
-5.073463439941406 -9.489910125732422 -7.465520858764648
-4.533807754516602 -9.916351318359375 -7.766210556030273
-4.004935264587402 -10.399560928344727 -7.988964080810547
-3.510896682739258 -10.955135345458984 -8.07575798034668
-3.1311960220336914 -11.567663192749023 -7.898420333862305
-2.9977502822875977 -12.085729598999023 -7.385957717895508
-3.0703659057617188 -12.409004211425781 -6.71550178527832
-3.2433366775512695 -12.590259552001953 -6.008554458618164
-3.46783447265625 -12.676651000976562 -5.297586441040039
-3.7253246307373047 -12.690664291381836 -4.592552185058594
-4.0095319747924805 -12.640205383300781 -3.8995208740234375
-4.318885803222656 -12.525781631469727 -3.2251644134521484
-4.653291702270508 -12.343156814575195 -2.5784244537353516
-5.011153221130371 -12.087188720703125 -1.9703426361083984
-5.386655807495117 -11.757915496826172 -1.4100494384765625
-5.770097732543945 -11.362768173217773 -0.8997993469238281
-6.1504621505737305 -10.915260314941406 -0.4320335388183594
-6.518230438232422 -10.430990219116211 0.00856781005859375
-6.86592960357666 -9.92439079284668 0.4403266906738281
-7.187363624572754 -9.408853530883789 0.8817081451416016
-7.476375579833984 -8.897985458374023 1.3499813079833984
-7.725954055786133 -8.407880783081055 1.8609485626220703
-7.927310943603516 -7.960206985473633 2.428600311279297
-8.069243431091309 -7.586025238037109 3.0629100799560547
-8.137566566467285 -7.331325531005859 3.7642059326171875
-8.120503425598145 -7.253694534301758 4.508169174194336
-8.0206298828125 -7.396690368652344 5.235082626342773
-7.861605644226074 -7.75384521484375 5.872767448425293
-7.675042152404785 -8.274042129516602 6.378159523010254
-7.4844770431518555 -8.90028190612793 6.743313789367676
-7.303323745727539 -9.590578079223633 6.973696708679199
-7.138572692871094 -10.314577102661133 7.080666542053223
-6.9933977127075195 -11.050792694091797 7.078107833862305
-6.868112564086914 -11.784883499145508 6.984164237976074
-6.760915756225586 -12.509637832641602 6.820051193237305
-6.668703079223633 -13.224151611328125 6.608249664306641
-6.58736515045166 -13.932640075683594 6.372812271118164
-6.51240348815918 -14.642522811889648 6.139490127563477
-6.439089775085449 -15.362213134765625 5.938323020935059
-6.363046646118164 -16.097002029418945 5.805536270141602
-6.281560897827148 -16.842256546020508 5.780296325683594
-6.195248603820801 -17.578994750976562 5.8902177810668945
-6.107426643371582 -18.282800674438477 6.134164810180664
-6.020536422729492 -18.93941307067871 6.486872673034668
-5.933779716491699 -19.548437118530273 6.917071342468262
-5.843400955200195 -20.116680145263672 7.399445533752441
-5.743263244628906 -20.65268898010254 7.915722846984863
-5.625102996826172 -21.164273262023926 8.452600479125977
-5.478558540344238 -21.65781307220459 8.999265670776367
-5.290714263916016 -22.137235641479492 9.545775413513184
-5.047346115112305 -22.602585792541504 10.082310676574707
-4.735440254211426 -23.048556327819824 10.59931755065918
-4.348677635192871 -23.465850830078125 11.088835716247559
-3.888774871826172 -23.844362258911133 11.545523643493652
-3.3654232025146484 -24.176609992980957 11.968819618225098
-2.792795181274414 -24.45926284790039 12.363553047180176
-2.1849422454833984 -24.692665100097656 12.737396240234375
-1.5529422760009766 -24.87874698638916 13.097593307495117
-0.9047861099243164 -25.01988124847412 13.449461936950684
-0.24590253829956055 -25.118416786193848 13.795913219451904
0.4203476905822754 -25.176420211791992 14.137426376342773
1.0921106338500977 -25.196056365966797 14.472453117370605
1.7686176300048828 -25.179523468017578 14.797977924346924
2.4497952461242676 -25.128832817077637 15.109961032867432
3.13594388961792 -25.04630184173584 15.403717994689941
3.8274121284484863 -24.93505096435547 15.674635410308838
4.524343490600586 -24.798972129821777 15.918920516967773
5.2264723777771 -24.642810821533203 16.13467502593994
5.933190584182739 -24.471904754638672 16.322521686553955
6.643713176250458 -24.291831970214844 16.48594617843628
7.357074901461601 -24.107922554016113 16.631885528564453
8.072106897830963 -23.924784660339355 16.770484924316406
8.787286400794983 -23.746004104614258 16.913880825042725
9.500437021255493 -23.57406711578369 17.074573516845703
10.208600282669067 -23.41045379638672 17.263399124145508
10.908470153808594 -23.255966186523438 17.487457752227783
11.597423076629639 -23.111458778381348 17.748884439468384
12.27446985244751 -22.978819847106934 18.045386791229248
12.940167903900146 -22.861380577087402 18.37245011329651
13.59580135345459 -22.764073371887207 18.725432872772217
14.24272871017456 -22.694408416748047 19.10030198097229
14.881612777709961 -22.663209915161133 19.493579506874084
15.510807514190674 -22.686458587646484 19.902496933937073
16.123330116271973 -22.787941932678223 20.32410705089569
16.70084857940674 -22.999263763427734 20.753311216831207
17.204466819763184 -23.35409927368164 21.179375037550926
17.578500747680664 -23.86081600189209 21.583755508065224
17.78732681274414 -24.479214668273926 21.95114254951477
17.843070030212402 -25.148988723754883 22.28382259607315
17.782617568969727 -25.82873821258545 22.596068620681763
17.640664100646973 -26.499378204345703 22.902169704437256
17.44219207763672 -27.153922080993652 23.21198809146881
LINES 1 121
120 0 1 2 3 4 5 6 7 8 9 10 11 12 13 14 15 16 17 18 19 20 21 22 23 24 25 26 27 28 29 30 31 32 33 34 35 36 37 38 39 40 41 42 43 44 45 46 47 48 49 50 51 52 53 54 55 56 57 58 59 60 61 62 63 64 65 66 67 68 69 70 71 72 73 74 75 76 77 78 79 80 81 82 83 84 85 86 87 88 89 90 91 92 93 94 95 96 97 98 99 100 101 102 103 104 105 106 107 108 109 110 111 112 113 114 115 116 117 118 119
POINT_DATA 120
SCALARS Curvature float 1
LOOKUP_TABLE default
0.0
0.09184312753966259
0.06203144348119593
0.03491105951697973
0.04549120585819982
0.08886410956118024
0.1425544519240995
0.1933788150222457
0.22484248711474167
0.22312188191885268
0.2007698328796502
0.1753048795754252
0.15979941262149316
0.15668282389705027
0.16411957948842146
0.17848651859535938
0.19797397910414924
0.21502508388064134
0.21922963954587482
0.2060142903047612
0.1773669206786627
0.14395759734937807
0.11308550836626845
0.0908057817936076
0.07740919639604518
0.0745733396337813
0.08054024990110845
0.09409317416434734
0.12115648088022628
0.17039474512614008
0.2734385809099897
0.4810543917970064
0.6321021913915501
0.5106596521915032
0.3033013224179401
0.18890314904851563
0.14038525065714016
0.12484521415912989
0.12557628422121583
0.1369057540356729
0.15152488335847936
0.15687028343935808
0.14618445176554085
0.11903175613284901
0.08383601866999238
0.05542704517628341
0.052018252846819546
0.0750040997781195
0.10899063271369057
0.15073226869417988
0.20222563756490022
0.2688818931533931
0.3419735307922948
0.3949680493639288
0.39885752223820614
0.357100213250567
0.3010874363171389
0.2584624638713005
0.22441972292839563
0.19564243977076815
0.16419322301697098
0.12872539700989563
0.09018137101361505
0.047305827628547986
0.012164613601369223
0.05961743239774003
0.12365708245875984
0.18951336624216933
0.23554140649944147
0.23952769139799276
0.20682021144825755
0.15967126997402292
0.11697622881185107
0.08449979594883002
0.06494051637512335
0.06202389317504002
0.07723022166525054
0.10271785290184672
0.1301774981516369
0.14907742430055293
0.15651340598903057
0.15004265811652406
0.1330261344418078
0.11303172195923203
0.096914245196622
0.08573147612769404
0.0783007905684141
0.0734195625007424
0.0695577826570248
0.0667280832675323
0.06556997623638146
0.06554091320070056
0.06563812397219702
0.06517844418370458
0.062453710240372044
0.056484026654235485
0.04670091845472554
0.032122103451936404
0.013415178506770944
0.011491983910274523
0.033164526489307886
0.052714139974341274
0.06608284922327483
0.071126255317583
0.06884462671043298
0.0636798868121476
0.06078280725303473
0.06429635868855899
0.07678824863269798
0.10154678940572226
0.1426335827170154
0.2020692438922356
0.2786809994431851
0.341150838838354
0.3435107330504463
0.283708611816296
0.20647574015250175
0.14464748779903727
0.10397206522391263
0.0
SCALARS Torsion float 1
LOOKUP_TABLE default
0.0
0.0
-0.17395361156490965
-0.8176950798615891
-0.6980935558828536
-0.16628495923631004
0.014852864295959528
0.08604917837135131
0.13654927080364607
0.19215779535652303
0.24349084182507108
0.2657275838857523
0.22697680444226162
0.14023976355337922
0.04570040853835747
-0.021693437307879593
-0.04679505748638622
-0.04076361884631895
-0.015831409703835293
0.02368654997046398
0.07877164783031186
0.15071919676550807
0.2397752174010586
0.3296177482347126
0.3814547081834916
0.3444596333327392
0.2586432101973409
0.16808869482286168
0.08903572333258163
0.02482897106205456
-0.01654765169234576
-0.03364756812055182
-0.05176830928918442
-0.10233195761420498
-0.153795118103933
-0.12017026936767529
-0.05498489764058655
-0.0027666101387369135
0.018666628203680827
0.014908378654067685
-0.0019104748659971652
-0.029267837150083454
-0.0759889582084639
-0.1705233763893285
-0.3827951298241163
-0.7316321765728523
-0.7678589952718522
-0.4393203438669582
-0.22833638355809935
-0.14177427637713244
-0.10395084592987525
-0.085895768627564
-0.08024225514774176
-0.08215825017033546
-0.08674576552274399
-0.08567644696211392
-0.07179571202092495
-0.04905162667239854
-0.030545611687666122
-0.01964975527944313
-0.018368844853408013
-0.028934910020167747
-0.06817333221814306
-0.28482283096348876
-0.9999357126777852
-0.24390700313659575
-0.06083849556627824
-0.0204296986743985
-0.003021440425530878
0.00533112045529471
-0.0016046256925071854
-0.03946369922440661
-0.12480800076268406
-0.28873129514602647
-0.4964821530373037
-0.5444469986019259
-0.3650137817746665
-0.1717897544627858
-0.04772021938139831
0.021400926257520027
0.05746101484604765
0.09471905105197412
0.15065917559319386
0.20252463949561075
0.21866201585289277
0.19224820157996222
0.13053396697262262
0.04811386386316996
-0.03435179825837425
-0.10192296017577912
-0.14599180351282565
-0.17431891107420874
-0.18657055856549598
-0.18329930560321703
-0.17399350151373139
-0.1714395115209953
-0.1899027963761519
-0.2619470521797559
-0.7643255029987992
-0.830244786207797
-0.17069159559082692
-0.0847598562739881
-0.050560361498607806
-0.008665603710460185
0.06819003936562083
0.16919870547983615
0.2511078177333089
0.28351157580185615
0.23719823937365597
0.14946742850387953
0.07503258893669798
0.018712307572725947
-0.024683976059437753
-0.06253123243773782
-0.10932730082798373
-0.17693527861883868
-0.25503544275165085
-0.31671482800973827
-0.3435722082088121
0.0
SCALARS Distance_to_V float 1
LOOKUP_TABLE default
0.0
0.7457294937806879
1.4853086959830015
2.219789257577557
2.9527205925495776
3.688421987555041
4.429314618930542
5.172269709443748
5.905279752194886
6.609849592038376
7.272163665182287
7.889967693005286
8.469356863684437
9.017177676128059
9.536419666501432
10.024554799371176
10.47402796145575
10.873276445112047
11.210791334535775
11.481625077635707
11.691404980229185
11.855833295394193
11.994486912595319
12.126408764545348
12.267102374138325
12.428471405117238
12.618183302184052
12.840496625093737
13.096634048943267
13.384364223808785
13.694867917710127
14.001907804612257
14.224293781183228
14.23731226349274
14.07902727983697
13.844828861126764
13.580624120076465
13.307134458742047
13.035240395131588
12.771978582358766
12.522100230080609
12.28881397334398
12.074079207195245
11.8779434626334
11.69887762862175
11.535162793299724
11.385942436054496
11.252228508991639
11.137112390319162
11.04597727552092
10.986365118489699
10.967197767012113
10.996502342520172
11.076525295823021
11.197313437760227
11.339303602948666
11.486826852369141
11.63498756498101
11.786329603664328
11.946570992992145
12.122204016202776
12.319203919901407
12.542335800517417
12.794918847683801
13.078729021698107
13.393848690467076
13.737785482009174
14.103410047778592
14.476201578420797
14.835212563777429
15.162231127461816
15.450071491494603
15.700728987236213
15.918789744854857
16.107384842667017
16.266631361889214
16.393320623506316
16.480074103079506
16.515666985854786
16.486430343269742
16.38171916695342
16.197017602150574
15.935814827176827
15.607517316834679
15.223422291548973
14.793287467809867
14.324661506400837
13.823107361727418
13.292495559507485
12.735675265732397
12.154741424074446
11.551178985741755
10.92636429688957
10.282063479942016
9.620593083268515
8.94502037069053
8.258990568585602
7.566424693646496
6.871198423811707
6.176778929395307
5.486017981870138
4.801190353554103
4.124128657881029
3.4563152954340945
2.7989875584247828
2.1534230051408216
1.5213296487287362
0.9055361642272763
0.31354840998241196
0.27264953042526263
0.7981298297954834
1.2685797050551337
1.6454730874771064
1.8764105682620325
1.9112679157178132
1.745403885866632
1.424731281218548
1.0035712118130509
0.5207920348065598
0.0
SCALARS Local_Extrema int 1
LOOKUP_TABLE default
0
0
0
0
0
0
0
0
0
0
0
0
0
0
0
0
0
0
0
0
0
0
0
0
0
0
0
0
0
0
0
0
0
1
0
0
0
0
0
0
0
0
0
0
0
0
0
0
0
0
0
-1
0
0
0
0
0
0
0
0
0
0
0
0
0
0
0
0
0
0
0
0
0
0
0
0
0
0
1
0
0
0
0
0
0
0
0
0
0
0
0
0
0
0
0
0
0
0
0
0
0
0
0
0
0
0
0
0
0
-1
0
0
0
0
1
0
0
0
0
0
