# vtk DataFile Version 3.0
Curve with Curvature, Torsion, Distance to V, and Extrema
ASCII
DATASET POLYDATA
POINTS 120 float
0.0 0.0 0.0
-0.2610464096069336 -0.7314739227294922 -0.060059547424316406
-0.5303430557250977 -1.4178104400634766 -0.014006614685058594
-0.8003292083740234 -2.053712844848633 0.11246681213378906
-1.0636100769042969 -2.634145736694336 0.2935018539428711
-1.3133153915405273 -3.1549224853515625 0.5028190612792969
-1.5437355041503906 -3.6137094497680664 0.7135820388793945
-1.7511091232299805 -4.011324882507324 0.8987207412719727
-1.93426513671875 -4.353000640869141 1.032144546508789
-2.094862937927246 -4.649053573608398 1.0911569595336914
-2.2367992401123047 -4.914521217346191 1.059617042541504
-2.364835739135742 -5.167691230773926 0.9309320449829102
-2.4829511642456055 -5.427939414978027 0.7097511291503906
-2.5928173065185547 -5.713293075561523 0.41129016876220703
-2.6926584243774414 -6.037920951843262 0.058127403259277344
-2.776644706726074 -6.409789085388184 -0.32468318939208984
-2.834933280944824 -6.829100608825684 -0.714909553527832
-2.854586601257324 -7.288088798522949 -1.0971946716308594
-2.821200370788574 -7.772459983825684 -1.4648313522338867
-2.721048355102539 -8.264150619506836 -1.8190984725952148
-2.543368339538574 -8.744771957397461 -2.166522979736328
-2.2823848724365234 -9.19893741607666 -2.5148725509643555
-1.9387493133544922 -9.616732597351074 -2.868917465209961
-1.5202178955078125 -9.994771003723145 -3.2268905639648438
-1.0415267944335938 -10.33552074432373 -3.5785064697265625
-0.5235309600830078 -10.645287036895752 -3.9050111770629883
0.008290290832519531 -10.931497573852539 -4.181149482727051
0.5259199142456055 -11.199758052825928 -4.37883186340332
1.0013914108276367 -11.45153522491455 -4.4718217849731445
1.40968656539917 -11.683300495147705 -4.440506935119629
1.7316045761108398 -11.886979579925537 -4.275852203369141
1.9560375213623047 -12.051600456237793 -3.981217384338379
2.081028461456299 -12.166566848754883 -3.5717945098876953
2.113468647003174 -12.224382400512695 -3.0718774795532227
2.0674800872802734 -12.22241735458374 -2.510650634765625
1.961845874786377 -12.163717269897461 -1.917515754699707
1.8170924186706543 -12.056258201599121 -1.3179044723510742
1.6528468132019043 -11.910730361938477 -0.7302484512329102
1.4859309196472168 -11.739315032958984 -0.16464710235595703
1.3293843269348145 -11.554161548614502 0.3769702911376953
1.1922273635864258 -11.367656230926514 0.8994731903076172
1.0797500610351562 -11.193241596221924 1.4121484756469727
0.9940423965454102 -11.045566082000732 1.9256281852722168
0.9346580505371094 -10.940174579620361 2.4486641883850098
0.8996400833129883 -10.89204216003418 2.985384941101074
0.8869171142578125 -10.913442134857178 3.5338401794433594
0.8956727981567383 -11.012742042541504 4.08591890335083
0.9271907806396484 -11.193216800689697 4.628650665283203
0.9846696853637695 -11.453179359436035 5.146477699279785
1.0719261169433594 -11.787156581878662 5.624020338058472
1.1913366317749023 -12.186540126800537 6.048868894577026
1.3417649269104004 -12.641042709350586 6.413772106170654
1.5174412727355957 -13.140045166015625 6.717702150344849
1.7081542015075684 -13.67340898513794 6.965609550476074
1.90077543258667 -14.232335090637207 7.166988372802734
2.0815882682800293 -14.809985160827637 7.333726406097412
2.2387256622314453 -15.401593208312988 7.477833271026611
2.364093780517578 -16.004310846328735 7.609550833702087
2.4543609619140625 -16.61687457561493 7.736238718032837
2.511012554168701 -17.238629817962646 7.862210512161255
2.539675712585449 -17.868986934423447 7.989231705665588
2.5492353439331055 -18.506520569324493 8.117390871047974
2.551032543182373 -19.14816850423813 8.245996356010437
2.55819034576416 -19.78895390033722 8.37423586845398
2.5849804878234863 -20.421971559524536 8.501531660556793
2.6460657119750977 -21.038746118545532 8.627638459205627
2.7553915977478027 -21.630505800247192 8.752440243959427
2.9247303009033203 -22.18946599960327 8.875832051038742
3.162137985229492 -22.710015773773193 8.997600510716438
3.4707536697387695 -23.190094470977783 9.117461360991001
3.848240375518799 -23.6318039894104 9.235287599498406
4.287089824676514 -24.040403366088867 9.351366989314556
4.776036739349365 -24.42317247390747 9.466680005192757
5.30195426940918 -24.786827087402344 9.583012461662292
5.851932764053345 -25.135118007659912 9.702916234731674
6.414931774139404 -25.466880798339844 9.829529881477356
6.982686281204224 -25.775068283081055 9.966072618961334
7.549795508384705 -26.047340869903564 10.115460932254791
8.113124251365662 -26.268171787261963 10.28023648262024
8.670872271060944 -26.421695709228516 10.461625218391418
9.221619943156838 -26.49468421936035 10.659907102584839
9.763864398002625 -26.47939968109131 10.87476134300232
10.295881032943726 -26.37515354156494 11.104949593544006
10.816038131713867 -26.188322067260742 11.348698139190674
11.323443174362183 -25.931396484375 11.604378938674927
11.818456888198853 -25.621537685394287 11.870074987411499
12.302903890609741 -25.278287887573242 12.143621921539307
12.780102729797363 -24.920633792877197 12.422802686691284
13.254489421844482 -24.565377235412598 12.705070734024048
13.730666637420654 -24.225218772888184 12.987637042999268
14.212543964385986 -23.907353401184082 13.267761707305908
14.702576637268066 -23.613200187683105 13.543057441711426
15.200851440429688 -23.338646411895752 13.811929702758789
15.705037593841553 -23.074966430664062 14.07377815246582
16.210853576660156 -22.810388565063477 14.329031944274902
16.71298360824585 -22.532819747924805 14.579246997833252
17.206756114959717 -22.232441663742065 14.826220989227295
17.689468383789062 -21.903998851776123 15.071256160736084
18.16123390197754 -21.548748254776 15.31478500366211
18.625850677490234 -21.175493001937866 15.555663108825684
19.090157508850098 -20.800138235092163 15.791383266448975
19.562289237976074 -20.443941116333008 16.018689155578613
20.049848556518555 -20.130812883377075 16.234262466430664
20.558077812194824 -19.883992910385132 16.4358868598938
21.08792209625244 -19.723013281822205 16.62327814102173
21.635289192199707 -19.661494612693787 16.79832935333252
22.19203758239746 -19.705809712409973 16.965102195739746
22.746082305908203 -19.855034589767456 17.128905773162842
23.28402614593506 -20.10224950313568 17.295557975769043
23.792465209960938 -20.43616247177124 17.46977424621582
24.259530067443848 -20.843080520629883 17.654751777648926
24.675827980041504 -21.30869436264038 17.85175895690918
25.03450107574463 -21.819427490234375 18.060043334960938
25.33127784729004 -22.363368034362793 18.278228759765625
25.563589096069336 -22.930309295654297 18.50427532196045
25.730241775512695 -23.511771202087402 18.736377716064453
25.830854415893555 -24.100542545318604 18.97365379333496
25.86565399169922 -24.690114974975586 19.215670585632324
25.8355712890625 -25.27418851852417 19.462167739868164
25.742094039916992 -25.846408367156982 19.713252067565918
LINES 1 121
120 0 1 2 3 4 5 6 7 8 9 10 11 12 13 14 15 16 17 18 19 20 21 22 23 24 25 26 27 28 29 30 31 32 33 34 35 36 37 38 39 40 41 42 43 44 45 46 47 48 49 50 51 52 53 54 55 56 57 58 59 60 61 62 63 64 65 66 67 68 69 70 71 72 73 74 75 76 77 78 79 80 81 82 83 84 85 86 87 88 89 90 91 92 93 94 95 96 97 98 99 100 101 102 103 104 105 106 107 108 109 110 111 112 113 114 115 116 117 118 119
POINT_DATA 120
SCALARS Curvature float 1
LOOKUP_TABLE default
0.0
0.20064987905566214
0.1799774916607805
0.15616156707366743
0.12869335416423403
0.08988837413633706
0.03366507270610293
0.17413588201304514
0.502053648423758
0.7714749751732928
0.7563127830031631
0.5055142052054096
0.23790878072395416
0.10292845772030723
0.09386239892771328
0.1200447157893494
0.1403872125094514
0.15748019757204637
0.1780085842156201
0.20074059835961303
0.21381154521300658
0.20601640040446717
0.17875619368273285
0.14426943329849565
0.11809647583546194
0.12113121844234011
0.17817605028576075
0.31025709849485195
0.5263466101181475
0.7271557159074398
0.7641312458506824
0.630773685285419
0.435180408382525
0.2890031237879332
0.20089537171928698
0.1474784637859432
0.11216805218497092
0.08410421143034628
0.06068581272440435
0.05052493171031929
0.07511302326881544
0.12326705095541865
0.17406250234992088
0.21384820309950073
0.2364156386481983
0.24565911206592259
0.24739835626041823
0.24777494794981283
0.24901698809904851
0.2461540583944307
0.23340041067660963
0.20775721561334873
0.17189482871259873
0.13364842453087136
0.10326119088404534
0.0896400962071834
0.09013914690600798
0.09145436429585431
0.08450977062134729
0.06832907763603313
0.04538741786737733
0.018170754403810357
0.012581039508843091
0.04772829329234128
0.08914209996716066
0.13685763183470004
0.18573588712627492
0.2237351752204071
0.23608028599623135
0.21685531404824507
0.17593280959178534
0.1283219501364372
0.08698638184324736
0.0590115898103628
0.048960255318613755
0.058563197940578605
0.08581564285023727
0.12874768828300268
0.18131699129704826
0.23104264480720782
0.2589737862314279
0.253740348154484
0.22083236759852315
0.1739723841708516
0.12439984486547577
0.07813938030068998
0.037680315615418555
0.010162355452652067
0.032586059174515056
0.05283897855335791
0.06109142876109067
0.05473219152165982
0.035574264117391875
0.01733745129153154
0.03671658971689734
0.06147518224008452
0.07405690324481971
0.06927438386218805
0.04613030230119023
0.013361945533871954
0.05194892703398152
0.11767010578367039
0.1903606767854764
0.2553452882496604
0.2954358412198763
0.3010780354021848
0.28005898367185644
0.24813044875106668
0.21792205871963669
0.19465636393932928
0.17860140269369784
0.1686344380575577
0.16278272713170244
0.1601505761062566
0.15943170367055523
0.15989902060515532
0.16056100606191792
0.16063026512728185
0.1605520417503275
0.0
SCALARS Torsion float 1
LOOKUP_TABLE default
0.0
0.0
0.010258341747355203
0.022407463797864176
0.06674593385782245
0.31635865095722376
0.9999919966547388
0.5738819408239971
0.18701922403628352
0.11704819116229796
0.1367961000409387
0.25572757686949843
0.6048085112460475
0.9645913924993903
0.8465892236833291
0.27835655925915714
-0.07957999160930995
-0.2696331759807071
-0.34134525042362285
-0.31785071914096996
-0.24621193980666264
-0.15699102688906244
-0.04398566713837354
0.1337877646609109
0.41182554758620527
0.5817043105684926
0.4502144500086924
0.24731395559966415
0.10854149349076922
0.016455800855928113
-0.054595009131377624
-0.10443052530145552
-0.14353815208090023
-0.17699433037402296
-0.205856617039034
-0.24575319000317922
-0.3320690591359443
-0.49647340354392266
-0.7828359843707452
-0.9334219258809288
-0.7529821011696507
-0.4588196147464725
-0.3077780580185979
-0.21948266444598066
-0.14549939942765283
-0.07409009823087474
-0.0012431396667577088
0.05746708246714097
0.08461405665585041
0.08008713194473169
0.0420875838914356
-0.027587881966324675
-0.1407955658888031
-0.32633156926389983
-0.5526909431133326
-0.6374159952790132
-0.5157218659579655
-0.330818473537708
-0.1912690228144827
-0.09361441961617206
-0.018347254811691027
0.12060258830998202
0.18161417153727785
0.02734260333346125
0.024546640098446152
0.017282851029040217
0.010660734406762518
0.003996033532389579
-0.0029945046167696296
-0.007545087944541147
-0.0040213745812031935
0.015757434702420706
0.0883074702484071
0.2638043238544922
0.39797008098680264
0.22282187846291118
0.028977515845851815
-0.034809768944269515
-0.054778289095368644
-0.04487565163486752
-0.02559947742365192
-0.012319904201416003
0.004897804760010229
0.03653097979833555
0.07324333311640491
0.15793935263930675
0.48819874301470584
0.9999718594530667
0.4343493080631885
0.18148311559427166
0.16041723075472725
0.22045551096716623
0.5410679001232076
0.9942923133207409
0.5972553038511824
0.21524087983019902
0.09374791266624086
0.026915539243675762
-0.18757184523879147
-0.9997563469537585
-0.39315484963140324
-0.11219712764894119
-0.07127075633544766
-0.07314905090051413
-0.08860046088537991
-0.11144457495547125
-0.13892701576353278
-0.16206157589659542
-0.16506943350885522
-0.1554349092461466
-0.12828390916903606
-0.08843596339515855
-0.06628327051427635
-0.04138532838133226
-0.033622793368770006
-0.04431534743770005
-0.04986993627701165
-0.054549040222918614
-0.0662692691435553
0.0
SCALARS Distance_to_V float 1
LOOKUP_TABLE default
0.0
0.7323947083431263
1.4112007574998502
2.0422381117857182
2.626607902277684
3.1619968035006347
3.644600611776991
4.071505100367926
4.44322552544736
4.76598871087933
5.052981236161264
5.323830561453855
5.601921002181856
5.9095879279526065
6.26238023431345
6.664653645835933
7.108590964053603
7.576951949378419
8.048010698995062
8.500812429483899
8.91946693349506
9.29574072281925
9.629502244976361
9.92675040173084
10.195471153289093
10.44062835062908
10.660104178182532
10.843197868618892
10.972572709576063
11.029161957221024
10.998006955243216
10.872733712963166
10.65805481661062
10.368914322009706
10.027093807715088
9.656828238937711
9.280372174692916
8.914382353718711
8.569239064735397
8.249748905711916
7.958058056634033
7.697072405489382
7.472774280355085
7.295037324197096
7.17589285093938
7.125620839307853
7.148896522367504
7.241838222299195
7.3923430849379965
7.583598928154218
7.798526224039888
8.024352506160584
8.255174590609094
8.491896839330094
8.74037861134462
9.008680838604672
9.304313421569994
9.632332431021268
9.994542683383067
10.389182393969163
10.81140133719247
11.253496391047488
11.705011415844695
12.153026891073594
12.58257408244958
12.977396277114956
13.321621893228244
13.601700345635832
13.808331393529551
13.938285249636683
13.995204254038091
13.988599063716984
13.931943294497826
13.839353779292834
13.722273734536454
13.586810022360298
13.43240223253498
13.252277989985885
13.035532088302126
12.770182170618803
12.44614400644998
12.057766196290283
11.605263242205913
11.094520082917201
10.535846265272507
9.942610801221683
9.329284669594035
8.70903692087661
8.09265384640283
7.4875505545397605
6.897155311569156
6.321189219467631
5.756508444538816
5.197990553753482
4.639603171264706
4.076065250391214
3.5041143749840886
2.9240083195698343
2.341704014027657
1.7720932107078649
1.2485823071667745
0.8566433003962576
0.7743887161685981
1.0162941775908958
1.3666990097886207
1.7089485919328737
2.0033797673117086
2.2347211439339016
2.3968822053858356
2.4878457719205707
2.5079912745250588
2.4592662011226527
2.3445401987389873
2.1673644263950984
1.93146146446847
1.640550281463019
1.2981929365137377
0.9079563544786218
0.4737843276516267
0.0
SCALARS Local_Extrema int 1
LOOKUP_TABLE default
0
0
0
0
0
0
0
0
0
0
0
0
0
0
0
0
0
0
0
0
0
0
0
0
0
0
0
0
0
1
0
0
0
0
0
0
0
0
0
0
0
0
0
0
0
-1
0
0
0
0
0
0
0
0
0
0
0
0
0
0
0
0
0
0
0
0
0
0
0
0
1
0
0
0
0
0
0
0
0
0
0
0
0
0
0
0
0
0
0
0
0
0
0
0
0
0
0
0
0
0
0
0
-1
0
0
0
0
0
0
0
1
0
0
0
0
0
0
0
0
0
