# vtk DataFile Version 3.0
Curve with Curvature, Torsion, Distance to V, and Extrema
ASCII
DATASET POLYDATA
POINTS 120 float
0.0 0.0 0.0
-0.45090532302856445 -0.3829193115234375 -0.005295276641845703
-0.9347410202026367 -0.7837247848510742 0.046442508697509766
-1.447033405303955 -1.1933622360229492 0.1391744613647461
-1.983184814453125 -1.6028051376342773 0.256746768951416
-2.5381399393081665 -2.0032482147216797 0.382718563079834
-3.1059951186180115 -2.386333465576172 0.5002150535583496
-3.679551988840103 -2.7447805404663086 0.5920009613037109
-4.2500680685043335 -3.073115348815918 0.6410121917724609
-4.807462096214294 -3.3685121536254883 0.6314845085144043
-5.34110426902771 -3.631667137145996 0.5506510734558105
-5.840926647186279 -3.867384910583496 0.39081811904907227
-6.298717975616455 -4.08479118347168 0.15125465393066406
-6.709083557128906 -4.296708106994629 -0.1609783172607422
-7.069455146789551 -4.518265724182129 -0.5320558547973633
-7.379629373550415 -4.764813423156738 -0.9439096450805664
-7.640749216079712 -5.049404144287109 -1.3780250549316406
-7.8543150424957275 -5.380491256713867 -1.8197135925292969
-8.02168583869934 -5.760443687438965 -2.261012077331543
-8.144027471542358 -6.185426712036133 -2.7013492584228516
-8.222769975662231 -6.646574020385742 -3.145679473876953
-8.260132551193237 -7.1322832107543945 -3.600430488586426
-8.259675741195679 -7.63072395324707 -4.068574905395508
-8.226501226425171 -8.131782054901123 -4.545354843139648
-8.16719651222229 -8.627791404724121 -5.015763282775879
-8.089218378067017 -9.113054275512695 -5.454903602600098
-7.9999964237213135 -9.582576274871826 -5.831122398376465
-7.905892610549927 -10.030890941619873 -6.1109418869018555
-7.811321020126343 -10.451485633850098 -6.2652788162231445
-7.718219518661499 -10.837239742279053 -6.275074005126953
-7.626063346862793 -11.181309461593628 -6.135320663452148
-7.532245635986328 -11.477711200714111 -5.856220245361328
-7.432912826538086 -11.721036911010742 -5.460886001586914
-7.324086904525757 -11.906132936477661 -4.9807329177856445
-7.203064680099487 -12.027381658554077 -4.448983192443848
-7.069694519042969 -12.079516887664795 -3.8946027755737305
-6.92730188369751 -12.059196949005127 -3.3380041122436523
-6.782684803009033 -11.96732497215271 -2.7896604537963867
-6.645222902297974 -11.810242652893066 -2.2514562606811523
-6.525531530380249 -11.599629878997803 -1.7193450927734375
-6.433940649032593 -11.350245237350464 -1.1866188049316406
-6.379274129867554 -11.077067375183105 -0.6470270156860352
-6.36800217628479 -10.793081760406494 -0.09674596786499023
-6.403730392456055 -10.507634162902832 0.4648561477661133
-6.486802577972412 -10.226882457733154 1.0355463027954102
-6.614083290100098 -9.955877780914307 1.6112298965454102
-6.779019355773926 -9.700770378112793 2.187129020690918
-6.9722583293914795 -9.471396446228027 2.7587180137634277
-7.182773113250732 -9.282078742980957 3.3219900131225586
-7.399287462234497 -9.15065860748291 3.873206377029419
-7.611597061157227 -9.095930099487305 4.408399343490601
-7.81120228767395 -9.134174346923828 4.9232635498046875
-7.991174936294556 -9.276036262512207 5.4135353565216064
-8.145830869674683 -9.524315357208252 5.875943899154663
-8.270563840866089 -9.873405456542969 6.309082508087158
-8.362222909927368 -10.310378551483154 6.71368020772934
-8.419811487197876 -10.817269325256348 7.092281252145767
-8.44490933418274 -11.37419843673706 7.4482603669166565
-8.441458463668823 -11.961941242218018 7.784607455134392
-8.414977312088013 -12.564734697341919 8.102756917476654
-8.371415376663208 -13.171448230743408 8.402053892612457
-8.31623101234436 -13.775994181632996 8.679862141609192
-8.2537362575531 -14.376797616481781 8.932499408721924
-8.18696665763855 -14.975653983652592 9.15644359588623
-8.117693662643433 -15.576196730136871 9.3495854139328
-8.046488523483276 -16.182870030403137 9.511933088302612
-7.972735643386841 -16.799765944480896 9.645752906799316
-7.894602060317993 -17.430193662643433 9.75518012046814
-7.809106111526489 -18.07584524154663 9.845742464065552
-7.712444067001343 -18.736343145370483 9.923922061920166
-7.600661993026733 -19.408870220184326 9.996931791305542
-7.470597267150879 -20.08714008331299 10.072610139846802
-7.3211669921875 -20.761643886566162 10.159509658813477
-7.154378414154053 -21.419224739074707 10.266596794128418
-6.975860595703125 -22.04448175430298 10.403007745742798
-6.794514417648315 -22.621020317077637 10.577043056488037
-6.620847940444946 -23.13368034362793 10.795072793960571
-6.464139461517334 -23.570938110351562 11.060731172561646
-6.328908920288086 -23.927382469177246 11.373397827148438
-6.2117719650268555 -24.20522403717041 11.728194236755371
-6.099963903427124 -24.41413688659668 12.115827560424805
-5.972757816314697 -24.56964111328125 12.52341604232788
-5.8056254386901855 -24.68917179107666 12.936182498931885
-5.575314521789551 -24.7885684967041 13.339620590209961
-5.264973282814026 -24.87838077545166 13.720970630645752
-4.867688417434692 -24.96216869354248 14.071423053741455
-4.387254893779755 -25.03633689880371 14.386844158172607
-3.83651240170002 -25.092235565185547 14.667534351348877
-3.234169751405716 -25.11868953704834 14.917620658874512
-2.601019263267517 -25.104475021362305 15.143680572509766
-1.95653235912323 -25.04105567932129 15.353190422058105
-1.316274881362915 -24.924141883850098 15.553135871887207
-0.6906273365020752 -24.755188941955566 15.749944686889648
-0.0848383903503418 -24.54128360748291 15.948667526245117
0.500258207321167 -24.294513702392578 16.153629302978516
1.066835641860962 -24.03023624420166 16.368840217590332
1.6186645030975342 -23.765607833862305 16.598176956176758
2.15989089012146 -23.517271041870117 16.8457612991333
2.6942074298858643 -23.29928493499756 17.115816116333008
3.224529504776001 -23.121551513671875 17.412084579467773
3.7528011798858643 -22.988433361053467 17.736635208129883
4.279738664627075 -22.898530960083008 18.089512825012207
4.804901361465454 -22.84447193145752 18.46787166595459
5.325930833816528 -22.814723014831543 18.866501808166504
5.8375818729400635 -22.796428203582764 19.2788143157959
6.331645250320435 -22.77853012084961 19.698368072509766
6.796687364578247 -22.75390386581421 20.120786666870117
7.219070672988892 -22.721677780151367 20.54487895965576
7.5855467319488525 -22.68702459335327 20.97262477874756
7.8862011432647705 -22.659520626068115 21.40826988220215
8.118711709976196 -22.651817798614502 21.855786323547363
8.289651155471802 -22.67711114883423 22.316669464111328
8.41563630104065 -22.747788429260254 22.78812313079834
8.521072626113892 -22.87477445602417 23.262319564819336
8.635700464248657 -23.067420959472656 23.726516723632812
8.791628122329712 -23.3333158493042 24.164466857910156
9.021230936050415 -23.679137229919434 24.558218002319336
9.356594324111938 -24.1099271774292 24.889007568359375
9.829069375991821 -24.63057804107666 25.137788772583008
10.470000505447388 -25.2455997467041 25.28569984436035
LINES 1 121
120 0 1 2 3 4 5 6 7 8 9 10 11 12 13 14 15 16 17 18 19 20 21 22 23 24 25 26 27 28 29 30 31 32 33 34 35 36 37 38 39 40 41 42 43 44 45 46 47 48 49 50 51 52 53 54 55 56 57 58 59 60 61 62 63 64 65 66 67 68 69 70 71 72 73 74 75 76 77 78 79 80 81 82 83 84 85 86 87 88 89 90 91 92 93 94 95 96 97 98 99 100 101 102 103 104 105 106 107 108 109 110 111 112 113 114 115 116 117 118 119
POINT_DATA 120
SCALARS Curvature float 1
LOOKUP_TABLE default
0.0
0.13580477882362038
0.08701730766601949
0.0549444921195989
0.04005647075676567
0.048042556836861566
0.0731617211025033
0.10995523630769669
0.157590074272694
0.21211334807681004
0.2605340697755446
0.2837487942758325
0.27244934891251393
0.23875640169259463
0.20558247854589884
0.18905932654858787
0.18440483583707434
0.17496724464501495
0.1530258103137142
0.12378700612297841
0.09807113553757482
0.08070800161899869
0.06790539738036352
0.05675956341381751
0.062442833756931486
0.11700156834971852
0.2465855413701566
0.4785434890555488
0.72241820075674
0.783395540003293
0.647799671772978
0.4404531429086814
0.2975541732369719
0.23224847538546045
0.21443386791550959
0.21654623256499786
0.21459723187334628
0.19566199453396826
0.16187707276085597
0.1297357573998052
0.11438314123378249
0.11395748509727788
0.11619552835777167
0.11347025818569359
0.10562504055005392
0.09576548876808372
0.09150041642918676
0.10589722115313338
0.1496174747507146
0.22001333960298128
0.2989625480850385
0.3537286589464461
0.3561239084036806
0.3096618788962131
0.24249285611249133
0.1791229091616224
0.12949176809768354
0.09367424244882203
0.06971234559409124
0.05536365557798156
0.05026078885523348
0.05445520029415285
0.06467023040376371
0.07441416874798797
0.07845541112593361
0.07442863956732843
0.06379890257762434
0.049819060778569686
0.037072995733641805
0.030960435756295306
0.035112899548560984
0.04661275965893872
0.0641130315478686
0.09011112057647501
0.13011300472861137
0.19052244013705105
0.2723121986985717
0.3524049169836873
0.3885885168000371
0.35400719766465416
0.2778678347712232
0.24468918460577127
0.27767833803584824
0.30089246313368495
0.2766627975680982
0.22423775679134025
0.17155213374033132
0.13325870216996905
0.1145246561565045
0.11208103506356547
0.11692812471305646
0.11744472201549082
0.10812223079787359
0.08764269989048218
0.06146615593264502
0.04458177001973959
0.060948145607611644
0.09287154990502865
0.1195997424848734
0.1304420539743836
0.12366128485971788
0.1010141099119377
0.07157935404791371
0.046562520139537225
0.04018494185641016
0.05784764716375918
0.09078788810806417
0.14054183316693503
0.20670747820146274
0.26389512691973316
0.2840363483834247
0.25940316317575984
0.22866072470425144
0.23879831343439029
0.2843720843529671
0.3165826763394743
0.3001605257722596
0.24075785112095585
0.16969256614202707
0.0
SCALARS Torsion float 1
LOOKUP_TABLE default
0.0
0.0
0.3142286382951269
0.5818875028839353
0.8059263926171389
0.6543856052507999
0.38059057286417536
0.24604100989101974
0.19419763256525913
0.17961854851325942
0.1884072830127016
0.22435337486360224
0.29754043330353036
0.41318865303636415
0.5207898077637463
0.5177023512225072
0.37823637944245564
0.1807015627500531
-0.02696776604977752
-0.23539330212720072
-0.38520380233100704
-0.3804515012540739
-0.18040177576656066
0.30738918875911514
0.6768013641042906
0.4486616616830576
0.2080758558917519
0.08700182861001397
0.019232608623646716
-0.030869680839321914
-0.08460037359760807
-0.15254792354775298
-0.22295058225524525
-0.23817714152275768
-0.16097990324402195
-0.03270061787338949
0.09540317258288783
0.23014004526652604
0.4060436171383665
0.5821881420056738
0.61256707194721
0.4710055700542757
0.27492353498260685
0.14209396923574133
0.11043522292136204
0.1898014432240463
0.38013838795478067
0.4558304318520219
0.3374792134490099
0.19395722380186114
0.10600750617176095
0.06670704341249059
0.060088641417631226
0.07599255763978285
0.10439617289142106
0.1376190737659859
0.1645836782630367
0.17374608393481178
0.11248424982800895
-0.052486924188925616
-0.25986779947431504
-0.30126285345005455
-0.21767614517355974
-0.12541354646276223
-0.056721739214918215
0.009618626925144272
0.1022898482615152
0.2700690378987969
0.5299058111433561
0.6957298958209559
0.5875080882717486
0.4100335141127524
0.3088096848715355
0.2664964311693173
0.233047340211604
0.19341260207131333
0.13945828815022088
0.06009303288690977
-0.07528774245732768
-0.34592939029950925
-0.746485179099964
-0.8747773755885628
-0.673279974074107
-0.35168263013701195
-0.12128033467455601
0.056708164330715946
0.21857236596792534
0.37729990882934544
0.4633718514751784
0.42017511010755887
0.3156590547409512
0.24656622928651034
0.2166788662726116
0.2920204991469604
0.5754653134444299
0.891207933532041
0.6718153259592624
0.30257992256816113
0.12903059004097123
0.04943009737522036
-0.009202144627900047
-0.0736207564826392
-0.2372693701645328
-0.6245275295855712
-0.7758812957460549
-0.37621479709995914
0.055535719684586204
0.2254369894043974
0.26318372223349845
0.30866585731878815
0.3844054499912623
0.564073798393036
0.7371047314749882
0.7097472203100346
0.494260482513889
0.2896655857853485
0.1782389431242267
0.10865723185917545
0.07425848553514892
0.0
SCALARS Distance_to_V float 1
LOOKUP_TABLE default
0.0
0.5772929361008835
1.1832460307652708
1.8140079177722326
2.4643626530473783
3.1278717041082986
3.7968748799684096
4.462555226064741
5.115206235957569
5.745006883318563
6.343412478344332
6.904735547660521
7.427630110462719
7.915666156505892
8.376442227615536
8.819783503560673
9.255343231033892
9.690706599503882
10.130606796611024
10.577200408163524
11.030993375948462
11.491636742288266
11.958081008280635
12.427733478652144
12.89488788002788
13.34912972151751
13.774792171097026
14.152109531358308
14.460312404794324
14.681750963608634
14.805640416663458
14.82974139402503
14.759258091798035
14.604278351177062
14.37619432442731
14.085722223757932
13.742585388411587
13.356880110733593
12.94049561255093
12.507899144082238
12.075475444550747
11.660370995789652
11.279230312196901
10.946690430471934
10.674496723712199
10.471108341508517
10.341217421100108
10.285917964467968
10.302743864604684
10.385914491059118
10.526859518713373
10.714816751637912
10.937575603756333
11.18241782635293
11.437178141765685
11.691363863029833
11.937074171064582
12.169487841814783
12.386617058510508
12.588989540765876
12.778860020295273
12.959652073474652
13.135411961368545
13.310472987767284
13.48897428941535
13.67450063303146
13.869522621501787
14.075059227284976
14.290229180506733
14.512172680521434
14.736273241166955
14.95622169421956
15.164906456713268
15.354779731128485
15.518869849097749
15.651420174773584
15.748406628020787
15.807503637548773
15.827795697700136
15.808572431639838
15.747866461441463
15.641640659838973
15.483614792454654
15.26654255232201
14.984371030262405
14.634525030924275
14.218942416123824
13.743993858299733
13.218952027586786
12.653914516323324
12.058438387621342
11.440592422975065
10.8070969890293
10.163957825942518
9.516900622823389
8.871567442228354
8.233746946102139
7.608798699116095
7.001021805787558
6.413062868301919
5.8455299842984445
5.2971041984071245
4.7645613063861
4.244204198742784
3.733904357588721
3.234495047020771
2.7506037171092492
2.2912532880263914
1.8691253419735743
1.501057798677982
1.2108208900906503
1.0300604438147707
0.9782029371853291
1.0270375572075598
1.1082530232910723
1.1532731026760457
1.107442327279669
0.9260103498418946
0.5693493466298106
0.0
SCALARS Local_Extrema int 1
LOOKUP_TABLE default
0
0
0
0
0
0
0
0
0
0
0
0
0
0
0
0
0
0
0
0
0
0
0
0
0
0
0
0
0
0
0
1
0
0
0
0
0
0
0
0
0
0
0
0
0
0
0
-1
0
0
0
0
0
0
0
0
0
0
0
0
0
0
0
0
0
0
0
0
0
0
0
0
0
0
0
0
0
0
1
0
0
0
0
0
0
0
0
0
0
0
0
0
0
0
0
0
0
0
0
0
0
0
0
0
0
0
0
0
0
0
0
0
-1
0
0
1
0
0
0
0
