# vtk DataFile Version 3.0
Curve with Curvature, Torsion, Distance to V, and Extrema
ASCII
DATASET POLYDATA
POINTS 120 float
0.0 0.0 0.0
-0.3976992964744568 -0.5547065734863281 -0.41094231605529785
-0.7623594403266907 -1.1551876068115234 -0.7013368606567383
-1.1123667359352112 -1.782278060913086 -0.8901814222335815
-1.4657257199287415 -2.416945457458496 -0.9968949556350708
-1.8391790986061096 -3.0406417846679688 -1.0420573949813843
-2.2467451691627502 -3.6359481811523438 -1.048298954963684
-2.69783216714859 -4.187560081481934 -1.040763020515442
-3.1957200169563293 -4.68327522277832 -1.0464154481887817
-3.7370081543922424 -5.114911079406738 -1.0920969247817993
-4.311997473239899 -5.478981018066406 -1.201605200767517
-4.90622478723526 -5.777191162109375 -1.393027901649475
-5.502403795719147 -6.016477584838867 -1.67674720287323
-6.082800447940826 -6.208494186401367 -2.05468213558197
-6.631319582462311 -6.368447303771973 -2.5205427408218384
-7.135002672672272 -6.513306617736816 -3.0611809492111206
-7.584466993808746 -6.659939765930176 -3.6587823629379272
-7.973545134067535 -6.823225021362305 -4.293599009513855
-8.298329412937164 -7.014612197875977 -4.946704268455505
-8.55624109506607 -7.241092681884766 -5.602246642112732
-8.745392858982086 -7.504842758178711 -6.24887216091156
-8.864343702793121 -7.803377151489258 -6.880179286003113
-8.911846220493317 -8.130544662475586 -7.4941757917404175
-8.886946737766266 -8.478239059448242 -8.091955065727234
-8.788840353488922 -8.838632583618164 -8.675901293754578
-8.617050230503082 -9.206159591674805 -9.247934222221375
-8.371753752231598 -9.57847785949707 -9.80815303325653
-8.054184019565582 -9.95621633529663 -10.354100108146667
-7.667166769504547 -10.341652870178223 -10.880432963371277
-7.215888559818268 -10.736842155456543 -11.378447413444519
-6.708495676517487 -11.142730236053467 -11.835649371147156
-6.156830847263336 -11.557697296142578 -12.235413432121277
-5.576870501041412 -11.976869583129883 -12.558013796806335
-4.988584578037262 -12.392378807067871 -12.781905055046082
-4.414879381656647 -12.792830467224121 -12.886767268180847
-3.879803717136383 -13.16407060623169 -12.857090830802917
-3.405863344669342 -13.491068363189697 -12.684848666191101
-3.011282503604889 -13.760077953338623 -12.372201800346375
-2.7075780034065247 -13.961509704589844 -11.930903315544128
-2.49875408411026 -14.092214822769165 -11.381528735160828
-2.3815956711769104 -14.157026767730713 -10.749918818473816
-2.347565710544586 -14.167548179626465 -10.064197421073914
-2.385102331638336 -14.140486240386963 -9.350690722465515
-2.4818108677864075 -14.094681024551392 -8.631782412528992
-2.6261752247810364 -14.04935908317566 -7.9243611097335815
-2.808855354785919 -14.022748470306396 -7.239775538444519
-3.0237515568733215 -14.031360149383545 -6.584664702415466
-3.2684603333473206 -14.088457822799683 -5.962370753288269
-3.543802797794342 -14.203663349151611 -5.3743656873703
-3.851943075656891 -14.381454706192017 -4.821071982383728
-4.193650782108307 -14.621600151062012 -4.302077651023865
-4.565690100193024 -14.920279502868652 -3.815651774406433
-4.959522783756256 -15.271605014801025 -3.358259081840515
-5.361934244632721 -15.668894290924072 -2.9242743253707886
-5.757300436496735 -16.105395793914795 -2.50646436214447
-6.130570948123932 -16.5751953125 -2.096746563911438
-6.4698286652565 -17.072914719581604 -1.6874185800552368
-6.767418920993805 -17.59421619772911 -1.2721668481826782
-7.019337713718414 -18.13516114652157 -0.8467463254928589
-7.223468840122223 -18.692628383636475 -0.40942060947418213
-7.377348959445953 -19.26366353034973 0.03895831108093262
-7.476944983005524 -19.845592260360718 0.49492013454437256
-7.516207754611969 -20.435175895690918 0.9527966380119324
-7.487833082675934 -21.027688026428223 1.405508041381836
-7.384524405002594 -21.616346836090088 1.845668613910675
-7.20041424036026 -22.192051887512207 2.266467809677124
-6.932198584079742 -22.743754863739014 2.6623111963272095
-6.579719126224518 -23.259785652160645 3.028930425643921
-6.146166384220123 -23.729762077331543 3.363472104072571
-5.637726843357086 -24.1460599899292 3.664483904838562
-5.063133776187897 -24.50496816635132 3.9322065114974976
-4.432870924472809 -24.807233810424805 4.168753504753113
-3.7584038376808167 -25.05709934234619 4.378103137016296
-3.051237165927887 -25.260881900787354 4.565613627433777
-2.3221285939216614 -25.424909591674805 4.736911416053772
-1.580318033695221 -25.553194999694824 4.896767497062683
-0.83317631483078 -25.646151542663574 5.047942280769348
-0.08620327711105347 -25.70030164718628 5.190772175788879
0.6566955549642444 -25.70947265625 5.323477864265442
1.3926919102668762 -25.66671895980835 5.443358540534973
2.119476020336151 -25.567049980163574 5.548608422279358
2.8347153067588806 -25.410411834716797 5.640371918678284
3.5357622504234314 -25.20299196243286 5.7243629693984985
4.219554841518402 -24.958112239837646 5.811402916908264
4.882795751094818 -24.694190502166748 5.916362881660461
5.522407948970795 -24.43152093887329 6.055651783943176
6.136175572872162 -24.188720226287842 6.243867516517639
6.723634660243988 -23.97853183746338 6.490725636482239
7.286655843257904 -23.805421829223633 6.79919970035553
7.830019891262054 -23.66519784927368 7.165174603462219
8.361210286617279 -23.54680633544922 7.578515648841858
8.889568269252777 -23.436813831329346 8.024977803230286
9.424696862697601 -23.32408571243286 8.488431096076965
9.974871575832367 -23.204681873321533 8.952875256538391
10.54545396566391 -23.084338665008545 9.404156804084778
11.137991845607758 -22.97795343399048 9.831189274787903
11.74947065114975 -22.907222270965576 10.226497769355774
12.373095452785492 -22.896437168121338 10.58672821521759
12.998389184474945 -22.968022346496582 10.91208279132843
13.613048493862152 -23.138360023498535 11.20578682422638
14.203267991542816 -23.415647506713867 11.473161816596985
14.755663812160492 -23.799466609954834 11.720446705818176
15.257740914821625 -24.281291007995605 11.95394241809845
15.698230683803558 -24.846868991851807 12.178669095039368
16.067640244960785 -25.478256702423096 12.398347020149231
16.357799470424652 -26.155760765075684 12.61457645893097
16.561654031276703 -26.860431671142578 12.827588200569153
16.67271989583969 -27.575486183166504 13.036213040351868
16.686469972133636 -28.287580490112305 13.238507390022278
16.60159868001938 -28.98724937438965 13.432999730110168
16.42231649160385 -29.669652938842773 13.618972897529602
16.160561501979828 -30.333234786987305 13.797744870185852
15.83713811635971 -30.979612350463867 13.972560048103333
15.481573045253754 -31.61209011077881 14.149213910102844
15.130997598171234 -32.235413551330566 14.33584988117218
14.828038156032562 -32.854379653930664 14.542357563972473
14.619172990322113 -33.474138259887695 14.779923558235168
14.55258458852768 -34.099714279174805 15.060304760932922
14.677159249782562 -34.73586654663086 15.395822644233704
15.041799485683441 -35.38750076293945 15.798700451850891
LINES 1 121
120 0 1 2 3 4 5 6 7 8 9 10 11 12 13 14 15 16 17 18 19 20 21 22 23 24 25 26 27 28 29 30 31 32 33 34 35 36 37 38 39 40 41 42 43 44 45 46 47 48 49 50 51 52 53 54 55 56 57 58 59 60 61 62 63 64 65 66 67 68 69 70 71 72 73 74 75 76 77 78 79 80 81 82 83 84 85 86 87 88 89 90 91 92 93 94 95 96 97 98 99 100 101 102 103 104 105 106 107 108 109 110 111 112 113 114 115 116 117 118 119
POINT_DATA 120
SCALARS Curvature float 1
LOOKUP_TABLE default
0.0
0.22222469214981122
0.18902381341999294
0.15179257109852876
0.12304182133813844
0.11259288530635538
0.12322184799746835
0.14844924188797587
0.17891992353758732
0.20505672172206604
0.21850187473233104
0.21532209541225855
0.19829472472908044
0.1742633712382328
0.15054427559364936
0.1328102078291757
0.12458308112639492
0.1265598787277263
0.13583814556158988
0.14742996762054086
0.15633024341139443
0.16026370892170733
0.15937960895751474
0.15562391616088575
0.14934486128142296
0.14009108018939576
0.12865949271659713
0.11739337450561374
0.10928392736166233
0.10716860123753864
0.11389370559437756
0.13206768658020862
0.16712150707817428
0.22530865000449316
0.3108135639101278
0.41199591662488055
0.48215725906433593
0.47509538281025016
0.396694337580765
0.2964863900052526
0.2127509569799118
0.15309774999509898
0.11424480225945609
0.09334104638391029
0.09247587451429143
0.11162879814381153
0.14085044189429924
0.16789583798088006
0.17982414169837166
0.17311359353037573
0.15184889824096606
0.1240549263306105
0.09752814266981953
0.07980456960894103
0.0763501722315413
0.08258874887937673
0.09010717741437824
0.09380394769326411
0.09454912182446297
0.09554552359682628
0.0995368153670898
0.10822260108730669
0.12129601768014188
0.1372136845222947
0.15379554875131846
0.16899967173825425
0.1809653497479724
0.18697620172908788
0.18493475212069094
0.17341458175134936
0.15322976334691732
0.1280760187202232
0.10234144186739787
0.08048787465648807
0.06646839019068486
0.0622540595826911
0.06774340269632265
0.0803194467281131
0.09579294894302237
0.10770144848562971
0.10913861000375484
0.09810082421599425
0.07689524490926565
0.06125240950430095
0.07794755430615916
0.11907857733692068
0.15666836955752836
0.1700744526565525
0.15157174337237922
0.10939153638274857
0.05983775426618653
0.016370070696328835
0.018887364488182127
0.0422521955622069
0.0651270684906513
0.09523904736733789
0.1342342197620909
0.17594550288965996
0.20830065903551967
0.22215117335928058
0.21632059651963514
0.19791354747811019
0.17784256921765498
0.16176337139399316
0.15342490341693713
0.15391836280630464
0.16309486491840175
0.1757536915333031
0.18432800716071857
0.1788043651739237
0.15450304364029654
0.11380848027734418
0.062397011381237884
0.02249772994777388
0.09346535260065211
0.1989635003408045
0.3030453514058364
0.33819336684132606
0.2733979901422088
0.0
SCALARS Torsion float 1
LOOKUP_TABLE default
0.0
0.0
0.24577995576323242
0.38816711133321097
0.5523945180768496
0.6255459791915231
0.5575088322503325
0.4418068144499397
0.3518800710984483
0.2925278589588073
0.25733095619068724
0.2421600164644865
0.24485603958249041
0.2643542703684137
0.2965021850702462
0.331209656014127
0.3375173255462066
0.29229702875392477
0.20462041231293565
0.10365680987346758
0.005350298859560065
-0.08118244172382381
-0.13941671479940626
-0.1508583514619337
-0.11079842815270469
-0.039016862271866126
0.03789966408543389
0.09799201597408919
0.13163453467733613
0.14846852218740175
0.13774874620141858
0.1113884153430024
0.08607426113291379
0.0533571888665971
0.026070595383801756
0.006044901275479131
-0.00911578021215206
-0.015289827379870585
-0.008551981161247894
0.019132077236062025
0.06790272679632524
0.16215143844730215
0.3031490081339171
0.4697785128175865
0.5118835416585573
0.3842613301443953
0.21211773379710425
0.09055705777072195
0.01313730264979665
-0.01217389943495896
0.01833738764476707
0.11746428906254341
0.29626393724815
0.48270023468821593
0.5083527510935358
0.3858908292300748
0.25014713339496847
0.16188153695081725
0.08707542500241212
0.029182049337050375
-0.024982121434793014
-0.04814537307661436
-0.04117601690677036
-0.017159394362554634
0.011010815615675587
0.03633508923440745
0.04988024474640464
0.0516469560043041
0.04615990330600511
0.0392767318551109
0.03326384656398587
0.03932628081283955
0.06032712750617185
0.09759076981836641
0.14164669020898746
0.13055742640816342
0.06553305654074439
0.005553099514083719
-0.01561934446527189
-0.005639199649636372
0.03417981906724088
0.13532701555561605
0.3935455781526963
0.7515432095166279
0.6425726208975018
0.3392032399327925
0.16528779116218445
0.07067530287400259
-0.0013597786592227518
-0.09839920300151854
-0.2850374150288307
-0.961310439357774
-0.4957090085147784
-0.26989482560255595
-0.3236862793760369
-0.3085009975632825
-0.2520559575667124
-0.20190244155541492
-0.16503991039094165
-0.14935337419839542
-0.13855990140686195
-0.13788804352890965
-0.1318112631944429
-0.12633981459659366
-0.10663660121916288
-0.08512635605458153
-0.05503174050741001
-0.027825721143691466
-0.01670020456746661
-0.00669094592528361
-0.022832334219033648
-0.06204147780928734
-0.33605640983219043
-0.9990622759930761
-0.28743736630732697
-0.08219775580889796
-0.03593841968841086
-0.017689432930234082
-0.011999330392452927
0.0
SCALARS Distance_to_V float 1
LOOKUP_TABLE default
0.0
0.7778894536835589
1.4876368951416272
2.145584838335974
2.7686354479215685
3.373817893221833
3.977220278341925
4.592160479204492
5.227120801066046
5.884576525748174
6.5611805417761
7.249727738947842
7.94159953638979
8.629187877379227
9.307268618835199
9.97317949386085
10.625954972689467
11.265031615739339
11.889144887765234
12.49584505204277
13.081728120227963
13.64305486852514
14.176372710446687
14.679241327920726
15.150609628539334
15.591054925521378
16.00255110321973
16.387787414329114
16.749069061811735
17.08677259374457
17.39809716173396
17.675567344603188
17.906902238201607
18.07567559806304
18.163156288298072
18.151695800780935
18.02819692463711
17.78794302795233
17.435963114807407
16.987872695045738
16.467717700477255
15.90489691693418
15.329871880083575
14.770862578886305
14.251737422767848
13.791496851773486
13.405030135139475
13.103889895232383
12.897272182982693
12.791082352421888
12.786723201138328
12.87947990712813
13.057802982408711
13.304052115478488
13.596920268723931
13.914944246388186
14.239420707439196
14.556418429221717
14.856466922217601
15.133508728244166
15.38258628316929
15.59859697880912
15.77508292424806
15.904010944174287
15.976261171791224
15.982631985384383
15.915037212513989
15.767790525931193
15.538751688002867
15.229733073152504
14.846537772528354
14.398405626522917
13.89678376760734
13.35383441896737
12.780949631982088
12.187217129971248
11.578849289766529
10.959272008980896
10.330017640285442
9.691882073820842
9.046202498448526
8.395954420521578
7.745660179764639
7.101030712220779
6.4673754039169
5.848019413415466
5.243484250836793
4.651044725945361
4.065717255257941
3.4820837822304895
2.8972974608236073
2.3167297349121663
1.7658225940042753
1.3218317720189012
1.1597003463190352
1.3967253616394606
1.8762275935496662
2.4309348287921186
2.9805013111997796
3.4856693154656595
3.9238637898665414
4.281978069991659
4.552978651756894
4.7336026437395144
4.82339210620258
4.823270667637458
4.7344262100616845
4.557382763161183
4.2929554469881435
3.943378204115379
3.5142446912117236
3.017096633582969
2.4705939070850502
1.9009821427043874
1.3413588963534246
0.8309279281518779
0.416518776556086
0.16857512025109225
0.12125427511870239
0.0
SCALARS Local_Extrema int 1
LOOKUP_TABLE default
0
0
0
0
0
0
0
0
0
0
0
0
0
0
0
0
0
0
0
0
0
0
0
0
0
0
0
0
0
0
0
0
0
0
1
0
0
0
0
0
0
0
0
0
0
0
0
0
0
0
-1
0
0
0
0
0
0
0
0
0
0
0
0
0
0
1
0
0
0
0
0
0
0
0
0
0
0
0
0
0
0
0
0
0
0
0
0
0
0
0
0
0
0
0
-1
0
0
0
0
0
0
0
0
0
1
0
0
0
0
0
0
0
0
0
0
0
0
0
0
0
