# vtk DataFile Version 3.0
Curve with Curvature, Torsion, Distance to V, and Extrema
ASCII
DATASET POLYDATA
POINTS 120 float
0.0 0.0 0.0
-0.16402125358581543 -0.6303091049194336 -0.3099699020385742
-0.39412665367126465 -1.204146385192871 -0.40998363494873047
-0.6782982349395752 -1.7317285537719727 -0.3366060256958008
-1.0042946338653564 -2.223255157470703 -0.12676429748535156
-1.3592698574066162 -2.6887903213500977 0.18175411224365234
-1.7292025089263916 -3.1378679275512695 0.5498952865600586
-2.098381280899048 -3.5788612365722656 0.9375715255737305
-2.4493062496185303 -4.018004417419434 1.3048858642578125
-2.763166666030884 -4.458627700805664 1.614328384399414
-3.0212128162384033 -4.900862693786621 1.8336849212646484
-3.2067511081695557 -5.342058181762695 1.9391050338745117
-3.30751633644104 -5.778087615966797 1.9178400039672852
-3.3175547122955322 -6.205223083496094 1.7693214416503906
-3.23818039894104 -6.622110366821289 1.5050888061523438
-3.0779340267181396 -7.031318664550781 1.1469316482543945
-2.8512632846832275 -7.43952751159668 0.7237052917480469
-2.576902151107788 -7.856302261352539 0.26776599884033203
-2.2762091159820557 -8.291476726531982 -0.18840980529785156
-1.9715983867645264 -8.752090454101562 -0.6147670745849609
-1.685382604598999 -9.239706993103027 -0.9851760864257812
-1.4387691020965576 -9.748955249786377 -1.2781400680541992
-1.250828504562378 -10.267831325531006 -1.4770469665527344
-1.1373822689056396 -10.779148578643799 -1.5707025527954102
-1.1096951961517334 -11.2633695602417 -1.5542488098144531
-1.1733548641204834 -11.700724124908447 -1.4299821853637695
-1.3272688388824463 -12.074750185012817 -1.2076244354248047
-1.5631763935089111 -12.373281955718994 -0.9031534194946289
-1.865722894668579 -12.589905977249146 -0.5363664627075195
-2.2134673595428467 -12.723442316055298 -0.12784481048583984
-2.580956220626831 -12.777558326721191 0.30381011962890625
-2.9419901371002197 -12.758591651916504 0.7438411712646484
-3.2733800411224365 -12.673496961593628 1.182246208190918
-3.5585391521453857 -12.5283682346344 1.613821029663086
-3.7895185947418213 -12.327800035476685 2.037468910217285
-3.967108964920044 -12.07621431350708 2.4555368423461914
-4.098761796951294 -11.78068208694458 2.8729257583618164
-4.195084810256958 -11.453179836273193 3.296147346496582
-4.266320466995239 -11.11180591583252 3.7320151329040527
-4.3199474811553955 -10.780883312225342 4.185943126678467
-4.359624147415161 -10.487959861755371 4.660282611846924
-4.385096788406372 -10.259921550750732 5.152989864349365
-4.39247727394104 -10.119300365447998 5.657242774963379
-4.374928712844849 -10.081022262573242 6.162107467651367
-4.323641061782837 -10.151695728302002 6.654297828674316
-4.229603052139282 -10.328728199005127 7.120414733886719
-4.086217164993286 -10.602337837219238 7.549643039703369
-3.89178204536438 -10.957434177398682 7.935815334320068
-3.651069402694702 -11.376697540283203 8.278413534164429
-3.3751728534698486 -11.842478036880493 8.582210302352905
-3.0795228481292725 -12.339460611343384 8.855592489242554
-2.780771017074585 -12.855372667312622 9.108216047286987
-2.493631601333618 -13.382286548614502 9.34870719909668
-2.228515386581421 -13.915870428085327 9.583109498023987
-1.9905707836151123 -14.455310702323914 9.814295530319214
-1.7801635265350342 -15.002258956432343 10.042315244674683
-1.5944554805755615 -15.560110077261925 10.265733242034912
-1.4291164875030518 -16.132602363824844 10.483059883117676
-1.2797515392303467 -16.722885608673096 10.69359701871872
-1.1425888538360596 -17.33184242248535 10.898415267467499
-1.0141394138336182 -17.957221269607544 11.099803447723389
-0.8902504444122314 -18.59228491783142 11.300957202911377
-0.7648422718048096 -19.225359439849854 11.505108430981636
-0.628960371017456 -19.84035873413086 11.714140743017197
-0.47064805030822754 -20.41746473312378 11.928711116313934
-0.2758324146270752 -20.936071395874023 12.147957980632782
-0.03036355972290039 -21.377604484558105 12.369850039482117
0.2773141860961914 -21.728764533996582 12.592227458953857
0.6534481048583984 -21.985207557678223 12.813660025596619
1.0973224639892578 -22.15238094329834 13.034370303153992
1.6010913848876953 -22.24464511871338 13.25671374797821
2.1510640382766724 -22.283172607421875 13.484835147857666
2.7304015159606934 -22.29138946533203 13.72394847869873
3.3221136927604675 -22.290297031402588 13.979476928710938
3.911933763884008 -22.295138835906982 14.255743026733398
4.490113258361816 -22.31363868713379 14.554654121398926
5.052227020263672 -22.345513343811035 14.875395059585571
5.598845362663269 -22.384377479553223 15.214008808135986
6.134172201156616 -22.420207500457764 15.564209461212158
6.664219856262207 -22.441975593566895 15.917819499969482
7.194940567016602 -22.439303874969482 16.2667875289917
7.730509519577026 -22.40386962890625 16.603866577148438
8.272233247756958 -22.329638957977295 16.924295902252197
8.818122625350952 -22.21255111694336 17.226665496826172
9.363281011581421 -22.051366806030273 17.512885093688965
9.900867700576782 -21.847274780273438 17.788735389709473
10.423507452011108 -21.604212284088135 18.06203842163086
10.925144910812378 -21.32898473739624 18.34217882156372
11.402328252792358 -21.031041622161865 18.63731622695923
11.855950593948364 -20.721487522125244 18.95354986190796
12.290937185287476 -20.412728786468506 19.2928466796875
12.717010259628296 -20.11682367324829 19.65297031402588
13.146405935287476 -19.84519386291504 20.02736759185791
13.592345952987671 -19.607367753982544 20.406795501708984
14.066379308700562 -19.411121606826782 20.781326293945312
14.57546877861023 -19.26223587989807 21.142250061035156
15.120108366012573 -19.16503667831421 21.48397159576416
15.692493200302124 -19.123307943344116 21.805448532104492
16.27715277671814 -19.140488386154175 22.10981559753418
16.8515202999115 -19.219684839248657 22.403658866882324
17.38871932029724 -19.363088846206665 22.69520664215088
17.86074709892273 -19.570944786071777 22.992475509643555
18.242321729660034 -19.840713024139404 23.301721572875977
18.513932943344116 -20.16684341430664 23.62633228302002
18.665191411972046 -20.540812492370605 23.96721839904785
18.69558882713318 -20.95143747329712 24.323163986206055
18.61461615562439 -21.385979175567627 24.69213104248047
18.439451932907104 -21.830647468566895 25.07294464111328
18.192049741744995 -22.271419048309326 25.4655179977417
17.89525580406189 -22.69529628753662 25.870908737182617
17.570330381393433 -23.092395782470703 26.290313720703125
17.23498511314392 -23.457412242889404 26.723278045654297
16.90316081047058 -23.791178703308105 27.16658592224121
16.586066961288452 -24.101526260375977 27.613174438476562
16.293619871139526 -24.40325164794922 28.05219841003418
16.036035299301147 -24.71676540374756 28.469512939453125
15.823939085006714 -25.066627502441406 28.849109649658203
15.669021368026733 -25.479552268981934 29.173664093017578
15.582995176315308 -25.983561515808105 29.42544174194336
15.577899694442749 -26.60650062561035 29.586599349975586
LINES 1 121
120 0 1 2 3 4 5 6 7 8 9 10 11 12 13 14 15 16 17 18 19 20 21 22 23 24 25 26 27 28 29 30 31 32 33 34 35 36 37 38 39 40 41 42 43 44 45 46 47 48 49 50 51 52 53 54 55 56 57 58 59 60 61 62 63 64 65 66 67 68 69 70 71 72 73 74 75 76 77 78 79 80 81 82 83 84 85 86 87 88 89 90 91 92 93 94 95 96 97 98 99 100 101 102 103 104 105 106 107 108 109 110 111 112 113 114 115 116 117 118 119
POINT_DATA 120
SCALARS Curvature float 1
LOOKUP_TABLE default
0.0
0.5065516450299276
0.47301378199413263
0.3470302959197433
0.2176328876319874
0.11872816296809399
0.042506002567718915
0.03657090164882365
0.12994377976138555
0.27426205941712806
0.47566454779164336
0.637812201341639
0.6348844065183508
0.4793251197856055
0.29494774250894157
0.1611026469459422
0.07681375324843544
0.04603259406417625
0.08075100254210096
0.13476720118049362
0.2018247098377073
0.2906126689955683
0.4068938019377759
0.5311124040688234
0.6082946549377051
0.5927411403710374
0.5017621493980012
0.3907576108806417
0.3031523639675775
0.24745445614537956
0.2233649313118014
0.2285351463884881
0.2535516317396919
0.27606519624941916
0.2678789715317752
0.21979680454195014
0.14999969407540648
0.08778216777124469
0.08290889321868504
0.14367156102080753
0.2261810091751542
0.31416071240677707
0.3882076311631558
0.4288995686664905
0.42125928705775717
0.37293134538067546
0.3019915729033669
0.22794462745666244
0.1608904340534063
0.10540568363212038
0.06427239401021592
0.047973386000009215
0.056261014092394736
0.06781698812118209
0.07185272404549103
0.06909548748302263
0.062431540803036305
0.05435859091835491
0.0440468636435276
0.03136139911729578
0.015063906310909661
0.008394384402339819
0.038612916991299866
0.08703885239004094
0.16251900835750321
0.2692495207358996
0.38011841194143603
0.42676494082581273
0.37640309621895934
0.2693450217595333
0.16111492228334076
0.07807572268670436
0.03311692127718835
0.04815877175385653
0.06803485317522949
0.07162291853420924
0.05882814845476077
0.03927983913120576
0.03716116140358967
0.061427899397335464
0.08736773016482363
0.10576983766642516
0.1150922883998182
0.11514245963207045
0.10944627786603499
0.10233455740482514
0.09583624061100597
0.09039994371563408
0.08367569085098346
0.07405159156424447
0.06522047004026849
0.07106273124721392
0.09465715343896734
0.12364657643525043
0.1442101756652817
0.15137688877786468
0.14763613414465387
0.14254067470718038
0.14900126711188547
0.18056528641898162
0.24330157345881562
0.3291522506914952
0.408696897770578
0.4354554819310917
0.39408247862049445
0.31106759894123914
0.2259525935749963
0.15907494390521398
0.11557238281128725
0.09253772418390585
0.08333530265689106
0.07468233390166318
0.056328382919020516
0.044643300804081444
0.10266499026440432
0.20995321970489397
0.325738528267939
0.38008895807708637
0.3324871935259668
0.0
SCALARS Torsion float 1
LOOKUP_TABLE default
0.0
0.0
-0.006210895733610858
-0.0107403839351616
-0.023669893324193537
-0.07772753466704857
-0.604810483784475
-0.8319163550554164
-0.11879170896748115
-0.022599648349430568
0.011638140322806016
0.03346898791467624
0.05283878181437487
0.0827751055129434
0.1398582546023402
0.28690665812594596
0.7150912522883641
0.9622922354934953
0.5322080151634212
0.22962041531398464
0.13560077920827074
0.09816606926115368
0.07974618771573112
0.06995005840274547
0.06540484536286884
0.06346163290860833
0.052760126251580074
0.02076703074016728
-0.04752994253887147
-0.15557216239911767
-0.26831077173936857
-0.3125680220447477
-0.2611406375253006
-0.163865945914828
-0.08717190993735807
-0.0844371663348777
-0.26133083606065893
-0.8062924250482306
-0.8986166851850607
-0.43645554541105047
-0.13703269521100742
-0.007726207142766367
0.06888462103791697
0.12398881300842422
0.16656730268880238
0.17760013547810666
0.16271950540926855
0.11203755754002502
0.024735876842337245
-0.17995918376328723
-0.5996230899141834
-0.8436130731363722
-0.5872748459233978
-0.2198005051617764
0.022411157933418552
0.1759306137454347
0.24129977868374528
0.23148136358235538
0.11713022300052427
-0.01394837107636411
-0.4397700002397627
-0.9219657839982508
-0.15107341543855357
-0.08924430508156245
-0.07850942214243391
-0.06764101762835596
-0.052003573072126025
-0.03947455089180667
-0.018001534406102974
0.023516376904172822
0.12096081012740661
0.4942996614299886
0.98980713876032
0.7098546311438764
0.21372198730222125
-0.037498798292234015
-0.30262327297432173
-0.7942551010236417
-0.8874735505754956
-0.4716846134777099
-0.21224030350176276
-0.06755817449851026
0.048878693518804806
0.1466288046514259
0.2797886326932024
0.3768688886794475
0.46629730779656864
0.4926615217283412
0.5288591371517742
0.6115312824663613
0.7397284887665385
0.7169610579992098
0.5093787066419451
0.30468285350541646
0.1665195565378649
0.049318695001541624
-0.09783044603272256
-0.25230381326939305
-0.37968539568951576
-0.3808828380386277
-0.3003795830393775
-0.21370752323248415
-0.14802365689835414
-0.11053587386286458
-0.09456734847490565
-0.10181310056175538
-0.15960024395140374
-0.27610954286540945
-0.4439857311454265
-0.5513158641893924
-0.5201079737806104
-0.48370117475248076
-0.6908810082159713
-0.95998567867739
-0.5589347920849751
-0.22827455598492774
-0.11033101841977802
-0.06679470438053771
-0.04129175796652697
0.0
SCALARS Distance_to_V float 1
LOOKUP_TABLE default
0.0
0.7115749251611323
1.2921187037636066
1.7929773659817616
2.2587306795850446
2.72186515105001
3.1991616601725266
3.691552595091147
4.187371553455459
4.667779174795273
5.11290716026712
5.507477148571248
5.8452399157687625
6.131266791769187
6.381558319899275
6.620068442107909
6.873158959193768
7.163313182456172
7.503653140907639
7.894972263378737
8.326004189616617
8.776313587273727
9.2207135786216
9.633916265096456
9.995132548972995
10.29076641183472
10.516666719020234
10.676606464910352
10.7797611090719
10.83632107676936
10.85418132028472
10.836408312886473
10.781187887180392
10.684080986577092
10.541217238855195
10.352765726171393
10.125512452200677
9.873097383883572
9.614544626852345
9.371853038810695
9.165694037884379
9.011035543116208
8.913721403139322
8.869084416903279
8.863880932404777
8.87989710306847
8.899715811013428
8.911224485443487
8.91045185291757
8.901154945535936
8.892663169761311
8.89607362570109
8.92148931045626
8.975770040105937
9.062352349021271
9.181854868375536
9.33348748393416
9.515806718373229
9.727241916914949
9.965337288914704
10.225745807658548
10.500464405449497
10.776588151576556
11.036226072905883
11.256990099630428
11.414820992802152
11.48742901611923
11.458226749619048
11.320549402308698
11.07911628172771
10.749299993088494
10.354693237747453
9.922064056872149
9.476048616782002
9.035138165007455
8.609751562003613
8.201781286850611
7.806812356669186
7.416938543192712
7.0240097106774
6.621348297665741
6.2055753776704
5.776604897438204
5.336986823639737
4.891987537355662
4.447977812394574
4.012612084574192
3.5946132548140706
3.2059143850255087
2.8634959621644196
2.593026803352075
2.4279812130349723
2.4007185732607605
2.524717042888699
2.785711571526892
3.1513269536522914
3.5859334196146246
4.0562205083074
4.531577019748202
4.981673180581311
5.376530036692787
5.687978229729933
5.892487478588947
5.973605786700511
5.9247022756675225
5.749414979593739
5.46113490478459
5.080376406529132
4.631782466481191
4.140249066550485
3.6285689386627595
3.116237221553683
2.619790793923384
2.1539322850029308
1.731343523063733
1.3599511570098666
1.0353543980253213
0.7334675325053114
0.4079773722367158
0.0
SCALARS Local_Extrema int 1
LOOKUP_TABLE default
0
0
0
0
0
0
0
0
0
0
0
0
0
0
0
0
0
0
0
0
0
0
0
0
0
0
0
0
0
0
1
0
0
0
0
0
0
0
0
0
0
0
0
0
-1
0
0
1
0
0
-1
0
0
0
0
0
0
0
0
0
0
0
0
0
0
0
1
0
0
0
0
0
0
0
0
0
0
0
0
0
0
0
0
0
0
0
0
0
0
0
0
0
-1
0
0
0
0
0
0
0
0
0
0
1
0
0
0
0
0
0
0
0
0
0
0
0
0
0
0
0
