# vtk DataFile Version 3.0
Curve with Curvature, Torsion, Distance to V, and Extrema
ASCII
DATASET POLYDATA
POINTS 120 float
0.0 0.0 0.0
-0.31972676515579224 -0.5371589660644531 -0.37981653213500977
-0.7263168329373002 -1.0546150207519531 -0.5608096122741699
-1.197858065366745 -1.5503902435302734 -0.5764727592468262
-1.7127915024757385 -2.022249221801758 -0.4607372283935547
-2.25057452917099 -2.4674949645996094 -0.24875497817993164
-2.792493760585785 -2.8827476501464844 0.02208852767944336
-3.322638690471649 -3.2642154693603516 0.3115978240966797
-3.8282713294029236 -3.6085166931152344 0.5775213241577148
-4.30007928609848 -3.914203643798828 0.7782320976257324
-4.7321497797966 -4.1833038330078125 0.8773550987243652
-5.121934115886688 -4.42253303527832 0.8491792678833008
-5.470524966716766 -4.643556594848633 0.6836628913879395
-5.782341659069061 -4.862051963806152 0.38820838928222656
-6.064171016216278 -5.096010208129883 -0.013658523559570312
-6.323373019695282 -5.363579750061035 -0.48646020889282227
-6.56557959318161 -5.680643081665039 -0.9897985458374023
-6.792906939983368 -6.058627128601074 -1.485753059387207
-7.003384292125702 -6.502840042114258 -1.9449467658996582
-7.191562831401825 -7.011595726013184 -2.3501386642456055
-7.349986732006073 -7.576625823974609 -2.6969919204711914
-7.470756232738495 -8.184669494628906 -2.9922828674316406
-7.546717822551727 -8.819883346557617 -3.250460624694824
-7.572403609752655 -9.466660499572754 -3.489516258239746
-7.544592559337616 -10.111939430236816 -3.727224349975586
-7.462845504283905 -10.74670124053955 -3.978318214416504
-7.3295785784721375 -11.366598129272461 -4.252849578857422
-7.149823367595673 -11.971328735351562 -4.555567741394043
-6.930596053600311 -12.562768936157227 -4.885908126831055
-6.679620444774628 -13.14352560043335 -5.238093376159668
-6.403937518596649 -13.715070724487305 -5.601040840148926
-6.108662784099579 -14.275841236114502 -5.958319664001465
-5.796278178691864 -14.821107864379883 -6.288356781005859
-5.467091739177704 -15.342655658721924 -6.565679550170898
-5.120712459087372 -15.83078145980835 -6.7632646560668945
-4.758145987987518 -16.274821281433105 -6.856090545654297
-4.38381952047348 -16.665732860565186 -6.825090408325195
-4.006546437740326 -16.99670124053955 -6.660226821899414
-3.6388372778892517 -17.263925075531006 -6.362362861633301
-3.295240819454193 -17.46657085418701 -5.94343376159668
-2.990135371685028 -17.60593891143799 -5.4243621826171875
-2.7360047698020935 -17.685983419418335 -4.831630706787109
-2.542735517024994 -17.712764739990234 -4.193183898925781
-2.4172393679618835 -17.694318771362305 -3.534395217895508
-2.363100826740265 -17.640016794204712 -2.874967575073242
-2.3800353407859802 -17.559775352478027 -2.2272911071777344
-2.4633392691612244 -17.462413549423218 -1.5963516235351562
-2.60416179895401 -17.35604166984558 -0.9811110496520996
-2.790975034236908 -17.248465061187744 -0.37680768966674805
-3.0121042132377625 -17.14849328994751 0.22204828262329102
-3.258215844631195 -17.06776213645935 0.8188462257385254
-3.5235788226127625 -17.020565271377563 1.4128432273864746
-3.8054537177085876 -17.02353572845459 1.9983916282653809
-4.101427495479584 -17.09264373779297 2.565603733062744
-4.406180322170258 -17.241387128829956 3.1020267009735107
-4.708841979503632 -17.478338479995728 3.5950233936309814
-4.992477118968964 -17.8057758808136 4.034005045890808
-5.236188590526581 -18.21940588951111 4.412412762641907
-5.419357478618622 -18.709439158439636 4.728861927986145
-5.526576220989227 -19.261956810951233 4.987613320350647
-5.551799476146698 -19.860969305038452 5.198137938976288
-5.500466525554657 -20.490958405658603 5.37402868270874
-5.3889190554618835 -21.138072192668915 5.531119704246521
-5.241062343120575 -21.791940450668335 5.685195222496986
-5.083234012126923 -22.44625961780548 5.849691893905401
-4.938877761363983 -23.098806858062744 6.033738553524017
-4.824262797832489 -23.750999689102173 6.241127908229828
-4.745912730693817 -24.406418561935425 6.470094382762909
-4.700058162212372 -25.069470405578613 6.714060664176941
-4.674087941646576 -25.743881225585938 6.963257670402527
-4.649496972560883 -26.429932594299316 7.206779479980469
-4.605760991573334 -27.123777389526367 7.434956073760986
-4.524442374706268 -27.81596326828003 7.641651153564453
-4.392994582653046 -28.49141836166382 7.826115131378174
-4.207487761974335 -29.130197525024414 7.99411153793335
-3.973656117916107 -29.710203170776367 8.157911539077759
-3.7056490778923035 -30.21012592315674 8.334797859191895
-3.4223572611808777 -30.6132869720459 8.544066429138184
-3.142357289791107 -30.911757469177246 8.80320954322815
-2.878477990627289 -31.10847759246826 9.12382173538208
-2.6339767575263977 -31.217726707458496 9.508601427078247
-2.401388466358185 -31.262991905212402 9.950311183929443
-2.164148271083832 -31.271467208862305 10.432933330535889
-1.9008530974388123 -31.26827621459961 10.934760093688965
-1.5907366871833801 -31.271081924438477 11.432612895965576
-1.218782663345337 -31.28742027282715 11.906829357147217
-0.7788372933864594 -31.31550884246826 12.34398078918457
-0.2742954194545746 -31.347811698913574 12.739157676696777
0.28347229957580566 -31.37497901916504 13.094863891601562
0.8781644701957703 -31.390886306762695 13.419519901275635
1.4922500252723694 -31.394240379333496 13.725065231323242
2.110265791416168 -31.38921356201172 14.023416519165039
2.721358835697174 -31.382868766784668 14.324383735656738
3.32035094499588 -31.382108688354492 14.633447647094727
3.907515823841095 -31.390653610229492 14.95206356048584
4.487394154071808 -31.408040046691895 15.277172088623047
5.066747963428497 -31.429790496826172 15.603362083435059
5.652373135089874 -31.44948387145996 15.92446231842041
6.2491214871406555 -31.460424423217773 16.235257148742676
6.858547508716583 -31.457151412963867 16.533406257629395
7.478715717792511 -31.435014724731445 16.81966209411621
8.104557812213898 -31.39040184020996 17.097942352294922
8.729243099689484 -31.31999683380127 17.37449359893799
9.345806896686554 -31.221519470214844 17.655973434448242
9.948948681354523 -31.09479331970215 17.94809913635254
10.536072552204132 -30.943604469299316 18.253857612609863
11.108043491840363 -30.776756286621094 18.57280445098877
11.668332874774933 -30.608633995056152 18.90185546875
12.22099095582962 -30.457731246948242 19.235929489135742
12.769550144672394 -30.344481468200684 19.57026958465576
13.315018475055695 -30.28814125061035 19.901762008666992
13.855727970600128 -30.303662300109863 20.229985237121582
14.388143360614777 -30.399654388427734 20.55725860595703
14.90839272737503 -30.57667636871338 20.887680053710938
15.413672268390656 -30.827980995178223 21.226223945617676
15.903174221515656 -31.139452934265137 21.578125953674316
16.377707302570343 -31.492520332336426 21.948232650756836
16.83961373567581 -31.865450859069824 22.34113311767578
17.291697323322296 -32.2353630065918 22.761226654052734
17.73710137605667 -32.578999519348145 23.212600708007812
LINES 1 121
120 0 1 2 3 4 5 6 7 8 9 10 11 12 13 14 15 16 17 18 19 20 21 22 23 24 25 26 27 28 29 30 31 32 33 34 35 36 37 38 39 40 41 42 43 44 45 46 47 48 49 50 51 52 53 54 55 56 57 58 59 60 61 62 63 64 65 66 67 68 69 70 71 72 73 74 75 76 77 78 79 80 81 82 83 84 85 86 87 88 89 90 91 92 93 94 95 96 97 98 99 100 101 102 103 104 105 106 107 108 109 110 111 112 113 114 115 116 117 118 119
POINT_DATA 120
SCALARS Curvature float 1
LOOKUP_TABLE default
0.0
0.4353126179201564
0.36116541165193927
0.2638387451600687
0.1827076905375047
0.12124392193709926
0.06941771105233029
0.039781484094571905
0.13100670034629117
0.32314678729465857
0.5514752770407376
0.6225655024054988
0.486646331094801
0.2865276023275752
0.1491120900785192
0.10556634317139274
0.1317384936348685
0.1673413459914278
0.18644903563222437
0.18249401647326133
0.16067870343650179
0.1334931640754736
0.11493877576644619
0.11254233690618644
0.11904741841366955
0.12135217020519011
0.11256847285736821
0.09438823776685458
0.07196807752193292
0.05138891358826728
0.04314765067602916
0.06220140679043055
0.1114005592251737
0.19338528220845194
0.3083350452487824
0.42473061617522373
0.48171776248455933
0.4511358289825867
0.3694146150540982
0.28921352867775424
0.23187581159214102
0.19871698183863665
0.18351196885620008
0.17917923922749096
0.17708266703706654
0.1681384466279848
0.1461201908881662
0.1140970530430209
0.083959148987143
0.07351831408725913
0.09062131113717913
0.1259720982108392
0.16748964067208758
0.20980592953338975
0.24642058880875625
0.27431356980331434
0.2924136706406194
0.2982288015209278
0.28509889844559994
0.24966526667065148
0.19618577703530024
0.13421158632458544
0.07276376576171135
0.028053384710177848
0.04948317057527083
0.07828099398515465
0.0856053275019061
0.06999152142843588
0.03928506342133076
0.017704371346382718
0.04753502916796591
0.08152858504040404
0.10985589719368254
0.1332957602549823
0.1589504263372156
0.20596484896141218
0.3010667798794516
0.43376445472209746
0.5126146443204453
0.45514769679173694
0.29810169494013133
0.13701628522093204
0.05671630830061228
0.1222096146984194
0.17577756789089222
0.19213468328035113
0.17529833231800165
0.14094162760834358
0.10075661127442499
0.060852731915433035
0.02486615886928375
0.01201323189562761
0.03060991049561862
0.037803183835753894
0.029012551658891095
0.01021682774648917
0.017424401120170074
0.037062393447535424
0.04794809667191733
0.05168646323178134
0.0514879958492141
0.05477249239772244
0.06303969272329141
0.07076464894556135
0.06968813092443972
0.05539026234818066
0.0329237472729655
0.04064843375357371
0.085738696109827
0.13634327936669596
0.17788957981332032
0.19931249925398883
0.19395718579244578
0.1675339923786576
0.1279763869227914
0.08846411968895757
0.05762178281964469
0.0538468923599427
0.07920642023598488
0.0
SCALARS Torsion float 1
LOOKUP_TABLE default
0.0
0.0
-0.014383883158418157
-0.015631160821347644
-0.0017382730445294047
0.07130463403206187
0.4615822769366529
0.9932366731547869
0.47597788565658605
0.18428148757646595
0.12844811731982395
0.1386421049377599
0.20336064340632004
0.3794968875290257
0.7436210342174656
0.8669435478932932
0.5240313172373066
0.20047005459233813
0.03343844139744892
-0.08425985178387217
-0.21562301365039876
-0.38909494141497364
-0.532000243266364
-0.5201107414855206
-0.3913092986958395
-0.2618402649144329
-0.17031891195267557
-0.1002679809700525
0.013108668383173483
0.3037499562266186
0.6531263925105074
0.4854352266449981
0.20411119064071898
0.093698639815372
0.05164875094821852
0.05218101584437906
0.06222536074970986
0.076626815555527
0.08868749137077223
0.09025644404537807
0.09843000281802383
0.10962247724058975
0.12881017153365754
0.14540996849156793
0.15526948577104782
0.14421050199907612
0.16378515762307147
0.24941317088038423
0.4754127524956355
0.634282638402376
0.4140858748480897
0.16515675508831357
0.061026881708492464
0.052558758751972516
0.09100055727926457
0.14801971414501117
0.20017385230432658
0.22677490916792986
0.22948877023627387
0.22197499107968946
0.22525857492750806
0.28379680076532676
0.5519571611310355
0.9953736858851234
0.6626211031102697
0.2670615417858832
0.19099527503333424
0.23999690002240454
0.5865967365084026
0.9945046141524931
0.4051111592149269
0.19761583148364717
0.19007000280748004
0.25925458517043803
0.3800054032482772
0.4834158892982244
0.4762838881721247
0.393245265295839
0.29307007544598085
0.19842440925040433
0.06698193026080687
-0.4744813715721493
-0.9986633612095348
-0.492351111702767
-0.06981876935470988
0.0754433401943857
0.15483047147835607
0.23282743381471094
0.29339068995888373
0.4383740785587041
0.832312810777974
0.9903906906636714
0.3491177046133641
0.213449686041328
0.33967612959419397
0.9743043557906363
0.6306850789274704
0.18427303299554687
0.15850655887171758
0.24499327504205043
0.38082589174165266
0.450851952061959
0.3706799095696995
0.273435054334259
0.23240610205799758
0.33311119977449133
0.87178998974045
0.8303648540580155
0.292670842551358
0.08024930372807448
-0.012578241800601131
-0.06724667365309792
-0.10396916515944381
-0.14197010399597063
-0.22162783476396428
-0.3933517539174003
-0.7296454072772348
-0.7761826682927825
-0.4471916491557333
0.0
SCALARS Distance_to_V float 1
LOOKUP_TABLE default
0.0
0.7282073767712508
1.3845212342116942
2.0097666781355152
2.629452158843105
3.2537408000532575
3.880198957705658
4.498080974947456
5.092495821797945
5.648733631677047
6.156410175832852
6.613264671355813
7.027718886005466
7.418181729559271
7.808844750425193
8.222885604691015
8.675738011415708
9.171626354587046
9.704345726996738
10.260783953126278
10.825245978960714
11.382880188689064
11.921772512692632
12.4341861218521
12.916979214477308
13.371621882259232
13.803609998290186
14.221083203185808
14.632472044929605
15.04401442150783
15.45694743663526
15.865021214144091
16.25393535458198
16.60213704976297
16.884512245616026
17.076207243132007
17.158081993118426
17.119873720320335
16.96206740863463
16.695750149111483
16.340190186015537
15.92045389968718
15.464077858466526
14.998068310179843
14.5461481709872
14.126760735612761
13.75143213250306
13.425674338254504
13.15096269774068
12.928253484624934
12.761711465828853
12.659865681870468
12.634640862828046
12.696486823161006
12.849661337374526
13.088039972904564
13.394332229728946
13.742891542614151
14.105319827329945
14.456289048149202
14.778305435314033
15.064345907603773
15.317265016022697
15.547562591488761
15.769592750736937
15.997906537029454
16.244396452672014
16.51602353327854
16.813712000496754
17.13218907593726
17.460021347353194
17.78159755731122
18.07893753172941
18.334180916215484
18.531627458385394
18.65968540935417
18.711571826344766
18.685508590957177
18.584918970415814
18.41765272868306
18.194899968140216
17.929120664941113
17.630495476526047
17.30445741293358
16.950827809875218
16.56534873272836
16.143103973505816
15.681782769118794
15.183544398114826
14.655790638952517
14.10930620562236
13.556414801968806
13.007786010488687
12.47032368934487
11.945611416982008
11.43041143716967
10.917927139232543
10.400388922616111
9.871237534781713
9.326680772423218
8.765527399968573
8.188921702969854
7.598875758763231
6.997781311927493
6.388039146295965
5.773007563546882
5.157426180929388
4.548195961660573
3.9546119168200904
3.3869980792257808
2.855982383508744
2.3708131448904886
1.9380751154046443
1.5602111720241936
1.2351946791919177
0.955553906213338
0.709635796904245
0.48142595687002754
0.25193997959232534
0.0
SCALARS Local_Extrema int 1
LOOKUP_TABLE default
0
0
0
0
0
0
0
0
0
0
0
0
0
0
0
0
0
0
0
0
0
0
0
0
0
0
0
0
0
0
0
0
0
0
0
0
1
0
0
0
0
0
0
0
0
0
0
0
0
0
0
0
-1
0
0
0
0
0
0
0
0
0
0
0
0
0
0
0
0
0
0
0
0
0
0
0
1
0
0
0
0
0
0
0
0
0
0
0
0
0
0
0
0
0
0
0
0
0
0
0
0
0
0
0
0
0
0
0
0
0
0
0
0
0
0
0
0
0
0
0
