# vtk DataFile Version 3.0
Curve with Curvature, Torsion, Distance to V, and Extrema
ASCII
DATASET POLYDATA
POINTS 120 float
0.0 0.0 0.0
-0.32169270515441895 -0.6864986419677734 0.1487131118774414
-0.7123823165893555 -1.2543354034423828 0.3293113708496094
-1.1547276973724365 -1.7228813171386719 0.5233182907104492
-1.6314342021942139 -2.111513137817383 0.7123565673828125
-2.1254467964172363 -2.4395580291748047 0.8784112930297852
-2.620333194732666 -2.7260875701904297 1.0043573379516602
-3.100930690765381 -2.989468574523926 1.074821949005127
-3.5543503761291504 -3.24655818939209 1.0774164199829102
-3.9709315299987793 -3.511810302734375 1.0040850639343262
-4.34494686126709 -3.7965354919433594 0.8523297309875488
-4.674609661102295 -4.108663558959961 0.625828742980957
-4.9613800048828125 -4.4530134201049805 0.33438682556152344
-5.20866060256958 -4.831953048706055 -0.006847381591796875
-5.419991970062256 -5.246260643005371 -0.37911224365234375
-5.59736967086792 -5.6957855224609375 -0.762568473815918
-5.7400031089782715 -6.179655075073242 -1.139054298400879
-5.843958377838135 -6.695926666259766 -1.4945812225341797
-5.902609825134277 -7.240988731384277 -1.8211545944213867
-5.907779693603516 -7.808924674987793 -2.11752986907959
-5.851402282714844 -8.391016960144043 -2.388808250427246
-5.727187633514404 -8.975706100463867 -2.644925117492676
-5.532130241394043 -9.548972129821777 -2.897953987121582
-5.267476558685303 -10.09519100189209 -3.1593074798583984
-4.939163684844971 -10.598313331604004 -3.436793327331543
-4.557798385620117 -11.04343318939209 -3.732074737548828
-4.138200759887695 -11.418562889099121 -4.039175033569336
-3.698481559753418 -11.715948104858398 -4.343963623046875
-3.258772373199463 -11.93351936340332 -4.625299453735352
-2.839595317840576 -12.074975490570068 -4.857508659362793
-2.4601621627807617 -12.14958143234253 -5.0138702392578125
-2.13673734664917 -12.170937538146973 -5.070574760437012
-1.8812074661254883 -12.154645919799805 -5.010480880737305
-1.70011568069458 -12.116370677947998 -4.825893402099609
-1.5943050384521484 -12.068850994110107 -4.519522666931152
-1.5589728355407715 -12.019888877868652 -4.103886604309082
-1.5844249725341797 -11.971385478973389 -3.5991344451904297
-1.6574413776397705 -11.919215202331543 -3.0298852920532227
-1.763089656829834 -11.854283809661865 -2.4219236373901367
-1.8868579864501953 -11.765210628509521 -1.79931640625
-2.016566276550293 -11.641450881958008 -1.1820383071899414
-2.1437840461730957 -11.475700378417969 -0.5847396850585938
-2.2643027305603027 -11.266986846923828 -0.01606464385986328
-2.377678394317627 -11.022154331207275 0.5212564468383789
-2.4861254692077637 -10.75552225112915 1.0295939445495605
-2.593155860900879 -10.488008499145508 1.5152459144592285
-2.702235221862793 -10.244644165039062 1.986811637878418
-2.8158631324768066 -10.050846099853516 2.453373432159424
-2.9351234436035156 -9.929640769958496 2.92282772064209
-3.0596156120300293 -9.899053573608398 3.4005470275878906
-3.187600612640381 -9.970251083374023 3.8884053230285645
-3.3162684440612793 -10.147188186645508 4.38416051864624
-3.4421982765197754 -10.426977157592773 4.881275177001953
-3.5618672370910645 -10.800971984863281 5.369211196899414
-3.6721062660217285 -11.256551265716553 5.834108829498291
-3.7704148292541504 -11.778637886047363 6.259799480438232
-3.8551321029663086 -12.351236343383789 6.629194021224976
-3.9254846572875977 -12.958975791931152 6.925915718078613
-3.9814939498901367 -13.587828636169434 7.135923743247986
-4.02384090423584 -14.22587537765503 7.249218702316284
-4.0536909103393555 -14.863533020019531 7.261132121086121
-4.072437763214111 -15.493424654006958 7.173275351524353
-4.081422805786133 -16.110523462295532 6.9940043687820435
-4.081655502319336 -16.712099313735962 6.7383294105529785
-4.073521137237549 -17.296892404556274 6.4273011684417725
-4.056532859802246 -17.865538477897644 6.086688280105591
-4.029174327850342 -18.41986346244812 5.7452712059021
-3.9888014793395996 -18.962388649582863 5.432528734207153
-3.931692123413086 -19.495672404766083 5.176088809967041
-3.8532161712646484 -20.021628379821777 4.9991230964660645
-3.748106002807617 -20.541076183319092 4.917853832244873
-3.610912799835205 -21.052748918533325 4.940030097961426
-3.4364967346191406 -21.55352759361267 5.0649566650390625
-3.2206082344055176 -22.037883758544922 5.284180402755737
-2.9604268074035645 -22.498165130615234 5.583202123641968
-2.65494966506958 -22.925374507904053 5.943963527679443
-2.3051981925964355 -23.309720993041992 6.347391843795776
-1.9142146110534668 -23.641865730285645 6.775460839271545
-1.4865520000457764 -23.913798809051514 7.212631106376648
-1.0276672840118408 -24.12007761001587 7.646505653858185
-0.5431728363037109 -24.258574962615967 8.067901849746704
-0.03812670707702637 -24.330862045288086 8.470520136877894
0.4834465980529785 -24.342333793640137 8.850477159023285
1.0188030004501343 -24.30170965194702 9.205941200256348
1.5663934350013733 -24.220337390899658 9.53667426109314
2.1255509927868843 -24.11036252975464 9.843786716461182
2.6960394382476807 -23.983407974243164 10.129658222198486
3.277573585510254 -23.849387168884277 10.397553324699402
3.8694074153900146 -23.715301513671875 10.651280879974365
4.470038652420044 -23.58468770980835 10.89535403251648
5.077057838439941 -23.458029747009277 11.134347915649414
5.6870927810668945 -23.33312749862671 11.372498989105225
6.295884132385254 -23.206181526184082 11.614051103591919
6.8984527587890625 -23.073205947875977 11.863192081451416
7.4893412590026855 -22.93142604827881 12.123942852020264
8.062945365905762 -22.78043222427368 12.400591373443604
8.613951206207275 -22.622740983963013 12.697363376617432
9.137829303741455 -22.464382886886597 13.018545150756836
9.631255626678467 -22.31395721435547 13.367826461791992
10.092525959014893 -22.181710720062256 13.747850894927979
10.52165699005127 -22.07845902442932 14.159710884094238
10.920119285583496 -22.013896465301514 14.60224437713623
11.290576934814453 -21.99532151222229 15.07217025756836
11.635908126831055 -22.02731966972351 15.564033508300781
11.958419799804688 -22.111743927001953 16.070526599884033
12.259347915649414 -22.24877429008484 16.58296775817871
12.53835391998291 -22.437907695770264 17.091951370239258
12.793333053588867 -22.678536891937256 17.588242530822754
13.021126747131348 -22.97091770172119 18.063693046569824
13.217806816101074 -23.315654277801514 18.51168918609619
13.37955093383789 -23.712826251983643 18.928186416625977
13.503396034240723 -24.161037921905518 19.311962127685547
13.587554931640625 -24.65660524368286 19.66448211669922
13.631170272827148 -25.19315004348755 19.989645957946777
13.633752822875977 -25.76179552078247 20.293137550354004
13.59511661529541 -26.35184621810913 20.58139133453369
13.51460075378418 -26.951536178588867 20.860323905944824
13.391091346740723 -27.549181938171387 21.13457489013672
13.223305702209473 -28.134740829467773 21.40623950958252
13.009931564331055 -28.69997215270996 21.674954414367676
LINES 1 121
120 0 1 2 3 4 5 6 7 8 9 10 11 12 13 14 15 16 17 18 19 20 21 22 23 24 25 26 27 28 29 30 31 32 33 34 35 36 37 38 39 40 41 42 43 44 45 46 47 48 49 50 51 52 53 54 55 56 57 58 59 60 61 62 63 64 65 66 67 68 69 70 71 72 73 74 75 76 77 78 79 80 81 82 83 84 85 86 87 88 89 90 91 92 93 94 95 96 97 98 99 100 101 102 103 104 105 106 107 108 109 110 111 112 113 114 115 116 117 118 119
POINT_DATA 120
SCALARS Curvature float 1
LOOKUP_TABLE default
0.0
0.25476142159224124
0.2346731557723671
0.19941197300213456
0.16307537024393529
0.14586995878097395
0.17415418554232187
0.24587414566025387
0.32262761105693694
0.35758654185428973
0.3311620732088538
0.2645440706621312
0.193170035949886
0.1408029952006172
0.11685559830026887
0.11860058453034124
0.13297354478882709
0.14805114365949462
0.15771939775970767
0.16107577319460323
0.16157502647468228
0.16368632973143155
0.16920927311777437
0.1770316513106987
0.184941619533639
0.19210299626724947
0.20143902958045615
0.22015242755016692
0.2715005783578321
0.4161886879350833
0.731380448669159
0.9607736851890116
0.9684956980142863
0.7755763043048632
0.42561758088675383
0.21749721792582125
0.11709037916983973
0.06945052833857468
0.0634415454181651
0.08567497595341599
0.11391143081864687
0.13128034931861474
0.12679152995160725
0.09589606935772708
0.037426793515311384
0.055995564922984686
0.16589126398393367
0.2795439957892047
0.35595383320145413
0.3650521654233215
0.32005416785033786
0.2578551002591329
0.20573448153451399
0.17288505198596427
0.1585188678996962
0.16016252955068006
0.17546271452845383
0.20050128774710818
0.22764175663821187
0.24537836645872185
0.2433220250025144
0.21888689346536125
0.17803895765455022
0.12995127713171686
0.07901384678421812
0.03202323800920238
0.06062355564332022
0.14264319052571764
0.2414640566488576
0.3292641130291647
0.3677555064490128
0.3451638427300087
0.2870210620171905
0.22763675527754135
0.18490797098740638
0.16209525921429757
0.1545437380764781
0.15700473426074027
0.16339016185884656
0.16858886517914715
0.16827321194299463
0.1593903463006903
0.14177628882189833
0.1175900274026188
0.09205118472503235
0.06886922485143038
0.051146357913914774
0.03949474398982496
0.029683182291592745
0.019166091878158008
0.006502451668929821
0.009278171955656408
0.025755471110565614
0.04170804407289213
0.05696253280991655
0.07149215223542914
0.08703928287512547
0.10503943908854103
0.12529796032255192
0.1454485343113542
0.1605156351802258
0.1668026953953839
0.16486233871349262
0.15792559548437016
0.15164076499787718
0.1505582770581397
0.1564034196155239
0.16906919873209436
0.18434839559115462
0.19437063176698835
0.19257079517927062
0.17752715258596352
0.15354652496527268
0.1280478712212532
0.10713576241700695
0.09625141147273698
0.09596806047840556
0.1029673537969216
0.11352971780989372
0.0
SCALARS Torsion float 1
LOOKUP_TABLE default
0.0
0.0
0.1669538657486731
0.2974943592451626
0.5309667354801643
0.746546472456067
0.7097891347419798
0.49815295757950306
0.3219794479663211
0.22591463510299403
0.19063445645528423
0.2106692728680603
0.30058166066662706
0.4508811957426445
0.5234399001625866
0.39684770996066154
0.18145889738189638
-0.002159864257518379
-0.14233103469851505
-0.2506321079635534
-0.32312720891706104
-0.34071911174261227
-0.3101919966040274
-0.24706561127504692
-0.1678417759178412
-0.07756460366769394
0.04349267432940024
0.22272538068427472
0.4488040585550091
0.599291711322288
0.5991238328780281
0.5128929610586076
0.42347341411032785
0.3232127504017468
0.2065484135858257
0.04600486136674034
-0.25082183404757197
-0.7035319045842224
-0.7523344045884698
-0.4304972252181357
-0.19128368522567898
-0.07298887913872784
0.002596213328280819
0.11389788860424102
0.8445818711226696
0.6529783593741031
0.1327212321744925
0.06982748925437929
0.05190605927740199
0.044372809750373915
0.039632931584148795
0.03192943361808318
0.018049638953332864
-0.0029538674829248726
-0.02593147921760437
-0.04295166500395869
-0.04962827135628553
-0.047502522925490794
-0.04074206276997202
-0.03294063135829597
-0.024075212581459473
-0.012125483951574405
0.00887393320559559
0.06138081314377365
0.2730487290642424
0.9847584820537353
0.7196017827861367
0.19244048058552155
0.0559733953462046
-0.004862315192209143
-0.051643394242081246
-0.09627099943368173
-0.15028182524306252
-0.2075271136327065
-0.24798407055793864
-0.24718897418056476
-0.20410520172514984
-0.14402429696667665
-0.09370193786045927
-0.06337241203540045
-0.055085710801365
-0.06928139710656013
-0.10536217226354111
-0.17808265630101575
-0.27882301643118623
-0.40971632410303155
-0.536920186533014
-0.5636571194281359
-0.515649781676776
-0.5061820949033512
-0.83544912637407
-0.35233363091065895
-0.05668121162770823
0.024978880165287418
0.11295131723563187
0.18437203344801859
0.26136320845216665
0.28422091618362016
0.28090289243605104
0.26430750287306776
0.23797781491848558
0.2136406438749848
0.195582926853779
0.17752794143697787
0.16309986098400797
0.13465160255253802
0.08698213840013742
0.047111374675465785
0.009312188163719363
-0.02267400245827083
-0.04794356048260355
-0.07758048491123586
-0.1290172375149748
-0.2103977209856639
-0.2973177448117722
-0.3475689713700547
-0.31101512998294506
-0.19069843153107333
-0.08283638729461221
0.0
SCALARS Distance_to_V float 1
LOOKUP_TABLE default
0.0
0.5973094303221783
1.1853568163498338
1.7730283586776066
2.3607885636364805
2.943301713324673
3.512250746123542
4.059126957112514
4.577878556578841
5.066916210377753
5.530051108783408
5.975847880167419
6.415478568362812
6.859633317297651
7.3154187676846645
7.784495033716937
8.26286893594918
8.742203207578845
9.211916695868613
9.661346683724762
10.08155006884521
10.466459522987133
10.813209901941713
11.121808028735744
11.39402843666861
11.631861994272045
11.835918062124342
12.003715962810631
12.129274058557034
12.203411753713011
12.215703831991659
12.157203246957915
12.023042310375098
11.814828295707532
11.540721637082056
11.21421768874992
10.851631572591748
10.468762759607717
10.078059869400697
9.687636289260817
9.30179257081195
8.922708671451263
8.553327260332962
8.199455398473843
7.870487152692276
7.57924880315319
7.340329886929542
7.167358435972968
7.07073112458614
7.055619369578489
7.120934482104325
7.259764658268946
7.4607625440452985
7.7100587783843535
7.993300843658797
8.297186595826513
8.610665212884301
8.925881654292708
9.23852050825454
9.547927752583364
9.856652224498168
10.169339589116332
10.49132315491512
10.826916381027335
11.177390177222795
11.540106458118586
11.907945649256648
12.269802724369168
12.611857534447317
12.919326894349492
13.178447608813403
13.377709345625396
13.508855873007409
13.566814189750824
13.549427362055825
13.456962981017508
13.291345435079185
13.055932066498253
12.755042198956803
12.394001339939317
11.97904543516569
11.517201818304194
11.016240960444538
10.484387277333775
9.930200682822404
9.361852703462876
8.78673907520518
8.211297746968034
7.640706656264988
7.078595134008742
6.527552890706857
5.989423750961628
5.46558376211833
4.957600996226735
4.467970080456466
4.000393755493874
3.5602026114950824
3.154586212263517
2.7924721068185128
2.4842778646112293
2.2411314534438884
2.0726439614811474
1.9829982718688248
1.9675136847911352
2.01208551065062
2.096594981769939
2.19902284211743
2.298246822263937
2.3756352448489433
2.415549956223847
2.406192029566339
2.3402986785956474
2.2152661715717334
2.032531610598062
1.7963152860195317
1.512503720919444
1.1869352255789374
0.824438781612317
0.42819329352992275
0.0
SCALARS Local_Extrema int 1
LOOKUP_TABLE default
0
0
0
0
0
0
0
0
0
0
0
0
0
0
0
0
0
0
0
0
0
0
0
0
0
0
0
0
0
0
1
0
0
0
0
0
0
0
0
0
0
0
0
0
0
0
0
0
0
-1
0
0
0
0
0
0
0
0
0
0
0
0
0
0
0
0
0
0
0
0
0
0
0
1
0
0
0
0
0
0
0
0
0
0
0
0
0
0
0
0
0
0
0
0
0
0
0
0
0
0
0
0
0
-1
0
0
0
0
0
1
0
0
0
0
0
0
0
0
0
0
