# vtk DataFile Version 3.0
Curve with Curvature, Torsion, Distance to V, and Extrema
ASCII
DATASET POLYDATA
POINTS 120 float
0.0 0.0 0.0
-0.008652687072753906 -0.5454607009887695 -0.44812583923339844
-0.16374969482421875 -1.0331707000732422 -0.7388405799865723
-0.43944835662841797 -1.4746932983398438 -0.904289722442627
-0.8101315498352051 -1.8813390731811523 -0.9768123626708984
-1.2509465217590332 -2.2636308670043945 -0.9891409873962402
-1.7385640144348145 -2.6303224563598633 -0.9743084907531738
-2.2519006729125977 -2.987584114074707 -0.964808464050293
-2.7723002433776855 -3.338308334350586 -0.9907245635986328
-3.2832727432250977 -3.682194709777832 -1.0772676467895508
-3.769700527191162 -4.0164384841918945 -1.2423744201660156
-4.21710205078125 -4.336943626403809 -1.4949846267700195
-4.611228942871094 -4.63956356048584 -1.8345956802368164
-4.938246726989746 -4.921032905578613 -2.2520318031311035
-5.185649871826172 -5.179415702819824 -2.731309413909912
-5.343470573425293 -5.4143781661987305 -3.2523255348205566
-5.405433654785156 -5.6277008056640625 -3.7937264442443848
-5.369911193847656 -5.823945045471191 -4.335699558258057
-5.240478515625 -6.010980606079102 -4.862245082855225
-5.026080131530762 -6.199692726135254 -5.3627028465271
-4.740592002868652 -6.4024858474731445 -5.83198881149292
-4.401765823364258 -6.630823135375977 -6.269490718841553
-4.029571533203125 -6.892703056335449 -6.676804065704346
-3.6443796157836914 -7.190991401672363 -7.054467678070068
-3.265275478363037 -7.523085594177246 -7.398653507232666
-2.9088516235351562 -7.881997585296631 -7.69901704788208
-2.588563919067383 -8.257887363433838 -7.938485622406006
-2.314610004425049 -8.63942289352417 -8.095613956451416
-2.094252586364746 -9.014289855957031 -8.149268627166748
-1.9320626258850098 -9.369247913360596 -8.083747386932373
-1.8302693367004395 -9.690455913543701 -7.892439365386963
-1.7883563041687012 -9.964722156524658 -7.5802483558654785
-1.8027567863464355 -10.181829929351807 -7.162542819976807
-1.8666391372680664 -10.336820602416992 -6.661808490753174
-1.970311164855957 -10.43136978149414 -6.1035027503967285
-2.102095603942871 -10.474635124206543 -5.512108325958252
-2.24973726272583 -10.481157302856445 -4.908091068267822
-2.4021053314208984 -10.469455242156982 -4.3064188957214355
-2.550995349884033 -10.458705425262451 -3.7163825035095215
-2.692338466644287 -10.467233180999756 -3.142381191253662
-2.826221466064453 -10.509482383728027 -2.5853867530822754
-2.9554672241210938 -10.594830989837646 -2.0440587997436523
-3.083343505859375 -10.72612190246582 -1.5157551765441895
-3.211115837097168 -10.900740623474121 -0.996884822845459
-3.3364620208740234 -11.111406326293945 -0.4832301139831543
-3.4533281326293945 -11.349547863006592 0.02978658676147461
-3.553435802459717 -11.60721731185913 0.5464844703674316
-3.628734588623047 -11.878885984420776 1.0700173377990723
-3.6736230850219727 -12.162375926971436 1.6013586521148682
-3.6860246658325195 -12.458750247955322 2.13851261138916
-3.66702938079834 -12.771979570388794 2.6761889457702637
-3.619539737701416 -13.107450723648071 3.206055164337158
-3.5467820167541504 -13.471031427383423 3.7177785634994507
-3.4513959884643555 -13.867503643035889 4.200311779975891
-3.335139751434326 -14.299748659133911 4.6435019969940186
-3.199154853820801 -14.767979145050049 5.039521306753159
-3.0442047119140625 -15.269836664199829 5.383991494774818
-2.870645046234131 -15.799945950508118 5.676701217889786
-2.678084373474121 -16.350633054971695 5.921805262565613
-2.46492338180542 -16.912313222885132 6.12742817401886
-2.2282185554504395 -17.474677085876465 6.304664433002472
-1.9640192985534668 -18.027502298355103 6.466045081615448
-1.6682581901550293 -18.561744689941406 6.623775482177734
-1.3377985954284668 -19.07085394859314 6.7880308628082275
-0.9713544845581055 -19.550728797912598 6.965660929679871
-0.5697660446166992 -19.999690055847168 7.1596115827560425
-0.13564157485961914 -20.416924476623535 7.369083046913147
0.32750892639160156 -20.801837921142578 7.590245962142944
0.8161931037902832 -21.152835845947266 7.817432403564453
1.3275659084320068 -21.467015266418457 8.044374227523804
1.8595902919769287 -21.74064016342163 8.265418529510498
2.410732865333557 -21.970484256744385 8.476496934890747
2.9793903827667236 -22.154727935791016 8.675670146942139
3.5634314119815826 -22.294296741485596 8.863323211669922
4.159947007894516 -22.392744064331055 9.041887044906616
4.76545375585556 -22.455776691436768 9.215274095535278
5.376387000083923 -22.490378379821777 9.388067960739136
5.98962926864624 -22.50315237045288 9.564687728881836
6.603068113327026 -22.500019073486328 9.748619556427002
7.215868711471558 -22.484966278076172 9.94189739227295
7.828376054763794 -22.460058212280273 10.144843101501465
8.441719055175781 -22.424962997436523 10.356051921844482
9.057045936584473 -22.377680778503418 10.57310962677002
9.674581050872803 -22.314648628234863 10.793097019195557
10.29268217086792 -22.23190450668335 11.013455390930176
10.907153606414795 -22.125956535339355 11.233128547668457
11.510898113250732 -21.994924545288086 11.453116416931152
12.094327926635742 -21.839783668518066 11.677527904510498
12.646946907043457 -21.665167808532715 11.913095474243164
13.15884780883789 -21.479468822479248 12.168631553649902
13.62343692779541 -21.294975757598877 12.453315734863281
14.04000186920166 -21.126582145690918 12.774488925933838
14.41520881652832 -20.990501403808594 13.134874820709229
14.76264476776123 -20.90219497680664 13.531750202178955
15.10043716430664 -20.87470245361328 13.956434726715088
15.447077751159668 -20.916242122650146 14.39627981185913
15.815840721130371 -21.030181407928467 14.836750507354736
16.21045207977295 -21.214768886566162 15.264800548553467
16.622824668884277 -21.464606285095215 15.669679164886475
17.03292179107666 -21.77219820022583 16.044708728790283
17.4127254486084 -22.129979610443115 16.38638925552368
17.73104953765869 -22.531395435333252 16.694119930267334
17.960012435913086 -22.971166610717773 16.96981382369995
18.08090591430664 -23.445228576660156 17.21765947341919
18.08870029449463 -23.949450492858887 17.443646907806396
17.993306159973145 -24.479241371154785 17.65548276901245
17.81865882873535 -25.029019355773926 17.861568927764893
17.598800659179688 -25.59237575531006 18.07054090499878
17.372761726379395 -26.162245750427246 18.290005207061768
17.178842544555664 -26.731380462646484 18.52544355392456
17.04946804046631 -27.293048858642578 18.780391216278076
17.00705337524414 -27.840862274169922 19.055708408355713
17.062153816223145 -28.369613647460938 19.351264476776123
17.212238311767578 -28.874555587768555 19.666364192962646
17.443049430847168 -29.352046012878418 20.000898838043213
17.730396270751953 -29.79866886138916 20.356262683868408
18.043272018432617 -30.211442947387695 20.735141277313232
18.346263885498047 -30.587327003479004 21.141404628753662
18.60197353363037 -30.923505783081055 21.579734325408936
18.772499084472656 -31.216999053955078 22.05470037460327
LINES 1 121
120 0 1 2 3 4 5 6 7 8 9 10 11 12 13 14 15 16 17 18 19 20 21 22 23 24 25 26 27 28 29 30 31 32 33 34 35 36 37 38 39 40 41 42 43 44 45 46 47 48 49 50 51 52 53 54 55 56 57 58 59 60 61 62 63 64 65 66 67 68 69 70 71 72 73 74 75 76 77 78 79 80 81 82 83 84 85 86 87 88 89 90 91 92 93 94 95 96 97 98 99 100 101 102 103 104 105 106 107 108 109 110 111 112 113 114 115 116 117 118 119
POINT_DATA 120
SCALARS Curvature float 1
LOOKUP_TABLE default
0.0
0.5309653352715981
0.5378657924905659
0.4120740159885489
0.2545144188084492
0.12939614632471014
0.05900754147548834
0.09230360578063893
0.15805260420896255
0.2169348494680956
0.25798525290857943
0.27803494167595055
0.282435163410597
0.2807971362790639
0.28095042650958146
0.284940523210301
0.2883370541574056
0.2824787179566579
0.2600810904159075
0.22236897639328557
0.17949981642050597
0.14427788450503576
0.1259851492643853
0.12756659421548738
0.15074991233204127
0.2070339913654199
0.3220803538232584
0.5082081165508774
0.6883358808458292
0.7390716511949562
0.6405781424821523
0.470239859336334
0.3239436079169783
0.2246049807410599
0.1547573277686941
0.10036144907665276
0.049153127925883104
0.0024451593377815897
0.056690891665325094
0.1060632437657248
0.1412553061468996
0.1514893481592095
0.13860844000391287
0.10943702440933402
0.08166920823256117
0.07093188627066366
0.07843470482372401
0.08744513423914303
0.08949761435286442
0.08811436751934613
0.09132825297706819
0.10403168512825808
0.1232041452101446
0.1429748096186774
0.15711474315811857
0.16159972858566274
0.15411039469367172
0.13646143729356264
0.11287650326907414
0.09104689007809127
0.08233419108204652
0.09215556264963944
0.10917201659181301
0.12106572299382899
0.12243594337679015
0.11653934543084613
0.10803229953122678
0.10303918907134706
0.10466053180491613
0.1122076524044124
0.12089341709357138
0.12593577310166038
0.12223766113903234
0.10985190800995942
0.09139357853502382
0.07096048122291602
0.054186854447025444
0.04227136687375271
0.03618719282648172
0.03223756821107458
0.029638298036859644
0.029977237856216372
0.03575996020182961
0.04449072581733712
0.05370728886989247
0.06238555506185935
0.07184669222823276
0.08620696949746175
0.11220137471833062
0.15010551529068325
0.19156532499683793
0.21983693578603375
0.22743963664774958
0.22108921322317512
0.21114439680270375
0.2017049018729786
0.18645058481790366
0.16941410119249403
0.1583901607699049
0.17049606017866722
0.22029279066840055
0.30114012738674273
0.36920792650744627
0.36786155193866155
0.29375131672984417
0.19026781848404764
0.09205510053423363
0.018442242920875762
0.085176706751541
0.16653045914349304
0.23364988995887692
0.2673636169701005
0.256654903241023
0.21366485435252613
0.16004081102312734
0.116667966847188
0.11529042468607642
0.17890643289315095
0.2872535963298543
0.0
SCALARS Torsion float 1
LOOKUP_TABLE default
0.0
0.0
0.027002221271283666
0.05279652794204099
0.1396621419860148
0.49138737021493906
0.985282992055007
0.7079490012567154
0.23382624603720592
0.09274644175807781
0.05780010555441928
0.06416000097351383
0.09109006427946131
0.12331395066480652
0.15080145201788225
0.17319836661160024
0.19557310440801842
0.22837338056254755
0.2786299525421903
0.3513722728380512
0.44251785649628256
0.5225440245014372
0.5243565591759692
0.3897884039450318
0.15555362481120324
-0.056979303027143685
-0.15423668905075774
-0.16061584156161504
-0.13798388057590522
-0.11065441003019046
-0.08713549568350255
-0.06712002104589812
-0.05520440136485322
-0.05116302370298523
-0.05173491961423854
-0.08115028896040763
-0.15992763556708847
-0.999999999823315
-0.03300665844881068
-0.08213311000733688
-0.10236534736311699
-0.0926708709558744
-0.02213311093806511
0.17148338493612408
0.530337007687257
0.6930292987480462
0.481416022422195
0.1794760624751473
-0.0635820268596477
-0.27250458534499455
-0.36058326765635373
-0.31332492736944134
-0.20468293933478302
-0.11304507959879886
-0.05088082205369902
-0.008090570898646322
0.04229603430346969
0.11948493743914007
0.2723102077132643
0.5047624423631177
0.6462693760384205
0.5385904746715051
0.3413935853208024
0.19617291149719285
0.09706703561983367
0.013492460599758255
-0.07136307933254281
-0.13903127517631325
-0.15943348689352416
-0.1281844397893872
-0.07819342441375707
-0.026751419622875902
0.017540247003214406
0.07085293016323062
0.1462390280979674
0.25996342948072426
0.3998380660907947
0.49198540953034625
0.40785273209963907
0.17953848156128013
-0.18640441932435073
-0.3645434986017025
-0.3097045986676965
-0.14592725226958053
0.020354098026903744
0.1616688559743493
0.3209195807302342
0.41657927812570933
0.43603989563715617
0.41805594048686356
0.40456217272456046
0.44357562850375293
0.5104537190566991
0.5658392011919119
0.534273748731953
0.4132783147367851
0.23922353152167278
0.03921048265333715
-0.21717819617095557
-0.3772866699767667
-0.36472929402617044
-0.2641293888625611
-0.17752234241914613
-0.12606586588947155
-0.11054145198768094
-0.13151361409572973
-0.3435641912292345
-0.9999988215235931
-0.3248799842362887
-0.09264476606764366
-0.044735869013415405
-0.009212179095084497
0.03695694739091189
0.11835452181431401
0.318879381083961
0.6609574501145661
0.7808726405117855
0.5141508427523663
0.26954781381490106
0.0
SCALARS Distance_to_V float 1
LOOKUP_TABLE default
0.0
0.6866848127495435
1.244428934767309
1.7349402845914537
2.2098699836088476
2.704159249876985
3.233971097401717
3.8000997402443675
4.393694662251167
5.001729229280972
5.610479735708018
6.20724718990889
6.780844116142038
7.32152389256324
7.821003288787968
8.272893366583972
8.673678876973346
9.024114786508571
9.330482172053097
9.60496222271046
9.864248520606333
10.126360435611447
10.40641907046271
10.712480840141708
11.04262403104791
11.38436492115828
11.716280068456719
12.011713970595626
12.243760644438197
12.390071484366832
12.436397873108927
12.37912518080182
12.225439016874244
11.991400762439941
11.698854289737344
11.372401090899327
11.035606514553596
10.709382307834568
10.410579133352304
10.152670856386866
9.94549229209689
9.795184461223526
9.703044891019621
9.665226068626957
9.672386246297071
9.711772108587171
9.769532277336687
9.833792129708772
9.897090843970764
9.957210773310917
10.016566408474546
10.079907689199427
10.152187818532722
10.236739978371185
10.334697720144522
10.445169917967108
10.565931322259642
10.693378511479136
10.822574619953794
10.946740833079401
11.057394231107724
11.144803781117949
11.199317183905883
11.213210241370241
11.181771966961106
11.103850293308271
10.98083872800036
10.815644131124886
10.6111033739387
10.369101816587909
10.090486595795955
9.775884455941204
9.426506045346596
9.045193020911585
8.63649116646603
8.20623886179583
7.760803646000768
7.305873289204571
6.846222264537664
6.385114983533956
5.924828354035518
5.467072029435341
5.014164278402961
4.569983663210038
4.141337563405149
3.738414304558559
3.3746952388011127
3.0646192719616896
2.8198862002783693
2.6446335602511235
2.5338747634483876
2.4770074420380213
2.465308192085023
2.4958158033238176
2.570382195325027
2.6901238770959854
2.8500471554315094
3.0372615505248794
3.232462116530812
3.4112055679493474
3.5466915485830546
3.6120766085142013
3.5845425601693646
3.4494625910594565
3.204506273700299
2.860831576743136
2.4428286617369572
1.9851495358097657
1.5294234315417257
1.1216317419922408
0.8105314304796561
0.6374735095055277
0.5922790369276206
0.6011198224381784
0.6012933537264659
0.568812908481712
0.49937126157090417
0.3901492855086865
0.2305742453539705
0.0
SCALARS Local_Extrema int 1
LOOKUP_TABLE default
0
0
0
0
0
0
0
0
0
0
0
0
0
0
0
0
0
0
0
0
0
0
0
0
0
0
0
0
0
0
1
0
0
0
0
0
0
0
0
0
0
0
0
-1
0
0
0
0
0
0
0
0
0
0
0
0
0
0
0
0
0
0
0
1
0
0
0
0
0
0
0
0
0
0
0
0
0
0
0
0
0
0
0
0
0
0
0
0
0
0
0
0
-1
0
0
0
0
0
0
0
0
1
0
0
0
0
0
0
0
0
0
0
-1
0
1
0
0
0
0
0
