# vtk DataFile Version 3.0
Curve with Curvature, Torsion, Distance to V, and Extrema
ASCII
DATASET POLYDATA
POINTS 120 float
0.0 0.0 0.0
-0.4757509231567383 -0.4508075714111328 -0.15755891799926758
-0.9440574645996094 -0.8859424591064453 -0.1427164077758789
-1.405146598815918 -1.3069992065429688 0.00319671630859375
-1.8592441082000732 -1.7155590057373047 0.23891401290893555
-2.3065736293792725 -2.1130542755126953 0.5234861373901367
-2.74727463722229 -2.500631332397461 0.8169999122619629
-3.1812660694122314 -2.878955841064453 1.0818915367126465
-3.6080100536346436 -3.248048782348633 1.2848706245422363
-4.0260937213897705 -3.6073875427246094 1.399254322052002
-4.432750463485718 -3.9562177658081055 1.407142162322998
-4.823385000228882 -4.294101715087891 1.3006844520568848
-5.191291093826294 -4.621570587158203 1.0825724601745605
-5.527648687362671 -4.940496444702148 0.7650246620178223
-5.821951627731323 -5.254037857055664 0.36735105514526367
-6.062728643417358 -5.566022872924805 -0.08736610412597656
-6.238548994064331 -5.879919052124023 -0.575894832611084
-6.339214086532593 -6.1977434158325195 -1.0781183242797852
-6.356849431991577 -6.519326210021973 -1.5792632102966309
-6.287018537521362 -6.842432975769043 -2.0708789825439453
-6.129539251327515 -7.163699150085449 -2.550525665283203
-5.8890674114227295 -7.480268478393555 -3.0202531814575195
-5.575425386428833 -7.791396141052246 -3.484281539916992
-5.203611135482788 -8.099486351013184 -3.946533203125
-4.793381929397583 -8.410164833068848 -4.408422470092773
-4.3683764934539795 -8.731264114379883 -4.867223739624023
-3.9547598361968994 -9.07097053527832 -5.315314292907715
-3.5793087482452393 -9.435518741607666 -5.740324020385742
-3.2671959400177 -9.827125072479248 -6.1260986328125
-3.039522886276245 -10.242500305175781 -6.454466819763184
-2.9109761714935303 -10.672289848327637 -6.707522392272949
-2.8879034519195557 -11.101401329040527 -6.870083808898926
-2.9673359394073486 -11.510735034942627 -6.931796073913574
-3.1374008655548096 -11.87950611114502 -6.88840389251709
-3.378999948501587 -12.187623977661133 -6.742072105407715
-3.6684396266937256 -12.41889476776123 -6.500897407531738
-3.981121778488159 -12.563143253326416 -6.1775617599487305
-4.295115232467651 -12.617466449737549 -5.7876081466674805
-4.5937182903289795 -12.586575508117676 -5.347577095031738
-4.866544008255005 -12.481628894805908 -4.873117446899414
-5.109086751937866 -12.318374633789062 -4.377363204956055
-5.321050405502319 -12.1145658493042 -3.8698291778564453
-5.504178285598755 -11.886981010437012 -3.3559722900390625
-5.660385847091675 -11.649460792541504 -2.8375043869018555
-5.790387868881226 -11.41225290298462 -2.3133325576782227
-5.8929688930511475 -11.182142734527588 -1.781005859375
-5.964930295944214 -10.963726043701172 -1.2381668090820312
-6.0014941692352295 -10.761717319488525 -0.6839799880981445
-5.997173070907593 -10.581655502319336 -0.12029504776000977
-5.946859121322632 -10.430804252624512 0.4477567672729492
-5.847017049789429 -10.318833827972412 1.0118393898010254
-5.696809530258179 -10.25698184967041 1.5611310005187988
-5.4988086223602295 -10.25755786895752 2.083657741546631
-5.259328126907349 -10.332032680511475 2.5679304599761963
-4.988117456436157 -10.489578247070312 3.0046215057373047
-4.697686433792114 -10.735337257385254 3.387723445892334
-4.402055025100708 -11.069274425506592 3.715196132659912
-4.115235090255737 -11.486260890960693 3.989048957824707
-3.849611520767212 -11.976723194122314 4.214825391769409
-3.6144325733184814 -12.527767181396484 4.4006664752960205
-3.414835214614868 -13.12507438659668 4.556196331977844
-3.2515509128570557 -13.754345893859863 4.69133996963501
-3.1213018894195557 -14.402748346328735 4.815174460411072
-3.017749071121216 -15.059828519821167 4.934980750083923
-2.9326159954071045 -15.718073844909668 5.0555936098098755
-2.8567841053009033 -16.372822523117065 5.179044723510742
-2.781125783920288 -17.021923154592514 5.304608702659607
-2.696972608566284 -17.664906859397888 5.429224073886871
-2.59635853767395 -18.301905870437622 5.5482067465782166
-2.472113847732544 -18.9332115650177 5.656281292438507
-2.3178160190582275 -19.557819843292236 5.748756229877472
-2.127944231033325 -20.17327570915222 5.822764277458191
-1.8981330394744873 -20.775327682495117 5.878331542015076
-1.625570297241211 -21.35783576965332 5.9191213846206665
-1.3093831539154053 -21.91310167312622 5.95266517996788
-0.9508905410766602 -22.432473182678223 5.98988276720047
-0.5535423755645752 -22.90693426132202 6.043854594230652
-0.12242531776428223 -23.327651977539062 6.127989888191223
0.33643507957458496 -23.686861038208008 6.253828510642052
0.8169451951980591 -23.978282928466797 6.428958533331752
1.3136555552482605 -24.19776487350464 6.655568614602089
1.8221734464168549 -24.343783378601074 6.930085062980652
2.3392233178019524 -24.417352199554443 7.243956029415131
2.8624309301376343 -24.421924591064453 7.585358262062073
3.389906883239746 -24.36347246170044 7.941415429115295
3.919790744781494 -24.250022888183594 8.30040168762207
4.449974775314331 -24.0908145904541 8.65341329574585
4.977939128875732 -23.896530628204346 8.995249509811401
5.500849962234497 -23.67762517929077 9.32456111907959
6.015725374221802 -23.443835258483887 9.6432204246521
6.519681692123413 -23.203117847442627 9.955402135848999
7.010181665420532 -22.96070623397827 10.26631212234497
7.485341787338257 -22.718656063079834 10.581055641174316
7.944348573684692 -22.475956439971924 10.90377950668335
8.387925386428833 -22.22959613800049 11.236908435821533
8.818877935409546 -21.975977420806885 11.581063270568848
9.242375612258911 -21.71343994140625 11.934610366821289
9.665778875350952 -21.443326473236084 12.294459342956543
10.097833395004272 -21.171406269073486 12.656554222106934
10.547298669815063 -20.90763235092163 13.016421794891357
11.020967721939087 -20.664803981781006 13.370097160339355
11.521753549575806 -20.45718765258789 13.714995861053467
12.047256708145142 -20.298897743225098 14.050524711608887
12.588651895523071 -20.202319145202637 14.37844467163086
13.131265878677368 -20.177038192749023 14.702345848083496
13.655254602432251 -20.229172706604004 15.027288436889648
14.138421297073364 -20.36119318008423 15.358301162719727
14.558837175369263 -20.57204842567444 15.69924259185791
14.897658586502075 -20.857534646987915 16.051576614379883
15.141844034194946 -21.210787296295166 16.41388511657715
15.285771608352661 -21.623024940490723 16.78227138519287
15.331684350967407 -22.08457040786743 17.150723457336426
15.289183855056763 -22.585557460784912 17.512508392333984
15.17390751838684 -23.116780281066895 17.861531257629395
15.00519871711731 -23.670108795166016 18.19310760498047
14.803762674331665 -24.238863468170166 18.504535675048828
14.58939003944397 -24.817999839782715 18.795063018798828
14.379305124282837 -25.40401554107666 19.0653657913208
14.186655282974243 -25.99497699737549 19.316787719726562
14.020595788955688 -26.590277671813965 19.550735473632812
LINES 1 121
120 0 1 2 3 4 5 6 7 8 9 10 11 12 13 14 15 16 17 18 19 20 21 22 23 24 25 26 27 28 29 30 31 32 33 34 35 36 37 38 39 40 41 42 43 44 45 46 47 48 49 50 51 52 53 54 55 56 57 58 59 60 61 62 63 64 65 66 67 68 69 70 71 72 73 74 75 76 77 78 79 80 81 82 83 84 85 86 87 88 89 90 91 92 93 94 95 96 97 98 99 100 101 102 103 104 105 106 107 108 109 110 111 112 113 114 115 116 117 118 119
POINT_DATA 120
SCALARS Curvature float 1
LOOKUP_TABLE default
0.0
0.3992382434104144
0.30850221768514513
0.2041924624456972
0.11246805071968478
0.03135892945529002
0.05347998837841022
0.15016983884574592
0.2593623276158926
0.3540676640110284
0.3942146853187033
0.36792768713235996
0.3051720129366128
0.2439319225732641
0.20528815301049563
0.19484032312776411
0.2074392231452123
0.23000953938770322
0.24544745981475596
0.23986553708467734
0.20981149226949442
0.16324838841574402
0.11171037569243206
0.06336159198598998
0.02861417747920328
0.04894869808749968
0.10062846707795858
0.17174428230184333
0.27207179756793426
0.40837187041476
0.5603474598805388
0.6711266388152526
0.6981765838944762
0.6497010195748697
0.5608123628501523
0.4681758584587336
0.38671454955382295
0.3154311342621698
0.2519608216294741
0.19499284404069733
0.14553930446022786
0.10684139355099811
0.08289445856956248
0.07689918411607284
0.08477546357720711
0.09860684132216217
0.1155323439766555
0.13422920354168766
0.15579063108504224
0.18291659954873463
0.21683906827942712
0.25872971071750245
0.3022903463089631
0.3353432281613423
0.34310165258031033
0.320801026972777
0.27792540207859023
0.2286551226041902
0.1828189384674974
0.14413609352866608
0.11201149566083944
0.08494356846995453
0.06148811102843242
0.04050827992752495
0.021238675592207656
0.007167551402280115
0.021134489295384164
0.041568195392722905
0.06215899532576321
0.0814369116024239
0.09750059527241525
0.10948112428941263
0.11809761355164088
0.12604498318006088
0.1376206361752128
0.1572298494853522
0.18617557811437727
0.2187424746616254
0.24474041693129864
0.25338213983422386
0.24105143659915174
0.21409781994271285
0.1821309161083441
0.15173361723465575
0.12601767715842785
0.1049961436147015
0.0846616769269263
0.06506295993166139
0.04504433909371121
0.027344181989325617
0.022019350291430158
0.032022266958861095
0.04364351758474982
0.050233693038683386
0.04952086486875432
0.038480861942127326
0.018384629052199824
0.010904299942497324
0.04423409776234749
0.07803695070536983
0.10861709563010213
0.13421338941440036
0.15527525653306398
0.1764344716688311
0.20384344778980928
0.24233125539640138
0.28972980270631754
0.3334180220163036
0.3533082446501833
0.337200783261915
0.29136919138607364
0.23248762181933047
0.17453561213143157
0.12479224220977991
0.0847944562377808
0.05658870941913247
0.046675449208534725
0.055559914384234216
0.0704993880680351
0.0
SCALARS Torsion float 1
LOOKUP_TABLE default
0.0
0.0
0.008152494895187752
0.017211562542713457
0.05873134824286833
0.6863122507532209
0.3280720790809273
0.05061084793306636
0.02242749800746538
0.023159419462775853
0.04110971002946674
0.08074976233012321
0.15011824209288863
0.2494805102065625
0.3425390607248956
0.35575970079687214
0.2713372104608469
0.1501331052527074
0.04542530803575724
-0.028714683573992247
-0.06890160994236069
-0.0730133614875801
-0.019004619331868026
0.24728384036972312
0.9660402882725633
0.6591426831060241
0.1792388969610511
0.04445725827841926
-0.00686414740076851
-0.03501987082788755
-0.05660920909678912
-0.07967985980944688
-0.10443560342375563
-0.126274673909225
-0.14282479113297344
-0.14259121681278872
-0.1279485762605325
-0.11200968841202001
-0.10544336818668724
-0.1274076448522896
-0.20738735361467373
-0.36847721872611977
-0.5484364704552562
-0.5543791590426994
-0.3541057257519148
-0.15925903792448323
-0.07915212424699428
-0.046397743186861344
-0.0546982499392935
-0.08802600703779359
-0.11517706763826369
-0.14377684913816616
-0.15931426789826864
-0.1713444618452536
-0.18103002614841057
-0.19142358833700823
-0.20679625143762081
-0.2242906347526323
-0.24099665737632603
-0.2589554579316415
-0.28146691467520696
-0.3142866258236807
-0.3690521463053728
-0.47284850561908254
-0.7407987108872411
-0.9996960702629293
-0.47400166952765155
-0.2102122841770135
-0.12851284755704517
-0.05787064830554421
0.008895586772913924
0.08274068639745234
0.16525323111488777
0.2478321560622488
0.30591293858944096
0.3138452827449796
0.2708124452048907
0.20266736717250342
0.12644776886703676
0.05218106587833164
-0.019371305148301196
-0.09222939176599958
-0.16138222779927475
-0.21442696398001562
-0.2404181019917126
-0.2315487933462914
-0.19832643252158333
-0.11573951417789236
0.07204074867227572
0.6226247987598371
0.884518763797866
0.4737910960674279
0.07134497004871526
-0.12005594077255412
-0.2236540437123385
-0.30048070235290425
-0.628674949072424
-0.71945125838227
-0.11708191708924287
-0.10608819613482934
-0.1259365980518423
-0.15738552221145866
-0.2039107559175105
-0.24143664402872314
-0.27145892762424106
-0.25605708132179866
-0.21574046066414904
-0.16104016944539712
-0.10580522352280526
-0.05738885403856034
-0.005975671667308474
0.043423200432765034
0.10495400898151731
0.2008583647118997
0.3802296877072862
0.6678963981354689
0.7892549989210486
0.5642665711882966
0.3028218489284812
0.0
SCALARS Distance_to_V float 1
LOOKUP_TABLE default
0.0
0.6711941670945009
1.2854566611830984
1.872169848992329
2.4496515811804564
3.025884462431928
3.6008570075073227
4.169708650496153
4.725897269186943
5.263767176114126
5.780078444635551
6.274261517373316
6.747611795033984
7.20172309654959
7.636934732017827
8.051301009066503
8.440526000730605
8.798917797033791
9.120958520467488
9.403408150325342
9.647266981889882
9.859275294024796
10.052293312174262
10.244172029052677
10.454916347818996
10.702509670978053
10.998510138913614
11.344744805117138
11.73240507608386
12.143701073947728
12.555351498479421
12.942509429067684
13.282344971632439
13.556292241790562
13.750869606804969
13.858326743952258
13.876646479553022
13.809501098096742
13.666072758235428
13.459984306545625
13.207654706530287
12.925943029921253
12.629484988798009
12.32902292685266
12.030934693710805
11.737627882662476
11.448836900515197
11.163599062230098
10.881192335616154
10.60204570236905
10.32842064009296
10.0642407805265
9.815171458933387
9.588167312609626
9.391320742491756
9.23355026568226
9.123906394768648
9.070649370601767
9.079767050387728
9.153328242448566
9.288695216745278
9.478524871093349
9.711951973516669
9.976372129354898
10.259299535991131
10.549727352424634
10.838899031462573
11.120281196757501
11.389046296561155
11.641685952751248
11.874834515832807
12.084920781959394
12.267702483386358
12.417982354513825
12.529563581416788
12.59542816932673
12.608015586647225
12.559640885685946
12.443497429873181
12.254565247380267
11.990723555160399
11.653519406715416
11.248107424646594
10.782720464894396
10.2679627153475
9.715672371197241
9.137636345372997
8.545309808616478
7.948450547654825
7.354849855205603
6.769767924787845
6.195667021959813
5.632276615509854
5.077011672643878
4.526207897761343
3.9764727874618218
3.427623028131261
2.8849687554058883
2.364385006541034
1.9012239250339185
1.564580175539902
1.452430067565046
1.6026726284419472
1.9306889761403896
2.32713176627328
2.7180736500841287
3.05768677388594
3.3156099774068744
3.4718177216635495
3.5155228403633725
3.444798865214039
3.265827635941924
2.991681884525859
2.6404956621159643
2.233047865395885
1.7904347989236697
1.3319597525113256
0.8737335041365966
0.42733861260595113
0.0
SCALARS Local_Extrema int 1
LOOKUP_TABLE default
0
0
0
0
0
0
0
0
0
0
0
0
0
0
0
0
0
0
0
0
0
0
0
0
0
0
0
0
0
0
0
0
0
0
0
0
1
0
0
0
0
0
0
0
0
0
0
0
0
0
0
0
0
0
0
0
0
-1
0
0
0
0
0
0
0
0
0
0
0
0
0
0
0
0
0
0
1
0
0
0
0
0
0
0
0
0
0
0
0
0
0
0
0
0
0
0
0
0
0
0
0
-1
0
0
0
0
0
0
0
1
0
0
0
0
0
0
0
0
0
0
