# vtk DataFile Version 3.0
Curve with Curvature, Torsion, Distance to V, and Extrema
ASCII
DATASET POLYDATA
POINTS 120 float
0.0 0.0 0.0
-0.20108634233474731 -0.7129364013671875 -0.16883301734924316
-0.48348677158355713 -1.3862972259521484 -0.2822580337524414
-0.8332006931304932 -2.020906448364258 -0.34146857261657715
-1.2362965941429138 -2.6175785064697266 -0.3480353355407715
-1.679175078868866 -3.1771488189697266 -0.304671049118042
-2.1491358876228333 -3.7004318237304688 -0.21653056144714355
-2.635238230228424 -4.1881818771362305 -0.09281373023986816
-3.1290329098701477 -4.641252517700195 0.05182361602783203
-3.6247976422309875 -5.061007499694824 0.1967313289642334
-4.118878662586212 -5.449862480163574 0.31624293327331543
-4.6081536412239075 -5.811793327331543 0.3824801445007324
-5.087796986103058 -6.152376174926758 0.36955761909484863
-5.549509823322296 -6.478271484375 0.25766682624816895
-5.980573952198029 -6.795993804931641 0.03605222702026367
-6.3645694851875305 -7.110495567321777 -0.2958667278289795
-6.683555424213409 -7.424188613891602 -0.7293088436126709
-6.9212687611579895 -7.736701011657715 -1.2479848861694336
-7.066149055957794 -8.045466423034668 -1.8305740356445312
-7.113533794879913 -8.34665584564209 -2.453549385070801
-7.0665252804756165 -8.636268615722656 -3.094095230102539
-6.935267269611359 -8.911235809326172 -3.7326912879943848
-6.7349355816841125 -9.170492172241211 -4.35497522354126
-6.482866585254669 -9.415889739990234 -4.952578544616699
-6.195322811603546 -9.65257740020752 -5.5228071212768555
-5.884618103504181 -9.888731956481934 -6.067517280578613
-5.557603180408478 -10.134883880615234 -6.591304779052734
-5.21611100435257 -10.402589797973633 -7.099649429321289
-4.859322369098663 -10.70300579071045 -7.596975326538086
-4.486997902393341 -11.046060562133789 -8.084917068481445
-4.1021817326545715 -11.4382643699646 -8.56052017211914
-3.712421238422394 -11.88235330581665 -9.014784812927246
-3.3292248845100403 -12.375576496124268 -9.431756019592285
-2.966142237186432 -12.90884780883789 -9.788819313049316
-2.6360989212989807 -13.466163158416748 -10.058770179748535
-2.3490429520606995 -14.025325298309326 -10.213401794433594
-2.110408127307892 -14.55985164642334 -10.228930473327637
-1.920917570590973 -15.04168701171875 -10.090757369995117
-1.7775370478630066 -15.445098638534546 -9.797677993774414
-1.6753684878349304 -15.750945329666138 -9.363062858581543
-1.609710156917572 -15.949263572692871 -8.812972068786621
-1.5776693224906921 -16.041282176971436 -8.181699752807617
-1.5788463950157166 -16.03932547569275 -7.50599479675293
-1.6148951649665833 -15.964272260665894 -6.819317817687988
-1.6884133219718933 -15.842972755432129 -6.14724063873291
-1.801587164402008 -15.704492092132568 -5.504920959472656
-1.955029308795929 -15.577158689498901 -4.8966875076293945
-2.1471312642097473 -15.485894680023193 -4.317646026611328
-2.3738768696784973 -15.449848651885986 -3.7569141387939453
-2.629319489002228 -15.480719327926636 -3.2016239166259766
-2.9066370129585266 -15.581900119781494 -2.6410622596740723
-3.1995487809181213 -15.750627756118774 -2.069950580596924
-3.50346976518631 -15.97989010810852 -1.490114688873291
-3.816191256046295 -16.261427640914917 -0.910433292388916
-4.137527763843536 -16.588353872299194 -0.34494566917419434
-4.468284904956818 -16.956053972244263 0.19016528129577637
-4.808842480182648 -17.361945629119873 0.6802046298980713
-5.157938301563263 -17.804880023002625 1.1153652667999268
-5.511961758136749 -18.282773554325104 1.493196725845337
-5.864761650562286 -18.79240646958351 1.8195841312408447
-6.207991898059845 -19.328393548727036 2.1080031394958496
-6.531839668750763 -19.883747577667236 2.377207338809967
-6.825880348682404 -20.451136469841003 2.6475995779037476
-7.080076515674591 -21.024309873580933 2.937138170003891
-7.28554230928421 -21.599098443984985 3.2576488070189953
-7.434904873371124 -22.17380666732788 3.612440586090088
-7.522227585315704 -22.748600721359253 3.9961687326431274
-7.542503178119659 -23.32406187057495 4.396750092506409
-7.491189777851105 -23.89918279647827 4.798799157142639
-7.364082157611847 -24.470377445220947 5.187333464622498
-7.157820045948029 -25.030144691467285 5.550778865814209
-6.870857059955597 -25.568689823150635 5.882609128952026
-6.504532635211945 -26.07456350326538 6.1815948486328125
-6.063611805438995 -26.536745071411133 6.450781583786011
-5.556032478809357 -26.946274280548096 6.695828199386597
-4.991900742053986 -27.297636032104492 6.923103332519531
-4.382214367389679 -27.589618682861328 7.137956619262695
-3.737631857395172 -27.826072692871094 7.343664646148682
-3.067590057849884 -28.015195846557617 7.540984153747559
-2.379850685596466 -28.168587684631348 7.728488922119141
-1.6804152131080627 -28.299199104309082 7.903518199920654
-0.9737361073493958 -28.418463706970215 8.06343126296997
-0.2632499635219574 -28.53431510925293 8.207094669342041
0.448064386844635 -28.648980140686035 8.336021900177002
1.1571422815322876 -28.758655548095703 8.45506238937378
1.8605090975761414 -28.853410720825195 8.5721435546875
2.5543591380119324 -28.919754028320312 8.697216510772705
3.234825313091278 -28.94242572784424 8.840472221374512
3.898617923259735 -28.90837574005127 9.010409832000732
4.543634593486786 -28.80914878845215 9.212137699127197
5.169404685497284 -28.643001556396484 9.446614742279053
5.777279555797577 -28.415388107299805 9.710864067077637
6.370283305644989 -28.138585090637207 9.999110221862793
6.952689349651337 -27.82968044281006 10.304401397705078
7.529479682445526 -27.509089469909668 10.620347023010254
8.105635821819305 -27.19791316986084 10.942355155944824
8.685404002666473 -26.916338443756104 11.268453598022461
9.271434009075165 -26.68140697479248 11.59902286529541
9.863984286785126 -26.505829334259033 11.936280250549316
10.460188090801239 -26.397088050842285 12.283193588256836
11.053651034832 -26.358094215393066 12.642095565795898
11.634779155254364 -26.388941287994385 13.013671875
12.19137591123581 -26.48898410797119 13.396434783935547
12.709790408611298 -26.65880537033081 13.786206245422363
13.176902949810028 -26.900816440582275 14.177395820617676
13.58165568113327 -27.218032360076904 14.56356430053711
13.916988551616669 -27.61183738708496 14.939038276672363
14.180191218852997 -28.08015251159668 15.300026893615723
14.373984515666962 -28.616539001464844 15.644858360290527
14.50573080778122 -29.21027946472168 15.97425365447998
14.586555659770966 -29.847806930541992 16.29081439971924
14.630421817302704 -30.51472568511963 16.598670959472656
14.65231055021286 -31.19607639312744 16.90324306488037
14.666927516460419 -31.878280639648438 17.211142539978027
14.6880504488945 -32.54838943481445 17.529972076416016
14.72776049375534 -33.19461250305176 17.86872959136963
14.79687613248825 -33.80571269989014 18.237135887145996
14.905323207378387 -34.37097454071045 18.64535140991211
15.062581241130829 -34.87961387634277 19.104134559631348
15.2778999209404 -35.32109832763672 19.62410068511963
LINES 1 121
120 0 1 2 3 4 5 6 7 8 9 10 11 12 13 14 15 16 17 18 19 20 21 22 23 24 25 26 27 28 29 30 31 32 33 34 35 36 37 38 39 40 41 42 43 44 45 46 47 48 49 50 51 52 53 54 55 56 57 58 59 60 61 62 63 64 65 66 67 68 69 70 71 72 73 74 75 76 77 78 79 80 81 82 83 84 85 86 87 88 89 90 91 92 93 94 95 96 97 98 99 100 101 102 103 104 105 106 107 108 109 110 111 112 113 114 115 116 117 118 119
POINT_DATA 120
SCALARS Curvature float 1
LOOKUP_TABLE default
0.0
0.19030742072943194
0.1769866791457341
0.16059000049172578
0.14343980438555626
0.1258987348511483
0.10645290627590095
0.08306645288717995
0.061093136728722686
0.07653964124451614
0.1435516329504487
0.22829661344093702
0.29686004550410616
0.3250064189617814
0.31516107452247455
0.28741110812398324
0.25772201013457524
0.23196019562974593
0.20985255334188613
0.18929657701941904
0.16844799521039044
0.1459221734925379
0.12107822034256799
0.09523437933063265
0.07319462623871138
0.0631623466101005
0.06684623690657943
0.0749494507972036
0.08173981185503959
0.08646734821043511
0.0941556887915679
0.10859388436478559
0.13554227772591443
0.18359256789085054
0.26680615147492825
0.39221108426160123
0.5260171977722993
0.5819300892390225
0.5213492704011596
0.4011439973295726
0.29168156070757606
0.2145917595023866
0.16379005273614333
0.12909281535576686
0.11011476744884817
0.11614503720249933
0.14801290284148602
0.18133277435178263
0.19058326815988585
0.17093926255316083
0.13940047275404222
0.11011378841315905
0.09160239654104545
0.08753257797249524
0.09696972648694421
0.11414534431722223
0.13023193618336087
0.13448264295375104
0.12254884212637615
0.09636379431748686
0.06875388193056886
0.06653192204451336
0.0931197391229723
0.1209009149214348
0.13609656730440753
0.13913860504836945
0.13861309025315194
0.1431814500504231
0.15487023340400508
0.17008125494280316
0.18282689265302493
0.18916507580573266
0.18754660989009536
0.17900642395469993
0.16543531106950832
0.1481073472392272
0.12660559956173836
0.10211166446017982
0.07606846045687737
0.052446654548932686
0.037368353302533214
0.03160315098087902
0.02738432208258591
0.01954590391780139
0.027130395031372347
0.058067530142400306
0.09877096757482808
0.13622326042806973
0.15916151588124278
0.1595828369856741
0.13925554393446515
0.10578623524239374
0.06772293612132603
0.02974077365324023
0.020774882547583813
0.0561429026857088
0.09142585641260992
0.12000490467756006
0.13771372143785365
0.1457301454241068
0.14998115490308414
0.15774037662107332
0.1749730277625186
0.20217940410170016
0.2319068774597888
0.24881594453727524
0.24194418896408923
0.21066260634407172
0.16662098168941697
0.12133890978871374
0.0797601106677029
0.043059745735924054
0.01389679065376414
0.029894633780083744
0.06464903627928019
0.10325830870313651
0.14347102103534443
0.18062533641706202
0.20397922092703283
0.0
SCALARS Torsion float 1
LOOKUP_TABLE default
0.0
0.0
-0.08475086937752457
-0.10284922954754792
-0.11220424155767014
-0.09440861061693794
-0.013548924902914011
0.23413368572541313
0.7677733369387425
0.7847440393771261
0.4074635460628917
0.2296144616740533
0.17837698066224494
0.1727446970174972
0.17768743443881496
0.17443094151443175
0.15606348399646552
0.12992632770846727
0.10282028237635873
0.07972653136464018
0.06449469407652243
0.06455805899421381
0.10029553320599131
0.2147277187121979
0.4371898157524305
0.5821111693536827
0.4482548986440126
0.24884313462593843
0.1486288744834014
0.10271060944020405
0.07578777153916372
0.0298330235382653
-0.02580259930696404
-0.07824159097134878
-0.1151399066550264
-0.1339269853652721
-0.14098537813208123
-0.1366396375375304
-0.11899983267380355
-0.08736558885374844
-0.032158586725976226
0.05573256602525574
0.18950492449783857
0.4053022833185006
0.6418111478265268
0.6994427078077904
0.5616332043002417
0.4091383834056429
0.31285727152110304
0.2475040697370731
0.1796985709785915
0.07084047067836316
-0.0863392980273078
-0.19348103051690901
-0.1804443388784688
-0.10661188023319812
-0.028985139888439662
0.033861702297138835
0.13166447129582645
0.3267855665310028
0.6970889779561564
0.7701033551803086
0.4389617952299721
0.170667850202456
0.0017613763249797743
-0.1302399992793224
-0.2244552440578197
-0.2370187777288067
-0.17522084325977486
-0.07346440770859688
0.011251622693200361
0.08298874473455385
0.12945502331056682
0.15516362844430467
0.1576481459649911
0.13539853064634877
0.08749364174044574
0.008983736492377811
-0.13141114028460082
-0.3824073986066939
-0.6198235288652757
-0.5815969392621798
-0.22768987344365615
0.6101481979283994
0.7142225857392501
0.26251648039386105
0.0961951514620169
0.04358680327282476
0.01523501556916737
0.0016121533970762034
-0.005003798538481565
0.008152809277143366
0.07790560487246367
0.6520402018432051
0.9596190433725
0.2315993879582816
0.038166609029685244
-0.029704771966487097
-0.06962731186141827
-0.09711224793426944
-0.1095643654620723
-0.10041482192450277
-0.058408380732243644
-0.017406203368346085
0.012949035842158747
0.022515823602860655
0.014489558039238385
0.009429135325702128
-0.007325683292599866
-0.02638728491564806
-0.05715646416900619
-0.2511600838782435
-0.9918469862611886
-0.5615900682881755
-0.11209175882103622
-0.026755552023175783
-0.00267994052991187
0.00710664620728327
0.005579518369443394
0.0
SCALARS Distance_to_V float 1
LOOKUP_TABLE default
0.0
0.62280999157962
1.240651113241058
1.857056002699255
2.472753570247813
3.0865160352958796
3.696225153875738
4.300000215812432
4.897020242961295
5.4877648884630075
6.0735167650156345
6.655426103751688
7.233323761671129
7.805117752309851
8.366391896731562
8.910644010847157
9.43014759959117
9.917375683047377
10.366456914352618
10.774320454472774
11.141360969000608
11.471498929992128
11.771850068880749
12.052079821057195
12.323312629653346
12.59687484448677
12.883307385443949
13.191772785929814
13.529736102819177
13.902729114384588
14.312290369918617
14.754153062859846
15.215484923780723
15.673660758650504
16.09715887116424
16.449133557118795
16.69347795108198
16.800843284034126
16.754576153706175
16.554171231800733
16.21514204378449
15.766476612879686
15.24589319287031
14.693757755867496
14.1479141912938
13.63950536798918
13.190920744724306
12.815498489798104
12.51855007587693
12.299289288491694
12.153241701947492
12.075685142642573
12.063597377812817
12.116885527860056
12.237892497321189
12.429312288787978
12.691580772797398
13.02105825284424
13.40853183666035
13.83989774687909
14.297011868976709
14.759632453077614
15.207757824285506
15.624033833457823
15.995518049982484
16.314373747672743
16.5770651843743
16.782342654138493
16.928861171254006
17.013846220018788
17.03252292985512
16.97971202030027
16.851165916677857
16.6452049871399
16.363448553945098
16.010836040888552
15.59523695174962
15.127055344738837
14.618381153835992
14.08225065369447
13.531492181399841
12.977241492278143
12.4279537736054
11.888192936565018
11.358253440674309
10.833835493694057
10.307118553907564
9.767858539792242
9.205961324869325
8.613623067996647
7.987292196467879
7.328426670910324
6.643340932944221
5.941834369962859
5.236015076926104
4.5388967474107
3.864071425654906
3.2261915832001367
2.6429862347133155
2.1389771732080067
1.750346111645749
1.521222468873276
1.4719130506449931
1.5614074582490507
1.710921787435832
1.8531996635448245
1.9470966118688584
1.972188068225638
1.9236424878945855
1.807621631289273
1.6380464965111645
1.4339458332105703
1.2167117834143688
1.007190301626746
0.8225989128140166
0.6701706293501368
0.5412300577905557
0.4101013781127677
0.24134714780083386
0.0
SCALARS Local_Extrema int 1
LOOKUP_TABLE default
0
0
0
0
0
0
0
0
0
0
0
0
0
0
0
0
0
0
0
0
0
0
0
0
0
0
0
0
0
0
0
0
0
0
0
0
0
1
0
0
0
0
0
0
0
0
0
0
0
0
0
0
-1
0
0
0
0
0
0
0
0
0
0
0
0
0
0
0
0
0
1
0
0
0
0
0
0
0
0
0
0
0
0
0
0
0
0
0
0
0
0
0
0
0
0
0
0
0
0
0
0
0
-1
0
0
0
0
1
0
0
0
0
0
0
0
0
0
0
0
0
