# vtk DataFile Version 3.0
Curve with Curvature, Torsion, Distance to V, and Extrema
ASCII
DATASET POLYDATA
POINTS 120 float
0.0 0.0 0.0
-0.7402076721191406 0.02667236328125 0.30971717834472656
-1.4419965744018555 -0.0957794189453125 0.6813850402832031
-2.096198081970215 -0.3291511535644531 1.0863990783691406
-2.707200050354004 -0.6412239074707031 1.5061912536621094
-3.28359317779541 -1.0096321105957031 1.9295368194580078
-3.834320068359375 -1.4196548461914062 2.3489151000976562
-4.367774963378906 -1.861907958984375 2.7578067779541016
-4.892228126525879 -2.3308334350585938 3.1482067108154297
-5.4164934158325195 -2.8245811462402344 3.506824493408203
-5.950534820556641 -3.346668243408203 3.8051204681396484
-6.501568794250488 -3.9053001403808594 3.9742488861083984
-7.038784027099609 -4.485736846923828 3.869150161743164
-7.466178894042969 -5.006397247314453 3.437885284423828
-7.7804718017578125 -5.453125 2.8482017517089844
-8.035585403442383 -5.871501922607422 2.2101268768310547
-8.2601900100708 -6.290287017822266 1.5608406066894531
-8.46491813659668 -6.724033355712891 0.9148235321044922
-8.651626586914062 -7.181247711181641 0.2796516418457031
-8.815823554992676 -7.66691780090332 -0.34039306640625
-8.946224212646484 -8.18332290649414 -0.9433231353759766
-9.026416778564453 -8.729400634765625 -1.528493881225586
-9.036951065063477 -9.300834655761719 -2.094369888305664
-8.962162971496582 -9.888479232788086 -2.638202667236328
-8.793065071105957 -10.479942321777344 -3.1560802459716797
-8.531689643859863 -11.062850952148438 -3.6445751190185547
-8.191780090332031 -11.629705429077148 -4.102901458740234
-7.79063606262207 -12.179454803466797 -4.531837463378906
-7.344898223876953 -12.716695785522461 -4.931770324707031
-6.868782997131348 -13.250627517700195 -5.299919128417969
-6.374874114990234 -13.795488357543945 -5.626070022583008
-5.878314971923828 -14.372678756713867 -5.884634017944336
-5.411828994750977 -15.01327896118164 -6.008996963500977
-5.07921028137207 -15.717798233032227 -5.85188102722168
-5.018383026123047 -16.33887481689453 -5.35795783996582
-5.164673805236816 -16.79414176940918 -4.713981628417969
-5.419435501098633 -17.128673553466797 -4.028982162475586
-5.740241050720215 -17.376508712768555 -3.3344688415527344
-6.11000919342041 -17.55112648010254 -2.641916275024414
-6.5215606689453125 -17.65311050415039 -1.9584999084472656
-6.971199035644531 -17.673871994018555 -1.292123794555664
-7.454178810119629 -17.59901237487793 -0.6537933349609375
-7.961330413818359 -17.409883499145508 -0.05971336364746094
-8.474754333496094 -17.094018936157227 0.47153282165527344
-8.970076560974121 -16.65582847595215 0.9280624389648438
-9.42647647857666 -16.118488311767578 1.3144588470458984
-9.834198951721191 -15.512264251708984 1.6508026123046875
-10.192854881286621 -14.86337661743164 1.962991714477539
-10.504813194274902 -14.190034866333008 2.273700714111328
-10.771723747253418 -13.505077362060547 2.6005325317382812
-10.992674827575684 -12.819097518920898 2.95794677734375
-11.163311958312988 -12.143583297729492 3.359832763671875
-11.274821281433105 -11.494577407836914 3.821287155151367
-11.312764167785645 -10.898412704467773 4.358860015869141
-11.2573823928833 -10.400108337402344 4.985818862915039
-11.092450141906738 -10.064239501953125 5.694952011108398
-10.826325416564941 -9.938919067382812 6.440898895263672
-10.493264198303223 -10.009458541870117 7.168048858642578
-10.124701499938965 -10.223102569580078 7.849661827087402
-9.73658561706543 -10.530778884887695 8.483298301696777
-9.333711624145508 -10.898859024047852 9.074319839477539
-8.91455364227295 -11.307931900024414 9.62583065032959
-8.474106788635254 -11.747692108154297 10.135510444641113
-8.004226684570312 -12.216609954833984 10.589622497558594
-7.495182991027832 -12.722734451293945 10.950870513916016
-6.951411247253418 -13.28489875793457 11.120862007141113
-6.475915908813477 -13.889978408813477 10.9258451461792
-6.219182968139648 -14.457319259643555 10.423260688781738
-6.134998321533203 -14.992132186889648 9.829228401184082
-6.149347305297852 -15.530385971069336 9.23171329498291
-6.221999168395996 -16.09054946899414 8.658935546875
-6.3298845291137695 -16.680931091308594 8.12324047088623
-6.458270072937012 -17.30531883239746 7.632539749145508
-6.597172737121582 -17.96569061279297 7.1947479248046875
-6.7398176193237305 -18.663938522338867 6.821969032287598
-6.881329536437988 -19.40289878845215 6.538664817810059
-7.016417503356934 -20.180681228637695 6.390972137451172
-7.134865760803223 -20.971755981445312 6.445796966552734
-7.220453262329102 -21.713790893554688 6.7367753982543945
-7.2628326416015625 -22.363113403320312 7.207526206970215
-7.2612714767456055 -22.933759689331055 7.774086952209473
-7.216625213623047 -23.45847225189209 8.382233619689941
-7.127246856689453 -23.962871551513672 9.002598762512207
-6.9892778396606445 -24.462892532348633 9.617547988891602
-6.796607971191406 -24.96666145324707 10.214388847351074
-6.543089866638184 -25.475996017456055 10.782997131347656
-6.222321510314941 -25.98674774169922 11.315117835998535
-5.831209182739258 -26.488280296325684 11.807425498962402
-5.370166778564453 -26.965344429016113 12.262081146240234
-4.844142913818359 -27.401687622070312 12.686083793640137
-4.260928153991699 -27.782011032104492 13.088683128356934
-3.631500244140625 -28.094950675964355 13.479525566101074
-2.967618942260742 -28.33278179168701 13.86628770828247
-2.281325340270996 -28.4936466217041 14.253653049468994
-1.582737922668457 -28.579830169677734 14.64295768737793
-0.879364013671875 -28.59818172454834 15.032877445220947
-0.17563772201538086 -28.557066917419434 15.420542240142822
0.5266313552856445 -28.466740608215332 15.802563190460205
1.2275910377502441 -28.33717441558838 16.175676345825195
1.92854642868042 -28.177844047546387 16.537150382995605
2.631227731704712 -27.99776840209961 16.885323524475098
3.337113618850708 -27.804424285888672 17.219645977020264
4.046880841255188 -27.603360176086426 17.5409574508667
4.760277152061462 -27.39793300628662 17.851295471191406
5.476486325263977 -27.189451217651367 18.153003931045532
6.194560036063194 -26.97803783416748 18.44817328453064
6.913948833942413 -26.763663291931152 18.737956523895264
7.634621262550354 -26.54710102081299 19.022884130477905
8.357092142105103 -26.330349922180176 19.3030743598938
9.082423210144043 -26.11722183227539 19.578608512878418
9.812224864959717 -25.91425132751465 19.8499493598938
10.548364639282227 -25.7311429977417 20.11820614337921
11.292387008666992 -25.581369400024414 20.385223150253296
12.044324398040771 -25.482982635498047 20.653606414794922
12.80045223236084 -25.460087776184082 20.92658644914627
13.549177169799805 -25.54214859008789 21.207358241081238
14.265684127807617 -25.76035499572754 21.49777862429619
14.910441398620605 -26.13387393951416 21.796808823943138
15.443796157836914 -26.65132713317871 22.10091243684292
15.846117973327637 -27.275240898132324 22.40795385837555
LINES 1 121
120 0 1 2 3 4 5 6 7 8 9 10 11 12 13 14 15 16 17 18 19 20 21 22 23 24 25 26 27 28 29 30 31 32 33 34 35 36 37 38 39 40 41 42 43 44 45 46 47 48 49 50 51 52 53 54 55 56 57 58 59 60 61 62 63 64 65 66 67 68 69 70 71 72 73 74 75 76 77 78 79 80 81 82 83 84 85 86 87 88 89 90 91 92 93 94 95 96 97 98 99 100 101 102 103 104 105 106 107 108 109 110 111 112 113 114 115 116 117 118 119
POINT_DATA 120
SCALARS Curvature float 1
LOOKUP_TABLE default
0.0
0.25017880320548913
0.19067827589792663
0.1394748645612041
0.10185908816323343
0.07559896793205056
0.05867795666919646
0.051969996397127356
0.06220816950213952
0.10370431173025223
0.20643462279664487
0.4032116690925374
0.4870103339751452
0.3083419052789359
0.12508303780623362
0.05015525817908664
0.03873471645218253
0.048633251054815765
0.06063967461898165
0.07520011451100225
0.09387901133835345
0.1177426939831302
0.13747778764800506
0.14997102603871193
0.14892862303792298
0.13142872132579916
0.10770639926969941
0.08417537270533036
0.06798225202433644
0.07231692788874225
0.11533115829704313
0.23037049073218707
0.45878098277971197
0.5837718036584647
0.43265241763885837
0.25190038404191223
0.1671528062040036
0.13515667355629457
0.12940543912836194
0.14006130676270936
0.16083937670851928
0.1904644938156154
0.21508616158921623
0.2191917275666406
0.19415231544524222
0.15016379304624666
0.10666242737372202
0.0812477655897719
0.07589079594502442
0.08506794578727808
0.1045789435326005
0.13511153690180305
0.18074215053800397
0.24527264011920233
0.3165138512576738
0.348533210856041
0.30902571265124223
0.2332352991016213
0.1640736421288763
0.11582854155928705
0.09117813562077588
0.08638616996519945
0.10665191393472043
0.164545627454423
0.3039461328990091
0.5218328228779288
0.5175227432332922
0.2944352170506855
0.15098356265019308
0.10309332381290459
0.09148276317657593
0.09240421522615949
0.09980455989937254
0.11581981104916898
0.15068618897722927
0.2147857266653749
0.3045011302132953
0.35787030634809064
0.30740995841177016
0.1998676194601063
0.11593938885541119
0.07801346552673956
0.07566427513368269
0.08893886226949235
0.10357251965633718
0.11761501387985118
0.1249489470768199
0.12760488883840673
0.1268132861765457
0.12724248753754194
0.12676075985813337
0.12703591567199238
0.12313292666445298
0.11635432514546024
0.10460601765469377
0.09162535556564672
0.07637193928440042
0.062090750108652976
0.049315393969958245
0.03813377688218716
0.03002500128207411
0.024118218122504965
0.01907836937297904
0.014790010670109273
0.011436188816031976
0.00970776655537782
0.00846096911312983
0.007831706730335793
0.010126060613207652
0.01832169453743501
0.03254112463995393
0.05289343237043884
0.08016378869583753
0.11647100554991699
0.1615387371473766
0.2132243100636525
0.2582974623478487
0.2734579231952717
0.254394212284597
0.0
SCALARS Torsion float 1
LOOKUP_TABLE default
0.0
0.0
-0.047937505684110975
-0.07345804682068117
-0.11521627881459616
-0.18786826025451187
-0.3076488677610144
-0.43043513327512756
-0.3806364448376683
-0.1890424167500066
-0.05878638552719981
-0.004708566659138248
0.025604867105504615
0.12003380843066624
0.4623822574713278
0.8963095650290259
0.8140971405087409
0.3193139026423152
0.011802785017932416
-0.14508116271942278
-0.18705872241183874
-0.15743361893998836
-0.12414534782073354
-0.09683258452647511
-0.0712146848291833
-0.0366914831417745
0.025578287829532455
0.1572059241843138
0.38847513725311955
0.48574072622193043
0.28885898709133695
0.11187979737812209
0.04158962910303389
0.023580248403573516
0.02866585825191132
0.03779797008596953
0.025300225772056064
0.003059917919676143
-0.018708312847143214
-0.03489420016028534
-0.045032172321379044
-0.05190553838653567
-0.06465304132895303
-0.09086859860042275
-0.1419534067583075
-0.24600766170628297
-0.424126388256306
-0.5537268451355456
-0.49659054711833034
-0.33466707153271835
-0.20412019730403244
-0.12553062314715363
-0.08259283613719999
-0.05999372430133407
-0.04781732177875479
-0.039632347570998226
-0.02750224973725593
-0.0001656849127553879
0.0552764345029267
0.1415994089438205
0.22647187592400136
0.23262065183754096
0.12156477070018133
0.008195050378117533
-0.05830077857074599
-0.10347531642706277
-0.23286364485124122
-0.588829397271394
-0.7944254076865821
-0.7126157284728417
-0.5104743452010131
-0.3256445520446875
-0.19802320179955274
-0.10595101353532799
-0.04048079748298812
-0.006504881489619613
-0.00028355745616438777
-0.014488703728202497
-0.06631567999564718
-0.22459380125860529
-0.5145880213756548
-0.6977304187373945
-0.5334939509098937
-0.25626850582361943
-0.09116550946882251
0.010939563014596643
0.10554122090799496
0.18701147480222055
0.2400871413286848
0.2557755030182684
0.24226654879923154
0.20096575953736895
0.1530662702020218
0.0967564340457156
0.04200199420438451
-0.013916409471858217
-0.07389641860224297
-0.14214261322509317
-0.2241960081801447
-0.31787373752358106
-0.37476780860214265
-0.3497161811899803
-0.24134674901493375
-0.05423263796739844
0.14165849875149755
0.13071401924495882
-0.11516895870388327
-0.4673329715750658
-0.5224677900365331
-0.30502061914813977
-0.1625068727245277
-0.09865503394034275
-0.06968670429022665
-0.05546827851450112
-0.049382986186123135
-0.04881150818514832
-0.056554891844243504
-0.07439240527405336
-0.1036254434780412
0.0
SCALARS Distance_to_V float 1
LOOKUP_TABLE default
0.0
0.7900728051167503
1.5925828585704198
2.3838293702567923
3.1563010104287574
3.9102193305904898
4.648606249575213
5.375257110359744
6.094129635998094
6.808896429780325
7.521238087949019
8.221645809493918
8.847911922026777
9.303957554411834
9.646866071593097
9.970030959568469
10.315614313024357
10.698300242708923
11.120858760097914
11.5786797569327
12.060795714713413
12.551685529487195
13.033064113291486
13.487816963260126
13.902221687533245
14.27049716361776
14.598041351617269
14.896151179067175
15.178066362785163
15.456034159195692
15.739778766891503
16.035204747561124
16.33749551908667
16.601595774855557
16.74541746530933
16.79380812473141
16.805395301440253
16.808878382431523
16.816725025428454
16.833546624901953
16.858725512517267
16.88720063411764
16.908462328822218
16.908235654981503
16.872976940987268
16.796323141162997
16.680359453405863
16.53226780716052
16.359520450286386
16.168729367560122
15.965168174250534
15.753106324104914
15.536383362947895
15.319488085352793
15.109483576942994
14.917921335090634
14.756578409182971
14.626552418738372
14.51857681539951
14.420972593571875
14.323271208041099
14.215764379728354
14.08820599022946
13.927565108740843
13.716089993150874
13.437631896980927
13.149014472278445
13.00693911507429
13.038769765641518
13.208641589891865
13.487441173863115
13.853284711596617
14.28865968953772
14.779092532793642
15.312428101492118
15.87694346241757
16.453956873529354
17.002667575246786
17.462022045649963
17.805594023416052
18.055958615019932
18.242548530214275
18.383224957061984
18.48553477695683
18.549330744275842
18.570276161306488
18.54039016593504
18.45077693077927
18.292921242801906
18.06143520780048
17.75367225804299
17.37160786621517
16.91985315544519
16.40668532524628
15.841464850225837
15.234347270800548
14.594101216433133
13.928519843919675
13.243602085882886
12.54397759508455
11.83344329445809
11.114932719663859
10.390805545465222
9.66292104223095
8.932553252979824
8.200578330124648
7.467620861516966
6.734432047137045
6.002060848523921
5.272124341527893
4.547223548065577
3.831368439200263
3.130704903865845
2.4548240231168976
1.8190661101209542
1.2469383265203398
0.7704483326688801
0.4182410003881961
0.1824352226360413
0.0
SCALARS Local_Extrema int 1
LOOKUP_TABLE default
0
0
0
0
0
0
0
0
0
0
0
0
0
0
0
0
0
0
0
0
0
0
0
0
0
0
0
0
0
0
0
0
0
0
0
0
0
0
0
0
0
0
1
0
0
0
0
0
0
0
0
0
0
0
0
0
0
0
0
0
0
0
0
0
0
0
0
-1
0
0
0
0
0
0
0
0
0
0
0
0
0
0
0
0
0
1
0
0
0
0
0
0
0
0
0
0
0
0
0
0
0
0
0
0
0
0
0
0
0
0
0
0
0
0
0
0
0
0
0
0
