# vtk DataFile Version 2.0
3D curve data
ASCII
DATASET POLYDATA
POINTS 119 float
-0.004321962033671427 -0.011102831265727416 -0.008346224594313131
-0.006425855469881116 -0.024266327819252906 -0.01816614123563582
-0.006418387033580117 -0.03908141497556314 -0.02927268256104865
-0.004651351423525379 -0.055030285674218075 -0.041427777128666674
-0.0017156712978735958 -0.07138711661971245 -0.0543110149940476
0.001636827619990194 -0.08742005283098252 -0.06759565550984355
0.004553351644434924 -0.10248044693630567 -0.08096989456678785
0.006218434878994205 -0.11603825523295186 -0.09413618851866175
0.005985309538631312 -0.1277993389895384 -0.10687976719318562
0.0033713434165610428 -0.137726304516214 -0.1190983544745774
-0.0019845858727960595 -0.14599712921626282 -0.1308026545976018
-0.010388422008022473 -0.1529332694569121 -0.14205222965035344
-0.021896653272313264 -0.15889662391967518 -0.15276837140955724
-0.03604642687504085 -0.1644199282953475 -0.1627588051018387
-0.05209530686086445 -0.17020700574243852 -0.17190756421419545
-0.06924481265766508 -0.17685401057700495 -0.18012976460466443
-0.08666665458804892 -0.18469189967100594 -0.18730422871179972
-0.10366964125112513 -0.19378703411406253 -0.1932680480692142
-0.11984844232719845 -0.2039971379297868 -0.19782214077038185
-0.13515027405276495 -0.21503083213455515 -0.20071408293230225
-0.1496674910667804 -0.22648173751475054 -0.20164176904206715
-0.16358329461529625 -0.2379817169006252 -0.2003574593560994
-0.17720699793736333 -0.24932800304674568 -0.19666050015323405
-0.1909280210174864 -0.26050197688112464 -0.19033635848626418
-0.2051110909891683 -0.2715927636026421 -0.18118815208313865
-0.2199930933140739 -0.28271085694403947 -0.16917552399698949
-0.23566610021498802 -0.29394105504054274 -0.15452027875284838
-0.2521740579707282 -0.30538051442855835 -0.13763244765521207
-0.2695771665502303 -0.31730045848419464 -0.11890365988445369
-0.2874350070873747 -0.3301409800493022 -0.09902920936176861
-0.30481845332143714 -0.3440623257716751 -0.07909135171012632
-0.3206864041112987 -0.35904540015067665 -0.059955811277546206
-0.3337615338619717 -0.3747045849195122 -0.0424276445376448
-0.3429559971751451 -0.3902804406407829 -0.027204538459154968
-0.34793469289889917 -0.40513690237043737 -0.014516379111769756
-0.3488075983879019 -0.4190769165562518 -0.004127424579589728
-0.345674201797175 -0.43212090245073453 0.004185561122815565
-0.3385893702922211 -0.44434070487893496 0.01050543815429442
-0.3275353261292421 -0.45570298061086945 0.01475234613480294
-0.3128126046861434 -0.46583242040492906 0.016613114775277906
-0.2955142402443693 -0.4742529366255907 0.01589288783899027
-0.2769861539324444 -0.4807653057796301 0.012715288791333882
-0.2583996657232261 -0.48536958012983733 0.007372722620038736
-0.2405557350821128 -0.4882163716319043 0.0002601430205994529
-0.2238082916528481 -0.48956718101627333 -0.008189423532305297
-0.2081837399874898 -0.4897379755527497 -0.01753351978415766
-0.19355651270808039 -0.4890390510323799 -0.02730463682867986
-0.17974044209674997 -0.48773082982907334 -0.03701536165174929
-0.16649629299480528 -0.48597475529575174 -0.04622739348388923
-0.15348421034949764 -0.4838544000975054 -0.05463597570971216
-0.14030510852846872 -0.4814762755085788 -0.062071027848518395
-0.12664622308743706 -0.4790456893741499 -0.0684336491434265
-0.11234646864327386 -0.47685995329620956 -0.07366185845035622
-0.09744933163527117 -0.4753046302663464 -0.07770787234255798
-0.0822290372266353 -0.47479870001121993 -0.08053947216681191
-0.06710429296012954 -0.47570620522943835 -0.08214948607811119
-0.05251206944673796 -0.4783062599016896 -0.08256011194097577
-0.03881969677629936 -0.48279126839708264 -0.08182970673453735
-0.026280923310783886 -0.48927273952742667 -0.08005267937951835
-0.015036380317538511 -0.49779320010809736 -0.07734829533835005
-0.0051337983243217936 -0.5083057297406608 -0.0738490179401942
0.003465909051483737 -0.5206455559049626 -0.06968225592054822
0.0108734226775476 -0.5345059955436383 -0.06497256872800886
0.017257999613947 -0.5494559566289109 -0.05986197895986838
0.022836674518108252 -0.5649881781113488 -0.05450810245191472
0.02785935438516957 -0.5806198316074147 -0.049051438876471544
0.032587731581352 -0.5959776229793345 -0.043571553845284064
0.03726671533766799 -0.6108289247925114 -0.03806503631151989
0.04209981880302568 -0.6250539434609587 -0.03246365088635271
0.047234236339682364 -0.6386073662092934 -0.02667967835015547
0.05277388318240038 -0.6515029847528102 -0.020639134842574167
0.05879669752331203 -0.6637902874359897 -0.014292723285995073
0.06535708357481498 -0.6755295248268371 -0.007614237765418567
0.07246950522194615 -0.6867764387127986 -0.0005903601356743195
0.08010193639053283 -0.6975720196747597 0.0068038424615709196
0.08818528748263825 -0.7079235279117664 0.01462402287638929
0.0966198319440853 -0.7177684228304626 0.022930091282932705
0.10526781299779263 -0.7269834670352937 0.03175280563695647
0.11394800780098484 -0.7354265780778392 0.041085017463796454
0.12246211563154911 -0.7430130111052731 0.05091959392461265
0.13067559419640043 -0.7497595111000526 0.06131081166265716
0.13856339518520921 -0.7557397077466411 0.0723917082225731
0.14618992749510584 -0.7610177467114889 0.08434992467009621
0.1536719314030988 -0.7655970797275404 0.09737744082315697
0.16114454525263905 -0.7694041687066143 0.11160516301643471
0.16873744076631092 -0.7723153089761338 0.12703742414899546
0.17655949291979306 -0.7742223123086378 0.14353066212564317
0.18468372036259925 -0.7751047172890815 0.1608432878023886
0.19314694618324563 -0.7750513368609155 0.17871625559086943
0.20195247644130615 -0.7742354118098482 0.19693179295145583
0.2110798294747101 -0.7728867888709572 0.21530978361958056
0.22048210101791232 -0.771250755034783 0.23370010722242424
0.23009039843324366 -0.7695585313766035 0.25198561702477396
0.23981759257864405 -0.768001526979408 0.27010784359859435
0.24957468855893353 -0.7667117745364425 0.2880815072007291
0.25928248589944697 -0.7657672958385066 0.305977708853479
0.2688717896916452 -0.7652080078754441 0.3238712045498968
0.2782785339195982 -0.7650451767093138 0.34177909135745066
0.28743748230555016 -0.7652646816424085 0.35961385534825535
0.2962799234554443 -0.7658184180657656 0.37719293035165413
0.3047519814551853 -0.7666327434382838 0.3943082207990786
0.31284254110700843 -0.7676358877732469 0.4108112267224804
0.3205942330062706 -0.7688024645954917 0.42666209092212604
0.3281037657944599 -0.7701836206270883 0.44191876509684097
0.3354959118999511 -0.7719029169284225 0.4566694561313488
0.342886685041548 -0.7741388415373698 0.47096942377474316
0.35036359178029713 -0.7770851488013968 0.48482512280805923
0.3579917245530761 -0.7809321318705664 0.49822014137050175
0.3658254596861702 -0.7858637452501029 0.5111307226942012
0.3739106165186134 -0.792058589225536 0.5235192226165931
0.38227303520225286 -0.799677365624774 0.53530383683827
0.3909042412965805 -0.8088166202466742 0.5463175395972573
0.39975641037883136 -0.8194391394201885 0.5562822323503486
0.40874988397386647 -0.8313382714251817 0.5648353746465549
0.4178174426777032 -0.8441555103750678 0.5715876137525828
0.42694913718553357 -0.8574611314780731 0.5761981897339701
0.4362087416413379 -0.8708298085035115 0.5783974277842026
0.4457240008879307 -0.8839137870911696 0.5780114406210348
0.4556563418232118 -0.8965065035954457 0.5749408253878501
LINES 1 120
119 0 1 2 3 4 5 6 7 8 9 10 11 12 13 14 15 16 17 18 19 20 21 22 23 24 25 26 27 28 29 30 31 32 33 34 35 36 37 38 39 40 41 42 43 44 45 46 47 48 49 50 51 52 53 54 55 56 57 58 59 60 61 62 63 64 65 66 67 68 69 70 71 72 73 74 75 76 77 78 79 80 81 82 83 84 85 86 87 88 89 90 91 92 93 94 95 96 97 98 99 100 101 102 103 104 105 106 107 108 109 110 111 112 113 114 115 116 117 118 
CELL_DATA 1
SCALARS ComponentValue float 1
LOOKUP_TABLE default
1
