# vtk DataFile Version 2.0
3D curve data
ASCII
DATASET POLYDATA
POINTS 119 float
-0.024867077257692882 -0.026621638758683744 -0.023181513669373245
-0.044935252601202326 -0.05432500373341059 -0.04493323457223675
-0.06039380994299315 -0.08140854801184869 -0.0645148339540374
-0.07191105951864174 -0.10658241325900392 -0.08173970880308315
-0.08069568146947106 -0.1296533360442859 -0.09694363377827486
-0.08797985755185289 -0.15070185607563563 -0.1104813981731286
-0.09484526271303989 -0.16982419699538726 -0.12260656060481062
-0.10231803264003166 -0.1872173303811525 -0.1335031336929458
-0.11143048455139232 -0.20320295979933434 -0.1432787149622045
-0.12318696654231129 -0.2182060385825094 -0.15193822431894857
-0.13848158770923433 -0.23272687646271525 -0.15936103300776677
-0.15787319051315377 -0.24727040719574103 -0.165252762857658
-0.18091443798940526 -0.2621863628611571 -0.16920498249511165
-0.20586084800016885 -0.2778523471012834 -0.17117410657336402
-0.230916692003902 -0.2948279365843094 -0.17168166828143028
-0.2549801578886008 -0.31342683905449703 -0.1711777660270722
-0.27704521101125457 -0.3333766620684624 -0.16986133122621735
-0.2964580114334793 -0.3541054400852327 -0.16780473539299745
-0.31318724545910565 -0.37503888292144355 -0.16489805803272042
-0.3279279833830761 -0.3957457325253144 -0.1607423821342394
-0.34140434527176455 -0.41585245412576854 -0.15473711653159938
-0.35413879754750366 -0.43533735273178503 -0.14640352438659693
-0.3664264253429266 -0.4544741489849271 -0.13545134437888948
-0.37823443371859455 -0.473586284563257 -0.12189879063804027
-0.38913466658345447 -0.4928454576591058 -0.10624821390923418
-0.39833577776334017 -0.5121490101417594 -0.08955172445979867
-0.4048721185941133 -0.5310479626071228 -0.073236220426837
-0.40788271615902866 -0.5488142325600819 -0.05869840086301397
-0.4067803129940131 -0.5644997035390575 -0.0469651804339207
-0.40150415449693444 -0.5771636555969104 -0.03833295488320273
-0.3920079219382138 -0.5864594386645499 -0.03234826785762143
-0.3780504566698 -0.5922729607300156 -0.028430578421654095
-0.35894377563956203 -0.5942878882489614 -0.026264441097572224
-0.3340140989027413 -0.5916421106093566 -0.02565899576356285
-0.30346709068339384 -0.5835513608407586 -0.026268810808121636
-0.26873058667547667 -0.5701159832866889 -0.027380059629987765
-0.23171480326331342 -0.5526019267399517 -0.028133297439469504
-0.1938292150187334 -0.532945876435202 -0.028062000379687105
-0.1561796297256278 -0.5131756871060099 -0.027245921698788297
-0.11974024964200522 -0.49513539884315566 -0.025819726549362397
-0.08472135254523405 -0.47992213210030527 -0.023846615604720713
-0.05114193591824487 -0.467986067320832 -0.021318652825527633
-0.019172221634055082 -0.4596456710317132 -0.01810777828426473
0.010946404942058424 -0.45522973831916114 -0.014072484795564728
0.03907414104588948 -0.4550705823820983 -0.009083965145040484
0.0653206066716433 -0.4595477058219656 -0.0030016100318315314
0.08995052815021874 -0.4691764009822529 0.004293302403150979
0.11312989837237838 -0.4845997202785265 0.012828340176652192
0.13471500775159764 -0.5064255661816692 0.022460633651891906
0.15414289807988746 -0.534843886689247 0.03276632387340204
0.1706204024256487 -0.5691620296948297 0.04297875419914276
0.18360281667273404 -0.607794911394482 0.05211681070562313
0.19303961760807328 -0.6487936798610799 0.05929397065534828
0.1993086566698578 -0.6903439070041668 0.0639841201361433
0.20309865064771587 -0.7310863538955181 0.0661195805433492
0.20523883672723087 -0.7701795918301484 0.06600410746164381
0.20657167700940257 -0.8070263394659948 0.06418997435872727
0.20796633348285615 -0.8410904894996069 0.06139195210064741
0.21029089770608025 -0.8719955807131091 0.05839264028988597
0.214328953681573 -0.8997485925048152 0.05593826624160661
0.22071820920657303 -0.9248517004434058 0.054668631100935346
0.2300069757542614 -0.9481895365835634 0.055075290064691376
0.2428607966187876 -0.970772356931713 0.05756292732277678
0.2599931466288378 -0.9934641594488589 0.062484506559456615
0.28178202517532497 -1.0166409960497007 0.07004119063010993
0.30801732672381016 -1.040161070063824 0.08022966128752154
0.33792373157380645 -1.0635503755100781 0.09290546605138678
0.37026948864043147 -1.086181386826583 0.10785827606215258
0.40349484882533876 -1.107393386590578 0.12483705166307703
0.4359154624636101 -1.1266040754260573 0.14353220442763073
0.4660084613560873 -1.1433848242463234 0.16356885618911784
0.49266489942611735 -1.157524391410217 0.18452840372526813
0.5153581272804898 -1.1690298568085613 0.2060097932683132
0.5341692531213387 -1.1781162736220134 0.22770401212969588
0.5496674418245399 -1.1850987932579595 0.24945400540275442
0.5626998526225198 -1.1902428683751471 0.2712195041986514
0.5741432607689662 -1.1936843539605948 0.2929219097101396
0.5847479610570191 -1.1954782745149068 0.3143599906647422
0.5950441493064685 -1.1957222181461755 0.3352607070685237
0.6053301707242345 -1.1946511574638354 0.3554074358909064
0.6157411888214788 -1.1926591466856786 0.3747395079985719
0.6263387758453227 -1.1901984025064118 0.39335046119464767
0.6371218050424003 -1.1876872166950951 0.41143182880696494
0.6480567994582576 -1.1854321912580592 0.42921285149379806
0.6590808334293188 -1.1835779866563905 0.4469030848126259
0.6701285296678028 -1.1820939210099033 0.4646579831038997
0.6811656017630158 -1.1807820065170638 0.4825673992306253
0.6921703450300496 -1.1793343050019531 0.5006616204497969
0.7031253793938813 -1.1774293613179654 0.5189196879585027
0.7140072947486703 -1.1748370535949961 0.5372909700935169
0.7247781356072891 -1.171505066040945 0.5557085351014277
0.7353885856683315 -1.1675836541435562 0.5741077412252328
0.7457853849146162 -1.1633927166604567 0.5924309601116308
0.7559288063013653 -1.1593333258516898 0.6106679318532721
0.765823042598322 -1.1558065689675803 0.6288531399225944
0.7755063590120586 -1.1531186515282061 0.6470680579230463
0.785022536671053 -1.1514488114759904 0.6653951172791005
0.7944084972022041 -1.1508397203902758 0.6838653415557043
0.8036710564060656 -1.1512153377001664 0.702410616371303
0.8128075153953974 -1.1524171324931112 0.7208582598961235
0.8218213956161822 -1.1542867166587951 0.7389289228838729
0.8307330665807489 -1.1567334375491625 0.7562764468035931
0.8395540486923536 -1.1597732908152132 0.7725519888564257
0.8482819892268945 -1.1635304735011784 0.7875001256245358
0.8569092992119759 -1.1682263182905601 0.8010427652833129
0.865433941722069 -1.1741412889075038 0.8132435400622506
0.8738515275133367 -1.1815715658433883 0.8242724066448557
0.8821454660858913 -1.1907741190782113 0.8343726882590994
0.8902975951259771 -1.201949450132142 0.8438796809389819
0.8983128169677336 -1.2152259534622947 0.8531801188657318
0.9062365041392674 -1.230621671619615 0.8625989549562709
0.9141692298510461 -1.2479400929015423 0.8722525891757302
0.9222799446165879 -1.2666753191442428 0.8819923962397446
0.9308146114435922 -1.2860007320199298 0.8914756728735669
0.9400231275647103 -1.3048491413650596 0.9002674180834995
0.950071473019028 -1.3220233072249388 0.9078966428802114
0.9608985037846809 -1.33630531141712 0.9138902127044578
0.972123013005596 -1.3468806194506517 0.9178621286308946
0.9834194183634153 -1.3538255236315715 0.919683851153404
LINES 1 120
119 0 1 2 3 4 5 6 7 8 9 10 11 12 13 14 15 16 17 18 19 20 21 22 23 24 25 26 27 28 29 30 31 32 33 34 35 36 37 38 39 40 41 42 43 44 45 46 47 48 49 50 51 52 53 54 55 56 57 58 59 60 61 62 63 64 65 66 67 68 69 70 71 72 73 74 75 76 77 78 79 80 81 82 83 84 85 86 87 88 89 90 91 92 93 94 95 96 97 98 99 100 101 102 103 104 105 106 107 108 109 110 111 112 113 114 115 116 117 118 
CELL_DATA 1
SCALARS ComponentValue float 1
LOOKUP_TABLE default
1
