# vtk DataFile Version 2.0
3D curve data
ASCII
DATASET POLYDATA
POINTS 119 float
-0.007014376701536223 -0.03216160209162075 -8.795942450969888e-05
-0.012798820915552924 -0.060600439421908715 -0.004522397312237487
-0.017341610926457748 -0.08468268963254133 -0.012094268436549628
-0.020670032592925058 -0.10464328492893701 -0.021574960893836623
-0.02310353940949932 -0.12180537951837475 -0.03221530183626322
-0.025096785538898225 -0.13734309457688587 -0.04347077557326601
-0.027053908881202324 -0.1520160003195043 -0.05473329803417811
-0.029300619312705507 -0.16628180520007774 -0.0652980015729618
-0.03208393287996881 -0.18041265204096935 -0.07450409091606275
-0.03565401762602725 -0.19465467668424577 -0.08193614145327524
-0.04045574502294991 -0.20928343896970564 -0.0874263737744016
-0.047189383639890725 -0.22437402945891455 -0.09085508996564626
-0.05653269618111457 -0.23962474387488586 -0.09209575062687703
-0.06876553251480846 -0.25448794668996055 -0.09115544101989516
-0.08367708291329129 -0.26842895132309597 -0.08834151676344731
-0.10100235940921135 -0.28112707354140154 -0.0840212223145899
-0.12026976433912819 -0.2923802024600537 -0.07853276974088802
-0.14086783712220208 -0.30219790583030653 -0.07226970539377991
-0.16205820058638049 -0.3107945523280931 -0.06556956998320593
-0.18291737344663817 -0.3185418175847094 -0.058708584455338005
-0.20241536330731322 -0.325859740213783 -0.05193719434419556
-0.21952975776428535 -0.33307066887242154 -0.04553856134315473
-0.2333816929916271 -0.3402767222785227 -0.03986571184037625
-0.24340948657316241 -0.34729530903843836 -0.035299356820130606
-0.24957698003604223 -0.35370487541827317 -0.03212742363979801
-0.25251417584706826 -0.35911636316251394 -0.030394515320564048
-0.2532546851474843 -0.3635515729055877 -0.029907421899755777
-0.2525741541716744 -0.36750415416771964 -0.03052623761812171
-0.25061717852629584 -0.371456016767991 -0.0325181375859396
-0.24743976614835575 -0.37529343623164785 -0.03624369650423781
-0.2432215160414947 -0.37868587515351687 -0.0417494899569244
-0.2380052592784474 -0.38124629365559354 -0.0490196957266749
-0.23187740131058052 -0.38253219258687027 -0.05792277464343962
-0.22511039347803172 -0.38232121109522366 -0.06800840809052751
-0.2178447713137766 -0.3807792102040447 -0.07867086554665284
-0.2098601254244825 -0.3780886397483053 -0.08961600655797332
-0.2008105442938906 -0.37415182457869517 -0.10083853941740215
-0.19057014133510894 -0.3687019770918856 -0.11225995685043282
-0.17931099346432003 -0.3615839072851018 -0.12352852184999244
-0.16741018645782346 -0.35284910235491995 -0.13417446474175068
-0.1554433559544921 -0.34290739114150004 -0.1436077869810718
-0.1437981961425967 -0.3325003508111518 -0.1512606745799817
-0.13256656939141853 -0.3223870100188082 -0.1567813336666506
-0.12168867531407655 -0.3131660073799903 -0.16005368801380385
-0.11101264187942583 -0.3051544693298624 -0.1611796616513406
-0.100309179547911 -0.29845766421035247 -0.16037569562674378
-0.08930196245814209 -0.293142142866899 -0.15786219607132487
-0.07780271553758093 -0.2893845869972087 -0.15383168106025105
-0.06589328998420452 -0.28745520753474 -0.1485336875492965
-0.053883855300327875 -0.2876095862204603 -0.14230773676414896
-0.042185518252873824 -0.2899743770059026 -0.13551062356179494
-0.031158020897306793 -0.29450626263598706 -0.1284819198425715
-0.02110157988984424 -0.3010263808319203 -0.12152574697513377
-0.012231845733437993 -0.30918488722871196 -0.1148936223404365
-0.004570155185665895 -0.3185523731111223 -0.1087596352576971
0.0020428670250787154 -0.32880117180154667 -0.10322777071264033
0.007811816594150023 -0.3397864881962425 -0.09835496086009442
0.012876015630305904 -0.3514989554734677 -0.09414947771690735
0.017281385074188214 -0.36397074319748307 -0.09056464341223777
0.02099080159482055 -0.37721409976291115 -0.0874954877037349
0.02391619394131093 -0.3911795003180147 -0.08477896301852439
0.0259785145868645 -0.4057286395955889 -0.08220002462757131
0.027181283031681602 -0.4206211399694467 -0.07951250698648375
0.027671719847405664 -0.435537062964382 -0.07646312791139567
0.027719105441409462 -0.45015331534824143 -0.0728184540757616
0.02765513215545031 -0.46418825410295195 -0.06841010208610704
0.02782001220726062 -0.4773848863569208 -0.06317021651515081
0.028502147515317273 -0.4895516359803702 -0.057147565560775125
0.029907686647555567 -0.5006479199421507 -0.05045594049316374
0.03219437881305775 -0.51079921947584 -0.04315984142904661
0.035511737191567715 -0.5202301675252604 -0.03519452233002546
0.04001548222398926 -0.5291274537205206 -0.026374017642960598
0.04583583008133295 -0.5375610633365686 -0.016445955360552045
0.053013431806249844 -0.5454185626321694 -0.005186054289803793
0.06141941597784932 -0.5524149599343113 0.00747189071503432
0.07071829866392507 -0.5582218612305692 0.02134493616376823
0.0804604176725201 -0.5626530299654389 0.03609214522464586
0.09025868628011031 -0.5657266381747208 0.051393666681811834
0.09989795992839799 -0.5675872573625734 0.06706219448934668
0.10935353714160459 -0.5683859439506542 0.08304908395198862
0.11869488470791628 -0.5682001287485948 0.0993718022247954
0.12800453407740953 -0.56703783928543 0.11606345958061584
0.1373691395373829 -0.5648486478842132 0.13314293339168798
0.14688547494479584 -0.5615389910146851 0.15058870531262983
0.1566632857101013 -0.5569906565227885 0.16831627426859902
0.16679284600893188 -0.5511059963066754 0.18617488166054236
0.17733528938298582 -0.5438589018804406 0.20396300644868637
0.18830269426716342 -0.5353206237079369 0.22147547633337913
0.19966064358749636 -0.5256852008741506 0.23856638226464338
0.21133591315293332 -0.5152938169690855 0.2551753021918791
0.22321720778498438 -0.5046197744009512 0.2713698371443698
0.2351936542286566 -0.4941974325863492 0.28733339019358295
0.24718225930345253 -0.4845332459546639 0.3033352751265485
0.2591375317077204 -0.4760279743116396 0.3196642059974447
0.27103670175992317 -0.4689764676591821 0.3365306352818127
0.2828619006554461 -0.46358546462760725 0.3539947285242834
0.294594635531868 -0.4600126834284892 0.37194055041786916
0.3062232996235378 -0.4584000253744283 0.3900889061921004
0.3177668644618594 -0.4588864707012923 0.40802035088919153
0.32927819121825164 -0.46161406960960727 0.4251911894137808
0.3408289876149302 -0.466695722466248 0.44094799145521846
0.3524680616487819 -0.4741579896112697 0.45457160951920217
0.3641993253096488 -0.48389095185520453 0.4653920184293739
0.3759890646250094 -0.4956824336395731 0.47298899469045674
0.387849165351318 -0.5093587200414339 0.4772786582768649
0.39989487520633527 -0.5249060423887603 0.4783728389880875
0.41230867901465307 -0.5424058427655178 0.4763396337312741
0.4252479442027404 -0.5618722969560062 0.4711122937061937
0.43881202240049877 -0.5831383929909022 0.46254669906504053
0.4529862606981871 -0.6057749420876655 0.4505888154916513
0.4676457658527705 -0.6291359234777774 0.43549317975371105
0.4826006939593497 -0.6525137245308301 0.417981371486943
0.49768521483523426 -0.6752869133141568 0.39920516129658057
0.512757125426059 -0.6968865938586806 0.38071173491660065
0.5275971834634807 -0.7167425283239612 0.3642879795093913
0.5418854095687081 -0.7343198507224584 0.3516478527155582
0.5552666637397861 -0.7492472817720143 0.3439873042281833
0.5675762843060355 -0.7614941228699469 0.3416624265765724
0.5791771028430646 -0.7716152934094374 0.3445038238360077
LINES 1 120
119 0 1 2 3 4 5 6 7 8 9 10 11 12 13 14 15 16 17 18 19 20 21 22 23 24 25 26 27 28 29 30 31 32 33 34 35 36 37 38 39 40 41 42 43 44 45 46 47 48 49 50 51 52 53 54 55 56 57 58 59 60 61 62 63 64 65 66 67 68 69 70 71 72 73 74 75 76 77 78 79 80 81 82 83 84 85 86 87 88 89 90 91 92 93 94 95 96 97 98 99 100 101 102 103 104 105 106 107 108 109 110 111 112 113 114 115 116 117 118 
CELL_DATA 1
SCALARS ComponentValue float 1
LOOKUP_TABLE default
1
