# vtk DataFile Version 2.0
3D curve data
ASCII
DATASET POLYDATA
POINTS 119 float
0.005093409990395305 -0.011954880702986666 -0.003976210129838788
0.012426356223980188 -0.02599916058267924 -0.008866618324466597
0.02147982054238563 -0.04233952394040888 -0.014969178396809276
0.031159488872224424 -0.06065400113003833 -0.022379462990110913
0.04027965040160257 -0.07988645908077714 -0.03092156028011258
0.04803637279831732 -0.09907213355985242 -0.04036662611096437
0.05391961503531978 -0.11758310798499884 -0.050478075805893724
0.05763242798472027 -0.1351191687843291 -0.06101355022796573
0.05905702833551496 -0.15163399883934647 -0.07172174772495984
0.05825779761233135 -0.167200274197173 -0.08231635093311801
0.05548705451925026 -0.1819272928080869 -0.09246964487120007
0.05107269456919083 -0.19594247986716146 -0.10179494811649724
0.045378482542396716 -0.20930649198968776 -0.10978718816873666
0.03874653503072527 -0.22211130987918126 -0.11594810213892025
0.03137880217353418 -0.23444857759720053 -0.11980458534284422
0.0234374033654095 -0.24649327833897317 -0.1211309147865813
0.014777933206502943 -0.2585972305632739 -0.1198524630497416
0.005118364206657505 -0.2710232552068251 -0.11581255252586503
-0.00572427023192304 -0.2838114629369591 -0.10890740380602643
-0.017549664212286903 -0.296793132952066 -0.09940757354951205
-0.029973213445114343 -0.3097833984967543 -0.08804392575705151
-0.04256619798202717 -0.3226273797820489 -0.07567778579428305
-0.05480654281798264 -0.3352152360179534 -0.06307482699304341
-0.06607412308637468 -0.3474592948926872 -0.05082569790672124
-0.07570469109235856 -0.3592661291503935 -0.03935488162138076
-0.08309561354039831 -0.37050321084913584 -0.02894285162323232
-0.08785214298195312 -0.38090760953842445 -0.0197297306144842
-0.08993080764715321 -0.3900898000009337 -0.011702065541715
-0.08959395707770335 -0.39779953405417734 -0.004685747913391376
-0.08701498827490065 -0.404036544241988 0.0013914958271041907
-0.08249713280230968 -0.4086697277755942 0.006365153019790426
-0.07654323164434525 -0.41174894900974673 0.010176488209635527
-0.06966018782149301 -0.4135987078729232 0.0128170186390501
-0.06203077165616641 -0.4147840172622164 0.014285902820101556
-0.053327095920330386 -0.4157084608032188 0.014495546731070452
-0.04329491520326505 -0.4164795772507367 0.013231970373942852
-0.03215621587681474 -0.4169517969998512 0.010345636791669409
-0.02085145851569766 -0.41686173256203174 0.006106906062153557
-0.010285111282309533 -0.4160541445835203 0.0012216277852852646
-0.0007310177186504042 -0.41445022004433124 -0.003666316808581011
0.0079973152776028 -0.41206221098514073 -0.008128310304264866
0.016293788699741615 -0.4090160535238453 -0.011913284758691743
0.024614534837505284 -0.4055180974984972 -0.014881224601521137
0.0333842201403861 -0.40184833936773473 -0.01695179684494057
0.042904039209732306 -0.3984048194769343 -0.018066632230758974
0.05325564227352057 -0.39574165688294055 -0.018180979270284434
0.06426368901921384 -0.3944875538595841 -0.017295060968558748
0.07551838137090953 -0.3951629203824988 -0.015486266492965342
0.08640861030934996 -0.3979728108912056 -0.012961201652238913
0.09637366080440661 -0.40269697103461893 -0.0100516850756629
0.10519910989671345 -0.4088890448471151 -0.007066360054980599
0.11303880283107842 -0.4162030007120194 -0.004160805420809212
0.1202214699282993 -0.4245922482420591 -0.001330614051871323
0.12700077640410287 -0.43426154356852015 0.0014989660129691687
0.1333728691104775 -0.44538570457953963 0.004376219762110325
0.13911098381999545 -0.4578419038642903 0.007309980983651279
0.14395151336824938 -0.471234105287412 0.010317404281899449
0.14768457228684598 -0.4851175766190375 0.013434819425639875
0.1501323391588285 -0.49921103580632953 0.01670299012083741
0.15110445836676842 -0.5134422383733362 0.020124448870237396
0.1504982657463619 -0.5278574195092333 0.023635680074003147
0.14841799093048094 -0.5426213034892924 0.027252651297381456
0.144983730020931 -0.5580209169768711 0.031097329177364085
0.14028703870973167 -0.5742752381915419 0.03527674401077637
0.13446665479436623 -0.5914645868576534 0.039880045798881235
0.12773662929553503 -0.6095486884763303 0.04501459286141432
0.12041548423780937 -0.628355081337304 0.0508277608808414
0.11296322703697614 -0.6475621485806221 0.057500533032565505
0.10599617274157903 -0.6666784806924265 0.06520366674934433
0.100209333398532 -0.6850625708975837 0.07404101966991718
0.09621329532885824 -0.7020193604899732 0.08401114844303158
0.09437562964369707 -0.7169609167041523 0.0950165534575016
0.09479226600027468 -0.7295547745694277 0.1069324044758771
0.0973918439166484 -0.7397662141599014 0.11971358986969931
0.10207455020962619 -0.747748388967556 0.13348053211052457
0.10876059222034049 -0.7536740892302656 0.14849857912760503
0.11730058888828482 -0.7576301692066727 0.16502075043798584
0.1273613944952073 -0.7596627727925105 0.1831253672980916
0.1384301812480822 -0.7598601339405879 0.20266504059204526
0.149919871197232 -0.7583633464365085 0.22327993900750479
0.16127933482391227 -0.7553596254343153 0.24446247991834316
0.17208685942175267 -0.7510978525647585 0.2656721097711357
0.18211335313281635 -0.7458888155429126 0.2864678238755485
0.1913272388520515 -0.7400869604544111 0.3065940667157208
0.19984160292394249 -0.7340656095529017 0.32600166692909605
0.20784388964175313 -0.7281805707718564 0.3448047593082986
0.21554042791360598 -0.7227265121456589 0.36322653275031375
0.22312610504970729 -0.7179246266070128 0.3815358188847818
0.23078022750863583 -0.7139235297835461 0.39998526799431466
0.2386775791754197 -0.7107925488311566 0.41876222514544725
0.24700465534156782 -0.7085405120995907 0.437921030740649
0.2559400711370288 -0.7071406420506934 0.45734707803233804
0.2656378999039998 -0.7065759900221115 0.47677620595653664
0.2762049617533604 -0.7068987711132684 0.49584232621996027
0.28767095292686123 -0.7082609271596706 0.5141563353849741
0.29997419229247707 -0.7109227797270147 0.5313677509111893
0.31295789813673813 -0.7152255985085443 0.5472128576831513
0.32640523932713894 -0.7215608497949754 0.5615630697104772
0.3400894037276294 -0.7303423959331067 0.5744108926260603
0.3538238805873376 -0.7420267586200707 0.5858234156655211
0.36746162404601185 -0.7570999208738662 0.5958447993314877
0.3808695525496548 -0.7760204099868742 0.604422101943768
0.3939147589926808 -0.7991135756444995 0.6113770839087055
0.40649903961190675 -0.8264736572352022 0.6164124878448197
0.41857233489371376 -0.8579259794676347 0.6191395158939758
0.4301068193835669 -0.8930313510699013 0.6191225095219639
0.44106248413522453 -0.9311015946065677 0.6159962216964102
0.4513814672375232 -0.9712358761864461 0.6096071598767925
0.4609781684591297 -1.012353648238226 0.6001108544739598
0.4697622847856169 -1.0531643068263878 0.5880222892617947
0.47766091206156536 -1.0922366184634598 0.5742553807566513
0.48467542606348113 -1.1283428391854438 0.559971020791714
0.49088571768769396 -1.1608669016847344 0.5462159254186003
0.4964090912217999 -1.189930199589086 0.5335900644057909
0.5013981255752651 -1.2161856763147383 0.5222325264520176
0.5060014881458298 -1.2404579985888506 0.512072763859362
0.5102764969922375 -1.2635035571974083 0.5030167368950358
0.5141564642177636 -1.2860127860350308 0.49495723384579965
0.5176310587055728 -1.3087509255168228 0.48773825258271586
LINES 1 120
119 0 1 2 3 4 5 6 7 8 9 10 11 12 13 14 15 16 17 18 19 20 21 22 23 24 25 26 27 28 29 30 31 32 33 34 35 36 37 38 39 40 41 42 43 44 45 46 47 48 49 50 51 52 53 54 55 56 57 58 59 60 61 62 63 64 65 66 67 68 69 70 71 72 73 74 75 76 77 78 79 80 81 82 83 84 85 86 87 88 89 90 91 92 93 94 95 96 97 98 99 100 101 102 103 104 105 106 107 108 109 110 111 112 113 114 115 116 117 118 
CELL_DATA 1
SCALARS ComponentValue float 1
LOOKUP_TABLE default
1
