# vtk DataFile Version 2.0
3D curve data
ASCII
DATASET POLYDATA
POINTS 119 float
0.002618172280805221 -0.019768227349145528 -0.0042907899286867305
0.007832469399332126 -0.039825090716791384 -0.009320561937728896
0.015005185854334727 -0.05978350821060839 -0.015001962319529407
0.023136218678834045 -0.07892541707667017 -0.02112695062535039
0.03126814628669236 -0.09681272762869349 -0.02746470663978752
0.038640833729848285 -0.11338199983716993 -0.03379371779895573
0.04468484332824493 -0.12883491845204229 -0.039910853530176704
0.04896217798633265 -0.1435422551952595 -0.045627870978592236
0.051125810252801544 -0.15796100784153996 -0.05075746279294789
0.05092986958235095 -0.17263863403036517 -0.05512796122345995
0.048189914813213525 -0.1882097587083894 -0.058541736087692274
0.04272815257188599 -0.20530343655404787 -0.06067568362489908
0.03438335674305965 -0.22430516432365005 -0.061016939643634194
0.02329139744834019 -0.24508135110655466 -0.058951876490535265
0.010114161597523876 -0.26712239579366825 -0.05406226429685281
-0.004258916179717778 -0.2899033056320065 -0.04629103819149495
-0.019062957111526058 -0.312964615170364 -0.0358494184962644
-0.03377438564771657 -0.33583716971578315 -0.023132021810998084
-0.048083370076778334 -0.3580258100314631 -0.008675188943941058
-0.06184978834817236 -0.3790958415226628 0.006875766677901288
-0.07504966800335056 -0.3987638930020185 0.022836374649819798
-0.08767629647052799 -0.41692831504046546 0.03855874631544882
-0.09961366057019691 -0.433597079883858 0.05346555425015892
-0.1105612927165879 -0.4487898683759455 0.06704857137981263
-0.1200289151119299 -0.46247978528065425 0.07888574200806683
-0.12742144326121657 -0.4745625483420879 0.0886462295020205
-0.1322364825807496 -0.4848826670488776 0.09611103729827788
-0.13427763803050347 -0.4933851220157355 0.10127599025479797
-0.13359737595164906 -0.5002194543369718 0.10433697307799654
-0.13016438483838388 -0.5058084955777171 0.1056311700919635
-0.1227431524526931 -0.5105547680840082 0.10507393141629824
-0.10937225721910014 -0.5136516774477498 0.10172093219038518
-0.08886052571449612 -0.5135176663840036 0.09428863750018043
-0.062031149095835916 -0.5086493219148653 0.08209927273420888
-0.03118723990465538 -0.49851810211725966 0.06562730965415747
0.0010538928477686702 -0.48343686481018 0.04605761652414702
0.03229925947271694 -0.46418057475511304 0.024930523817455565
0.06080945214593062 -0.4417735897074568 0.003766372751762134
0.08566530843695527 -0.4173725457355335 -0.01615449512743328
0.1068266757364118 -0.39215792389513227 -0.033824094886553344
0.1251634777721567 -0.3670038576190555 -0.04869000165127638
0.1417454858989202 -0.3425866176225417 -0.06049528355758303
0.15744990604131542 -0.31969769467094333 -0.06907745692454999
0.17287118992512826 -0.29914850766796514 -0.07445465818208588
0.18830034247339036 -0.2815992952950104 -0.07683937386797308
0.20380425694633547 -0.2675003819352644 -0.07657824083291477
0.21930454409019645 -0.25711309395582777 -0.07409331921883117
0.23460456349839828 -0.25057393241941667 -0.06982343616624635
0.24939583940465476 -0.24797283175676907 -0.06418391490771283
0.2633422044661383 -0.24938326709213032 -0.057534055943398055
0.2761792863867887 -0.25490682748350824 -0.05013976623625148
0.2877130764875799 -0.26474228759805934 -0.04221093889127941
0.2977099854316342 -0.27911903430343743 -0.03400776355785971
0.3058833578168813 -0.29801606047669704 -0.025936006880693578
0.31203091674522215 -0.3208479499544159 -0.018535670407954792
0.3162281686769687 -0.34640895124393234 -0.012327415176562904
0.3188692100775763 -0.3732438711874537 -0.007633989514920229
0.32047280479759865 -0.40008261098119247 -0.0045278698557805995
0.321474900747456 -0.42604540009318836 -0.002879011570159175
0.3221312167103013 -0.4507014201655678 -0.0024424204470110916
0.32253470783400906 -0.4740266290550915 -0.002932194087146335
0.32266986491874916 -0.49629032391298167 -0.004043474786725482
0.322465197401024 -0.5178424761500557 -0.005454867538221427
0.3219266849101332 -0.538901289444489 -0.006807075012963808
0.3212353960539568 -0.5595497813716056 -0.007708030071453841
0.32071580302779296 -0.5797792433189715 -0.007801436912767673
0.320747848236137 -0.5994909948229799 -0.006830011386635737
0.3216894816844944 -0.618551455448283 -0.004666094210677148
0.32383749358115804 -0.6369019477131032 -0.0012891954925495729
0.327438577175974 -0.6545980588777647 0.0032964693274589434
0.3326904383929228 -0.6717377662413246 0.009137336327071963
0.3397161042763045 -0.688346728440961 0.016350459843090588
0.34852037868987473 -0.7042792656050717 0.02509268629890473
0.35896976099395594 -0.7191858088813092 0.03550358171973733
0.37080333565776247 -0.732564331638999 0.047637833772029584
0.3836893195146071 -0.7438876249398334 0.061429364188052456
0.3973159999171466 -0.7527554677055497 0.07673757473276915
0.41147497938681865 -0.7589449925927938 0.09342064123172414
0.42606594181050067 -0.76239835089637 0.11137223222693046
0.44104598676696805 -0.7631724053441562 0.13049939904310953
0.4563391461526218 -0.7614325760116942 0.15066112634141818
0.4717777760099561 -0.7574840679385304 0.17161004513078473
0.48712404901877493 -0.7517796278884502 0.19298281205791518
0.5021383759017182 -0.7448621997025039 0.21436007915265198
0.5166351317665079 -0.7372574541912491 0.23535925089361295
0.5305129952918772 -0.7293595324194457 0.2557174066652801
0.5437647151252548 -0.7213583153919756 0.2753245279927975
0.5564578499323154 -0.7132362370463714 0.2942001692174725
0.5686934168340405 -0.704847476608854 0.3124339976616606
0.5805650978713977 -0.6960037669093445 0.33015622491525665
0.5921373644556743 -0.6865434185221652 0.34755016191630694
0.603474376300394 -0.6763714626415962 0.364860778312716
0.6146515041608899 -0.6654707872182303 0.3823770870280102
0.6257670143659235 -0.653919398606352 0.4003738246490793
0.6369380550940902 -0.6419116422134512 0.4190585410791451
0.6482850694498232 -0.6297578829178188 0.43853934157673136
0.6599292079409886 -0.617884303846275 0.4587947675547835
0.6719769195272073 -0.6068077451510243 0.4796820490637826
0.6845130945684964 -0.5971007491210891 0.5009631032066879
0.6976097026648287 -0.5893436416377138 0.5223340907708341
0.7113291866221585 -0.5840895526624266 0.5434219098087483
0.7256941221988771 -0.5818155749659154 0.5637605664805994
0.7406715782059379 -0.582878793690968 0.5828024601993341
0.7561562886726165 -0.5874753912886943 0.5999779047532153
0.7720028092451108 -0.5956617529839041 0.6147984610962987
0.7881041002790992 -0.6074020985928196 0.626905189642355
0.804396534940075 -0.6226092849002396 0.6359754420610759
0.8208047202519089 -0.6410697238361308 0.6416418975329023
0.8371908854063546 -0.6623284562427344 0.64352058848261
0.8533774107621097 -0.6856277904267787 0.6413548333376096
0.8692124633914258 -0.7099695780608577 0.6352020619801978
0.8846338727296312 -0.7342946174092219 0.6255657270684352
0.8996944208595183 -0.7577059608706398 0.6133712767246953
0.914531023624505 -0.7795732721107529 0.5998034810670276
0.9292687540182599 -0.7995347865511765 0.5861274436890447
0.9439357068635981 -0.8173745448401369 0.5735680324886154
0.958368790976577 -0.8328996549886113 0.5632374424810045
0.972204178694739 -0.8459049758272152 0.5559682525272522
0.9850392105317386 -0.856322061983768 0.552118463030069
LINES 1 120
119 0 1 2 3 4 5 6 7 8 9 10 11 12 13 14 15 16 17 18 19 20 21 22 23 24 25 26 27 28 29 30 31 32 33 34 35 36 37 38 39 40 41 42 43 44 45 46 47 48 49 50 51 52 53 54 55 56 57 58 59 60 61 62 63 64 65 66 67 68 69 70 71 72 73 74 75 76 77 78 79 80 81 82 83 84 85 86 87 88 89 90 91 92 93 94 95 96 97 98 99 100 101 102 103 104 105 106 107 108 109 110 111 112 113 114 115 116 117 118 
CELL_DATA 1
SCALARS ComponentValue float 1
LOOKUP_TABLE default
1
