# vtk DataFile Version 2.0
3D curve data
ASCII
DATASET POLYDATA
POINTS 119 float
-0.0016900364418130146 -0.007052248861793481 -0.006663539051642134
-0.002690036537720963 -0.015952612845241788 -0.014890709958962885
-0.0033442957227688384 -0.027156298699868072 -0.02476870127322748
-0.004372515476940863 -0.04062835945348489 -0.0361511037326943
-0.0064023162364658945 -0.05542066369776145 -0.04857472343982494
-0.009812975317022025 -0.07062793529479408 -0.061700232447460576
-0.014948412756836556 -0.08568438706635345 -0.07535644750353424
-0.02220495237399209 -0.10027831736664405 -0.0894047422931536
-0.03197242867862306 -0.1141951736205034 -0.10355038642110653
-0.04428614589948686 -0.12720312644062243 -0.11721379854877653
-0.058427905106796595 -0.1391333109345476 -0.12963175424594775
-0.07312366091210715 -0.15013575865500872 -0.14017400928006937
-0.08739806680359521 -0.160718578767632 -0.14853388804691417
-0.10103198973372612 -0.17135515809715648 -0.15450634295309976
-0.11406426293009335 -0.18223807747842713 -0.15776644521253996
-0.1264837322248339 -0.19352276975954277 -0.1581434718276958
-0.13847413136722203 -0.20547692642308618 -0.1556004940430799
-0.1502766850812352 -0.2183103011913963 -0.15005801382871162
-0.1621048302002216 -0.2321082545911661 -0.141487985357582
-0.17417186732552076 -0.2468192808705204 -0.1299613762350935
-0.18660563306944988 -0.2622988755821061 -0.1156714215822144
-0.19940445647524976 -0.27840212295753264 -0.09895764550650235
-0.21242351447990937 -0.2950159397995443 -0.08029908396848648
-0.22532576743811866 -0.31205327594534027 -0.060319155291266725
-0.2374966818890768 -0.3294202673144747 -0.039796564713639376
-0.24799108659348512 -0.3469166114361819 -0.019660707042014676
-0.2557334492937877 -0.3640718796960659 -0.0008560652699526276
-0.25997788563826274 -0.38022872558039017 0.01597708718152897
-0.2605297149494348 -0.39500080685414357 0.03076046402916012
-0.2572986285129735 -0.40861200830510414 0.04377611305132251
-0.24995079838598208 -0.4215921738209469 0.0553498447685153
-0.23774319056502083 -0.4345554325605305 0.06568803549733694
-0.22008969425981656 -0.44790346460121466 0.0745829580609217
-0.19714714344350032 -0.4617281605068938 0.08162782937430321
-0.16982894928787634 -0.47546524228702153 0.08639983592284484
-0.13959715328407152 -0.4882882841515286 0.08863538166149804
-0.10838196715000907 -0.4994426392254137 0.088370641915429
-0.07895743269010388 -0.5083963790586669 0.0862398755249309
-0.05371476381171494 -0.5151789470082583 0.08346128229585106
-0.03329693677104961 -0.5202341084018457 0.08109293541100174
-0.016794323375270346 -0.524050164699584 0.07961232079977151
-0.0030503918299785407 -0.5269984857358013 0.07911602507111525
0.008903283645813203 -0.5294406382297148 0.07958556041518002
0.019828501975042313 -0.5317096907206404 0.08093376182040717
0.030252556962612302 -0.5341121658579979 0.08298662126512708
0.04046980801250533 -0.5369230374843816 0.08546443496158297
0.05060975045070164 -0.5403863151493475 0.08801945551662968
0.06065967212319174 -0.5447089683447405 0.09030112811083499
0.07041414183975693 -0.549942409724171 0.09196320909344297
0.079674656198339 -0.5558952181121785 0.09271770311299589
0.08850020019635141 -0.5623535591571606 0.09244431378841066
0.09711905588210683 -0.5692728539354535 0.0912168577075221
0.105752673289443 -0.5768035761315439 0.08925528555595495
0.1144421565678091 -0.5852455597927518 0.08687260987967614
0.12286431164870715 -0.5948112873927499 0.08444312659684805
0.13043997437745422 -0.6053425549994704 0.08238698495453087
0.1366845852862899 -0.6164345897305453 0.08108780905203317
0.14133373019382736 -0.6277329803925682 0.08076555232902079
0.14423996633090816 -0.6391044621928267 0.08142837748791029
0.14526676962600185 -0.6505594128511103 0.08288518411509836
0.14440407001137898 -0.6620925287095503 0.08477308355184626
0.1419538025290625 -0.6736947257145474 0.08675348650539344
0.13833706770969606 -0.6854958345504165 0.08859744440532477
0.13395613159373843 -0.6977022187837938 0.09011192341745738
0.1291806718576285 -0.7105609672660641 0.09116693229795642
0.12434193495279705 -0.7243305059992975 0.09174960109787048
0.11975869447736695 -0.7392283956613338 0.09199935242258082
0.11579190099584565 -0.7552900630338297 0.09223458490334499
0.11285540559168619 -0.7722153441555486 0.09292714602709087
0.11133943083498107 -0.7893339528580829 0.09459838976625981
0.11149838439536826 -0.8057330743888641 0.0976877235737661
0.11338210629110931 -0.8205478289999674 0.10247722173444723
0.116910011596702 -0.833223724549582 0.10913218584891973
0.12205267628597563 -0.8435931385256729 0.11785861254288185
0.12896412164721083 -0.8516669235191249 0.12904066076008028
0.13790280089402895 -0.8573710595618553 0.14315536130208517
0.14899384114391287 -0.860547424337262 0.16048926112619943
0.1620328520032565 -0.86115931751319 0.18090706342680413
0.17648313411775393 -0.8594958138375104 0.20383468837295274
0.19162216057498466 -0.8561262585183377 0.22842630773520226
0.20672891441770508 -0.851717803496716 0.2537861795384791
0.22123734887926122 -0.8468391693665904 0.2791400464283775
0.23481020258625113 -0.8418772369495313 0.3039179601851721
0.2473509417125367 -0.8370257878228521 0.32778227435099183
0.25893326827627194 -0.8323335539892349 0.35061933993944744
0.26972719832229997 -0.8277366409228204 0.37248521740433105
0.2799346925155311 -0.8230816855165424 0.39354305417854735
0.2897598303297644 -0.8181836170117164 0.41397967496708876
0.29938975326479333 -0.8128902700048557 0.4339499009739475
0.30899038003508544 -0.8071493959887867 0.45356575965009893
0.31872762591510084 -0.801049465615348 0.4728847032532184
0.3287610486294329 -0.7948412333993781 0.4919161523090657
0.33923856565252325 -0.78892900167982 0.5106289866078774
0.35027008274335586 -0.7838235774119156 0.528971301899921
0.36192304062574276 -0.7800816109565409 0.5469158831828705
0.37422511031364003 -0.7782552715984552 0.5644839774353124
0.3871700346060802 -0.7788747356522396 0.581726754470329
0.4007137608885395 -0.7824453788622944 0.5986877836716891
0.41476359758507503 -0.7894255180232435 0.6153693355849486
0.42919307116795746 -0.8001731947635717 0.6317084648533071
0.44386959996250464 -0.8148808313490973 0.6475552953643664
0.4587049603908048 -0.833550224397689 0.6626718124814718
0.47367692867865707 -0.8560311527670067 0.6767222207867208
0.48883396083716013 -0.882093964681102 0.689215852754006
0.5041963579675965 -0.911452657685241 0.6995207901726153
0.5197204292645318 -0.9437285615588392 0.7069203663223185
0.5352587707498758 -0.9784684085442602 0.7107795087971587
0.5505764694385639 -1.0151813554116782 0.71067517506494
0.5653386293561463 -1.0533013939906728 0.7064771755600152
0.5791641681568357 -1.0920735943127187 0.6983980700896515
0.5916695574779458 -1.1304992356231554 0.6870890895888032
0.6025728353725204 -1.1675081596032681 0.673614837353831
0.6117382449952823 -1.2023100863020064 0.659157574455419
0.6191984756400352 -1.2346420407682333 0.6445860199684366
0.6251800179484014 -1.2647680792658744 0.630256069346163
0.6300147357182845 -1.293174272031563 0.6162287616114508
0.6340509600914448 -1.3203549597252753 0.6024814971596524
0.6375754255724891 -1.346776201682791 0.5889989380431462
0.6407851075813655 -1.372918981472039 0.575708569001647
LINES 1 120
119 0 1 2 3 4 5 6 7 8 9 10 11 12 13 14 15 16 17 18 19 20 21 22 23 24 25 26 27 28 29 30 31 32 33 34 35 36 37 38 39 40 41 42 43 44 45 46 47 48 49 50 51 52 53 54 55 56 57 58 59 60 61 62 63 64 65 66 67 68 69 70 71 72 73 74 75 76 77 78 79 80 81 82 83 84 85 86 87 88 89 90 91 92 93 94 95 96 97 98 99 100 101 102 103 104 105 106 107 108 109 110 111 112 113 114 115 116 117 118 
CELL_DATA 1
SCALARS ComponentValue float 1
LOOKUP_TABLE default
1
