# vtk DataFile Version 2.0
3D curve data
ASCII
DATASET POLYDATA
POINTS 119 float
0.011573187562609142 -0.013443097917321642 -0.01191566803278113
0.022393053390382632 -0.027597731427645635 -0.023509624701037492
0.03197918401316008 -0.04198113801515238 -0.034597634800331026
0.04014799340737585 -0.056016655713178515 -0.04505943054558922
0.04692241177357834 -0.06938245199077488 -0.05488578888104178
0.052358138105293585 -0.08192621989830134 -0.06409841550635781
0.05649591487929308 -0.09362931902651937 -0.07276735972740142
0.059337103186254306 -0.10459437731718266 -0.08103369675739507
0.06082390240391952 -0.1150368871174792 -0.08911743058824391
0.060808773108915186 -0.12523284925954087 -0.09728580121836883
0.05907973085344859 -0.1354634406761304 -0.1058107543031399
0.055401106617881016 -0.14600436826915977 -0.11491604201284901
0.04960381569374634 -0.15703061405959223 -0.12461971509367056
0.0417976500713823 -0.16858433860104133 -0.13473940810671492
0.03220792980706105 -0.18069765307761804 -0.14510663479360775
0.02094417410837563 -0.19329134453721253 -0.15532926024264385
0.008195437157347454 -0.2060758961737633 -0.1647013494657532
-0.005648076727068265 -0.21869693374377305 -0.17247502760572547
-0.02017777277611267 -0.23092969768125252 -0.17815392288638707
-0.03513083121695939 -0.24271979143787428 -0.18152384136916727
-0.050652564966265426 -0.254236522055155 -0.18256577217132708
-0.06727659075679451 -0.2657595630364084 -0.18121146297223217
-0.08576854565521747 -0.2776458507434914 -0.1772565789403033
-0.10703378012099357 -0.2903608292433457 -0.17035824066091057
-0.13194270211901607 -0.30455675854421455 -0.16009772173915882
-0.16083363213905313 -0.3210410311996479 -0.1462032298884692
-0.19280131857350832 -0.3404616247977366 -0.1289372230662566
-0.2254948878761387 -0.36283829013721325 -0.1093461711935588
-0.2555205647158805 -0.3871622224822826 -0.08924386824910924
-0.2794578810839267 -0.4111370547316204 -0.07085439711698693
-0.2953738270037917 -0.43175864807720477 -0.05606084010492354
-0.3039737693507412 -0.44723499731633 -0.04548651351593165
-0.30706300033100314 -0.4574462042272346 -0.038873013898858264
-0.30679556763312676 -0.4632426415813451 -0.03540089579674287
-0.304901760926744 -0.46629397969698283 -0.033873414170533904
-0.30170075976769783 -0.4680087243078518 -0.033478300577849306
-0.29649280553349044 -0.4686712108042477 -0.03427618864916764
-0.28865418255725966 -0.4678157192932645 -0.03676371449873989
-0.2779476624017175 -0.46487727949046925 -0.041309559097345995
-0.26446582998450185 -0.45955807372220775 -0.04790159139132063
-0.24840539026803307 -0.45183771880250084 -0.056233803358010925
-0.23005954205438758 -0.44187513570862413 -0.06582281463460135
-0.20978839087860576 -0.4300656598654159 -0.07604348197646042
-0.18798118768491204 -0.4171042150514427 -0.08620447836597829
-0.16512364879022312 -0.40401852207348343 -0.09558888331833286
-0.14189444217464323 -0.3920829035540889 -0.1035557067165714
-0.11916841659822414 -0.3824988301064724 -0.10973737995690463
-0.09766507226638052 -0.375995109801427 -0.11412357069078052
-0.07761239156196692 -0.3729221663700976 -0.11684284737272804
-0.05901486933734552 -0.3735161446787404 -0.1180277620237162
-0.04181366917114611 -0.37791373404942163 -0.11787616971327207
-0.025879907554503066 -0.3862336930209103 -0.11663374987591886
-0.011175887365077426 -0.39864328621940176 -0.11456105816892737
0.0021472672771765907 -0.41521087222122527 -0.11195923633208335
0.013852001338930544 -0.43571662507846887 -0.10918525593279209
0.023791653670744713 -0.45962804267763924 -0.10661098460926514
0.03202436599772439 -0.48618958241211274 -0.10455162167188607
0.03884924783830786 -0.514559757479786 -0.10321208903893875
0.04480144239493834 -0.5439193708726533 -0.10265393657059348
0.050602982458746226 -0.5736444277461186 -0.10276720807452629
0.0569409898212549 -0.6034925793530902 -0.1032692276604801
0.06420771167956321 -0.6334975205483453 -0.10387954015664044
0.07258680465699509 -0.6637641760559444 -0.10436554556867934
0.0821132579825693 -0.6944312171106275 -0.10446060189882156
0.0926964484231674 -0.7255833674901364 -0.10387623699854612
0.10417152894272046 -0.7571759463145522 -0.10232028829583534
0.11631970331694091 -0.7890368031811443 -0.09950884967409998
0.12886898739517616 -0.8209043299575651 -0.09517612384308587
0.14150189939343202 -0.8524444395530134 -0.08908977712620025
0.15389830179020977 -0.8832924090634303 -0.08108820524088649
0.16580275757984653 -0.9131165369483084 -0.07110890203563884
0.17707522521517433 -0.9416690371183196 -0.05918137098993731
0.187708846290165 -0.9687555644391437 -0.045411023613746784
0.19780765680230875 -0.9942086612678385 -0.029960646966222672
0.20755023017914842 -1.0178318605580783 -0.013036248498703537
0.21715707473872733 -1.0393806057045183 0.0051182451338507
0.22683383084785613 -1.0585546462217208 0.024207286609330893
0.23672466882556942 -1.075087947354954 0.043900664164919084
0.24689971186779497 -1.088821455518218 0.06387972310670983
0.2573657473209629 -1.099751816759582 0.08389204097769103
0.268095278227188 -1.10804503576565 0.1037911454624228
0.27903681121279383 -1.1140002125762747 0.12353215050896746
0.29010618666853594 -1.1180053521052362 0.14313802197356365
0.30118311241975165 -1.1205016599647422 0.16265475253963851
0.3121274779236404 -1.121938577799791 0.18211791632542212
0.32283719851436343 -1.1227236535798835 0.20155553464434145
0.33328177354109395 -1.1231562555469092 0.22099238879881256
0.3435164405931349 -1.1233799079622193 0.24044373999790875
0.3536436655063957 -1.1233696407793503 0.2598747507270682
0.3637773486145069 -1.1229633866885433 0.27917835998751894
0.37400624384700065 -1.121931795685724 0.29819171592279625
0.38439621712126726 -1.1200411889064852 0.316755328138534
0.39500144717388114 -1.1171176253171053 0.33476308015005196
0.40588361248289295 -1.1130949153735548 0.3521920793305472
0.4171122300730782 -1.108043563930511 0.36910535248479875
0.4287442507407834 -1.1021732749075865 0.38563328257197793
0.44080873676082055 -1.0958297951426959 0.4019310586761932
0.45331910198540715 -1.089463285326412 0.4181649829611253
0.46627508487429703 -1.0835787426351797 0.4344920738086927
0.4796824652065159 -1.0786877137484443 0.45105633033173154
0.4935514073899512 -1.0752638206447365 0.4679984553267342
0.5079209804002114 -1.0737119093168 0.4854788894000349
0.5228901910082463 -1.0743916171099066 0.5036729967322517
0.5385868086486177 -1.0776551675902006 0.5226301261938984
0.5550293340540482 -1.08378492811227 0.542039371630391
0.5719802345681347 -1.0928143478328727 0.5612204521776918
0.5889854789066841 -1.1044695134057303 0.5793731396405811
0.6055055306557895 -1.1182371505350919 0.5958263128325646
0.6210524519460856 -1.1334899996386192 0.6101537806786881
0.6353132150997559 -1.1496540898417522 0.6222334332330607
0.6481914830838055 -1.1663340051678894 0.6321516184139385
0.6597761170463234 -1.1833248263388823 0.640090391757242
0.6702614402688176 -1.2005527720036748 0.6463143299002022
0.6798833097640766 -1.218024144906843 0.6511926240078952
0.6888517090830777 -1.235762744635073 0.6552011921419827
0.6972848518226469 -1.253714224482276 0.6588665401929793
0.7051428781185315 -1.2716260501096222 0.6626960337310782
0.7121800689150815 -1.2890813313811758 0.6670670485344955
0.7180886184435432 -1.305779661193596 0.6721755279015378
LINES 1 120
119 0 1 2 3 4 5 6 7 8 9 10 11 12 13 14 15 16 17 18 19 20 21 22 23 24 25 26 27 28 29 30 31 32 33 34 35 36 37 38 39 40 41 42 43 44 45 46 47 48 49 50 51 52 53 54 55 56 57 58 59 60 61 62 63 64 65 66 67 68 69 70 71 72 73 74 75 76 77 78 79 80 81 82 83 84 85 86 87 88 89 90 91 92 93 94 95 96 97 98 99 100 101 102 103 104 105 106 107 108 109 110 111 112 113 114 115 116 117 118 
CELL_DATA 1
SCALARS ComponentValue float 1
LOOKUP_TABLE default
1
