# vtk DataFile Version 2.0
3D curve data
ASCII
DATASET POLYDATA
POINTS 119 float
0.0010255792869870817 -0.00803177796626109 -0.007358527046959873
0.002160738795429471 -0.018132195281766673 -0.017494289424919
0.0030090823120445444 -0.02983762664252116 -0.029944024097651456
0.003167126543534369 -0.04238613149580874 -0.04386912480446327
0.002505658152370677 -0.05504146623874959 -0.058492019593153824
0.0010520925304943881 -0.06735612717383059 -0.07334056776319141
-0.0012065241730433698 -0.07904454610683703 -0.08812722448413451
-0.004322044170923691 -0.08989235007214193 -0.10263724721819173
-0.008364394729211298 -0.09980166190321887 -0.1167242371552436
-0.01347997033765309 -0.10878639483429958 -0.13027377855256284
-0.019855690874017416 -0.11687715653494549 -0.14311974035302208
-0.02758198518753846 -0.1241281034386202 -0.15508589529834688
-0.03660678188383607 -0.13069475714321532 -0.1660637950223964
-0.04682884007617616 -0.13690307838070093 -0.17603233434340138
-0.05818060777862433 -0.14312055224250916 -0.18488857395269942
-0.07043668415207537 -0.14962108367355595 -0.19251897808621665
-0.08343811307446342 -0.15658367709291132 -0.19884877220161953
-0.09702812184753817 -0.16401660439261817 -0.20368155987090145
-0.11103063788213671 -0.17184882831895076 -0.20680413254831043
-0.1252845436786747 -0.18005641080379803 -0.20807171467623164
-0.13967097276514773 -0.18872833147848114 -0.20741177819510576
-0.1540544807296039 -0.19803284476403962 -0.2047895971201008
-0.16818529386858333 -0.2081347131169242 -0.20023216155079981
-0.18165955928924188 -0.21910965772951285 -0.1939007147930858
-0.19397790086255146 -0.23089271894489963 -0.18613186953031235
-0.20464748653357412 -0.24330892372610163 -0.17738302821710986
-0.21319604605354192 -0.25611573556057177 -0.16815980394894653
-0.21909132179960097 -0.2689328154126685 -0.1590470428262483
-0.22183848411904128 -0.2810576653832308 -0.15076349884982426
-0.2214892285568755 -0.2916047624378517 -0.14384981890500173
-0.21858734003116392 -0.30015756022833595 -0.138372471240041
-0.21380392195815373 -0.3067490124329672 -0.1341120624239135
-0.20757076867893354 -0.31172743572075373 -0.13066507226088267
-0.19989567369167013 -0.3154601854550624 -0.1276170716407628
-0.19061021119653718 -0.31821444436176916 -0.12470264969204307
-0.179570627299878 -0.3202571726326637 -0.12176905434341585
-0.16668897887577616 -0.3219618573334051 -0.11867709464264559
-0.15173388441333502 -0.3238177441715853 -0.11529436890429948
-0.13448298248852347 -0.3263417272759717 -0.11160104452832
-0.11484728971704967 -0.3300334272808781 -0.10766960544746268
-0.09296561381318066 -0.33538284377220867 -0.10360374686061839
-0.06901361457168173 -0.3429326870281299 -0.09945858557451283
-0.04316596205842403 -0.35325662855920764 -0.09528559216551821
-0.01568542980136424 -0.3669238720082124 -0.09116640126150394
0.013026457837650727 -0.38444745226933447 -0.08720276903811708
0.042429809785980155 -0.40621087409827894 -0.08349409168828904
0.07186087763637172 -0.4323946004967733 -0.08012113266063856
0.10059078902194421 -0.4629141449606855 -0.07713562005124946
0.12794035012462945 -0.49739766004702113 -0.07452997727733222
0.15326820613801506 -0.535107415826977 -0.07224842274249194
0.17600826176445997 -0.5748108826581866 -0.07025180038516098
0.1958410821587285 -0.6149245360471424 -0.06853525170000001
0.21278102785388142 -0.653868697643366 -0.06709595728765369
0.22715673389503702 -0.6904127786591543 -0.06589064573503577
0.2395648540764717 -0.7239989307677853 -0.06482402968346136
0.25067666870008654 -0.7548170201052009 -0.06380510385252233
0.26102799769214935 -0.7833492616265842 -0.0627758753187387
0.27106465391336726 -0.8100020385032097 -0.06166168434135996
0.2812603162039772 -0.8350883417760222 -0.06031297774537966
0.2921550030871309 -0.8589227991213434 -0.0584641113989286
0.3043037969201846 -0.8818455137875265 -0.05572619153283084
0.31818944829131435 -0.9041455655265656 -0.05163589634993683
0.3341712254107483 -0.9259942938510507 -0.04570568512949399
0.35235894573433113 -0.9473952819998523 -0.03749172580479544
0.3724681018323675 -0.968133417065494 -0.02668547898060386
0.39384342598196187 -0.9878259011064991 -0.01313296216943026
0.41562122353649833 -1.0060687735749647 0.003203310449931293
0.4369253399147407 -1.0225435327817836 0.02227733393825461
0.457021780725635 -1.0370533974406522 0.04398344400502865
0.4753895097341188 -1.0495061483640786 0.06816537511601498
0.49172829971671506 -1.0598586547445672 0.09459794370301516
0.5059278332078021 -1.0680826624300364 0.12292868461991688
0.5180360249325134 -1.0741908381343093 0.1526107702590671
0.5282378608718568 -1.078305603235623 0.18290230872588828
0.5368555875859536 -1.0807013630693818 0.21301170123017282
0.5443257143721968 -1.0817492970849594 0.2423017628436348
0.5511209824017477 -1.0817977214244052 0.27037442903329406
0.5576517828278628 -1.0811041180612486 0.29704593037934285
0.564206254277085 -1.0798220881560077 0.3222878009636873
0.5709461691350668 -1.0780173155823283 0.34615819005741594
0.577930523928173 -1.0757118450723473 0.368753466149066
0.585159088360453 -1.0729046846804262 0.39020056780542156
0.5925972821372878 -1.0695848421878977 0.41066787828618
0.6002094113025921 -1.0657399356072035 0.43035364427750217
0.6079781069052771 -1.061374490687594 0.44945799904156475
0.6159127631894571 -1.0565382957641611 0.4681396870758101
0.6240606942424313 -1.0513464598204654 0.48649657868144075
0.6324952386459342 -1.045982778829418 0.5045687959062141
0.6413145186033248 -1.0406682422586055 0.52235851363026
0.6506330112120017 -1.035634972730696 0.5398506462871315
0.6605682290992322 -1.0311087659677478 0.557015259742742
0.6712030743706219 -1.0273068172840174 0.5738026960526278
0.6825573236439441 -1.0244396917598446 0.590142451303334
0.6945629459751668 -1.0226944821824189 0.6059558539415028
0.7070768856603925 -1.0222190768059787 0.6211647195066962
0.7198972693434645 -1.0231044242983696 0.6356955307892351
0.7327879219783657 -1.025386997233067 0.6494703928935277
0.7455043379368345 -1.029057071397542 0.6624064506967562
0.7578111371758249 -1.0340681218580015 0.6744075925937916
0.7695132759935552 -1.0403480649432015 0.6853735585227112
0.7804759509130761 -1.0478028424640469 0.695200731867957
0.7906471299272831 -1.056328984808642 0.7038060363311216
0.8000384024735028 -1.065807298978309 0.7111422484673551
0.8087180717351852 -1.0761015092996646 0.7172343764187088
0.81681131672399 -1.0870954858760913 0.7222073632848149
0.8244868666035863 -1.0987281832403186 0.72624404336721
0.831915901949431 -1.1109745831280244 0.7295453294822335
0.8392367832519785 -1.1238213282349532 0.7323422051932891
0.8465535052877502 -1.1372552566080243 0.7349237636982769
0.8539649626533936 -1.151291848693778 0.7376425216396658
0.8615798498712375 -1.1659937213917124 0.7408632012438037
0.869504937272097 -1.1814297216503176 0.7448599646080832
0.8778082805223806 -1.1975977956826287 0.7497498229061007
0.8865078146964466 -1.2143914330446137 0.7554735647202608
0.8956227971890295 -1.2315780676745403 0.7618282584546048
0.9051657973843114 -1.2487441564705253 0.7685404574745998
0.9150329452273133 -1.265203537618439 0.7752658668443149
0.9248813790660533 -1.2801380823721265 0.7815770580037851
0.9342314658982207 -1.2929718883487715 0.7870023719202854
LINES 1 120
119 0 1 2 3 4 5 6 7 8 9 10 11 12 13 14 15 16 17 18 19 20 21 22 23 24 25 26 27 28 29 30 31 32 33 34 35 36 37 38 39 40 41 42 43 44 45 46 47 48 49 50 51 52 53 54 55 56 57 58 59 60 61 62 63 64 65 66 67 68 69 70 71 72 73 74 75 76 77 78 79 80 81 82 83 84 85 86 87 88 89 90 91 92 93 94 95 96 97 98 99 100 101 102 103 104 105 106 107 108 109 110 111 112 113 114 115 116 117 118 
CELL_DATA 1
SCALARS ComponentValue float 1
LOOKUP_TABLE default
1
