# vtk DataFile Version 2.0
3D curve data
ASCII
DATASET POLYDATA
POINTS 119 float
0.0017829665962916545 -0.01546223299755324 -0.010976262161229839
0.004379594581352079 -0.031007161724106256 -0.02400151230022394
0.007338230321096836 -0.04576849319764839 -0.03825801437741115
0.010223132743569757 -0.059260406336171904 -0.05295428759875616
0.012731701284019207 -0.0714843097372577 -0.06759883215849165
0.014605698121426312 -0.08263650711493395 -0.08191152675781084
0.015598932539579844 -0.09292584226270056 -0.09569530354408748
0.01545436769241303 -0.10250809797717926 -0.10876075672717396
0.01391825248177787 -0.11145801035194461 -0.12089823668368173
0.01080741198895247 -0.11984006741010098 -0.13195028885088056
0.006010762598880339 -0.12778529430214622 -0.1418784428231028
-0.0005823190747996602 -0.13550159881642046 -0.1507493384557078
-0.009211023551474035 -0.14322659702752152 -0.1586137538657088
-0.02007006488667756 -0.15107220038032743 -0.16528055029712388
-0.03290081461098344 -0.15902667878949978 -0.1703310416519292
-0.04689328309807768 -0.16708727732478856 -0.17357882457740445
-0.061353689331096944 -0.17535626550974434 -0.17515624839524463
-0.0758701575787623 -0.18389479276129583 -0.17521806619002667
-0.09020659812469536 -0.1926905553082372 -0.173855040564618
-0.10420210905970019 -0.20173496821277886 -0.17114064630115414
-0.11783841625577483 -0.2110877455285365 -0.16714962386682852
-0.1312297960147365 -0.22084460262583372 -0.16195135017740156
-0.14454132465152345 -0.23109135105413306 -0.15564404747747207
-0.1578910027860164 -0.24187544097805835 -0.14838577397406327
-0.17125785870806842 -0.2531908600780701 -0.14039458358434784
-0.18440421675431137 -0.2649764453231404 -0.13192533836609865
-0.19680245276462185 -0.2771385818175079 -0.12325810144019915
-0.20757407865115182 -0.28951140030176836 -0.11475633619773058
-0.21570741998564064 -0.30169071358618565 -0.10691419837517421
-0.22078114825632145 -0.31322426129754505 -0.09994782949575948
-0.22275840514121104 -0.3241843127093129 -0.09368029043964679
-0.22142765529771843 -0.33473662400256243 -0.08802305091551334
-0.21645819182517834 -0.345002623513923 -0.08290194433453543
-0.20752173412030622 -0.3547178141472354 -0.07837984715837645
-0.19482193377140117 -0.36310741309662087 -0.07472631417952771
-0.17911766612801522 -0.3693658017947049 -0.07221550564163212
-0.16139686415592938 -0.37299215774352074 -0.07100951463556288
-0.1425613078151548 -0.3738252705869892 -0.07115158346415437
-0.1232910682546676 -0.37197354499096147 -0.07260491758326519
-0.10410052727581126 -0.3677668258766036 -0.07525292593491806
-0.08541627063927998 -0.3617364605111101 -0.07883580114362893
-0.06738840321884401 -0.3544907133107733 -0.0830319915716423
-0.04995010549800982 -0.34658089564742434 -0.0875535149706229
-0.03295593935137765 -0.33848047579957763 -0.09212284395925911
-0.016223058077971524 -0.33060378311235994 -0.09647152476882381
0.0005065995268056052 -0.3232790311662315 -0.10037677705971437
0.017547044969822508 -0.3168110098821352 -0.10365668919367899
0.03509598741385958 -0.311582880966012 -0.1061661723821477
0.05308323323408159 -0.30799869892330384 -0.10786672021638528
0.07128959313612822 -0.30633416453864104 -0.10883071569189637
0.08948925466488782 -0.3067245781774907 -0.10914947591726218
0.10750520411359273 -0.3092268276668759 -0.10888235318414133
0.1252200128457922 -0.313874753586511 -0.10806453128769301
0.1425547049094344 -0.32069069987369403 -0.10674015878352579
0.15940009798397076 -0.32965297234027907 -0.10499299030451911
0.17559476818890213 -0.3406169847962384 -0.10294822077079069
0.19096395955656675 -0.3533152364299561 -0.10075787288175043
0.20533357893519008 -0.3674067530384866 -0.09859258633583382
0.21848979941130697 -0.3825253938674813 -0.09662475651949903
0.23017135969847016 -0.39827998723051294 -0.09501155922185604
0.24018195594164446 -0.4142853517485637 -0.09387525174411952
0.2485098507300862 -0.43028369753991647 -0.09322905787455965
0.25523782437725984 -0.4461921711520441 -0.09297034098471654
0.26049904110131017 -0.4620625605475046 -0.09293333775923626
0.2644808675268465 -0.4780681945469355 -0.09292474298360351
0.2674022253745802 -0.4944660422129998 -0.09276453579597516
0.2694973475469218 -0.5115239332206187 -0.0923090768294965
0.2710296900304683 -0.529432464665487 -0.09144637850006694
0.27230015576087097 -0.5482180978281819 -0.09007994568670794
0.27363589840265706 -0.5677115838955598 -0.08811221350127559
0.2753538855476229 -0.5875488932803544 -0.08543148235156811
0.27773287419159765 -0.6072489449069483 -0.08191403197987748
0.2809936363307479 -0.6263146235199092 -0.0774383078761378
0.2852950276174272 -0.6443180705252022 -0.07190964586386042
0.29072712905661374 -0.6609707336330046 -0.06529243378574767
0.2973153481360027 -0.6761845871370922 -0.05761450581960549
0.305050059074063 -0.6900603894927727 -0.04891004932752506
0.313900180164505 -0.7027795869467045 -0.039177422636457765
0.3238025793598849 -0.714517114626777 -0.028383377371514654
0.3346451052487057 -0.7253806209137769 -0.01648357080282268
0.3462626901770044 -0.7353757928019167 -0.0034523388808304365
0.35845139168458784 -0.7443902368983344 0.010684971253262005
0.37099994330088726 -0.7522099518158705 0.02582895276522135
0.3837234888391578 -0.7585737145185607 0.04180535170776518
0.396497498995027 -0.763249606725208 0.058394054800432554
0.40926675747794633 -0.7660994157693468 0.07537068923518934
0.42203463117882456 -0.7671247214898601 0.09254137558305739
0.43483904513047145 -0.7664715031105601 0.10975252295576987
0.4477186439775701 -0.7644149590782766 0.1268859404976509
0.4606975771412153 -0.7613287468292669 0.1438608392035173
0.47377049576112684 -0.7576438742742325 0.16064116122511088
0.486920936955051 -0.7537958423030771 0.17723511195817526
0.5001331924355081 -0.7501889004266721 0.193665408453115
0.5133896093402247 -0.7471544422430605 0.20992869893041605
0.5266718219801143 -0.7449267646606732 0.22597031440707616
0.5399516524373331 -0.7436355334210287 0.2416759987300067
0.5531903067175069 -0.7433116875394188 0.25689535878027003
0.5663521773473983 -0.7439109979244951 0.2714813082976959
0.5794286159165075 -0.7453532823833563 0.2853347982068747
0.5924649797416921 -0.747561901801619 0.2984185910983561
0.6055593484244246 -0.7504914160768529 0.31072898249361264
0.6188211687129457 -0.7541344095677287 0.3222437060535561
0.6323038450787475 -0.7584971974682074 0.3328869504609079
0.645959757482588 -0.7635716874536914 0.34254481956671623
0.6596495679656049 -0.7693295440572041 0.35113341267217263
0.6732139924093273 -0.7757484667111804 0.3586370081303217
0.6865241843760939 -0.7828430859297166 0.36508995272979594
0.699488991138651 -0.7906876756152297 0.37052303045969026
0.7120383101934175 -0.7993833220496238 0.3749327852040951
0.7241120868377015 -0.8090207959025972 0.3782848725530575
0.7356478509304851 -0.8196284956960649 0.38055328086930296
0.7466050357852343 -0.8311523178320389 0.38177193832577255
0.7569949623467609 -0.8434777756966942 0.38206114191707485
0.7669024804062072 -0.8564623651862889 0.38162261556386357
0.7764757981711151 -0.8699426433661517 0.3807105356865725
0.7858934770846255 -0.8836976858588835 0.3795965954389063
0.795317553409751 -0.8973880883503778 0.37852614257181566
0.80477173318851 -0.9105446933667811 0.3777018117578789
0.8140545593494992 -0.9226753451871403 0.37730469669668665
LINES 1 120
119 0 1 2 3 4 5 6 7 8 9 10 11 12 13 14 15 16 17 18 19 20 21 22 23 24 25 26 27 28 29 30 31 32 33 34 35 36 37 38 39 40 41 42 43 44 45 46 47 48 49 50 51 52 53 54 55 56 57 58 59 60 61 62 63 64 65 66 67 68 69 70 71 72 73 74 75 76 77 78 79 80 81 82 83 84 85 86 87 88 89 90 91 92 93 94 95 96 97 98 99 100 101 102 103 104 105 106 107 108 109 110 111 112 113 114 115 116 117 118 
CELL_DATA 1
SCALARS ComponentValue float 1
LOOKUP_TABLE default
1
