# vtk DataFile Version 2.0
3D curve data
ASCII
DATASET POLYDATA
POINTS 119 float
0.0010296434709985498 -0.006470311823727654 -0.005457748421176211
0.0035365776386331316 -0.015499466595776838 -0.01332455994318118
0.007201575616062902 -0.02668042067443328 -0.023262216736351718
0.011358709459765394 -0.0392329673069932 -0.03457111784465256
0.01536871017226546 -0.05218997304320717 -0.04649811717199331
0.018736219560689642 -0.06480989705801649 -0.05851549893866107
0.021016866515772357 -0.07660784042856529 -0.07031816118187607
0.021845265982664272 -0.08730356076515018 -0.08178148145725336
0.020960364376361715 -0.0968434091729138 -0.09296528532176698
0.018106724189968247 -0.10530712990353934 -0.10401657662357797
0.01301701609513129 -0.11276727929463828 -0.11502995313534319
0.0055196098701796896 -0.1192845703051848 -0.1259929275342597
-0.00428211310980277 -0.12499229538629085 -0.13673236722430362
-0.016043401173370594 -0.13026000334739446 -0.1470099619303
-0.029456325960711734 -0.13554262795404914 -0.15651389335125734
-0.04406961791636222 -0.14116040108609448 -0.1649143802935861
-0.05948334310494792 -0.1473114728375175 -0.1719539189501086
-0.07530854208624103 -0.15403279064056918 -0.1773184244925567
-0.09120755369302928 -0.16128395389169248 -0.18073921032315482
-0.10699870369027863 -0.169011618556915 -0.18201656249030626
-0.12263171641114347 -0.17717224229943732 -0.18098822044999585
-0.13815974135110573 -0.1857559531767257 -0.17751699897599227
-0.15372820617257618 -0.19483459062117814 -0.17145702157092188
-0.16952391263516497 -0.20458201174786578 -0.1626243741321787
-0.18571696058802598 -0.2152508108560157 -0.15086290968855398
-0.20240089999645972 -0.2271289692015941 -0.1361718443005985
-0.21947308064334248 -0.24045468230855707 -0.11882885032843793
-0.23646761802015548 -0.25521839440817257 -0.09955197732462615
-0.2527534933878327 -0.2710689299176895 -0.0794313939285819
-0.2677456155081172 -0.28753384211247823 -0.059730705287877175
-0.28110986300588203 -0.3042026105379711 -0.041514523442343035
-0.29238586927604165 -0.3207800270579907 -0.025424270372750756
-0.3007643021692891 -0.3366147858100176 -0.01196097660042765
-0.3056411098695728 -0.35095913468527695 -0.0014810042568596951
-0.30716793750971977 -0.3636226902622882 0.0061652181697920095
-0.3057661585335398 -0.3750787195728284 0.011523798844169847
-0.3015302039965537 -0.38600269289720796 0.014976995144179002
-0.2942007328857861 -0.39688808174245055 0.016532725243615487
-0.2833770497709864 -0.40784184104890603 0.01587467096429519
-0.2690423963317877 -0.41849177639608387 0.012490205263716527
-0.2520228894386662 -0.4283180672170409 0.006094951940737579
-0.23340523043778433 -0.43703959697756134 -0.0032218758730844866
-0.21411511686973844 -0.44452291183342735 -0.015142244629881778
-0.1947854602536795 -0.45074696959991895 -0.029094874936886728
-0.17573257543512744 -0.455838867068234 -0.044245544471002304
-0.1571143348632983 -0.4600647198986024 -0.05954277148813563
-0.13909618647620942 -0.46375579249910737 -0.07385549003004543
-0.12190901672608126 -0.46718871467250406 -0.08620318368944505
-0.10577154676039438 -0.4704551990258419 -0.09598787555104905
-0.09067801476735221 -0.47348077369229824 -0.10306402473909577
-0.076290771859797 -0.476196169364106 -0.10758252053773523
-0.06203158521455644 -0.47866450034342173 -0.10975797538934275
-0.04724627533577641 -0.4811110749708254 -0.10970691778826186
-0.03145246599130168 -0.48391807660735003 -0.10742816973713319
-0.014532795563148664 -0.48756372050129276 -0.1029174527531756
0.0032826505050517524 -0.4925258798098153 -0.09626863869457797
0.021549017613760914 -0.49921075764782324 -0.08768195272900488
0.03974307387240382 -0.5079074282913986 -0.07743104515444695
0.05734534175106782 -0.5187521891960865 -0.0658424806817849
0.07388290283032678 -0.5316914934255932 -0.053295259681871376
0.08902415257144994 -0.5464333523714892 -0.04020490941772064
0.10268874908071574 -0.5625279367066742 -0.02691146081393677
0.11494040464722634 -0.5794706165495658 -0.013645983919981978
0.12588265417345645 -0.5967767988693361 -0.0005751327229404227
0.13563232553474458 -0.614032032397585 0.012186873263980314
0.14431687463823012 -0.6309300262340038 0.024577133759939404
0.1520863711820602 -0.6472729790791458 0.036594296005427754
0.1591252690118011 -0.6629565125357737 0.048308952495873775
0.16564572429283408 -0.6779225935242115 0.059840408915937934
0.1718620425607772 -0.692127058202061 0.07129777265965712
0.17798223752323064 -0.7055361360376078 0.08273076596704147
0.1841965525710257 -0.7181399609167943 0.09410953848398614
0.19065980428400336 -0.7299799476336827 0.10533779046538788
0.1974730134944683 -0.7411944249443934 0.11631674852469037
0.2047091915959865 -0.7520305894471907 0.12706327002854062
0.2124481232966753 -0.7627634874487316 0.13777527780307913
0.22073925496256933 -0.773537617940854 0.14872943535253597
0.22953588824600082 -0.7843307522375709 0.16016449842010194
0.23868454172644527 -0.7949695212984533 0.17222824961275693
0.24796276017211183 -0.8051851790966775 0.18496364066444757
0.2571543964566409 -0.8146880994326283 0.19832675728984406
0.26611564252191144 -0.8232180107485958 0.2122303219324776
0.2747915404460326 -0.8305668979589559 0.22659953249975917
0.2832082883090745 -0.8365881333481464 0.2414110998885037
0.2914533702746972 -0.8412030842553536 0.256702828548661
0.29965106785461537 -0.8444227089502101 0.2725426008528345
0.3079329149751951 -0.8463762050540851 0.288987707903347
0.3164228473511628 -0.8473410360926504 0.30607115484868797
0.3252339076140228 -0.8477096686722856 0.3237956056575829
0.33447691044110717 -0.8479148820762408 0.3421289904661561
0.3442571460584114 -0.8483627025750162 0.3609545000209563
0.3546402204837965 -0.849366796081894 0.3800478254587508
0.3656260601678255 -0.8511265864769292 0.3990981970699842
0.37713368256842433 -0.8537278978969611 0.41777892839438585
0.3890152284392613 -0.8571501811724775 0.4358198970481269
0.4010713613063501 -0.8612915360544625 0.45303993135759546
0.4130704557154235 -0.8660028013371663 0.469340286712428
0.42476907814140163 -0.8711191560308801 0.4846941748335485
0.435918885615896 -0.8764915621760514 0.4991070794939192
0.4462838897494919 -0.8820105793454003 0.5126057975952909
0.45566276888600105 -0.887608135987536 0.5252516739180466
0.46395294359654715 -0.8932655232657458 0.5371841754123907
0.4711998642700074 -0.8990290724230943 0.5486507207639789
0.47761175914657716 -0.905027532402529 0.5599776967246731
0.4834971260191809 -0.9114439396526057 0.5714300970987878
0.4891588596107274 -0.9184740365322839 0.5831116223788132
0.49484800650646116 -0.9262828259606481 0.5949967193856625
0.5007640974663149 -0.9350225840425986 0.6070252114419995
0.5070511871947985 -0.9448446934258194 0.6191515169757458
0.5137941767881898 -0.955897851369871 0.6313373834299245
0.5209890642931724 -0.9682950005262354 0.643483214236973
0.5285255910086799 -0.9820496918316317 0.6553266343037469
0.5361898039588027 -0.9970159258089428 0.6663916698241765
0.5436984209775244 -1.0128957838818728 0.6760361233446132
0.5508165619019696 -1.0292972099320754 0.6836011450410971
0.5574345497225525 -1.045841967639489 0.6885473007085274
0.563573219513354 -1.062281626258013 0.6904624657933488
0.5693581193723753 -1.0787306605674043 0.688991551413969
0.5750044440840608 -1.095702972305419 0.6837139671489472
LINES 1 120
119 0 1 2 3 4 5 6 7 8 9 10 11 12 13 14 15 16 17 18 19 20 21 22 23 24 25 26 27 28 29 30 31 32 33 34 35 36 37 38 39 40 41 42 43 44 45 46 47 48 49 50 51 52 53 54 55 56 57 58 59 60 61 62 63 64 65 66 67 68 69 70 71 72 73 74 75 76 77 78 79 80 81 82 83 84 85 86 87 88 89 90 91 92 93 94 95 96 97 98 99 100 101 102 103 104 105 106 107 108 109 110 111 112 113 114 115 116 117 118 
CELL_DATA 1
SCALARS ComponentValue float 1
LOOKUP_TABLE default
1
