# vtk DataFile Version 2.0
3D curve data
ASCII
DATASET POLYDATA
POINTS 119 float
0.002061896528999376 -0.016833753576436617 -0.009948338980364294
0.0041564698651390015 -0.033515681694301136 -0.021401784500569405
0.00564458176768148 -0.04944449728230914 -0.03379248597168267
0.006147657048752515 -0.06433524507022526 -0.046589839041811104
0.005383172153437424 -0.07819947605860594 -0.059459810046294935
0.0030587969741181823 -0.09111133624721598 -0.07219843270102211
-0.0011098506704253588 -0.10316272309364645 -0.0846760286412922
-0.007406973957476283 -0.11445786503425054 -0.09678434893859506
-0.016081797724025293 -0.1250901781686717 -0.10839281156514226
-0.027228953893908107 -0.13516130279107585 -0.11935294091276588
-0.0406588463564106 -0.14483640402635653 -0.12952632465321728
-0.05592834333121071 -0.1544020387997492 -0.1388095233869713
-0.07262868431358084 -0.16423751837535502 -0.14711821868809433
-0.09050084258933119 -0.1745282170839327 -0.15424630653898036
-0.10905517772958717 -0.18508651674840906 -0.15978166342023067
-0.12752617697086158 -0.1956082015582059 -0.16341260669715163
-0.1453622952085852 -0.20589159561744808 -0.16504391410792685
-0.1623159928734967 -0.21583690668619132 -0.16468594831204528
-0.1784461363522279 -0.22549919620682085 -0.16240527520790113
-0.19411960788236884 -0.23508818945725857 -0.15821047162186952
-0.20979757005046523 -0.2448878832172724 -0.1519948162992588
-0.22590750249617972 -0.2552205837689735 -0.14359541400081535
-0.2427814314911898 -0.2663994808062978 -0.1328711198756224
-0.26057273775627526 -0.2786989635397324 -0.11981437264390915
-0.2791252114365861 -0.2923639093554704 -0.10466510858504616
-0.29777135398925303 -0.307562203263012 -0.08801280041639159
-0.31525338469260833 -0.3242168241574372 -0.0707959183866769
-0.3300227975003728 -0.34188200452346107 -0.05410022248578259
-0.3407525413043983 -0.3598339192401888 -0.038858655779435744
-0.3466442597459696 -0.3773075921625503 -0.025658723843198644
-0.3474213781740185 -0.39367230172744805 -0.01479803600906162
-0.3431597673997734 -0.4085249009164868 -0.006425695650999274
-0.3341583027128225 -0.42188496722766045 -0.000503086923530423
-0.32062574846908487 -0.43387511316743355 0.003010564286449079
-0.30276001434167166 -0.4441454449970883 0.0039111182424086035
-0.2810563074514634 -0.45195618951073874 0.0017942516788942609
-0.25649421422267626 -0.4564411973266661 -0.0036584431810876886
-0.23057168494163435 -0.4568964155058425 -0.01233603890605588
-0.20492944235458513 -0.45318997072968414 -0.023486900838002117
-0.1806823004361563 -0.445955052044268 -0.035888820653741715
-0.15793107525256297 -0.436173713909957 -0.048431440252312705
-0.13638211356012162 -0.42483582630436145 -0.06028650412885342
-0.11570317633356098 -0.4129704817228449 -0.07079404949812836
-0.09553470286064775 -0.40153879972098566 -0.07952809970228547
-0.07555286110293524 -0.39137217263414503 -0.0863313300895193
-0.0555143387749709 -0.3831461208793444 -0.09128219750481639
-0.035278660033934664 -0.3774077615502349 -0.09461599697823202
-0.014891725231299578 -0.3746128510775738 -0.09665480252294327
0.005349942171921618 -0.37506635728788423 -0.09779560368639995
0.025045793709263367 -0.37881965538801327 -0.09847256540253979
0.043868139806176654 -0.3857190862838782 -0.0990498559289693
0.06159422709791716 -0.39552181567838474 -0.09973761524578573
0.07806061449244239 -0.40796137010747774 -0.10058367255974714
0.09313482775162175 -0.42276949727074126 -0.10152399787955006
0.10666087363563026 -0.4396432144180644 -0.10244391773746969
0.11844487982837541 -0.45814238523649803 -0.10322388888306673
0.12834037839538845 -0.4776822062114525 -0.10377216717949725
0.136312501792624 -0.49764016402065736 -0.10406062429978198
0.14241835600334768 -0.5175028137106409 -0.10413611106935725
0.14677174601097315 -0.536914408257596 -0.10412042068603367
0.1495803107194361 -0.5556845954172849 -0.10418983086901742
0.151170573774269 -0.5738485325947821 -0.10447143692596515
0.1518498449996163 -0.5916636295324276 -0.10499737305840201
0.1518578899072951 -0.6094931183550503 -0.10572100132570253
0.1514049108796257 -0.6277169936740377 -0.10650588284594215
0.15068899727054036 -0.6466734036314791 -0.10713666058890409
0.14990485271192083 -0.6665979720695705 -0.10733646292169041
0.149260286059712 -0.6875406546565188 -0.10677129684420474
0.14898460467754773 -0.7092647893903217 -0.10506760452166666
0.14931698142495325 -0.7312372334062756 -0.10186950087466547
0.15046971487746305 -0.7527232699190374 -0.09690426333984743
0.15259512528390254 -0.7729841869827849 -0.09001824380316852
0.15579184584480776 -0.7914425862056674 -0.08116451820901592
0.16015188454267765 -0.8077641911241866 -0.07035585743663308
0.16578662229135688 -0.8218077939444379 -0.05763376038417316
0.17280673204842625 -0.8335563960626419 -0.043079707010839574
0.18127011643562924 -0.8430561433603987 -0.026833754663429375
0.19112794173665265 -0.8503810503837148 -0.009122955818992706
0.20220586446223546 -0.8556537185292006 0.009728166028106689
0.21422415213853235 -0.8590568261208584 0.029340606841330864
0.22684808479937046 -0.8608151944804889 0.04934837612644447
0.2397476688656849 -0.8611618606158434 0.0694496289193816
0.2526455855906455 -0.8603105705035101 0.08942658341260178
0.2653494447458705 -0.8584509803138032 0.10913869373095657
0.27775569508591935 -0.8557476012870346 0.12851740705316447
0.2898471794736167 -0.8523372859235903 0.14755684985786544
0.30166902007318996 -0.8483139195200904 0.1662969830686991
0.31330549787248174 -0.8437318739051698 0.1847807586848974
0.32484855852166544 -0.8386251823421711 0.20302577103750485
0.33638291958897276 -0.8330561711938509 0.22101417116718014
0.3479768356281307 -0.8271611933472739 0.23870788745261637
0.35968616016759203 -0.8211650382082571 0.25606373034958674
0.37155760862262127 -0.8153896189949851 0.2730318890543283
0.3836200901053185 -0.8102202647086736 0.2895549200594648
0.3958766657020426 -0.8060692642084267 0.30557603510560866
0.4082992821646541 -0.803328723208654 0.3210514427244988
0.42082961921409834 -0.8023386325547439 0.33595719683330016
0.4334106450841815 -0.8033733667464311 0.3503047886415497
0.44602000544525644 -0.8066496637042276 0.3641371550924003
0.45869255965517636 -0.8123480078709211 0.3775046189408438
0.47150844508436845 -0.8206182986506425 0.3904195009810469
0.48457130383936164 -0.8315670832622133 0.4028207404687908
0.49798260008000356 -0.8452547571955549 0.41455421718336943
0.5118152788992597 -0.8616980094648699 0.4253474618780967
0.5260422663174079 -0.8808340517011864 0.43481295096636724
0.5404973627722066 -0.9024574550620396 0.4425187463563068
0.5549113022265035 -0.9262548651571473 0.4481256734806961
0.5689680606061622 -0.9518871126816343 0.45144795044875297
0.5823421293357236 -0.9790137918200924 0.4524527907511225
0.5947245184056302 -1.0072884207049706 0.4512454553439421
0.6058496338554736 -1.0363157445632971 0.44807118803762036
0.6155595632559828 -1.065669127665546 0.4433308290747896
0.6238493063337514 -1.094932341288343 0.437551911019347
0.6308810226340978 -1.1237194145931069 0.43135891153857153
0.636945782076942 -1.1516443453080538 0.4254195794683457
0.6423881226458394 -1.1782644364385195 0.4203884295757354
0.6475381028620888 -1.2030130109278856 0.4168156355550928
0.6525783822501028 -1.2253317552362601 0.41504463327098756
0.6574936203479204 -1.2450103326085051 0.4151536525212946
LINES 1 120
119 0 1 2 3 4 5 6 7 8 9 10 11 12 13 14 15 16 17 18 19 20 21 22 23 24 25 26 27 28 29 30 31 32 33 34 35 36 37 38 39 40 41 42 43 44 45 46 47 48 49 50 51 52 53 54 55 56 57 58 59 60 61 62 63 64 65 66 67 68 69 70 71 72 73 74 75 76 77 78 79 80 81 82 83 84 85 86 87 88 89 90 91 92 93 94 95 96 97 98 99 100 101 102 103 104 105 106 107 108 109 110 111 112 113 114 115 116 117 118 
CELL_DATA 1
SCALARS ComponentValue float 1
LOOKUP_TABLE default
1
