# vtk DataFile Version 2.0
3D curve data
ASCII
DATASET POLYDATA
POINTS 119 float
0.0036206618085990595 -0.02229467403472063 -0.01788868435141153
0.01116788716957748 -0.04249603826493657 -0.035817522046120785
0.021794696534959117 -0.0601612300244415 -0.053596598699061374
0.03489596136833781 -0.07567120871704855 -0.07147084407155094
0.04969733476378277 -0.08972778085161713 -0.08978741432323482
0.06504806730938434 -0.10265369176234415 -0.10855375599604516
0.0797137156805405 -0.1145127518370026 -0.12755874078270452
0.09254745717621093 -0.12527869180607265 -0.1465145840004079
0.10258680049705189 -0.1349231518504665 -0.1651534202275587
0.10910698876942798 -0.1434596067352282 -0.18328106519672083
0.11168425535659526 -0.15098356988340259 -0.200858707749622
0.11010133634486323 -0.15770356760833337 -0.21808147476993972
0.1041563718557347 -0.16385099982938117 -0.23514465294423653
0.0939098703398949 -0.16963721858018432 -0.2518952725639398
0.07996208052817531 -0.1753521308748136 -0.26788687676176576
0.06339289739738638 -0.1813030071340444 -0.28250801349739096
0.04551158425610616 -0.1877447650660598 -0.29518054560275303
0.027405108929002768 -0.19482566602840365 -0.305496218119997
0.009818919770342632 -0.20248836682344412 -0.31313643746954445
-0.0067115727830872555 -0.210538767501207 -0.31798715758971163
-0.022133705097209924 -0.21878634958978327 -0.32021203127307185
-0.03682860989873174 -0.22705125495905434 -0.3200642686094326
-0.05145898331894342 -0.235257880931022 -0.31776716120844817
-0.06684246590701606 -0.24349859520863576 -0.31340010919411976
-0.08379167544594907 -0.25201978531800406 -0.30688606062163976
-0.10288279716295452 -0.26116131337577775 -0.2981158763391121
-0.1242085689455772 -0.2712402120040994 -0.28711545949919337
-0.14737416043953636 -0.2824596233048455 -0.2740935608893311
-0.17173191061002485 -0.29502157851028155 -0.25931117524045266
-0.19606039902193198 -0.3091236488116138 -0.2432915993788974
-0.2188051990132765 -0.32449417696541666 -0.22694336866611475
-0.23849166328301308 -0.3406574141562868 -0.21117847729903189
-0.2535186351353882 -0.35682844436950073 -0.19703301977534657
-0.2628135738799692 -0.3716059386167428 -0.18556712128350228
-0.2667764270405727 -0.38354695622666823 -0.17736141574268538
-0.26687423802385735 -0.392015412875404 -0.1722493230377437
-0.2646736029344018 -0.39721026253645875 -0.169626833449866
-0.26104911947283344 -0.39996905884597206 -0.16871642516896002
-0.2551809955965144 -0.4007943593950296 -0.16926206824104617
-0.24528293846734656 -0.3984634929678126 -0.1721859504662136
-0.23087643718404285 -0.3909808940757299 -0.17861573283923485
-0.2126322668671119 -0.3771169198708643 -0.18907762805061223
-0.19144834927105153 -0.35639075464482467 -0.20373125107202306
-0.16811799277731007 -0.3289723055695565 -0.22231402642128026
-0.14312196260658694 -0.29575530164211605 -0.24400147851958168
-0.11661631635781086 -0.258355196379721 -0.2674305824703397
-0.08862539661488768 -0.21893580355085268 -0.29087845038195126
-0.05927317879904413 -0.17981975332241787 -0.3125773646563998
-0.028897228266260525 -0.14295842689124968 -0.33110745586806745
0.0020988954541382044 -0.10958941570121082 -0.3456222021114478
0.033385936935889156 -0.08033600203233263 -0.35578680222283987
0.06470884603396823 -0.05552687160338764 -0.36164157196071145
0.09570225341781465 -0.035471751484572725 -0.36350972415925353
0.12576846344892845 -0.020434150515071393 -0.36197666096354303
0.15410451336793998 -0.010489570910774388 -0.3578616960253053
0.17981593794691453 -0.005452044012005807 -0.35211388509308605
0.20205161667541666 -0.004881955268038531 -0.3456742579651662
0.22015084258052442 -0.008123346584768269 -0.33935990544089234
0.2338036444328565 -0.014396723411022362 -0.33376534839534855
0.2431581299063582 -0.023016258505327344 -0.3292156501513263
0.24871747997407048 -0.033760912524743454 -0.32581897918583796
0.2508735108216205 -0.047103338828366065 -0.3236122435262566
0.2494832839328724 -0.0638111237509839 -0.322755657545824
0.24417551830048412 -0.08440326852474854 -0.32348600966203145
0.23485144302714075 -0.10898048897764974 -0.3259169588928535
0.22189347307673252 -0.13734672397110584 -0.32996622313987045
0.2061362112871506 -0.1691714373436327 -0.33539682426752787
0.18875525024152218 -0.20410222199582267 -0.3418715621655843
0.1711334083832662 -0.24174905178613942 -0.34898397624681027
0.15469871051675102 -0.2816035528133409 -0.3562920919689943
0.14072803341441653 -0.3230304543543673 -0.36336514518572843
0.1302214749014895 -0.3652975930995884 -0.3698162634976053
0.12382851808085762 -0.40761842359656414 -0.3753138641019024
0.12179804093822508 -0.449217726416766 -0.3795810237957187
0.12396437271845966 -0.48938053230962364 -0.38239083299590554
0.12981558558788298 -0.5275360147910645 -0.3835617340951947
0.1386257765401052 -0.5632195110718177 -0.3829350544993846
0.14957070958907517 -0.5960406327366907 -0.38039015890130584
0.16180342975897594 -0.6256571072415726 -0.3758874938296685
0.17453827526661864 -0.6518717984024818 -0.3694794550018665
0.18716091908116644 -0.6746713263314139 -0.3612744038508104
0.19928893475962767 -0.6941874614561107 -0.3513850454953487
0.2107665265621534 -0.7106139917632297 -0.33989791153480964
0.22160532819630682 -0.7241555804273613 -0.3268783724100701
0.23192936442609002 -0.7349849128223708 -0.3124103773271474
0.2419230211224147 -0.743261870969846 -0.29662166280947855
0.25176532208415103 -0.7491819068391853 -0.27969554970965055
0.2615937571407271 -0.7530155861664609 -0.26184545945843724
0.27149239690785226 -0.7551087982081341 -0.24327384091119272
0.2815115744378282 -0.7558250306506915 -0.2241572093356263
0.29166669901525005 -0.7554839253046975 -0.20467415476420223
0.3019412131962563 -0.754306783166097 -0.1850338871408289
0.3122903230234863 -0.7524063383159664 -0.1654722668654711
0.32265787643319355 -0.7498043217425255 -0.14621254848915904
0.33299532794949466 -0.7464519049650263 -0.12740367610638595
0.3432802829791458 -0.7422863728020367 -0.10908471624767864
0.35353276837500236 -0.7372551483665388 -0.0911592429362569
0.3638366246995195 -0.7313413644758383 -0.0734003502623126
0.37435330969892566 -0.7245753669797728 -0.05547299055775271
0.38530792575046235 -0.7170608539663926 -0.03698888027669073
0.3969446584879259 -0.7089995376452298 -0.017554603422469263
0.40947346981299676 -0.7006894235606504 0.003177218188871252
0.4230398745283626 -0.6924936254892802 0.025474836528808865
0.43771679754508164 -0.6848292504436615 0.04944860484625474
0.4534558798521423 -0.6781370554892358 0.07486572081739853
0.47001200663830023 -0.6728336545859406 0.10108218338265855
0.48696086705868913 -0.6692542056363877 0.1271452460098081
0.503770550297465 -0.6676709232803978 0.1519378358699127
0.5198656570829345 -0.6682525832967906 0.17430276552263374
0.5347030814569667 -0.6710238846773381 0.19328068579102875
0.5478816334845359 -0.6758339782057238 0.2083611421876358
0.5592907687931578 -0.6824437161129503 0.21963241234094388
0.5691532026411869 -0.6907093466314375 0.2276398603325042
0.5778732589132745 -0.7007145176971437 0.23308618824289254
0.5857837824676917 -0.7126968596966841 0.23658060159312755
0.5930304956469739 -0.7268773751852755 0.2386126503383863
0.5996548195744177 -0.7433550279056607 0.23965954886904905
0.6056689914535779 -0.7619697034413775 0.2402463440496509
0.6110429042764386 -0.782195478480717 0.24089844550984563
LINES 1 120
119 0 1 2 3 4 5 6 7 8 9 10 11 12 13 14 15 16 17 18 19 20 21 22 23 24 25 26 27 28 29 30 31 32 33 34 35 36 37 38 39 40 41 42 43 44 45 46 47 48 49 50 51 52 53 54 55 56 57 58 59 60 61 62 63 64 65 66 67 68 69 70 71 72 73 74 75 76 77 78 79 80 81 82 83 84 85 86 87 88 89 90 91 92 93 94 95 96 97 98 99 100 101 102 103 104 105 106 107 108 109 110 111 112 113 114 115 116 117 118 
CELL_DATA 1
SCALARS ComponentValue float 1
LOOKUP_TABLE default
1
