# vtk DataFile Version 2.0
3D curve data
ASCII
DATASET POLYDATA
POINTS 119 float
0.0022857032896633723 -0.009928573788704508 -0.009387034994548123
0.006893242746883493 -0.022599609374547656 -0.019279354178177773
0.013445947576440813 -0.03781021735921791 -0.029572744340101355
0.021193284901187496 -0.05492054997449662 -0.04016554198495223
0.029174250231933933 -0.07281241586583598 -0.050869937243028726
0.0364137357301686 -0.09033313983840897 -0.0614861782097291
0.04200662223526409 -0.1065182571872973 -0.07182072930512551
0.045316965988889485 -0.12071215849220968 -0.08170089708068344
0.04608120798162475 -0.1327764162890836 -0.0910890899622472
0.044185941764903466 -0.14303712576440542 -0.10010420927344621
0.0394728970937422 -0.15206259234886016 -0.10892176350219457
0.03176965802522499 -0.16046970658677556 -0.1176029770937065
0.021274171844948432 -0.16881106504898405 -0.12599869732908736
0.008773376529210161 -0.17771207360212005 -0.13399428237984098
-0.004830822299033708 -0.1879332304821986 -0.14176860496158847
-0.018978549105257286 -0.20017408067936482 -0.14951853238787705
-0.03320447641354189 -0.21481057501630665 -0.15716422700472304
-0.047100233513815044 -0.23184259427432494 -0.1644175661794325
-0.060456530306786486 -0.25091085646774075 -0.1708922940025902
-0.07335577812942626 -0.27132989116345435 -0.17614572714688898
-0.08602162187127034 -0.292199008561371 -0.17971708687856153
-0.09868651857671834 -0.31266955947230757 -0.18121860591392241
-0.11149771841905495 -0.3320943966597012 -0.18037802882318196
-0.12447462958630617 -0.35007291286211195 -0.17707967110222494
-0.13749530895158849 -0.3664491941388687 -0.1713922465399137
-0.1502414338268614 -0.3812385270740447 -0.1636037387236701
-0.16216141810120804 -0.3944872885858472 -0.15426942077787045
-0.1726200702819452 -0.40624850779017274 -0.1441108469736112
-0.18091283315068202 -0.41658239148713466 -0.133903568111112
-0.18617204234762996 -0.42521542819426916 -0.12475139127898563
-0.18823698337344638 -0.4314294557415025 -0.11771734364346435
-0.18823879226546633 -0.4352529084489496 -0.11278280770325144
-0.18719874155698674 -0.43742904184283404 -0.10940569577307414
-0.18559980408767263 -0.4386116790536223 -0.10699015469534132
-0.18344352698645897 -0.43925954848583104 -0.10501547781598218
-0.1803669540434448 -0.43961218612607067 -0.10314377031874745
-0.1757384079661001 -0.4397549152373806 -0.10120057677625283
-0.16867546448889803 -0.4396376418102929 -0.09921376975205537
-0.1585889887828422 -0.4390938349518826 -0.09746305195038495
-0.14554695598135975 -0.4381097344020115 -0.09617717915907245
-0.12979739240244903 -0.4369090756203151 -0.095467654571641
-0.11177995334637301 -0.43585603066932654 -0.09542305187982512
-0.09212122411920928 -0.4354310575330098 -0.09610648458652948
-0.0715077920697895 -0.43614141809879486 -0.09762245194590326
-0.050561160112814925 -0.4384224957857335 -0.10009746244578026
-0.029740288796698145 -0.44262067877869193 -0.10361904939150228
-0.009390767088958791 -0.4489869449105844 -0.10822095941165616
0.01026584280987169 -0.45769154335270057 -0.11388768151022244
0.02920052007673242 -0.4689448617231084 -0.1205232435673535
0.04738136910344784 -0.48308289869224863 -0.12797607116145046
0.06456957083460088 -0.5003858719225073 -0.13614814746193757
0.08033801291563022 -0.5208363960562514 -0.14504811986458174
0.09425092042643411 -0.5439102790677499 -0.1547160519867669
0.1061269546020193 -0.5686810179701371 -0.16509995626842172
0.11619502235219599 -0.5942170824745365 -0.17598479058717445
0.1249539732473061 -0.6199743788922667 -0.18705514802024098
0.13292194166362103 -0.6457368944217678 -0.1979608758918543
0.14057799337252472 -0.6713963293697695 -0.20833053034036683
0.148439099294843 -0.6968467933868404 -0.2177837153791967
0.15712102082074006 -0.7220770898438539 -0.22594513937152205
0.16718487343904423 -0.747294261105719 -0.23243696066649627
0.17888432027844203 -0.7727372542649504 -0.23699145032793367
0.19228405891689077 -0.7983705916732059 -0.23945403612243127
0.20736593714615031 -0.8238720190768065 -0.23967975338418743
0.2240480686664189 -0.8487365828597325 -0.23754122626746438
0.24217196919936967 -0.8724067120050034 -0.23296426037238607
0.2614525115756167 -0.8943740980256698 -0.2259449993260315
0.2814484620752026 -0.9142616145720013 -0.21657358283466338
0.3015996644165462 -0.9318895534790562 -0.2050552421192259
0.32129850124751447 -0.9472898654585546 -0.19171304142736695
0.3399755559294765 -0.960678008745304 -0.17696580792822547
0.3571801314323726 -0.9723835848916411 -0.1612838928163865
0.3726359548760799 -0.9827499819125175 -0.14512761502709598
0.38626556925258204 -0.9920406108234294 -0.12888745930291617
0.3981864674705101 -1.0003716575532098 -0.11283935230232553
0.40868877577036566 -1.0076734018790698 -0.09713796052274772
0.41816533605899864 -1.0137030513616554 -0.08186932322674542
0.42701459870004616 -1.0181377722726532 -0.06709438555066642
0.4355500408341228 -1.020725247298303 -0.05282513595967914
0.44396752854904953 -1.0214226129307389 -0.03895203270383138
0.45239292337860326 -1.0204228471192565 -0.02521572980242196
0.4609016266299022 -1.0180893542601726 -0.011302553233684755
0.4694923120515721 -1.0149031747558233 0.0030546514348687146
0.4781038405938589 -1.0113932603340023 0.018034290468829636
0.4866710075671228 -1.0080220305200798 0.03372470857346097
0.4951691844817442 -1.005084231559923 0.05012833026476843
0.5036284229275485 -1.0026496427267764 0.06716369269111283
0.5120918479197671 -1.0005663044391333 0.08466518875672603
0.5205870994167983 -0.9985099103499945 0.10241118243633113
0.5290995015680342 -0.9960648320588357 0.12017797874353404
0.537586228446603 -0.9928281776126779 0.13781014618926588
0.5460059285599562 -0.9884886590772346 0.15527544327798434
0.5543382215160589 -0.9828519229887327 0.17267871973021623
0.5626009143576961 -0.9758601232275799 0.19024734033794122
0.5708510465063401 -0.9676004398704563 0.20827745137539078
0.5791825690553163 -0.9583255686612677 0.2270645840220662
0.5877135485982548 -0.9484734837536732 0.24678479099831913
0.5965675541151337 -0.9386183956066302 0.26740402673958974
0.6058503689766469 -0.9293756842521772 0.2886342347603596
0.6156194093883604 -0.9212619684174227 0.31000000755214585
0.6258783369849408 -0.9146125351453388 0.33096950387966817
0.6365812711301057 -0.9095681279285648 0.3510846774408682
0.6476335140206537 -0.9061533845302094 0.3700200057176018
0.6588822353377393 -0.9043339293045476 0.38757369060668834
0.6701253320540859 -0.9040381116989664 0.4036537807178793
0.6811578992813332 -0.9051452207837207 0.41829605376882506
0.6918384864724619 -0.9075109668999691 0.4316620142748878
0.7021463851421522 -0.9109881501890875 0.4440393318419092
0.7122108919259535 -0.9154799399833908 0.4557895060620226
0.7222967066117101 -0.9209802782064869 0.46728920371543103
0.7327681074992496 -0.9275646125314417 0.47883818517783383
0.7440265908117505 -0.935318016181026 0.49057919383911885
0.7564469863810377 -0.9442432156071621 0.5024821525798419
0.7703491060639498 -0.9542264994891435 0.5143799733831018
0.7859766667307275 -0.9650313610842014 0.5259997498668446
0.8034492588421743 -0.9762565400250551 0.5369735792904228
0.8226329981009967 -0.9872072613055336 0.5468628249853114
0.8430215115422675 -0.9969110175075713 0.5552891468328816
0.8638605504665103 -1.004480045653645 0.562101202912642
LINES 1 120
119 0 1 2 3 4 5 6 7 8 9 10 11 12 13 14 15 16 17 18 19 20 21 22 23 24 25 26 27 28 29 30 31 32 33 34 35 36 37 38 39 40 41 42 43 44 45 46 47 48 49 50 51 52 53 54 55 56 57 58 59 60 61 62 63 64 65 66 67 68 69 70 71 72 73 74 75 76 77 78 79 80 81 82 83 84 85 86 87 88 89 90 91 92 93 94 95 96 97 98 99 100 101 102 103 104 105 106 107 108 109 110 111 112 113 114 115 116 117 118 
CELL_DATA 1
SCALARS ComponentValue float 1
LOOKUP_TABLE default
1
