# vtk DataFile Version 2.0
3D curve data
ASCII
DATASET POLYDATA
POINTS 119 float
-0.0035526603971774142 -0.013766350584856417 -0.009324343146683201
-0.006355887078483993 -0.02956727477158233 -0.019689961878371534
-0.008383667981188923 -0.046697081605714175 -0.030853797339407414
-0.009802218579111791 -0.0641827152221788 -0.04244238583735968
-0.010894769980814603 -0.08124087491901377 -0.05409742788349643
-0.012011048506880853 -0.09739697768764037 -0.06554571637056149
-0.013538343481881796 -0.11237989028749408 -0.07656694077498422
-0.015827989446201878 -0.12605304561711184 -0.08695657019059189
-0.01915098167586715 -0.13843525217933525 -0.09654252454457987
-0.023730773067780528 -0.1496819673318002 -0.10519897120680277
-0.029803190030583855 -0.16004808084401356 -0.11285864786727247
-0.03767050261835449 -0.1697970652451972 -0.11946362667481468
-0.047427627954867324 -0.17904919247962 -0.12485944682603868
-0.058617390646812845 -0.18794795291405647 -0.1289383253893753
-0.07066276133732931 -0.19688061015584235 -0.13190270722985672
-0.08337391969507975 -0.2062343980168335 -0.13396352336648754
-0.09657962142798693 -0.21614309221132838 -0.13517917816766
-0.1101308418774592 -0.2265816523162663 -0.1355747323181291
-0.123869934190996 -0.2373655411696745 -0.135102636540037
-0.1374838056148264 -0.2482418840563881 -0.13374314763474104
-0.15075008459096143 -0.25907162763638303 -0.13155094971344114
-0.1635704172318102 -0.26979850855738974 -0.1285652177840115
-0.17584165551735004 -0.2803886556577583 -0.12482526585029058
-0.18738287240804394 -0.2907825910158769 -0.12042340681336286
-0.19791735975493852 -0.3008564669292525 -0.11554897548297677
-0.20711949991680667 -0.31040345125539504 -0.11050096036643557
-0.21473857207136335 -0.3191512847379543 -0.10563383713646726
-0.2207118364039304 -0.3268673841897134 -0.10123186988548127
-0.225064651382504 -0.33333687002507856 -0.09751474241822537
-0.22804714520137725 -0.33835941607336806 -0.09451413627092528
-0.23001461699303935 -0.3420574215988964 -0.09204413298800224
-0.2312897560633634 -0.34475891270103864 -0.08989825574727991
-0.2320302398116218 -0.3468411504101754 -0.08789204006013657
-0.23223486381317074 -0.3485234024648173 -0.08592046690552221
-0.23187090635352492 -0.3499786996351659 -0.08386463991781479
-0.23075625974761899 -0.35138653621105626 -0.08153139514039294
-0.2284468814964401 -0.35285574050475244 -0.07877233236403886
-0.2242980573817533 -0.3543630613475738 -0.07559996174354694
-0.21766473595542293 -0.3557077254030402 -0.07222795597885878
-0.20828252603101943 -0.35652763975940716 -0.06903170372659473
-0.19651262006763331 -0.3564985082031197 -0.06631059518736086
-0.18297494898653593 -0.3555093155020577 -0.06415684092857914
-0.16833158956339175 -0.3536261797180876 -0.06257596859083579
-0.15328268628357994 -0.3510778476717968 -0.06155811579539983
-0.13847814241198494 -0.34820731703733965 -0.06108182675728621
-0.12437859448835754 -0.3453962797511251 -0.061104108567932226
-0.111204509793844 -0.3429924553094699 -0.06155959794235119
-0.09897706398783954 -0.34126850273799997 -0.062366412025388
-0.08761693935947629 -0.34038953612243206 -0.0634566066388863
-0.07698194654392107 -0.3404181504123566 -0.0647991031418905
-0.06690780832211368 -0.34136293499327314 -0.0663908889328558
-0.05723218540771451 -0.34323006721591726 -0.06825503160058886
-0.04783014720966221 -0.34605728690337667 -0.07042836094430303
-0.03865079481316349 -0.34989921010453534 -0.07293789428762555
-0.029693339271736653 -0.35480003962984336 -0.0757817527708103
-0.020959056875580955 -0.36079260064591634 -0.0789171350006029
-0.01242350709630192 -0.36792076696482345 -0.08225916627529715
-0.004042962442179252 -0.3762570374039715 -0.0856926997442598
0.004213794852993288 -0.3858935614181213 -0.08908307945946034
0.01235313744349518 -0.3969101944710548 -0.09228364291014263
0.020377161122956296 -0.40936036562258926 -0.09513985615019614
0.028304906062829573 -0.42326316053986096 -0.09749171662478802
0.03618655423274281 -0.4386025820194301 -0.09920013542160495
0.044089700844898924 -0.4553052472475269 -0.10018848997122147
0.052062921824621425 -0.47320020086752596 -0.10045593317956689
0.0601347200047498 -0.4920196916783018 -0.1000553112502517
0.06834079485940915 -0.5114531364414215 -0.09906265133672063
0.07673234326749237 -0.5312144319776927 -0.09755403551967594
0.0853630767088347 -0.5510738911098944 -0.09558867184203182
0.09426754106211908 -0.5708547476896106 -0.09319278496247732
0.10344850511354597 -0.5904113326318468 -0.09034896152270244
0.11287008253585215 -0.6095970565753628 -0.08699348265491445
0.1224670809688487 -0.6282544131402681 -0.08302468941688658
0.1321548618812588 -0.6462132591878283 -0.07832249447812946
0.14184235926069408 -0.663293595348855 -0.07277807530491066
0.15144193311708523 -0.6793143033180636 -0.06632357355405398
0.16087995952323286 -0.6941289998444122 -0.05894703325838379
0.17010327513461093 -0.7076548704592434 -0.05068303466968106
0.1790743515715824 -0.7199050013350345 -0.04157978224666522
0.18777769152992196 -0.7310049330280889 -0.0316443202475601
0.19624964451938062 -0.7411759457201235 -0.02079359559659031
0.20458138178307916 -0.7506512727817518 -0.008864660895612438
0.21288846126480448 -0.7595966026008317 0.004329708895293882
0.22127802503129765 -0.768057868696657 0.018927711826298595
0.22982259813086903 -0.7759375316018644 0.03493959970150638
0.2385471108276539 -0.783024324891865 0.05220727382720684
0.2474341070427959 -0.7890603083649574 0.07041958800737538
0.2564312072191798 -0.7938243360995185 0.08920738940815609
0.265474772653655 -0.7971936238842576 0.10824829637683193
0.2745101834356006 -0.7991546554397198 0.12733173482931734
0.2835059690587784 -0.7998028762679377 0.1463694709536607
0.2924697357995962 -0.799307458689186 0.1653714758620941
0.30144978294966457 -0.7978868200236444 0.1844063917157594
0.3105310295856394 -0.7957881729900441 0.2035700969720241
0.3198279996171915 -0.7932706010721348 0.22294580289458657
0.32947272021005136 -0.7905926307046136 0.24257320689263398
0.3395893433616145 -0.7880041252621096 0.262418600703242
0.35027345953206823 -0.7857228733048932 0.2823535274855351
0.36157287318054665 -0.7839028767585898 0.30217291427661125
0.3734982170157938 -0.7826191282083922 0.32163925211844113
0.38604095802585636 -0.781886484664442 0.3405217447524507
0.39916892883683697 -0.7816967964072361 0.3586080730383439
0.41279126642401237 -0.7820455986972225 0.3757011537939695
0.42673054452397774 -0.782946720646328 0.3916365235334135
0.4407341683712477 -0.7844343179404291 0.4063119831730802
0.4545271175932415 -0.7865704091105553 0.4196915266353151
0.46785354550697544 -0.7894351157660389 0.43176472421301704
0.48051886719371406 -0.7930931250767649 0.44253398402096916
0.49243502636539044 -0.7975806541397651 0.45202751025083415
0.503640463619348 -0.8028990141177121 0.46031851397896034
0.5142935360129822 -0.8090264024502213 0.46753546768622617
0.5246539519362361 -0.8159354778112238 0.47384891105031945
0.5350468629989207 -0.8235927010630535 0.47944642060472
0.5458252057825804 -0.8319306652902079 0.48450492548562973
0.5573210075479136 -0.8408083292496948 0.48918005968900385
0.5698033245483387 -0.8499514021748568 0.4936028069097146
0.5833445125576888 -0.8588575708696012 0.4978349964824261
0.5976410749667296 -0.8668502072875697 0.5018370711403065
0.6121983492631106 -0.8734619218945583 0.5055718053744572
LINES 1 120
119 0 1 2 3 4 5 6 7 8 9 10 11 12 13 14 15 16 17 18 19 20 21 22 23 24 25 26 27 28 29 30 31 32 33 34 35 36 37 38 39 40 41 42 43 44 45 46 47 48 49 50 51 52 53 54 55 56 57 58 59 60 61 62 63 64 65 66 67 68 69 70 71 72 73 74 75 76 77 78 79 80 81 82 83 84 85 86 87 88 89 90 91 92 93 94 95 96 97 98 99 100 101 102 103 104 105 106 107 108 109 110 111 112 113 114 115 116 117 118 
CELL_DATA 1
SCALARS ComponentValue float 1
LOOKUP_TABLE default
1
