# vtk DataFile Version 2.0
3D curve data
ASCII
DATASET POLYDATA
POINTS 119 float
-0.006750980664781641 -0.01497816844628427 -0.01493805482337682
-0.009697539236860578 -0.029859771415506855 -0.031264961855365356
-0.009315374044795703 -0.04420775141913302 -0.048495591188494974
-0.006332930341152389 -0.05807915552777706 -0.06643220056018254
-0.0016076582520350058 -0.07163777966724581 -0.08495747962491298
0.003917132088033919 -0.08493338119743327 -0.10385547021019619
0.00923941487795059 -0.09788955335439731 -0.12278673721241809
0.013305415213710085 -0.11030594081176993 -0.14128310299136954
0.015098787551774804 -0.1218639213803651 -0.15876309679301642
0.013887774058650161 -0.1322805748262146 -0.1746956538276554
0.00936914893842662 -0.14152100020172276 -0.18882449126319908
0.0015228752074242626 -0.14987188093980885 -0.2012547265689764
-0.00969240870305707 -0.15783602077513853 -0.2122870773976715
-0.02421884125835177 -0.16588981766565247 -0.22205672694920803
-0.04139502785156669 -0.17443808538065497 -0.23048815985479573
-0.05994858635065787 -0.1838572091846198 -0.23751196570050456
-0.07842991153794167 -0.19444552956929514 -0.24316157442239789
-0.09578506716968418 -0.2063747878334349 -0.24752278864062557
-0.11156148694991161 -0.21969246047629895 -0.2505960397956256
-0.12587332091579054 -0.23432983536724183 -0.25219585905602815
-0.13890962850947927 -0.2499631612859033 -0.25197766285087736
-0.15081294734208509 -0.2661372439096261 -0.2497442393164097
-0.1617381090461377 -0.2823948947555759 -0.245575433623081
-0.17179067586844715 -0.2983268205678482 -0.23980829325705724
-0.18094141081197013 -0.31353854505203127 -0.23298567523628969
-0.18904439938412285 -0.32765620078473384 -0.22576503653665136
-0.19593486664826204 -0.34042329186912845 -0.21876753316578035
-0.20148799581646054 -0.35180198189531336 -0.21242022729900495
-0.20558454731074285 -0.36198944750500706 -0.20687865908155395
-0.20800410316817097 -0.3713293784081684 -0.202131703228402
-0.20844891466095167 -0.38016314942748186 -0.1980947235375291
-0.20648041834298056 -0.3889102651158655 -0.19459985828742488
-0.20129320940307388 -0.3979725262800461 -0.19150768379317953
-0.19190054806163037 -0.40718529204718756 -0.18887752598830562
-0.1779828549144511 -0.41566451921846004 -0.1869407202588623
-0.15993509092151698 -0.4224498360774771 -0.18587009368736396
-0.138601081791734 -0.4268154282323232 -0.1857921130621064
-0.11536117678693518 -0.4283869519331743 -0.18671847815186268
-0.09177154760203317 -0.42727300281507474 -0.18848005065959966
-0.0691123379016419 -0.4239058518562766 -0.19090054441455148
-0.0483375151300745 -0.41887717212709963 -0.19384523065397152
-0.029929547965097548 -0.41278302882064494 -0.19721579514813137
-0.013976574948889067 -0.40607108210019455 -0.20093030459474362
-0.0002599748753369358 -0.3990139996742077 -0.20487235711283014
0.01171480061169862 -0.39173280380223713 -0.20892890180361903
0.022635951234783146 -0.3842218648441439 -0.2130396625881045
0.033242207377140016 -0.37646439960158495 -0.21716796025391544
0.04416837479836101 -0.36860092906132624 -0.2212353090439316
0.055841020104464595 -0.36097626079459355 -0.22511666547665954
0.06846431954081789 -0.35407732790091206 -0.22865485434177146
0.0820230138153909 -0.3484186113377864 -0.231675893005405
0.0963406940243197 -0.3444400275730357 -0.23403641862180563
0.1111234848779377 -0.34247240875255575 -0.23564220994818738
0.12600895046790964 -0.3427120988684848 -0.23643617284341886
0.14060249774618652 -0.34523066951371467 -0.23638492562012278
0.15451560887587662 -0.34999602769388233 -0.23546919380372777
0.16739199178163067 -0.35693822464311686 -0.23369249779204515
0.1788891121511273 -0.36598484983447654 -0.23111122710508455
0.1886567659783686 -0.37703732484225994 -0.2278629479946945
0.1963741070882794 -0.3899015058583043 -0.22417204332085278
0.20185332505306952 -0.4042459317725072 -0.22032694966324598
0.20514643767145235 -0.41964239375068746 -0.21659841113059766
0.20653771134530813 -0.4356381376592262 -0.21317080883769945
0.20647848030035834 -0.45181689781262335 -0.21012337407869514
0.2055040454764627 -0.46785140969999983 -0.20744238332187126
0.20414955143989916 -0.48354385300205294 -0.20505356536790703
0.2028842697763149 -0.4988292724026613 -0.20284932459252347
0.20207730632689158 -0.513737946946643 -0.2007065268204914
0.20198432613019499 -0.5283491714134019 -0.19849364247676216
0.20275595783450095 -0.5427322630683034 -0.19606537695372978
0.20445342516797171 -0.5568940642115261 -0.19325707709606507
0.207084783329302 -0.5707534110006246 -0.18988789312069446
0.21063663839334779 -0.584142957674194 -0.18577243689230072
0.21509009523634043 -0.5968207205711854 -0.1807542558382535
0.22040942669979352 -0.6085148667367943 -0.17476227576212972
0.22653477305257438 -0.6190227691703364 -0.1678388947311474
0.233416091957668 -0.628279455109058 -0.16008223964117413
0.24103245829701975 -0.6363198845542224 -0.1515776764262191
0.24936388905159299 -0.6432275361533382 -0.14236700262905372
0.25835775493664553 -0.6491225765002183 -0.1324201992019369
0.26793191618499324 -0.6541381463375757 -0.12162067576204728
0.2779940091332899 -0.6583611942771744 -0.10979599679446679
0.2884456130737156 -0.6617880673584681 -0.09678200508568559
0.29918382939020804 -0.6643110718558545 -0.08249710583376754
0.31012978012534553 -0.6657451567492163 -0.06699429541122634
0.32123846182206883 -0.6658763936248803 -0.050467035920311765
0.33250648162844487 -0.664543776018264 -0.03320460687054987
0.3439503814584977 -0.6616891043654172 -0.015526388526506021
0.3555851078709688 -0.6573943199599881 0.0022924577344819166
0.36740250598630336 -0.6518836669350387 0.02006260471737236
0.3793547407740887 -0.6454953693286731 0.0377015806551399
0.39135243330425556 -0.638642337479254 0.055221325385641104
0.4032746045196812 -0.6317538867323836 0.07270009357270026
0.41499195500060215 -0.6252140853123721 0.09024634868211082
0.426394032148733 -0.6193259739562113 0.10795092982909688
0.43741276056549294 -0.6143136223934232 0.12583933762497437
0.4480374259484929 -0.6103324895067521 0.1438413651916408
0.4583171872791818 -0.6074902575124665 0.1617639394499357
0.468359722851996 -0.6058457071491087 0.17929452288886683
0.47831098668504995 -0.6053934792315098 0.19602702782399326
0.4883272367871128 -0.6060584989900393 0.21151878238175711
0.49852408930035175 -0.6076965296894253 0.2253479476733119
0.5089168918258413 -0.6100983523023299 0.237188785565676
0.5194175078037333 -0.6130142337020656 0.24691937873425845
0.5299075460657983 -0.6162159456792722 0.25469198281455185
0.540334637490572 -0.6195785801223634 0.2608395725192103
0.5507082066746023 -0.6230900651557638 0.2657169355371826
0.5610631171257595 -0.6268305315304323 0.2696000337811487
0.5714405395170199 -0.6309324301979823 0.2726660908619683
0.58187757814314 -0.6355621130202411 0.2750061997058731
0.5923851313443 -0.6408930911631322 0.27665287968345303
0.6029459673486932 -0.6470772126434208 0.27763048094491144
0.6135109833421867 -0.654230219233432 0.2779733025070844
0.6240246235025795 -0.6624397689760743 0.27775051987304367
0.6344415074926479 -0.6717869408023576 0.27705823326659273
0.6447377986509115 -0.6823668624584235 0.2760213012432099
0.6549326117123982 -0.6942812927326797 0.27479041151578154
0.6650480793782488 -0.7075292984350403 0.27353935730955903
0.6749668237067418 -0.721802215954811 0.2724080709994129
LINES 1 120
119 0 1 2 3 4 5 6 7 8 9 10 11 12 13 14 15 16 17 18 19 20 21 22 23 24 25 26 27 28 29 30 31 32 33 34 35 36 37 38 39 40 41 42 43 44 45 46 47 48 49 50 51 52 53 54 55 56 57 58 59 60 61 62 63 64 65 66 67 68 69 70 71 72 73 74 75 76 77 78 79 80 81 82 83 84 85 86 87 88 89 90 91 92 93 94 95 96 97 98 99 100 101 102 103 104 105 106 107 108 109 110 111 112 113 114 115 116 117 118 
CELL_DATA 1
SCALARS ComponentValue float 1
LOOKUP_TABLE default
1
