# vtk DataFile Version 2.0
3D curve data
ASCII
DATASET POLYDATA
POINTS 119 float
0.005597950080467633 -0.01077835567572203 -0.007141334736119891
0.012527542767832411 -0.023172857803420772 -0.015986286499815275
0.020228091233985956 -0.03673062568194847 -0.026215518742473277
0.02787303752154035 -0.051019010513127405 -0.03740853616157144
0.034742884087975996 -0.0655696566293361 -0.04910460208877283
0.040373224714299355 -0.08012076945022942 -0.060925106123845725
0.044447355455061566 -0.09462022259388059 -0.07257187930348788
0.046671027078418116 -0.10910313231622122 -0.08377340707652534
0.04675599474766138 -0.12353273793416837 -0.09421516146272334
0.044583435322883336 -0.13783581596996428 -0.10359290508646357
0.04023850465950028 -0.15205223603663298 -0.11170896855694327
0.033899972750580445 -0.1663369514523463 -0.11846451654547516
0.025701574947049825 -0.1808832292539957 -0.12380148504274846
0.015775094380336106 -0.1957145896223113 -0.12759295183528782
0.0044818788546305 -0.21066882389064184 -0.12965520766139219
-0.0076001232013882345 -0.22565873601698064 -0.1300093994086774
-0.02009895756364524 -0.24080602572466167 -0.1288192937014725
-0.032751478082373046 -0.2562338962919987 -0.1262326930713532
-0.04534775631590822 -0.272061645181707 -0.122425284419631
-0.057763806758584876 -0.28840911022384425 -0.11756563131957307
-0.06993643516164769 -0.30535329993906923 -0.11179400528932296
-0.08180521568823276 -0.32285765074957345 -0.10526727435813855
-0.09324889504123265 -0.3407418366631465 -0.09823259444023005
-0.10403477968438155 -0.35870091596893017 -0.09105092112626934
-0.11380289810673924 -0.37634711632311496 -0.08414890814756479
-0.12211506831977574 -0.39324777561752555 -0.07792541649036268
-0.12854420056114485 -0.40899484317974827 -0.07266834179013276
-0.13274271391091946 -0.42328743956749515 -0.06850550363917426
-0.13443434673885343 -0.43595977661624763 -0.06542507404370751
-0.13341853488748565 -0.4469986656086298 -0.06332114154196633
-0.1294641308898861 -0.45664323980399224 -0.06205900940484722
-0.12187267218703822 -0.46531056678710764 -0.06163203421875807
-0.10931992173302382 -0.47306174766945264 -0.06231895602448114
-0.09077033736897423 -0.4791722784326543 -0.06471834206717297
-0.06654170888148087 -0.4826028538642874 -0.06945483521991191
-0.03813814997696746 -0.48262439467598334 -0.076947298164851
-0.007894777416847555 -0.478923687102738 -0.08728753119465972
0.02109320984731548 -0.47173605791654094 -0.09985701072791034
0.04600873219921303 -0.4620045225990213 -0.11326670869118835
0.06554455526198538 -0.4511139280386419 -0.12599616238158884
0.08044867226429718 -0.44003712552595803 -0.13732590284128815
0.09207130575162231 -0.42909835708986127 -0.14718452293818104
0.10156338480259444 -0.4184368670313188 -0.15554345690846402
0.10984996923451533 -0.4081639843286997 -0.1623206510533694
0.1176781842636522 -0.3984099791113796 -0.16744044709774697
0.12564702151586965 -0.3893258923652805 -0.17090304071272402
0.13418151368273404 -0.3811317734140014 -0.1728021066266024
0.1434686354563169 -0.37417093457101064 -0.17331607387752093
0.15340676765882494 -0.36889523524430373 -0.1727205280190536
0.16369312799074937 -0.36573398427522785 -0.17135524588206355
0.17402891520215805 -0.3649577456093174 -0.16951980258177218
0.18431901738283596 -0.36673751380333747 -0.1674023213885362
0.1946248992229954 -0.37135713831356615 -0.1650725629004539
0.20496003920718528 -0.3792513719249288 -0.162534155767764
0.21508642413163093 -0.39075666247105656 -0.15978104364594944
0.2245530490874747 -0.40572436249826266 -0.15679360869767509
0.23296356129201698 -0.42350850866338946 -0.15351218925155158
0.24009395731920058 -0.44324371618999153 -0.14987694333489174
0.24585136842816407 -0.4640690575180168 -0.1458864305424506
0.25023411513783683 -0.48521638160478525 -0.14162126861347113
0.25331742904517235 -0.506084053211638 -0.13721519964919657
0.2552258997581892 -0.5262839333821788 -0.13281515468354288
0.2561367255255365 -0.5456385546916099 -0.12853264504950557
0.2563004175197695 -0.5641628388818346 -0.1243917781742091
0.2560404095633787 -0.5820370476382021 -0.12033119049835869
0.2557194795028868 -0.5995261340975298 -0.11625855334324621
0.25570031405960403 -0.6168425643610077 -0.11209602065935993
0.2563148096510197 -0.6340530400102224 -0.10778754619950473
0.2578308694817989 -0.6510536740093044 -0.10327782782305195
0.26042374555081493 -0.6676045614371955 -0.09847610547127836
0.2641582017664892 -0.6833856356275742 -0.09323892546354538
0.2690099278245494 -0.6980837525644348 -0.08737869071753236
0.27492123882686786 -0.7114695008699115 -0.08067638107910281
0.2818701838238379 -0.723407473794147 -0.07289897452021687
0.2899013884554669 -0.7338183209367637 -0.06383644061684199
0.2991029060419971 -0.7426485688358792 -0.05335956905133051
0.3095579765910432 -0.7498692393234202 -0.041449011627900795
0.3212996119336125 -0.7554905077412413 -0.028195034464284854
0.3342981488975535 -0.7595781730258377 -0.01375509688466942
0.3484585283480158 -0.762238083288034 0.0017054976083257585
0.36361058567787097 -0.763579800824213 0.018041253209911116
0.3795092256603602 -0.7636992345418815 0.035103139791966984
0.3958527210286917 -0.7626908932785553 0.05270066339360956
0.4123131910070988 -0.7606804935376327 0.07059436327605327
0.42861114656137234 -0.757856094678191 0.08854218955019387
0.4445549956827083 -0.7544465625621676 0.10636454237249013
0.46006864575694423 -0.7506829409396631 0.12398486773303083
0.47517813752207905 -0.7467491096688743 0.1414061340306212
0.48995708156218765 -0.742786165419001 0.15865474870641366
0.504486056916958 -0.7389092327339737 0.1757414982485529
0.5188300328231497 -0.735235261902444 0.19267934314353755
0.5330479393133644 -0.7319052066703451 0.20950170972822105
0.5472071563803205 -0.729106240454523 0.2262493595994107
0.5613877111907286 -0.7271013102529811 0.2429213556566108
0.575660036149994 -0.7262417309484128 0.2594173748763977
0.5900789326753921 -0.726945130507104 0.2755187787144935
0.6046838370514735 -0.729650301394777 0.2909276079502305
0.6195396909390096 -0.7347777418937009 0.30534601912051085
0.6347754654408384 -0.7427242779995192 0.31850639488026217
0.6506014460314598 -0.7538914342489618 0.330133160274734
0.6672599701588645 -0.7686555985996458 0.33984468086868064
0.68493361472282 -0.7872433500023136 0.34707108270553727
0.7036432855664293 -0.809559061563926 0.35110415893326835
0.7231731224858083 -0.8350558364056959 0.351298928681396
0.7431079994068819 -0.8627853994419497 0.347362522207177
0.7629709340448809 -0.8916358441483331 0.33949192404375883
0.7823508645276669 -0.9205722156148497 0.32830253384141583
0.8009438485778706 -0.9487470406233057 0.31463052760800925
0.8185479197808916 -0.9754932629666945 0.29938770017263905
0.8350415835017156 -1.0002654798583166 0.2834657899042593
0.8503473463797804 -1.0226199592130074 0.267712411654906
0.8644356798266548 -1.042282177932326 0.2529120297727243
0.8773138229901078 -1.0592797030938093 0.23968649564724778
0.8890527150874162 -1.0740059418376544 0.22838997346437578
0.899773155497628 -1.0871276474137679 0.21911264601989808
0.9096093499996544 -1.0994013455370812 0.21179589069859103
0.9186442712644431 -1.1115267112195313 0.20633080507650128
0.9268455230953245 -1.124128225464008 0.20259606964780505
0.9341209822152587 -1.1377529636103856 0.2005547809567175
LINES 1 120
119 0 1 2 3 4 5 6 7 8 9 10 11 12 13 14 15 16 17 18 19 20 21 22 23 24 25 26 27 28 29 30 31 32 33 34 35 36 37 38 39 40 41 42 43 44 45 46 47 48 49 50 51 52 53 54 55 56 57 58 59 60 61 62 63 64 65 66 67 68 69 70 71 72 73 74 75 76 77 78 79 80 81 82 83 84 85 86 87 88 89 90 91 92 93 94 95 96 97 98 99 100 101 102 103 104 105 106 107 108 109 110 111 112 113 114 115 116 117 118 
CELL_DATA 1
SCALARS ComponentValue float 1
LOOKUP_TABLE default
1
