# vtk DataFile Version 2.0
3D curve data
ASCII
DATASET POLYDATA
POINTS 119 float
0.0012908290706793526 -0.008987981355199445 -0.0061311386452285975
0.00396532839262079 -0.019368570461346973 -0.015076562081348126
0.00825224809414803 -0.03091564334027773 -0.026786349746031925
0.014151448476742556 -0.043505895121681466 -0.041138999435578576
0.021597495350317387 -0.056872035141667034 -0.05792736561698707
0.03051884458087401 -0.07083312730046447 -0.07698925914287931
0.040657146032747726 -0.0852240651236773 -0.09811158045279234
0.05142654645363853 -0.09974676651078251 -0.12088628869455473
0.061834640162040135 -0.11389671318359329 -0.1446012575620158
0.07059936809158622 -0.12700671503294325 -0.16821635804475005
0.07655158803535105 -0.13843869635927078 -0.1905302030054432
0.07905672418104256 -0.1478648359498747 -0.21059880829984642
0.07802601042813388 -0.15538681342236854 -0.2280357155663199
0.07372265837117875 -0.16144162920811866 -0.24290116088160363
0.0665934095374572 -0.1666694940378485 -0.2554682018067101
0.05715423676232117 -0.1717881072863772 -0.26618457547411817
0.045774792001393366 -0.17746434733397445 -0.2754327060558443
0.032890568557787825 -0.1841450868848525 -0.2832850513600525
0.01906436710555254 -0.19203633697518058 -0.289659931733398
0.004950504437226517 -0.20109873949979562 -0.2944351093950069
-0.008903237281401122 -0.21110647597112792 -0.29752979336802166
-0.022130380959699998 -0.2216756742446971 -0.2989041572235012
-0.03454903050699714 -0.2323763157299509 -0.29860095275214443
-0.04612529480286585 -0.24283080946162452 -0.29673704529537764
-0.05693080731615851 -0.25272940547573236 -0.2934717240749963
-0.06717407635862396 -0.26187664150887147 -0.2889456189215435
-0.07725759806103177 -0.2702889935374121 -0.2831934990159574
-0.08775181425448711 -0.2782516781637523 -0.27606809211843003
-0.09922028700441039 -0.28633614094923315 -0.2672388804173876
-0.11172699455676474 -0.29532112718097675 -0.25650892092602723
-0.12467926865734472 -0.3058868481919976 -0.24401153163707107
-0.13699665042363995 -0.31848163758563636 -0.230028200233038
-0.1472730163348302 -0.3331064910637904 -0.2150673063409804
-0.1542493528575922 -0.34920897691919406 -0.19983484435913207
-0.1572594681197546 -0.3660283957496856 -0.18499507214062616
-0.15601436840201272 -0.38302211451768925 -0.17099144487370935
-0.1504410625716886 -0.399841613074164 -0.15814267158345363
-0.1408548527848787 -0.4162873506114315 -0.1465679985562959
-0.1277547966287613 -0.4322623516772875 -0.1362449149132755
-0.11195196776312724 -0.4473115885992405 -0.12747540330754334
-0.09498208545022868 -0.4608446993770082 -0.12058202557112639
-0.07822901513531141 -0.4726501871452278 -0.11556945692424424
-0.06266100066883443 -0.48264711292872015 -0.11233721081903017
-0.048854572498597086 -0.49081746192218234 -0.11070024282523608
-0.03699071310602335 -0.4972188101283081 -0.11042577328071923
-0.026908383716800852 -0.5019759074744159 -0.11128380251199493
-0.01817675396038288 -0.5052734409294485 -0.11306944268815508
-0.010153573912933738 -0.5073168998979203 -0.11562557552504231
-0.002074320285539612 -0.5082799997225319 -0.11882894225553092
0.006772729439484433 -0.5083094000695877 -0.12250774182314117
0.01691515857672649 -0.5076089946844959 -0.126388133956145
0.02862001344906922 -0.5065127921088085 -0.13011946374704228
0.041878471375918824 -0.505481667890207 -0.13335673666237083
0.0564078136708162 -0.505047247473742 -0.13582417374774294
0.07166613785709547 -0.505721378099169 -0.13735186680921602
0.08697972813148518 -0.5078991089628938 -0.13787454996720858
0.10168847916072699 -0.511861467656889 -0.1374115553869178
0.11522247789207621 -0.5177830728916284 -0.13605002408048006
0.12717788877202968 -0.5257240591759564 -0.1339220197768098
0.13734196195094028 -0.5356322872902451 -0.13116436651001645
0.14565938141310258 -0.5473263364309768 -0.12788956427382805
0.15221059283338856 -0.5604500241072945 -0.12416511601801546
0.15719300076575338 -0.5744810514381412 -0.12001325111965505
0.160881018212342 -0.5887977385615711 -0.11544350831883717
0.16358388420475087 -0.6028150928831392 -0.11048268614316317
0.16561208090186058 -0.6160956088875897 -0.10516239208380646
0.16724828204133232 -0.6284056995675223 -0.09948344202257187
0.16873683348207216 -0.6396813607589363 -0.09340193535694709
0.17028417240361088 -0.6499687841339846 -0.08683527540643575
0.17206567209463314 -0.659353148128723 -0.07967250067327505
0.17424125866800966 -0.6679103041981824 -0.07178549199599418
0.17698198235308063 -0.6756657718865599 -0.06304381889129282
0.18047518033553706 -0.682593179994613 -0.05333089071084804
0.18489259688945495 -0.6886090454407222 -0.04257938496322818
0.19032783408122073 -0.6936133960631297 -0.030826775186611123
0.1967365496412728 -0.6975761260871304 -0.018244964370290852
0.20396434017155365 -0.7006020771286035 -0.0050676222158726955
0.21181594648506885 -0.7028966458889845 0.008514265980293503
0.22010183648648757 -0.7046741953563525 0.02240001942036319
0.22865604118274702 -0.7060764291443167 0.036575430176168613
0.23734348532507152 -0.7071340511548243 0.05108747149064893
0.2460689932984521 -0.7077595996377877 0.06602260430667345
0.2547956513823538 -0.7077702872576597 0.0814832194146087
0.26354893591884193 -0.7069229234935521 0.09755359043317792
0.27241563510975186 -0.7049854529343935 0.11425451715040297
0.2815141349563126 -0.701805462864461 0.1314938173680554
0.29097333824032906 -0.69739318536357 0.14906054611687372
0.30090628256878965 -0.691953724366283 0.16667136822269832
0.31139693329286855 -0.6858551608880128 0.18405692172762636
0.3224986888292072 -0.6795533684231609 0.20103684427004487
0.33424542303030946 -0.6734949919072329 0.21755023251531086
0.3466372628566314 -0.6680684027052942 0.23363448448737872
0.35963264035152764 -0.6635747415793914 0.2493810383865812
0.37311170435815766 -0.6602227506529196 0.26487922325870566
0.3868745268097043 -0.6581324989643396 0.28017937046965136
0.4006628216410759 -0.6573609602825391 0.2952654807663344
0.41420966558920386 -0.6579274855934559 0.3100485976722665
0.4272768725760313 -0.6598367765858877 0.32435764767568553
0.4396923212732853 -0.6630754454454507 0.3379535444738956
0.4513674318445831 -0.6675838553535923 0.3505590241777317
0.46230127156349365 -0.6732335244862067 0.36190236856803026
0.4725571267987969 -0.6798243779501052 0.3717460423495722
0.4822071588766169 -0.6870820618023561 0.37991481002059674
0.4913097956029408 -0.6946791704271373 0.38635888191317974
0.4999549008574785 -0.7023278565093196 0.3912256745456871
0.5083321699528471 -0.7098943080698579 0.39478735789944125
0.5167019804534125 -0.7173989267012998 0.3972908710068951
0.5253227783283093 -0.7249652691747079 0.39888456634557334
0.5343965049887944 -0.732755924361356 0.39961888197205975
0.5440397327451404 -0.7409298336825147 0.3994953260626771
0.5542639383393493 -0.749632351967769 0.39853079039560535
0.5649587512447871 -0.7589786876562223 0.39679293463948945
0.5758929358820359 -0.7690529619520197 0.3943996656683726
0.5867584036332258 -0.7799318353009652 0.3914860840198459
0.5972862365942773 -0.7917448358903156 0.3881572986560919
0.6072864613144753 -0.8047002681837435 0.38453936089084184
0.6166469789190842 -0.8191029832468678 0.38083439266975405
0.6253154774644392 -0.8351567228693171 0.3773618720783509
0.6331636975739864 -0.8526186837879445 0.37436556727244563
LINES 1 120
119 0 1 2 3 4 5 6 7 8 9 10 11 12 13 14 15 16 17 18 19 20 21 22 23 24 25 26 27 28 29 30 31 32 33 34 35 36 37 38 39 40 41 42 43 44 45 46 47 48 49 50 51 52 53 54 55 56 57 58 59 60 61 62 63 64 65 66 67 68 69 70 71 72 73 74 75 76 77 78 79 80 81 82 83 84 85 86 87 88 89 90 91 92 93 94 95 96 97 98 99 100 101 102 103 104 105 106 107 108 109 110 111 112 113 114 115 116 117 118 
CELL_DATA 1
SCALARS ComponentValue float 1
LOOKUP_TABLE default
1
