# vtk DataFile Version 2.0
3D curve data
ASCII
DATASET POLYDATA
POINTS 119 float
-0.0012812181022568137 -0.012061914297563904 -0.015415996466860817
-0.0004092848468691208 -0.025280840625648865 -0.031286279669573064
0.0023848977330142795 -0.03941228724453365 -0.047354580361503015
0.0066833542156260264 -0.05448985806341872 -0.06377713268733992
0.011851678743059875 -0.07030891123231087 -0.08068563389715337
0.017169316810806814 -0.08644540957420735 -0.0980714182278529
0.02187556211581359 -0.10242235611626208 -0.11583576384231013
0.025152783851515405 -0.117779067978421 -0.13379955971231203
0.026170459758284845 -0.1320934343947372 -0.15168130579094974
0.0242870240433536 -0.1450619227947721 -0.16913368377841745
0.01925887987685871 -0.1566585588287313 -0.18588395081410222
0.011232745341862634 -0.16722189970060863 -0.20182217500317434
0.0005865293198916333 -0.17735884772230717 -0.21695498573014418
-0.012200542407382886 -0.18773002835767663 -0.23132126195915875
-0.026589103272724384 -0.19891856446830158 -0.24494609054696903
-0.04201902502855553 -0.21136548230173186 -0.25766131341660536
-0.057803060620180674 -0.22527003579710642 -0.2690705547057282
-0.07321459280730508 -0.24062586113106976 -0.27873418427834856
-0.08783606205253924 -0.25738742387471214 -0.2863543584489443
-0.10174840053283588 -0.27539968481200855 -0.29160564117057
-0.11516808307415907 -0.29426566111818464 -0.2940570128023912
-0.12831982998643615 -0.3135325923600804 -0.29339356962699026
-0.14145446547488702 -0.3328785957641322 -0.28950049133809763
-0.1547933784839545 -0.3521737525180285 -0.2824399853676386
-0.16839374963914386 -0.37140892518942753 -0.27247531595115015
-0.18198949143637028 -0.39055550239798575 -0.26016397788360834
-0.19497214882910338 -0.40939805956918285 -0.2463839432153071
-0.20669125136349106 -0.4275741887112802 -0.23205454091583333
-0.21662025988568273 -0.444961770823922 -0.21768974718563938
-0.22362564257297168 -0.4614927455485617 -0.2039614354024738
-0.22662955716706676 -0.47619622355585656 -0.19198115735264035
-0.2258276313200711 -0.4885902191056305 -0.18206870463589142
-0.22167774607080995 -0.4991030312666248 -0.17396795701610163
-0.21424524611440166 -0.5082419502637957 -0.167317959879783
-0.20330669470095059 -0.516176226684637 -0.16196583612244414
-0.18865623830692452 -0.5227938879331194 -0.1580194577140974
-0.17052610291435727 -0.5277751130000279 -0.15576295901122253
-0.15012453878396598 -0.5308187110694498 -0.15531633110003512
-0.12920675644209478 -0.5320312867010971 -0.15632168464039176
-0.10912063147803461 -0.5319076772960515 -0.15817702529044597
-0.09036610862122377 -0.5309680813012616 -0.16044876539502695
-0.07314748153386731 -0.5295668724787949 -0.16291257754144126
-0.05759726527918164 -0.5279947253464274 -0.16539060320549903
-0.04367709439251032 -0.5265100956703995 -0.1677384059029373
-0.031153004364754402 -0.525356645410789 -0.16988102288224424
-0.019706919549097538 -0.5247704585978503 -0.17182612790457452
-0.00906635429447179 -0.5249578841295343 -0.17366091944642859
0.0010194077897379304 -0.5260621969575756 -0.17551500839585343
0.010845170149975453 -0.5282258302218715 -0.17748256963591544
0.02065108716310594 -0.5316426599783354 -0.17958965470136473
0.030550331561535977 -0.5365027122073805 -0.18182473134529797
0.040559335991807985 -0.542957557234506 -0.18415789914195987
0.05059510820095237 -0.5511432671349379 -0.18652772470034978
0.06045027240228168 -0.5611841792359598 -0.18881919105106823
0.0697804146952864 -0.5731572142293944 -0.19085303394586045
0.07815773301333967 -0.5870360730894884 -0.19239233678800788
0.08519327567579443 -0.6027317257806318 -0.19317636501098984
0.09060197885108007 -0.6201522013180271 -0.19297814020984905
0.09422897657863771 -0.6391743756768632 -0.19165634981386764
0.09610997106722463 -0.6595361733525029 -0.18919108400101844
0.09653800023051771 -0.6807808791733861 -0.18569857421656866
0.09606124320153363 -0.7023051558320713 -0.1814205844712698
0.09538901382406992 -0.7235234004830292 -0.17665390349334412
0.09518300226063581 -0.7440440795143508 -0.17166265448060072
0.09591694567653165 -0.7636882784968845 -0.16662830443483354
0.0978598287908576 -0.7824447109982007 -0.16160831073431703
0.10111451084824583 -0.8004104388222127 -0.1565137720607351
0.10565666984513361 -0.8176868657943953 -0.15112032503680084
0.111351997659751 -0.83427118248787 -0.14511169986292868
0.11796490372956228 -0.8500043065019159 -0.13815191897113974
0.1252002519446071 -0.8646214760560189 -0.12995519403000091
0.13278749606867044 -0.8778565562038121 -0.1203166972442357
0.1405705850735427 -0.8895055314435176 -0.10910081978113909
0.14855366263849418 -0.8994346255084916 -0.09622298180792341
0.15687725555397128 -0.9075317937739638 -0.08166666570310328
0.1657523233908166 -0.9136903001804397 -0.06553359129392725
0.17538793732497215 -0.9178266471586256 -0.04807158885748611
0.18592043343844972 -0.9199195622035563 -0.02965703779830901
0.19735279924541504 -0.9200551509918898 -0.010732368727134232
0.20952955678677632 -0.9184715403187739 0.008301471253404672
0.22219777580572775 -0.9155480835079473 0.0271944101619181
0.23509471002685034 -0.9117139963186045 0.04587301810731272
0.24797769215654114 -0.9073759421145944 0.06438875147894967
0.2606433157020408 -0.902873921046264 0.082836992745277
0.2729559201407946 -0.8984597752396666 0.10129624375993104
0.2848744978116934 -0.8942735730870349 0.11981020378599319
0.29645733074868763 -0.8903287594219409 0.1384003572801782
0.30782280661085815 -0.886525277467894 0.15706109838394283
0.31910102726038614 -0.8826979673181401 0.1757560221523672
0.3304020669135498 -0.8786872084881461 0.1944132942032524
0.3418071775067626 -0.8743977493275148 0.21293557875784347
0.3533508748004222 -0.8698502579771333 0.23121732559841562
0.36502403004647194 -0.8651912579081651 0.24916205140253767
0.3767772837419887 -0.8606906253852049 0.2667110395072485
0.3885341161049247 -0.8567200214933407 0.28384584208139874
0.4002068122197414 -0.8537158358673035 0.30058005835614526
0.4117081191178067 -0.8521311577733504 0.3169268388394331
0.42298020477081044 -0.852379951548841 0.33287143258865504
0.4340081398111226 -0.8547805481006815 0.34834160181194646
0.44482073988476917 -0.8595100900432802 0.36319400997703644
0.45546854372503004 -0.8665805966961122 0.3772178434917729
0.46601283288630024 -0.8758252429939644 0.39015626520912333
0.4765054807527291 -0.8869280067901106 0.40175680245061346
0.4869887391409958 -0.8994933651214893 0.41181623631450204
0.49748606282970687 -0.9131272688626182 0.42022092121882965
0.5079944727013178 -0.9274911069752809 0.4269343051809631
0.51847511251191 -0.9423276202817761 0.4320076444794927
0.528852632970735 -0.957447265424775 0.43558116864641666
0.5390353111797395 -0.972719737226132 0.43788227058843143
0.5489462681865467 -0.9880814963843079 0.43919836277337443
0.5585288488896053 -1.003551552796115 0.4398157000386881
0.5677415172819593 -1.0192080909086876 0.43996949578738
0.5765205487057794 -1.035158233983897 0.43981283714246866
0.5847833617684958 -1.0515406203217317 0.4394276290996984
0.5924446624900092 -1.068546843126285 0.43883340560564166
0.5994104294094925 -1.0864219348637125 0.4380246810539218
0.6055655199772654 -1.1054013846327457 0.4370087899501382
0.6107565815937687 -1.1256079328374877 0.4358113685167267
0.6147930936926247 -1.14695477461757 0.434378819344067
LINES 1 120
119 0 1 2 3 4 5 6 7 8 9 10 11 12 13 14 15 16 17 18 19 20 21 22 23 24 25 26 27 28 29 30 31 32 33 34 35 36 37 38 39 40 41 42 43 44 45 46 47 48 49 50 51 52 53 54 55 56 57 58 59 60 61 62 63 64 65 66 67 68 69 70 71 72 73 74 75 76 77 78 79 80 81 82 83 84 85 86 87 88 89 90 91 92 93 94 95 96 97 98 99 100 101 102 103 104 105 106 107 108 109 110 111 112 113 114 115 116 117 118 
CELL_DATA 1
SCALARS ComponentValue float 1
LOOKUP_TABLE default
1
