# vtk DataFile Version 2.0
3D curve data
ASCII
DATASET POLYDATA
POINTS 119 float
0.0032963118127488675 -0.010749820902585647 -0.003760115846208492
0.006713042068314454 -0.023656980973782993 -0.009885523352998452
0.010039119519136816 -0.0379018284255483 -0.018119100138239183
0.013190898625448564 -0.05256050811644555 -0.027843635828915452
0.016238094041102456 -0.0670310111711311 -0.03842514000140378
0.019223113796225058 -0.08104203546581658 -0.04937432507760346
0.022057792066774398 -0.09443860601004381 -0.06030128826751298
0.024560005528205725 -0.10703864039463912 -0.07086544524001763
0.02650098077299623 -0.11866070358774189 -0.08082631983430039
0.027547430688472447 -0.12915423543115037 -0.09006396186336865
0.027251903600986768 -0.1383905127276392 -0.0985095690569005
0.025173777782036725 -0.14630294555926213 -0.1061237714875287
0.021038415608551766 -0.1529731675295904 -0.11295356856823902
0.01473571411799467 -0.15873964796621373 -0.11917564774317288
0.006172576802239159 -0.16406911478231462 -0.12498724261882228
-0.004644251804701575 -0.1693520810696529 -0.13055720532048423
-0.01765741468116738 -0.17487128242081676 -0.13597781329824887
-0.03261884808936736 -0.1807438352891495 -0.14113495479783048
-0.049009200576186567 -0.186945727321362 -0.14577285924386735
-0.06606362635992641 -0.19340363330638155 -0.1496371594302013
-0.08318630089636411 -0.20010613087361412 -0.152564851428939
-0.10009236245269122 -0.20705470354388766 -0.1543807153912997
-0.11671244043942197 -0.21423462933118712 -0.15488421246860198
-0.13312988990977276 -0.22161667907090382 -0.1538859961242758
-0.149579453585988 -0.22918410553357632 -0.15122777432836845
-0.16648090746823055 -0.23699710475395502 -0.14674913357090963
-0.18437355713955664 -0.24529904425359816 -0.14025752562715846
-0.20356775926205195 -0.2545268336792092 -0.13164836806601285
-0.22375151873566992 -0.26505585393589426 -0.12120071968479151
-0.24447893074683646 -0.27702058406625524 -0.10938297174647864
-0.2651803287161527 -0.29062826256325525 -0.09657673585062404
-0.28456019893646955 -0.3056373922523498 -0.08337390828010291
-0.3009116509284471 -0.32101079881734607 -0.07051522781570552
-0.3129784873615638 -0.3354186932192301 -0.05883078791415677
-0.32064048580415333 -0.3482485173254388 -0.0487683986137753
-0.32427544703591027 -0.3594935324954701 -0.04036860474956394
-0.32430663947309757 -0.3693595976945969 -0.033554511957424184
-0.321011194037065 -0.37817442594752865 -0.028209078118514027
-0.31436115576837587 -0.3862439977600293 -0.02429821958906
-0.3043289693093921 -0.39355394764196466 -0.02205246883446276
-0.29151642535353894 -0.39985108377343975 -0.021702647939500094
-0.2767789791324298 -0.40500699828582126 -0.02320525424585576
-0.2608941415293772 -0.40896522306690547 -0.026359781449038944
-0.24451743064563508 -0.4117312062683324 -0.030856094496566802
-0.22816517104124415 -0.4133825031607068 -0.03629022421791039
-0.212183339626569 -0.4140674729498187 -0.04220852266929179
-0.19673638386635023 -0.41399165570224655 -0.04816378250040377
-0.18178823093368557 -0.4133888899576807 -0.053769996719541906
-0.1670858896361263 -0.4125276164781658 -0.05872647885996418
-0.15230939271620814 -0.41176290388368797 -0.06280980357464953
-0.1372716315022132 -0.4115240864319936 -0.06589306967659977
-0.12199631967963642 -0.4122246453879932 -0.06796937683556475
-0.1066021611440822 -0.41414486278406604 -0.06914700089469625
-0.09115526896718146 -0.417420551888671 -0.06960114644643087
-0.0755795026348126 -0.4221260655869507 -0.06952580322044646
-0.05966033226945021 -0.4283848941361012 -0.06910548094718326
-0.04314703027034663 -0.43642437909397125 -0.06850187695922519
-0.025839643419080474 -0.4465299489178074 -0.06782813322187811
-0.007592271128189214 -0.4589410811476756 -0.0671102788688157
0.01169017903071925 -0.47380118223751366 -0.06622458590117986
0.03185809796463073 -0.49109021906697536 -0.06484722692659138
0.05228060338033629 -0.5104504894927382 -0.06260296459086333
0.07213620814378001 -0.5311631180805639 -0.05918821422865762
0.09072566270066439 -0.5523606854399856 -0.0543868504825127
0.10759566917565035 -0.5732334747503207 -0.04812790019883298
0.12258026069150743 -0.5931709930470159 -0.04049254557761324
0.1357369628716822 -0.6117880114669438 -0.03167172992881776
0.14723809619062075 -0.6288958401308653 -0.021931665964142366
0.15728843576210993 -0.6444660354474729 -0.011584490738796381
0.16610288366676706 -0.6586237622409324 -0.0009431481662020426
0.17392632396356034 -0.6716241557510143 0.00973260686600365
0.18104507625004973 -0.683782343542136 0.020267521259111354
0.18775141607484563 -0.6954116944402153 0.03056919125978306
0.19427858490524164 -0.7067631576802746 0.04060649530434463
0.20076443738220084 -0.7180128450337506 0.05039340719604216
0.20726072858330968 -0.7292748657218764 0.05999063678488525
0.2137804234301487 -0.7405899079352519 0.06951402045381998
0.22032920280992965 -0.7519079097572292 0.07912926462108004
0.22690434452175792 -0.7630600704541873 0.08902022514343386
0.2334936614174499 -0.7737835371691599 0.09936010840079207
0.2400942106926772 -0.7837850020035976 0.11029675336009022
0.2467259032531768 -0.7927920716063552 0.12194744068840059
0.2534432132383085 -0.8005730901055247 0.13439762910862788
0.2603345902516354 -0.8069391692521143 0.14770195769949696
0.2675189747279252 -0.8117561103338112 0.16187210464179938
0.27512386159140984 -0.8149651236603938 0.17683811895840756
0.2832715135114175 -0.8166377476930387 0.19242193116128442
0.2920561999613118 -0.8170051968670249 0.20836614050641056
0.3015318850254562 -0.8164303052146664 0.22440149597097
0.31170919840855227 -0.8153295863253422 0.24032321725001807
0.32255341689626954 -0.8141020143168993 0.25603062839341983
0.33399473652082906 -0.8130590123148085 0.2715210517035528
0.34593028842616236 -0.8124008992641829 0.28684643555185696
0.3582138660777331 -0.8122031800320589 0.3020496829135019
0.3706584174538949 -0.812421183126346 0.3171193732754976
0.3830575240330113 -0.8129132033820418 0.3319729558467576
0.3952228808292815 -0.8134878492149332 0.34647586429755095
0.4070194887976176 -0.8139611694196301 0.36047869670293836
0.41838184449570814 -0.81421381034274 0.3738372794962841
0.4292912482496315 -0.8142230277154622 0.38641272118633496
0.4397497731631874 -0.8140493314652943 0.3980655280537803
0.4497511668708394 -0.8138038596132855 0.408670464036868
0.45927029197833863 -0.813602540391244 0.4181558371556163
0.46827233947499264 -0.8135308734208201 0.4265758965918972
0.4767789420924169 -0.8136537975994662 0.4341582407447295
0.4849063674269638 -0.814060569612367 0.44126082108363324
0.49285264890587427 -0.8148859382973949 0.4482463212563794
0.5008384048116863 -0.8163085909416858 0.45539737648112155
0.5090771119861484 -0.8185368031811326 0.4628843052259596
0.517754064735372 -0.8217916383236734 0.4707692742877409
0.5270258576698849 -0.8262879993200045 0.47900868770137556
0.5370024889217129 -0.8321796910512194 0.4874359963789422
0.5477694041777689 -0.839494638469382 0.4958107829814739
0.5594092863255489 -0.8481203304041394 0.5038867344349377
0.5720204202644881 -0.8578132696826373 0.5114524273498062
0.58570608729045 -0.8682012611530905 0.5183363269655585
0.600476248904058 -0.8787444305942456 0.5243561272130871
0.6161323220539022 -0.8887424406541866 0.5293294481814274
0.6322806716904771 -0.8975437270116817 0.5331398104185363
LINES 1 120
119 0 1 2 3 4 5 6 7 8 9 10 11 12 13 14 15 16 17 18 19 20 21 22 23 24 25 26 27 28 29 30 31 32 33 34 35 36 37 38 39 40 41 42 43 44 45 46 47 48 49 50 51 52 53 54 55 56 57 58 59 60 61 62 63 64 65 66 67 68 69 70 71 72 73 74 75 76 77 78 79 80 81 82 83 84 85 86 87 88 89 90 91 92 93 94 95 96 97 98 99 100 101 102 103 104 105 106 107 108 109 110 111 112 113 114 115 116 117 118 
CELL_DATA 1
SCALARS ComponentValue float 1
LOOKUP_TABLE default
1
