# vtk DataFile Version 2.0
3D curve data
ASCII
DATASET POLYDATA
POINTS 119 float
-0.005386520968966305 -0.02687999939432264 -0.010019861313413314
-0.0095302685534777 -0.05241838439002486 -0.02119585691850026
-0.012619864508714902 -0.07561337039596316 -0.03279359447127559
-0.01484317424111255 -0.09594243463109525 -0.04419635070261635
-0.016610541317987775 -0.11384474407400715 -0.05517501823640774
-0.018410271971522004 -0.12985988520487876 -0.06560898415930061
-0.020653354472339416 -0.14441143205646562 -0.0753768334480835
-0.023669050310017956 -0.15787824271353895 -0.08435597564008822
-0.02772440881774925 -0.17065354766118143 -0.09244982904798046
-0.033065033190421846 -0.18315589092129808 -0.09961053752099504
-0.03994280221619191 -0.1957909509244617 -0.10581615151704421
-0.04862806670425712 -0.20888736750112252 -0.1109987050361906
-0.059267062592335766 -0.2225432212388085 -0.114973798637477
-0.07168662504815494 -0.23660098996151918 -0.11755284603256605
-0.08552571934800642 -0.25077901011665343 -0.11868223424805008
-0.10052540038313626 -0.26475386339739626 -0.11828105763669108
-0.11638602338171894 -0.2781314903981522 -0.11622938480212036
-0.13281837031897353 -0.29061292791056864 -0.11247347112301898
-0.1496032766329012 -0.30207501210814147 -0.10700791280107246
-0.16656482581692097 -0.31255885263799776 -0.09985959693793985
-0.1835063055538434 -0.32224304967959017 -0.0911176445960801
-0.20011901791738035 -0.3313980582579753 -0.08097691496586404
-0.21591167961467203 -0.34033148337423 -0.06978758009166182
-0.23023616323073404 -0.34931263973571447 -0.058078362138648934
-0.2423946422586633 -0.3584804527385293 -0.0465309622493238
-0.2518063612543449 -0.36778433530957155 -0.035891036451545434
-0.25817841458422486 -0.3770096932580031 -0.026806677466012053
-0.26153904769927694 -0.3858830194511995 -0.01967561410104947
-0.262111318782866 -0.39410231207356183 -0.014651671408844921
-0.2602719203311341 -0.40136974197913317 -0.01162294414703054
-0.2562867162251881 -0.4075583341956398 -0.010356522274427949
-0.25031913527657546 -0.4125822825741429 -0.010770752470369278
-0.2424306691750092 -0.41636066358808665 -0.01295771099890361
-0.23270085978389998 -0.41870250701012807 -0.016958299042796346
-0.22119908316029385 -0.4193479412532547 -0.02265807917729153
-0.20827129431307972 -0.418013435667837 -0.029756159518183257
-0.19443564742977204 -0.41459552069056893 -0.037751198439066075
-0.17986274970021685 -0.40913563246731455 -0.04622175183066854
-0.16438039994806064 -0.4016904056038981 -0.05494849481989649
-0.14788476650891508 -0.3924287159080224 -0.0636859631339675
-0.1306099839770589 -0.3818685528680438 -0.07191703978352683
-0.11282141774289503 -0.37086472901687867 -0.07899476929403278
-0.0946482398393174 -0.3603775511422919 -0.0843976059446462
-0.07613619969053068 -0.35130391916520337 -0.0878039712628528
-0.05728594579472919 -0.34438903304060325 -0.08907123319119212
-0.03804753398222975 -0.3402470329961378 -0.08815313900060336
-0.018306953017201227 -0.3394506964754854 -0.08501149924199543
0.001942763527213458 -0.34260156461854907 -0.07958079737990614
0.022273521652802095 -0.35017548400726783 -0.07191043110147124
0.04189669464481182 -0.36221322019512064 -0.06230780450757426
0.060013680848717346 -0.3782565440575739 -0.05127578953819669
0.07607655747649189 -0.39752307884529237 -0.039387755653194
0.08981924825375014 -0.4191261187068921 -0.02718994561276327
0.10119860666650514 -0.4421714339478489 -0.015174679602662727
0.11037828804677802 -0.4658181975490683 -0.0037770165274678526
0.11768365524056676 -0.48936448867883053 0.0066395256287450615
0.12350182402575008 -0.5122675997326014 0.015820414523073527
0.1282099948811139 -0.5341428171662892 0.023664905470734694
0.13212158889330958 -0.5547965551506897 0.030238806535054917
0.13543593450676658 -0.574239611980698 0.03571390410736185
0.1382992169066991 -0.5925909038155707 0.040280451366809765
0.1409111152264963 -0.6100829806630795 0.044185102374767526
0.14344169835284362 -0.627037809059421 0.04770646006879747
0.14601150977481264 -0.6437454901921341 0.05107740150921164
0.1487176266728535 -0.6604230116702269 0.05449655021007699
0.1516381274902617 -0.6772173649244133 0.05814328755000402
0.15484737177788993 -0.6941905697559653 0.062182153076364544
0.15842491652595883 -0.7113429903370061 0.06675940370773606
0.16246197505040394 -0.7286420777804471 0.07200470262155312
0.16707377467761478 -0.7460351581793456 0.07804221930061048
0.17239047073724972 -0.763412479794166 0.08499442354114518
0.1785182050099276 -0.7805659054128656 0.09296487407033642
0.1855041720928428 -0.7971827653153163 0.10201015754068592
0.1933317255849643 -0.8129099339137058 0.11212668882947684
0.20193314359070888 -0.8274185865197182 0.12326311506820896
0.21120936462328435 -0.8404616165390668 0.13534913954330433
0.22103551614889172 -0.8519020474962977 0.14832180862476027
0.23127505857264424 -0.8617116138644599 0.16213785410774548
0.2417817686555888 -0.8699483787131534 0.17676191821970444
0.2524116183512306 -0.8767258806046059 0.19214254190405172
0.2630266544973924 -0.882196350398206 0.2081957486933267
0.27351354497343855 -0.8865275577865539 0.22481405573473967
0.2838045220884828 -0.8898696662587942 0.24188377968620828
0.29389525953200496 -0.8923206813248123 0.25929026656872345
0.30382075172075523 -0.8938927815926401 0.27690612068617265
0.31363878997016265 -0.8945299752757689 0.29459376290349826
0.3234140643763233 -0.8941329505779736 0.3122271435644091
0.33320244425006923 -0.8926125786167773 0.3297316831617437
0.34304657008187056 -0.8899360818836844 0.347106546449144
0.35297921465678606 -0.8861633592555835 0.3644136764459166
0.3630126503735095 -0.881464132599626 0.3817388908532716
0.37315165132851613 -0.8760975956078174 0.39915664815566876
0.38339919706153347 -0.8703679405724742 0.4167170743481619
0.3937633064751115 -0.8645591441111943 0.4344590956383399
0.4042708672203714 -0.8588886059183138 0.4524257203733758
0.4149546970321487 -0.853480154661395 0.4706884365539632
0.4258459797857289 -0.8483870281825089 0.48935087054712006
0.4369685845208431 -0.8436375154881146 0.5085507818530365
0.4483297294863494 -0.8392950785483373 0.5284357209348589
0.45992130223032934 -0.8355100668200827 0.549121114306696
0.47171138960190045 -0.832555861892269 0.5706086974288274
0.4836378991998137 -0.830824503689131 0.5927260881884023
0.49561760549413425 -0.8307733850030159 0.6151055331077224
0.5075633982930284 -0.8328593512636644 0.6372415405868384
0.5194021212103962 -0.8374866152132581 0.6585733790762617
0.5310828475781222 -0.8449576290726203 0.6785572714131201
0.5425717033428267 -0.855454991226623 0.6967011011225563
0.5538438468151917 -0.8690387405728923 0.7125938249931001
0.5648630697945872 -0.8856613802187112 0.725907417054092
0.5755667151635537 -0.9051542941709565 0.7363981960159088
0.5858668093200163 -0.9272058111443058 0.7439307114854489
0.5957000898500341 -0.9513714356150553 0.7485172462777429
0.6051021914557403 -0.9770871635791661 0.7503316395856042
0.6142140964243404 -1.0035796182198373 0.7497267659879527
0.6232074476804715 -1.0298008154954013 0.7472620005183248
0.6322129230901019 -1.0544786639204993 0.7436567040780835
0.6412250814501093 -1.076249124464951 0.7396972510240368
0.6499960597425608 -1.0939386823824657 0.7360880179887203
0.6581143575153807 -1.1070913348609506 0.7332846405233553
LINES 1 120
119 0 1 2 3 4 5 6 7 8 9 10 11 12 13 14 15 16 17 18 19 20 21 22 23 24 25 26 27 28 29 30 31 32 33 34 35 36 37 38 39 40 41 42 43 44 45 46 47 48 49 50 51 52 53 54 55 56 57 58 59 60 61 62 63 64 65 66 67 68 69 70 71 72 73 74 75 76 77 78 79 80 81 82 83 84 85 86 87 88 89 90 91 92 93 94 95 96 97 98 99 100 101 102 103 104 105 106 107 108 109 110 111 112 113 114 115 116 117 118 
CELL_DATA 1
SCALARS ComponentValue float 1
LOOKUP_TABLE default
1
