# vtk DataFile Version 2.0
3D curve data
ASCII
DATASET POLYDATA
POINTS 119 float
0.010277677740259688 -0.010382358506136924 -0.003603643327599027
0.02047310119421361 -0.02156650463586706 -0.010018220573338555
0.02995193491374045 -0.033370968479953425 -0.01889841627409295
0.03799265336753455 -0.04551532194309731 -0.02952816312831455
0.04430230786898633 -0.057610089232203926 -0.04112397598532337
0.04893813198202511 -0.06950534634442332 -0.053128597226031526
0.05201703105066755 -0.08118307953384508 -0.06512871566393794
0.05368460866416612 -0.09260711347803482 -0.07674917013870702
0.054142784242668794 -0.10371568126590311 -0.08766191222755201
0.05358699671495371 -0.11446099845633692 -0.09762929825916948
0.05213611908727524 -0.12477882677099503 -0.10647090098087134
0.04984224249141525 -0.13457375547307593 -0.11406250108320834
0.0466200515884715 -0.14379629983477027 -0.12038571993166133
0.042226102088122094 -0.1523879084749192 -0.12539147419300217
0.03653915333446412 -0.1602754939822143 -0.12889586932074784
0.029645091522081786 -0.16761278441059738 -0.13094574303106035
0.021333219948731132 -0.17476927531878284 -0.13170127055558345
0.011324059114591263 -0.18201463666875542 -0.13116197152157383
-0.0004202259387695267 -0.1894965995713071 -0.12931730336122352
-0.013438727234706198 -0.1973009179017874 -0.12633884384608624
-0.02704103671147465 -0.2055649019524391 -0.12260646817920147
-0.040522130599796646 -0.21437260527317265 -0.1185117227218483
-0.05316672531596184 -0.2236542027407985 -0.11439886945284473
-0.06427842933870384 -0.23314829581456156 -0.11056493025341829
-0.07330588475111072 -0.24243832280983418 -0.10723647917609508
-0.08003275779526543 -0.25111416550680765 -0.10450435900189714
-0.0846011826559972 -0.25901353508905645 -0.10230680303322445
-0.0872523861521512 -0.2662633978262795 -0.10053679642581981
-0.08815155796230312 -0.2731135928805188 -0.09915815630233604
-0.08744516557512112 -0.2798753830632777 -0.09816778812461667
-0.08515433853322862 -0.28704761652494615 -0.09755355013205863
-0.08093179725572844 -0.29498836105401866 -0.09741615834705411
-0.07447642616784586 -0.3035354332971468 -0.09791729985819933
-0.06586665819998583 -0.31225872931977505 -0.09921408823459239
-0.05552459442921837 -0.3206804696611133 -0.10141848025354896
-0.044043815424571135 -0.3283715134444296 -0.10457514679931051
-0.03208905050728999 -0.33503144897715587 -0.10857419858170209
-0.020208271369844995 -0.34047533176004074 -0.11317224792565923
-0.008963361519602184 -0.34457858419994736 -0.11806229347800093
0.001122627417596818 -0.34743497484087293 -0.12287733858774375
0.009932082895217749 -0.3494185426138493 -0.1273389076310427
0.017775635026103048 -0.35098288455340176 -0.1313424310042765
0.02515677336266124 -0.3524921824768412 -0.13489700608623129
0.03261029771616814 -0.35418179012391393 -0.13803647418411105
0.04065115523750723 -0.3561944391466424 -0.1407707187191604
0.049774052400934465 -0.358621301138041 -0.14305947105202058
0.06045620488766586 -0.361599262973551 -0.14477859491400735
0.07299290351449358 -0.365401072492882 -0.14572004279564563
0.08723159763150479 -0.3703337924387585 -0.14572900224110966
0.10273455139607729 -0.3766166248937622 -0.1447922034558236
0.11905731830107982 -0.3844322361619149 -0.14292814269105783
0.135797904577814 -0.39396225964908327 -0.1401036688077521
0.15261762989381283 -0.405319472128717 -0.13624083591131525
0.16928807107641008 -0.41850297908982403 -0.1312704524405645
0.18566917567804547 -0.4333813743596898 -0.12519011337629254
0.20166592509936573 -0.44967864644341116 -0.11809914076466249
0.2171982583635556 -0.46702981866269466 -0.11020104223865235
0.23214891369073812 -0.4850398635748 -0.1017762529035398
0.24631792399062785 -0.5033237825009184 -0.09313400739151002
0.25939188889814485 -0.5215114077295556 -0.08457892436805058
0.27100374876506444 -0.5392244008362717 -0.0763887542482129
0.2808626438742429 -0.5561238641259049 -0.06872699459889513
0.28877078591913075 -0.5719315068577434 -0.06161826778881372
0.2947251972718117 -0.5864662743148862 -0.05495001074697317
0.2989538466365523 -0.5997677460011406 -0.04848329506135357
0.3017898216200535 -0.6120695550800691 -0.04195198100742418
0.30356015480458154 -0.6236455571136196 -0.03515333222293321
0.3045707355980592 -0.634700900663767 -0.02799703596178736
0.30513758108066236 -0.6453468726797306 -0.020509621876358824
0.3056063985370178 -0.6556334803698839 -0.01278336557664064
0.3063336142306869 -0.6655666502411212 -0.004912791357907458
0.3076525955761152 -0.6751196946921858 0.003044330926030639
0.30983548310903564 -0.6842651538391002 0.011088140710594436
0.313074721680269 -0.6929735251454061 0.019272476728636797
0.31747369311596807 -0.7012241415867043 0.027686097839258097
0.3230436805803444 -0.7090248380115018 0.036436022610312674
0.3297275189875367 -0.7164201794230751 0.04566247510809511
0.3374206859462559 -0.7234621198461054 0.0555457867603112
0.3459887933868554 -0.7301659896013915 0.06628818672801284
0.35527591523967306 -0.7364680232583691 0.07806710444955971
0.3650954071416468 -0.7422048544642208 0.09097117263762415
0.37524019438267786 -0.7471398107142648 0.10495875209820671
0.38552783948470504 -0.7510074624815845 0.11985619522989838
0.3958397208198803 -0.7535719529981455 0.1354007102596076
0.40615919326461236 -0.754685475121934 0.15131554083065474
0.41654649147976575 -0.7543225539665044 0.1673589435640075
0.4271045471448779 -0.7526051871776686 0.18335011732822198
0.43793865856566727 -0.7498006016893105 0.1991631105495623
0.4491297687512953 -0.7462898790873829 0.2147278739161126
0.46072991966265164 -0.7425062517786698 0.230038112801183
0.4727691296378158 -0.7388662334002147 0.2451599443434142
0.4852709647543889 -0.7357211847062249 0.2602076928503598
0.49825116335581077 -0.7333396866294818 0.27529754198331335
0.5117011360515602 -0.7319137616843221 0.2904738624536923
0.5255704215521003 -0.731560663688412 0.3056604563528054
0.5397659700348729 -0.7323412717149275 0.3206460353831511
0.5541680867991909 -0.7342827539968029 0.3351232337992206
0.568639993506878 -0.7374038908968799 0.34876555702922674
0.5830523887291201 -0.7417429299760364 0.3612833619654366
0.5972881530576303 -0.7473641032654603 0.3724462843349732
0.6112461323142193 -0.7543143381515935 0.38206253009262003
0.6248276288581127 -0.7625809826675312 0.38995645474082435
0.6379174264844907 -0.7720390417708413 0.3959725081236604
0.6503642248868997 -0.7824206512365153 0.4000499857265661
0.662052751473406 -0.7933889069161182 0.4023251407772088
0.6729975497475118 -0.8046760758623779 0.40311262086176614
0.6833670540471464 -0.816162525979049 0.40276977368076183
0.6934309869683041 -0.8278730119669895 0.4015894377916872
0.7034856215651764 -0.8399119864315232 0.39975226088474086
0.7137728437698592 -0.8523512012501149 0.39734807784735415
0.7244133596175166 -0.8651294597432037 0.3944640686508028
0.7354093515331586 -0.8780647060618221 0.39124968736773424
0.7466945796554794 -0.8909772068003114 0.38788807600405173
0.7581993797568982 -0.903819085151162 0.3844974655824277
0.7699108765187285 -0.9167007231719981 0.38108645368268607
0.7818503925119235 -0.9297944370870602 0.37759820125005084
0.7939797278212424 -0.9431887515002588 0.3739690039313632
0.806087465842371 -0.9567484278057163 0.3702272644982634
0.8177415830937584 -0.9700617241839594 0.36660154728091277
LINES 1 120
119 0 1 2 3 4 5 6 7 8 9 10 11 12 13 14 15 16 17 18 19 20 21 22 23 24 25 26 27 28 29 30 31 32 33 34 35 36 37 38 39 40 41 42 43 44 45 46 47 48 49 50 51 52 53 54 55 56 57 58 59 60 61 62 63 64 65 66 67 68 69 70 71 72 73 74 75 76 77 78 79 80 81 82 83 84 85 86 87 88 89 90 91 92 93 94 95 96 97 98 99 100 101 102 103 104 105 106 107 108 109 110 111 112 113 114 115 116 117 118 
CELL_DATA 1
SCALARS ComponentValue float 1
LOOKUP_TABLE default
1
