# vtk DataFile Version 2.0
3D curve data
ASCII
DATASET POLYDATA
POINTS 119 float
0.012812808836284464 -0.009661295068612677 -0.008888983394442081
0.02574148901233589 -0.020513661364578793 -0.019144195973716176
0.03857044967739569 -0.032591531780296515 -0.030503934554040827
0.05089547645189849 -0.045712538857253036 -0.042714792921706775
0.06259033168163335 -0.05946302648815852 -0.05555492139900115
0.07383295082292975 -0.07364702901021293 -0.06894549769031444
0.08478015183523084 -0.0882480433148821 -0.08287993960333484
0.095408558062729 -0.1032682720659653 -0.09733446905379554
0.10542033034618131 -0.11863341243110857 -0.11218919702793947
0.11423775461097083 -0.13412839200836446 -0.12714687037656355
0.12124291295004018 -0.14942000056614235 -0.14172576683036547
0.12609068086207795 -0.1642788797559094 -0.1554728636846542
0.12859523061067796 -0.1786637907081179 -0.16811977897802757
0.12863405550695536 -0.19251933732347964 -0.17945958953837737
0.12633454435856847 -0.20591735684060108 -0.1894009283283454
0.12192636195417325 -0.21925146667266054 -0.19808384088713477
0.11544108500877928 -0.23298391532175855 -0.205598806785018
0.10698785335095316 -0.24735794957368262 -0.21179893519659032
0.09684128260947639 -0.26247478430218063 -0.21655946168099374
0.08543187296643164 -0.27825785859293134 -0.21983577303253893
0.07314923127500364 -0.29455450344205 -0.22169150612831365
0.06031529584551386 -0.3110759215138537 -0.22218725606855405
0.04727395212404449 -0.327434442826651 -0.22141369117184062
0.034411557197281686 -0.3432288856811002 -0.21953326046437652
0.02213335071403859 -0.35811061229129465 -0.21675750938626742
0.010816396136730575 -0.3718561562684331 -0.21329308677441627
0.0008013379945418062 -0.38445130356804436 -0.20933549829417852
-0.007537095373463831 -0.39606501408906003 -0.20510159691646446
-0.013669285779354393 -0.4068577000672047 -0.20089528952212432
-0.017012217442945 -0.41670521508449365 -0.1971741360623666
-0.017433225480163263 -0.42519692393953346 -0.19429536168264322
-0.01544123803135543 -0.432355935726386 -0.1921695152954534
-0.011275049145514646 -0.43857590402949853 -0.19065087058604294
-0.00502655999083769 -0.4438692554687718 -0.18972916210804852
0.003068405134632338 -0.4481199775783348 -0.1894002593556202
0.012613488355859794 -0.4512706799638364 -0.18962183934916946
0.02305375607271925 -0.45341662441921315 -0.19019957740216406
0.033901571195892696 -0.45481706600777355 -0.19083803657005602
0.04465039049020515 -0.4557955371468023 -0.1912759795217112
0.05493350301664736 -0.45672898677870266 -0.19130842098684211
0.06485216813162252 -0.4579533758878295 -0.1908639156619171
0.07471752869447817 -0.4597139477422893 -0.18994267402845083
0.08486774139293518 -0.46223708569139066 -0.1885331663264245
0.09559303629429945 -0.46573172796242723 -0.18663305063219462
0.10706814028219816 -0.4703637823433189 -0.18428201103742134
0.11932552645074698 -0.4762381202627465 -0.18158053689341874
0.13225130988743694 -0.4834149919529701 -0.17869256094184255
0.14570224241982951 -0.4919646007356172 -0.1757869210072542
0.15971595475895484 -0.5022048892788509 -0.17288517176884982
0.1743521333348077 -0.5148235837838336 -0.16983435490484622
0.1894096185661544 -0.5306511053801091 -0.16645298694378402
0.20437937257323804 -0.550329674107914 -0.16265513611850715
0.21858914851790945 -0.5740446970088595 -0.15848981278310775
0.23143776481663966 -0.6014343845342094 -0.15411109437273235
0.24258203813713283 -0.63168871002295 -0.14971237745232627
0.25200983027519464 -0.6637812808311581 -0.1454573419046794
0.25998228116082456 -0.6967319397033777 -0.14144409590552473
0.26691491242665355 -0.7297068645369249 -0.13770017308034488
0.27333712110153685 -0.7619761588612237 -0.13418262434528655
0.27986290069363395 -0.7929891101208633 -0.13074872169968105
0.28700389394075276 -0.8224901706843171 -0.12714382973278432
0.2949573351124428 -0.8503409729922383 -0.12315982264812997
0.3037281717491647 -0.876346550256465 -0.11866774018120732
0.3132523036379157 -0.9003210151825649 -0.11351010616973031
0.3234615207309658 -0.9222182455078263 -0.10750081206026053
0.33429603797724006 -0.9421300772035862 -0.10045997873059577
0.3456579570732179 -0.9602094641103298 -0.09223740768604408
0.357376527660464 -0.9766032324287841 -0.08274188396570507
0.36921957916509474 -0.9914601117990156 -0.07195439294580133
0.3809445586046869 -1.0049496244847962 -0.05990292138324464
0.39235252208743127 -1.017246038912178 -0.04662949018671661
0.40333839189149534 -1.0284927941192379 -0.032168732539990016
0.41390677325711106 -1.0387567950426533 -0.016550404838657568
0.4241487437743524 -1.0479787269333236 0.0001641388252704998
0.43419338383723827 -1.0559865949028227 0.017823323377987758
0.44417208277134157 -1.0625817469238605 0.03617255243593006
0.454239755277236 -1.0676355680746836 0.05495518014412637
0.46458388479645446 -1.0711005572380496 0.07401216927781079
0.47538539366850924 -1.0729807068675299 0.09330197360284045
0.48676427916868603 -1.0733148603773337 0.11286219240656183
0.4987396465810904 -1.0721925123110643 0.13274957100978857
0.5112144086733637 -1.069762534201408 0.15296924133330358
0.5239920213114544 -1.066245685944597 0.17342149568299756
0.536826056841696 -1.0619208075083812 0.19389581618943716
0.5495008409462554 -1.0570929999317968 0.21411114053563804
0.5618920029184381 -1.0520279208410768 0.23378722873742944
0.5740034732962235 -1.0468964444210833 0.25272289308037466
0.5859472027058178 -1.041746007337016 0.27082230046867256
0.5978840910282326 -1.03652463291155 0.2880796900783341
0.6099658843856711 -1.031129676210505 0.30456012304162194
0.622302364470525 -1.0254358196665716 0.3203989309292676
0.6349563966155091 -1.0193420198727492 0.335789737019826
0.6479446245556829 -1.012779976731209 0.35095803889235283
0.661241752720461 -1.0057460363639648 0.36612029741160057
0.674802400842378 -0.9983224378902671 0.38145754394820053
0.6885780021411851 -0.9907004355787153 0.39709731850095736
0.7025420577918905 -0.9832030789270119 0.4130759436194148
0.7166794778313058 -0.9762771523329988 0.429309364420665
0.7309684907078347 -0.9704468786858369 0.4455824306229681
0.7453749330030421 -0.9662100390103092 0.46158916711544207
0.7598615776491255 -0.963938489460187 0.47699186373757596
0.7743914845376499 -0.9638295541967362 0.49145992880437284
0.7889178731143636 -0.9659044845464081 0.504688357509146
0.8033519860178175 -0.9700224673350186 0.5164163810564767
0.8176079640098365 -0.9759480825841461 0.5265081509065033
0.8316792502816506 -0.9834285863253764 0.5349603577552136
0.8456423564707509 -0.992255385213287 0.5418147898641494
0.8596024822824437 -1.0022390861253994 0.5471065439624457
0.8736509128811167 -1.013179043658733 0.550854253822149
0.8878681264552482 -1.0248516088739938 0.5531077088357799
0.902325261373811 -1.0370432834717365 0.553977234074959
0.9170576310505423 -1.049558390241931 0.5536356088943623
0.9320095632045872 -1.0622461287606662 0.5523236058786626
0.9470393198858402 -1.0750583090713752 0.5502975997826564
0.9619691022109057 -1.088098888849777 0.5477784728194958
0.9765658503911836 -1.1015520591676244 0.5449700680375916
0.9904657201781176 -1.1155376107465194 0.5421452033930674
1.0031520847790387 -1.1298635759523652 0.5397056316401475
1.0139660406779227 -1.1438552967063111 0.5380365737969501
LINES 1 120
119 0 1 2 3 4 5 6 7 8 9 10 11 12 13 14 15 16 17 18 19 20 21 22 23 24 25 26 27 28 29 30 31 32 33 34 35 36 37 38 39 40 41 42 43 44 45 46 47 48 49 50 51 52 53 54 55 56 57 58 59 60 61 62 63 64 65 66 67 68 69 70 71 72 73 74 75 76 77 78 79 80 81 82 83 84 85 86 87 88 89 90 91 92 93 94 95 96 97 98 99 100 101 102 103 104 105 106 107 108 109 110 111 112 113 114 115 116 117 118 
CELL_DATA 1
SCALARS ComponentValue float 1
LOOKUP_TABLE default
1
