# vtk DataFile Version 2.0
3D curve data
ASCII
DATASET POLYDATA
POINTS 119 float
0.0061312186433658865 -0.007655262885270848 -0.012907493117534988
0.014387254725511354 -0.017569835648908187 -0.027387256331632755
0.024412538924040057 -0.02920399522313044 -0.042797027817187756
0.035627019291266125 -0.042064639319112744 -0.05872569920788112
0.04738369386087511 -0.05568951840298517 -0.07490563507972627
0.05905036716980876 -0.06968976936659207 -0.09112648131650461
0.06995794211857612 -0.08373356000203842 -0.10720237662363429
0.07937658161085097 -0.09747449273730767 -0.12295346622187145
0.08656886339883783 -0.11053436662358473 -0.13821300101725217
0.09090080914884621 -0.12254778592749183 -0.152817205464935
0.09201864373373789 -0.13331698320379298 -0.16664921352944828
0.08991140258764813 -0.14295876362019952 -0.17976880848579344
0.084785976108519 -0.1518498559624026 -0.19243612418962308
0.07703553228770613 -0.16051810742049633 -0.20503498007601628
0.06704269101303416 -0.16968086546908323 -0.21817218810529557
0.054926922505681416 -0.18001388192801626 -0.232153766966306
0.041010797054946986 -0.19186903167597705 -0.24659901002653087
0.025975511559829724 -0.20532000342953774 -0.26071496495231655
0.010556860090422395 -0.22028333615996332 -0.27367379888440824
-0.00472701432975952 -0.2364881794703873 -0.2847077214857429
-0.019616139066220596 -0.2534853713516482 -0.2931873069900184
-0.034056498804495655 -0.2707280566015581 -0.29874342297038964
-0.04816502646225573 -0.28778974880215286 -0.30134419461023654
-0.06216082239453024 -0.3044945718447122 -0.3011949237118471
-0.07625531678906577 -0.3208557918687036 -0.2986288485992165
-0.0905414626704307 -0.3369310744101251 -0.29408911671675664
-0.10493033087705916 -0.3527175943258305 -0.28815714084696326
-0.1192075381876924 -0.3681966354572919 -0.281453880646194
-0.1328472221427615 -0.38334324883380005 -0.2745365368493494
-0.14462736865822537 -0.3976838565706258 -0.26811540663730615
-0.15334480182868868 -0.4099920285825608 -0.26285881837155867
-0.15901429896318792 -0.4196725176690921 -0.25871939903447666
-0.16180925643984337 -0.42674530948288014 -0.2555571854669595
-0.1622176759909435 -0.4312464448373733 -0.25338438091045484
-0.16119017723306323 -0.4339232366142619 -0.25195925500263694
-0.15905500584594368 -0.4356994926741019 -0.2509161881793706
-0.1554554288327979 -0.43696893545678095 -0.2501723477489129
-0.15007634406442044 -0.4377398022065613 -0.24992503253314816
-0.14293447974305523 -0.43797284543174947 -0.25040496163794845
-0.13436146681698774 -0.437647865226557 -0.2518010865907485
-0.12494224756215193 -0.43675989006607574 -0.2542475067483957
-0.11523398836244557 -0.43529630021642124 -0.2578112353623641
-0.10563915023450575 -0.43320188499076906 -0.2624816764235639
-0.09636627713333981 -0.4304319086827005 -0.2681332616810351
-0.0873987883641978 -0.42700056163385725 -0.274530526140049
-0.07856220774100516 -0.42301059328616886 -0.281363744654746
-0.06965230780988643 -0.41864572395744953 -0.28830928754262
-0.06042660517262439 -0.414131516624736 -0.2950677085023886
-0.05059583948634093 -0.4098429899718998 -0.30127525116708864
-0.04006813562838705 -0.4064053155113291 -0.30647937452746965
-0.029050251052837508 -0.4044413644263483 -0.31034707596800315
-0.017824598632298214 -0.40434193193481227 -0.31281198062883986
-0.0066170780472938045 -0.40630981176781683 -0.31399041007932016
0.004389862704607948 -0.41045324592904636 -0.3140431459360198
0.015038853020008758 -0.4168453470505421 -0.3130952303065166
0.025204183580258617 -0.4255863161585659 -0.3112049962283441
0.0347818320761114 -0.4368934104553829 -0.3083657569251171
0.04363091711623161 -0.4510905637348373 -0.304529901942059
0.05159379095413133 -0.468418641952309 -0.29965697451717976
0.058619431271187156 -0.4888617943708955 -0.2937413495483009
0.06476575464721716 -0.5120803521226371 -0.2868111099089649
0.07009203759208102 -0.5372876219211818 -0.27907948184424847
0.07484915136053302 -0.563320312239175 -0.27090996629697706
0.07949278111197894 -0.589045374920382 -0.2625865376007459
0.08452665918142158 -0.6136134637367586 -0.2542707001780103
0.09038254749510757 -0.6365354557874838 -0.2460386309393468
0.09734085787364488 -0.65763533111302 -0.23790942007482305
0.10548971757052364 -0.6769543856235585 -0.22986890863023998
0.11471831911726907 -0.6946449013681713 -0.22189396246721843
0.12473866107508268 -0.7108958636467532 -0.2139726997918226
0.1351674218533286 -0.7259309345371112 -0.20610823269271247
0.14565847678717664 -0.7400122122294772 -0.19829556506704876
0.1559995639141129 -0.7534084006136055 -0.19049314190098102
0.16611383729861717 -0.766311120237781 -0.1826262657027068
0.17601804009067037 -0.7787656386179436 -0.17462374368053754
0.18579824701910475 -0.7906647923109169 -0.1664581849476648
0.19560125209310292 -0.8017868079422553 -0.15815823719580627
0.2056035070973503 -0.811884515432989 -0.14977898812913384
0.21595105136330833 -0.8207544759203657 -0.14134341010816778
0.22672809625591678 -0.8283266028440185 -0.13276318679809537
0.23799380793525754 -0.8346809473412882 -0.12379429030402583
0.24979039723477697 -0.8399599238070596 -0.1140838397752672
0.26210014566947315 -0.8442956573602529 -0.1032656414913975
0.2748087476822974 -0.847779461696016 -0.09106516667807275
0.28774939938145067 -0.8504669602549441 -0.07738406608754056
0.300759120402508 -0.8523925821362177 -0.06232725077220877
0.31374393838519526 -0.8535967544951093 -0.04616115308902784
0.32668936339366655 -0.8541244720153031 -0.029227715412754006
0.3396344768605167 -0.8540210408374399 -0.011864303900754733
0.35262798747629376 -0.8533184547571421 0.00563178584906749
0.36568477807909955 -0.8520368544278584 0.023025950965099014
0.37876155078845497 -0.8501923362310039 0.04015883591415767
0.391764568056463 -0.8477909332758673 0.056954020215722524
0.4045821748136852 -0.844856889825063 0.07342885567401458
0.4171110601319492 -0.841453842347494 0.08966417105800485
0.4292876958111257 -0.8377150568103042 0.10576387583213931
0.4410979421192287 -0.83385856529419 0.12179253690533721
0.4525868687017254 -0.8301699320878253 0.13772199313279945
0.4638437173190415 -0.8269599739019368 0.15338685405083397
0.47496714669151974 -0.824499073621367 0.16848648964918156
0.48602630940690617 -0.8229499674796752 0.18266315059162738
0.4970477034479564 -0.8223194283444722 0.1955971765599911
0.5080126879243094 -0.8224638963499254 0.20710545609378261
0.518869182964189 -0.8231410591387003 0.21720100132751402
0.529596540904929 -0.8240827439244146 0.22609649205415003
0.5402309172190285 -0.825080904468673 0.23413919047108753
0.5508757518318587 -0.8260276031079898 0.2417152880957048
0.5616824186287424 -0.8269092235834629 0.24918154199733492
0.5728403354047185 -0.8277993995714197 0.25682587535153056
0.5845631810747133 -0.8288657559927483 0.26485643085044436
0.597033125940956 -0.8303837407409222 0.2733505896892504
0.6103441566031902 -0.8326869550116727 0.2822254587517171
0.6244361925064672 -0.8360890251297117 0.291270462736031
0.6390968836061313 -0.8408433207391575 0.30024199236357946
0.6539902431661964 -0.8471409391119039 0.30893719259268987
0.6686939443867479 -0.8551201537490913 0.31721564099376437
0.6827101815637414 -0.8648330370751474 0.32497706193823833
0.6955113998070963 -0.8761932575977549 0.3321352573380962
0.7066393370849761 -0.8889029940544437 0.3386060268021145
LINES 1 120
119 0 1 2 3 4 5 6 7 8 9 10 11 12 13 14 15 16 17 18 19 20 21 22 23 24 25 26 27 28 29 30 31 32 33 34 35 36 37 38 39 40 41 42 43 44 45 46 47 48 49 50 51 52 53 54 55 56 57 58 59 60 61 62 63 64 65 66 67 68 69 70 71 72 73 74 75 76 77 78 79 80 81 82 83 84 85 86 87 88 89 90 91 92 93 94 95 96 97 98 99 100 101 102 103 104 105 106 107 108 109 110 111 112 113 114 115 116 117 118 
CELL_DATA 1
SCALARS ComponentValue float 1
LOOKUP_TABLE default
1
