# vtk DataFile Version 2.0
3D curve data
ASCII
DATASET POLYDATA
POINTS 119 float
-0.0011395434577397986 -0.005694769239949148 -0.004556400822806662
-0.0014711676841133172 -0.014496470251598184 -0.011534836849023025
-0.0008819839323812642 -0.026247417281580213 -0.020752914027652707
0.00031940306418234195 -0.04020801498040488 -0.03154208200768963
0.001794872085366221 -0.055382501862484036 -0.04309423450172696
0.0033094972426420287 -0.07108347567051723 -0.05483090038300839
0.004588058202079872 -0.0868819959730862 -0.06636297098054406
0.005272948888704024 -0.10243510614218948 -0.07739103796996993
0.004948461056151394 -0.11739651463000801 -0.08766332127276338
0.0032014107841853373 -0.1313898887366171 -0.09695277397029474
-0.0002727766823032977 -0.14407427215162252 -0.10505668738984367
-0.0055876808593764635 -0.15529105623437817 -0.11186620608478878
-0.012626105351174317 -0.16512183428181368 -0.11740176038014447
-0.021117170457350336 -0.17398171547395105 -0.12182639414274456
-0.030910195696998113 -0.18248576470662548 -0.1253501777361821
-0.041908676640646944 -0.19111999197264662 -0.12811569981102383
-0.05398409992205769 -0.200158821529263 -0.13015040340685266
-0.06687798533027414 -0.20965345941588887 -0.131342559899857
-0.08022829704435641 -0.2195264776331428 -0.13153823153488536
-0.09369467149632481 -0.22968546498012932 -0.13060360787129513
-0.1069884005824395 -0.2400766228880959 -0.12844836361100617
-0.11984029066925456 -0.25069158687653337 -0.1250626013163879
-0.13194680636384648 -0.2615386750363569 -0.120552185477904
-0.14293853907553392 -0.2725902421901384 -0.11516336477100833
-0.15243544249897845 -0.2837237465407923 -0.10927227276751146
-0.1601994036596682 -0.2947380218784799 -0.10328709525649882
-0.16620287342329726 -0.3054469750515048 -0.09753941510621869
-0.17046158809552897 -0.31567456116188725 -0.09231355290234627
-0.1729035545990433 -0.3250763368093829 -0.08795716074969426
-0.17364004973715652 -0.3331765191054431 -0.08473261960344966
-0.173012743037812 -0.3398594683513133 -0.08259400885130734
-0.171301424457104 -0.34533522433939534 -0.08127407736341034
-0.16847351047516892 -0.34984546919110765 -0.0804458528758632
-0.16417443232717843 -0.3535557259786864 -0.07994371558750428
-0.1580908480766089 -0.3565574715506231 -0.07972043514751129
-0.15013054750779684 -0.3589801542474437 -0.0796566011036947
-0.1403388971989037 -0.3610920380556701 -0.0796237707357008
-0.12888117582133543 -0.36327000352116084 -0.07956475674700036
-0.11600916241059517 -0.3658276022998353 -0.07952694673554678
-0.10224672906534307 -0.3688107536147057 -0.07968989317526928
-0.08845609879582927 -0.3720705152928353 -0.08020163113365326
-0.07530025868691977 -0.3754340653538691 -0.08107482030721348
-0.06313176673712062 -0.3787070906006576 -0.0822347064424234
-0.0521030874429477 -0.3817368698758875 -0.0835216149238975
-0.042192213667885524 -0.3844752384882053 -0.08471359338340985
-0.03323838706679714 -0.3869875074918965 -0.08558408897799555
-0.025019179385695495 -0.389416732766913 -0.08595066074087884
-0.01728512566842494 -0.3919385239338635 -0.08568324906931424
-0.009750191176315502 -0.39475215584573015 -0.08468569092543196
-0.002115609972037193 -0.3981094654963612 -0.08287200139879916
0.005858201988946022 -0.4023081805024169 -0.08017058819120967
0.014311776372016246 -0.40765454590076666 -0.07656003853344776
0.02329260729891193 -0.41442355754232496 -0.07208169049141006
0.03275932328355953 -0.42281116162879684 -0.06682266817895857
0.04261702054500001 -0.43288029040890297 -0.060895973801221866
0.05280595513709774 -0.4445835948701504 -0.054402709732014526
0.06333969321704684 -0.45787370952234463 -0.047395456322434665
0.0742583040557239 -0.4727466662643417 -0.0398684411130188
0.0855991996307123 -0.48917725992104055 -0.031766108671932275
0.09739407838242381 -0.5070908988645446 -0.022964807611592426
0.10960629398702074 -0.5263170868686664 -0.01325937383415979
0.12205188217978093 -0.5464889487463168 -0.0024559184721869545
0.13451545928967604 -0.567053819310585 0.0095615169573698
0.14681167188821181 -0.5874107004167538 0.022798773814748784
0.15876373031975066 -0.6069913879335144 0.03710865432433297
0.17025028149254273 -0.6253580409182856 0.052253668902392185
0.18123470455479404 -0.6422399058714197 0.06799359165280516
0.19171977511704485 -0.657507382113637 0.08409859970917594
0.2016903010960776 -0.6711310948449133 0.10031964701762631
0.21109385707686032 -0.6831747692073036 0.11638189178410024
0.21987786210319848 -0.6937745504397128 0.13201110819896109
0.22802753038366852 -0.7031009084022579 0.14696658328288686
0.23557116954357188 -0.7113431305524847 0.1610666135829232
0.24255454287579706 -0.7187091165729613 0.17421179309994556
0.2490450812033666 -0.7254324651733955 0.1864294840875154
0.25514651467241367 -0.7317486712870775 0.19789406485512773
0.2609967672863622 -0.7378376350764757 0.2088689010912772
0.266742226889746 -0.7437991776491027 0.2196381544171425
0.2725044228672853 -0.7496380451844088 0.2304700764587228
0.2783619523635304 -0.7552721347869211 0.2416005356901341
0.2843562999082624 -0.7605668893069484 0.25322848485859045
0.2905106367130636 -0.7653528573613231 0.2655070338800079
0.2968450267605131 -0.769444478985659 0.2785395068791068
0.30339312573362964 -0.7726511079475165 0.29238298424943554
0.31021617386891637 -0.7748100781584767 0.3070461174759044
0.3173932394659385 -0.7758211736194289 0.32246482198784265
0.32502617464387534 -0.7757118680047369 0.33849125279591674
0.33321964382576763 -0.7746706868507816 0.3549281282394801
0.3420702645560627 -0.7730360849596449 0.37157782051273264
0.3516539646513244 -0.771223909137017 0.38829613243252925
0.3620160823030844 -0.7696574790863815 0.40500996991537364
0.3731508971142878 -0.7686981801496329 0.42170369897342747
0.38498082100867903 -0.7686064530009534 0.43838357437918674
0.39734273150000377 -0.7695144151503759 0.4550182785739795
0.4099871596746371 -0.7714141212629735 0.4714814613023709
0.42260849199586237 -0.7741622294716708 0.48753151881475143
0.43489561029072116 -0.7775185404987017 0.5028454624983477
0.44658706303808315 -0.7812178861625235 0.5170919327417225
0.4574952062278985 -0.7850371389018618 0.5299703717806897
0.46749757983233997 -0.7888424865627586 0.5412268067428729
0.47652192039225816 -0.7925731414967607 0.5506534402514836
0.48453554136358495 -0.7962052723298652 0.5581317190640469
0.4915376031493587 -0.7997024296922248 0.5636936602554639
0.4975756456026109 -0.8030100975739819 0.5675888944258678
0.5027941246835342 -0.8061112409796654 0.5702634542295731
0.5074311490681607 -0.809080976574197 0.5722180888249442
0.5117651745538901 -0.8120631501007372 0.5738858592779051
0.5160778858082039 -0.8152357103891621 0.5756185602845211
0.5206524074236492 -0.8187967835952435 0.5777309105149792
0.5257882886173549 -0.8229614686171014 0.5805336997758991
0.5317897473228452 -0.8279529717826463 0.584315896539366
0.5389103149578457 -0.8339467456104892 0.5892500159963955
0.5472892986743122 -0.8410074850347703 0.595288040350338
0.5569211144314528 -0.8490795144035921 0.6021019156925209
0.5677032728627847 -0.8580170104572776 0.6091278755120529
0.5794959154853591 -0.8676089976636886 0.6156966110155443
0.5920732155854015 -0.8775736912457056 0.6210947846597477
0.605114313332915 -0.8876533837649918 0.6246211589050703
0.6184664781933212 -0.8978028560048961 0.6257091150124917
LINES 1 120
119 0 1 2 3 4 5 6 7 8 9 10 11 12 13 14 15 16 17 18 19 20 21 22 23 24 25 26 27 28 29 30 31 32 33 34 35 36 37 38 39 40 41 42 43 44 45 46 47 48 49 50 51 52 53 54 55 56 57 58 59 60 61 62 63 64 65 66 67 68 69 70 71 72 73 74 75 76 77 78 79 80 81 82 83 84 85 86 87 88 89 90 91 92 93 94 95 96 97 98 99 100 101 102 103 104 105 106 107 108 109 110 111 112 113 114 115 116 117 118 
CELL_DATA 1
SCALARS ComponentValue float 1
LOOKUP_TABLE default
1
