# vtk DataFile Version 2.0
3D curve data
ASCII
DATASET POLYDATA
POINTS 119 float
0.0067876137965036136 -0.0136659316113405 -0.00818179489815932
0.015207921223143999 -0.02806491445644764 -0.018844807343282213
0.023800341865543667 -0.04194091182057529 -0.031101245061802247
0.03131250901980242 -0.054454868721633895 -0.043789802148174545
0.03699693625342406 -0.06546371196069212 -0.05608889390854939
0.04045906467601765 -0.07512064142872513 -0.06754659348997556
0.0415621674327766 -0.08368589138616543 -0.07798703356535297
0.040307855439380876 -0.09148408426774556 -0.08745630594884407
0.036715002817921644 -0.09885747687622679 -0.09616306899199874
0.030744483856073944 -0.10609897627234577 -0.10436978549141404
0.0223226898330285 -0.11338843463066722 -0.11226650251942277
0.011438114904156664 -0.12076773189104503 -0.1198874167099642
-0.001731440846542856 -0.12814732066370543 -0.12703028758110507
-0.016695514707678532 -0.1353540616049913 -0.13327858895377018
-0.03277760910619311 -0.14216963372615038 -0.13813275693922825
-0.049256925914561295 -0.14838229841285108 -0.1412424411712181
-0.0657768893418808 -0.1539153979297982 -0.14244604365214328
-0.08236380400237721 -0.15879821462535484 -0.14161205909352637
-0.09918363465425906 -0.16314069362679426 -0.1385689698411965
-0.11620295138037591 -0.16718837415542487 -0.13324140243428848
-0.1333081790430227 -0.17133539394456415 -0.12574248104142727
-0.15036219563408093 -0.17600621546457168 -0.11635082179686354
-0.16716925792234544 -0.18161130845270904 -0.10551389522450919
-0.18345527115050483 -0.18853103621499598 -0.09378380700659622
-0.1988455981263497 -0.19706928074740473 -0.08175552170414906
-0.21283166339241058 -0.2073606170010458 -0.07004427340016962
-0.22473990515665782 -0.21923081413327183 -0.059268360081547344
-0.23377669847854873 -0.23206760353331482 -0.050048946532843315
-0.2393390066067685 -0.24478991031642666 -0.042970925657546746
-0.2415847008303747 -0.2562357603648415 -0.03820293806928588
-0.24121641569073107 -0.26589822393205087 -0.03542848353195282
-0.2387555819160793 -0.2737912863168872 -0.03428484290430198
-0.23433947144952577 -0.28018628847663063 -0.03450700563955934
-0.22762158647611275 -0.2853338228563931 -0.03617406843873689
-0.21830857078628274 -0.28903026594652825 -0.03970614831815744
-0.20661877219119162 -0.290779550838836 -0.04555859229387564
-0.19316304815557114 -0.29002743040178536 -0.05416231935213913
-0.1787420576692002 -0.28627780454677443 -0.06579005526876873
-0.16374420041630924 -0.279103171647242 -0.08053411038797774
-0.14815638592377758 -0.2679677417570582 -0.0985133997315457
-0.13229504482120766 -0.2526922037415914 -0.11938496958377237
-0.11634508892515294 -0.23371783821967193 -0.14238486986069043
-0.10012195717176223 -0.2117683766130847 -0.16665722088334395
-0.08325316016359954 -0.18787910990869613 -0.1910587307689303
-0.06530524733584506 -0.16345468638523136 -0.21412642467560347
-0.04594732353234106 -0.14009356644082163 -0.23435712686475962
-0.02515206412485951 -0.11931233989479956 -0.25054936559465796
-0.003381565799999084 -0.10228562485171623 -0.26205320808215476
0.018496280927987482 -0.08949041794312844 -0.2689566387858073
0.039774905663244764 -0.08063556676622291 -0.27188089527576553
0.060211122861527716 -0.07508171822531934 -0.2714837089374929
0.07997037770940743 -0.07226506720282162 -0.268205397701723
0.09936474883131215 -0.07192961287357445 -0.26226030574088205
0.11857589796161244 -0.07409430323591494 -0.25378602956463975
0.13748342687450754 -0.0788548822814879 -0.2430430870919988
0.15568519159916744 -0.08617646547656493 -0.23052684524009126
0.17261559941745555 -0.0958465660076397 -0.21694014350953847
0.18761727156300373 -0.10752957701322689 -0.20308434456093313
0.19999481837854027 -0.1208269186020844 -0.18972292403721314
0.20911480635517193 -0.13530801188860753 -0.1775075452965803
0.21467115395005837 -0.1505578407493768 -0.16690960539941735
0.21682607391344166 -0.1664448864541848 -0.1580011770949792
0.21580414125416525 -0.1831990837126038 -0.1505507675696028
0.21173096490405957 -0.20120279667072416 -0.14426141247845703
0.20476601052085205 -0.22080302609071928 -0.1388334601414345
0.19525219571193395 -0.2422220311507427 -0.1340002796323785
0.183815656749999 -0.26548534180673994 -0.12956266114505674
0.17137371096610662 -0.2904066175268837 -0.12539551024817083
0.15905715155959477 -0.3165457335783699 -0.12143375690446205
0.14802912405069601 -0.34325084062705535 -0.11765174591823156
0.1392679577983268 -0.36978055341226784 -0.1140410020978453
0.13341318516164963 -0.39548278823727945 -0.11059177007428678
0.13072600275502605 -0.4199639540173138 -0.10727225579741653
0.1311708219591245 -0.4431633033012671 -0.10399872695194562
0.13455940849429043 -0.4652643585509577 -0.10060212203802489
0.1406592077011319 -0.48652058422670175 -0.09682540288675177
0.14918947476575575 -0.5070530243712275 -0.09237279284696899
0.1597708974498395 -0.5268144223879587 -0.08697324243268924
0.17192097033058606 -0.5455986113772018 -0.08042182731323837
0.18510013747415782 -0.5630858737851073 -0.0726027642906837
0.19877574291070577 -0.5788956925463505 -0.06350398062488408
0.21248752886051395 -0.592662571465288 -0.053201278086517007
0.22590618824767372 -0.6040924984855326 -0.0418212799748113
0.23886267309190506 -0.6130216624214377 -0.02949344940642709
0.2513571671474819 -0.6194375798583805 -0.016304125510833208
0.26351491575229496 -0.6234832948119279 -0.0022752627572083075
0.2755046192200096 -0.6254529032403034 0.012603583136557373
0.28747858296704976 -0.625798483699372 0.028329459371851287
0.29955346941241706 -0.6251087598859995 0.04485369542204531
0.31183860743698355 -0.6240249849874614 0.062072847923963635
0.32443957973903437 -0.6231543292264928 0.07982022691933384
0.33744079314887626 -0.6229672591177137 0.09785186938345344
0.3508827460023184 -0.6237643070984407 0.11584807273199682
0.3647392404640007 -0.6256720802119133 0.13342542393362639
0.37888727712168857 -0.6286567162105489 0.1501652700853302
0.39311140397376904 -0.6325687829156156 0.16566175733423993
0.4071249675286079 -0.6371881396195395 0.17960434757178712
0.4206498327573506 -0.6422894879548063 0.1918700066409945
0.4334904791545562 -0.6477090534184565 0.20253217531273826
0.445565142151667 -0.6534043953266934 0.21179273214138933
0.4568693599361464 -0.6594344224656895 0.21988443458604728
0.46743560619205393 -0.6659008251968612 0.2270114165784988
0.4773096394290361 -0.6728791535767664 0.2333440195134711
0.48655724583713955 -0.6803957401382628 0.2390437087601428
0.4952622158416038 -0.6884107527562302 0.24424137518683528
0.5034844953759392 -0.6968403154276687 0.24904169322047326
0.5112822802884425 -0.7056004231995677 0.253551286481264
0.5187439568193631 -0.71469641176216 0.257875746405191
0.525966138966153 -0.7242229997170859 0.26207963364478754
0.5330180172105208 -0.7343277230924867 0.266164312941961
0.5399063734469827 -0.7451408927300778 0.2700897313324454
0.5466107449562742 -0.7567716696332527 0.27382318009190476
0.5531284735248685 -0.7693259814775919 0.27735699360582433
0.5594823640080345 -0.7829001136188336 0.2807263956917082
0.5657176102244097 -0.797515876868382 0.2840390296575932
0.5718950392237142 -0.8130705416921344 0.2874596185075382
0.5780640359014074 -0.8292948177881622 0.29110334941593086
0.584208437726801 -0.8459468993424062 0.2949454342488158
0.5903415601879669 -0.8630730096921384 0.2989738888358119
LINES 1 120
119 0 1 2 3 4 5 6 7 8 9 10 11 12 13 14 15 16 17 18 19 20 21 22 23 24 25 26 27 28 29 30 31 32 33 34 35 36 37 38 39 40 41 42 43 44 45 46 47 48 49 50 51 52 53 54 55 56 57 58 59 60 61 62 63 64 65 66 67 68 69 70 71 72 73 74 75 76 77 78 79 80 81 82 83 84 85 86 87 88 89 90 91 92 93 94 95 96 97 98 99 100 101 102 103 104 105 106 107 108 109 110 111 112 113 114 115 116 117 118 
CELL_DATA 1
SCALARS ComponentValue float 1
LOOKUP_TABLE default
1
