# vtk DataFile Version 2.0
3D curve data
ASCII
DATASET POLYDATA
POINTS 119 float
0.002319600015606038 -0.013730266558233497 -0.00863573725334417
0.007061375616025179 -0.02773951314362602 -0.01882860667934151
0.014255992974840877 -0.0419692817648867 -0.030422369860016132
0.02350742602877849 -0.056301464258703804 -0.04328484145694144
0.03440307203070994 -0.07064847618993783 -0.05733791498624415
0.04668763164844016 -0.08514943171575201 -0.07259154709513935
0.0600765138802683 -0.10007118004326994 -0.08904648489016762
0.0739649003880456 -0.11565530282133352 -0.10655924449257162
0.08720261687870126 -0.13187559810172161 -0.12462487548135545
0.0983704193598245 -0.14836216742894484 -0.14235207130751149
0.10635081833399462 -0.16453833430487036 -0.15871552499078537
0.11070687904965915 -0.17993113713932624 -0.17296674527069578
0.11144498233133036 -0.1943236744875312 -0.18473710934370263
0.1088539331419359 -0.20771846299059316 -0.19385577960759962
0.10348313909676127 -0.2204466934550919 -0.20025893358419866
0.09604666316307382 -0.23316271834395608 -0.20416345800724256
0.08700805782471979 -0.24656974143276608 -0.20585676059372365
0.07675345715925452 -0.26103206887984287 -0.20545238535668517
0.06572539603660459 -0.27655512458424 -0.20303827314284942
0.05441404026965567 -0.2928815537798505 -0.19879684234773934
0.04322738709943985 -0.30963019069162473 -0.1930419605715841
0.03245573169595117 -0.32636296071816734 -0.18619523638276797
0.02231726600757931 -0.34265433848833127 -0.178767346139147
0.013011937723112783 -0.3581371494159305 -0.17128417174912866
0.004757093852925765 -0.37249082804548467 -0.16417343822980224
-0.0022282160819178673 -0.38546155995428755 -0.1576703255639853
-0.007715763011795688 -0.3969232609994012 -0.15183696100211402
-0.011403424445123291 -0.4068530215793471 -0.1466965586880198
-0.012945466177552337 -0.4152121038790011 -0.14234897497280413
-0.012198099563102234 -0.4219929780989473 -0.1388435383130043
-0.009084103613678942 -0.427475296000761 -0.13600280316524943
-0.003115409712206752 -0.43207823538538304 -0.13354002122834704
0.006864950231540294 -0.43592201449849177 -0.1313755159390797
0.02185241806642525 -0.4384482792117017 -0.1297351819385816
0.04179411555063652 -0.43881124425870616 -0.1289034084580283
0.06543455323166215 -0.43647682011261457 -0.12896309181628537
0.09065443532833675 -0.4315879336236847 -0.12961520162485868
0.11515150022057924 -0.42499289539668195 -0.1302529064905216
0.1374422469927447 -0.41785469050935864 -0.13034204131236235
0.15720274417901142 -0.4110108110171844 -0.12974740165890608
0.17465109574058432 -0.4048698969877878 -0.12855112015610354
0.19024091976400206 -0.39959852825711195 -0.12684342576506666
0.20446225890461328 -0.3952670465258624 -0.12468052475121882
0.21772281209549094 -0.3919249171433454 -0.12207327887510624
0.23033100320174918 -0.38963245259447116 -0.11899932268335386
0.24251459821982524 -0.38846467713256694 -0.11543224880712756
0.2544161864315312 -0.38852524778940656 -0.11137249246199672
0.2661261626053823 -0.3899429104278488 -0.10684459909293492
0.27774924626684433 -0.3929310654996257 -0.10183242526739317
0.28932700422228547 -0.3978009806914087 -0.09626612136070686
0.30080320086585166 -0.4048520853429544 -0.09008674965705317
0.3121205169063039 -0.4143154228271256 -0.08329252115578628
0.3232369166118524 -0.4264062434294763 -0.07596100745625442
0.33405483453116847 -0.4412668464218911 -0.06828100994722708
0.34438487028147563 -0.4588149225183386 -0.06056697772939548
0.35402427560195154 -0.47864361781451487 -0.05318353755059222
0.362850902209873 -0.5001299167492878 -0.046428980141145555
0.37082773225544324 -0.5225950726962991 -0.04048374096196148
0.3779702481945701 -0.5454052356500023 -0.035406177024652964
0.3843285703809219 -0.5680036925172836 -0.031134813542197343
0.39001045804227974 -0.5899368052339098 -0.027495934575306823
0.39519414580492407 -0.6108991897704961 -0.02420462065502551
0.40005612086933195 -0.6307570283334343 -0.020909398516468176
0.4047159834337867 -0.6494783574435494 -0.017274631688590992
0.40924266658152136 -0.6671108287736185 -0.013034989140089851
0.41368618298994675 -0.6837462705068691 -0.00799273434145502
0.4180967612430037 -0.6994923491913201 -0.0019916993651040017
0.4225451746590741 -0.7144420489609737 0.005096832196921689
0.4271296030005912 -0.7286786019895215 0.013388825113093625
0.4319727803835496 -0.7422488131674296 0.023014714780092514
0.43720025557811626 -0.7551019344870135 0.03412466104814284
0.44293405859754487 -0.7670614512986698 0.04686497266933691
0.4492948501152807 -0.7778452059162017 0.06134273026911245
0.4564016772609196 -0.7871163809726558 0.07759027456083355
0.464350409193492 -0.7945643082941832 0.0955322426093431
0.47318395775454114 -0.7999977310751851 0.11497664146077961
0.48289980778525543 -0.8034087391775058 0.1356737560314281
0.4934777993357498 -0.8049456273874567 0.15738568941385353
0.5048886395826475 -0.8048354343890531 0.17991394559212198
0.5170856008593816 -0.8032781852967351 0.20306697150083847
0.5299528389847699 -0.800403450602647 0.22660033316486977
0.5432903452077986 -0.7962868700781494 0.25020666714451456
0.5568568243154228 -0.7909945234515569 0.2735554440950686
0.5704308133087879 -0.7846134641172898 0.29634798864148304
0.5838555290445574 -0.7772892732783437 0.31835693545132543
0.5970519382028184 -0.7692204037488497 0.33945090052451476
0.6100244942886903 -0.7606474800873032 0.3596028956161437
0.6228459571766376 -0.7518160919178116 0.3788711490015375
0.6356236567578213 -0.7429697551681312 0.39735375992275734
0.6484734563605101 -0.7343389964552821 0.4151712508656944
0.6614976533817565 -0.7261131179426523 0.4324664690162141
0.674769349309739 -0.7184566417474534 0.44939202842869863
0.6883186911206668 -0.7115146162449113 0.4660792943903995
0.7021142794917894 -0.7054246105689611 0.4825901142051493
0.7160740292930503 -0.7003224901532308 0.49889607585610884
0.7300699286449418 -0.6963379542276169 0.5148821339871245
0.7439675219871424 -0.6935901432336401 0.5303795251471238
0.7576509777006641 -0.6921959646611111 0.5452077448555227
0.7710481934896929 -0.6922752652542823 0.5592174611921171
0.7841735875767462 -0.6939574497534483 0.5723122209775966
0.7971332446011679 -0.69739535340295 0.5844137139345652
0.8100871126350472 -0.7027581824725816 0.5953932301635058
0.8231842260549407 -0.7101815132003191 0.6050309751183245
0.8365249462365694 -0.7197090184132795 0.6130478051027523
0.8501854697142728 -0.7313202644112968 0.6192058843294961
0.8642829115536135 -0.744995459016493 0.6233054745377399
0.8789385230756301 -0.7607043697773973 0.6251148724371463
0.8941976641873507 -0.7783341553418727 0.624359180387918
0.9099569185253968 -0.7975804545399913 0.6208116867377242
0.9259815475780687 -0.8179116219239779 0.6144333520806803
0.9419454715271125 -0.8386361806678966 0.6054858287342636
0.9574928748633326 -0.8590421757992245 0.5945401587754309
0.9722838756108001 -0.8786013402195426 0.5823733734772993
0.9860453771095179 -0.897100398584299 0.5697765828840445
0.9986163821234674 -0.9146663940007248 0.5574056311577673
1.009912031698498 -0.9316235191214142 0.5458127167652624
1.0198595277690283 -0.9483608418138488 0.5355319811867763
1.02838244311879 -0.9651628001065483 0.5270502326536282
1.035376377295841 -0.9820165920440681 0.5206256194426608
LINES 1 120
119 0 1 2 3 4 5 6 7 8 9 10 11 12 13 14 15 16 17 18 19 20 21 22 23 24 25 26 27 28 29 30 31 32 33 34 35 36 37 38 39 40 41 42 43 44 45 46 47 48 49 50 51 52 53 54 55 56 57 58 59 60 61 62 63 64 65 66 67 68 69 70 71 72 73 74 75 76 77 78 79 80 81 82 83 84 85 86 87 88 89 90 91 92 93 94 95 96 97 98 99 100 101 102 103 104 105 106 107 108 109 110 111 112 113 114 115 116 117 118 
CELL_DATA 1
SCALARS ComponentValue float 1
LOOKUP_TABLE default
1
