# vtk DataFile Version 2.0
3D curve data
ASCII
DATASET POLYDATA
POINTS 119 float
0.0066222129993987995 -0.0182895397026026 -0.012694215315542205
0.014116986458241115 -0.03642194385777395 -0.026526278302065012
0.022193972650943302 -0.053792804663275864 -0.04089433432572606
0.03065149393506977 -0.07029975966993628 -0.055580023503884426
0.03930121015821554 -0.08621613525959233 -0.07064461259788295
0.04794274543589147 -0.101812465159275 -0.08615344887823786
0.056344322951203334 -0.1172519342525808 -0.10206599666420817
0.06415865765011428 -0.13256726635807753 -0.11819801340144855
0.07088221219512597 -0.14762998769081312 -0.1342287707788425
0.07594423194497163 -0.1622041896746909 -0.14978050258166586
0.07888490131562094 -0.17609577340906543 -0.16449824182661926
0.07946069619969556 -0.18930277883477759 -0.17812137392785038
0.07757916656994505 -0.20193675895219307 -0.19048476381337384
0.07334078958627087 -0.2140906224927483 -0.20148083417895576
0.06704797583266964 -0.22593772404560403 -0.21111034248204352
0.05899629398299212 -0.23773495265637135 -0.21942808864692026
0.04939524223337744 -0.24964635555672646 -0.2263657267680194
0.03854245570858142 -0.2616659014439014 -0.23170736159789387
0.026783380836266545 -0.2737470468159295 -0.23528753361106716
0.014461388662034294 -0.28584790094510615 -0.2370500863912819
0.0018013519530744372 -0.29799327978912205 -0.23705650982121784
-0.011017510586330242 -0.31019863354673116 -0.23540879449074292
-0.0237144417295155 -0.3224359531239228 -0.23228884283567863
-0.03585299612014505 -0.3346239485247488 -0.22801252938765562
-0.04686807069106881 -0.34659842992682677 -0.22302446496481826
-0.056170224748235645 -0.3581139632304473 -0.2178264803868948
-0.06329555208261077 -0.36889606595036006 -0.21288539774634085
-0.06801094089388114 -0.37874986009285955 -0.20852394462580373
-0.07017879751277313 -0.3875927685752187 -0.20491444422141572
-0.06962040101303724 -0.39530379114341474 -0.20220407898700737
-0.06626052495232163 -0.40162072429323353 -0.20047622886730537
-0.06025393985894813 -0.40644092544787097 -0.19961756851777251
-0.05153809345287276 -0.4097757960509599 -0.19956017392262965
-0.040047259573000836 -0.41136535266276864 -0.20026380039678987
-0.025914793141056977 -0.41080906307403364 -0.20168824015678027
-0.009837835072732304 -0.4078010394806886 -0.20374309545161412
0.00691685007874453 -0.4024880496300554 -0.20610765316574947
0.02317179308398199 -0.3955504017600474 -0.20828906187906981
0.03833710190094711 -0.38791050744902633 -0.20985990675264987
0.05244831346280683 -0.3803353148668481 -0.2105934087346548
0.06575184817198569 -0.37338274421475837 -0.21038037951207617
0.07864123241231644 -0.3674849172877749 -0.20915047385442323
0.09158589020767792 -0.36299028117632076 -0.2068696662638621
0.1050289007724102 -0.3602502009222946 -0.20352129002999064
0.11933547561837606 -0.3596838674827709 -0.19909619424692837
0.1347469592021583 -0.3618163279452393 -0.1936034516360785
0.15128177954800964 -0.36725238739885635 -0.1871204062841014
0.16871669236015818 -0.3765536594442893 -0.17980048457921352
0.1866848188757483 -0.3902227634598916 -0.17178042109020014
0.20463888631057725 -0.4086800274222155 -0.16315676011369074
0.22181230662616042 -0.4320459675704347 -0.15408524695513523
0.2373853345725432 -0.4599680965845334 -0.14484167230799522
0.2506751169172597 -0.4916185970573863 -0.1357873466932255
0.26129830548514676 -0.5258118204400157 -0.12728791312601873
0.2692572018200878 -0.5612783951525393 -0.11963818450754032
0.2748523480007254 -0.5969725102128691 -0.11303661086628809
0.2784903893694945 -0.6321786229716284 -0.10758183422264198
0.28056376342112355 -0.6664161544474081 -0.10324363513309924
0.28147778357767034 -0.6992918669000012 -0.0998399912837962
0.28167788341501787 -0.730516145667566 -0.09705478688188691
0.2816002233224868 -0.7599242291820174 -0.09450232690255678
0.28161342558544666 -0.7874018341282513 -0.09181861027825794
0.2820129130147264 -0.8128264824169336 -0.08869686098144011
0.28301194962483534 -0.8360786391487128 -0.08488582424943941
0.28473726236980146 -0.8571231494200543 -0.08019516782736054
0.28723138193104875 -0.8760592129959877 -0.07448273153158086
0.2904633067892021 -0.89309356188667 -0.06762443074165883
0.2943508335490205 -0.9084792597763893 -0.059505820773103076
0.29878961590380554 -0.9224561140465387 -0.05002828747552496
0.3036808109321527 -0.9352043346770529 -0.03911655744451726
0.3089476364554324 -0.9468088984130301 -0.026735953940765292
0.31455763271546616 -0.957245755743479 -0.012918230619526063
0.3205363927118893 -0.966394930410531 0.0022178101632153667
0.3269656636513555 -0.9740696191459495 0.01845203215173908
0.33395191571177096 -0.9800732815888002 0.0354583366569091
0.34159574938575243 -0.98428712375292 0.052842406105865505
0.3499976262873886 -0.9867158503803077 0.07026397281315869
0.3592666526034358 -0.9874452097594286 0.08752634210275315
0.36947486852760414 -0.9865858701689887 0.10457180263747153
0.38061074212590024 -0.9842626429991739 0.1214421638549216
0.3925614006403915 -0.9806368856829145 0.13824308762270865
0.40512803259508007 -0.9759018203456127 0.1551076906676999
0.4180623805728883 -0.9702712867563643 0.1721509129224113
0.4311225241233384 -0.9639611202873082 0.1894213403304337
0.44412767416953375 -0.9571788497684781 0.2068657408725363
0.45699301495342176 -0.950109448345883 0.22433756502811666
0.4697539440451428 -0.9428961384869246 0.24165689258389733
0.4825254408753759 -0.9356285292968937 0.25866573720717134
0.4954517548161072 -0.9283589843924425 0.2752597084498537
0.5086608863720641 -0.9211363841116964 0.2913903322487755
0.5222326764775597 -0.9140207084712292 0.3070656448383018
0.5361765922963565 -0.907106778283588 0.32232585547240555
0.550432101096066 -0.9005013294442105 0.3372209932850689
0.5648656580708569 -0.8943107217671287 0.3517883845797517
0.579288242729946 -0.8886351099879812 0.366034268871391
0.5934784562032798 -0.8835764500136455 0.37993741129011027
0.6072177982626976 -0.8792532577632055 0.39345391621395165
0.6203341844573652 -0.8758108019930047 0.40652882484531866
0.63274127422638 -0.8734186645447402 0.419097897812273
0.6444470159012261 -0.872249356487748 0.43107436281539135
0.6555319863025239 -0.8724515183101547 0.44232364089141674
0.6661043212725797 -0.8741187078114554 0.45265686265360755
0.676249527477957 -0.8772589577560432 0.4618586062088253
0.686007036567335 -0.881788756021957 0.4697653717091243
0.6954285212218996 -0.8876005401498874 0.4763711303631264
0.7046290943652845 -0.894640478550913 0.4817958924179558
0.7137753808373026 -0.9029359916355179 0.48617284633021995
0.7230244286155697 -0.912543231822067 0.4895896097384451
0.732487871582773 -0.9234942616558992 0.49209063473156367
0.7422342812875193 -0.9357721374021021 0.4937221978674361
0.7523040093288997 -0.9493288060355743 0.49457238862787445
0.7627161616200306 -0.9640832057766268 0.49478258975286016
0.7734717465712995 -0.9799230178801227 0.49456171737868565
0.7845487800510985 -0.9966861101063114 0.4941942722977383
0.7958891088014487 -1.014162972669548 0.49402986471336763
0.8073726313419571 -1.032080367441574 0.49447023687467095
0.818766999231938 -1.0500364517192873 0.4959578804349968
0.8297099641901926 -1.067375225334317 0.4988907633046074
0.8397221402632781 -1.0832545211760736 0.5033466561148487
LINES 1 120
119 0 1 2 3 4 5 6 7 8 9 10 11 12 13 14 15 16 17 18 19 20 21 22 23 24 25 26 27 28 29 30 31 32 33 34 35 36 37 38 39 40 41 42 43 44 45 46 47 48 49 50 51 52 53 54 55 56 57 58 59 60 61 62 63 64 65 66 67 68 69 70 71 72 73 74 75 76 77 78 79 80 81 82 83 84 85 86 87 88 89 90 91 92 93 94 95 96 97 98 99 100 101 102 103 104 105 106 107 108 109 110 111 112 113 114 115 116 117 118 
CELL_DATA 1
SCALARS ComponentValue float 1
LOOKUP_TABLE default
1
