# vtk DataFile Version 2.0
3D curve data
ASCII
DATASET POLYDATA
POINTS 119 float
0.007554577315233086 -0.01487206497521743 -0.010829391234266158
0.015166408534554787 -0.029881908121110738 -0.022432310663865074
0.023011080789661728 -0.04480022084945675 -0.03486360881177911
0.03138501314881495 -0.059704272182235923 -0.0483513341927136
0.040428394276731734 -0.07460945317450544 -0.06303330217595006
0.05005495013820264 -0.08933827494885456 -0.07886241543433858
0.060005095972239623 -0.1036108719361373 -0.09570176112135481
0.06993949866245613 -0.11713439212063465 -0.11340697704205795
0.07945029563975647 -0.12977464132521263 -0.13190079682490322
0.08781830501070133 -0.14151083728523406 -0.15100432872093386
0.09400612834478066 -0.15226597927972532 -0.17028267815551754
0.09705273887813518 -0.16187866694189573 -0.18920998908783224
0.09651705112123217 -0.1703046310739391 -0.20751591951787102
0.09243797314155494 -0.17786389206629202 -0.22540785397526245
0.08487940146662433 -0.18515497931685831 -0.24338284124067933
0.07381550731408475 -0.19279806483202255 -0.26170055625143784
0.05934160075969315 -0.20133580905374998 -0.2802226998410826
0.041890801796913874 -0.21117094235467215 -0.29846197979273287
0.022270062944568892 -0.22245961872477352 -0.3157204272859544
0.00170230325319183 -0.23502471552063128 -0.3312681710406228
-0.01881949928711543 -0.248478618396612 -0.3446231013068677
-0.03874151219811751 -0.2621751111615894 -0.3553733536588139
-0.05790079451255491 -0.2754202201397948 -0.36322602903604206
-0.07653522747565604 -0.28773550429455386 -0.3680515809970714
-0.09532133503828699 -0.299020245610163 -0.3698259909654973
-0.11539190678961755 -0.30956446122958897 -0.3684523367593268
-0.13821262889680885 -0.3199517141941778 -0.36357366589153256
-0.16539503621694646 -0.33097081044905285 -0.35452801034445247
-0.19858148220699454 -0.34375572944449095 -0.3403466522470025
-0.2384459419234642 -0.35985404134225457 -0.3203028853234339
-0.2842990733195747 -0.38062316056847434 -0.29448863098529254
-0.33375555048499295 -0.40691754993438545 -0.2638644531014176
-0.3825403933069389 -0.4383243235878632 -0.23053157812897188
-0.42593226793668404 -0.4731207344981302 -0.19725626412539604
-0.4601961189930255 -0.508993145879291 -0.16660655020118553
-0.4831705599428935 -0.5434054783884583 -0.14060137015911112
-0.4945926806941436 -0.5739061250071829 -0.1204564593427378
-0.4960979597541346 -0.5987683985371557 -0.10635592363169039
-0.4903828738306357 -0.6177922437094028 -0.09747284500491354
-0.4797286571434917 -0.6320434833864786 -0.09263277967316984
-0.4655156262384819 -0.6426383515105683 -0.09101607130890173
-0.4487191403851952 -0.6501692900918933 -0.09223747201262902
-0.4302917304300863 -0.6548741449179657 -0.09609259472122754
-0.411042362920547 -0.6569084369863133 -0.10236421604619912
-0.3914652821505925 -0.6564418698415991 -0.11079925590008022
-0.3717898447825305 -0.6536919760598864 -0.12110559040882345
-0.35208753692530964 -0.6489564139485514 -0.13292351335324792
-0.33223639126851456 -0.6425941436381983 -0.14582453619262198
-0.31189689569866086 -0.6350611592361504 -0.15926354070410725
-0.29075443776101356 -0.6270113857615682 -0.17255621025936024
-0.2687114267920605 -0.61921850983361 -0.18503159924075774
-0.2458989350308557 -0.6124343318186194 -0.19619318680365097
-0.22268554611316682 -0.6073055024408814 -0.20576125387812383
-0.19960325804032136 -0.6042896046342615 -0.2136599839034671
-0.17717763713132212 -0.6036650270013705 -0.2199744607471865
-0.15585686123868714 -0.605606653006132 -0.22489036635211213
-0.13595051113333903 -0.610173197438182 -0.2286405417481713
-0.11750815619149084 -0.6173344217096434 -0.23146882569273863
-0.10031095806539532 -0.6270643336365451 -0.2335954636894796
-0.08396465989087014 -0.6393719857314204 -0.2351657734668462
-0.0681129894256755 -0.6542581571659051 -0.23620788293650574
-0.052630764469484066 -0.6715715039396544 -0.23672273366280053
-0.03751431965656963 -0.69096396139567 -0.23673411059880106
-0.022825314573017348 -0.7119798343805979 -0.23624977391680352
-0.008711320043804403 -0.7341194277838139 -0.23527633400011905
0.004621703236866526 -0.7568757436444253 -0.23383341612416383
0.01696787992466357 -0.7798018461223598 -0.2319420500296306
0.028187982308265636 -0.8025952848058597 -0.22960085882169398
0.03825251862218882 -0.8251435135067564 -0.22675664121763933
0.047247164437473566 -0.8474778807359538 -0.22329206617775899
0.0553555184847821 -0.8697217066175866 -0.21904463679141806
0.06283648960883317 -0.8920119813813705 -0.2138380339511458
0.06999132251654351 -0.9144286244299804 -0.20751227927053517
0.07710352294414033 -0.9369244282841027 -0.19995134452152524
0.08437365053358294 -0.9592974879362431 -0.19110490437268296
0.0918842945182275 -0.98123558616925 -0.1809896684293658
0.09960913282856576 -1.0023644883006808 -0.1696678694640455
0.10744058055172796 -1.022324601788259 -0.1572249103982656
0.11523203323386841 -1.0407997135851106 -0.14376985041715565
0.12284626547467226 -1.0575974433862931 -0.12942113618877776
0.13021086181424463 -1.0726750696662382 -0.11427218296348415
0.13734457559264843 -1.0861164539674248 -0.09836014488243766
0.14433492443416351 -1.0980666459301367 -0.08166212795365724
0.15128962027087367 -1.108684067451501 -0.0641304775963997
0.15831645684332074 -1.118091502258224 -0.04576211521483116
0.16551216771462757 -1.1263727676242046 -0.026638659463955085
0.17293885398474426 -1.133579251681416 -0.006928129171370305
0.18061508948181607 -1.139739413850506 0.013158545938332634
0.18851387493745386 -1.1448525386920345 0.033429639823719715
0.19658899059502358 -1.148881605272993 0.0537406931610607
0.20479443533279706 -1.1517587286937512 0.07399008564611825
0.21311166899166054 -1.1534041680969587 0.09411357508298207
0.22156336601275972 -1.1537685282059844 0.11408667443421963
0.2302228066834769 -1.1528846491224538 0.133942905235943
0.2392164987730216 -1.1508875130011955 0.15377338524733947
0.24870787923982246 -1.148033899236973 0.1736959394406754
0.25887076326646213 -1.1447021104299255 0.19380278787262467
0.26985604988611034 -1.1413546049402 0.21411093837217812
0.2817559026158305 -1.1384606347174344 0.23454184951373688
0.2945901142916991 -1.1364060494738064 0.25496946104023993
0.3083020266670901 -1.135426154891655 0.2753008787572956
0.32278532657137726 -1.1355886971078686 0.2955206336840118
0.33793116546466795 -1.1368328750452117 0.3156927136993332
0.353661792542342 -1.1390448027065798 0.33588649237689616
0.3698930090932962 -1.14211925676185 0.3560070560896874
0.38645243309968114 -1.1459859432482864 0.37572072128816236
0.403063514977379 -1.1506101511411724 0.39450710495610264
0.4193861429717117 -1.1559800576833217 0.4117912016247671
0.4351019669823558 -1.1620902669868176 0.42705426823254283
0.44995975829906 -1.1689281780340182 0.43995541421159723
0.4638063484889854 -1.176477614754437 0.45036337003563787
0.47661177908328184 -1.184741124035462 0.4583411320340166
0.4884502827454842 -1.193758635009821 0.4640872259000251
0.49945721772136903 -1.2036290767969815 0.4678809602456828
0.5097461154041762 -1.2144940084649751 0.4700236344592763
0.5193397556411511 -1.2264944260057706 0.47080534571536575
0.5281264010013832 -1.2396456797799185 0.47054093126760904
0.5357949338211916 -1.2536039498808398 0.469651216358628
0.5419059008062614 -1.2676888017731522 0.4686512832205674
LINES 1 120
119 0 1 2 3 4 5 6 7 8 9 10 11 12 13 14 15 16 17 18 19 20 21 22 23 24 25 26 27 28 29 30 31 32 33 34 35 36 37 38 39 40 41 42 43 44 45 46 47 48 49 50 51 52 53 54 55 56 57 58 59 60 61 62 63 64 65 66 67 68 69 70 71 72 73 74 75 76 77 78 79 80 81 82 83 84 85 86 87 88 89 90 91 92 93 94 95 96 97 98 99 100 101 102 103 104 105 106 107 108 109 110 111 112 113 114 115 116 117 118 
CELL_DATA 1
SCALARS ComponentValue float 1
LOOKUP_TABLE default
1
