# vtk DataFile Version 2.0
3D curve data
ASCII
DATASET POLYDATA
POINTS 119 float
-0.0011001346432952788 -0.007626976965708636 -0.017626764864407427
-0.002887425663505156 -0.01737278804886204 -0.03698141624465753
-0.005566854551035141 -0.028981834776404494 -0.057552683080433986
-0.009352503290200598 -0.0420246684830557 -0.0788022246425418
-0.014314291668322938 -0.05572131717416176 -0.10017616256297558
-0.020465104751767743 -0.06929929764586457 -0.12133491188958467
-0.027888671576415038 -0.08206726110517473 -0.1421083195367704
-0.03662934546419323 -0.09340373055831867 -0.1623623335868948
-0.04663855443568513 -0.10291515750405315 -0.18199653491887793
-0.05788061497390404 -0.11049160136021223 -0.20090347321066865
-0.07029855195355399 -0.11624280712930499 -0.21892504550371572
-0.08373873850542268 -0.12046527503783483 -0.23593177058400305
-0.09787674871597679 -0.12362554934274542 -0.2518856285974079
-0.11226812684788698 -0.1263735894925488 -0.2668362939886508
-0.12666386019454678 -0.1294558361761122 -0.281001731809735
-0.14119961150017446 -0.13344661643898542 -0.2944590739956419
-0.15596325360519214 -0.1386197315125184 -0.3069697239279584
-0.17095823728750129 -0.14504347621933145 -0.318191919650221
-0.18612164089279049 -0.15261590203658276 -0.3277380550443727
-0.20120454000021024 -0.16114743999974607 -0.33528100261212423
-0.21604471322730381 -0.17051019655852473 -0.3406769426309287
-0.2306050227539483 -0.18058963053216653 -0.34384196131515643
-0.24488702404097762 -0.19127818994242526 -0.3447510066136358
-0.258860062050865 -0.20248668885269497 -0.34346948458003035
-0.272388585027845 -0.21412579412683266 -0.3401910928499132
-0.2851884728613391 -0.22607252386207355 -0.3352628165884115
-0.29689468321720813 -0.23813725743398714 -0.32913204905865967
-0.30724981490556513 -0.250115560494689 -0.3221878290807927
-0.3162606094054313 -0.2619387288051903 -0.3145916509696823
-0.32421329916435826 -0.27388059470251197 -0.3061893100884994
-0.3314223540877086 -0.28666763627234204 -0.29656451553014607
-0.3378319607351313 -0.3011656738726074 -0.2853010069830454
-0.3430273568515795 -0.3181217204163992 -0.27201408196586135
-0.3461493988783727 -0.3376750310085425 -0.25660355212676617
-0.3464081166108193 -0.3589894354144347 -0.23958155120661087
-0.3432450969782733 -0.3811138804724702 -0.2215797189972869
-0.3360677708840976 -0.40338569938492164 -0.20319852268332658
-0.3242836591193389 -0.42524677758571605 -0.18511641522098898
-0.30779392381674064 -0.4460277356018197 -0.16811536128248286
-0.2872920629062704 -0.4651532405440303 -0.15285311313473524
-0.2641181266619504 -0.4824112591625085 -0.1396944454875369
-0.23968371648136405 -0.497929328516581 -0.12880602379499317
-0.21532809590229374 -0.51184777615354 -0.12038820452671198
-0.19221202622164912 -0.5242413664545933 -0.11463287174757317
-0.17106160906012305 -0.5351920934064911 -0.111626180311545
-0.15200294484262133 -0.5448313292843266 -0.111312394915684
-0.13459398201614 -0.553404941340669 -0.11351805047328391
-0.11809432959662226 -0.5612779850806823 -0.11805083641407571
-0.10182869765447997 -0.5687378477244821 -0.12478029339128982
-0.08521304893840341 -0.5758925635596647 -0.13359094711945402
-0.06775808210021468 -0.58277609082391 -0.14424886470124162
-0.04925623754938852 -0.5894461452700306 -0.15628362182703345
-0.02986841339504155 -0.5959901291332952 -0.16899307128673494
-0.010065379222906068 -0.6025471157210956 -0.1815464878024811
0.009494972849971094 -0.6093373713022441 -0.19312987016572175
0.028092352202183837 -0.6166305414175404 -0.20310545173888692
0.04511860407053676 -0.6246331807368446 -0.21112800101794196
0.060265203628071744 -0.633455894302455 -0.21716995049913243
0.0735218808123351 -0.6431824018424319 -0.22143584238343686
0.08506990192002448 -0.6538777760542515 -0.22424394568951264
0.09522478478851581 -0.6655744288415124 -0.22594780392012684
0.10441896123573242 -0.6782737830570196 -0.22685135717739832
0.11309049710968294 -0.6919659465481189 -0.22719723334611103
0.12157621060324288 -0.706620255600891 -0.22721729247858413
0.13004171975517248 -0.722171061122481 -0.22712836840747863
0.1384777272325443 -0.738535442912525 -0.2270886678480931
0.14676998234159844 -0.7556896461181024 -0.2271634213283509
0.1547747973892203 -0.7736805850851785 -0.22730976382063037
0.16235976377812264 -0.7925266125555069 -0.22738835086699322
0.16940897131228033 -0.8121186193719659 -0.22720916688868623
0.17584051538411444 -0.832195626822511 -0.22658137176049187
0.18164002929841247 -0.8524108822124219 -0.2253405775483577
0.18689571123741355 -0.872422256081334 -0.22335319221799022
0.19179737995668075 -0.8919573423457418 -0.2205155969537675
0.19659683814970005 -0.9108355206664133 -0.21675850955852666
0.20154650271667585 -0.928978752526801 -0.21204546470216346
0.20685604141375855 -0.9463972887856499 -0.20635270699194866
0.21264378063104158 -0.9631234936479014 -0.19965909872784454
0.2189045780174168 -0.9792208770671595 -0.19194328266378646
0.22552537276137175 -0.9948600027686603 -0.1831299094046372
0.2323857564060549 -1.0103337249540805 -0.17302117001315592
0.23942579586895885 -1.0259079387413488 -0.16131422145526988
0.24663029110063484 -1.0416733180550337 -0.14768921330761273
0.25399752203117415 -1.057457805260996 -0.131939413465593
0.2615275567532927 -1.072807566081615 -0.11410461861753485
0.2692220466356794 -1.0870894981837451 -0.09452691748120813
0.2770760470177371 -1.0996663755878813 -0.07378633434755782
0.28506703704548064 -1.1100846142264318 -0.05252473698716378
0.2931658137980325 -1.1181609168414584 -0.03125673288873208
0.3013587819335057 -1.1239630081807366 -0.010276800257248758
0.30966648989571827 -1.1277372642338854 0.010306027567285426
0.31813568603192677 -1.1298252057512022 0.03048508879917141
0.326825584813445 -1.130616505534771 0.05028655625121754
0.33579796242004445 -1.1305153221344022 0.06976161852942576
0.34512582786413604 -1.1299015395256975 0.08898625183320942
0.3549057661961411 -1.1291223824022993 0.1080531555538463
0.3652389579486286 -1.1284835669055095 0.12702897057243032
0.3762022820699875 -1.1282243484120675 0.14589025057645502
0.3878148759226945 -1.128465639388329 0.1645126042306213
0.40003505294280767 -1.129156885880018 0.18272479940216094
0.4127984913911756 -1.1300754958059764 0.20040904533690918
0.42607048840930273 -1.1309074849382066 0.21759094689018588
0.4398374309762848 -1.1313454588310992 0.23443927398024222
0.4540784485798887 -1.1311808649053363 0.2511980231946081
0.46871475738048685 -1.1303401540455706 0.2681082359920385
0.48359822997386565 -1.1289088545519275 0.2853351364997506
0.49851778665307267 -1.1271516679851026 0.3029524241897001
0.5132618316953411 -1.1255081313982764 0.32097100062734396
0.5276760715317461 -1.1245530132440105 0.33933070127782966
0.5416949105980726 -1.1249059257167278 0.3579099172180095
0.5553335751017234 -1.1271087903258923 0.37655339401234
0.5686883061364821 -1.1315359006134886 0.395098243094796
0.5818793039879158 -1.138346933564618 0.4133303602879896
0.5950074376698855 -1.1474690505894303 0.43090858593324394
0.6081575339325798 -1.1585814858456849 0.44734125951640324
0.6213737791523499 -1.1710948911097383 0.4620211646806891
0.6345724558692517 -1.1840798874422571 0.47424400542437817
0.6474051508433747 -1.1964142156401332 0.4834097733341944
0.6594066195429081 -1.2073054598738457 0.4893555518640369
LINES 1 120
119 0 1 2 3 4 5 6 7 8 9 10 11 12 13 14 15 16 17 18 19 20 21 22 23 24 25 26 27 28 29 30 31 32 33 34 35 36 37 38 39 40 41 42 43 44 45 46 47 48 49 50 51 52 53 54 55 56 57 58 59 60 61 62 63 64 65 66 67 68 69 70 71 72 73 74 75 76 77 78 79 80 81 82 83 84 85 86 87 88 89 90 91 92 93 94 95 96 97 98 99 100 101 102 103 104 105 106 107 108 109 110 111 112 113 114 115 116 117 118 
CELL_DATA 1
SCALARS ComponentValue float 1
LOOKUP_TABLE default
1
