# vtk DataFile Version 2.0
3D curve data
ASCII
DATASET POLYDATA
POINTS 119 float
0.007343565534325432 -0.019722720827596536 -0.001387887502019942
0.012025155369923067 -0.03904148911268071 -0.005306228012918648
0.014045215931863687 -0.057740025089811006 -0.01136179364726391
0.013774733694924667 -0.07566180192271428 -0.019070016362265067
0.011528450321567137 -0.09284134397694634 -0.027983988050036733
0.0074503515861471855 -0.1093108976755363 -0.037676139707732176
0.0016203332905240166 -0.12506250007177247 -0.047703463594333737
-0.005822743295465382 -0.14002421780379273 -0.0575851676333701
-0.014556307479204238 -0.15407118018523738 -0.06687583056325219
-0.024091466688114634 -0.1671074397342654 -0.07532001132329187
-0.03401279003683601 -0.17920847304659637 -0.08293664578425958
-0.04426427881684826 -0.19059328734160028 -0.0898538634394482
-0.05498528114432341 -0.2013713210111989 -0.09605607365171313
-0.0662756676027325 -0.21145706581341198 -0.10142140397042061
-0.07822724275385964 -0.22064492557872464 -0.10585441692265078
-0.09114564274809342 -0.22877956469548852 -0.10925184080057374
-0.10551539248195943 -0.2357560560013727 -0.11141645008231031
-0.12169613174563393 -0.24153219625693417 -0.11208979214967794
-0.13979818054970994 -0.24623068015793842 -0.11108844366296598
-0.1595871793302571 -0.2501536479410421 -0.10832982772589159
-0.18065996742340318 -0.25379217541417126 -0.10381685352642937
-0.2025909027806015 -0.25769727422209393 -0.0974938839960862
-0.22493207032480644 -0.2623835903606946 -0.08923722908741413
-0.24725769766380917 -0.2682811620281784 -0.07894098672914122
-0.26916298175468206 -0.2757331509799286 -0.06665529587606302
-0.29017409784021475 -0.2849594881348323 -0.05273643161633523
-0.3097944761437732 -0.29595598385842325 -0.03785891146431545
-0.3277829636269495 -0.3085408180655002 -0.022743714914517717
-0.3440911992148258 -0.3225134423164783 -0.007973226921064133
-0.3583673565950286 -0.3374866893006184 0.005808386381619733
-0.36991922759818 -0.3524753996208562 0.017755171201628183
-0.3782858067607635 -0.3661261568019818 0.027076348275737978
-0.3837486916919499 -0.3775497386730009 0.03346571525444682
-0.38699403637716795 -0.386943323131323 0.03730950028657613
-0.38833627856718045 -0.3949064602346787 0.03912267779935994
-0.3878388905784614 -0.40189592531869484 0.03913682567271194
-0.38543134535810863 -0.40824680411227543 0.03720742467111473
-0.38096883703708806 -0.41395973165655586 0.032870370348221954
-0.37447662254365477 -0.4185757505956901 0.025887016838183428
-0.36625892384740677 -0.4215645825238987 0.01663770307849519
-0.3567217977623387 -0.4227022734313355 0.006021841842354304
-0.3461784942361016 -0.4221634243437334 -0.004865216055674202
-0.33476880927667685 -0.420429108655899 -0.01502360958548471
-0.3224579683120733 -0.4181337634687432 -0.023766375809726
-0.3091353454604592 -0.4159409212425486 -0.03076987765367606
-0.2947696747062411 -0.4145187347249288 -0.03597222626740607
-0.2795041105944445 -0.4144910161515711 -0.03948900829256061
-0.26367686108356186 -0.4163154146466739 -0.041557310430430684
-0.24780173859250798 -0.4201765504224465 -0.04249054827165069
-0.23243078379367565 -0.4259563743517988 -0.042650373757207066
-0.2179956573045907 -0.43335352097177215 -0.04237755395275743
-0.2047661068263194 -0.4420358183411999 -0.04191225392600736
-0.19287857232131134 -0.45173038447567226 -0.041368516016180634
-0.1823788552038623 -0.4622657543276703 -0.0407661734755012
-0.17329570408804162 -0.4735345921151176 -0.04007877365451753
-0.1656510321254727 -0.4854187781265396 -0.0392630932185345
-0.1594089346436951 -0.497842294820952 -0.03826610059166678
-0.1545063603239655 -0.5108104138602405 -0.037029244765382545
-0.1508800581595762 -0.5243670128591058 -0.035493944534807004
-0.14846099316970934 -0.5385609425854143 -0.0336234784113939
-0.1471469463464297 -0.5534120814871164 -0.03141817520180674
-0.14677899951178397 -0.568910715164856 -0.028892982168788543
-0.14717346345083987 -0.5850279127446731 -0.02605798311266366
-0.1481211492061852 -0.6017076106914805 -0.022908677998111526
-0.14936377432497275 -0.6188746555584637 -0.019396975815884086
-0.1506079055043215 -0.6364311570745933 -0.015428866059940797
-0.15154943631864098 -0.6542011249768492 -0.010872036947927512
-0.1519067789631182 -0.6718975627432233 -0.005558920451672144
-0.1514409524973326 -0.6891069363504072 0.000699212989318062
-0.1499580347614873 -0.7053616349089284 0.008083044477642938
-0.1472921730928024 -0.7202734773043284 0.01675481058452099
-0.14328755749332295 -0.7336046205497413 0.02688090209724223
-0.13777681646883552 -0.7452609529656261 0.03866115048957521
-0.13057593302182566 -0.7552011282645809 0.052314842453101904
-0.12153437395355585 -0.7633443513454421 0.06799261980144411
-0.11064151336890368 -0.7695803059801771 0.08564817050472497
-0.0981223971152361 -0.7738514624665098 0.10497577472403709
-0.08443098098733909 -0.7762435852519962 0.12546236916972212
-0.07012209788692064 -0.7769818173735001 0.146517196905227
-0.055699282152313914 -0.7763332894384398 0.1676028772444395
-0.041538443548680345 -0.7745226069035561 0.18831027979001408
-0.027878054598693247 -0.7717217341105993 0.2083947443958064
-0.01481148817081232 -0.7680650117767336 0.2277738676061293
-0.0023039926960923777 -0.7636749905713548 0.246488470479035
0.009752632455382056 -0.7586886864133108 0.26464785444740635
0.02149588256092638 -0.7532792582917502 0.2823680293933354
0.03306875656727003 -0.747633675343764 0.2997403210515221
0.04461162040232043 -0.7419418667517753 0.3168147525829734
0.05625019600551397 -0.7363716521813992 0.33360642237283855
0.0680961118265862 -0.731088267358039 0.35009368786621187
0.08025136218410178 -0.7262868408195609 0.3662342048127404
0.09281284653357756 -0.7221884439296338 0.3819822867985715
0.10588706445206679 -0.7190442796267822 0.39730435136060316
0.11955936308037965 -0.7171308248823488 0.4121865797126431
0.13385746273583246 -0.7167578419118515 0.4266322983209071
0.14872445663556078 -0.7182613841740121 0.440658352533415
0.16399986663278365 -0.7220054301663097 0.45428390219797826
0.17946080902525016 -0.7283710518097776 0.4675391486501551
0.1948762759809835 -0.7377527071336522 0.4804414107776639
0.21004228542280662 -0.7505532578324543 0.49295620611615326
0.2247712133001162 -0.7671217174188691 0.5049508341256194
0.23890389055471845 -0.787667087173889 0.5161813343927273
0.25235375744532 -0.8122242925798789 0.5263175929020639
0.26513347632107864 -0.8406775526576092 0.5349647766984708
0.2773320192569205 -0.8727831874485815 0.5416814534589072
0.28903391989034866 -0.9081580008686236 0.5460422023148815
0.300304860545007 -0.9463192235211977 0.5477082584638572
0.31114437722921573 -0.9866772223774201 0.5464707312905036
0.3214711805177179 -1.0285512192131216 0.5422831704600409
0.3311130931908315 -1.0711255949496463 0.5353209539330019
0.3398679269383723 -1.1135392202996166 0.5260385206820463
0.34759612712389926 -1.1550521963531946 0.5151326278942866
0.354291420518245 -1.1951032003633013 0.5034447921167955
0.36007536481277314 -1.2332182646117809 0.49190821125465634
0.3651444922579099 -1.268878959056226 0.4815092020417283
0.3697005981672227 -1.301481613823864 0.47323052138264654
0.37387281700019126 -1.3303928766413617 0.4678740078781469
0.3776612203270514 -1.3551692173462746 0.46585508739654935
0.38100116282288643 -1.376033858316497 0.4670810859226809
LINES 1 120
119 0 1 2 3 4 5 6 7 8 9 10 11 12 13 14 15 16 17 18 19 20 21 22 23 24 25 26 27 28 29 30 31 32 33 34 35 36 37 38 39 40 41 42 43 44 45 46 47 48 49 50 51 52 53 54 55 56 57 58 59 60 61 62 63 64 65 66 67 68 69 70 71 72 73 74 75 76 77 78 79 80 81 82 83 84 85 86 87 88 89 90 91 92 93 94 95 96 97 98 99 100 101 102 103 104 105 106 107 108 109 110 111 112 113 114 115 116 117 118 
CELL_DATA 1
SCALARS ComponentValue float 1
LOOKUP_TABLE default
1
