# vtk DataFile Version 2.0
3D curve data
ASCII
DATASET POLYDATA
POINTS 119 float
0.002972853525455455 -0.010049607082006369 -0.0065259605608948956
0.007463633750040042 -0.02165147688572857 -0.014265962438522475
0.012699141507868588 -0.03434677161274496 -0.02290847165899306
0.01768243055067765 -0.04722364160116711 -0.03182793929182948
0.021729107642539817 -0.059504281896019084 -0.04049070057983942
0.024483108144647426 -0.07085290809413096 -0.04863381453242912
0.025739155399872177 -0.08125867189849442 -0.05619152831599795
0.02533860451026484 -0.09092325464411555 -0.06322435247736403
0.023095124265460232 -0.10016930872402874 -0.06986012278000968
0.0187776561349472 -0.10933701645243857 -0.07622624633582933
0.012217332291168722 -0.11867256495632915 -0.08235933969196332
0.0034350887186940723 -0.12833612755321983 -0.08816870088163922
-0.0073774629215245064 -0.13841524101143454 -0.09337896582033267
-0.019794408711469102 -0.14887812549420934 -0.09751388416831874
-0.03322561090251264 -0.1596226560499474 -0.10005943998050597
-0.04705880047118481 -0.1705030728375148 -0.10065119050587365
-0.060907097610286315 -0.18139193290629418 -0.09909218288561061
-0.07467745259220183 -0.1921720783162693 -0.09524895112666297
-0.08846028233071426 -0.202729048035815 -0.08901125820536496
-0.10239282668091286 -0.21301467334278196 -0.08036987161001616
-0.1166955686303035 -0.2231028259230394 -0.06944819524839871
-0.13164803749144852 -0.23316658278824332 -0.05647662357066355
-0.14750264179163283 -0.24346333369896422 -0.04178014228513168
-0.16439783072588332 -0.25433389058526046 -0.02574391798845492
-0.18221271297906638 -0.2661957844179432 -0.008789225608582595
-0.2003110873002699 -0.2794295333786758 0.008553734948141403
-0.21733451819482325 -0.2940816979558545 0.025521916361773943
-0.23137751207545468 -0.3095671669270142 0.04106899866901921
-0.2406579722994827 -0.32455786328640773 0.053936123696670224
-0.24472554008759975 -0.33747133645104904 0.06336636957837345
-0.24443811630334877 -0.34763259786780054 0.06956849772451922
-0.2408500116557889 -0.35540711998935015 0.07328188041437406
-0.2341025500283399 -0.361597173040284 0.07513588343276399
-0.22360815275258392 -0.3663714897049148 0.07512445013754075
-0.2093234081213851 -0.36920638529744837 0.07291900823862289
-0.19211281881140746 -0.3695845498441658 0.06842415829221665
-0.17325610055756085 -0.36728322521660817 0.06186655227613188
-0.15404253262340661 -0.3624013884509755 0.053717574335561964
-0.1351723146178053 -0.35522094342458316 0.044537955803350265
-0.11664639733241973 -0.3458976040368358 0.03471739703588084
-0.09832181618483572 -0.33452313548067597 0.024612167198633867
-0.08000780015438948 -0.3213051215606322 0.01461970194911839
-0.061468192537025776 -0.3066020050234155 0.005114018404186998
-0.04255044793882599 -0.2910132587433007 -0.003530125458837235
-0.023275290325470675 -0.27543296228473707 -0.010913775546485495
-0.0038413091788672723 -0.2609423764524822 -0.01667927246132527
0.01539501252770653 -0.2485805608547241 -0.020610653069446636
0.033984807403762356 -0.23911646962567337 -0.022688201962879646
0.051500557155060064 -0.23293659000100994 -0.023072484826004467
0.06766140798496405 -0.23004358008510795 -0.02204357692037661
0.08243558961650574 -0.23020465774030677 -0.01989934680590679
0.09601515258329515 -0.23317879114206774 -0.01686164639050227
0.10867523929567732 -0.2388762747769102 -0.013064185015158256
0.12059186155945201 -0.2473400914450875 -0.008622820884012774
0.13173749601228832 -0.25852638976014664 -0.0037311544911835786
0.14197548147358965 -0.2721162063184883 0.0013306591525958462
0.15120379043538296 -0.2875819992870717 0.006263386105509688
0.15936668251976654 -0.3043685289547959 0.010795516148434608
0.1663925393359095 -0.3220204008960954 0.014706421424152285
0.1721622697418926 -0.3402291779828279 0.017828015046292917
0.1765865653741321 -0.3588450293801809 0.020050438210469146
0.17968928022052866 -0.3779337482920737 0.02139893877965242
0.18150618130736296 -0.39774147887576355 0.02203879196294508
0.18205877727038722 -0.4185384708578621 0.022214748823885647
0.18142343610089567 -0.4405271579407311 0.022231448982089397
0.1797832218530959 -0.4638022088961597 0.022436802153463883
0.1774446828299841 -0.48834005598210106 0.023191661182578094
0.17482956366655547 -0.5139935729846463 0.024836858910359697
0.17243836930925152 -0.5404689344834307 0.027652832829463216
0.17078721028065275 -0.5673388548727443 0.03182000643644078
0.17033318721955185 -0.5940635750031291 0.037408151344447166
0.171401218139305 -0.6200591791608797 0.0443972285515818
0.17414590381786899 -0.6447651797414572 0.052705363675069505
0.1785497864117268 -0.6677418835297843 0.06222851944826208
0.18446397230547196 -0.6887119083070493 0.07288444601175981
0.19166676624780415 -0.7075534412790513 0.08464138401309904
0.19990821214629625 -0.7242391419643099 0.09750165747114922
0.20893717058877787 -0.7387880019093908 0.11146653551715484
0.218520686999307 -0.7512453510842622 0.1265097199821335
0.22844924475495237 -0.761648427495548 0.1425525578873995
0.23853177336388395 -0.7700317755894882 0.15945445098432742
0.24859441757197884 -0.7764480735677941 0.17703159612853703
0.2585023875280495 -0.7809872037892657 0.19509784282035866
0.26818237948804735 -0.7837754262561594 0.21350583838310383
0.2776155088345461 -0.7849649996888532 0.23216375869263955
0.28682864917124123 -0.7847242237454027 0.2510188283224939
0.2958766806667815 -0.7832400553368446 0.27002327576273844
0.3048447689129596 -0.7807187445183478 0.28912049574585386
0.31384069495885725 -0.777376050243632 0.30822930598092774
0.3229830172048797 -0.773409556201461 0.32725866634621875
0.3323791917688229 -0.7689919099328633 0.3461114812379862
0.3421149733706388 -0.7642557071187996 0.3646989133682779
0.35224011715853326 -0.7593096812560034 0.382944923373291
0.36276673876026666 -0.7542450957706197 0.40077360670820295
0.37366837872579195 -0.7491470489300872 0.4181239821542321
0.38488356494327364 -0.7441030894108791 0.43496005193589093
0.3963356842565302 -0.7392132508826406 0.4512788279907336
0.4079557292914488 -0.7346089483291403 0.4671300931658252
0.41969590618726216 -0.7304678863700598 0.4826197384454485
0.43154492100156544 -0.7270351216188906 0.4978873120586338
0.4435301111830754 -0.7246235263935092 0.5130655934659492
0.4557096675157427 -0.723596718666589 0.5282531654023599
0.4681643026150734 -0.7243424260220478 0.5434878262220086
0.48096996693979815 -0.7272395359466339 0.5586829435678481
0.4941156269950509 -0.7325791197400455 0.5735465794631487
0.5074542491142022 -0.7404515283577952 0.5876221345233174
0.5207271472912793 -0.7507126682493016 0.6004252058284905
0.533642887497664 -0.7630531732143644 0.6115618168961422
0.5459207775533623 -0.7770582074983822 0.62076838282132
0.5573612224568248 -0.7922924125502111 0.6279472351153569
0.5678747420289028 -0.808353417379523 0.633162148838743
0.5774902815316632 -0.8249099280858578 0.6366129458158092
0.5863342308082964 -0.8417164861276525 0.638604608005706
0.5945961626865669 -0.8586038714530148 0.6394937822523428
0.6025172853570882 -0.8754472230904049 0.6396594478092164
0.610348917772368 -0.8920822465312064 0.6394964998722241
0.6182877027026255 -0.9082605406394256 0.6393713522515183
0.6264142201388099 -0.923767839918166 0.6395298370295259
0.63476199758214 -0.9386034007937394 0.6400758967889544
LINES 1 120
119 0 1 2 3 4 5 6 7 8 9 10 11 12 13 14 15 16 17 18 19 20 21 22 23 24 25 26 27 28 29 30 31 32 33 34 35 36 37 38 39 40 41 42 43 44 45 46 47 48 49 50 51 52 53 54 55 56 57 58 59 60 61 62 63 64 65 66 67 68 69 70 71 72 73 74 75 76 77 78 79 80 81 82 83 84 85 86 87 88 89 90 91 92 93 94 95 96 97 98 99 100 101 102 103 104 105 106 107 108 109 110 111 112 113 114 115 116 117 118 
CELL_DATA 1
SCALARS ComponentValue float 1
LOOKUP_TABLE default
1
