# vtk DataFile Version 2.0
3D curve data
ASCII
DATASET POLYDATA
POINTS 119 float
-0.003953159759843561 -0.00999077403114088 -0.00874462790786126
-0.006404352905297405 -0.021377711381995523 -0.01950180911649732
-0.007705933387142049 -0.03389426349445532 -0.03193754006315636
-0.008503509587801347 -0.0469239384866424 -0.045461210814586414
-0.009402540896436894 -0.059716824307724264 -0.05946733013711404
-0.010907697614199817 -0.0718205959284249 -0.07359740710592602
-0.013520337794281983 -0.08303928622603914 -0.08767426462362442
-0.017738232688798143 -0.09332335742323572 -0.1015870505191657
-0.024023356790786213 -0.10271886441766769 -0.1152083513539813
-0.03272124975287541 -0.11131288548561728 -0.12830816927741695
-0.043887818139185936 -0.11920307882243784 -0.14050516100694568
-0.05717205236895291 -0.126564932200362 -0.1513468700724827
-0.0719675440647667 -0.13370789433322045 -0.16044796846987447
-0.0876371410827366 -0.14098362304480844 -0.1675341523276586
-0.10357992915539671 -0.14868051451757167 -0.1724427458165442
-0.11925089368588357 -0.15699125995535884 -0.17515192620346395
-0.13426932723267426 -0.16601124988722696 -0.17575634777166532
-0.14852568419875614 -0.17576219727838466 -0.17436630673054065
-0.1621247165361485 -0.18622469289302723 -0.1710250913971054
-0.17530283586099843 -0.1973866257132846 -0.16568128650053054
-0.18822958370264187 -0.20922794537401102 -0.15822809346801853
-0.2009126952432163 -0.22172819917697023 -0.14864864880011164
-0.21319574390383286 -0.2348514668023458 -0.1371149099726181
-0.22474064499796717 -0.24851245986233808 -0.1240367649132272
-0.23502121774957763 -0.2625092528922877 -0.11008449105492041
-0.24337778424854445 -0.2764696810501588 -0.09615910901781725
-0.24919415381760285 -0.289832775954345 -0.0832441954758173
-0.2521420614518894 -0.3019921688778029 -0.07212327340199999
-0.2522575685712287 -0.31245755388327007 -0.06322534648823057
-0.24995887293031846 -0.32099244202240984 -0.05650076993494757
-0.24564848566226757 -0.3278327854130683 -0.051464410068986256
-0.23944184303036925 -0.33341516507122737 -0.04760664042958844
-0.23119828433928372 -0.3381553831478704 -0.04463156531509438
-0.2208704971750351 -0.34219741359573186 -0.042380876378789276
-0.20871202582154497 -0.3454969142610304 -0.040721039604583655
-0.19499199475295284 -0.34807908131532556 -0.03951625574099751
-0.17991743205939134 -0.3500380268025075 -0.038690195383012264
-0.16390243328835985 -0.3515133829457031 -0.03817474319967981
-0.14740392263624338 -0.3527264112503692 -0.03784815821002118
-0.1306486937854219 -0.3538613262181446 -0.037647797136848536
-0.11384879076356881 -0.355056408066736 -0.03755634182041349
-0.09718758628512836 -0.3565053504439878 -0.037551947867739105
-0.08082792206115216 -0.35845505508458225 -0.03763685729508884
-0.06491042258592092 -0.3611678502846315 -0.03784154073329326
-0.04949399872408439 -0.36487806360722885 -0.03823472750170843
-0.03452042970920022 -0.3697584941735298 -0.03891613072608002
-0.019846606698591195 -0.37592858064980406 -0.039973116413454385
-0.005368888312698794 -0.3834856210706971 -0.04143766903758521
0.008806421329737194 -0.3923935170214707 -0.04329357254867442
0.022429786831488496 -0.4023570844787836 -0.04548032594947054
0.03528976473216677 -0.412892448058811 -0.04786790364625565
0.04730812045151571 -0.4235224939804132 -0.05027135897628633
0.058532795338654235 -0.43395978733739515 -0.05250197658518396
0.06904592726109386 -0.44415802626815487 -0.0544006139523214
0.07886580912285018 -0.4542287608734723 -0.055839776289744
0.08792967965730551 -0.46432016593592473 -0.05671169177106735
0.0961394289181122 -0.4745790924277576 -0.05693067918801524
0.10339116441605073 -0.4851479988425777 -0.05645444370293959
0.10956388419858949 -0.49616132671818863 -0.05530393016227562
0.11452619066041607 -0.5076794859735337 -0.053586212933894734
0.11827123178245544 -0.519632834833463 -0.051500997831919
0.12105880466003034 -0.531903980142422 -0.0492092859625486
0.12327372227413283 -0.5444209756489578 -0.04677485989111634
0.12529624073905093 -0.55712211727984 -0.044216385489277116
0.12745414758407964 -0.5699491679436043 -0.04150828243846576
0.12999440706109577 -0.582841119495845 -0.03857323646763155
0.1330879573068758 -0.5957429591098108 -0.035282792141976306
0.1368588066550447 -0.6085924835351237 -0.031461281735024424
0.14140517076275222 -0.6212976445698936 -0.026901075710610598
0.14679561032128025 -0.6337071712509872 -0.021388444654638315
0.15305281550664845 -0.6455978488392168 -0.014732317465603016
0.16014787357647958 -0.6567018526046611 -0.0067847877566318045
0.16802550056511983 -0.6667581605910342 0.002552430727452389
0.17664334767976614 -0.6755571362715741 0.013334627059028301
0.18599297968903983 -0.6829544747546248 0.025581414595846896
0.19608453838415818 -0.6888613504584945 0.039267491365631436
0.20690640055418888 -0.6932521244852252 0.054290738149332066
0.21838429540394855 -0.6961755397148188 0.07045226506398174
0.2303650796054834 -0.6977854185982285 0.0874766753874204
0.24263743397632845 -0.698323238598822 0.10507676596530542
0.2549809568380687 -0.6980699231808069 0.12302331497368492
0.26721756061698637 -0.6972617255521478 0.14118062161836284
0.27922480778338843 -0.6960372725750612 0.15949589113145568
0.2909408590957815 -0.694418093299159 0.17796293973856075
0.3023485990465673 -0.692325037722554 0.1965831700460928
0.31345855062588684 -0.6896232329367011 0.21533596497613633
0.3243011684144797 -0.6861697935813992 0.2341767586760618
0.33492276545555133 -0.681869595915767 0.25305031104094033
0.3453897060664428 -0.6767095757975776 0.27190635641008754
0.3557832368859892 -0.670787468911747 0.29070273633132954
0.36619654095310816 -0.6643225686968962 0.30938867619448934
0.37671534947122265 -0.6576507728444718 0.3278984636919833
0.3874066489064537 -0.6511882811414911 0.3461622595855802
0.3983019270560026 -0.6453695527961676 0.3641448540302891
0.4094112701143938 -0.6405905799636087 0.38187449420073294
0.4207313371690391 -0.6371808539719009 0.39943919836733177
0.43224776002174536 -0.6354109566350669 0.4169333341770082
0.4439215166233649 -0.6354936033056571 0.43438985009269176
0.45567584246185566 -0.6375672373177859 0.4517461029566619
0.46742197678837705 -0.6416628629411822 0.46885445650479884
0.47909278692118806 -0.6477096015526931 0.4855177021339192
0.49067377617464425 -0.6555695505417172 0.5015124348923349
0.5021848186441618 -0.6650775384082263 0.5165895122354708
0.5136649807647055 -0.6760641212816921 0.530471713615909
0.5251367784185841 -0.6883552297609419 0.5428782827149153
0.536606260596503 -0.7017748542910753 0.5535462594907707
0.5480494593709128 -0.716148206514094 0.5622750876400548
0.5594223769766015 -0.7313248289549241 0.5689677974150856
0.5706582281105601 -0.7471717340963722 0.5736424626318138
0.58168522883594 -0.7635531960869081 0.5764292527278233
0.5924214207036211 -0.7803023765481203 0.5775797703656524
0.6027970177921157 -0.7972327927432314 0.5774503189590562
0.6127556308447107 -0.8141755771264518 0.5764260021272385
0.6222609495822786 -0.8309892756853648 0.5748310839344091
0.6313357293545321 -0.8475433375731207 0.5728955807312104
0.6400417796494494 -0.8636380716188369 0.5708194199453205
0.6484250308927342 -0.8789479323543142 0.5688019524331632
0.6564485065534115 -0.8931055527324934 0.5670208500577729
0.6639922987850921 -0.9058601495194875 0.5655698456180149
LINES 1 120
119 0 1 2 3 4 5 6 7 8 9 10 11 12 13 14 15 16 17 18 19 20 21 22 23 24 25 26 27 28 29 30 31 32 33 34 35 36 37 38 39 40 41 42 43 44 45 46 47 48 49 50 51 52 53 54 55 56 57 58 59 60 61 62 63 64 65 66 67 68 69 70 71 72 73 74 75 76 77 78 79 80 81 82 83 84 85 86 87 88 89 90 91 92 93 94 95 96 97 98 99 100 101 102 103 104 105 106 107 108 109 110 111 112 113 114 115 116 117 118 
CELL_DATA 1
SCALARS ComponentValue float 1
LOOKUP_TABLE default
1
