# vtk DataFile Version 2.0
3D curve data
ASCII
DATASET POLYDATA
POINTS 119 float
0.01221202408808621 -0.012658020108997789 -0.013183080153689686
0.023692505584274826 -0.025442815183781144 -0.028249355689430017
0.03385832917598297 -0.03796405932552525 -0.0445405058199079
0.042420343255190764 -0.05013900654855151 -0.061491886039588786
0.04936510607077221 -0.061924274587577995 -0.07871485088126547
0.054796459699133424 -0.0732939868058097 -0.09599028798659967
0.05881341508454465 -0.08418527825563546 -0.1131605200221289
0.061520149443771564 -0.09446882477344642 -0.13006369161077302
0.06303724865716734 -0.10402335507892706 -0.14657446579665853
0.0634166524297211 -0.11279921936833338 -0.16262768302415942
0.06260663342985492 -0.12081134355250736 -0.1781746717477757
0.06048423143815938 -0.12813740234207951 -0.19318156605851428
0.05682737595011664 -0.13489912508298635 -0.20760462458890766
0.05139659481255261 -0.14116870731470946 -0.22122410525242556
0.04418136827496756 -0.14699514504571876 -0.2336385642643251
0.03538100020153278 -0.1525447499737337 -0.24465721264636864
0.025010048617674727 -0.15807321310541989 -0.25425912684647256
0.013066136870692392 -0.16376805051673463 -0.2623050836231197
-0.0003167337074027471 -0.16975710050894133 -0.2686208894311025
-0.014652026845333704 -0.1761452609907828 -0.2731225559178923
-0.029505460084368162 -0.18310731908176542 -0.27593767225688354
-0.044622404709322716 -0.1907464928675828 -0.2772005306970341
-0.05982056075754888 -0.19906904713019122 -0.27702598359049624
-0.0749280697218904 -0.20802474345033894 -0.275533025456085
-0.08975641929149678 -0.21754471122207655 -0.27285118711208045
-0.10409524022118999 -0.2275800518670779 -0.2690987161559041
-0.11768464334825217 -0.23814375503088825 -0.26435873327877885
-0.13014874615337918 -0.24928203109150493 -0.25871024146004373
-0.1410951837333277 -0.2610556527147444 -0.2522420403506561
-0.1502186434583028 -0.2736181999836971 -0.24505213802767073
-0.1573144589990368 -0.28717615813498876 -0.23725484852106105
-0.1620773869969412 -0.30181554440605535 -0.2290305497214579
-0.16418450733087345 -0.3173910471750794 -0.22060012318717265
-0.1633470149598833 -0.3333837051598643 -0.21233346756522153
-0.1596231192332828 -0.34873856023127003 -0.20485228056738217
-0.1535501821709429 -0.3624182785723572 -0.1987027637035339
-0.14583425350144202 -0.37386133577595654 -0.1941087916662458
-0.13698035511964984 -0.38293896006018446 -0.19102398996374712
-0.12725695488129135 -0.3897527558862761 -0.18930124661271475
-0.11685029405957917 -0.3945279981387034 -0.18877924524471806
-0.10602997646225104 -0.3976227922918341 -0.18924469081247133
-0.09488668864909967 -0.3995101511355703 -0.19048653365716034
-0.08334863854877318 -0.4005944396248289 -0.19239302354069293
-0.07126656448580462 -0.4011709491651271 -0.19490335519439994
-0.05842258802907152 -0.40146913058488676 -0.19796712230000793
-0.04454364999913574 -0.40168507227636385 -0.20152016770279452
-0.029356035413880086 -0.40205733049565656 -0.2054351024102632
-0.012740769967735224 -0.40292016786031626 -0.20949094741523283
0.005131148858890633 -0.40460722359503376 -0.21344606104302
0.023973406089018764 -0.4073294113029289 -0.21709817084746413
0.04353429910262028 -0.41122982348741616 -0.22023245742114672
0.06353749576067387 -0.41645483415347717 -0.2225872161736153
0.08366250831805577 -0.4231287356632624 -0.22390156356390492
0.1036007468376838 -0.431335672683879 -0.22399098255163657
0.12305535502048337 -0.44112385848455016 -0.22279606147980868
0.14170144300800463 -0.4524858841092405 -0.22039995084336492
0.15918369791353623 -0.46533065923307554 -0.21701659465703316
0.17515308175665403 -0.4794790543785612 -0.21294796651438158
0.1892978276716168 -0.49469431004209913 -0.20852335830594226
0.20135896212230986 -0.5106899376962818 -0.20406514110711976
0.2112057726297822 -0.5271348712670338 -0.1998729209809896
0.21891700079114204 -0.543734178050774 -0.19613636424603065
0.224657548482517 -0.5602780453569348 -0.19290759219289544
0.2286269482167773 -0.5766422222958002 -0.19013069929032805
0.23105909457703777 -0.5928478460767762 -0.18766199734584207
0.23217725616703264 -0.6090722311293448 -0.18532714985358195
0.23217038410577528 -0.6255926025824255 -0.18296437734118204
0.2312245141134497 -0.6426998626247121 -0.18043642387998
0.2295804750452808 -0.6605742520563797 -0.17762994384147024
0.22757068015860965 -0.6792035831615645 -0.17445751345360752
0.2256110367515858 -0.6983602056881957 -0.17086054513938023
0.22416205714934498 -0.7176606955201876 -0.16681024891828822
0.22366208716064767 -0.7366776249013163 -0.16229934635344
0.22445976744776985 -0.7550378458092831 -0.15732948455746887
0.22676355976374402 -0.7725095839715334 -0.15189952588158304
0.23064035500500707 -0.7890671325699066 -0.14598356932799172
0.23606525563341918 -0.8048364984710563 -0.13949070327289562
0.2429420924440058 -0.8199614401958883 -0.13226392598439343
0.2510879565832302 -0.8344985525355149 -0.12412413790811017
0.2602280208636958 -0.8484085943557691 -0.11490727482425876
0.27004348065151706 -0.8615785119348013 -0.10448445357615
0.28023315525206904 -0.8738270325893218 -0.09278055581167234
0.2905604333743157 -0.8849140897661866 -0.07979522225163467
0.3008720594017323 -0.8945828142101375 -0.06561958983827282
0.31111884297365505 -0.902617965937887 -0.05043465683018296
0.3213443511897141 -0.9089065411041066 -0.03448501742336378
0.331651689765196 -0.9134815998549364 -0.01802896803717167
0.34216423195197915 -0.9165280071698595 -0.0012941091164288352
0.3529919745593245 -0.9183443932510902 0.01555570442157118
0.3642246839144591 -0.9192824624149372 0.03242473279510653
0.37592376493710544 -0.9196863803382753 0.04926048811778874
0.388117832472502 -0.9198474911797304 0.06601340149422405
0.40079878430039306 -0.9199853495977144 0.0826009122482266
0.41391477664269793 -0.9202485774493373 0.0988888991920531
0.42737403054715617 -0.9207147002782459 0.1147024682472021
0.4410612892484683 -0.9214247970489365 0.1298537353706319
0.4548504161113235 -0.9224090758719518 0.14418028622431156
0.46862233100308937 -0.923706472074986 0.15758006659847276
0.4822847962527094 -0.9253707157885569 0.1700251841139855
0.49577228545677143 -0.9274596081406962 0.1815506147944126
0.509036547326362 -0.9300013107132572 0.1922292626197264
0.5220326951930923 -0.9329790137464465 0.2021530503203584
0.5347000711151538 -0.936319565842866 0.2114184707261528
0.5469603717265235 -0.9399130740071199 0.22012774023318168
0.5587538407822252 -0.9436554004140257 0.2284048182512481
0.5700727511918553 -0.9475023620572954 0.23638892240803572
0.5809782585676936 -0.9515120171399785 0.2442076990222987
0.5915822348998415 -0.9558637452658404 0.2519478961894036
0.6020030161284177 -0.9608282958025783 0.2596078048371652
0.6123263272582549 -0.9667095463038531 0.2670961107485233
0.6225824191232483 -0.9737730382755594 0.274277722622864
0.6327691032910749 -0.9822079132264825 0.2810315018896861
0.6428697848709408 -0.992128145799272 0.2872728013194483
0.6528619009143687 -1.003591451645067 0.2929358680552118
0.6627355123029487 -1.0166074089765489 0.29795758726108484
0.672476546724201 -1.031109204355443 0.3022572693705868
0.6820279076418276 -1.0468528049206363 0.3057227249945473
0.691209017741265 -1.0633018773644713 0.308276317168582
0.6996833210614055 -1.079696060129586 0.3099724748621925
LINES 1 120
119 0 1 2 3 4 5 6 7 8 9 10 11 12 13 14 15 16 17 18 19 20 21 22 23 24 25 26 27 28 29 30 31 32 33 34 35 36 37 38 39 40 41 42 43 44 45 46 47 48 49 50 51 52 53 54 55 56 57 58 59 60 61 62 63 64 65 66 67 68 69 70 71 72 73 74 75 76 77 78 79 80 81 82 83 84 85 86 87 88 89 90 91 92 93 94 95 96 97 98 99 100 101 102 103 104 105 106 107 108 109 110 111 112 113 114 115 116 117 118 
CELL_DATA 1
SCALARS ComponentValue float 1
LOOKUP_TABLE default
1
