# vtk DataFile Version 2.0
3D curve data
ASCII
DATASET POLYDATA
POINTS 119 float
-0.00035060514509661927 -0.018326441243549083 -0.005308350686594288
0.0019195160623492434 -0.036517506263479216 -0.01232715776832147
0.00631170450596393 -0.0541888152945881 -0.020766879112789263
0.012048752272981772 -0.07084606337655695 -0.030233944166291448
0.018356872266986363 -0.08617522846299466 -0.04034706419640295
0.02453696730551694 -0.10011175080508784 -0.05078989815703107
0.0299421749028274 -0.11271385247725892 -0.06126573303994409
0.03402739538142906 -0.12409543237364977 -0.07146487895080689
0.036410062663996844 -0.13444497533786276 -0.08108968872329853
0.03685556155194455 -0.14402198134276017 -0.08988659825694806
0.03523565922652218 -0.1531123935145699 -0.09764622126230178
0.03147446606386567 -0.16202176256640133 -0.10419599391224445
0.02546114663470264 -0.17106744275171423 -0.10934538475410008
0.017099128020798934 -0.180532843414247 -0.11279195502788777
0.006542490753484157 -0.1906111118519378 -0.11411663381924994
-0.005591996910054645 -0.20141593297270163 -0.11314109691353201
-0.01867214400269742 -0.2130571965952122 -0.11003103581633766
-0.032263132488353816 -0.22551276013108437 -0.10506066464314628
-0.046036754805998045 -0.23854924349570286 -0.09851840756660887
-0.05962334232493398 -0.2517983445669862 -0.09076596778126457
-0.07267686832262533 -0.2648981195017568 -0.08222916451597852
-0.08490102372438743 -0.27754611473820157 -0.07331969458318115
-0.09601037500326219 -0.28949155306139973 -0.06439658118984581
-0.10569529123281692 -0.30049560831201266 -0.0557650661568873
-0.11364663140540028 -0.31029734699930595 -0.04769481362654861
-0.11966277602986429 -0.31866614108718044 -0.04041916045696907
-0.12373465505127489 -0.3255208945369704 -0.03410816443800133
-0.1259920172788428 -0.3309727044113214 -0.028862469502129846
-0.12663166505752382 -0.3351825401598453 -0.024770331609194125
-0.12602502698601778 -0.33830054068365367 -0.021774370071489337
-0.12450998340435233 -0.34060287765617264 -0.019608636333762582
-0.12223561836052352 -0.3423475085736436 -0.018038549489173994
-0.11919559893672996 -0.34372654069528946 -0.016985425000752147
-0.11541242534189951 -0.3448069826317071 -0.016441872517967804
-0.11087684581467488 -0.34560457178747206 -0.016344072461850226
-0.10550210658967824 -0.3460781613111277 -0.01660923802080006
-0.09912552593573856 -0.3461515298734457 -0.01715253591699585
-0.09141869675130998 -0.3456894971073151 -0.017958736734740244
-0.08205839511733912 -0.3444881093048865 -0.019142066642608868
-0.07098221605491695 -0.34237389755413916 -0.020862949616900175
-0.05852539858605779 -0.3394215346542626 -0.02312591254084114
-0.04504699266397248 -0.3360176509192755 -0.02577582816549819
-0.030777142432434432 -0.3326943339277122 -0.02864795928324598
-0.015878121047121965 -0.3299804455266308 -0.0316070147349618
-0.000466808784927318 -0.3282956312239922 -0.034539549385963965
0.015408248982730775 -0.32791999871700406 -0.037321324360539934
0.03176220935292966 -0.3290583775337902 -0.03976985896270738
0.048490802564114636 -0.33191214524173696 -0.04164541367542272
0.06515289614153415 -0.33654479953338207 -0.0427695393547842
0.0811830701745111 -0.34274366900293424 -0.04310460824950186
0.0961851141217457 -0.3501291126188014 -0.04269387622625877
0.11001920230631232 -0.35833514786072307 -0.04161582181862765
0.12276530138893889 -0.36710764885474445 -0.03997653304122034
0.13463781682114911 -0.37632209948133666 -0.03791466991135928
0.14590043884122944 -0.38595763039444375 -0.03559379411936506
0.1567964050928763 -0.39604935286930765 -0.03317804144226773
0.167484539106552 -0.4066455480956526 -0.030807573461644346
0.1780017993379528 -0.4177727015918812 -0.028584875526595388
0.1882299143650737 -0.4294237098804146 -0.02657107608384561
0.19789004808093455 -0.44153096476056264 -0.024804313190960686
0.2066898848270969 -0.45396027680329376 -0.02331517215158506
0.21450463046681967 -0.46661059010860007 -0.02204305727039679
0.2212813556960513 -0.47940863215945784 -0.020831782687324406
0.2270385383816142 -0.4922323436956455 -0.0194837137507459
0.23191534858296212 -0.504959008539667 -0.01778081064089504
0.23612549925064938 -0.517491293488612 -0.015538031408554726
0.2399071148654187 -0.5297363525058276 -0.012643616269097852
0.24351895727571435 -0.5416192088475204 -0.009065814031605116
0.24725013994494222 -0.5531365458885842 -0.004825058110887606
0.25141990169296186 -0.5643665254072165 6.148240052450881e-05
0.2563479986580252 -0.5754147500330525 0.0056189291242777365
0.2623137442101741 -0.5863407796194322 0.011911816294730183
0.2695066867253937 -0.5971077323249969 0.019016105315611896
0.2779894708044399 -0.6075610710843422 0.02698924985643609
0.2876820305391816 -0.617464309305392 0.03585676079327038
0.29838728320669533 -0.6265573324121962 0.04562069203694432
0.3098514589204562 -0.6346273985735778 0.05628153240026266
0.3218233277086896 -0.6415385785706964 0.06785292893641631
0.33408203351015353 -0.6472415222407095 0.08035992293531755
0.34644695719748436 -0.6517506881117494 0.0938191777058556
0.3587703658722619 -0.6551196602516464 0.10821107857486914
0.37093905303670405 -0.6574188414180722 0.12346098859187832
0.38288590181573523 -0.65870668954798 0.1394381101196749
0.39459904745154295 -0.6590079728192123 0.15597162610514817
0.4061128068932949 -0.6583035139180248 0.17287535986135727
0.4174781150520257 -0.6565529276525801 0.18996818249694508
0.42873796042924844 -0.6537288189446523 0.2070983769571661
0.439910492694286 -0.6498572868132911 0.22416561102103824
0.4509919845916204 -0.6450368300952978 0.24113276256230115
0.46196362234229005 -0.6394338940093319 0.2580265358421284
0.47280124595912265 -0.6332644859571197 0.2749207268032724
0.4835024051346812 -0.6267750956347745 0.2919157683860931
0.4940958984883299 -0.6202143187534355 0.30911662854331273
0.5046371022283124 -0.6138101423497441 0.3266174265040611
0.5152158892491605 -0.6077439330385125 0.3445021492815883
0.5259388080016296 -0.6021481676503291 0.36283813242460317
0.5369169046957031 -0.597128273246547 0.3816497002086713
0.5482297631759869 -0.59277969602811 0.40089402742260277
0.5599065791246783 -0.5892144890419866 0.42046395559684985
0.5719378280636619 -0.5865641564483594 0.44021842698058766
0.5842933433017428 -0.5849995568813299 0.4599861740889667
0.5969143294945373 -0.5847359397862659 0.47951928228742585
0.6096991289394592 -0.5860056777752068 0.49845339952801837
0.6225067089729336 -0.58899449235066 0.5163399276172521
0.6351952274157551 -0.5938101432272239 0.5327435378086038
0.6476891792699008 -0.6004881790816131 0.5473198789105074
0.6599919892339955 -0.6090079353289669 0.5598021410170293
0.6721708534422265 -0.619311845703882 0.5699828215555213
0.684317365767392 -0.6313065655080958 0.5776858297621854
0.6965100511713556 -0.6448317285097949 0.5827627770134016
0.7087861136533116 -0.6596140532799601 0.5851559672041309
0.7211524474991049 -0.6752770271486351 0.5849699062479143
0.733625488066531 -0.6914175967935509 0.5824714900443209
0.7462456102928459 -0.7076456510447033 0.5780192147178502
0.759079167203178 -0.7235906725492809 0.5720067413358307
0.7721951344335919 -0.7388507997756882 0.5648598865663308
0.7855918967064137 -0.752927589541671 0.5570857827770499
0.7990721280277655 -0.7651804932145259 0.5493457649277839
0.8121464607513941 -0.7749681480460611 0.5424187262414539
LINES 1 120
119 0 1 2 3 4 5 6 7 8 9 10 11 12 13 14 15 16 17 18 19 20 21 22 23 24 25 26 27 28 29 30 31 32 33 34 35 36 37 38 39 40 41 42 43 44 45 46 47 48 49 50 51 52 53 54 55 56 57 58 59 60 61 62 63 64 65 66 67 68 69 70 71 72 73 74 75 76 77 78 79 80 81 82 83 84 85 86 87 88 89 90 91 92 93 94 95 96 97 98 99 100 101 102 103 104 105 106 107 108 109 110 111 112 113 114 115 116 117 118 
CELL_DATA 1
SCALARS ComponentValue float 1
LOOKUP_TABLE default
1
