# vtk DataFile Version 2.0
3D curve data
ASCII
DATASET POLYDATA
POINTS 119 float
-0.004811896267870522 -0.01499572605326113 -0.006762188751540171
-0.008597998332871223 -0.030895278643737895 -0.015883312391033046
-0.011300395994583882 -0.04702580691985922 -0.026941602752662733
-0.013166217953198195 -0.06279622105444621 -0.03930879198846378
-0.014522739418029052 -0.07785576168366155 -0.052350103846996815
-0.015710222626657448 -0.09211472761290417 -0.06555104032193114
-0.017081579474683188 -0.10560894706131481 -0.07848682092472717
-0.018982469748400947 -0.11840405504304172 -0.09076462004831437
-0.02172685033398205 -0.1305645568549741 -0.10199346808937967
-0.025575421035861908 -0.14217033099089885 -0.11181356208571264
-0.0307738084438162 -0.15331795234825785 -0.1199772841649663
-0.03758437007194116 -0.16405687916912257 -0.1263754589102358
-0.046224876605001665 -0.1744111123080439 -0.13098978017282237
-0.05679672348663478 -0.18448409537157068 -0.13382444712335642
-0.06924791678791468 -0.19444020488967292 -0.13485380352423387
-0.0832245307053491 -0.20440602514570527 -0.13415835857063324
-0.09826737468738812 -0.21451807858217992 -0.13200672847513906
-0.11396662033112856 -0.2248846717080596 -0.12872360736525065
-0.12989559028771647 -0.23553256978360734 -0.12456685685771367
-0.14549836844231553 -0.24643105643063562 -0.11974451848183228
-0.16020622225087694 -0.25753478173105243 -0.11444263435543389
-0.17352961666650094 -0.26875983077581767 -0.10885126051669136
-0.18508048741529037 -0.2799631999311102 -0.10320242763797541
-0.19456298771767122 -0.29091948241203375 -0.09777177407601173
-0.2018056943341046 -0.30129983587958614 -0.09284870488747879
-0.2068732120467795 -0.31074582594763905 -0.08865832669143153
-0.21008958573552056 -0.3190503145114648 -0.08528602200631677
-0.2118496522643876 -0.3262139245555737 -0.08270915741297569
-0.212504869400694 -0.33226621722268135 -0.08088489827312054
-0.2125176402153969 -0.33727987060461284 -0.07961620752944659
-0.21220034839645707 -0.3417859077485548 -0.07856153390386506
-0.21138700685498052 -0.34630796646349615 -0.07756002942775225
-0.20970890917387322 -0.35099618937030314 -0.07657696572828254
-0.20679662677036525 -0.3558090566267693 -0.07565294161749722
-0.20239602162020115 -0.3606422609009918 -0.0748525075034904
-0.1962609065243628 -0.3654169178875893 -0.07422848156639875
-0.18808192205887797 -0.3700257582912652 -0.07388673541075381
-0.17768642387414058 -0.3742090744474164 -0.07400921818247753
-0.1653107034086037 -0.37757404184237153 -0.07480714280974486
-0.15174922959387546 -0.3797870399446225 -0.0764160803425406
-0.13800358246237793 -0.3807940686975899 -0.0787687640293446
-0.12476359024688372 -0.38076700386825935 -0.08166531325773368
-0.11234848670186431 -0.3799277023978304 -0.08486890397281656
-0.10082728173212921 -0.37846498967698755 -0.08811648800769437
-0.09007606357201318 -0.37652464869709085 -0.09115577159760666
-0.07981075715639163 -0.37421688651419505 -0.09378235167634053
-0.0696320053392272 -0.3716730855405079 -0.09582749296588239
-0.059203334319498056 -0.3691202170861365 -0.09714365187271047
-0.04843476124388234 -0.36680730027171365 -0.09769152763361144
-0.03731762154650128 -0.3648851205980446 -0.09756265038346329
-0.02576545472141664 -0.36344181785151697 -0.09685560121118347
-0.013603934118576973 -0.3626040559739155 -0.09561465702186933
-0.0007008411706260612 -0.3626215300706379 -0.09383812671422173
0.012904733799679793 -0.3638155135109294 -0.09152087409831774
0.026991940148080318 -0.36646257191187004 -0.0886866216511786
0.041262604110147746 -0.3706916181899713 -0.08537630707781843
0.05545728951678619 -0.3764905989222938 -0.08162345163246865
0.06937684799868801 -0.3837704266527364 -0.07746515391897282
0.08278698831692183 -0.39240666377172 -0.07297432920301784
0.09535809471739522 -0.40219457958610194 -0.06828065027295145
0.10679039538424345 -0.4128297149675997 -0.06354888209081724
0.11699344500040784 -0.4240253971076479 -0.05886800354179417
0.12601104723905776 -0.43559882854642545 -0.05424881922567118
0.13395320228684732 -0.44746873070717574 -0.04969420860594445
0.14096058409460532 -0.4596430789779684 -0.04521533811443447
0.1471871618227994 -0.4721850173741666 -0.040837799742314745
0.15281162469082554 -0.48515841407163257 -0.036603313289615094
0.15805135392338943 -0.49859618541422507 -0.03255916821273131
0.1631572863187354 -0.5124997156852668 -0.028728843028710302
0.1683940591912658 -0.5268358914669962 -0.02506800227338498
0.17400238578057278 -0.5415030865884416 -0.02144169514940321
0.18016294936251342 -0.5563091526186634 -0.01763732456869007
0.18697995264639553 -0.5710102556681061 -0.013397568671791416
0.19448564006654562 -0.5853646054041102 -0.008461133490893889
0.20265467881673394 -0.5991853148345863 -0.002599104923780067
0.21141094994154078 -0.6123727376417218 0.004362118613346049
0.22063999295722087 -0.62493591237186 0.012545014028758836
0.2302110109474521 -0.6369800877799802 0.02204441320917775
0.240010607048386 -0.6486615093637526 0.03294804114285104
0.24996218841038256 -0.6601044065809241 0.04532344464550739
0.2600092484961287 -0.6713156817361066 0.05916934691685493
0.270112227345505 -0.6821497192095776 0.07437786187111578
0.28025107922411285 -0.6923176744673079 0.09072790616357934
0.2904226886174044 -0.7014452132669248 0.10791614844695807
0.3006417610782189 -0.7091594068876185 0.12561598670504026
0.3109223622035189 -0.7151818610015108 0.14354446555714173
0.3212695630984899 -0.7193958903318076 0.16150757021265666
0.3316756585576637 -0.721863906410168 0.17941971457663802
0.3421219094911927 -0.7228121254101396 0.19729423609885177
0.3525913218813068 -0.7225900037116686 0.21521471014155666
0.3630742616676142 -0.7216301495903886 0.2333047861364089
0.373592323982154 -0.7203960501106932 0.2517020764327741
0.384205466926458 -0.7193506469200535 0.27052766299929115
0.39500698123142947 -0.7189242878549217 0.28984993378906304
0.4061170130642767 -0.7194875217605516 0.3096385316912718
0.4176577715977513 -0.7213227899094193 0.3297288264485013
0.42972621272050104 -0.7246070641304464 0.34982982086312064
0.4423639204474016 -0.7294000728034754 0.3695589688687032
0.4555316119571682 -0.7356440084279243 0.38849222139721573
0.46912499448316836 -0.7431894085976039 0.40622346186846836
0.48299388492500483 -0.7518238797234074 0.4223875099967195
0.49695461785108946 -0.7612961975762931 0.43665740306175843
0.5107875430305318 -0.7713095762318698 0.44876589584568793
0.524271011540844 -0.7815512211288249 0.45860235352492584
0.5372595320423138 -0.791786510368635 0.46627925953605126
0.5497517652304132 -0.8019694647520625 0.4720579368237262
0.5618488598514412 -0.8122161587707986 0.4761975712841945
0.5736829739540958 -0.8227211996737461 0.4788622618821753
0.5853660283047739 -0.8336650104999319 0.4801249167649545
0.5969426451230402 -0.8451156792530007 0.4800084141350437
0.6083608823862845 -0.8569677004527375 0.4785712492399068
0.6195226179864124 -0.8689912597279297 0.47597241834885007
0.630354700411695 -0.8809593419910698 0.4724351519235207
0.6408578642691971 -0.8927396383792435 0.4681706980448307
0.6510955381065617 -0.9042947738248173 0.46334026927442695
0.6611600262685122 -0.9156119105074276 0.4580696573062079
0.6710933519928288 -0.926608521625691 0.45246719421452003
0.6807571162947733 -0.9371150951757168 0.4466536290257189
0.6898579907025373 -0.9469660206244084 0.4408665345453302
LINES 1 120
119 0 1 2 3 4 5 6 7 8 9 10 11 12 13 14 15 16 17 18 19 20 21 22 23 24 25 26 27 28 29 30 31 32 33 34 35 36 37 38 39 40 41 42 43 44 45 46 47 48 49 50 51 52 53 54 55 56 57 58 59 60 61 62 63 64 65 66 67 68 69 70 71 72 73 74 75 76 77 78 79 80 81 82 83 84 85 86 87 88 89 90 91 92 93 94 95 96 97 98 99 100 101 102 103 104 105 106 107 108 109 110 111 112 113 114 115 116 117 118 
CELL_DATA 1
SCALARS ComponentValue float 1
LOOKUP_TABLE default
1
