# vtk DataFile Version 2.0
3D curve data
ASCII
DATASET POLYDATA
POINTS 119 float
0.005255940915080683 -0.033171556312341255 -0.006186859573251385
0.010161106216333381 -0.06046361378977293 -0.01599828798755694
0.01453512466950371 -0.08182615995688858 -0.027984480926854412
0.01855148955752063 -0.09823701977005159 -0.04109266451256555
0.022368371329159455 -0.11147768789199304 -0.05500271061722483
0.025931691773126153 -0.1228662601870043 -0.06950794782611322
0.02912049405615716 -0.1332043156660403 -0.08422327809291905
0.031815859831778405 -0.14298640403518564 -0.09860037342103914
0.033923817662362285 -0.15254595101152138 -0.11210193521960735
0.03528449396561896 -0.16216489277573826 -0.12439451896295087
0.035521065870188134 -0.17201380002463654 -0.13531685290671858
0.034088100297946004 -0.18200987950366868 -0.144751928305896
0.030444185201213888 -0.19187318330472322 -0.15262171524260543
0.024205214706169795 -0.20129983205879162 -0.15888681381101588
0.015260300479785716 -0.21006291534631244 -0.16344307635711705
0.0038301401845904624 -0.21807364514978822 -0.16630444777776085
-0.009904521738933528 -0.22537746866265865 -0.1676122185687936
-0.025767895298957275 -0.2320278879147406 -0.16744340909989622
-0.043355710676109493 -0.23810055515806117 -0.1658226322126696
-0.061765349547062906 -0.2437810289051839 -0.16288890701813943
-0.07990413896281302 -0.24940321568145762 -0.1589751918885003
-0.09673229193270301 -0.2552779102801396 -0.15449795645633926
-0.11132659622353908 -0.2615457547232574 -0.14991684525513368
-0.12298476079293724 -0.2680961407834977 -0.14569045135054648
-0.13138577276614075 -0.27457441312401637 -0.14218893615778586
-0.13671584247028992 -0.28056569388633135 -0.13959174667784446
-0.13954978053556022 -0.2858757660461003 -0.1378747741830914
-0.140473237689083 -0.2906458713117605 -0.13692344226434225
-0.1397346166301401 -0.29515792168072635 -0.13672057642566848
-0.13732631896800693 -0.29944212521639246 -0.13732776988816794
-0.13308669399957468 -0.30329267159722606 -0.13880853506140348
-0.1269457072658235 -0.30622533645580935 -0.1413068558176808
-0.11918970404910147 -0.3077832543209673 -0.14487880716900717
-0.11029116723047261 -0.3077701372919791 -0.14931706671468964
-0.10035408388267412 -0.30615190905824524 -0.15441448019791196
-0.08931628016975267 -0.3027625726969404 -0.16016623007195246
-0.07736815502267697 -0.29743833012737747 -0.16646264857338405
-0.06457089248334243 -0.2901136969370267 -0.1730855440503441
-0.050768235081353405 -0.28088044329712314 -0.17984723792204305
-0.03584355402934131 -0.27011899041360266 -0.18653860413245985
-0.020126359550663143 -0.25877296838620734 -0.1927035924846826
-0.0038870962645411677 -0.24815538183575037 -0.19780257396677134
0.012931334774291876 -0.2393973802208037 -0.20150964935420265
0.030648921653621784 -0.23327103248403327 -0.20368070012983533
0.04979807335629195 -0.23029488876115975 -0.20423453898539276
0.07100420288804568 -0.23099621438629467 -0.20302596538801226
0.09477519055402092 -0.23611135963497512 -0.19978815263632685
0.12111975674569367 -0.2465377746672313 -0.19421533747595415
0.14916852867594754 -0.26291892818302565 -0.1862082351950315
0.1773743274991135 -0.28518339413219274 -0.17600320639728284
0.20406112938394783 -0.3123735337671197 -0.1640736005612552
0.22799507157498014 -0.3428982247305463 -0.15101822875906656
0.24854841875018474 -0.3749870313119936 -0.13747757864568882
0.2656779283530593 -0.40693885288192905 -0.12410167116935487
0.2799114381865776 -0.43753740961621485 -0.11147427154638273
0.29202109707972707 -0.4663109333689078 -0.1000948395495637
0.30262312784613055 -0.49320477284845665 -0.09038650279760245
0.31212681849223134 -0.5182528605785374 -0.08258878169926791
0.3208179336945067 -0.5415430441752566 -0.07665578827071229
0.3288711445073044 -0.5632315979845376 -0.07228734141311528
0.33637554443354806 -0.5834635692715097 -0.06904517647615503
0.34340195383513766 -0.6023539322647534 -0.06639931377954095
0.34994826366247445 -0.6199607726353075 -0.06378775221393942
0.355982012209668 -0.6362715088803889 -0.060683640059481805
0.36150149875870596 -0.6513159343407287 -0.056625467526629364
0.36652875030243426 -0.6652024491525687 -0.05125666574791834
0.3710904191996003 -0.6780573454947838 -0.044336906719483885
0.37522844226548324 -0.6899923196113666 -0.03574190749977267
0.37902780480173376 -0.7011164366095171 -0.02543615803306222
0.382654206374849 -0.7115316014731947 -0.013411840387459052
0.3863490489818761 -0.7212879402778729 0.0003433799034854813
0.3904049555023309 -0.7303281484864822 0.015810744336344773
0.39511554808365146 -0.7384939121716526 0.032882557886820714
0.40072651587003905 -0.7455551639205042 0.05131514404322261
0.40737653140460767 -0.7512840663870751 0.07071429262804199
0.41506801736961485 -0.7555580535923287 0.09058411446209388
0.42370004403096584 -0.7584208317366483 0.11048943888697045
0.43314622148117465 -0.7600402187460309 0.13018593716925583
0.4433083590900795 -0.7605989406714954 0.1496255469199844
0.4541414267292782 -0.7601948152157224 0.1688632871801957
0.4655935374205747 -0.7588037753377734 0.1879380333420302
0.4775689181274193 -0.7563242803525118 0.20684086453772357
0.4899570021458824 -0.7526122204248418 0.22554043282182218
0.502670343912113 -0.747526773886434 0.2439930480747299
0.5156716927713879 -0.7409711548770649 0.2621436446537209
0.5289538615331119 -0.7329626579548449 0.27992419301398574
0.5425196330921286 -0.723677254113244 0.2972659150491313
0.5563475513459024 -0.7134561051744366 0.3141106007739358
0.5703903753915517 -0.7027654299949884 0.3304359200487428
0.5845976633134047 -0.6921485112157161 0.34625726092437853
0.5989200759809103 -0.6821442905629727 0.3616437787814381
0.6133281246113551 -0.6732256914012619 0.3766934385185787
0.6278158322580957 -0.6657557885467603 0.3915022540155696
0.6423712737212116 -0.6599664272012579 0.4061280896725975
0.656960108984952 -0.6559681043593717 0.4205546901288801
0.6714957835795468 -0.6537682318607262 0.43468310982988506
0.6858456181886641 -0.6533034581340524 0.4483649105695003
0.6998644394193163 -0.6544828270945011 0.4614596999548201
0.7134546734592434 -0.6572491923666717 0.47387394434188757
0.7266107817550642 -0.6616347055740691 0.4855534033866037
0.7394020968270771 -0.6677744242246707 0.4964114287104139
0.7519173475766507 -0.6758592106201853 0.5062489966599157
0.7642081869240525 -0.6860308650156195 0.5147356023227135
0.7762756740050887 -0.6983028828322518 0.5215269789265757
0.7881511579041236 -0.7126238190187595 0.5264110493795491
0.7999642310553909 -0.7290032126395207 0.5293007953111166
0.8119338437129321 -0.747529456123295 0.5300941232283578
0.8242715690085747 -0.7682933900254642 0.5285954992896478
0.8371030182271321 -0.7912665566425824 0.5245479111390348
0.8503913016617448 -0.8161969251484782 0.5177680630172456
0.8639248991575965 -0.8425708424162749 0.5083399129241918
0.877401121329338 -0.8697185948862428 0.49673035871132337
0.8905637929320526 -0.8969690239140506 0.48376081333587945
0.9032424153829308 -0.9236349112623718 0.47058802125534543
0.915300273240444 -0.9489453584114096 0.45862355414441497
0.9265959177445071 -0.97207519049052 0.44930459514807347
0.9369621811115997 -0.9922338767101126 0.4437850731601875
0.9462098249040839 -1.0088371442805188 0.44263255141909197
0.9542431627314389 -1.021907528227923 0.44575260349222756
LINES 1 120
119 0 1 2 3 4 5 6 7 8 9 10 11 12 13 14 15 16 17 18 19 20 21 22 23 24 25 26 27 28 29 30 31 32 33 34 35 36 37 38 39 40 41 42 43 44 45 46 47 48 49 50 51 52 53 54 55 56 57 58 59 60 61 62 63 64 65 66 67 68 69 70 71 72 73 74 75 76 77 78 79 80 81 82 83 84 85 86 87 88 89 90 91 92 93 94 95 96 97 98 99 100 101 102 103 104 105 106 107 108 109 110 111 112 113 114 115 116 117 118 
CELL_DATA 1
SCALARS ComponentValue float 1
LOOKUP_TABLE default
1
