# vtk DataFile Version 2.0
3D curve data
ASCII
DATASET POLYDATA
POINTS 119 float
-0.001540956694733713 -0.01641412659485479 -0.009647821720940057
-0.0047094412536664255 -0.03458463508974698 -0.02079072742404737
-0.008830738004781687 -0.0534947145371686 -0.032946315013015995
-0.01301098025334716 -0.07227392864539038 -0.045654372808542
-0.016668029067113465 -0.09059979909141619 -0.058598608254609386
-0.019555292071603482 -0.10833977471836512 -0.07149127534451748
-0.02163907848291876 -0.12542167794910106 -0.0840857808229612
-0.023087547430252604 -0.1417781769587392 -0.09617906871525914
-0.02427977175909724 -0.15728789251993888 -0.10758207974976777
-0.02574604797047405 -0.17178633705552204 -0.1181339675066833
-0.028081316579242448 -0.18518256627375132 -0.12780142590988164
-0.03191467725667945 -0.19748807303309215 -0.13668646916590307
-0.0377350864910993 -0.2087664729933281 -0.14493017904834007
-0.045716996129024925 -0.21924439665672985 -0.15275860408221997
-0.055970423488062526 -0.22937382451242344 -0.16059277215805165
-0.0687599238066039 -0.23954600127445574 -0.16870035068175496
-0.08411479455315266 -0.2498914232051046 -0.1770048412548186
-0.10158621223917261 -0.26039726435541305 -0.185201780879046
-0.12040197442735905 -0.2710413523852161 -0.19290138877046695
-0.139748882986587 -0.2817639446245878 -0.19963572691490533
-0.15908615364443404 -0.29249790660974484 -0.204929190882327
-0.17827741641368824 -0.3031864094805322 -0.20833262143930203
-0.19758293290733617 -0.3138587576021059 -0.20947793508431675
-0.21763917070764377 -0.32469774457776557 -0.208061517459283
-0.2393627593548636 -0.3360627723507717 -0.203774076052731
-0.26376002900581114 -0.34845729532555997 -0.19628254581111115
-0.2917127035764083 -0.3625219913080955 -0.18530161035056342
-0.3237947642815783 -0.37905099275300913 -0.17067029567490838
-0.3600151214136884 -0.398931504449611 -0.15238177433238628
-0.3994115396670147 -0.42294005832663933 -0.1306227867054878
-0.4394485886179936 -0.45131766625492586 -0.10612145209838775
-0.47620489925935394 -0.48303463869810426 -0.0804950928087532
-0.5057961269187123 -0.5155470490247237 -0.05583425828964006
-0.5260677380362179 -0.5458741993415591 -0.034095364331317234
-0.5371913480979875 -0.5721909543473108 -0.01634874835120504
-0.5405651537251717 -0.5939769445079089 -0.002751478387322129
-0.5378097959046537 -0.6114770748955569 0.007015170806338749
-0.530317565572542 -0.625357919307471 0.013514163051126269
-0.5189410948388516 -0.6363046097559222 0.01729076374135948
-0.5043814342914728 -0.6446385464681326 0.01867490109842275
-0.4876172958649811 -0.6503658989599843 0.017986053469597904
-0.4697967894419889 -0.6534178996583574 0.015708334199987035
-0.4518890550043034 -0.6538344986780051 0.012454842178879079
-0.4345069226990183 -0.6518102420041827 0.008828912980880668
-0.41794912935171336 -0.6476943173928564 0.0053160540951813235
-0.4023471980984168 -0.641982030523901 0.0022309139604883912
-0.3877381508820715 -0.6352578630759618 -0.00031422492289764914
-0.37393870881665836 -0.6280372065395533 -0.002383831655398419
-0.3604893973817719 -0.620785829374043 -0.004079419886792584
-0.34695786376506565 -0.614082254389754 -0.005460350563208445
-0.3331657212789221 -0.6085925540294208 -0.0066001672175772545
-0.31917239063602443 -0.6049095099545534 -0.007615766411476053
-0.3051886705339612 -0.6034551127550348 -0.008636146494191164
-0.2914862476520197 -0.6044546612992103 -0.009764391457231077
-0.27831864523325583 -0.6079600863012834 -0.011064020390637698
-0.2658285466723486 -0.6138973901155556 -0.012545920171918995
-0.25398760147433064 -0.6221764731905137 -0.014163930092645884
-0.24262660772450445 -0.6327508672163628 -0.0158362980421659
-0.2314718066775926 -0.6455710019667782 -0.017461273248879892
-0.22014014552025002 -0.6605409358774618 -0.01888888347267578
-0.20826707615733348 -0.6775356405824373 -0.01987044536315332
-0.19572312479695889 -0.6963464080679128 -0.020185895014552688
-0.18248117360721022 -0.7167197604279486 -0.019743916323117363
-0.16857845143679165 -0.7384867506655381 -0.01857439713227636
-0.1541790203098168 -0.7615162523828828 -0.016839274030672657
-0.13950165074815268 -0.7856701913655832 -0.014757721703429715
-0.12473677774026116 -0.8107993932167861 -0.012498221086071253
-0.11006815340430537 -0.8367014912137066 -0.010105062595523778
-0.09574114683579871 -0.8630488880622289 -0.007473420429252535
-0.08205414195880073 -0.8894072339630977 -0.0043785952824283185
-0.06925770464649422 -0.9153366062987296 -0.0005270832729430017
-0.05746180022660217 -0.9404733195516018 0.004402865199564649
-0.04660714994409616 -0.9645464805413362 0.010722960410650796
-0.03651175517446283 -0.9873545667594303 0.018684145186574627
-0.026952234877087502 -1.008729480279972 0.02840424628745224
-0.017743883248943645 -1.0285766453148768 0.03982226678107151
-0.008767150490617109 -1.046912855105533 0.05274929843577056
4.639678893402399e-05 -1.0638540837252382 0.06696066600735125
0.008736908968824068 -1.0795485973250258 0.08224679016159972
0.017333618542189188 -1.0941280669952553 0.09843854661985078
0.02587654388204309 -1.107683548657801 0.11541852858475997
0.03442545500523656 -1.1202469192470144 0.1331125114995802
0.043057777794721044 -1.1317961566897154 0.15146735554889668
0.051854121662847925 -1.142264578059605 0.17042055508939338
0.060877300344034366 -1.151558616677978 0.18986375300259745
0.07017121562462103 -1.1595728820152145 0.2096200977537327
0.07976383459945967 -1.1662126256220444 0.2294495990751921
0.08967172657261031 -1.1714167488507434 0.24909726112104613
0.09988539697136939 -1.175181152248108 0.2683511955956098
0.11037683473783269 -1.1775823361124755 0.28709230989229123
0.12110044047504744 -1.178786472738663 0.3053166461486599
0.13201998393259687 -1.1790168054336687 0.3231290799980407
0.1431236420337479 -1.1785372472336413 0.3406988968193183
0.1544203063974445 -1.177625566448657 0.35820891073692473
0.16593810523750072 -1.1765667594643918 0.37581054369512706
0.17771014182265044 -1.175628362679128 0.3936011242324245
0.18976368066608715 -1.175049791263835 0.4116158127329008
0.20212624306120075 -1.1750319674403253 0.4298219658175576
0.21481212157837665 -1.1757203612114662 0.4481076518706717
0.2278232896317288 -1.177195069208676 0.46629146671441296
0.24114768588104266 -1.1794642998294178 0.4841509635155619
0.25477016381202117 -1.1824808428576032 0.5014694113649916
0.26868040233811286 -1.186183203638424 0.5180766071623512
0.28285332011447106 -1.190553574524172 0.5338513773475405
0.29722187704686287 -1.1956519675873776 0.5487054474329038
0.3116632994739796 -1.2016076935427504 0.5625580610827965
0.32599888057520765 -1.2085886716757668 0.5753005625864998
0.3399854769727642 -1.2167273355031112 0.5867718640024066
0.3533743699743655 -1.2260815404532306 0.596809708258693
0.36596604849650727 -1.236632421787345 0.6053117524245412
0.37765427988504047 -1.2483358695172162 0.6122284140588938
0.3884330933856383 -1.2611350765304734 0.6175369052689852
0.3983878239104425 -1.2749355583876556 0.6212622095845701
0.40768080183610866 -1.289583003604116 0.6235210765287063
0.41647766815865506 -1.3048350976900935 0.6245214607729134
0.42490158362558783 -1.3203457579828972 0.6245302868325755
0.432983274434624 -1.3356288926723912 0.6238311652266499
0.4405703117299742 -1.35003353363681 0.6226913936893573
0.4473743818228523 -1.3630124093691323 0.6213106761226512
LINES 1 120
119 0 1 2 3 4 5 6 7 8 9 10 11 12 13 14 15 16 17 18 19 20 21 22 23 24 25 26 27 28 29 30 31 32 33 34 35 36 37 38 39 40 41 42 43 44 45 46 47 48 49 50 51 52 53 54 55 56 57 58 59 60 61 62 63 64 65 66 67 68 69 70 71 72 73 74 75 76 77 78 79 80 81 82 83 84 85 86 87 88 89 90 91 92 93 94 95 96 97 98 99 100 101 102 103 104 105 106 107 108 109 110 111 112 113 114 115 116 117 118 
CELL_DATA 1
SCALARS ComponentValue float 1
LOOKUP_TABLE default
1
