# vtk DataFile Version 2.0
3D curve data
ASCII
DATASET POLYDATA
POINTS 119 float
-0.00048309037248273594 -0.02046884558725829 -0.004287205624662823
-0.0007732907818739108 -0.04035151630805995 -0.010989444855511482
-0.0011854117509652504 -0.05919856878286809 -0.019595597882622107
-0.001921414159054341 -0.07684990655062325 -0.02952277985007992
-0.0032259513760879727 -0.09345388848954206 -0.04029813800250143
-0.005402440000689041 -0.10923165605478465 -0.05153169377611074
-0.008744233742807708 -0.1243752151184583 -0.06283340378273006
-0.013506703902343615 -0.13899736035823282 -0.07375160303277176
-0.01984151450269283 -0.15307711007040306 -0.08378523442600241
-0.027689547500757413 -0.1665302366634414 -0.09252925609506885
-0.03681446379163878 -0.17938540222346863 -0.09979597232502943
-0.04704779203646818 -0.19185522588536955 -0.1055586172995298
-0.05846034468082493 -0.2041677837491414 -0.1097870856314017
-0.07118920581374796 -0.21627228299372112 -0.11230124262442605
-0.0850763839522585 -0.22786439700558497 -0.11287776983989806
-0.09987512180563887 -0.23871199646141772 -0.11142373047588644
-0.11543270223971819 -0.24869780144472803 -0.10793335738013063
-0.13162710597654115 -0.2577950524943743 -0.10246692310340685
-0.1483196141436023 -0.26609368800819777 -0.09517091179503817
-0.16533861545013784 -0.27379014917730043 -0.08625494849171063
-0.18246003704730326 -0.2811599652421152 -0.07597262263040983
-0.19939262097178348 -0.2885060433511737 -0.06460907642591321
-0.2157540056460203 -0.2960989539488602 -0.05250703806409633
-0.2310531446586886 -0.3041203773235953 -0.040110111954715574
-0.24469025717068904 -0.3126051109091477 -0.02799182945071986
-0.25605048908258204 -0.3213983115118545 -0.016816629210286156
-0.26475242168477653 -0.3301971381541571 -0.007162437462075118
-0.2708325928686555 -0.33874916835381014 0.0007165004765074254
-0.27457217064903183 -0.3470151767865288 0.006886049533641391
-0.27620971814082923 -0.35514544370251616 0.011559321720158625
-0.2757522285575228 -0.3633693960287582 0.014920143089795515
-0.2729339097620968 -0.3718261924059404 0.016970026185314645
-0.2674846374057183 -0.3805193038095995 0.017521321927650407
-0.25931576601151646 -0.38932851785135847 0.016344609001477828
-0.24849388732270666 -0.3978093885332398 0.013243986055261291
-0.23531969704524242 -0.40522507127672663 0.008048767579215107
-0.22043610339337866 -0.41071773894556396 0.000689735712635194
-0.20502338686388205 -0.4135542132186737 -0.008495189486736944
-0.19026061201525885 -0.4134873253521366 -0.018667123752051477
-0.17676440729537699 -0.4107054890634531 -0.028916037290511877
-0.16467771101832535 -0.4056709725560952 -0.038436366789076984
-0.15376821983678435 -0.3990138772178143 -0.04660634733150702
-0.14360171602199598 -0.39138083796086603 -0.05303379734579672
-0.13369902249932344 -0.38334036713021596 -0.05754549223251765
-0.12362728668148454 -0.375356368473443 -0.06016487169492728
-0.1130468547136863 -0.3678295372637609 -0.061051575377772956
-0.10173502764430803 -0.36116621298772755 -0.06043349850464764
-0.08968761656832042 -0.3558069219994763 -0.05857496689544406
-0.0772326819202243 -0.3521042720778852 -0.05583722313984399
-0.06479224414934191 -0.35016472070495913 -0.052652283615899985
-0.0526603595918257 -0.3499607141120473 -0.049365228189181536
-0.04102942620662484 -0.35146727296198216 -0.04615116301926119
-0.03003245358111471 -0.35467749238044655 -0.043032998113137655
-0.01977616584969356 -0.35959391420098186 -0.039948989528272805
-0.010431498703479713 -0.366155788974552 -0.036834011852304074
-0.0022109329448080747 -0.37414536767264145 -0.0336483946172493
0.004722767280152472 -0.3832951159461838 -0.030370516168008944
0.010206594189460311 -0.3934018801062375 -0.027012247794676713
0.014014747990227068 -0.4043499128702187 -0.02363327167812347
0.015851520334536573 -0.4161077671999953 -0.020361538052709113
0.015446932300081633 -0.4287096538290535 -0.01740150547798798
0.01266303783055792 -0.4422875818940565 -0.014922013910597616
0.007411449706264705 -0.4570453607599505 -0.013019374764011049
-0.00025942815229633843 -0.4730954329795078 -0.011750616160219806
-0.00999552957519711 -0.4904119069137308 -0.01108167749996947
-0.021120802883511536 -0.5088728445989401 -0.010869140475083229
-0.03272500307486167 -0.5282523937733221 -0.010881710931659381
-0.043812417406168744 -0.5481965976309341 -0.01083635164119803
-0.053456379891784235 -0.568208016765447 -0.01044268679055469
-0.06092613968981757 -0.587697290866262 -0.009440861991396302
-0.06577428883793832 -0.606080260177822 -0.00761873981034557
-0.06785934618693541 -0.6228822813318056 -0.004810952824099545
-0.0672852980986654 -0.6378298200038545 -0.0008827187974640762
-0.06426205247951283 -0.6508511417608385 0.004298285750375891
-0.058987070482349774 -0.6619928203326536 0.010869563671371697
-0.05163482433653986 -0.6713334396282321 0.018940630035379602
-0.042430463228066775 -0.6789530314800007 0.028557298651858576
-0.031715073804647664 -0.6849476340647521 0.03967379319657656
-0.019932086558172517 -0.689473066969991 0.052156925946455546
-0.007549945682614892 -0.6927223984685794 0.06582815588976997
0.005006152855368998 -0.6948676568038292 0.08050279872485377
0.017399877082449916 -0.6960159661927909 0.09601403128126094
0.02943834486248343 -0.696193348290365 0.11221422021043206
0.041089578452200626 -0.6953497045411774 0.1289639271774652
0.05244347888763826 -0.6933902780495661 0.14611673503888162
0.06365277369456904 -0.6902151654256861 0.16350270571023784
0.07488539841954378 -0.6857606377161471 0.18093372110695363
0.08628974614730467 -0.6800431045554864 0.19822177069920868
0.09796832831069646 -0.6731948574285701 0.2152140465405147
0.10996600918198773 -0.6654923518121952 0.23181772556774324
0.12227256589850333 -0.6573516023718595 0.24802037850286884
0.13484870949467004 -0.6492695190945834 0.26388415932702464
0.14765459670824616 -0.6417471106043577 0.27952372711213125
0.16064843665881823 -0.635208425485063 0.2950588565906887
0.17376912348389628 -0.6299707554133994 0.31057306296378956
0.1869211965913671 -0.6262486162615448 0.3260862606493776
0.19997141107089683 -0.6241804055574935 0.34155035915198967
0.21277236422910875 -0.6238620404327726 0.35686854487770825
0.22521410034254952 -0.6253714935483451 0.3719180829616998
0.23725315153475512 -0.6287811518870355 0.3865463404221683
0.2489257340521291 -0.6341481311571533 0.400547904756918
0.26032065546701455 -0.6415051536250342 0.4136478290911663
0.27153863461190814 -0.6508554139896856 0.4255079256133593
0.2826472665877985 -0.6621839321045747 0.43578289887145805
0.29368149542284455 -0.6754983161239296 0.4442235329938591
0.3046911902768172 -0.6908700976121769 0.450687710378855
0.3157504836748229 -0.7084410987600727 0.45504528525189236
0.3269160635373827 -0.7283682449441673 0.4570904875720865
0.3381756506268146 -0.7507403766656677 0.4565261849324924
0.34941168623784846 -0.7754630709369661 0.4530403674243447
0.36041125817221076 -0.8021915912450326 0.44649677802515525
0.37093785110107036 -0.8303701883995623 0.437126918248684
0.3808417241952347 -0.8593410765716397 0.42555771154502264
0.3901109182798456 -0.8883824401402929 0.4127241443462454
0.39885025785030104 -0.9167388064744759 0.399718464461589
0.4072234818746574 -0.9436456591937892 0.38768215417864565
0.4154010071247062 -0.9684088184744533 0.37765045097460265
0.42350230546311934 -0.990427716470953 0.370390897227841
0.4315258980431241 -1.0094082017624997 0.3661678635743183
LINES 1 120
119 0 1 2 3 4 5 6 7 8 9 10 11 12 13 14 15 16 17 18 19 20 21 22 23 24 25 26 27 28 29 30 31 32 33 34 35 36 37 38 39 40 41 42 43 44 45 46 47 48 49 50 51 52 53 54 55 56 57 58 59 60 61 62 63 64 65 66 67 68 69 70 71 72 73 74 75 76 77 78 79 80 81 82 83 84 85 86 87 88 89 90 91 92 93 94 95 96 97 98 99 100 101 102 103 104 105 106 107 108 109 110 111 112 113 114 115 116 117 118 
CELL_DATA 1
SCALARS ComponentValue float 1
LOOKUP_TABLE default
1
