# vtk DataFile Version 2.0
3D curve data
ASCII
DATASET POLYDATA
POINTS 119 float
-0.000354583117364203 -0.0118383162794934 -0.008312612974695696
-0.0012239352165571964 -0.02509449027621645 -0.019164555069618346
-0.0022444534734828133 -0.039219127252716354 -0.032106918760404266
-0.002997509034032411 -0.05376059653039117 -0.046677229785995936
-0.003104614828220226 -0.06843183968014767 -0.06251462882932785
-0.0022965049863960577 -0.08311101083356544 -0.07937861554517461
-0.00048726861865526505 -0.0977137504840703 -0.09707005221747259
0.002167840365993969 -0.11207715685321758 -0.11533051632630162
0.005200022496998662 -0.12592305975463744 -0.13377298274042443
0.007830381070242627 -0.13887238930879447 -0.1518498157093364
0.009189363968104054 -0.15054279755536856 -0.16894145075499342
0.008604024095192316 -0.16073515582489978 -0.18460657363403893
0.005695962440496828 -0.169527538975569 -0.19875543460932846
0.00033520284732243525 -0.17726395212382134 -0.21160246025719082
-0.007512879473531457 -0.18449370347972083 -0.22352168690054766
-0.017870457134603616 -0.19178181482274875 -0.23480423724432517
-0.03065559985896266 -0.1995432869426578 -0.2454847916483582
-0.04544602059053018 -0.20797699993826815 -0.2552904665638405
-0.06155550279763497 -0.21713907846759384 -0.2638587835183205
-0.07824054452310794 -0.22694767258292597 -0.27081766006162683
-0.09491028833521165 -0.2372444480215138 -0.2758557935959607
-0.11120314953179669 -0.24783566277526373 -0.2787404972148228
-0.12697249736169058 -0.2585578904536808 -0.2793618102097243
-0.14224842798131287 -0.26931676431522455 -0.2777348731552202
-0.15717581425894311 -0.28007011880891797 -0.2739625493265329
-0.1719746353564111 -0.2908331517162493 -0.2681811837240986
-0.1869161714487711 -0.30174179207255203 -0.2605171578271841
-0.20223727593670604 -0.3131041129897928 -0.25106917017310565
-0.21789696600880665 -0.3253397687524041 -0.2399642698556309
-0.23331413486658736 -0.33877346690486176 -0.22751213498709533
-0.24737768779241742 -0.35336555820588367 -0.21426482510617517
-0.2590570440604824 -0.36876454684340615 -0.2007713098704972
-0.2675686191004949 -0.38447900474955676 -0.18748425650176284
-0.2724374618226134 -0.39988771552001195 -0.1747361850676954
-0.27354386842914474 -0.4145787341204741 -0.16270775831270717
-0.2708653203432884 -0.42851306278638646 -0.15140567231191443
-0.26425895073853506 -0.4419347399937809 -0.1406842713907894
-0.2534753826882425 -0.4551625214298541 -0.13035730516782343
-0.2383993495670911 -0.4684188738305759 -0.1203525034848424
-0.21939649628434738 -0.4816884968618826 -0.11084645864901536
-0.19758110420093017 -0.49479738047351596 -0.10207565385821805
-0.17425753907256608 -0.5076639946836645 -0.09409532129059817
-0.15061614067608103 -0.5202366948822541 -0.08689731054336039
-0.12768089900626486 -0.5324501724206626 -0.08050635919520731
-0.10628107849374499 -0.5442062420444495 -0.07503218483599501
-0.08700350298774763 -0.5553692182742025 -0.07065465646539462
-0.07011483307184183 -0.5657921727493671 -0.06754438375203928
-0.055430261355259684 -0.575382145811497 -0.065747782400796
-0.04226959937664672 -0.5842931621019363 -0.06509152170312284
-0.02984759767229945 -0.5929262669121519 -0.06527896169135654
-0.01762558105470048 -0.6017260546516677 -0.0660533530370751
-0.005390759799335754 -0.6110336754177874 -0.06724057575841243
0.006811558741021422 -0.621032852003867 -0.06872573839453668
0.01880568230241288 -0.6317764379356351 -0.07040962616199464
0.030418783366839442 -0.6432883565219499 -0.07218791992084962
0.041550409197640276 -0.6556604928342258 -0.0739551106999801
0.05216309267918027 -0.6690688986906734 -0.07561092278361375
0.062274167162645756 -0.6836999651818543 -0.07705479728211301
0.07199940494557844 -0.6996545137759774 -0.07817294478165217
0.0815997803706111 -0.716902811121384 -0.07879737309365904
0.09141040678168512 -0.7352940095119119 -0.07866691340624661
0.10170032863142375 -0.7545161803231988 -0.07751070472423842
0.1127080508223474 -0.7741545750136631 -0.07511425039547065
0.1245733805792042 -0.793796411290566 -0.0713384384388997
0.13722887762504432 -0.8130347495128288 -0.06616184853851803
0.1504295027453756 -0.8314790959704286 -0.05963655306844891
0.16384049869281062 -0.8488307778292539 -0.05180706502174836
0.17709611875575287 -0.8648996268845344 -0.04267697461943967
0.1898384885209989 -0.8795905374333778 -0.03221613179828642
0.20177120600371776 -0.8928840992959128 -0.02037337926329985
0.21272415189656477 -0.9048164395110849 -0.007075787915394884
0.22268870874567678 -0.915433077860687 0.00777436016089892
0.23179770044618267 -0.9247442882614332 0.02426902363211781
0.2402582913360244 -0.9326905610757943 0.04241052119782238
0.24827489384610263 -0.939173885778702 0.06200129905353166
0.2559885525827039 -0.9441664142945637 0.08260700964761489
0.26349444226044383 -0.947796209232109 0.10369532423142205
0.27087748829969927 -0.9503089539222112 0.12481621362242493
0.27821224140387046 -0.9519718691279992 0.1456762764466907
0.2855529732186466 -0.9529989324166239 0.1661356257494284
0.29293300496010205 -0.9535274011322569 0.18617799021328973
0.30037590173577344 -0.9536064602726574 0.20587970401497915
0.30790905355712894 -0.9532118322091025 0.2253668649023206
0.31557664229944876 -0.9522613226862776 0.24475899635830917
0.3234392853638504 -0.9506534606567125 0.2641071102537311
0.33157199245197994 -0.9483004281734324 0.28335123940857293
0.3400698182853077 -0.9451642506222726 0.30233397181452026
0.34903476025130675 -0.9412722877013274 0.3208582557578927
0.358559043589681 -0.9367155770138308 0.3387619559545657
0.3687120651522715 -0.9316558826151771 0.3559695083521505
0.3795322803734975 -0.926309585640759 0.3725079158468396
0.3910148465270571 -0.920936784173053 0.3884872109045987
0.4031047047006572 -0.9158164947812948 0.4040617717613956
0.41567664568480184 -0.9112085251429631 0.4193948410205336
0.42855622529245635 -0.9073317637609624 0.4346332488263712
0.44154444704251217 -0.9043515721254298 0.44989230957380044
0.45445589849943413 -0.9023952620428916 0.4652331759049955
0.4671385212002078 -0.901573638916489 0.4806266174370538
0.4794780921824704 -0.9019795205745473 0.49592997980595965
0.49140390586011085 -0.9036583027689944 0.5108974076770519
0.502894089749308 -0.9065831618225222 0.525216933807393
0.5139738465662803 -0.9106564097814872 0.5385653904666861
0.5246831933479777 -0.9157212955047329 0.5506568700986327
0.5350578430047774 -0.921591296709092 0.5613129512311656
0.5451616121845521 -0.9281267432093722 0.5705481539615963
0.5551322998005009 -0.9353007474178447 0.5785106969964421
0.56513998089566 -0.9431907263745289 0.5853420286716502
0.5753080868661895 -0.9519118686883522 0.5911125526523263
0.585689296424008 -0.9615687974418763 0.5958444152817935
0.5962807830566828 -0.9722440211762672 0.5995718723020461
0.6070523081492508 -0.9840277062210817 0.6023607028567038
0.6179404028130682 -0.9969896224992956 0.604282632187276
0.6288377878746947 -1.0111217977959808 0.6054219339086717
0.6396119555400908 -1.026310169822656 0.6059017918124019
0.6501497414289958 -1.0423597223089107 0.60588441191566
0.6603548577592795 -1.0590001994640263 0.6056015286252978
0.6701107456262362 -1.0758575838252875 0.6053676417524381
0.6792267737888098 -1.0923099165953352 0.6055344281615964
0.6873692375457421 -1.1075272053970366 0.606208333605678
LINES 1 120
119 0 1 2 3 4 5 6 7 8 9 10 11 12 13 14 15 16 17 18 19 20 21 22 23 24 25 26 27 28 29 30 31 32 33 34 35 36 37 38 39 40 41 42 43 44 45 46 47 48 49 50 51 52 53 54 55 56 57 58 59 60 61 62 63 64 65 66 67 68 69 70 71 72 73 74 75 76 77 78 79 80 81 82 83 84 85 86 87 88 89 90 91 92 93 94 95 96 97 98 99 100 101 102 103 104 105 106 107 108 109 110 111 112 113 114 115 116 117 118 
CELL_DATA 1
SCALARS ComponentValue float 1
LOOKUP_TABLE default
1
