# vtk DataFile Version 2.0
3D curve data
ASCII
DATASET POLYDATA
POINTS 119 float
-0.011645511547040514 -0.015172643979191913 -0.010185003302475319
-0.021161975028090335 -0.030685849399338876 -0.023363120105375328
-0.028843723221756996 -0.045641254386094746 -0.038669280391112226
-0.03501496657321001 -0.05933565686952155 -0.0549897689551921
-0.040135391067877876 -0.07169806737529008 -0.07152862708581258
-0.04481124962051908 -0.08292235251051093 -0.08780166693504976
-0.049714056245984295 -0.09319422814724446 -0.10346280568448697
-0.055546884609200195 -0.10262270790219837 -0.1182238590002216
-0.06303195115860868 -0.11124630074877767 -0.13186569623715694
-0.07291077189317208 -0.1190998074923037 -0.14429953274627733
-0.08594721145529788 -0.12624424454912989 -0.1555338842258975
-0.10280538802373046 -0.1327448020078041 -0.16557447220222896
-0.1238371513576037 -0.13869792152768107 -0.17437337101470288
-0.14869056111574935 -0.1442686203729427 -0.18180043669667692
-0.17612462092243536 -0.14976224145972394 -0.18780245275908533
-0.20441233043813384 -0.1555030334934533 -0.19237870675374324
-0.23156240930187072 -0.16167176525630378 -0.19556050951408888
-0.25617626154570605 -0.16833515995496232 -0.1974342603039682
-0.2777587584641592 -0.1754799116266399 -0.1979676120961153
-0.29676092902724577 -0.1831114885325219 -0.1969395341643318
-0.31385494494778554 -0.19122183740702428 -0.19396536672307418
-0.3296841848666426 -0.19990506829489335 -0.1887506301070777
-0.34487288086395174 -0.2093520446013762 -0.1811292455763193
-0.3598933661195219 -0.21975894722386408 -0.1711126561117658
-0.3749457368121324 -0.2312254781659104 -0.15901615403864106
-0.3899126437561467 -0.24370763922099087 -0.1455295203759831
-0.4043763002138002 -0.25702912963893365 -0.1316354153966694
-0.41766073625232997 -0.27092707877476996 -0.11841990923121477
-0.42889461698944414 -0.28492199729653894 -0.1069426717178034
-0.4376665225497653 -0.2984402370204578 -0.0976532456764222
-0.4437620734678345 -0.31148424331029056 -0.09030894482153053
-0.4465418324920307 -0.3238437196996802 -0.08477523463532913
-0.44566517266805333 -0.33506046029154923 -0.08084929785470983
-0.4412429157353321 -0.3449134518236828 -0.07819301864828974
-0.43347250910879753 -0.35343242230134414 -0.07651938095146973
-0.4221524396817752 -0.3606869826655609 -0.07569037385865428
-0.40685238400953005 -0.36646732989605757 -0.07585220573558392
-0.3876509583035053 -0.3703452339576296 -0.0772664985955926
-0.3651924490088537 -0.37204463622331424 -0.08002055012437015
-0.34041157485474405 -0.37144644789614223 -0.08413277067291246
-0.3148014844748661 -0.36860792461506675 -0.08947750241439524
-0.28979732331413577 -0.3638520347522155 -0.09574513684611582
-0.2664083751712531 -0.35758260775880796 -0.10258648051049755
-0.2452012794377746 -0.35022624671051084 -0.10963558167055185
-0.2262799360322537 -0.34217880443995163 -0.11658765741603411
-0.20931104686556662 -0.33371581571411835 -0.12328937587039268
-0.193654026019502 -0.32499069218333065 -0.12971513920382194
-0.17855658074152359 -0.31617485688721164 -0.13585983064813473
-0.16333121076694976 -0.3075869786431914 -0.14164548362634324
-0.14754887104696315 -0.2997376673878846 -0.14689679872711178
-0.13113200436126532 -0.29318596616074327 -0.1514219135530403
-0.11427167722922875 -0.28836488631477786 -0.15510263695382973
-0.09731805339160457 -0.2855244368227926 -0.15790819673660622
-0.08067706061581431 -0.2847368032989937 -0.15985431599921684
-0.06470369754791883 -0.28596419530567696 -0.16097756465682525
-0.04964837757317661 -0.2891505210400906 -0.16133056498341503
-0.03569517131795384 -0.2942896377654558 -0.1609920503847685
-0.023006918781699616 -0.30141710350234213 -0.1600813120259057
-0.011747991748331854 -0.3105605039373811 -0.1587645113985708
-0.0020633804317522417 -0.32167202289546476 -0.1572335326141069
0.005964500286087521 -0.33458438145971026 -0.15566466080849997
0.012372872598501625 -0.34901556402586276 -0.15417048576845585
0.017356509072217773 -0.3646238080156524 -0.15276014436657892
0.02121556524598947 -0.38107158015476733 -0.1513482205206581
0.0242815271309065 -0.39802893598492517 -0.14979835934772873
0.026899604158040713 -0.4151847324845913 -0.14794549239738392
0.02941306898650546 -0.4322976757521102 -0.14560933481434896
0.03212066180591738 -0.44920271044694493 -0.14261166999893712
0.03522572727503954 -0.4657841943904015 -0.1387935258564162
0.03882241927337082 -0.48195040876761125 -0.13402384944330709
0.042922669444153405 -0.4976192988001849 -0.12819276367104937
0.04750655298103117 -0.5127001744764145 -0.12119504505510652
0.052556961790050295 -0.5270827740186071 -0.11292549754137433
0.058057873722968424 -0.5406196402283291 -0.103305338599737
0.06396817581871145 -0.5531244239879445 -0.09235108669713257
0.0702019289256496 -0.5644390036380273 -0.08022355267657981
0.07666358985246305 -0.5745068866874896 -0.06717747514137822
0.08329328516674961 -0.5833643238402884 -0.05346812063753019
0.09007564619392323 -0.5910966996409339 -0.03929157590824067
0.09702688122993686 -0.5977955774019382 -0.024742860276338208
0.10417674308403625 -0.6035173353326357 -0.009810023752736954
0.11155427466685539 -0.6082402740352568 0.005602364376298319
0.11918273787301908 -0.6118457063239465 0.02163032532559058
0.12708563252279748 -0.6141198668167486 0.038399136689348655
0.13529203860031788 -0.6147891748033278 0.055973088823306844
0.1438355640622865 -0.6135819237671548 0.07431260887372447
0.1527543888141714 -0.6103285393930766 0.09324533995635864
0.16208651489974824 -0.6050317770124621 0.11248834597100393
0.1718660802759292 -0.5978991748277338 0.13171869591132984
0.18210809110051385 -0.5893416927599049 0.15065132642644938
0.1927827192176054 -0.5799350782974007 0.1691042496183642
0.20380393559462723 -0.5703278974529906 0.18702642633580746
0.2150288748363399 -0.5611527326582784 0.20448750600962373
0.22627556711070765 -0.5529018002327165 0.22164746604964172
0.23735652523459638 -0.5458826024866277 0.2387054943924451
0.2481148465603533 -0.540220742736983 0.2558446403594487
0.25845716555352094 -0.5359093916382814 0.2731838552830885
0.26836945719940597 -0.532882487213818 0.2907226028187861
0.27791842860409943 -0.5310587580403854 0.3083072665793574
0.28723733613336927 -0.530363787265209 0.3256164659188363
0.2965007351250704 -0.5307358045500219 0.34220238455511504
0.3058773743442839 -0.5321167157164695 0.3575747443702061
0.3154645128438762 -0.5344317596948771 0.3713051626491849
0.3252700992262213 -0.5375788607083221 0.3831592128338125
0.3352436516229409 -0.5414416672627957 0.3931609159071401
0.3453442996028757 -0.545939464439368 0.4015192597017647
0.3555334551901493 -0.5510318640207723 0.4084827681343065
0.3657423980089113 -0.5567198515373659 0.4142447446181844
0.3758766893848069 -0.5630240867497912 0.4189394114865026
0.3858487282045306 -0.570014322685949 0.42267685318086945
0.3956060138386367 -0.5778277323777529 0.4255533078393019
0.40513570781444497 -0.5866448669248921 0.4276630165638365
0.41445281437285925 -0.5966130993899478 0.4291168903011338
0.4236001064936073 -0.6077758052607385 0.4301174108493971
0.4326590184644743 -0.6200228888354361 0.4309927647841794
0.44176021423541384 -0.6330936750958862 0.43221294299271085
0.45111151017484025 -0.6466398939050911 0.4343056235189463
0.4609609880122162 -0.6603190952816963 0.43770883755500534
0.4714607736512656 -0.6738399281045354 0.4425670574126112
LINES 1 120
119 0 1 2 3 4 5 6 7 8 9 10 11 12 13 14 15 16 17 18 19 20 21 22 23 24 25 26 27 28 29 30 31 32 33 34 35 36 37 38 39 40 41 42 43 44 45 46 47 48 49 50 51 52 53 54 55 56 57 58 59 60 61 62 63 64 65 66 67 68 69 70 71 72 73 74 75 76 77 78 79 80 81 82 83 84 85 86 87 88 89 90 91 92 93 94 95 96 97 98 99 100 101 102 103 104 105 106 107 108 109 110 111 112 113 114 115 116 117 118 
CELL_DATA 1
SCALARS ComponentValue float 1
LOOKUP_TABLE default
1
