# vtk DataFile Version 2.0
3D curve data
ASCII
DATASET POLYDATA
POINTS 119 float
-0.001786866475564768 -0.016613053590074416 -0.010092883710976545
-0.003755156494416704 -0.03287779052619142 -0.02256096599030842
-0.006194550751856463 -0.04815568881183157 -0.036716832340528076
-0.009257938458422384 -0.062123441376043705 -0.05180082966735843
-0.013170175941360114 -0.0749665899232863 -0.06731434811923957
-0.018254584439658588 -0.08694804386295248 -0.0828937316787598
-0.0248289683679375 -0.09827550195200174 -0.0982103373299781
-0.033150052733912354 -0.10910536603555591 -0.11292444329168014
-0.04336691240121236 -0.11956867703181867 -0.12669181602604843
-0.055491751559847806 -0.1298089145115971 -0.13921503661722165
-0.06938718660067489 -0.13999672339452496 -0.15029729344606643
-0.0847730133316333 -0.15029596866890832 -0.15987196019310107
-0.1013352220237124 -0.16083690068961656 -0.16803311569459678
-0.11880171822688193 -0.17154733526479315 -0.17496877973624897
-0.13687014401313224 -0.18215506111713606 -0.18092066169499713
-0.1555173533499065 -0.19240601488093353 -0.1858365798928565
-0.17448853288734537 -0.2020220584422988 -0.18936737811375223
-0.19341582501365823 -0.21093461364384336 -0.19124797716020578
-0.21204713713672277 -0.21935182264938066 -0.19132881047674802
-0.23033894138650224 -0.22765208922752866 -0.189453867609377
-0.24824533429558798 -0.2362384831823762 -0.18543981778257349
-0.2655886547503157 -0.2454668009605535 -0.17922290219170967
-0.28204001075485874 -0.25561239821174153 -0.17099486824883117
-0.29711478502033445 -0.26683456837267405 -0.16126629087020233
-0.3102031643872035 -0.2791084745138696 -0.15086766141365632
-0.32067868947529143 -0.2921641502596435 -0.14085981962716945
-0.3281132249189775 -0.3054995172328922 -0.1322932647170843
-0.3324851364672885 -0.31859772271767733 -0.12584987653038154
-0.3340329995971725 -0.33110707459374056 -0.12174635950127384
-0.3330555638294038 -0.3427663119167932 -0.11984228035254617
-0.3297029301257043 -0.3534466780719556 -0.11984993691795962
-0.32388224398623056 -0.3631000457854653 -0.12163851264216054
-0.3153823291274538 -0.3716814355935311 -0.12529715391139407
-0.30422719680422783 -0.3789411001295434 -0.13083363543008097
-0.29067401863994036 -0.38455491387592494 -0.13812655458514975
-0.2749442032203819 -0.3882428227602411 -0.14717290868461844
-0.2573542556198 -0.38962698939680096 -0.15801530014190848
-0.23870523885123146 -0.38834693059037756 -0.17034004491167085
-0.22008039541634203 -0.3844409532597868 -0.18327108754666807
-0.2022544607791823 -0.37841511535112554 -0.1957649043960557
-0.1854832840875849 -0.3709782578071745 -0.20707484728588477
-0.1697743459472625 -0.3628762173943217 -0.21676467648151013
-0.15506082095022553 -0.3548504264554353 -0.22457227249969225
-0.14118584477615842 -0.3475337174421273 -0.23040867105605115
-0.1278747814698813 -0.34136431347542134 -0.23439639665016307
-0.11476475308047174 -0.3366051766928562 -0.23682012789726897
-0.10147159648854959 -0.33345339832714177 -0.23801937099987433
-0.08770992280153171 -0.33215816237166773 -0.2382988347861639
-0.07344287984242326 -0.3330168779405082 -0.2379134791675495
-0.05887379331397005 -0.3362684694116557 -0.23707050377714117
-0.04436576451552022 -0.34198149954038537 -0.2358993501339472
-0.030315539702000984 -0.35003164476910975 -0.23445243827818746
-0.01714249326623563 -0.36017211836999663 -0.23271720486406283
-0.005262244848164071 -0.37205695476180745 -0.23063690870477352
0.00501102922467979 -0.38532939939557065 -0.22813222262636895
0.013487724240191444 -0.3997236031448553 -0.22513340535759876
0.020061194494515978 -0.41509064742261914 -0.2216081995551912
0.024662073699516247 -0.4313620690306866 -0.21758074857071563
0.027233794768492296 -0.44850061841573696 -0.21314781663831928
0.027758929518172066 -0.4664005918941315 -0.2085097242060688
0.026388704540518955 -0.4848077886746647 -0.20398364430614058
0.023574539619290454 -0.5033818669911836 -0.19988861143668102
0.019957438966430867 -0.5218585682323228 -0.19643040446385684
0.016199966347146568 -0.5401207396845854 -0.19366916327207834
0.012865331369366621 -0.5582016331095281 -0.19150688982287722
0.010365079634148651 -0.5762180725035447 -0.1897276234720477
0.008971897261624243 -0.5942939036333843 -0.18804944808549318
0.008844928639829575 -0.6125028249403153 -0.1861570367915153
0.01004990716250076 -0.6308196184411066 -0.18371275796045838
0.012580168462793289 -0.6490827710160187 -0.18036386837351534
0.016368524364763944 -0.667011247628878 -0.17576490789030602
0.021306355919838618 -0.6842554836165895 -0.16960553949560436
0.027287645548749274 -0.700467101436033 -0.1616284978511725
0.03425461998254609 -0.7153322540752595 -0.15164384893208208
0.0421954031181717 -0.7285495140361307 -0.13957373364771952
0.05109597326688052 -0.7398537379729008 -0.12551233359002606
0.060896757718526394 -0.7490877384442929 -0.10971788760791525
0.07148529671922979 -0.7562439846819151 -0.09255446676639048
0.08271469319156077 -0.7614668318026007 -0.07442238243951989
0.09443026608055119 -0.7650160310892287 -0.05567847423392228
0.10647436764700514 -0.7671966272522335 -0.03658307224752107
0.11869332344161239 -0.7682860423492955 -0.01727907882334772
0.13094202428044938 -0.7684845276210843 0.00217939850044284
0.14309014069794618 -0.7679011163380883 0.02176105647394823
0.1550343012602747 -0.7665483193974781 0.041404261763081505
0.16671153363129737 -0.764370371891999 0.06101420589698146
0.17810480837507983 -0.7612608797711926 0.08048822562418241
0.18924275796754453 -0.757093047527252 0.09974236062404786
0.2001908063616183 -0.7517621432642358 0.11874136252580245
0.2110427009465466 -0.7452586683445084 0.1374854072696395
0.22189693703401847 -0.7377189227246239 0.15600395323122496
0.23283986573861407 -0.7294388432577978 0.17433472771878897
0.24393434106883133 -0.7208528152454986 0.19251973680745607
0.25521321377158157 -0.7124737450058694 0.21061981124999124
0.2666832732631308 -0.7048432672493579 0.22870818334969054
0.27833752753881386 -0.6984854869962571 0.24686488991149283
0.290170568708668 -0.693891320287535 0.26515574649995594
0.3022028453179692 -0.6915108279347931 0.28361326106564455
0.3144904483314537 -0.6917386553045946 0.3022095311485453
0.32712689061950984 -0.6949006920827806 0.3208241311614691
0.34021325612413356 -0.7012279622581306 0.3392162687114718
0.35383291975776143 -0.7108122550175833 0.35700477324136554
0.3680156327678568 -0.7235606304674641 0.3736823595737667
0.382721924439619 -0.7391980135612619 0.3886962729460064
0.397836060029941 -0.7573008286789684 0.40153724345934455
0.413187036481455 -0.7773735550114824 0.4118014997961003
0.4285733580767399 -0.7989329025051651 0.41921797676718897
0.4437766569028768 -0.8215535234414922 0.423641519888459
0.45858043923379344 -0.8448782893221307 0.42504566872347016
0.47277430493075034 -0.8686152540785235 0.42354894669144166
0.48615352107372833 -0.892538834464765 0.4194469384118169
0.49855707032598273 -0.9165153078608581 0.413246210800426
0.509875924571521 -0.9404831338649194 0.40562908197114395
0.5200491552892261 -0.9643500066066012 0.39746852673241395
0.5290384205365517 -0.9879023804886089 0.3898117582825473
0.5368152381494371 -1.0108083146352767 0.38379223455622474
0.5433773109362293 -1.03269035129065 0.38043911011505954
0.548723023566604 -1.0533310688001978 0.38046209764394856
0.5528320543960021 -1.0729642750969168 0.38420671529523914
LINES 1 120
119 0 1 2 3 4 5 6 7 8 9 10 11 12 13 14 15 16 17 18 19 20 21 22 23 24 25 26 27 28 29 30 31 32 33 34 35 36 37 38 39 40 41 42 43 44 45 46 47 48 49 50 51 52 53 54 55 56 57 58 59 60 61 62 63 64 65 66 67 68 69 70 71 72 73 74 75 76 77 78 79 80 81 82 83 84 85 86 87 88 89 90 91 92 93 94 95 96 97 98 99 100 101 102 103 104 105 106 107 108 109 110 111 112 113 114 115 116 117 118 
CELL_DATA 1
SCALARS ComponentValue float 1
LOOKUP_TABLE default
1
