# vtk DataFile Version 2.0
3D curve data
ASCII
DATASET POLYDATA
POINTS 119 float
0.0020036034622313136 -0.00853289274745481 -0.004247908104283002
0.006108357619744171 -0.01949173202320038 -0.01023020189197971
0.012583093974819808 -0.03261335652656627 -0.017904870657853632
0.02125316168609087 -0.047278777377293656 -0.027124567621964225
0.03180428259067415 -0.06278960142491108 -0.03769510665645189
0.04391873148612529 -0.07876859688424055 -0.049475574397534645
0.05707909150626967 -0.0950442819441158 -0.0623220000135018
0.07039417670432141 -0.11141629611866948 -0.07598495490077631
0.08256159652339426 -0.1274693165970288 -0.09000629292458608
0.09216013140388124 -0.1425548577239045 -0.10370775838738774
0.09818664457689366 -0.1560377639699477 -0.11633599655367637
0.10038667365846307 -0.16764629506643022 -0.12734088312784564
0.09909665425611622 -0.17756844162144386 -0.13653784717639886
0.09492090608542542 -0.18640608529951275 -0.14408948739125407
0.08834180100728689 -0.19501768937754102 -0.1503625462221053
0.07967690521554163 -0.20417887451351052 -0.15565485041076352
0.0692661372484295 -0.21441333063266452 -0.1600832065577892
0.05761429989633828 -0.2259210731298949 -0.16358959281838617
0.04530801009793028 -0.238607990056174 -0.1660632432526378
0.03285106663644599 -0.25213541331776246 -0.16738507781812884
0.02052702090804011 -0.2660325043502816 -0.16744370877787682
0.008387383299817974 -0.27980029624295194 -0.16614351862188392
-0.003703342070018943 -0.29304761209098146 -0.16342863415427067
-0.016011183921253818 -0.3055680760788528 -0.15925819495523375
-0.02885905906394492 -0.3173053984698425 -0.15357680703983634
-0.042556205379634254 -0.3282880421396853 -0.14632552089401427
-0.05733690662307474 -0.3386080853215029 -0.13750276857405513
-0.07328735676288906 -0.34848875695233217 -0.12720163493615014
-0.08992113403413522 -0.3582101254952366 -0.11580932380163841
-0.10598040626878896 -0.3677626593647939 -0.10416036987482619
-0.11992033247185042 -0.37671306220419376 -0.09317633557359845
-0.13097214358773934 -0.38472678373384245 -0.08323498493478547
-0.1384972707509471 -0.3915482232151253 -0.07472907546715042
-0.14251072906439802 -0.39676892966637645 -0.06804010921750048
-0.1439065766669707 -0.400603882510216 -0.0629361015128673
-0.14341734042019344 -0.4036360125027441 -0.058836364551750245
-0.14120026383645015 -0.4063656375342162 -0.05524940543191432
-0.13704098264452147 -0.4091011343688301 -0.05194635900623908
-0.13067218788114376 -0.41196771213393335 -0.04896595012548641
-0.12213576935331591 -0.4148022255236505 -0.04663024755226035
-0.11211448043813912 -0.4172338288922499 -0.04527725042514793
-0.10143860414557845 -0.41896477460854253 -0.04499754016309
-0.0907775477866398 -0.4198050227086614 -0.04571810549633068
-0.08059336999617958 -0.4196996253287561 -0.047272348616705435
-0.0711228027270096 -0.41870167179469425 -0.04945598556495212
-0.06239962267176791 -0.4169187531253365 -0.05208247508225175
-0.05431662724867535 -0.41444766699315544 -0.05501775513667904
-0.04657542370805211 -0.41133020512598417 -0.058166841104164854
-0.038705394878233684 -0.4076911346459045 -0.06134606613492703
-0.03039088259085419 -0.40394866085193093 -0.06420686612241347
-0.02163276218325154 -0.40070882537405866 -0.0664201485679293
-0.012619272533690416 -0.39850035688431007 -0.06786041372040114
-0.003533807105670631 -0.3976595941639568 -0.06861098790255193
0.005514808229493776 -0.39837888007138605 -0.06885993482223064
0.014472721603946304 -0.4007669308827695 -0.06880913865313967
0.023360122535352218 -0.40490247080160013 -0.06860507544542216
0.032252625082093464 -0.41096245388476815 -0.06831218778644012
0.041170379973345286 -0.41925325559802334 -0.06793120758102199
0.050040492687866873 -0.4300737691029666 -0.06742750928605888
0.05875902423460259 -0.4435763622684294 -0.0667241219716588
0.06719320728902066 -0.45968781554234883 -0.06566406693376928
0.075124136963269 -0.47800509555531084 -0.06408186390697215
0.08242105823081314 -0.4978095443726094 -0.061835468517667316
0.08912868555479932 -0.5182332713534009 -0.05877902305355347
0.09544753194093548 -0.5384387783043441 -0.054820162645521614
0.1016880731337719 -0.5577417550610911 -0.049944222805216446
0.1081834680400233 -0.5756791500207896 -0.04418668259246854
0.11520830671658348 -0.5920169969055362 -0.037600745588212754
0.1229361431075049 -0.6067394035531929 -0.030235254215147202
0.1314404792208264 -0.6199873160396354 -0.022117450182423788
0.1407280522885827 -0.6319872867107703 -0.013245125004255866
0.15078086753126851 -0.6429653626475047 -0.003585377881716068
0.16156402673035333 -0.6530796650392833 0.006910534266527107
0.17298320563341765 -0.6623565823687751 0.01826623119064064
0.18484779030447276 -0.6707004486942209 0.030423323820364872
0.19689134948324416 -0.6779680516305757 0.04322075656377314
0.2088768332035516 -0.684059162194339 0.05645240648363602
0.22068342617536985 -0.6889453057786246 0.06995361216337288
0.23230264754691324 -0.6926431437634246 0.08365195241889493
0.24379015301897422 -0.6951782434030962 0.09758042828813498
0.25522575711151513 -0.6965765751703351 0.11186208465655885
0.2666752149214187 -0.6968541088972745 0.12666256754815805
0.27817853601558 -0.6960223707978875 0.1421311828792711
0.2897503278009161 -0.6940871220420459 0.1583553285291025
0.3013884575467136 -0.691076234029629 0.1753172692767935
0.3130810211004697 -0.6870546257946317 0.19286672366664956
0.3248348396080589 -0.6821532576757166 0.21073736941441154
0.3366898505263006 -0.676557700818221 0.22861926279694134
0.34870822020269526 -0.6704813793073506 0.2462291932957829
0.36094314862816396 -0.6641270108429059 0.26337243529247667
0.3734155224930888 -0.6576590170070782 0.27997555897327875
0.38610607340193237 -0.6511985502156201 0.2960915867318065
0.39896030831281026 -0.6448147244781853 0.311872690190458
0.41188354205885286 -0.6385382815429019 0.32752154908196995
0.4247570945333706 -0.6323830104495155 0.3432532855142289
0.4374614234822888 -0.6263726357212058 0.35926025583925536
0.4499128338789934 -0.6205762573632955 0.375664348927058
0.46207268409560276 -0.615131860940063 0.39246088487334063
0.4739438533001323 -0.6102496765237065 0.40948717901043463
0.48556678115863783 -0.6061734647911367 0.42643375443952686
0.4970127893680884 -0.6031389688987934 0.44290494959818894
0.5083576831608528 -0.601328240272906 0.4584737693463254
0.5196474892528906 -0.6008376418167468 0.4727506817693866
0.5308760681968132 -0.601652120400926 0.4854575393766764
0.5420327080679257 -0.6036704295952475 0.49650982497092844
0.5531703369899361 -0.6067710834417652 0.5059945810803326
0.5643944683933619 -0.610847425919536 0.5140279889598941
0.5758011594800235 -0.615789655409346 0.520667264783921
0.5874463974489388 -0.6214631819809073 0.5259102969207051
0.5993775323345274 -0.6277249644455134 0.5297574602293385
0.611671128486777 -0.6344860396805494 0.5322479369805987
0.6244053098996417 -0.641714018426 0.5334519125846509
0.6375989812521815 -0.6494039016595378 0.53348816572171
0.6511738282029662 -0.657559007005082 0.5325299051160782
0.664984084824035 -0.6662108178125282 0.5307939113532604
0.6788386716518431 -0.6754099912752954 0.5285699608882228
0.6924854978443767 -0.6852136860732234 0.5262446514965331
0.7056587408511733 -0.6955723318946989 0.5242685454031536
0.7180434182527033 -0.7061578980595645 0.5229625685447967
LINES 1 120
119 0 1 2 3 4 5 6 7 8 9 10 11 12 13 14 15 16 17 18 19 20 21 22 23 24 25 26 27 28 29 30 31 32 33 34 35 36 37 38 39 40 41 42 43 44 45 46 47 48 49 50 51 52 53 54 55 56 57 58 59 60 61 62 63 64 65 66 67 68 69 70 71 72 73 74 75 76 77 78 79 80 81 82 83 84 85 86 87 88 89 90 91 92 93 94 95 96 97 98 99 100 101 102 103 104 105 106 107 108 109 110 111 112 113 114 115 116 117 118 
CELL_DATA 1
SCALARS ComponentValue float 1
LOOKUP_TABLE default
1
