# vtk DataFile Version 2.0
3D curve data
ASCII
DATASET POLYDATA
POINTS 119 float
-0.0011486325450233293 -0.01820274874193871 -0.0036512731344369507
-0.0037910431227165357 -0.037410015170133884 -0.009777129294243165
-0.007975718804342976 -0.056814771309290184 -0.018167754830837705
-0.01347920437360594 -0.07553593322546928 -0.02812678913002481
-0.0200810321618097 -0.09322815672262895 -0.03889359735933051
-0.027706596059318037 -0.10984597842103794 -0.049813069833414096
-0.03632856630248917 -0.1254182181893753 -0.060309843400954743
-0.04582159032195263 -0.13996173176503646 -0.06984633432335174
-0.0558931585764033 -0.1535173636861214 -0.07798535668278668
-0.06622745686736471 -0.1662210991068394 -0.0845133432244097
-0.07677219815775835 -0.17830971039494664 -0.08948195876791865
-0.08788613480996241 -0.18991541873554593 -0.09303605344038224
-0.09992310636018463 -0.20084107658818448 -0.09521714087606792
-0.11285570627546279 -0.21080474187658765 -0.09606728561431513
-0.12657929591089845 -0.21971208797728722 -0.09578568614160413
-0.14134268789230592 -0.22757214629165526 -0.09450619091091997
-0.1574746560244059 -0.2343573368497809 -0.09224306088441549
-0.17525342627737134 -0.2400784585149372 -0.08901296091217309
-0.1946635082554033 -0.24479273800786255 -0.0848254436149819
-0.21495756111573006 -0.24871117797869657 -0.07986238333694885
-0.23515915494794676 -0.25229698737052947 -0.07448341162661964
-0.2544560092333533 -0.25605207227568605 -0.068978388010656
-0.272199432235212 -0.26034842960949 -0.0635385215084414
-0.2879048939550223 -0.2653495490880669 -0.05831404643576652
-0.3012763496895745 -0.2710127187747324 -0.05346490979430045
-0.3122685585980072 -0.2771519791500609 -0.04915616181385596
-0.3211293944838909 -0.2835590955693549 -0.0454971365650211
-0.3282899149434052 -0.2901079709693352 -0.042512980789168986
-0.33419098133438296 -0.2966749709201324 -0.0402248258833434
-0.3395599636068899 -0.3032221931346906 -0.03843336951236128
-0.3451144666289375 -0.310278739983165 -0.0367453454702793
-0.35064247052881914 -0.31808292043488834 -0.0351075409770027
-0.3555246413389587 -0.32621819523040685 -0.033616132396045446
-0.35928141997459706 -0.33426895046280053 -0.03237538115633777
-0.3616208519260991 -0.3419738302072189 -0.03149614662372766
-0.3623411954002983 -0.34910561785791133 -0.031096509338841415
-0.36131420065168673 -0.35539032080164223 -0.031345550014187984
-0.35851065373380975 -0.360622135254767 -0.03242551998488248
-0.3537994640505162 -0.3646410623225938 -0.034539376100340045
-0.34703305993512285 -0.3670805936451942 -0.037905310192237654
-0.3384118694970842 -0.36746098102932123 -0.04247334274109459
-0.3282727611238914 -0.3655271705144686 -0.047891943652127816
-0.3168521104048399 -0.3612503304964695 -0.05370462644585583
-0.3043087418097644 -0.35479213207135196 -0.05943782923794424
-0.2907758036215432 -0.34649763210826295 -0.06466291466598141
-0.27637091746695414 -0.3368924445338567 -0.06904629426372158
-0.26118203572185145 -0.32667420562154237 -0.07235794295982655
-0.24538141945928804 -0.31667229312039386 -0.07448217008695787
-0.22933858694011 -0.3075923763457407 -0.07553490411071122
-0.21335166760832747 -0.29978618738428564 -0.07584834713533353
-0.19752932376177462 -0.29340179783099113 -0.07574849605754455
-0.1819134018405996 -0.28857436253266505 -0.07544011704280346
-0.16661973617826897 -0.28546938294226015 -0.0750097215952948
-0.1518656733329499 -0.2841963898300956 -0.0744805911147679
-0.13788554143537302 -0.2847315173531981 -0.07386671638368192
-0.12482301368796961 -0.2869232512022049 -0.0731910489753802
-0.11268990074161536 -0.29058589702908333 -0.0724805090001148
-0.10144066374352692 -0.2955829686461589 -0.07176597981800797
-0.09109338544222566 -0.30184346753312785 -0.07108283928066197
-0.08178351109071699 -0.3093167337931298 -0.07047646882412216
-0.07367279511600335 -0.3179529046045323 -0.06999675799639617
-0.06683132049040535 -0.32776714278332225 -0.06964730024194364
-0.06128654626594307 -0.33887910392141296 -0.06939595900449587
-0.057042900664937765 -0.351498003925563 -0.06922703426480896
-0.05408576127593829 -0.36588176989160714 -0.06914213330344622
-0.052361334557564816 -0.3822755327619412 -0.0691570774491916
-0.05171411456928657 -0.40081817799312297 -0.06930192878079748
-0.051841969467962074 -0.42149250250755455 -0.0696129699534764
-0.05229778415098532 -0.4440982730250792 -0.07010387914381797
-0.05253287846958413 -0.4682810297536219 -0.07072266565454682
-0.05197358664096359 -0.4935815422947795 -0.07131787220501105
-0.05012292685004931 -0.5194712957508841 -0.07163256496756626
-0.04664991738802385 -0.5454318053816445 -0.07133436856500368
-0.04143925526613529 -0.5710031457098221 -0.07006477810663486
-0.03459808014476672 -0.5958019917945935 -0.06750435109781272
-0.0264357501278707 -0.6195636649504102 -0.06342897730018404
-0.01739926338349363 -0.6421774579604977 -0.05770892077295109
-0.00796762021006248 -0.6636780967480822 -0.050273635734447666
0.0014581151227360443 -0.6841838960796593 -0.04108412402426042
0.010617502127232923 -0.7037934571955307 -0.03013058454859335
0.019383987179985164 -0.7224862185088103 -0.017458682546296844
0.02773904184465146 -0.740103776798023 -0.0031842933334928444
0.0357595867813717 -0.7563667367591959 0.012500296177783055
0.043588691242767166 -0.7709379839985526 0.02934009504159754
0.05139044251227461 -0.7834919067816695 0.04703706914133127
0.05930359462751576 -0.7938065019074039 0.06528489591534518
0.06741140109705254 -0.8018188479674359 0.08379504464663982
0.07574225261310219 -0.8076453264092726 0.10234465151520541
0.08428622040124498 -0.8115537426293616 0.12081268509037886
0.09302685464380213 -0.8139114549852033 0.13918091018022832
0.10195790558290439 -0.8151556054642863 0.1575178935955954
0.1111117802312466 -0.8157240624301374 0.17593596545839266
0.12056881232565725 -0.8160374807315072 0.19455288416177205
0.13044586132406033 -0.8164699290260796 0.21343733506744358
0.14086588406903894 -0.817334338993425 0.23255863940077415
0.1519288563109733 -0.818869229087088 0.2517619424285491
0.16367873076494854 -0.8212362908361027 0.2707997470797317
0.17609748381694873 -0.8245245396848986 0.28939247170872073
0.18910888843813073 -0.8287548981529252 0.3072755017489438
0.20259679922166057 -0.8339110478104699 0.3242196647146619
0.21641889267431105 -0.8399413944171242 0.3400164053257918
0.2304078635923841 -0.8467633028998311 0.3544695037389792
0.24437082295351606 -0.85425308911179 0.36740513672880054
0.2580934858711208 -0.8622697180732785 0.3787324431778252
0.27136981191470766 -0.8706926598043789 0.3884752555898408
0.28404227233029705 -0.8794812135290824 0.3967611100192445
0.2960260651680307 -0.8886881226513679 0.40373522550271074
0.30729599407710423 -0.8984293400442691 0.4094847582146283
0.31787892532159084 -0.9088434356372799 0.41401774313978057
0.32781224851487156 -0.920017904051968 0.4172908449282602
0.3371360227270942 -0.931942036044202 0.41928805538720126
0.34593295147000613 -0.9445371692479692 0.4200951237825562
0.35437176505969203 -0.9576845264502093 0.41991142374849294
0.36270280455177284 -0.971204654739936 0.41904603264552814
0.3711951407151425 -0.9848023545190436 0.4179130743691794
0.380087790374511 -0.9980454492009954 0.41699233208030895
0.389497793559773 -1.0103538931355396 0.4167107914431859
0.39928480266883615 -1.0211391702234258 0.41732998955561296
0.4092329944063569 -1.0302367955261502 0.41900608406245776
LINES 1 120
119 0 1 2 3 4 5 6 7 8 9 10 11 12 13 14 15 16 17 18 19 20 21 22 23 24 25 26 27 28 29 30 31 32 33 34 35 36 37 38 39 40 41 42 43 44 45 46 47 48 49 50 51 52 53 54 55 56 57 58 59 60 61 62 63 64 65 66 67 68 69 70 71 72 73 74 75 76 77 78 79 80 81 82 83 84 85 86 87 88 89 90 91 92 93 94 95 96 97 98 99 100 101 102 103 104 105 106 107 108 109 110 111 112 113 114 115 116 117 118 
CELL_DATA 1
SCALARS ComponentValue float 1
LOOKUP_TABLE default
1
