# vtk DataFile Version 2.0
3D curve data
ASCII
DATASET POLYDATA
POINTS 119 float
-0.0023318030964857403 -0.013724932479676167 -0.0053628567741816026
-0.0013695140957612633 -0.02767265600854943 -0.012582895080834926
0.0023033449301289983 -0.041902819528278346 -0.021481008042061805
0.007653449974535516 -0.055974300736562475 -0.03160021470431211
0.013527955037458978 -0.06929121770448943 -0.04237309177117545
0.01895338531850812 -0.08154884629322989 -0.053355327437074274
0.023148064301837728 -0.09271506668131843 -0.06423079335792103
0.025521971758759192 -0.10294606793664424 -0.07478160650171843
0.025668346265533173 -0.11252682130893525 -0.08485956835271663
0.02333382976527385 -0.1217958046189993 -0.09432638746257282
0.01842699565464885 -0.13104412420920367 -0.10295493177248163
0.011086259073712013 -0.14050768919068982 -0.11040318484460361
0.0015676460180138302 -0.15044168993070212 -0.11627493508882515
-0.009948832237944863 -0.16105854869098105 -0.12011810246704796
-0.023200384564424463 -0.17237778211306337 -0.12135177466949941
-0.037542414540889 -0.1843351834387424 -0.11960067614829342
-0.05239563067034474 -0.19696192090882828 -0.11482499270535071
-0.06741128043121623 -0.2102716860997254 -0.10709704211036855
-0.08238453668682363 -0.22420662999435595 -0.0965459183925676
-0.09718867261154186 -0.23863992446651028 -0.08334968355865417
-0.11156558842004921 -0.2533442047480365 -0.06781499738933017
-0.12505633126637372 -0.2680423375293215 -0.05054568677412648
-0.13710524161477872 -0.282494810158627 -0.03240575512305226
-0.14713588040094913 -0.2965299606585618 -0.014340245931363488
-0.15461798243846175 -0.3099593351123473 0.0027492015684994157
-0.15919161849259444 -0.32251755554770656 0.018075676998574083
-0.16077382690349723 -0.3339043553010883 0.03106135356351918
-0.1595254903925452 -0.34388166821643473 0.04140980146547805
-0.15576638146104946 -0.3523283189578412 0.04909776897360449
-0.14983885087091395 -0.35929960254776344 0.05434526620546101
-0.14187612740520802 -0.36498976273095646 0.057465191057004476
-0.1317271777430812 -0.36960590036660185 0.05860176517196569
-0.11908790533054661 -0.37326589565004187 0.057556132512618055
-0.10399832691546344 -0.3758954329015045 0.05407719971134941
-0.08693994412411438 -0.37734376968294947 0.04822937500639349
-0.06872345119598101 -0.3775320217325151 0.04039333729487751
-0.05027625275170769 -0.3765238831424453 0.031142924257764576
-0.032506148642267474 -0.3744958376994089 0.02116309249412087
-0.015905166674191982 -0.37169170363764276 0.011031912214893242
-0.00048134406181147334 -0.3682558975153797 0.0009787016854338336
0.013757217634436643 -0.36438890303874594 -0.008830445004968249
0.02689549730922742 -0.36045381342132043 -0.018207305892639476
0.03912953753614684 -0.3568631795239051 -0.0269869575955369
0.05071713766211941 -0.3539843841757927 -0.034976624308696046
0.06198973219131705 -0.3520912832818502 -0.041984807063751156
0.07332779456110994 -0.3513718168556341 -0.047841176790369276
0.08511332258760711 -0.35199882765033225 -0.052360478208826625
0.09753666225079206 -0.3541927736550394 -0.0553010345356037
0.11032315870504916 -0.3580350721024479 -0.056463956944974525
0.12295419807734706 -0.3632465879717531 -0.055813721124456275
0.13510087861342937 -0.36933591630332563 -0.05340173047152649
0.1468096749431524 -0.375919184303269 -0.04925059701268572
0.1583873322845869 -0.3829217232975026 -0.04330267394336294
0.1701136268066441 -0.3905324629497367 -0.03549285107992553
0.18200186858500622 -0.3990006294811644 -0.025896622690832063
0.1938031401612457 -0.40844799045242025 -0.014774378163754764
0.2051312853397384 -0.41886390879061286 -0.002494351053022863
0.21550547221839306 -0.4301550636949442 0.010509612605067496
0.22433411694812022 -0.4421717156382124 0.02372968855797738
0.23097239681711745 -0.45465332002830194 0.03654135729289678
0.23507919732233185 -0.4671786735626655 0.04825357781668983
0.23692132289179996 -0.4794436063738655 0.05852745485370094
0.2369778544246729 -0.4913993487696845 0.06740519183938103
0.23573423905268023 -0.5030853384059844 0.07506506906455115
0.2336830766935522 -0.5145767718770667 0.08175943224981286
0.23129134969915827 -0.5259487806336517 0.08774909084592802
0.22899247085626673 -0.5372239725543756 0.09326005022469641
0.22720102667279765 -0.5483673294485621 0.09848531372525801
0.22631088758158877 -0.5593349795654318 0.10360785617136879
0.22668201443502978 -0.5701068826666851 0.10882941966351697
0.22862727195558624 -0.5806747097292195 0.11438327049346865
0.23240598010995192 -0.5910018970114991 0.12051919994958965
0.23820963907877646 -0.6009822461775163 0.12747152383895688
0.24613578173368705 -0.6104381338548984 0.1354363023384573
0.25616776436930644 -0.6191580991724979 0.14458566318629162
0.2681746044206663 -0.6269248331836388 0.15509241888269576
0.28189938621354454 -0.633543896002824 0.1670962070224401
0.2969603626739547 -0.6388946348782087 0.18065403601558852
0.3129011035429998 -0.6429664103037942 0.19572611434921167
0.3292602468779069 -0.6458207474187942 0.21216686171661184
0.3456020416721451 -0.6475410069701247 0.22971092205730353
0.3615607822838144 -0.6481997745128734 0.2480041170963139
0.37688526240715603 -0.6478361079179826 0.2666727009348586
0.3914639279386744 -0.6464441294559197 0.28539588738243293
0.4053052725768664 -0.6439776661351282 0.30395991461677696
0.4184879133214528 -0.6403912840128876 0.322272401364325
0.4311100764978698 -0.6356795098712097 0.3403545698042476
0.44326443432158047 -0.6299291879012063 0.3583123117994953
0.45503285863962695 -0.6233401613799968 0.37629204274482875
0.46649489907683905 -0.6162166629069323 0.3944343326887132
0.4777361237457373 -0.6089327786499832 0.41281685882816965
0.48884759112839016 -0.6018942988326578 0.4314294553027226
0.49991984809930845 -0.5954831228557212 0.45019157246668245
0.5110283993216276 -0.5900177712897887 0.46900209855329605
0.5222429135703445 -0.585721880233148 0.48779721487281763
0.5336115226632726 -0.5827316700717956 0.506570299245541
0.5451565835605027 -0.5811322659971183 0.5253459929815726
0.5568482200050509 -0.580988041869347 0.544149409350453
0.5685888438011907 -0.5823732664878394 0.5629807316870522
0.5802418291098514 -0.585379657275122 0.5818210566262213
0.5916643862217171 -0.590132961414275 0.6006326207200159
0.6027498742835102 -0.5967960781481074 0.6193262838029843
0.6134604637136842 -0.6055535227624523 0.6377239460401007
0.623860281969181 -0.616582868831889 0.655528794317358
0.6341005201892 -0.6300202982888058 0.6722897100747156
0.6443776468119334 -0.6459321855436395 0.6874149071457041
0.6548754920778892 -0.6642805647298999 0.7002610523094009
0.6657447048911351 -0.6849463506647518 0.7102386728883836
0.6770467583603202 -0.7077069758871511 0.7168610046329914
0.6887252634413198 -0.7321637879629621 0.719783585156861
0.7005714359782861 -0.7576919405790923 0.718922046369327
0.7122845926077509 -0.7835593981403631 0.7145352870970443
0.7235592594364741 -0.8091750264243633 0.7071001700031165
0.7341337243553696 -0.8342011831051659 0.6970837374730985
0.7438418071378132 -0.8585235917048795 0.6848330643223324
0.7526116686342356 -0.8821228568881898 0.6706363371519264
0.7604407243261001 -0.9050005371589744 0.6548406097585517
0.7673568683340206 -0.927141631809187 0.6379510964415565
0.7733374356216077 -0.9483282131929938 0.6207484116278137
LINES 1 120
119 0 1 2 3 4 5 6 7 8 9 10 11 12 13 14 15 16 17 18 19 20 21 22 23 24 25 26 27 28 29 30 31 32 33 34 35 36 37 38 39 40 41 42 43 44 45 46 47 48 49 50 51 52 53 54 55 56 57 58 59 60 61 62 63 64 65 66 67 68 69 70 71 72 73 74 75 76 77 78 79 80 81 82 83 84 85 86 87 88 89 90 91 92 93 94 95 96 97 98 99 100 101 102 103 104 105 106 107 108 109 110 111 112 113 114 115 116 117 118 
CELL_DATA 1
SCALARS ComponentValue float 1
LOOKUP_TABLE default
1
