# vtk DataFile Version 2.0
3D curve data
ASCII
DATASET POLYDATA
POINTS 119 float
-0.012269810125453143 -0.027012920064197837 -0.008738930677872899
-0.019952030750203072 -0.05194131310289285 -0.018922592393958982
-0.023529450893342144 -0.07436815998109995 -0.030078177531404078
-0.02380868328827143 -0.09459655050375226 -0.04201265558604759
-0.021720470806144303 -0.1134627715790431 -0.0547722841836369
-0.018140387890973317 -0.13156353530486758 -0.0682781096691852
-0.013900386835676024 -0.14919482565958958 -0.08222263556078763
-0.009857590909340231 -0.16648165195760764 -0.09610725539278767
-0.006891806012826437 -0.18341650130223447 -0.10930436348158318
-0.005799775612924494 -0.19990477886858732 -0.12117646616567526
-0.007202702720462074 -0.21585012749637583 -0.13122755317977924
-0.011516971533358754 -0.2311932360736061 -0.13917204420257037
-0.018858985254528268 -0.2459267129357985 -0.14491447088668674
-0.029002303721522384 -0.2602051311810515 -0.14855577992463515
-0.04157262271274628 -0.2742982501667298 -0.15035880751646308
-0.056185233094038854 -0.2883987861807236 -0.15050495267514755
-0.07216539478440918 -0.3025191016556202 -0.1491310053312767
-0.08876047246781661 -0.3166440836262066 -0.14645270659600468
-0.10530373935777348 -0.33074354541031553 -0.14264381124575623
-0.12122388654413066 -0.3447564690656483 -0.13780980433460283
-0.13595190329276194 -0.3585467485792474 -0.13206697294486053
-0.14887666682114087 -0.37191732652256937 -0.12568192042174542
-0.1594015586228177 -0.3846461521627218 -0.11911090465195118
-0.1670411109464492 -0.3964847071925288 -0.11292295568890137
-0.1715679395904139 -0.40712657813001907 -0.10767075513167543
-0.173181656908266 -0.4163013898917838 -0.1037281697980639
-0.17246318792324472 -0.4239330261551585 -0.10120568564102339
-0.17006562370986933 -0.43016831837962677 -0.10001664062633163
-0.1663977719649577 -0.4352159783496281 -0.10004907187761246
-0.16159888809082468 -0.4391180265405358 -0.10125951239399003
-0.15570503072299113 -0.4416953296348147 -0.10365543917490601
-0.14890764623180464 -0.4427204896293445 -0.10719287063855415
-0.14133258496708057 -0.44216190424985136 -0.11175151028496623
-0.13287566934464218 -0.4401014897627268 -0.11715092748762236
-0.12332542845580884 -0.43667214360842416 -0.12314151204304874
-0.11255909401037974 -0.4320404821245996 -0.12941730803539073
-0.10058715886727465 -0.4263502312455408 -0.13568088256487387
-0.08769232011440944 -0.41978436468019975 -0.14159003166484507
-0.07417813682058585 -0.4125784711940357 -0.14683114862800503
-0.060265946125320755 -0.4048453593399551 -0.15130250182768085
-0.0464459432641651 -0.39678662383414043 -0.15490398364849603
-0.03315642337956533 -0.3887844668821219 -0.15750159584262463
-0.020633613421986614 -0.3812500110569629 -0.15901137999108098
-0.008986916722652599 -0.3745662320324569 -0.15938924681164424
0.0017995246172024986 -0.36901933508711793 -0.15864325094663545
0.011843395637892806 -0.3648035396206875 -0.15682708672124776
0.02132128579549346 -0.36205278369583116 -0.15401694409277714
0.03040407361429708 -0.36086976801532544 -0.15027783052888352
0.039145784142259346 -0.3613228750807762 -0.1456863413547726
0.04749639572927329 -0.36341813731330247 -0.14036131677868044
0.05538131925578443 -0.3670651520319626 -0.13445118043905444
0.06280256430112514 -0.37211642580242593 -0.1281345533741304
0.06978587994014941 -0.3784760938364896 -0.12160347201858672
0.07629350372005282 -0.3860606069910297 -0.1150510974481247
0.08226053215308017 -0.39475930903586703 -0.10864675367962233
0.08764106101424818 -0.40447766456790013 -0.10250732834207422
0.0923926688721344 -0.4151715475273502 -0.09668044755805563
0.09644942613806219 -0.42684120391551483 -0.09114155168195853
0.09971477335274427 -0.439504166226522 -0.08580956765316368
0.10207407306541025 -0.4531482968837154 -0.08057671380525301
0.10347985220543506 -0.4676603021167997 -0.07533702024748923
0.10406463884741884 -0.4828294070664977 -0.0699483711630618
0.10410982031185373 -0.4983947535360279 -0.06424703639293056
0.10396795597657106 -0.5140517207832953 -0.05812887585115048
0.10397365371096126 -0.5294749770388758 -0.051569663178148054
0.1043961009074642 -0.5443593390353657 -0.04459472273322617
0.10544162811845942 -0.5584422607721797 -0.03724146748345692
0.10725503191441807 -0.5715555718194737 -0.02954390996013453
0.1099306121611094 -0.5836825061494607 -0.021504787952895538
0.11354309914959947 -0.5949245680073444 -0.013050848900913415
0.11815837791653418 -0.6054083145687412 -0.004027256422269352
0.1238158328669179 -0.6151737223736169 0.005751636489033808
0.13050225899049434 -0.6241450794739187 0.016443874295357028
0.13813386141894277 -0.6321565743197449 0.028133602381989406
0.14655393129044897 -0.639007945771804 0.04081140579047993
0.1555492873218544 -0.6445319917878257 0.0543822233148077
0.16488458423261546 -0.6486543001958749 0.06870077107553953
0.17435623971146577 -0.6514168921419117 0.08361788172602434
0.18381784961719871 -0.6529454579187657 0.09901502918384045
0.19319015473908818 -0.6534016205073576 0.11480874628942415
0.20243131778828086 -0.6529470487513063 0.1309374748556433
0.21152908330683953 -0.6517261335197145 0.14736620559986316
0.22050398005952446 -0.6498472107410989 0.16409179958574507
0.22941019849852384 -0.6473667276938295 0.1811245840936766
0.23832790813362645 -0.6442837879516349 0.19845089397020063
0.2473349014069308 -0.6405628248498073 0.2160148019883905
0.2564973206676835 -0.636167418270237 0.2337277442886373
0.26584507365281596 -0.6310893250900698 0.25150959142022106
0.275377652153404 -0.6253881609604027 0.269328206809002
0.2850814546659618 -0.6192117232685126 0.28720449957744537
0.29493955467800614 -0.6127931135354621 0.30520652690347005
0.3049377730338334 -0.6064295749833151 0.32342070221347385
0.3150635440996799 -0.600438987525478 0.3419376039143584
0.32530280230025677 -0.595124067951648 0.3608324660259454
0.335637105474912 -0.5907585693092585 0.38011460638304284
0.3460356151753599 -0.5875781096422186 0.39969246030611527
0.3564553831773535 -0.5857811593509041 0.41937060290919176
0.36684840337668523 -0.5855353739861544 0.43886763580220417
0.3771701724991561 -0.5869686342264937 0.45782853243987404
0.3873911151704944 -0.5901699179330337 0.4758336284536844
0.3974874903487607 -0.5951796895254786 0.49239273586915633
0.4074174500627458 -0.601952207857331 0.5069674253569041
0.4171048146861853 -0.6103069017470041 0.5190731413059838
0.42648043644157385 -0.6199674023933928 0.5284777494483405
0.43557665358462166 -0.6307235012051028 0.5352804903787157
0.44457024526162936 -0.6425826631542679 0.5397346917686442
0.4537024499407987 -0.6557049373275782 0.5420015679649317
0.4631753805983595 -0.6702296902393228 0.5420760454903868
0.4731035826968532 -0.6861388301354999 0.5398762698576857
0.4834923102000641 -0.70317594379396 0.5353890756393689
0.4942478301292588 -0.7208901317235038 0.5288057024376559
0.5052289117480917 -0.7387867648871067 0.5205644669163271
0.5163093706797681 -0.7564908672287067 0.5112471119912818
0.5273798948021095 -0.7737460800172449 0.5015123077053667
0.5382923852920775 -0.7903497591001236 0.49207110800316917
0.5488420298431878 -0.8061061464441186 0.4836755622983183
0.5587459844136943 -0.8207994859138511 0.47705262455633124
0.5676814321364985 -0.8342034110937713 0.4727037493755448
0.5754531084852775 -0.8462288378839811 0.4707015159833775
LINES 1 120
119 0 1 2 3 4 5 6 7 8 9 10 11 12 13 14 15 16 17 18 19 20 21 22 23 24 25 26 27 28 29 30 31 32 33 34 35 36 37 38 39 40 41 42 43 44 45 46 47 48 49 50 51 52 53 54 55 56 57 58 59 60 61 62 63 64 65 66 67 68 69 70 71 72 73 74 75 76 77 78 79 80 81 82 83 84 85 86 87 88 89 90 91 92 93 94 95 96 97 98 99 100 101 102 103 104 105 106 107 108 109 110 111 112 113 114 115 116 117 118 
CELL_DATA 1
SCALARS ComponentValue float 1
LOOKUP_TABLE default
1
