# vtk DataFile Version 2.0
3D curve data
ASCII
DATASET POLYDATA
POINTS 119 float
-0.0006017021042800172 -0.012709283208390319 -0.0017148672226059158
4.267121542247009e-05 -0.026201882701694105 -0.005904977615974694
0.001322808140196048 -0.03983839815779368 -0.012351753601926599
0.002659487948482005 -0.05268009294072966 -0.02034091484089126
0.003645054395928741 -0.06430258098098855 -0.02917317349028772
0.003920499597640826 -0.07470756430704627 -0.03836065969850651
0.003121805728040372 -0.084056064796105 -0.04755688078344415
0.0008938308082758349 -0.09256328770766155 -0.056515893428211714
-0.003091609139875621 -0.1004500973923572 -0.06509936210420039
-0.009159394186105181 -0.10791607679370498 -0.07328288769277344
-0.01770292149795114 -0.11510599461425992 -0.08108759587847716
-0.02920698884662893 -0.12206174548118905 -0.08844495304704031
-0.04400463607954912 -0.12867343446714571 -0.09500218551068779
-0.06180083571290239 -0.13481674654516218 -0.10015535132765505
-0.08177048829953015 -0.14049698233502456 -0.10334313481861049
-0.10278295873985056 -0.14574295862035183 -0.1042853886076696
-0.12383157320874719 -0.15059314334666152 -0.103000665234182
-0.14439279578751982 -0.15508498763709355 -0.09960460035159364
-0.16430673937450693 -0.1592530431030575 -0.09414407997832208
-0.18356143770106453 -0.16323721743402766 -0.08666326015563745
-0.20226329034111076 -0.16729492716194966 -0.0772207814198794
-0.2205960278826828 -0.17176071240638993 -0.06590360000973233
-0.23878515788133967 -0.1770038306202864 -0.05282447894267003
-0.2570391110135973 -0.18338697764082756 -0.038118487024402084
-0.27544679443847575 -0.1912215840734955 -0.021997119348745972
-0.2938065097190952 -0.20068828141071376 -0.00487458899115698
-0.31148728581846374 -0.21165691166497547 0.012519066778680957
-0.32749745434454913 -0.22357357988626608 0.029153611779881586
-0.34063718543875976 -0.23534874013369333 0.043676182093447806
-0.3504713047739897 -0.2456263459888766 0.05523372090645653
-0.3572031577121735 -0.2537845438417328 0.0638430884853503
-0.3609865471083372 -0.2595396423053791 0.06962310136722931
-0.36235972773736613 -0.26297586725323596 0.07296119775331665
-0.3622772464811792 -0.26471170841329095 0.07458894906672635
-0.36144692742750895 -0.2656370846016501 0.07534537717453173
-0.3595559389386769 -0.26634737292000854 0.07562733699388212
-0.3556200615124494 -0.26682318817263395 0.0750427999618139
-0.3490191528194877 -0.26665740850632996 0.07288407376958365
-0.33953652397420364 -0.2654149345274578 0.06870697776249476
-0.3269389528201381 -0.2625285423853125 0.062182526215000804
-0.3116203893053784 -0.2574348489903431 0.05331995820407426
-0.29426571211596897 -0.24993964184158943 0.04255997776074079
-0.2754606178735016 -0.2401599247813202 0.03048826513233737
-0.25575653570625984 -0.22859078855155215 0.017810196484237293
-0.23570792524788622 -0.2160792743456093 0.00530891001041231
-0.21584430486525572 -0.20364899509527057 -0.006291909460936634
-0.1966176011554592 -0.19221547683578297 -0.016464689953927386
-0.1783383161451792 -0.1823985288379703 -0.024918755097528916
-0.1611634306903607 -0.1745099290780739 -0.031541522896358906
-0.14518888587041026 -0.16861390547206984 -0.03635997378646259
-0.13043217956537223 -0.1645512510345308 -0.03954030548975535
-0.1167501564497535 -0.16205813451430326 -0.0413373554351694
-0.10391368996247902 -0.16094957097336915 -0.04202461904824769
-0.09175305810580325 -0.16116744294598168 -0.04186279197957527
-0.08021577656490593 -0.16271986676875863 -0.04110399213148255
-0.0693202366642371 -0.16562913130074672 -0.03998014188013048
-0.05913213904447049 -0.16995151509783268 -0.0386846852437569
-0.04978819763634373 -0.1757851229750605 -0.03737030938012418
-0.041490887650425676 -0.1832442665926565 -0.036153108075329204
-0.03446415269127764 -0.19243727667382912 -0.03511734751913603
-0.028878877295894313 -0.20346353771890868 -0.03430567040416181
-0.024807282302753253 -0.21642031623657837 -0.033655536936073094
-0.022274086318142892 -0.23134954295748522 -0.032964015877351066
-0.021250041228041118 -0.24815180729797284 -0.031924915759965096
-0.02159499657574841 -0.2665397427463661 -0.030183553717148644
-0.023011298552141273 -0.28604102873252923 -0.02739289701906768
-0.025050043558310232 -0.3060630754484844 -0.023266567860465326
-0.02716841268171462 -0.3259822148174932 -0.017613999019954793
-0.028817856315607154 -0.3452197590700695 -0.010353611488304607
-0.029523388022819962 -0.3633017621032472 -0.0015004991966530569
-0.02892606085123844 -0.37990671374351703 0.008873231095652651
-0.0267868511488809 -0.39485314150029455 0.02068409292830269
-0.022978379739611834 -0.4080793913597833 0.03385948200476844
-0.017490387028157545 -0.41960047618190754 0.048330216995119635
-0.010440903044442985 -0.429469250447685 0.0640030128812523
-0.002078882608867311 -0.43776113584414306 0.0807341417028504
0.0072361950768033 -0.4445622435488875 0.09830377438002905
0.017102386234195244 -0.44998310450937273 0.11643692368327793
0.02717743834915534 -0.4541327728027079 0.13486217401130227
0.03724669020575479 -0.4570401103853003 0.15334738568775239
0.04720237826689476 -0.4586239764581767 0.17170067364187142
0.057001036938158015 -0.4587444752478362 0.18981181996476015
0.06666363295422226 -0.4572514577312615 0.20770366652268163
0.07627343025919812 -0.4540114746504858 0.22553719525840743
0.08593811744803156 -0.44894732723299435 0.24354854959099795
0.09573917044313353 -0.4421103526626381 0.261931514097108
0.10570422144532925 -0.433775648489177 0.2807277716552641
0.11583092575526296 -0.42446429120786444 0.2998116078858943
0.12613273915476475 -0.41484485558106937 0.31894279110685575
0.13666825943214697 -0.4055828204199177 0.3378491002656211
0.14753291533512314 -0.39724129629060384 0.3562888462476493
0.15882489262358826 -0.39021528459192023 0.37409097386719414
0.1706159272245355 -0.3847610469218098 0.3911601163455125
0.18290805144003094 -0.3810200467500412 0.40745111003754686
0.19559941137584563 -0.37906287283848206 0.4229380760310594
0.208478218540886 -0.3789063619902612 0.4375809449288536
0.2212534742542947 -0.38052262102932827 0.45132338391416843
0.23363260017154938 -0.38385603310988053 0.46412068501366727
0.24540295935596063 -0.38885066259932266 0.47596003508860035
0.256495858196943 -0.39550643269980035 0.4868544807673011
0.2669857744991653 -0.40391579343309736 0.4968166111965666
0.27705135176746126 -0.4142590075354646 0.5058195173854851
0.28691377915217464 -0.426759340918561 0.5137684701383375
0.2967913358831068 -0.44159957276297424 0.5204955759556238
0.30684100923182933 -0.45879542503452336 0.5257598341870362
0.31711678493190365 -0.47812932272170916 0.5293091572701445
0.3275659452888538 -0.49913032997451934 0.5309554772084903
0.338042265206461 -0.5211879587747269 0.5306257492298573
0.3483269884556375 -0.5436296027921685 0.5283944985840254
0.3581819445077297 -0.5658396288593469 0.5245118429285274
0.36741535120817637 -0.5873624927246963 0.5193973448193361
0.3759267171942433 -0.6079667337725523 0.5135748759947115
0.38371427600659447 -0.6275920617846037 0.5076145877489411
0.39084336640825496 -0.6462431265121781 0.5021354343113981
0.39745178993312424 -0.6638950763586289 0.49780378960722266
0.4037371546411038 -0.6804792865201506 0.4953308785515647
0.4099457797658174 -0.6960279716442783 0.49534751570213564
0.41638010186842034 -0.710921840539072 0.4983300343433228
0.4234409747154299 -0.7259069600260761 0.504684254482573
LINES 1 120
119 0 1 2 3 4 5 6 7 8 9 10 11 12 13 14 15 16 17 18 19 20 21 22 23 24 25 26 27 28 29 30 31 32 33 34 35 36 37 38 39 40 41 42 43 44 45 46 47 48 49 50 51 52 53 54 55 56 57 58 59 60 61 62 63 64 65 66 67 68 69 70 71 72 73 74 75 76 77 78 79 80 81 82 83 84 85 86 87 88 89 90 91 92 93 94 95 96 97 98 99 100 101 102 103 104 105 106 107 108 109 110 111 112 113 114 115 116 117 118 
CELL_DATA 1
SCALARS ComponentValue float 1
LOOKUP_TABLE default
1
