# vtk DataFile Version 2.0
3D curve data
ASCII
DATASET POLYDATA
POINTS 119 float
0.002057043523217023 -0.014539040615039245 -0.008035763165926121
0.0033569820522850622 -0.030862790663758986 -0.01834315945427647
0.0036497650890373744 -0.047955565201300523 -0.03034541011296764
0.0029391922853384787 -0.06497608935109245 -0.04343708208207283
0.0012729648399067966 -0.0813715980962452 -0.057116668152257924
-0.001388555153634139 -0.09678744907977142 -0.07099187593398068
-0.005166011179374125 -0.11097773699878728 -0.08473627127066562
-0.010176817510283475 -0.12373613624180171 -0.09803204918726682
-0.01644124999701062 -0.13492710069619818 -0.11059029130104361
-0.023887331357228585 -0.14456898869779877 -0.12222566495321721
-0.032485828246382596 -0.15289337086299626 -0.1329097283398408
-0.04236895351045136 -0.16025470861152086 -0.14267254476408256
-0.0536560592826848 -0.16699003240091795 -0.15144352420796708
-0.06625731936195078 -0.17342712742239497 -0.1590797690346059
-0.07988958696081486 -0.1798614809101452 -0.1654363883973878
-0.0941072526000521 -0.18652354066025886 -0.1705825268991862
-0.10873038215286435 -0.19360528476745897 -0.1747347212888481
-0.12365680014058167 -0.20116211341640589 -0.1779847636370824
-0.13876571226568285 -0.20917831596357878 -0.18033679974076344
-0.15391673849115128 -0.21763569450444448 -0.18173018956420162
-0.16904544261826132 -0.22656985249034342 -0.18203282799183018
-0.1841800938215707 -0.23604261147352057 -0.18099506536206472
-0.19939027304776452 -0.2461043325871456 -0.1782793614365796
-0.2147512113725494 -0.2567748003067585 -0.17354634491188775
-0.23031336719275722 -0.26804461955443426 -0.16655315346295302
-0.24603667197757312 -0.27987520460103654 -0.15723582199173758
-0.261745195917546 -0.2922202544958695 -0.14573667385473205
-0.2771319447034389 -0.3050724551236443 -0.13234548353336803
-0.2917918332019151 -0.3184408629100116 -0.11741312242872748
-0.3052990037783246 -0.3323378653879031 -0.10122449024883386
-0.3169764064999276 -0.34669352363724765 -0.08415195355382815
-0.32603672561605745 -0.3610731257515331 -0.06697523434494335
-0.33213900390940476 -0.3750338184675847 -0.05047311109457138
-0.3352107850492137 -0.38832821251478555 -0.03517841851091188
-0.3351855528850306 -0.4007613235780225 -0.02151097740761729
-0.3320391991061299 -0.41211570163516187 -0.009853268578476206
-0.3258625145838516 -0.4222555631659929 -0.0004888343889284817
-0.3168235200836491 -0.43111156161780767 0.006437224897149163
-0.3052069725060731 -0.43867705286338715 0.010882386588098508
-0.2914457546808032 -0.44511159977259596 0.012937416512737276
-0.2759388416822675 -0.4507442320054358 0.012834150184114212
-0.25901443706046945 -0.455951411411889 0.010881667156373068
-0.24095269181908022 -0.4611308560549503 0.0074402144566708146
-0.22198210714992297 -0.46668157415920697 0.0028800726985538285
-0.20229477792490122 -0.47297795923989394 -0.002465169174327929
-0.1820677893669329 -0.4803328827101224 -0.008317013436075583
-0.16147489692671319 -0.48898421497559014 -0.014448661663569043
-0.1407756701189331 -0.4990545047660391 -0.020692571695221186
-0.12039965883833477 -0.510410574650902 -0.026989515770319765
-0.10077320928877628 -0.5226162745533168 -0.03337911312532437
-0.0821383212448849 -0.5351305160042426 -0.03990246155240741
-0.06455128002241947 -0.5475263165830138 -0.0465343799274695
-0.04792023935743305 -0.559586329021157 -0.05318659432032792
-0.032058919771003766 -0.5713381341857102 -0.05973981591124947
-0.016809024426770493 -0.5830034995411585 -0.06604878772145274
-0.0021262017113163464 -0.594828880825963 -0.07193642415803025
0.011982381350468198 -0.6069884999033863 -0.07721187932813073
0.025557190667984335 -0.6195806249104531 -0.08169823419354225
0.03870758426496099 -0.632657098782487 -0.08524105779355579
0.05159562387099792 -0.6462347024318372 -0.0877109095022095
0.06440417228347187 -0.6602982203038589 -0.08900519884033489
0.07728259405580946 -0.6748072916365468 -0.08905701027833174
0.09030142606104159 -0.6896928878134311 -0.08785075891786495
0.10345673028121641 -0.7048692169637645 -0.08542695316740985
0.11669437055174918 -0.7202470706192816 -0.08187018727189482
0.12991307827172427 -0.7357290260190765 -0.07730646911135626
0.14296828313943039 -0.7511756960723298 -0.07188835775773844
0.15570207483682236 -0.7663790597071438 -0.06575292564470683
0.16797007708389602 -0.7810415639090524 -0.0589867120388789
0.17965984114202774 -0.7948171232205752 -0.05162708701506522
0.1907194831678187 -0.8073968295147418 -0.04367849699520934
0.20118748091781652 -0.8185982847831681 -0.035124847891255244
0.21120211926960814 -0.828402284043996 -0.02593016987407093
0.22099432377589406 -0.836917962696697 -0.016040397937957213
0.23085271381436095 -0.844316403968173 -0.005402278786278664
0.24106650672372457 -0.8507725546389773 0.0059940880460427086
0.25185553036381975 -0.8564363189076398 0.01808105097694931
0.2633110306162477 -0.8614353408084192 0.030715451276773158
0.27538609633768596 -0.8658944386453862 0.043721509678517456
0.2879330496431206 -0.8699390961167375 0.05696214602862877
0.30079044480470685 -0.8736778405864366 0.07039647273628319
0.3138455593203645 -0.8771615372861395 0.08407303452329148
0.32703422772990265 -0.880359121475855 0.09807973603683273
0.3403236868358719 -0.8831725585140883 0.11249279744840258
0.35369886923884875 -0.8854804526081184 0.12735192215784574
0.3671549639897989 -0.887191024179984 0.14265100601551206
0.38069772963775694 -0.8882714593765405 0.15834938180163705
0.3943315522436962 -0.8887715881085145 0.17437992242630876
0.40804498491203034 -0.8888139049410694 0.19065669270445731
0.4218143506143882 -0.8885905641555348 0.2070796058106181
0.43561887991812276 -0.8883668966300593 0.22354297452816005
0.44946279419030816 -0.8884640158319872 0.2399494733338918
0.4634042682750005 -0.8892470059346538 0.25620993130806907
0.4775371251310986 -0.8911044537337004 0.27225903325401346
0.4919786106927892 -0.8944260108620938 0.2880530716853603
0.5068309554957305 -0.89957358272593 0.3035523661929948
0.522114150037338 -0.9068506969951028 0.3186801379466548
0.5377266062848686 -0.9164287600444309 0.3332854835757821
0.5534370978958929 -0.9282828921802901 0.3471343651768096
0.5689304100664014 -0.9421413935689924 0.3599466414966748
0.5838735304860336 -0.9574956759356023 0.3714581573720134
0.5980016152985597 -0.9736892357265202 0.3814819498155414
0.6111638916527532 -0.9900745302863714 0.38995182886039376
0.6233326512621218 -1.0061559627323509 0.3969193372851009
0.6345783135879212 -1.0216681236330367 0.4025392435099727
0.6450257912151229 -1.0365795249446776 0.4070340786027244
0.6548385580103426 -1.0510568919756809 0.41066493813925514
0.6641788514944885 -1.065388206877444 0.4136908676472966
0.6731915597493112 -1.0799137881146192 0.41635175189705076
0.6819744245631764 -1.094925365099976 0.4188426739399005
0.6905710814219134 -1.1105850713970045 0.421311381389684
0.6990030119832212 -1.126886577264253 0.42384078378008927
0.7073077659375772 -1.1436580949304158 0.4264375317078348
0.7155684228418641 -1.1605989777120036 0.429032205557675
0.7239062001136345 -1.1772880427459806 0.4314872799457214
0.7324425269869234 -1.1931659223292324 0.4336086938668664
0.7412017190098464 -1.2074821383217547 0.435147196758836
0.7499714376917315 -1.2194714612711737 0.43590958048507233
0.7583590299078292 -1.228762648694448 0.4359254327081814
LINES 1 120
119 0 1 2 3 4 5 6 7 8 9 10 11 12 13 14 15 16 17 18 19 20 21 22 23 24 25 26 27 28 29 30 31 32 33 34 35 36 37 38 39 40 41 42 43 44 45 46 47 48 49 50 51 52 53 54 55 56 57 58 59 60 61 62 63 64 65 66 67 68 69 70 71 72 73 74 75 76 77 78 79 80 81 82 83 84 85 86 87 88 89 90 91 92 93 94 95 96 97 98 99 100 101 102 103 104 105 106 107 108 109 110 111 112 113 114 115 116 117 118 
CELL_DATA 1
SCALARS ComponentValue float 1
LOOKUP_TABLE default
1
