# vtk DataFile Version 2.0
3D curve data
ASCII
DATASET POLYDATA
POINTS 119 float
0.0018621315046538254 -0.023357492209565067 -0.008486380925536881
0.00618918165671244 -0.04490577797613514 -0.018145786068214962
0.01186689700898316 -0.06410729194113737 -0.028532107007158018
0.0178491474720446 -0.08069766141777651 -0.03908744452404746
0.023314368779423115 -0.0949526075142921 -0.04943727199339166
0.02760003784501962 -0.10725398065884066 -0.059319429382176735
0.030249470110913362 -0.11794838069295632 -0.06851704760998077
0.031037786771697773 -0.1273741914062564 -0.07685909110419506
0.029927146926929077 -0.13591420119848802 -0.08427122324361536
0.026922603385349235 -0.14402440567332206 -0.0908038850520034
0.02194751446086593 -0.1521860583964455 -0.09652833903206046
0.014812786857702594 -0.1608296848934883 -0.10139381990321826
0.005261267794314968 -0.1702102534577636 -0.10512621005576865
-0.00671201913065326 -0.18026337171187584 -0.10719256201034756
-0.020533117017729037 -0.1907145968972767 -0.1070432940200283
-0.035302532413395905 -0.20129842709664278 -0.10446698237027299
-0.050311169350128734 -0.21184795686483376 -0.09957276503189122
-0.06530515729094596 -0.22224229189848912 -0.09258032678122557
-0.0802692366615748 -0.2322865940996585 -0.08367347673826643
-0.09500891662332138 -0.24178952636110485 -0.07323736789618476
-0.10931883603227664 -0.25071488726982816 -0.061902298851779364
-0.12305201031724691 -0.25913939315349155 -0.0503493060651948
-0.13601411379015516 -0.26716685233284343 -0.03921250866885377
-0.1478792958469616 -0.2748557427555439 -0.029033800983078763
-0.1581641701173336 -0.28216922732052746 -0.02023448056613317
-0.16631205926549122 -0.28896003335945825 -0.013102859019488048
-0.17190408114765277 -0.29501181491784945 -0.0077610077945749565
-0.17485946641132682 -0.30015421813247856 -0.004128231305437663
-0.17547422308389277 -0.3043567750280172 -0.0019708601829584835
-0.1742270931805426 -0.3079002875482122 -0.0008764491366186167
-0.17091038872942874 -0.3113245756571911 -0.0006184310944817855
-0.1647243375082902 -0.3147047234005173 -0.0014713932274898565
-0.1552267951627796 -0.31769426923403815 -0.0038697358735090273
-0.1428404767968027 -0.31976935643873183 -0.007964992968706218
-0.1285739781221005 -0.3203117461978112 -0.01354341430009488
-0.11361030765348293 -0.3187446040245276 -0.020173374778500473
-0.09885177530453798 -0.314691892531565 -0.0273603280288199
-0.08440689673409596 -0.3078468032547287 -0.03485432154092614
-0.06973129247658377 -0.2977072045602156 -0.042722613192588306
-0.05420523103856928 -0.2836404254635691 -0.05107543926457693
-0.03775620942158399 -0.26559658872287883 -0.05957947385396397
-0.020403522734726356 -0.24444983821954275 -0.06758303211583643
-0.002019716423684785 -0.2215614058614485 -0.07457561494160107
0.017467003290874753 -0.1984506760470941 -0.0802858618058397
0.037985240928481996 -0.17652473957033704 -0.08463239835386903
0.05942239635532519 -0.1568769545123736 -0.08763077600815786
0.08167271960671596 -0.14032903348196193 -0.08926926538061336
0.10437470690991858 -0.12760234631170989 -0.08949690412616976
0.12669048713047545 -0.11911656927801517 -0.08843702409762144
0.14776766907983394 -0.11472001584318411 -0.08642838620629574
0.16710942136850326 -0.11391587540860919 -0.0838058768105822
0.1845496593797496 -0.11615596621396349 -0.08079136847373797
0.20015571161876564 -0.12094040545512652 -0.07751519537816648
0.21413617597746376 -0.12783642608949472 -0.07408603536151097
0.2267395032319297 -0.13645296851712937 -0.07065586456887207
0.23817631362916367 -0.1464163700587124 -0.0674424603707679
0.24855593414821098 -0.15737616037727484 -0.06470599746071617
0.2578339610694908 -0.16902916281698352 -0.06269688359208518
0.26578025854468723 -0.18116330133740993 -0.061601134520372074
0.2720108295376631 -0.19368392480333857 -0.06154674028764265
0.27619622946148775 -0.20667566650494895 -0.06265222731522535
0.27818200933290554 -0.22053048830500552 -0.06496850003232503
0.277723656593529 -0.23583072631879004 -0.06847210703552495
0.2745177687082004 -0.2530322751958996 -0.07303903115762964
0.26846949107045354 -0.2723241488327786 -0.07834086370656876
0.2598411308533687 -0.2936692548837278 -0.08389189353072171
0.2492565264262262 -0.3168695875232486 -0.08919834204633062
0.23763048525679092 -0.34164237238198275 -0.09389625716619424
0.2260591919776535 -0.3676737351926481 -0.09780982975632672
0.21567931015999842 -0.3946422216280655 -0.10090921712775436
0.20748857798820158 -0.42220002565551595 -0.10321415503756191
0.20220899199693237 -0.44995146951062315 -0.1047163188772871
0.20022210717836247 -0.4774300494803424 -0.10534316158526978
0.20157301235862246 -0.5040650846532043 -0.10496471324037555
0.20598113488011816 -0.5292181887573296 -0.10344798404839076
0.2128981020425599 -0.5523234188807645 -0.10070703823324337
0.22164488194896614 -0.5730200568238384 -0.09668468199566141
0.23155852142971733 -0.5911400624801129 -0.09133460084578672
0.24207548766899786 -0.6067008636947318 -0.08463021169874173
0.25277457635958095 -0.6198719939775961 -0.07655742973399411
0.2633824865720551 -0.6309071091885581 -0.06709819189331695
0.27374872380718496 -0.6400593729939602 -0.05623015301932603
0.28382562713312814 -0.647505049109892 -0.04395399314340262
0.29364512726218933 -0.6533121081950176 -0.03033073505364016
0.303290306768493 -0.6574381189516886 -0.015515870866175403
0.3128641314767389 -0.6597835458474424 0.00024113640116357141
0.3224572005549737 -0.6602676631785992 0.016633756966922465
0.33212627853868537 -0.6588913337872081 0.033366790621763454
0.3418943463097974 -0.6557666329296695 0.05022195401553239
0.3517551257646812 -0.6510967976809955 0.06709402354780322
0.3616740825397562 -0.6451466875509155 0.08399126532042626
0.37162325687005493 -0.6381932569216702 0.10100405897298004
0.3815943722722156 -0.6304854967471973 0.11826466488512069
0.3916129558247062 -0.6222032637616804 0.13589333683776578
0.4017400599914194 -0.6134310278641166 0.15397808901507612
0.4120674271357996 -0.6041792883815152 0.17256603132349183
0.4227187042392577 -0.5944190344196012 0.19168021574715693
0.43384115168206117 -0.5841388219058662 0.21134784547799568
0.44561525879190067 -0.5734065504805831 0.23163436460804762
0.4582433913393481 -0.5624311903246879 0.25262134910010636
0.4719261164402031 -0.5516107854774994 0.27432007092237953
0.48676572436610327 -0.5415394303832745 0.2965581443473263
0.5026700896006755 -0.5329242740354304 0.318902638294111
0.5192932187193522 -0.5264286651663432 0.3407045406460432
0.5360866207841603 -0.522509585626179 0.3612593347381455
0.5524845993135559 -0.5213304004618801 0.3799958818069215
0.5680474838072324 -0.5228113632636842 0.3965051794923851
0.5825285613884885 -0.5267352238188044 0.4105150810864764
0.595853420896612 -0.5328181637019328 0.4218384814224724
0.6080970015654752 -0.5407716639963124 0.4303962394288166
0.6194736880241446 -0.5503501661967498 0.43627081949999547
0.6303111860913447 -0.5614050312536759 0.4396990883340479
0.6410053212033145 -0.5738451033985008 0.44101204508145253
0.6519541327861429 -0.5874812567313938 0.44063499753417673
0.6635155446630704 -0.6019151234466845 0.439137325807264
0.6759983696987193 -0.6165308638646776 0.4372195639325741
0.6896461137754621 -0.6305468115441843 0.43563105020614273
0.7045670890045392 -0.6431003105251534 0.4350850939333983
0.7207363950418776 -0.6535273130961847 0.4362081294622251
LINES 1 120
119 0 1 2 3 4 5 6 7 8 9 10 11 12 13 14 15 16 17 18 19 20 21 22 23 24 25 26 27 28 29 30 31 32 33 34 35 36 37 38 39 40 41 42 43 44 45 46 47 48 49 50 51 52 53 54 55 56 57 58 59 60 61 62 63 64 65 66 67 68 69 70 71 72 73 74 75 76 77 78 79 80 81 82 83 84 85 86 87 88 89 90 91 92 93 94 95 96 97 98 99 100 101 102 103 104 105 106 107 108 109 110 111 112 113 114 115 116 117 118 
CELL_DATA 1
SCALARS ComponentValue float 1
LOOKUP_TABLE default
1
