# vtk DataFile Version 2.0
3D curve data
ASCII
DATASET POLYDATA
POINTS 119 float
-0.008333322446809465 -0.015410102609640678 -0.012934095100232837
-0.015267871463663003 -0.03176553022676166 -0.028339073191939977
-0.021011340159702706 -0.048031845909310755 -0.0453722620097117
-0.025872583008801867 -0.06352342400971431 -0.06307067723651881
-0.030242044117392335 -0.07805221985491831 -0.08075351907009755
-0.034596277823831574 -0.09160417744699041 -0.0980023818747547
-0.039443448835673134 -0.10414404132038524 -0.11451565503961952
-0.04529890520557364 -0.11558840216744075 -0.13003329123049484
-0.052665973694712924 -0.12584391224306318 -0.14433469273570979
-0.06202378733100541 -0.13490712156432366 -0.1573022897498752
-0.07386245013923948 -0.14289971584912226 -0.1689510863143381
-0.08865826274514443 -0.15000252325742747 -0.1793748569856203
-0.10671222103666937 -0.15643204137764372 -0.18863130602879402
-0.1278464051958669 -0.16251343885024414 -0.19662330485248042
-0.1511807020761124 -0.16866087749602737 -0.20305697573819353
-0.17497957422342644 -0.17522165895310557 -0.20784016239956402
-0.1976141977708332 -0.18246155190452543 -0.21122606307879954
-0.21820878148976694 -0.1904544643706413 -0.2134691180683833
-0.23656428664462906 -0.19910794905058096 -0.21462445563688368
-0.2530126682502678 -0.20833526891145243 -0.2145801255858938
-0.2680257359575655 -0.2180819155980766 -0.21310875823143785
-0.28209130629955764 -0.22840451696958824 -0.21001747818323802
-0.29569199246004807 -0.23942619146557445 -0.2051738397325889
-0.3091952514033431 -0.2512367969265707 -0.1985480848386277
-0.3227701563544656 -0.2638420246110321 -0.1902681588514775
-0.3363612836955831 -0.277196370117957 -0.18059762639956567
-0.3496204125298396 -0.29126424825229486 -0.1698676578220737
-0.3617251605944031 -0.3059099229269932 -0.15855451122668562
-0.37156496432581565 -0.32065575154229725 -0.14733325655296478
-0.37856535039701716 -0.3350085579499134 -0.1365643651901605
-0.3824656593920721 -0.3492187879324588 -0.12616467920176813
-0.38250434903204633 -0.3633656904547362 -0.11635472518986956
-0.3780743251950642 -0.37720934109834287 -0.10715479988005089
-0.3686365225238261 -0.3904743037960829 -0.09844316128802434
-0.3540127757399839 -0.4025244067593765 -0.09035489968586485
-0.33440086144162784 -0.41267364236217075 -0.08311373811870594
-0.31024327500101223 -0.4203600499133301 -0.07701998303076188
-0.28227918558573084 -0.4251806931730239 -0.07243994139877866
-0.25170266435335364 -0.42698088098519127 -0.069703530029945
-0.220074394292395 -0.42602694063167923 -0.06891216807094483
-0.18888138600834545 -0.4229547055798483 -0.06988205228957811
-0.15917011619934007 -0.41848905981952766 -0.07227671423348392
-0.13153077989141676 -0.41323822724911863 -0.0757239194212851
-0.10621684414438587 -0.40766959784496004 -0.07983402581029635
-0.0832080265378215 -0.40216661727437325 -0.08422449186898509
-0.06222036022790209 -0.39702854784867647 -0.08858143721967317
-0.04277629097678808 -0.3925205062857228 -0.09267878227371767
-0.02439218067767536 -0.3889490989251853 -0.09638630509274343
-0.006686662753918127 -0.38660589361004105 -0.09971673799966706
0.010663681401329603 -0.3856973522078515 -0.10279792272433226
0.02794301364055217 -0.38635768663687553 -0.10577899357727995
0.045367243979009646 -0.3886957365661406 -0.10876593457614303
0.0630453712612224 -0.3928113129383909 -0.11179201684569076
0.08097944683631673 -0.39877260391971564 -0.11481201669785383
0.09910391928946088 -0.40662920561858706 -0.1177265289213461
0.11728633054122527 -0.4164075166628501 -0.12042538498615821
0.13533013181932682 -0.42804162277618235 -0.12282252492138503
0.15305990992294094 -0.44135188940048387 -0.12487617349393491
0.17033402211464366 -0.45610009822865777 -0.12657904668333925
0.18701868994906365 -0.47199859220567786 -0.12791254273364114
0.20297795619827558 -0.4887185647690454 -0.1288002021896969
0.21807964457800727 -0.5059371689915684 -0.12909991618434463
0.23221306286928797 -0.523394324575605 -0.1286401698368517
0.24526582460851004 -0.54092740543805 -0.12728532193017306
0.25709404850952894 -0.5584248611986704 -0.1249761919481397
0.2675860557029843 -0.5758249931161148 -0.12170798975891532
0.27671965550703476 -0.5931365643475917 -0.11748937094028378
0.28455849318751825 -0.6104001484270541 -0.1123182104481559
0.2912066471657105 -0.6275971968305438 -0.10618370908405927
0.2967817568002964 -0.6446074076149109 -0.09908371762208303
0.3014150264113231 -0.6612026672697392 -0.0910357029962929
0.30527375723723255 -0.677106974830763 -0.08207819006731643
0.30857016871163084 -0.6920739823646533 -0.07226609072237046
0.3115513807843955 -0.7059526714028928 -0.06166686266211012
0.3144719040971084 -0.7187067349142918 -0.050364697047338564
0.3175611749180519 -0.7304188260854266 -0.03845632516197353
0.32100858025480317 -0.7412441314458185 -0.026020958417663186
0.3249506207219972 -0.7513325012169201 -0.013102856975101457
0.3294589413599287 -0.7607800616571194 0.00027863984191751467
0.334539956144107 -0.7696187984328358 0.014126051140008759
0.3401570147999441 -0.7778097656984677 0.028458576208325245
0.3462622204821546 -0.7852308283602427 0.04329598238035692
0.35281001203704687 -0.7916845014739227 0.0586500889256697
0.3597712111098247 -0.7969356392081017 0.07452316880677498
0.36714770168139144 -0.8007685044868394 0.09091365416815769
0.374970472453563 -0.8030343837159484 0.10780502983786266
0.38328906535440016 -0.8037103458111456 0.12514084398692238
0.3921423206762192 -0.8029244143889115 0.14280248996822553
0.401541829073947 -0.8009589746366574 0.1606233807926706
0.4114706810891836 -0.7982193566189455 0.17843693722538534
0.4218834041615099 -0.795190293074151 0.19612410768384014
0.43271465004683124 -0.7923670345754137 0.2136315210057209
0.443882764136079 -0.7902257743574209 0.23094688163822458
0.45529140704751675 -0.7891622196123471 0.2480508031785049
0.4668321177900332 -0.789456499825784 0.26486397097924336
0.4783833680365719 -0.7912393189834983 0.2812082722497762
0.4898084480480699 -0.7944717272519919 0.2968198083281403
0.5009796458424678 -0.7989646304544353 0.31139728327304117
0.5118063403199338 -0.8044225940966105 0.3246582997777766
0.5222585340561363 -0.8105189603914396 0.3363804652772289
0.5323704407550263 -0.8169556441208152 0.3464078086154144
0.5422124288098195 -0.8235013032908406 0.35466040210542593
0.5518314128255503 -0.8299848057889119 0.36114250200997844
0.5612265025043935 -0.8362842673754473 0.36598392261894286
0.5703518534731828 -0.8423327952012403 0.3694666665087823
0.5791603916839267 -0.8481496263957686 0.3719712453156381
0.587615369466832 -0.8538318307795333 0.3739001868979258
0.5957014449790102 -0.8595576890036669 0.37561459287575505
0.6034468696983106 -0.8655644157288256 0.3774205048641526
0.6109260571385826 -0.8721458494162482 0.3795610465965124
0.6182303362363338 -0.8796057799086774 0.38220219839802416
0.6254389201155783 -0.8881825146028113 0.38541779988352753
0.632623466017957 -0.8979692014652919 0.38918270257033316
0.6399021104893031 -0.9089110667747008 0.39341621404316435
0.6474766955169943 -0.9208159604889731 0.3980036172406165
0.6556249841117802 -0.9333495897605503 0.4027953276338645
0.6646338988618679 -0.945980401882865 0.4075366419390139
0.6746350814133582 -0.9580969688439588 0.4118414231594186
0.6855867380262525 -0.9693168102390658 0.4153123795103533
LINES 1 120
119 0 1 2 3 4 5 6 7 8 9 10 11 12 13 14 15 16 17 18 19 20 21 22 23 24 25 26 27 28 29 30 31 32 33 34 35 36 37 38 39 40 41 42 43 44 45 46 47 48 49 50 51 52 53 54 55 56 57 58 59 60 61 62 63 64 65 66 67 68 69 70 71 72 73 74 75 76 77 78 79 80 81 82 83 84 85 86 87 88 89 90 91 92 93 94 95 96 97 98 99 100 101 102 103 104 105 106 107 108 109 110 111 112 113 114 115 116 117 118 
CELL_DATA 1
SCALARS ComponentValue float 1
LOOKUP_TABLE default
1
