# vtk DataFile Version 2.0
3D curve data
ASCII
DATASET POLYDATA
POINTS 119 float
-0.00040262750857996115 -0.02187242647980301 -0.010260239297394814
0.001696016201640373 -0.04211538076639731 -0.021216076350089902
0.005724481821581893 -0.060506760092822715 -0.032686061957359985
0.011113098791916968 -0.07728175259595857 -0.044742553771571526
0.01719127415614951 -0.09277620821278733 -0.05748225745688628
0.023175969741303353 -0.10713721417878526 -0.07081292974997075
0.028286135879615707 -0.12043033694295577 -0.08449770438550513
0.031771971318819946 -0.13271072168975162 -0.0981958530584396
0.03297729616311042 -0.14402217219809774 -0.11147522034352526
0.031502121937424604 -0.1545009647643637 -0.12394790763101513
0.02719076434901517 -0.16448878149875934 -0.13542516277098846
0.019943220927334776 -0.17448701453552623 -0.14586067182182644
0.009571800807322034 -0.1850286259102653 -0.15515160883632356
-0.0039943673456966835 -0.19642084934687706 -0.16293732728351631
-0.020174889556796728 -0.20865349002655997 -0.16865582296488013
-0.03764156202622386 -0.2216509865330794 -0.17205184726940026
-0.05511664543148964 -0.23547259785587543 -0.17331487945910828
-0.07177373910978993 -0.25018715741200837 -0.1727815701934229
-0.0872729237162091 -0.265810021376586 -0.17073767176669946
-0.1016931968123409 -0.282270913510125 -0.1673046087204832
-0.11526114779350494 -0.2993234987753758 -0.16244912170585302
-0.1282533261442422 -0.3166154981138453 -0.15612007478334683
-0.14099808718780604 -0.3337764462818252 -0.14830743353682946
-0.15381945679654094 -0.3504882848383515 -0.13905128842347542
-0.16692249650997082 -0.36653370144623576 -0.12845195824209332
-0.18023281662925844 -0.3817768568324848 -0.11672915527550155
-0.19329722518514386 -0.3960897481242614 -0.10428524611133969
-0.2054358470621098 -0.4093756888375192 -0.09160181393606982
-0.21591925946395557 -0.421674270734348 -0.07905559846539953
-0.22383954967685288 -0.4330333691238798 -0.06704662892671688
-0.2283289323293282 -0.44316915957604464 -0.056170329727050425
-0.22912924706764537 -0.45175426967274895 -0.04698388714548003
-0.22663030278753007 -0.45888160746920953 -0.03967049115264739
-0.22125875401654252 -0.46491521551277093 -0.03399214916043183
-0.2129012706087235 -0.47006121859564826 -0.029749961360940755
-0.2010474853296041 -0.47409453319359207 -0.027169605628926487
-0.18535083206949426 -0.4762758583088695 -0.026832246721122634
-0.16637081991943828 -0.47556198614404827 -0.029247050770583476
-0.14549810525581997 -0.47127622564813876 -0.034348185686811084
-0.12411268490322364 -0.46350587580955505 -0.041513390964600466
-0.10282288829769155 -0.4527750684705759 -0.050021907149724106
-0.08187520950775898 -0.43973866346781487 -0.05925028428936107
-0.06144551322941092 -0.42525330394091404 -0.06857183689742392
-0.04159589255671267 -0.41026496142894564 -0.07742981942212072
-0.02228897900764494 -0.39566773027180896 -0.08544282149259343
-0.0034426408373787725 -0.38221096104871044 -0.09244809260846953
0.015010706485269493 -0.3704795780977267 -0.09847574795820409
0.03305765771006549 -0.360915278966864 -0.10368607798209355
0.05056006778375742 -0.3538257815662895 -0.108293470844579
0.06729072890327625 -0.34933957997957615 -0.11250557213282857
0.08307021295047118 -0.34737272750040116 -0.11649281522640463
0.09789098632198182 -0.3477329821253312 -0.12038123337706821
0.11184246055497704 -0.35029094074256584 -0.12425066405983792
0.1250004596239444 -0.3550187546904931 -0.12815092380353219
0.13732426939704165 -0.36193231128500136 -0.13210009682902024
0.14863027407500012 -0.3709495424939086 -0.1360559688425562
0.1586902941388596 -0.38183899023722373 -0.13991530386074108
0.16731983824964883 -0.39427960460167233 -0.14357374859499766
0.17438915036258656 -0.407949827760544 -0.1469853685975988
0.17983948403413502 -0.42253728331132123 -0.15018463299295787
0.18374607940231974 -0.4377782864015546 -0.15327111072466015
0.18633506044486117 -0.4535379533628241 -0.1563388954439821
0.18789105043463278 -0.46983091149214895 -0.1594249161479251
0.18871413356497213 -0.48674831760130544 -0.16248705095398908
0.18913082129304587 -0.5043965168161025 -0.1653995152852223
0.18948337169028898 -0.5228341980159849 -0.16798148376286154
0.19010458083011178 -0.5420168034315206 -0.17002315822665492
0.1913095482018939 -0.5617521445988701 -0.17128370583850183
0.19337846880225923 -0.5817012297876932 -0.17148305614409745
0.19653250009815132 -0.6013910502845135 -0.17030572542166994
0.20089553552122688 -0.6202840751559879 -0.1674329817693473
0.20650059222770195 -0.6378951769791308 -0.16258128907639025
0.21334824602850727 -0.6538694035276937 -0.15550777021651713
0.2214899707977116 -0.6679703135615251 -0.14599091537487305
0.23104173864744126 -0.679987014714599 -0.13385026772104425
0.24211749354209766 -0.6896790216362664 -0.11903732123312598
0.2547403378257683 -0.6968217461517672 -0.10170911550532377
0.2687939638878125 -0.7012896252946976 -0.08224397293847586
0.284037541020306 -0.703138895116004 -0.06118635618523879
0.3001525527741774 -0.7026130407440124 -0.039137317175456876
0.3167916739416126 -0.7000762590229173 -0.01664615999687509
0.333622641778196 -0.6959431663804214 0.005847666955413559
0.35035677941499455 -0.690623684333513 0.028025271554553696
0.3667593762255995 -0.6845013304950137 0.04966919856630985
0.3826627425855064 -0.6779154744558127 0.07065783322574612
0.39797469040934896 -0.671128267960162 0.09097345223477994
0.4126692128572093 -0.6642842491029645 0.11069552926530092
0.4267716877399209 -0.6573963294680596 0.1299471532133946
0.4403246908402827 -0.6503850183828528 0.14884136741222273
0.453373312620127 -0.6431551403844726 0.1674515536290639
0.46596481505758564 -0.6356634115177615 0.18583197784075572
0.47816877934821644 -0.627975980395426 0.20404011067963243
0.49008803487959407 -0.6203084352434628 0.2221258044343331
0.5018430886732212 -0.6130365086128529 0.2401123688707432
0.5135570022028237 -0.6066749013514481 0.2579846254827869
0.525335046506015 -0.6018107488709159 0.27569167819134294
0.5372604731772295 -0.5990230344250642 0.2931619316154099
0.549417656474085 -0.5988129498916299 0.3103261048237191
0.5619251606351492 -0.601583117582072 0.32713479100696297
0.5749694565457201 -0.607655433896089 0.3435443633237817
0.5887836657306832 -0.6172977097707135 0.35945736946084894
0.6035918952543005 -0.6306778341282824 0.37462436805062405
0.6195520389323572 -0.6478126579250052 0.3886103834066934
0.6367195899421387 -0.668533486217101 0.40080403600069925
0.6549933743551538 -0.6924899985845685 0.4104947316981148
0.6741223084284288 -0.7191836706252518 0.4169909535696615
0.6937487359421366 -0.7480423290287908 0.4197469875385019
0.7134449646506315 -0.7784784965084018 0.41840063399831656
0.7327480245177218 -0.8098762908593781 0.4128007329917489
0.7511838449077645 -0.8415663817357071 0.40304560202555795
0.7683091670969235 -0.8728236319441283 0.38955683261274876
0.7837926456829192 -0.9029630882717552 0.3731398195700136
0.7974611988090738 -0.9314851556892857 0.3549044168762021
0.8093100247421853 -0.9581243364383796 0.33614859463442825
0.8194440629235088 -0.9828194730989386 0.31819352669729195
0.8280170816735333 -1.0056141094889188 0.30226091967009555
0.8352058407112889 -1.0265321165643024 0.28938298653969985
0.841139360109243 -1.0454998319598632 0.2802806821556573
0.8458489968799168 -1.062459812222056 0.27518570439074674
LINES 1 120
119 0 1 2 3 4 5 6 7 8 9 10 11 12 13 14 15 16 17 18 19 20 21 22 23 24 25 26 27 28 29 30 31 32 33 34 35 36 37 38 39 40 41 42 43 44 45 46 47 48 49 50 51 52 53 54 55 56 57 58 59 60 61 62 63 64 65 66 67 68 69 70 71 72 73 74 75 76 77 78 79 80 81 82 83 84 85 86 87 88 89 90 91 92 93 94 95 96 97 98 99 100 101 102 103 104 105 106 107 108 109 110 111 112 113 114 115 116 117 118 
CELL_DATA 1
SCALARS ComponentValue float 1
LOOKUP_TABLE default
1
